<event>
 7    1  0.2733256E-010  0.4778727E+02  0.7816164E-02  0.1312668E+00
        -11   -1    0    0    0    0  0.00000000000E+00  0.00000000000E+00  0.45593999997E+02  0.45594000000E+02  0.51100000000E-03 0.  1.
         11   -1    0    0    0    0 -0.00000000000E+00 -0.00000000000E+00 -0.45593999997E+02  0.45594000000E+02  0.51100000000E-03 0. -1.
    9900012    2    1    2    0    0  0.13541991772E+02  0.21816882870E+02  0.34989445512E+02  0.47787271704E+02  0.20000003009E+02 0.  0.
         12    1    1    2    0    0 -0.13541991772E+02 -0.21816882870E+02 -0.34989445512E+02  0.43400728296E+02  0.00000000000E+00 0. -1.
         11    1    3    3    0    0  0.20022754019E+01  0.82685696137E+01  0.17141905960E+02  0.19136961369E+02  0.51100000000E-03 0. -1.
        -11    1    3    3    0    0  0.25687357145E+01  0.11908223908E+02  0.14494042167E+02  0.18933606588E+02  0.51100000000E-03 0.  1.
         12    1    3    3    0    0  0.89709806561E+01  0.16400893478E+01  0.33534973855E+01  0.97167037475E+01  0.00000000000E+00 0. -1.
</event>
<event>
 7    1  0.2733256E-010  0.4778729E+02  0.7816164E-02  0.1312668E+00
        -11   -1    0    0    0    0  0.00000000000E+00  0.00000000000E+00  0.45593999997E+02  0.45594000000E+02  0.51100000000E-03 0.  1.
         11   -1    0    0    0    0 -0.00000000000E+00 -0.00000000000E+00 -0.45593999997E+02  0.45594000000E+02  0.51100000000E-03 0. -1.
    9900012    2    1    2    0    0 -0.88488223380E+01 -0.22710347281E+01  0.42428321635E+02  0.47787288804E+02  0.20000080974E+02 0.  0.
         12    1    1    2    0    0  0.88488223380E+01  0.22710347281E+01 -0.42428321635E+02  0.43400711196E+02  0.00000000000E+00 0. -1.
         11    1    3    3    0    0 -0.61909779344E+00  0.32933385661E+01  0.18013547506E+02  0.18322588655E+02  0.51100000000E-03 0. -1.
        -11    1    3    3    0    0  0.12139909185E+01 -0.42196383059E+01  0.16486222789E+02  0.17060910394E+02  0.51100000000E-03 0.  1.
         12    1    3    3    0    0 -0.94437154631E+01 -0.13447349883E+01  0.79285513403E+01  0.12403789755E+02  0.00000000000E+00 0. -1.
</event>
<event>
 7    1  0.2733256E-010  0.4778727E+02  0.7816164E-02  0.1312668E+00
        -11   -1    0    0    0    0  0.00000000000E+00  0.00000000000E+00  0.45593999997E+02  0.45594000000E+02  0.51100000000E-03 0.  1.
         11   -1    0    0    0    0 -0.00000000000E+00 -0.00000000000E+00 -0.45593999997E+02  0.45594000000E+02  0.51100000000E-03 0. -1.
    9900012    2    1    2    0    0  0.29050003279E+02  0.29882191691E+02  0.12115101862E+02  0.47787265399E+02  0.19999974260E+02 0.  0.
         12    1    1    2    0    0 -0.29050003279E+02 -0.29882191691E+02 -0.12115101862E+02  0.43400734601E+02  0.00000000000E+00 0. -1.
         11    1    3    3    0    0 -0.10844975027E+01 -0.55031561660E-01 -0.16724821615E+01  0.19940812791E+01  0.51100000000E-03 0. -1.
        -11    1    3    3    0    0  0.14675641538E+01 -0.10838324890E+00  0.22574701792E+01  0.26947473621E+01  0.51100000000E-03 0.  1.
        -12    1    3    3    0    0  0.28666936628E+02  0.30045606502E+02  0.11530113844E+02  0.43098436758E+02  0.00000000000E+00 0.  1.
</event>
<event>
 7    1  0.2733256E-010  0.4778727E+02  0.7816164E-02  0.1312668E+00
        -11   -1    0    0    0    0  0.00000000000E+00  0.00000000000E+00  0.45593999997E+02  0.45594000000E+02  0.51100000000E-03 0.  1.
         11   -1    0    0    0    0 -0.00000000000E+00 -0.00000000000E+00 -0.45593999997E+02  0.45594000000E+02  0.51100000000E-03 0. -1.
    9900012    2    1    2    0    0  0.18166551875E+02 -0.38935146890E+02  0.61362678851E+01  0.47787273578E+02  0.20000011552E+02 0.  0.
         12    1    1    2    0    0 -0.18166551875E+02  0.38935146890E+02 -0.61362678851E+01  0.43400726422E+02  0.00000000000E+00 0. -1.
         11    1    3    3    0    0  0.14391792153E+02 -0.11646531927E+02 -0.14393075249E+01  0.18569787121E+02  0.51100000000E-03 0. -1.
        -11    1    3    3    0    0  0.17473107801E+01 -0.55347979744E+01  0.40725968945E+01  0.70903546671E+01  0.51100000000E-03 0.  1.
         12    1    3    3    0    0  0.20274489427E+01 -0.21753816988E+02  0.35029785155E+01  0.22127131790E+02  0.00000000000E+00 0. -1.
</event>
<event>
 7    1  0.2733256E-010  0.4778727E+02  0.7816164E-02  0.1312668E+00
        -11   -1    0    0    0    0  0.00000000000E+00  0.00000000000E+00  0.45593999997E+02  0.45594000000E+02  0.51100000000E-03 0.  1.
         11   -1    0    0    0    0 -0.00000000000E+00 -0.00000000000E+00 -0.45593999997E+02  0.45594000000E+02  0.51100000000E-03 0. -1.
    9900012    2    1    2    0    0 -0.15482352944E+02 -0.39534127806E+02  0.89984910872E+01  0.47787270100E+02  0.19999995692E+02 0.  0.
         12    1    1    2    0    0  0.15482352944E+02  0.39534127806E+02 -0.89984910872E+01  0.43400729900E+02  0.00000000000E+00 0. -1.
         11    1    3    3    0    0 -0.80660615183E+01 -0.35377715140E+01 -0.23805719094E+01  0.91238313542E+01  0.51100000000E-03 0. -1.
        -11    1    3    3    0    0 -0.31832599132E+01 -0.10501274227E+02  0.19035351726E+01  0.11137026106E+02  0.51100000000E-03 0.  1.
        -12    1    3    3    0    0 -0.42330315122E+01 -0.25495082065E+02  0.94755278241E+01  0.27526412640E+02  0.00000000000E+00 0.  1.
</event>
<event>
 7    1  0.2733256E-010  0.4778727E+02  0.7816164E-02  0.1312668E+00
        -11   -1    0    0    0    0  0.00000000000E+00  0.00000000000E+00  0.45593999997E+02  0.45594000000E+02  0.51100000000E-03 0.  1.
         11   -1    0    0    0    0 -0.00000000000E+00 -0.00000000000E+00 -0.45593999997E+02  0.45594000000E+02  0.51100000000E-03 0. -1.
    9900012    2    1    2    0    0 -0.25306415417E+02  0.20551723102E+02  0.28650221578E+02  0.47787272123E+02  0.20000004920E+02 0.  0.
         12    1    1    2    0    0  0.25306415417E+02 -0.20551723102E+02 -0.28650221578E+02  0.43400727877E+02  0.00000000000E+00 0. -1.
         11    1    3    3    0    0 -0.35525055263E+01  0.30052239576E+01  0.28225789003E+01  0.54422990049E+01  0.51100000000E-03 0. -1.
        -11    1    3    3    0    0 -0.69691206042E+01 -0.19613243882E+01  0.71250781750E+00  0.72748266648E+01  0.51100000000E-03 0.  1.
        -12    1    3    3    0    0 -0.14784789287E+02  0.19507823533E+02  0.25115134860E+02  0.35070146454E+02  0.00000000000E+00 0.  1.
</event>
<event>
 7    1  0.2733256E-010  0.4778728E+02  0.7816164E-02  0.1312668E+00
        -11   -1    0    0    0    0  0.00000000000E+00  0.00000000000E+00  0.45593999997E+02  0.45594000000E+02  0.51100000000E-03 0. -1.
         11   -1    0    0    0    0 -0.00000000000E+00 -0.00000000000E+00 -0.45593999997E+02  0.45594000000E+02  0.51100000000E-03 0.  1.
    9900012    2    1    2    0    0 -0.10770633627E+02 -0.44285531166E+01 -0.41809137308E+02  0.47787278879E+02  0.20000035719E+02 0.  0.
         12    1    1    2    0    0  0.10770633627E+02  0.44285531166E+01  0.41809137308E+02  0.43400721121E+02  0.00000000000E+00 0. -1.
         11    1    3    3    0    0 -0.44290105535E+01 -0.86972161654E+00 -0.17626694365E+01  0.48455705522E+01  0.51100000000E-03 0. -1.
        -11    1    3    3    0    0 -0.12624778004E+01 -0.72592102939E+01 -0.11113538687E+02  0.13334193890E+02  0.51100000000E-03 0.  1.
         12    1    3    3    0    0 -0.50791452734E+01  0.37003787938E+01 -0.28932929185E+02  0.29607514437E+02  0.00000000000E+00 0. -1.
</event>
<event>
 7    1  0.2733256E-010  0.4778727E+02  0.7816164E-02  0.1312668E+00
        -11   -1    0    0    0    0  0.00000000000E+00  0.00000000000E+00  0.45593999997E+02  0.45594000000E+02  0.51100000000E-03 0.  1.
         11   -1    0    0    0    0 -0.00000000000E+00 -0.00000000000E+00 -0.45593999997E+02  0.45594000000E+02  0.51100000000E-03 0. -1.
    9900012    2    1    2    0    0 -0.23206073852E+02 -0.36643087204E+02 -0.15445531085E+01  0.47787270193E+02  0.19999996117E+02 0.  0.
         12    1    1    2    0    0  0.23206073852E+02  0.36643087204E+02  0.15445531085E+01  0.43400729807E+02  0.00000000000E+00 0. -1.
         11    1    3    3    0    0 -0.11006120310E+02 -0.36696376006E+01 -0.24111741111E-01  0.11601788915E+02  0.51100000000E-03 0. -1.
        -11    1    3    3    0    0 -0.23404285862E+01 -0.12267181431E+01  0.10507318171E+01  0.28436738530E+01  0.51100000000E-03 0.  1.
        -12    1    3    3    0    0 -0.98595249563E+01 -0.31746731461E+02 -0.25711731845E+01  0.33341807425E+02  0.00000000000E+00 0.  1.
</event>
<event>
 7    1  0.2733256E-010  0.4778727E+02  0.7816164E-02  0.1312668E+00
        -11   -1    0    0    0    0  0.00000000000E+00  0.00000000000E+00  0.45593999997E+02  0.45594000000E+02  0.51100000000E-03 0. -1.
         11   -1    0    0    0    0 -0.00000000000E+00 -0.00000000000E+00 -0.45593999997E+02  0.45594000000E+02  0.51100000000E-03 0.  1.
    9900012    2    1    2    0    0  0.47081935768E+01  0.64803187857E+01 -0.42655146139E+02  0.47787272927E+02  0.20000008584E+02 0.  0.
         12    1    1    2    0    0 -0.47081935768E+01 -0.64803187857E+01  0.42655146139E+02  0.43400727073E+02  0.00000000000E+00 0. -1.
         11    1    3    3    0    0 -0.36165044926E+01  0.47656902240E+01 -0.74550941378E+01  0.95587309262E+01  0.51100000000E-03 0. -1.
        -11    1    3    3    0    0  0.65322324022E+01 -0.17398317302E+01 -0.33145270101E+02  0.33827592361E+02  0.51100000000E-03 0.  1.
        -12    1    3    3    0    0  0.17924656672E+01  0.34544602919E+01 -0.20547818999E+01  0.44009496398E+01  0.00000000000E+00 0.  1.
</event>
<event>
 7    1  0.2733256E-010  0.4778729E+02  0.7816164E-02  0.1312668E+00
        -11   -1    0    0    0    0  0.00000000000E+00  0.00000000000E+00  0.45593999997E+02  0.45594000000E+02  0.51100000000E-03 0. -1.
         11   -1    0    0    0    0 -0.00000000000E+00 -0.00000000000E+00 -0.45593999997E+02  0.45594000000E+02  0.51100000000E-03 0.  1.
    9900012    2    1    2    0    0  0.34620627109E+02 -0.24119020184E+02  0.10164001438E+02  0.47787287088E+02  0.20000073149E+02 0.  0.
         12    1    1    2    0    0 -0.34620627109E+02  0.24119020184E+02 -0.10164001438E+02  0.43400712912E+02  0.00000000000E+00 0. -1.
         11    1    3    3    0    0  0.58451552832E+01 -0.44314928356E+01 -0.10123692241E+01  0.74046512912E+01  0.51100000000E-03 0. -1.
        -11    1    3    3    0    0  0.23389446631E+02 -0.17166233760E+02  0.15627891346E+02  0.32954161852E+02  0.51100000000E-03 0.  1.
        -12    1    3    3    0    0  0.53860251944E+01 -0.25212935882E+01 -0.44515206832E+01  0.74284739446E+01  0.00000000000E+00 0.  1.
</event>
<event>
 7    1  0.2733256E-010  0.4778727E+02  0.7816164E-02  0.1312668E+00
        -11   -1    0    0    0    0  0.00000000000E+00  0.00000000000E+00  0.45593999997E+02  0.45594000000E+02  0.51100000000E-03 0.  1.
         11   -1    0    0    0    0 -0.00000000000E+00 -0.00000000000E+00 -0.45593999997E+02  0.45594000000E+02  0.51100000000E-03 0. -1.
    9900012    2    1    2    0    0 -0.51541635471E+01  0.32081200180E+02  0.28772465050E+02  0.47787267841E+02  0.19999985395E+02 0.  0.
         12    1    1    2    0    0  0.51541635471E+01 -0.32081200180E+02 -0.28772465050E+02  0.43400732159E+02  0.00000000000E+00 0. -1.
         11    1    3    3    0    0 -0.38814550172E+01  0.12473069087E+02  0.91316321859E+01  0.15938313968E+02  0.51100000000E-03 0.  1.
        -11    1    3    3    0    0  0.33267010280E+01  0.94717342743E+01  0.93579992246E+00  0.10082480431E+02  0.51100000000E-03 0. -1.
         12    1    3    3    0    0 -0.45994095578E+01  0.10136396819E+02  0.18705032942E+02  0.21766473442E+02  0.00000000000E+00 0. -1.
</event>
<event>
 7    1  0.2733256E-010  0.4778721E+02  0.7816164E-02  0.1312668E+00
        -11   -1    0    0    0    0  0.00000000000E+00  0.00000000000E+00  0.45593999997E+02  0.45594000000E+02  0.51100000000E-03 0. -1.
         11   -1    0    0    0    0 -0.00000000000E+00 -0.00000000000E+00 -0.45593999997E+02  0.45594000000E+02  0.51100000000E-03 0.  1.
    9900012    2    1    2    0    0  0.18336069794E+01  0.38583722548E+02 -0.19787954156E+02  0.47787206345E+02  0.19999705006E+02 0.  0.
         12    1    1    2    0    0 -0.18336069794E+01 -0.38583722548E+02  0.19787954156E+02  0.43400793655E+02  0.00000000000E+00 0. -1.
         11    1    3    3    0    0  0.44740309827E+01  0.48592785649E+01 -0.56473011063E+01  0.86903136567E+01  0.51100000000E-03 0. -1.
        -11    1    3    3    0    0  0.18046459662E+01  0.24572308613E+02 -0.15067093988E+02  0.28880311964E+02  0.51100000000E-03 0.  1.
         12    1    3    3    0    0 -0.44450699694E+01  0.91521353706E+01  0.92644093902E+00  0.10216580724E+02  0.00000000000E+00 0. -1.
</event>
<event>
 7    1  0.2808926E-010  0.4778727E+02  0.7816164E-02  0.1312668E+00
        -11   -1    0    0    0    0  0.00000000000E+00  0.00000000000E+00  0.45593999997E+02  0.45594000000E+02  0.51100000000E-03 0. -1.
         11   -1    0    0    0    0 -0.00000000000E+00 -0.00000000000E+00 -0.45593999997E+02  0.45594000000E+02  0.51100000000E-03 0.  1.
    9900012    2    1    2    0    0  0.25790650673E+02 -0.11047964079E+02 -0.33112055605E+02  0.47787269605E+02  0.19999993438E+02 0.  0.
         12    1    1    2    0    0 -0.25790650673E+02  0.11047964079E+02  0.33112055605E+02  0.43400730395E+02  0.00000000000E+00 0. -1.
         11    1    3    3    0    0 -0.25892514177E+00  0.25036273611E+01 -0.16427284898E+01  0.30056196274E+01  0.51100000000E-03 0. -1.
        -11    1    3    3    0    0  0.77922240994E+01  0.17943474605E+01 -0.73326717446E+01  0.10849263311E+02  0.51100000000E-03 0.  1.
        -12    1    3    3    0    0  0.18257351715E+02 -0.15345938900E+02 -0.24136655371E+02  0.33932386666E+02  0.00000000000E+00 0.  1.
</event>
<event>
 7    1  0.2733256E-010  0.4778727E+02  0.7816164E-02  0.1312668E+00
        -11   -1    0    0    0    0  0.00000000000E+00  0.00000000000E+00  0.45593999997E+02  0.45594000000E+02  0.51100000000E-03 0. -1.
         11   -1    0    0    0    0 -0.00000000000E+00 -0.00000000000E+00 -0.45593999997E+02  0.45594000000E+02  0.51100000000E-03 0.  1.
    9900012    2    1    2    0    0 -0.14621200379E+02  0.18927357929E+02 -0.36216007154E+02  0.47787267830E+02  0.19999985345E+02 0.  0.
         12    1    1    2    0    0  0.14621200379E+02 -0.18927357929E+02  0.36216007154E+02  0.43400732170E+02  0.00000000000E+00 0. -1.
         11    1    3    3    0    0  0.19936093017E+01  0.20812356847E+01 -0.11259355861E+01  0.30941479002E+01  0.51100000000E-03 0. -1.
        -11    1    3    3    0    0  0.11102201074E+01  0.19668994181E+01 -0.11224836659E+02  0.11449813985E+02  0.51100000000E-03 0.  1.
         12    1    3    3    0    0 -0.17725029788E+02  0.14879222826E+02 -0.23865234909E+02  0.33243305945E+02  0.00000000000E+00 0. -1.
</event>
<event>
 7    1  0.2733256E-010  0.4778726E+02  0.7816164E-02  0.1312668E+00
        -11   -1    0    0    0    0  0.00000000000E+00  0.00000000000E+00  0.45593999997E+02  0.45594000000E+02  0.51100000000E-03 0.  1.
         11   -1    0    0    0    0 -0.00000000000E+00 -0.00000000000E+00 -0.45593999997E+02  0.45594000000E+02  0.51100000000E-03 0. -1.
    9900012    2    1    2    0    0 -0.28455697705E+02 -0.27255055871E+02  0.18195028444E+02  0.47787264263E+02  0.19999969081E+02 0.  0.
         12    1    1    2    0    0  0.28455697705E+02  0.27255055871E+02 -0.18195028444E+02  0.43400735737E+02  0.00000000000E+00 0. -1.
         11    1    3    3    0    0 -0.35910407322E+01 -0.69479815782E+01 -0.75484625500E-01  0.78214908899E+01  0.51100000000E-03 0. -1.
        -11    1    3    3    0    0 -0.80946032989E+01 -0.13400232927E+02  0.14711999121E+02  0.21483290331E+02  0.51100000000E-03 0.  1.
         12    1    3    3    0    0 -0.16770053674E+02 -0.69068413657E+01  0.35585139492E+01  0.18482483042E+02  0.00000000000E+00 0. -1.
</event>
<event>
 7    1  0.2733256E-010  0.4778727E+02  0.7816164E-02  0.1312668E+00
        -11   -1    0    0    0    0  0.00000000000E+00  0.00000000000E+00  0.45593999997E+02  0.45594000000E+02  0.51100000000E-03 0.  1.
         11   -1    0    0    0    0 -0.00000000000E+00 -0.00000000000E+00 -0.45593999997E+02  0.45594000000E+02  0.51100000000E-03 0. -1.
    9900012    2    1    2    0    0  0.29211233305E+02  0.23550353973E+02  0.21810730049E+02  0.47787271104E+02  0.20000000271E+02 0.  0.
         12    1    1    2    0    0 -0.29211233305E+02 -0.23550353973E+02 -0.21810730049E+02  0.43400728896E+02  0.00000000000E+00 0. -1.
         11    1    3    3    0    0  0.16531936257E+01  0.71808664762E+01 -0.94656479855E+00  0.74292582195E+01  0.51100000000E-03 0. -1.
        -11    1    3    3    0    0  0.10019823616E+02  0.28034100951E+01  0.34626988759E+01  0.10965685442E+02  0.51100000000E-03 0.  1.
         12    1    3    3    0    0  0.17538216063E+02  0.13566077402E+02  0.19294595972E+02  0.29392327442E+02  0.00000000000E+00 0. -1.
</event>
<event>
 7    1  0.2733256E-010  0.4778726E+02  0.7816164E-02  0.1312668E+00
        -11   -1    0    0    0    0  0.00000000000E+00  0.00000000000E+00  0.45593999997E+02  0.45594000000E+02  0.51100000000E-03 0.  1.
         11   -1    0    0    0    0 -0.00000000000E+00 -0.00000000000E+00 -0.45593999997E+02  0.45594000000E+02  0.51100000000E-03 0. -1.
    9900012    2    1    2    0    0  0.31806888258E+02 -0.14974506350E+02  0.25450149143E+02  0.47787261844E+02  0.19999958051E+02 0.  0.
         12    1    1    2    0    0 -0.31806888258E+02  0.14974506350E+02 -0.25450149143E+02  0.43400738156E+02  0.00000000000E+00 0. -1.
         11    1    3    3    0    0 -0.78644498160E+00 -0.45758099187E+01  0.26882264751E+01  0.53649877878E+01  0.51100000000E-03 0. -1.
        -11    1    3    3    0    0  0.12444480405E+02 -0.94412059460E+01  0.95326794049E+01  0.18299547512E+02  0.51100000000E-03 0.  1.
         12    1    3    3    0    0  0.20148852835E+02 -0.95749048528E+00  0.13229243263E+02  0.24122726544E+02  0.00000000000E+00 0. -1.
</event>
<event>
 7    1  0.2733256E-010  0.4778728E+02  0.7816164E-02  0.1312668E+00
        -11   -1    0    0    0    0  0.00000000000E+00  0.00000000000E+00  0.45593999997E+02  0.45594000000E+02  0.51100000000E-03 0.  1.
         11   -1    0    0    0    0 -0.00000000000E+00 -0.00000000000E+00 -0.45593999997E+02  0.45594000000E+02  0.51100000000E-03 0. -1.
    9900012    2    1    2    0    0  0.77702274854E+01  0.20373437098E+02  0.37525581300E+02  0.47787278505E+02  0.20000034017E+02 0.  0.
         12    1    1    2    0    0 -0.77702274854E+01 -0.20373437098E+02 -0.37525581300E+02  0.43400721495E+02  0.00000000000E+00 0. -1.
         11    1    3    3    0    0  0.38073125003E+01  0.79916194177E+01  0.82322558883E+01  0.12088492324E+02  0.51100000000E-03 0.  1.
        -11    1    3    3    0    0  0.19118784004E+01  0.11679920075E+02  0.30841810756E+02  0.33034725713E+02  0.51100000000E-03 0. -1.
         12    1    3    3    0    0  0.20510365846E+01  0.70189760571E+00 -0.15484853439E+01  0.26640604687E+01  0.00000000000E+00 0. -1.
</event>
<event>
 7    1  0.2733256E-010  0.4778727E+02  0.7816164E-02  0.1312668E+00
        -11   -1    0    0    0    0  0.00000000000E+00  0.00000000000E+00  0.45593999997E+02  0.45594000000E+02  0.51100000000E-03 0.  1.
         11   -1    0    0    0    0 -0.00000000000E+00 -0.00000000000E+00 -0.45593999997E+02  0.45594000000E+02  0.51100000000E-03 0. -1.
    9900012    2    1    2    0    0 -0.15230301416E+02  0.40255584817E+02 -0.55811726367E+01  0.47787266386E+02  0.19999978760E+02 0.  0.
         12    1    1    2    0    0  0.15230301416E+02 -0.40255584817E+02  0.55811726367E+01  0.43400733614E+02  0.00000000000E+00 0. -1.
         11    1    3    3    0    0  0.13125081909E+01  0.18066948176E+01  0.21628820557E+00  0.22435696477E+01  0.51100000000E-03 0. -1.
        -11    1    3    3    0    0 -0.59058169766E+01  0.27591571925E+02 -0.97240785712E+01  0.29845120536E+02  0.51100000000E-03 0.  1.
         12    1    3    3    0    0 -0.10636992631E+02  0.10857318075E+02  0.39266177290E+01  0.15698576203E+02  0.00000000000E+00 0. -1.
</event>
<event>
 7    1  0.2733256E-010  0.4778727E+02  0.7816164E-02  0.1312668E+00
        -11   -1    0    0    0    0  0.00000000000E+00  0.00000000000E+00  0.45593999997E+02  0.45594000000E+02  0.51100000000E-03 0. -1.
         11   -1    0    0    0    0 -0.00000000000E+00 -0.00000000000E+00 -0.45593999997E+02  0.45594000000E+02  0.51100000000E-03 0.  1.
    9900012    2    1    2    0    0  0.19517139057E+02  0.59731328268E+01 -0.38301780810E+02  0.47787269062E+02  0.19999990961E+02 0.  0.
         12    1    1    2    0    0 -0.19517139057E+02 -0.59731328268E+01  0.38301780810E+02  0.43400730938E+02  0.00000000000E+00 0. -1.
         11    1    3    3    0    0  0.14091329997E+02 -0.12392129846E+01 -0.16198673064E+02  0.21505772230E+02  0.51100000000E-03 0. -1.
        -11    1    3    3    0    0  0.34254958628E+01 -0.24893002671E+01 -0.54036327743E+01  0.68651209127E+01  0.51100000000E-03 0.  1.
        -12    1    3    3    0    0  0.20003131980E+01  0.97016460785E+01 -0.16699474971E+02  0.19416375919E+02  0.00000000000E+00 0.  1.
</event>
<event>
 7    1  0.2733256E-010  0.4778726E+02  0.7816164E-02  0.1312668E+00
        -11   -1    0    0    0    0  0.00000000000E+00  0.00000000000E+00  0.45593999997E+02  0.45594000000E+02  0.51100000000E-03 0.  1.
         11   -1    0    0    0    0 -0.00000000000E+00 -0.00000000000E+00 -0.45593999997E+02  0.45594000000E+02  0.51100000000E-03 0. -1.
    9900012    2    1    2    0    0 -0.28068711566E+02 -0.22341257393E+02  0.24426206081E+02  0.47787263896E+02  0.19999967406E+02 0.  0.
         12    1    1    2    0    0  0.28068711566E+02  0.22341257393E+02 -0.24426206081E+02  0.43400736104E+02  0.00000000000E+00 0. -1.
         11    1    3    3    0    0 -0.16205924044E+02 -0.68446411392E+01  0.51082177501E+01  0.18318705611E+02  0.51100000000E-03 0. -1.
        -11    1    3    3    0    0 -0.13499418029E+02 -0.10829290633E+02  0.15145048909E+02  0.22997398320E+02  0.51100000000E-03 0.  1.
         12    1    3    3    0    0  0.16366305074E+01 -0.46673256208E+01  0.41729394222E+01  0.64711599647E+01  0.00000000000E+00 0. -1.
</event>
<event>
 7    1  0.2733256E-010  0.4778727E+02  0.7816164E-02  0.1312668E+00
        -11   -1    0    0    0    0  0.00000000000E+00  0.00000000000E+00  0.45593999997E+02  0.45594000000E+02  0.51100000000E-03 0.  1.
         11   -1    0    0    0    0 -0.00000000000E+00 -0.00000000000E+00 -0.45593999997E+02  0.45594000000E+02  0.51100000000E-03 0. -1.
    9900012    2    1    2    0    0  0.97940213870E+01 -0.35794252964E+02  0.22504931010E+02  0.47787270513E+02  0.19999997579E+02 0.  0.
         12    1    1    2    0    0 -0.97940213870E+01  0.35794252964E+02 -0.22504931010E+02  0.43400729487E+02  0.00000000000E+00 0. -1.
         11    1    3    3    0    0  0.16009946268E+01 -0.28706575743E+02  0.94572575040E+01  0.30266654828E+02  0.51100000000E-03 0.  1.
        -11    1    3    3    0    0  0.39824059612E+01 -0.62298619592E+01  0.84110253374E+01  0.11198932304E+02  0.51100000000E-03 0. -1.
        -12    1    3    3    0    0  0.42106207989E+01 -0.85781526176E+00  0.46366481687E+01  0.63216833815E+01  0.00000000000E+00 0.  1.
</event>
<event>
 7    1  0.2733256E-010  0.4778727E+02  0.7816164E-02  0.1312668E+00
        -11   -1    0    0    0    0  0.00000000000E+00  0.00000000000E+00  0.45593999997E+02  0.45594000000E+02  0.51100000000E-03 0.  1.
         11   -1    0    0    0    0 -0.00000000000E+00 -0.00000000000E+00 -0.45593999997E+02  0.45594000000E+02  0.51100000000E-03 0. -1.
    9900012    2    1    2    0    0  0.41509254529E+02  0.93728817327E+01  0.85295930324E+01  0.47787273269E+02  0.20000010142E+02 0.  0.
         12    1    1    2    0    0 -0.41509254529E+02 -0.93728817327E+01 -0.85295930324E+01  0.43400726731E+02  0.00000000000E+00 0. -1.
         11    1    3    3    0    0  0.29126609023E+02  0.38322477702E+01  0.85408141513E+01  0.30593969713E+02  0.51100000000E-03 0.  1.
        -11    1    3    3    0    0  0.63601178851E+01  0.10590522370E+01  0.50069709344E+01  0.81634826729E+01  0.51100000000E-03 0. -1.
        -12    1    3    3    0    0  0.60225276206E+01  0.44815817255E+01 -0.50181920532E+01  0.90298208834E+01  0.00000000000E+00 0.  1.
</event>
<event>
 7    1  0.2733256E-010  0.4778727E+02  0.7816164E-02  0.1312668E+00
        -11   -1    0    0    0    0  0.00000000000E+00  0.00000000000E+00  0.45593999997E+02  0.45594000000E+02  0.51100000000E-03 0.  1.
         11   -1    0    0    0    0 -0.00000000000E+00 -0.00000000000E+00 -0.45593999997E+02  0.45594000000E+02  0.51100000000E-03 0. -1.
    9900012    2    1    2    0    0 -0.36114213439E+01 -0.43250188454E+02 -0.44264374883E-01  0.47787272762E+02  0.20000007831E+02 0.  0.
         12    1    1    2    0    0  0.36114213439E+01  0.43250188454E+02  0.44264374883E-01  0.43400727238E+02  0.00000000000E+00 0. -1.
         11    1    3    3    0    0 -0.51121476862E+01 -0.31228211638E+01  0.13122528659E+01  0.61325421997E+01  0.51100000000E-03 0.  1.
        -11    1    3    3    0    0  0.42226813795E+01 -0.74313914413E+01  0.16608765694E+01  0.87071882963E+01  0.51100000000E-03 0. -1.
        -12    1    3    3    0    0 -0.27219550372E+01 -0.32695975849E+02 -0.30173938102E+01  0.32947542266E+02  0.00000000000E+00 0.  1.
</event>
<event>
 7    1  0.2733256E-010  0.4778727E+02  0.7816164E-02  0.1312668E+00
        -11   -1    0    0    0    0  0.00000000000E+00  0.00000000000E+00  0.45593999997E+02  0.45594000000E+02  0.51100000000E-03 0.  1.
         11   -1    0    0    0    0 -0.00000000000E+00 -0.00000000000E+00 -0.45593999997E+02  0.45594000000E+02  0.51100000000E-03 0. -1.
    9900012    2    1    2    0    0  0.33002453101E+02 -0.10734904165E+02  0.26061914184E+02  0.47787269026E+02  0.19999990797E+02 0.  0.
         12    1    1    2    0    0 -0.33002453101E+02  0.10734904165E+02 -0.26061914184E+02  0.43400730974E+02  0.00000000000E+00 0. -1.
         11    1    3    3    0    0  0.52364514614E+00  0.78410382583E+00  0.23060648254E+01  0.24913767858E+01  0.51100000000E-03 0. -1.
        -11    1    3    3    0    0  0.19402135618E+02 -0.13772756410E+02  0.89683471786E+01  0.25427601874E+02  0.51100000000E-03 0.  1.
        -12    1    3    3    0    0  0.13076672337E+02  0.22537484196E+01  0.14787502180E+02  0.19868290366E+02  0.00000000000E+00 0.  1.
</event>
<event>
 7    1  0.2733256E-010  0.4778727E+02  0.7816164E-02  0.1312668E+00
        -11   -1    0    0    0    0  0.00000000000E+00  0.00000000000E+00  0.45593999997E+02  0.45594000000E+02  0.51100000000E-03 0.  1.
         11   -1    0    0    0    0 -0.00000000000E+00 -0.00000000000E+00 -0.45593999997E+02  0.45594000000E+02  0.51100000000E-03 0. -1.
    9900012    2    1    2    0    0 -0.57216019477E+00  0.24858311970E+02  0.35571900477E+02  0.47787272531E+02  0.20000006779E+02 0.  0.
         12    1    1    2    0    0  0.57216019477E+00 -0.24858311970E+02 -0.35571900477E+02  0.43400727469E+02  0.00000000000E+00 0. -1.
         11    1    3    3    0    0  0.63309227318E+01  0.30483224023E+01  0.93408082609E+01  0.11688607759E+02  0.51100000000E-03 0. -1.
        -11    1    3    3    0    0  0.92819288825E+00 -0.52721385920E+00  0.17185764068E+01  0.20231168079E+01  0.51100000000E-03 0.  1.
        -12    1    3    3    0    0 -0.78312758148E+01  0.22337203426E+02  0.24512515809E+02  0.34075547965E+02  0.00000000000E+00 0.  1.
</event>
<event>
 7    1  0.2733256E-010  0.4778727E+02  0.7816164E-02  0.1312668E+00
        -11   -1    0    0    0    0  0.00000000000E+00  0.00000000000E+00  0.45593999997E+02  0.45594000000E+02  0.51100000000E-03 0. -1.
         11   -1    0    0    0    0 -0.00000000000E+00 -0.00000000000E+00 -0.45593999997E+02  0.45594000000E+02  0.51100000000E-03 0.  1.
    9900012    2    1    2    0    0 -0.22462281073E+02 -0.36656652022E+02 -0.59463615293E+01  0.47787269316E+02  0.19999992118E+02 0.  0.
         12    1    1    2    0    0  0.22462281073E+02  0.36656652022E+02  0.59463615293E+01  0.43400730684E+02  0.00000000000E+00 0. -1.
         11    1    3    3    0    0 -0.15577525621E+01 -0.78147291865E+00  0.24870081912E+01  0.30368574171E+01  0.51100000000E-03 0. -1.
        -11    1    3    3    0    0 -0.12805366638E+02 -0.12330657029E+02  0.17223697123E+01  0.17860265261E+02  0.51100000000E-03 0.  1.
         12    1    3    3    0    0 -0.80991618733E+01 -0.23544522074E+02 -0.10155739433E+02  0.26890146638E+02  0.00000000000E+00 0. -1.
</event>
<event>
 7    1  0.2733256E-010  0.4778728E+02  0.7816164E-02  0.1312668E+00
        -11   -1    0    0    0    0  0.00000000000E+00  0.00000000000E+00  0.45593999997E+02  0.45594000000E+02  0.51100000000E-03 0.  1.
         11   -1    0    0    0    0 -0.00000000000E+00 -0.00000000000E+00 -0.45593999997E+02  0.45594000000E+02  0.51100000000E-03 0. -1.
    9900012    2    1    2    0    0  0.93478601849E+01 -0.24312566684E+02  0.34715119670E+02  0.47787275092E+02  0.20000018457E+02 0.  0.
         12    1    1    2    0    0 -0.93478601849E+01  0.24312566684E+02 -0.34715119670E+02  0.43400724908E+02  0.00000000000E+00 0. -1.
         11    1    3    3    0    0 -0.19158463404E+01  0.14794520224E+01  0.20266671648E+01  0.31569962852E+01  0.51100000000E-03 0. -1.
        -11    1    3    3    0    0  0.49582402925E+01 -0.78678315558E+01  0.19183723033E+02  0.21319056027E+02  0.51100000000E-03 0.  1.
        -12    1    3    3    0    0  0.63054662328E+01 -0.17924187150E+02  0.13504729472E+02  0.23311222780E+02  0.00000000000E+00 0.  1.
</event>
<event>
 7    1  0.2733256E-010  0.4778727E+02  0.7816164E-02  0.1312668E+00
        -11   -1    0    0    0    0  0.00000000000E+00  0.00000000000E+00  0.45593999997E+02  0.45594000000E+02  0.51100000000E-03 0.  1.
         11   -1    0    0    0    0 -0.00000000000E+00 -0.00000000000E+00 -0.45593999997E+02  0.45594000000E+02  0.51100000000E-03 0. -1.
    9900012    2    1    2    0    0  0.21897250072E+02 -0.17706300743E+02  0.33024549206E+02  0.47787268475E+02  0.19999988283E+02 0.  0.
         12    1    1    2    0    0 -0.21897250072E+02  0.17706300743E+02 -0.33024549206E+02  0.43400731525E+02  0.00000000000E+00 0. -1.
         11    1    3    3    0    0  0.31250608488E+01 -0.19500905708E+01  0.64161828506E+01  0.73983958515E+01  0.51100000000E-03 0. -1.
        -11    1    3    3    0    0  0.99965935351E+01  0.96112863228E+00  0.36999594495E+01  0.10702586171E+02  0.51100000000E-03 0.  1.
         12    1    3    3    0    0  0.87755956879E+01 -0.16717338804E+02  0.22908406906E+02  0.29686286452E+02  0.00000000000E+00 0. -1.
</event>
<event>
 7    1  0.2733256E-010  0.4778725E+02  0.7816164E-02  0.1312668E+00
        -11   -1    0    0    0    0  0.00000000000E+00  0.00000000000E+00  0.45593999997E+02  0.45594000000E+02  0.51100000000E-03 0.  1.
         11   -1    0    0    0    0 -0.00000000000E+00 -0.00000000000E+00 -0.45593999997E+02  0.45594000000E+02  0.51100000000E-03 0. -1.
    9900012    2    1    2    0    0 -0.86680513805E+01  0.42324222589E+02  0.41412630019E+01  0.47787251253E+02  0.19999909764E+02 0.  0.
         12    1    1    2    0    0  0.86680513805E+01 -0.42324222589E+02 -0.41412630019E+01  0.43400748747E+02  0.00000000000E+00 0. -1.
         11    1    3    3    0    0  0.18841772049E+01  0.95202186379E+01  0.29216065879E+01  0.10135110851E+02  0.51100000000E-03 0. -1.
        -11    1    3    3    0    0 -0.24265509866E+01  0.14516974486E+02  0.77091892784E+01  0.16615122555E+02  0.51100000000E-03 0.  1.
         12    1    3    3    0    0 -0.81256775987E+01  0.18287029465E+02 -0.64895328644E+01  0.21037017847E+02  0.00000000000E+00 0. -1.
</event>
<event>
 7    1  0.2733256E-010  0.4778727E+02  0.7816164E-02  0.1312668E+00
        -11   -1    0    0    0    0  0.00000000000E+00  0.00000000000E+00  0.45593999997E+02  0.45594000000E+02  0.51100000000E-03 0.  1.
         11   -1    0    0    0    0 -0.00000000000E+00 -0.00000000000E+00 -0.45593999997E+02  0.45594000000E+02  0.51100000000E-03 0. -1.
    9900012    2    1    2    0    0  0.75279152292E+01  0.40871655426E+02  0.12508453052E+02  0.47787272786E+02  0.20000007940E+02 0.  0.
         12    1    1    2    0    0 -0.75279152292E+01 -0.40871655426E+02 -0.12508453052E+02  0.43400727214E+02  0.00000000000E+00 0. -1.
         11    1    3    3    0    0 -0.22494104086E+01  0.10536814849E+01  0.82934578447E+00  0.26187604986E+01  0.51100000000E-03 0. -1.
        -11    1    3    3    0    0  0.53822941264E+01  0.16226485949E+02  0.12466055851E+02  0.21158224998E+02  0.51100000000E-03 0.  1.
         12    1    3    3    0    0  0.43950315114E+01  0.23591487992E+02 -0.78694858306E+00  0.24010287290E+02  0.00000000000E+00 0. -1.
</event>
<event>
 7    1  0.2733256E-010  0.4778727E+02  0.7816164E-02  0.1312668E+00
        -11   -1    0    0    0    0  0.00000000000E+00  0.00000000000E+00  0.45593999997E+02  0.45594000000E+02  0.51100000000E-03 0. -1.
         11   -1    0    0    0    0 -0.00000000000E+00 -0.00000000000E+00 -0.45593999997E+02  0.45594000000E+02  0.51100000000E-03 0.  1.
    9900012    2    1    2    0    0 -0.42635937727E+02  0.75852603778E+01 -0.28746717491E+01  0.47787273065E+02  0.20000009211E+02 0.  0.
         12    1    1    2    0    0  0.42635937727E+02 -0.75852603778E+01  0.28746717491E+01  0.43400726935E+02  0.00000000000E+00 0. -1.
         11    1    3    3    0    0 -0.17027067440E+02  0.48437057086E+01 -0.36986654184E+01  0.18084873147E+02  0.51100000000E-03 0. -1.
        -11    1    3    3    0    0 -0.13706151698E+02  0.32513618561E+01 -0.67135664016E+01  0.15604548131E+02  0.51100000000E-03 0.  1.
         12    1    3    3    0    0 -0.11902718589E+02 -0.50980718680E+00  0.75375600709E+01  0.14097851786E+02  0.00000000000E+00 0. -1.
</event>
<event>
 7    1  0.2733256E-010  0.4778727E+02  0.7816164E-02  0.1312668E+00
        -11   -1    0    0    0    0  0.00000000000E+00  0.00000000000E+00  0.45593999997E+02  0.45594000000E+02  0.51100000000E-03 0.  1.
         11   -1    0    0    0    0 -0.00000000000E+00 -0.00000000000E+00 -0.45593999997E+02  0.45594000000E+02  0.51100000000E-03 0. -1.
    9900012    2    1    2    0    0  0.14373975751E+02  0.18700590426E+02  0.36432131405E+02  0.47787268901E+02  0.19999990229E+02 0.  0.
         12    1    1    2    0    0 -0.14373975751E+02 -0.18700590426E+02 -0.36432131405E+02  0.43400731099E+02  0.00000000000E+00 0. -1.
         11    1    3    3    0    0  0.12136636987E+01 -0.16022525170E+01  0.13724117433E+01  0.24338666677E+01  0.51100000000E-03 0. -1.
        -11    1    3    3    0    0  0.51808437533E+01 -0.12048008410E+01  0.10348877723E+02  0.11635804976E+02  0.51100000000E-03 0.  1.
         12    1    3    3    0    0  0.79794682993E+01  0.21507643784E+02  0.24710841939E+02  0.33717597257E+02  0.00000000000E+00 0. -1.
</event>
<event>
 7    1  0.2733256E-010  0.4778728E+02  0.7816164E-02  0.1312668E+00
        -11   -1    0    0    0    0  0.00000000000E+00  0.00000000000E+00  0.45593999997E+02  0.45594000000E+02  0.51100000000E-03 0.  1.
         11   -1    0    0    0    0 -0.00000000000E+00 -0.00000000000E+00 -0.45593999997E+02  0.45594000000E+02  0.51100000000E-03 0. -1.
    9900012    2    1    2    0    0  0.14386459288E+02  0.29588858750E+02  0.28304629889E+02  0.47787275972E+02  0.20000022467E+02 0.  0.
         12    1    1    2    0    0 -0.14386459288E+02 -0.29588858750E+02 -0.28304629889E+02  0.43400724028E+02  0.00000000000E+00 0. -1.
         11    1    3    3    0    0  0.57556986201E+01  0.21042296211E+01  0.50502215725E+01  0.79410696444E+01  0.51100000000E-03 0. -1.
        -11    1    3    3    0    0  0.22385662166E+01  0.13377633319E+02  0.19763248986E+02  0.23969944987E+02  0.51100000000E-03 0.  1.
        -12    1    3    3    0    0  0.63921944518E+01  0.14106995810E+02  0.34911593307E+01  0.15876261341E+02  0.00000000000E+00 0.  1.
</event>
<event>
 7    1  0.2733256E-010  0.4778728E+02  0.7816164E-02  0.1312668E+00
        -11   -1    0    0    0    0  0.00000000000E+00  0.00000000000E+00  0.45593999997E+02  0.45594000000E+02  0.51100000000E-03 0.  1.
         11   -1    0    0    0    0 -0.00000000000E+00 -0.00000000000E+00 -0.45593999997E+02  0.45594000000E+02  0.51100000000E-03 0. -1.
    9900012    2    1    2    0    0 -0.19829028936E+02 -0.39106060826E+01  0.38407547116E+02  0.47787275307E+02  0.20000019433E+02 0.  0.
         12    1    1    2    0    0  0.19829028936E+02  0.39106060826E+01 -0.38407547116E+02  0.43400724693E+02  0.00000000000E+00 0. -1.
         11    1    3    3    0    0 -0.13193291387E+02 -0.47002453103E+01  0.16609083639E+02  0.21725949995E+02  0.51100000000E-03 0. -1.
        -11    1    3    3    0    0 -0.20520042765E+01 -0.11021006006E+01 -0.11398217366E+01  0.25931720222E+01  0.51100000000E-03 0.  1.
        -12    1    3    3    0    0 -0.45837332724E+01  0.18917398283E+01  0.22938285213E+02  0.23468153289E+02  0.00000000000E+00 0.  1.
</event>
<event>
 7    1  0.2733256E-010  0.4778727E+02  0.7816164E-02  0.1312668E+00
        -11   -1    0    0    0    0  0.00000000000E+00  0.00000000000E+00  0.45593999997E+02  0.45594000000E+02  0.51100000000E-03 0.  1.
         11   -1    0    0    0    0 -0.00000000000E+00 -0.00000000000E+00 -0.45593999997E+02  0.45594000000E+02  0.51100000000E-03 0. -1.
    9900012    2    1    2    0    0 -0.24652952208E+02 -0.63750137996E+01  0.35145617634E+02  0.47787270831E+02  0.19999999028E+02 0.  0.
         12    1    1    2    0    0  0.24652952208E+02  0.63750137996E+01 -0.35145617634E+02  0.43400729169E+02  0.00000000000E+00 0. -1.
         11    1    3    3    0    0  0.10669272450E+01 -0.48315266145E+01  0.51417502372E+01  0.71357956063E+01  0.51100000000E-03 0. -1.
        -11    1    3    3    0    0 -0.73744423517E+01 -0.85370645784E+00  0.15740761462E+02  0.17403527987E+02  0.51100000000E-03 0.  1.
         12    1    3    3    0    0 -0.18345437101E+02 -0.68978072730E+00  0.14263105934E+02  0.23247947238E+02  0.00000000000E+00 0. -1.
</event>
<event>
 7    1  0.2733256E-010  0.4778727E+02  0.7816164E-02  0.1312668E+00
        -11   -1    0    0    0    0  0.00000000000E+00  0.00000000000E+00  0.45593999997E+02  0.45594000000E+02  0.51100000000E-03 0. -1.
         11   -1    0    0    0    0 -0.00000000000E+00 -0.00000000000E+00 -0.45593999997E+02  0.45594000000E+02  0.51100000000E-03 0.  1.
    9900012    2    1    2    0    0  0.12639187181E+02  0.12818224894E+02 -0.39491355954E+02  0.47787272620E+02  0.20000007182E+02 0.  0.
         12    1    1    2    0    0 -0.12639187181E+02 -0.12818224894E+02  0.39491355954E+02  0.43400727380E+02  0.00000000000E+00 0. -1.
         11    1    3    3    0    0 -0.28966226249E+01  0.39128492724E+00 -0.45525987732E+01  0.54101462435E+01  0.51100000000E-03 0. -1.
        -11    1    3    3    0    0 -0.20718074338E+01  0.10796650910E+01 -0.75065235427E+01  0.78616765839E+01  0.51100000000E-03 0.  1.
        -12    1    3    3    0    0  0.17607617239E+02  0.11347274876E+02 -0.27432233639E+02  0.34515449792E+02  0.00000000000E+00 0.  1.
</event>
<event>
 7    1  0.2733256E-010  0.4778727E+02  0.7816164E-02  0.1312668E+00
        -11   -1    0    0    0    0  0.00000000000E+00  0.00000000000E+00  0.45593999997E+02  0.45594000000E+02  0.51100000000E-03 0.  1.
         11   -1    0    0    0    0 -0.00000000000E+00 -0.00000000000E+00 -0.45593999997E+02  0.45594000000E+02  0.51100000000E-03 0. -1.
    9900012    2    1    2    0    0 -0.21867745900E+02  0.53857263108E+01  0.37100119475E+02  0.47787271622E+02  0.20000002635E+02 0.  0.
         12    1    1    2    0    0  0.21867745900E+02 -0.53857263108E+01 -0.37100119475E+02  0.43400728378E+02  0.00000000000E+00 0. -1.
         11    1    3    3    0    0  0.12451823756E+01 -0.14924429195E+01 -0.56639209962E+00  0.20245160627E+01  0.51100000000E-03 0. -1.
        -11    1    3    3    0    0 -0.70716745631E+01 -0.23727825383E+01  0.11477114887E+02  0.13688054811E+02  0.51100000000E-03 0.  1.
        -12    1    3    3    0    0 -0.16041253712E+02  0.92509517686E+01  0.26189396688E+02  0.32074700749E+02  0.00000000000E+00 0.  1.
</event>
<event>
 7    1  0.2733256E-010  0.4778727E+02  0.7816164E-02  0.1312668E+00
        -11   -1    0    0    0    0  0.00000000000E+00  0.00000000000E+00  0.45593999997E+02  0.45594000000E+02  0.51100000000E-03 0.  1.
         11   -1    0    0    0    0 -0.00000000000E+00 -0.00000000000E+00 -0.45593999997E+02  0.45594000000E+02  0.51100000000E-03 0. -1.
    9900012    2    1    2    0    0 -0.41472139705E+02 -0.12180406202E+02  0.39144322356E+01  0.47787269053E+02  0.19999990921E+02 0.  0.
         12    1    1    2    0    0  0.41472139705E+02  0.12180406202E+02 -0.39144322356E+01  0.43400730947E+02  0.00000000000E+00 0. -1.
         11    1    3    3    0    0 -0.56967142554E+01 -0.49088978220E+00  0.30076078399E+01  0.64605906282E+01  0.51100000000E-03 0. -1.
        -11    1    3    3    0    0 -0.35212052497E+02 -0.98804803719E+01  0.49076900883E+01  0.36899836797E+02  0.51100000000E-03 0.  1.
         12    1    3    3    0    0 -0.56337295341E+00 -0.18090360475E+01 -0.40008656926E+01  0.44268416277E+01  0.00000000000E+00 0. -1.
</event>
<event>
 7    1  0.2733256E-010  0.4778726E+02  0.7816164E-02  0.1312668E+00
        -11   -1    0    0    0    0  0.00000000000E+00  0.00000000000E+00  0.45593999997E+02  0.45594000000E+02  0.51100000000E-03 0.  1.
         11   -1    0    0    0    0 -0.00000000000E+00 -0.00000000000E+00 -0.45593999997E+02  0.45594000000E+02  0.51100000000E-03 0. -1.
    9900012    2    1    2    0    0 -0.27036073708E+00 -0.33391971450E+02  0.27722320721E+02  0.47787263620E+02  0.19999966148E+02 0.  0.
         12    1    1    2    0    0  0.27036073708E+00  0.33391971450E+02 -0.27722320721E+02  0.43400736380E+02  0.00000000000E+00 0. -1.
         11    1    3    3    0    0  0.53965286486E+01 -0.15557820586E+02  0.52964189685E+01  0.17297987079E+02  0.51100000000E-03 0. -1.
        -11    1    3    3    0    0 -0.74808147619E+00 -0.14920219566E+02  0.16204783700E+02  0.22040135953E+02  0.51100000000E-03 0.  1.
        -12    1    3    3    0    0 -0.49188079095E+01 -0.29139312981E+01  0.62211180519E+01  0.84491405880E+01  0.00000000000E+00 0.  1.
</event>
<event>
 7    1  0.2733256E-010  0.4778727E+02  0.7816164E-02  0.1312668E+00
        -11   -1    0    0    0    0  0.00000000000E+00  0.00000000000E+00  0.45593999997E+02  0.45594000000E+02  0.51100000000E-03 0.  1.
         11   -1    0    0    0    0 -0.00000000000E+00 -0.00000000000E+00 -0.45593999997E+02  0.45594000000E+02  0.51100000000E-03 0. -1.
    9900012    2    1    2    0    0 -0.22205540805E+02 -0.37191167967E+02  0.27118677052E+01  0.47787271392E+02  0.20000001586E+02 0.  0.
         12    1    1    2    0    0  0.22205540805E+02  0.37191167967E+02 -0.27118677052E+01  0.43400728608E+02  0.00000000000E+00 0. -1.
         11    1    3    3    0    0 -0.28635218636E+01 -0.74611751521E+00 -0.33661711303E+00  0.29782142555E+01  0.51100000000E-03 0. -1.
        -11    1    3    3    0    0 -0.29532134870E+01 -0.23039827176E+02 -0.10116919484E+01  0.23250346816E+02  0.51100000000E-03 0.  1.
        -12    1    3    3    0    0 -0.16388805455E+02 -0.13405223276E+02  0.40601767666E+01  0.21558710321E+02  0.00000000000E+00 0.  1.
</event>
<event>
 7    1  0.2733256E-010  0.4778727E+02  0.7816164E-02  0.1312668E+00
        -11   -1    0    0    0    0  0.00000000000E+00  0.00000000000E+00  0.45593999997E+02  0.45594000000E+02  0.51100000000E-03 0. -1.
         11   -1    0    0    0    0 -0.00000000000E+00 -0.00000000000E+00 -0.45593999997E+02  0.45594000000E+02  0.51100000000E-03 0.  1.
    9900012    2    1    2    0    0 -0.12605188176E+02  0.21608571614E+02 -0.35465511046E+02  0.47787267173E+02  0.19999982349E+02 0.  0.
         12    1    1    2    0    0  0.12605188176E+02 -0.21608571614E+02  0.35465511046E+02  0.43400732827E+02  0.00000000000E+00 0. -1.
         11    1    3    3    0    0  0.62184439279E+00 -0.13283570796E+01 -0.21395099091E+01  0.25939787763E+01  0.51100000000E-03 0. -1.
        -11    1    3    3    0    0 -0.25918710960E+01  0.35029523748E+01 -0.17326848505E+02  0.17866397245E+02  0.51100000000E-03 0.  1.
        -12    1    3    3    0    0 -0.10635161473E+02  0.19433976319E+02 -0.15999152632E+02  0.27326891152E+02  0.00000000000E+00 0.  1.
</event>
<event>
 7    1  0.2733256E-010  0.4778727E+02  0.7816164E-02  0.1312668E+00
        -11   -1    0    0    0    0  0.00000000000E+00  0.00000000000E+00  0.45593999997E+02  0.45594000000E+02  0.51100000000E-03 0.  1.
         11   -1    0    0    0    0 -0.00000000000E+00 -0.00000000000E+00 -0.45593999997E+02  0.45594000000E+02  0.51100000000E-03 0. -1.
    9900012    2    1    2    0    0  0.11906622470E+00  0.25685171551E+02  0.34984013568E+02  0.47787269364E+02  0.19999992338E+02 0.  0.
         12    1    1    2    0    0 -0.11906622470E+00 -0.25685171551E+02 -0.34984013568E+02  0.43400730636E+02  0.00000000000E+00 0. -1.
         11    1    3    3    0    0 -0.71305096551E+01  0.52957605985E+01  0.15986395496E+02  0.18288085998E+02  0.51100000000E-03 0. -1.
        -11    1    3    3    0    0 -0.60573609871E-01  0.10854885164E+01  0.35625877307E+01  0.37247800045E+01  0.51100000000E-03 0.  1.
         12    1    3    3    0    0  0.73101494897E+01  0.19303922437E+02  0.15435030342E+02  0.25774403362E+02  0.00000000000E+00 0. -1.
</event>
<event>
 7    1  0.2733256E-010  0.4778727E+02  0.7816164E-02  0.1312668E+00
        -11   -1    0    0    0    0  0.00000000000E+00  0.00000000000E+00  0.45593999997E+02  0.45594000000E+02  0.51100000000E-03 0. -1.
         11   -1    0    0    0    0 -0.00000000000E+00 -0.00000000000E+00 -0.45593999997E+02  0.45594000000E+02  0.51100000000E-03 0.  1.
    9900012    2    1    2    0    0 -0.87075273384E+01  0.40013301381E+02 -0.14378400035E+02  0.47787266051E+02  0.19999977233E+02 0.  0.
         12    1    1    2    0    0  0.87075273384E+01 -0.40013301381E+02  0.14378400035E+02  0.43400733949E+02  0.00000000000E+00 0. -1.
         11    1    3    3    0    0 -0.58714880371E+01  0.53294537906E+01  0.32270779423E+01  0.85610444329E+01  0.51100000000E-03 0. -1.
        -11    1    3    3    0    0 -0.15614369845E+01  0.50687945143E+01 -0.38120682331E+01  0.65316634757E+01  0.51100000000E-03 0.  1.
        -12    1    3    3    0    0 -0.12746023169E+01  0.29615053076E+02 -0.13793409744E+02  0.32694558142E+02  0.00000000000E+00 0.  1.
</event>
<event>
 7    1  0.2733256E-010  0.4778727E+02  0.7816164E-02  0.1312668E+00
        -11   -1    0    0    0    0  0.00000000000E+00  0.00000000000E+00  0.45593999997E+02  0.45594000000E+02  0.51100000000E-03 0.  1.
         11   -1    0    0    0    0 -0.00000000000E+00 -0.00000000000E+00 -0.45593999997E+02  0.45594000000E+02  0.51100000000E-03 0. -1.
    9900012    2    1    2    0    0  0.23629069863E+02 -0.81252377953E+00  0.36395469952E+02  0.47787269931E+02  0.19999994923E+02 0.  0.
         12    1    1    2    0    0 -0.23629069863E+02  0.81252377953E+00 -0.36395469952E+02  0.43400730069E+02  0.00000000000E+00 0. -1.
         11    1    3    3    0    0  0.48619129304E+01  0.54704192771E+01  0.54945629348E+01  0.91517160421E+01  0.51100000000E-03 0. -1.
        -11    1    3    3    0    0  0.14852387932E+02  0.91382623155E+00  0.21749127938E+02  0.26352477530E+02  0.51100000000E-03 0.  1.
         12    1    3    3    0    0  0.39147690015E+01 -0.71967692881E+01  0.91517790789E+01  0.12283076359E+02  0.00000000000E+00 0. -1.
</event>
<event>
 7    1  0.2733256E-010  0.4778727E+02  0.7816164E-02  0.1312668E+00
        -11   -1    0    0    0    0  0.00000000000E+00  0.00000000000E+00  0.45593999997E+02  0.45594000000E+02  0.51100000000E-03 0.  1.
         11   -1    0    0    0    0 -0.00000000000E+00 -0.00000000000E+00 -0.45593999997E+02  0.45594000000E+02  0.51100000000E-03 0. -1.
    9900012    2    1    2    0    0  0.66043613844E+01  0.39103116550E+02  0.17633827691E+02  0.47787271985E+02  0.20000004288E+02 0.  0.
         12    1    1    2    0    0 -0.66043613844E+01 -0.39103116550E+02 -0.17633827691E+02  0.43400728015E+02  0.00000000000E+00 0. -1.
         11    1    3    3    0    0  0.87208985169E+01  0.15397745730E+02  0.75575363554E+01  0.19242167252E+02  0.51100000000E-03 0.  1.
        -11    1    3    3    0    0  0.26318223180E+00  0.15852043698E+02  0.40203698494E+00  0.15859324964E+02  0.51100000000E-03 0. -1.
         12    1    3    3    0    0 -0.23797193643E+01  0.78533271210E+01  0.96742543506E+01  0.12685779770E+02  0.00000000000E+00 0. -1.
</event>
<event>
 7    1  0.2733256E-010  0.4778728E+02  0.7816164E-02  0.1312668E+00
        -11   -1    0    0    0    0  0.00000000000E+00  0.00000000000E+00  0.45593999997E+02  0.45594000000E+02  0.51100000000E-03 0.  1.
         11   -1    0    0    0    0 -0.00000000000E+00 -0.00000000000E+00 -0.45593999997E+02  0.45594000000E+02  0.51100000000E-03 0. -1.
    9900012    2    1    2    0    0  0.58597212813E+01 -0.20999733488E+02  0.37527287778E+02  0.47787280329E+02  0.20000042330E+02 0.  0.
         12    1    1    2    0    0 -0.58597212813E+01  0.20999733488E+02 -0.37527287778E+02  0.43400719671E+02  0.00000000000E+00 0. -1.
         11    1    3    3    0    0 -0.39045754736E+01 -0.73189114042E+01  0.69197772963E+01  0.10802568762E+02  0.51100000000E-03 0. -1.
        -11    1    3    3    0    0  0.18367911662E+01  0.22724686172E+01  0.37031740364E+01  0.47171404059E+01  0.51100000000E-03 0.  1.
         12    1    3    3    0    0  0.79275055886E+01 -0.15953290701E+02  0.26904336445E+02  0.32267571160E+02  0.00000000000E+00 0. -1.
</event>
<event>
 7    1  0.2733256E-010  0.4778727E+02  0.7816164E-02  0.1312668E+00
        -11   -1    0    0    0    0  0.00000000000E+00  0.00000000000E+00  0.45593999997E+02  0.45594000000E+02  0.51100000000E-03 0. -1.
         11   -1    0    0    0    0 -0.00000000000E+00 -0.00000000000E+00 -0.45593999997E+02  0.45594000000E+02  0.51100000000E-03 0.  1.
    9900012    2    1    2    0    0 -0.52345511256E+01  0.25653543299E+02 -0.34613846603E+02  0.47787272057E+02  0.20000004617E+02 0.  0.
         12    1    1    2    0    0  0.52345511256E+01 -0.25653543299E+02  0.34613846603E+02  0.43400727943E+02  0.00000000000E+00 0. -1.
         11    1    3    3    0    0 -0.30608430030E+01  0.19429264318E+02 -0.17484800948E+02  0.26316978099E+02  0.51100000000E-03 0.  1.
        -11    1    3    3    0    0 -0.79747663829E+00  0.93892556921E+01 -0.11500996552E+02  0.14868322480E+02  0.51100000000E-03 0. -1.
         12    1    3    3    0    0 -0.13762314844E+01 -0.31649767105E+01 -0.56280491036E+01  0.66019714774E+01  0.00000000000E+00 0. -1.
</event>
<event>
 7    1  0.2733256E-010  0.4778728E+02  0.7816164E-02  0.1312668E+00
        -11   -1    0    0    0    0  0.00000000000E+00  0.00000000000E+00  0.45593999997E+02  0.45594000000E+02  0.51100000000E-03 0.  1.
         11   -1    0    0    0    0 -0.00000000000E+00 -0.00000000000E+00 -0.45593999997E+02  0.45594000000E+02  0.51100000000E-03 0. -1.
    9900012    2    1    2    0    0  0.18897311809E+02 -0.39061017724E+02 -0.86678196701E+00  0.47787276386E+02  0.20000024356E+02 0.  0.
         12    1    1    2    0    0 -0.18897311809E+02  0.39061017724E+02  0.86678196701E+00  0.43400723614E+02  0.00000000000E+00 0. -1.
         11    1    3    3    0    0 -0.28100423239E+01 -0.21790105890E+01 -0.26591309858E+01  0.44402030213E+01  0.51100000000E-03 0. -1.
        -11    1    3    3    0    0 -0.48814412490E+00 -0.67901766500E+00 -0.83446807984E-01  0.84042448021E+00  0.51100000000E-03 0.  1.
        -12    1    3    3    0    0  0.22195498258E+02 -0.36202989470E+02  0.18757958268E+01  0.42506648885E+02  0.00000000000E+00 0.  1.
</event>
<event>
 7    1  0.2733256E-010  0.4778727E+02  0.7816164E-02  0.1312668E+00
        -11   -1    0    0    0    0  0.00000000000E+00  0.00000000000E+00  0.45593999997E+02  0.45594000000E+02  0.51100000000E-03 0.  1.
         11   -1    0    0    0    0 -0.00000000000E+00 -0.00000000000E+00 -0.45593999997E+02  0.45594000000E+02  0.51100000000E-03 0. -1.
    9900012    2    1    2    0    0 -0.28368038931E+02  0.17693738894E+02  0.27673260053E+02  0.47787270158E+02  0.19999995960E+02 0.  0.
         12    1    1    2    0    0  0.28368038931E+02 -0.17693738894E+02 -0.27673260053E+02  0.43400729842E+02  0.00000000000E+00 0. -1.
         11    1    3    3    0    0 -0.11942236485E+02  0.87904757625E+01  0.42569589356E+01  0.15427610834E+02  0.51100000000E-03 0.  1.
        -11    1    3    3    0    0 -0.16446170613E+02  0.44698353171E+01  0.14397965706E+02  0.22310476738E+02  0.51100000000E-03 0. -1.
         12    1    3    3    0    0  0.20368166809E-01  0.44334278142E+01  0.90183354122E+01  0.10049182586E+02  0.00000000000E+00 0. -1.
</event>
<event>
 7    1  0.2733256E-010  0.4778727E+02  0.7816164E-02  0.1312668E+00
        -11   -1    0    0    0    0  0.00000000000E+00  0.00000000000E+00  0.45593999997E+02  0.45594000000E+02  0.51100000000E-03 0.  1.
         11   -1    0    0    0    0 -0.00000000000E+00 -0.00000000000E+00 -0.45593999997E+02  0.45594000000E+02  0.51100000000E-03 0. -1.
    9900012    2    1    2    0    0 -0.23018071675E+02  0.32907231794E+02  0.16459228380E+02  0.47787265826E+02  0.19999976205E+02 0.  0.
         12    1    1    2    0    0  0.23018071675E+02 -0.32907231794E+02 -0.16459228380E+02  0.43400734174E+02  0.00000000000E+00 0. -1.
         11    1    3    3    0    0  0.59993236449E+00  0.80201430150E+01  0.68745280048E+01  0.10580252756E+02  0.51100000000E-03 0. -1.
        -11    1    3    3    0    0 -0.10092740814E+02  0.17996018116E+02  0.71303274215E+01  0.21830292132E+02  0.51100000000E-03 0.  1.
        -12    1    3    3    0    0 -0.13525263225E+02  0.68910706633E+01  0.24543729541E+01  0.15376720938E+02  0.00000000000E+00 0.  1.
</event>
<event>
 7    1  0.2733256E-010  0.4778727E+02  0.7816164E-02  0.1312668E+00
        -11   -1    0    0    0    0  0.00000000000E+00  0.00000000000E+00  0.45593999997E+02  0.45594000000E+02  0.51100000000E-03 0.  1.
         11   -1    0    0    0    0 -0.00000000000E+00 -0.00000000000E+00 -0.45593999997E+02  0.45594000000E+02  0.51100000000E-03 0. -1.
    9900012    2    1    2    0    0  0.33471571651E+02  0.10800339969E+02  0.25428918791E+02  0.47787270016E+02  0.19999995312E+02 0.  0.
         12    1    1    2    0    0 -0.33471571651E+02 -0.10800339969E+02 -0.25428918791E+02  0.43400729984E+02  0.00000000000E+00 0. -1.
         11    1    3    3    0    0  0.58932286428E+01  0.39978816305E+01 -0.10161532936E+00  0.71220451630E+01  0.51100000000E-03 0. -1.
        -11    1    3    3    0    0  0.24895460760E+01 -0.16705065099E+01 -0.10194777607E+01  0.31666649380E+01  0.51100000000E-03 0.  1.
        -12    1    3    3    0    0  0.25088796932E+02  0.84729648481E+01  0.26550011881E+02  0.37498559915E+02  0.00000000000E+00 0.  1.
</event>
<event>
 7    1  0.2733256E-010  0.4778727E+02  0.7816164E-02  0.1312668E+00
        -11   -1    0    0    0    0  0.00000000000E+00  0.00000000000E+00  0.45593999997E+02  0.45594000000E+02  0.51100000000E-03 0.  1.
         11   -1    0    0    0    0 -0.00000000000E+00 -0.00000000000E+00 -0.45593999997E+02  0.45594000000E+02  0.51100000000E-03 0. -1.
    9900012    2    1    2    0    0  0.27572005575E+01  0.20750426092E+02  0.38018952524E+02  0.47787273175E+02  0.20000009713E+02 0.  0.
         12    1    1    2    0    0 -0.27572005575E+01 -0.20750426092E+02 -0.38018952524E+02  0.43400726825E+02  0.00000000000E+00 0. -1.
         11    1    3    3    0    0  0.64572227955E+00  0.50220166647E+01  0.11132986348E+02  0.12230330900E+02  0.51100000000E-03 0.  1.
        -11    1    3    3    0    0 -0.62149244204E+00  0.18934608226E+02  0.23256707647E+02  0.29996334649E+02  0.51100000000E-03 0. -1.
         12    1    3    3    0    0  0.27329707200E+01 -0.32061987989E+01  0.36292585297E+01  0.55606076259E+01  0.00000000000E+00 0. -1.
</event>
<event>
 7    1  0.2733256E-010  0.4778727E+02  0.7816164E-02  0.1312668E+00
        -11   -1    0    0    0    0  0.00000000000E+00  0.00000000000E+00  0.45593999997E+02  0.45594000000E+02  0.51100000000E-03 0. -1.
         11   -1    0    0    0    0 -0.00000000000E+00 -0.00000000000E+00 -0.45593999997E+02  0.45594000000E+02  0.51100000000E-03 0.  1.
    9900012    2    1    2    0    0 -0.41911746792E+02 -0.39250166068E+01 -0.10565179658E+02  0.47787270793E+02  0.19999998853E+02 0.  0.
         12    1    1    2    0    0  0.41911746792E+02  0.39250166068E+01  0.10565179658E+02  0.43400729207E+02  0.00000000000E+00 0. -1.
         11    1    3    3    0    0 -0.67968817349E+01 -0.50523343759E+01  0.68979290152E+00  0.84970288027E+01  0.51100000000E-03 0. -1.
        -11    1    3    3    0    0 -0.24109138284E+02 -0.49873165216E+01 -0.45869868738E+01  0.25043249065E+02  0.51100000000E-03 0.  1.
        -12    1    3    3    0    0 -0.11005726773E+02  0.61146342907E+01 -0.66679856853E+01  0.14246992925E+02  0.00000000000E+00 0.  1.
</event>
<event>
 7    1  0.2733256E-010  0.4778727E+02  0.7816164E-02  0.1312668E+00
        -11   -1    0    0    0    0  0.00000000000E+00  0.00000000000E+00  0.45593999997E+02  0.45594000000E+02  0.51100000000E-03 0.  1.
         11   -1    0    0    0    0 -0.00000000000E+00 -0.00000000000E+00 -0.45593999997E+02  0.45594000000E+02  0.51100000000E-03 0. -1.
    9900012    2    1    2    0    0  0.39678003380E+02 -0.14868098414E+02  0.93924937379E+01  0.47787271420E+02  0.20000001713E+02 0.  0.
         12    1    1    2    0    0 -0.39678003380E+02  0.14868098414E+02 -0.93924937379E+01  0.43400728580E+02  0.00000000000E+00 0. -1.
         11    1    3    3    0    0  0.79638173782E+01 -0.18284866517E+01 -0.24418269577E+01  0.85280871139E+01  0.51100000000E-03 0. -1.
        -11    1    3    3    0    0  0.14982265168E+02 -0.24246702718E+01 -0.16866506327E+01  0.15270628216E+02  0.51100000000E-03 0.  1.
         12    1    3    3    0    0  0.16731920833E+02 -0.10614941491E+02  0.13520971328E+02  0.23988556090E+02  0.00000000000E+00 0. -1.
</event>
<event>
 7    1  0.2733256E-010  0.4778727E+02  0.7816164E-02  0.1312668E+00
        -11   -1    0    0    0    0  0.00000000000E+00  0.00000000000E+00  0.45593999997E+02  0.45594000000E+02  0.51100000000E-03 0.  1.
         11   -1    0    0    0    0 -0.00000000000E+00 -0.00000000000E+00 -0.45593999997E+02  0.45594000000E+02  0.51100000000E-03 0. -1.
    9900012    2    1    2    0    0 -0.28537595009E+01  0.11435441498E+02  0.41769724886E+02  0.47787272096E+02  0.20000004794E+02 0.  0.
         12    1    1    2    0    0  0.28537595009E+01 -0.11435441498E+02 -0.41769724886E+02  0.43400727904E+02  0.00000000000E+00 0. -1.
         11    1    3    3    0    0  0.16803403176E+01  0.83246301296E+01  0.19640590390E+02  0.21398032655E+02  0.51100000000E-03 0. -1.
        -11    1    3    3    0    0 -0.72793886117E+01  0.60645127481E+01  0.19182866498E+02  0.21395097120E+02  0.51100000000E-03 0.  1.
         12    1    3    3    0    0  0.27452887932E+01 -0.29537013800E+01  0.29462679976E+01  0.49941423202E+01  0.00000000000E+00 0. -1.
</event>
<event>
 7    1  0.2733256E-010  0.4778728E+02  0.7816164E-02  0.1312668E+00
        -11   -1    0    0    0    0  0.00000000000E+00  0.00000000000E+00  0.45593999997E+02  0.45594000000E+02  0.51100000000E-03 0.  1.
         11   -1    0    0    0    0 -0.00000000000E+00 -0.00000000000E+00 -0.45593999997E+02  0.45594000000E+02  0.51100000000E-03 0. -1.
    9900012    2    1    2    0    0  0.13220928215E+02  0.22339483056E+02  0.34781849622E+02  0.47787279854E+02  0.20000040167E+02 0.  0.
         12    1    1    2    0    0 -0.13220928215E+02 -0.22339483056E+02 -0.34781849622E+02  0.43400720146E+02  0.00000000000E+00 0. -1.
         11    1    3    3    0    0  0.67154663212E+01  0.16138120064E+02  0.89672111710E+01  0.19645541060E+02  0.51100000000E-03 0. -1.
        -11    1    3    3    0    0  0.19261767854E+01  0.56873595214E+01  0.99505051418E+01  0.11621908973E+02  0.51100000000E-03 0.  1.
         12    1    3    3    0    0  0.45792851087E+01  0.51400347063E+00  0.15864133309E+02  0.16519829821E+02  0.00000000000E+00 0. -1.
</event>
<event>
 7    1  0.2733256E-010  0.4778727E+02  0.7816164E-02  0.1312668E+00
        -11   -1    0    0    0    0  0.00000000000E+00  0.00000000000E+00  0.45593999997E+02  0.45594000000E+02  0.51100000000E-03 0.  1.
         11   -1    0    0    0    0 -0.00000000000E+00 -0.00000000000E+00 -0.45593999997E+02  0.45594000000E+02  0.51100000000E-03 0. -1.
    9900012    2    1    2    0    0 -0.18763016881E+02 -0.19584714158E+02  0.33882318906E+02  0.47787269988E+02  0.19999995182E+02 0.  0.
         12    1    1    2    0    0  0.18763016881E+02  0.19584714158E+02 -0.33882318906E+02  0.43400730012E+02  0.00000000000E+00 0. -1.
         11    1    3    3    0    0 -0.20664949110E+01 -0.24560753214E+00 -0.20662431151E+00  0.20912718963E+01  0.51100000000E-03 0. -1.
        -11    1    3    3    0    0 -0.11378625755E+02 -0.21434526419E+02  0.24185846770E+02  0.34261745885E+02  0.51100000000E-03 0.  1.
        -12    1    3    3    0    0 -0.53178962150E+01  0.20954197926E+01  0.99030964483E+01  0.11434252207E+02  0.00000000000E+00 0.  1.
</event>
<event>
 7    1  0.2733256E-010  0.4778727E+02  0.7816164E-02  0.1312668E+00
        -11   -1    0    0    0    0  0.00000000000E+00  0.00000000000E+00  0.45593999997E+02  0.45594000000E+02  0.51100000000E-03 0.  1.
         11   -1    0    0    0    0 -0.00000000000E+00 -0.00000000000E+00 -0.45593999997E+02  0.45594000000E+02  0.51100000000E-03 0. -1.
    9900012    2    1    2    0    0  0.36604532313E+02  0.22502524212E+02  0.61129598151E+01  0.47787266602E+02  0.19999979746E+02 0.  0.
         12    1    1    2    0    0 -0.36604532313E+02 -0.22502524212E+02 -0.61129598151E+01  0.43400733398E+02  0.00000000000E+00 0. -1.
         11    1    3    3    0    0  0.16365201032E+02  0.15527128655E+02  0.45177779429E+01  0.23006995607E+02  0.51100000000E-03 0. -1.
        -11    1    3    3    0    0  0.95465256718E+01  0.38389497280E+01  0.69503537621E+01  0.12416968434E+02  0.51100000000E-03 0.  1.
         12    1    3    3    0    0  0.10692805610E+02  0.31364458290E+01 -0.53551718898E+01  0.12363302561E+02  0.00000000000E+00 0. -1.
</event>
<event>
 7    1  0.2733256E-010  0.4778727E+02  0.7816164E-02  0.1312668E+00
        -11   -1    0    0    0    0  0.00000000000E+00  0.00000000000E+00  0.45593999997E+02  0.45594000000E+02  0.51100000000E-03 0.  1.
         11   -1    0    0    0    0 -0.00000000000E+00 -0.00000000000E+00 -0.45593999997E+02  0.45594000000E+02  0.51100000000E-03 0. -1.
    9900012    2    1    2    0    0  0.25452698574E+02  0.13450083513E+02  0.32478896763E+02  0.47787270211E+02  0.19999996201E+02 0.  0.
         12    1    1    2    0    0 -0.25452698574E+02 -0.13450083513E+02 -0.32478896763E+02  0.43400729789E+02  0.00000000000E+00 0. -1.
         11    1    3    3    0    0  0.98288270965E+01  0.55517726482E+01  0.17992714232E+01  0.11430896708E+02  0.51100000000E-03 0. -1.
        -11    1    3    3    0    0  0.10439634368E+02  0.78424269992E+01  0.15234907071E+02  0.20064695879E+02  0.51100000000E-03 0.  1.
        -12    1    3    3    0    0  0.51842371094E+01  0.55883865656E-01  0.15444718269E+02  0.16291677625E+02  0.00000000000E+00 0.  1.
</event>
<event>
 7    1  0.2733256E-010  0.4778727E+02  0.7816164E-02  0.1312668E+00
        -11   -1    0    0    0    0  0.00000000000E+00  0.00000000000E+00  0.45593999997E+02  0.45594000000E+02  0.51100000000E-03 0. -1.
         11   -1    0    0    0    0 -0.00000000000E+00 -0.00000000000E+00 -0.45593999997E+02  0.45594000000E+02  0.51100000000E-03 0.  1.
    9900012    2    1    2    0    0  0.26562074146E+01 -0.42592023251E+02 -0.79049010557E+01  0.47787270246E+02  0.19999996360E+02 0.  0.
         12    1    1    2    0    0 -0.26562074146E+01  0.42592023251E+02  0.79049010557E+01  0.43400729754E+02  0.00000000000E+00 0. -1.
         11    1    3    3    0    0 -0.12838337885E+01 -0.12117193760E+02 -0.44329078403E+01  0.12966313508E+02  0.51100000000E-03 0. -1.
        -11    1    3    3    0    0 -0.38047602580E+01 -0.12781600879E+02 -0.71925219505E+01  0.15151828072E+02  0.51100000000E-03 0.  1.
         12    1    3    3    0    0  0.77448014612E+01 -0.17693228612E+02  0.37205287352E+01  0.19669128665E+02  0.00000000000E+00 0. -1.
</event>
<event>
 7    1  0.2733256E-010  0.4778728E+02  0.7816164E-02  0.1312668E+00
        -11   -1    0    0    0    0  0.00000000000E+00  0.00000000000E+00  0.45593999997E+02  0.45594000000E+02  0.51100000000E-03 0.  1.
         11   -1    0    0    0    0 -0.00000000000E+00 -0.00000000000E+00 -0.45593999997E+02  0.45594000000E+02  0.51100000000E-03 0. -1.
    9900012    2    1    2    0    0  0.11703665138E+02  0.34763128034E+01  0.41648074897E+02  0.47787277990E+02  0.20000031668E+02 0.  0.
         12    1    1    2    0    0 -0.11703665138E+02 -0.34763128034E+01 -0.41648074897E+02  0.43400722010E+02  0.00000000000E+00 0. -1.
         11    1    3    3    0    0  0.46126926217E+01 -0.59522081367E+01  0.21268712361E+02  0.22562443145E+02  0.51100000000E-03 0. -1.
        -11    1    3    3    0    0  0.77286634594E+01  0.40587846293E+01  0.85550610809E+01  0.12222726451E+02  0.51100000000E-03 0.  1.
        -12    1    3    3    0    0 -0.63769094310E+00  0.53697363108E+01  0.11824301455E+02  0.13002108394E+02  0.00000000000E+00 0.  1.
</event>
<event>
 7    1  0.2733256E-010  0.4778727E+02  0.7816164E-02  0.1312668E+00
        -11   -1    0    0    0    0  0.00000000000E+00  0.00000000000E+00  0.45593999997E+02  0.45594000000E+02  0.51100000000E-03 0. -1.
         11   -1    0    0    0    0 -0.00000000000E+00 -0.00000000000E+00 -0.45593999997E+02  0.45594000000E+02  0.51100000000E-03 0.  1.
    9900012    2    1    2    0    0  0.15654473752E+02 -0.24527830258E+01 -0.40404755818E+02  0.47787274364E+02  0.20000015135E+02 0.  0.
         12    1    1    2    0    0 -0.15654473752E+02  0.24527830258E+01  0.40404755818E+02  0.43400725636E+02  0.00000000000E+00 0. -1.
         11    1    3    3    0    0  0.29403089833E+01  0.49564326786E+01 -0.78231595664E+01  0.97166592858E+01  0.51100000000E-03 0. -1.
        -11    1    3    3    0    0  0.26890585271E+01 -0.15402976112E+01 -0.22430721060E+02  0.22643780603E+02  0.51100000000E-03 0.  1.
        -12    1    3    3    0    0  0.10025106242E+02 -0.58689180932E+01 -0.10150875192E+02  0.15426834475E+02  0.00000000000E+00 0.  1.
</event>
<event>
 7    1  0.2733256E-010  0.4778727E+02  0.7816164E-02  0.1312668E+00
        -11   -1    0    0    0    0  0.00000000000E+00  0.00000000000E+00  0.45593999997E+02  0.45594000000E+02  0.51100000000E-03 0.  1.
         11   -1    0    0    0    0 -0.00000000000E+00 -0.00000000000E+00 -0.45593999997E+02  0.45594000000E+02  0.51100000000E-03 0. -1.
    9900012    2    1    2    0    0  0.10334230511E+02 -0.39989078440E+02  0.13330446750E+02  0.47787268148E+02  0.19999986796E+02 0.  0.
         12    1    1    2    0    0 -0.10334230511E+02  0.39989078440E+02 -0.13330446750E+02  0.43400731852E+02  0.00000000000E+00 0. -1.
         11    1    3    3    0    0  0.60479885362E+01 -0.16449423282E+02  0.23623939238E+01  0.17684529877E+02  0.51100000000E-03 0. -1.
        -11    1    3    3    0    0  0.22302479217E+01 -0.24467983177E+02  0.12307024111E+02  0.27479429566E+02  0.51100000000E-03 0.  1.
        -12    1    3    3    0    0  0.20559940534E+01  0.92832801999E+00 -0.13389712852E+01  0.26233087052E+01  0.00000000000E+00 0.  1.
</event>
<event>
 7    1  0.2733256E-010  0.4778728E+02  0.7816164E-02  0.1312668E+00
        -11   -1    0    0    0    0  0.00000000000E+00  0.00000000000E+00  0.45593999997E+02  0.45594000000E+02  0.51100000000E-03 0.  1.
         11   -1    0    0    0    0 -0.00000000000E+00 -0.00000000000E+00 -0.45593999997E+02  0.45594000000E+02  0.51100000000E-03 0. -1.
    9900012    2    1    2    0    0 -0.35346867223E+02 -0.54405503116E+01  0.24589053666E+02  0.47787283757E+02  0.20000057963E+02 0.  0.
         12    1    1    2    0    0  0.35346867223E+02  0.54405503116E+01 -0.24589053666E+02  0.43400716243E+02  0.00000000000E+00 0. -1.
         11    1    3    3    0    0 -0.14308113543E+02  0.47238044945E+01  0.44218666766E+01  0.15703163606E+02  0.51100000000E-03 0. -1.
        -11    1    3    3    0    0 -0.11578012051E+02 -0.10905241715E+01  0.11590593434E+02  0.16418936093E+02  0.51100000000E-03 0.  1.
        -12    1    3    3    0    0 -0.94607416296E+01 -0.90738306346E+01  0.85765935556E+01  0.15665184058E+02  0.00000000000E+00 0.  1.
</event>
<event>
 7    1  0.2733256E-010  0.4778727E+02  0.7816164E-02  0.1312668E+00
        -11   -1    0    0    0    0  0.00000000000E+00  0.00000000000E+00  0.45593999997E+02  0.45594000000E+02  0.51100000000E-03 0. -1.
         11   -1    0    0    0    0 -0.00000000000E+00 -0.00000000000E+00 -0.45593999997E+02  0.45594000000E+02  0.51100000000E-03 0.  1.
    9900012    2    1    2    0    0 -0.12503208640E+02 -0.21119436397E+02 -0.35794729091E+02  0.47787269007E+02  0.19999990710E+02 0.  0.
         12    1    1    2    0    0  0.12503208640E+02  0.21119436397E+02  0.35794729091E+02  0.43400730993E+02  0.00000000000E+00 0. -1.
         11    1    3    3    0    0  0.14605370013E+01  0.10336492626E+01 -0.45496202514E+01  0.48888284714E+01  0.51100000000E-03 0. -1.
        -11    1    3    3    0    0 -0.70689779922E+01 -0.20290185429E+02 -0.18801834600E+02  0.28551200661E+02  0.51100000000E-03 0.  1.
         12    1    3    3    0    0 -0.68947676487E+01 -0.18629002305E+01 -0.12443274240E+02  0.14347239874E+02  0.00000000000E+00 0. -1.
</event>
<event>
 7    1  0.2733256E-010  0.4778727E+02  0.7816164E-02  0.1312668E+00
        -11   -1    0    0    0    0  0.00000000000E+00  0.00000000000E+00  0.45593999997E+02  0.45594000000E+02  0.51100000000E-03 0.  1.
         11   -1    0    0    0    0 -0.00000000000E+00 -0.00000000000E+00 -0.45593999997E+02  0.45594000000E+02  0.51100000000E-03 0. -1.
    9900012    2    1    2    0    0  0.70845899396E+00  0.42976431068E+02  0.60122806526E+01  0.47787273507E+02  0.20000011229E+02 0.  0.
         12    1    1    2    0    0 -0.70845899396E+00 -0.42976431068E+02 -0.60122806526E+01  0.43400726493E+02  0.00000000000E+00 0. -1.
         11    1    3    3    0    0 -0.14039425785E+01  0.56851414852E+01 -0.36106984186E+01  0.68796098582E+01  0.51100000000E-03 0. -1.
        -11    1    3    3    0    0 -0.88251803556E+00 -0.10033444770E+01  0.14536925514E+00  0.13441245122E+01  0.51100000000E-03 0.  1.
        -12    1    3    3    0    0  0.29949196080E+01  0.38294634059E+02  0.94776098161E+01  0.39563539137E+02  0.00000000000E+00 0.  1.
</event>
<event>
 7    1  0.2733256E-010  0.4778727E+02  0.7816164E-02  0.1312668E+00
        -11   -1    0    0    0    0  0.00000000000E+00  0.00000000000E+00  0.45593999997E+02  0.45594000000E+02  0.51100000000E-03 0.  1.
         11   -1    0    0    0    0 -0.00000000000E+00 -0.00000000000E+00 -0.45593999997E+02  0.45594000000E+02  0.51100000000E-03 0. -1.
    9900012    2    1    2    0    0 -0.12916481025E+02 -0.14061307299E+02  0.38975215451E+02  0.47787271153E+02  0.20000000494E+02 0.  0.
         12    1    1    2    0    0  0.12916481025E+02  0.14061307299E+02 -0.38975215451E+02  0.43400728847E+02  0.00000000000E+00 0. -1.
         11    1    3    3    0    0  0.25748702670E+01 -0.50799604325E+01  0.14425313326E+01  0.58751044071E+01  0.51100000000E-03 0. -1.
        -11    1    3    3    0    0 -0.17390695332E+01 -0.16563574717E+01  0.20444159355E+01  0.31539688797E+01  0.51100000000E-03 0.  1.
        -12    1    3    3    0    0 -0.13752281759E+02 -0.73249893946E+01  0.35488268183E+02  0.38758197866E+02  0.00000000000E+00 0.  1.
</event>
<event>
 7    1  0.2733256E-010  0.4778727E+02  0.7816164E-02  0.1312668E+00
        -11   -1    0    0    0    0  0.00000000000E+00  0.00000000000E+00  0.45593999997E+02  0.45594000000E+02  0.51100000000E-03 0.  1.
         11   -1    0    0    0    0 -0.00000000000E+00 -0.00000000000E+00 -0.45593999997E+02  0.45594000000E+02  0.51100000000E-03 0. -1.
    9900012    2    1    2    0    0 -0.16075502352E+02 -0.18240427602E+01  0.40272503205E+02  0.47787269335E+02  0.19999992204E+02 0.  0.
         12    1    1    2    0    0  0.16075502352E+02  0.18240427602E+01 -0.40272503205E+02  0.43400730665E+02  0.00000000000E+00 0. -1.
         11    1    3    3    0    0 -0.14185996516E+02 -0.37823360985E+01  0.22911065895E+02  0.27211495810E+02  0.51100000000E-03 0. -1.
        -11    1    3    3    0    0 -0.43104210406E+01 -0.14052675816E+01  0.15279659228E+02  0.15938083100E+02  0.51100000000E-03 0.  1.
         12    1    3    3    0    0  0.24209152043E+01  0.33635609200E+01  0.20817780826E+01  0.46376904245E+01  0.00000000000E+00 0. -1.
</event>
<event>
 7    1  0.2733256E-010  0.4778727E+02  0.7816164E-02  0.1312668E+00
        -11   -1    0    0    0    0  0.00000000000E+00  0.00000000000E+00  0.45593999997E+02  0.45594000000E+02  0.51100000000E-03 0.  1.
         11   -1    0    0    0    0 -0.00000000000E+00 -0.00000000000E+00 -0.45593999997E+02  0.45594000000E+02  0.51100000000E-03 0. -1.
    9900012    2    1    2    0    0 -0.39340588582E+01  0.38490355471E+02  0.19663147713E+02  0.47787266581E+02  0.19999979647E+02 0.  0.
         12    1    1    2    0    0  0.39340588582E+01 -0.38490355471E+02 -0.19663147713E+02  0.43400733419E+02  0.00000000000E+00 0. -1.
         11    1    3    3    0    0 -0.32625146539E+00  0.83037167857E+01  0.64290416225E+01  0.10506699240E+02  0.51100000000E-03 0. -1.
        -11    1    3    3    0    0  0.17664116057E+01  0.23022217136E+02  0.23855461835E+01  0.23212787913E+02  0.51100000000E-03 0.  1.
        -12    1    3    3    0    0 -0.53742189985E+01  0.71644215487E+01  0.10848559907E+02  0.14067779428E+02  0.00000000000E+00 0.  1.
</event>
<event>
 7    1  0.2733256E-010  0.4778727E+02  0.7816164E-02  0.1312668E+00
        -11   -1    0    0    0    0  0.00000000000E+00  0.00000000000E+00  0.45593999997E+02  0.45594000000E+02  0.51100000000E-03 0.  1.
         11   -1    0    0    0    0 -0.00000000000E+00 -0.00000000000E+00 -0.45593999997E+02  0.45594000000E+02  0.51100000000E-03 0. -1.
    9900012    2    1    2    0    0 -0.13663833752E+02  0.59565869115E+01  0.40760788062E+02  0.47787272773E+02  0.20000007880E+02 0.  0.
         12    1    1    2    0    0  0.13663833752E+02 -0.59565869115E+01 -0.40760788062E+02  0.43400727227E+02  0.00000000000E+00 0. -1.
         11    1    3    3    0    0 -0.11693664661E+01  0.29212821467E+01  0.19901923472E+02  0.20149140564E+02  0.51100000000E-03 0. -1.
        -11    1    3    3    0    0 -0.10383894579E+02  0.18283080254E+00  0.21641507939E+02  0.24004448752E+02  0.51100000000E-03 0.  1.
         12    1    3    3    0    0 -0.21105727062E+01  0.28524739623E+01 -0.78264334920E+00  0.36336834570E+01  0.00000000000E+00 0. -1.
</event>
<event>
 7    1  0.2733256E-010  0.4778727E+02  0.7816164E-02  0.1312668E+00
        -11   -1    0    0    0    0  0.00000000000E+00  0.00000000000E+00  0.45593999997E+02  0.45594000000E+02  0.51100000000E-03 0.  1.
         11   -1    0    0    0    0 -0.00000000000E+00 -0.00000000000E+00 -0.45593999997E+02  0.45594000000E+02  0.51100000000E-03 0. -1.
    9900012    2    1    2    0    0 -0.52369070693E+01 -0.30631207926E+01  0.42974593650E+02  0.47787267241E+02  0.19999982657E+02 0.  0.
         12    1    1    2    0    0  0.52369070693E+01  0.30631207926E+01 -0.42974593650E+02  0.43400732759E+02  0.00000000000E+00 0. -1.
         11    1    3    3    0    0  0.44141373880E+01  0.99769593536E+00  0.50427222981E+01  0.67756220745E+01  0.51100000000E-03 0. -1.
        -11    1    3    3    0    0 -0.20860475265E+01  0.17255004497E+01  0.23899491131E+02  0.24052330920E+02  0.51100000000E-03 0.  1.
        -12    1    3    3    0    0 -0.75649969307E+01 -0.57863171776E+01  0.14032380221E+02  0.16959314247E+02  0.00000000000E+00 0.  1.
</event>
<event>
 7    1  0.2733256E-010  0.4778727E+02  0.7816164E-02  0.1312668E+00
        -11   -1    0    0    0    0  0.00000000000E+00  0.00000000000E+00  0.45593999997E+02  0.45594000000E+02  0.51100000000E-03 0. -1.
         11   -1    0    0    0    0 -0.00000000000E+00 -0.00000000000E+00 -0.45593999997E+02  0.45594000000E+02  0.51100000000E-03 0.  1.
    9900012    2    1    2    0    0 -0.19621311520E+01  0.25529216709E+02 -0.35043292917E+02  0.47787271401E+02  0.20000001626E+02 0.  0.
         12    1    1    2    0    0  0.19621311520E+01 -0.25529216709E+02  0.35043292917E+02  0.43400728599E+02  0.00000000000E+00 0. -1.
         11    1    3    3    0    0  0.95656436048E+00  0.85810207645E+01 -0.20774500996E+02  0.22497307053E+02  0.51100000000E-03 0. -1.
        -11    1    3    3    0    0 -0.16718057173E+01  0.14787374200E+02 -0.16300996307E+02  0.22072241638E+02  0.51100000000E-03 0.  1.
         12    1    3    3    0    0 -0.12468897952E+01  0.21608217439E+01  0.20322043857E+01  0.32177227095E+01  0.00000000000E+00 0. -1.
</event>
<event>
 7    1  0.2733256E-010  0.4778725E+02  0.7816164E-02  0.1312668E+00
        -11   -1    0    0    0    0  0.00000000000E+00  0.00000000000E+00  0.45593999997E+02  0.45594000000E+02  0.51100000000E-03 0. -1.
         11   -1    0    0    0    0 -0.00000000000E+00 -0.00000000000E+00 -0.45593999997E+02  0.45594000000E+02  0.51100000000E-03 0.  1.
    9900012    2    1    2    0    0 -0.57228084459E+00 -0.38438931771E+01 -0.43226409372E+02  0.47787245544E+02  0.19999883733E+02 0.  0.
         12    1    1    2    0    0  0.57228084459E+00  0.38438931771E+01  0.43226409372E+02  0.43400754456E+02  0.00000000000E+00 0. -1.
         11    1    3    3    0    0 -0.27848197263E+00 -0.25088780515E+01 -0.28301182054E+02  0.28413534225E+02  0.51100000000E-03 0. -1.
        -11    1    3    3    0    0  0.46832680633E+01 -0.10998260596E+01 -0.13283208841E+02  0.14127499937E+02  0.51100000000E-03 0.  1.
         12    1    3    3    0    0 -0.49770669352E+01 -0.23518906601E+00 -0.16420184780E+01  0.52462113812E+01  0.00000000000E+00 0. -1.
</event>
<event>
 7    1  0.2733256E-010  0.4778726E+02  0.7816164E-02  0.1312668E+00
        -11   -1    0    0    0    0  0.00000000000E+00  0.00000000000E+00  0.45593999997E+02  0.45594000000E+02  0.51100000000E-03 0. -1.
         11   -1    0    0    0    0 -0.00000000000E+00 -0.00000000000E+00 -0.45593999997E+02  0.45594000000E+02  0.51100000000E-03 0.  1.
    9900012    2    1    2    0    0 -0.15964292677E+02  0.39473790618E+02 -0.84015008066E+01  0.47787262653E+02  0.19999961742E+02 0.  0.
         12    1    1    2    0    0  0.15964292677E+02 -0.39473790618E+02  0.84015008066E+01  0.43400737347E+02  0.00000000000E+00 0. -1.
         11    1    3    3    0    0  0.19716944667E+01 -0.98016351822E-01 -0.19932875258E+01  0.28054200571E+01  0.51100000000E-03 0.  1.
        -11    1    3    3    0    0 -0.11788530544E+02  0.14878500161E+02 -0.41806385697E+01  0.19437514207E+02  0.51100000000E-03 0. -1.
        -12    1    3    3    0    0 -0.61474566003E+01  0.24693306809E+02 -0.22275747111E+01  0.25544328390E+02  0.00000000000E+00 0.  1.
</event>
<event>
 7    1  0.2733256E-010  0.4778732E+02  0.7816164E-02  0.1312668E+00
        -11   -1    0    0    0    0  0.00000000000E+00  0.00000000000E+00  0.45593999997E+02  0.45594000000E+02  0.51100000000E-03 0. -1.
         11   -1    0    0    0    0 -0.00000000000E+00 -0.00000000000E+00 -0.45593999997E+02  0.45594000000E+02  0.51100000000E-03 0.  1.
    9900012    2    1    2    0    0  0.30673715076E+02  0.18754715914E+02 -0.24310548843E+02  0.47787320851E+02  0.20000227085E+02 0.  0.
         12    1    1    2    0    0 -0.30673715076E+02 -0.18754715914E+02  0.24310548843E+02  0.43400679149E+02  0.00000000000E+00 0. -1.
         11    1    3    3    0    0  0.11506469887E+01  0.40216207092E+01 -0.61735369374E+01  0.74572099475E+01  0.51100000000E-03 0. -1.
        -11    1    3    3    0    0  0.69237555273E+01 -0.25696820080E+01 -0.21825553395E+01  0.77009872286E+01  0.51100000000E-03 0.  1.
        -12    1    3    3    0    0  0.22599312560E+02  0.17302777213E+02 -0.15954456566E+02  0.32629123675E+02  0.00000000000E+00 0.  1.
</event>
<event>
 7    1  0.2733256E-010  0.4778727E+02  0.7816164E-02  0.1312668E+00
        -11   -1    0    0    0    0  0.00000000000E+00  0.00000000000E+00  0.45593999997E+02  0.45594000000E+02  0.51100000000E-03 0. -1.
         11   -1    0    0    0    0 -0.00000000000E+00 -0.00000000000E+00 -0.45593999997E+02  0.45594000000E+02  0.51100000000E-03 0.  1.
    9900012    2    1    2    0    0 -0.53579254755E+01 -0.43031837173E+02 -0.17823862912E+01  0.47787271011E+02  0.19999999849E+02 0.  0.
         12    1    1    2    0    0  0.53579254755E+01  0.43031837173E+02  0.17823862912E+01  0.43400728989E+02  0.00000000000E+00 0. -1.
         11    1    3    3    0    0 -0.18613317650E+01 -0.51674792133E+01  0.54826857998E+01  0.77606211865E+01  0.51100000000E-03 0. -1.
        -11    1    3    3    0    0 -0.30090410520E+01 -0.37702241325E+01 -0.29569315692E+01  0.56579468563E+01  0.51100000000E-03 0.  1.
         12    1    3    3    0    0 -0.48755265850E+00 -0.34094133827E+02 -0.43081405218E+01  0.34368702969E+02  0.00000000000E+00 0. -1.
</event>
<event>
 7    1  0.2733256E-010  0.4778727E+02  0.7816164E-02  0.1312668E+00
        -11   -1    0    0    0    0  0.00000000000E+00  0.00000000000E+00  0.45593999997E+02  0.45594000000E+02  0.51100000000E-03 0.  1.
         11   -1    0    0    0    0 -0.00000000000E+00 -0.00000000000E+00 -0.45593999997E+02  0.45594000000E+02  0.51100000000E-03 0. -1.
    9900012    2    1    2    0    0  0.10835265662E+02 -0.56210032356E+01  0.41648823978E+02  0.47787271918E+02  0.20000003981E+02 0.  0.
         12    1    1    2    0    0 -0.10835265662E+02  0.56210032356E+01 -0.41648823978E+02  0.43400728082E+02  0.00000000000E+00 0. -1.
         11    1    3    3    0    0  0.45110533820E+01  0.65019323394E+01  0.15097994245E+02  0.17046235867E+02  0.51100000000E-03 0.  1.
        -11    1    3    3    0    0 -0.75760789123E+00 -0.29337828578E+01  0.21275313958E+01  0.37023562329E+01  0.51100000000E-03 0. -1.
        -12    1    3    3    0    0  0.70818201709E+01 -0.91891527171E+01  0.24423298338E+02  0.27038679818E+02  0.00000000000E+00 0.  1.
</event>
<event>
 7    1  0.2733256E-010  0.4778727E+02  0.7816164E-02  0.1312668E+00
        -11   -1    0    0    0    0  0.00000000000E+00  0.00000000000E+00  0.45593999997E+02  0.45594000000E+02  0.51100000000E-03 0.  1.
         11   -1    0    0    0    0 -0.00000000000E+00 -0.00000000000E+00 -0.45593999997E+02  0.45594000000E+02  0.51100000000E-03 0. -1.
    9900012    2    1    2    0    0  0.26306805263E+02  0.15839648165E+02  0.30670521837E+02  0.47787269973E+02  0.19999995113E+02 0.  0.
         12    1    1    2    0    0 -0.26306805263E+02 -0.15839648165E+02 -0.30670521837E+02  0.43400730027E+02  0.00000000000E+00 0. -1.
         11    1    3    3    0    0  0.24965271678E+01  0.86438855375E+01  0.11309007294E+02  0.14451403092E+02  0.51100000000E-03 0. -1.
        -11    1    3    3    0    0  0.58200251457E+01  0.69545788739E+01  0.53255328138E+01  0.10516661068E+02  0.51100000000E-03 0.  1.
         12    1    3    3    0    0  0.17990252950E+02  0.24118375331E+00  0.14035981729E+02  0.22819205812E+02  0.00000000000E+00 0. -1.
</event>
<event>
 7    1  0.2733256E-010  0.4778727E+02  0.7816164E-02  0.1312668E+00
        -11   -1    0    0    0    0  0.00000000000E+00  0.00000000000E+00  0.45593999997E+02  0.45594000000E+02  0.51100000000E-03 0.  1.
         11   -1    0    0    0    0 -0.00000000000E+00 -0.00000000000E+00 -0.45593999997E+02  0.45594000000E+02  0.51100000000E-03 0. -1.
    9900012    2    1    2    0    0  0.18158944424E+02 -0.38189457576E+02  0.97694153721E+01  0.47787269485E+02  0.19999992890E+02 0.  0.
         12    1    1    2    0    0 -0.18158944424E+02  0.38189457576E+02 -0.97694153721E+01  0.43400730515E+02  0.00000000000E+00 0. -1.
         11    1    3    3    0    0  0.48243973483E+01 -0.31024978487E+01  0.45349996915E+01  0.73120807666E+01  0.51100000000E-03 0. -1.
        -11    1    3    3    0    0  0.64322274246E+01 -0.77681218828E+01 -0.39609510464E+01  0.10835423420E+02  0.51100000000E-03 0.  1.
        -12    1    3    3    0    0  0.69023196506E+01 -0.27318837844E+02  0.91953667271E+01  0.29639765299E+02  0.00000000000E+00 0.  1.
</event>
<event>
 7    1  0.2733256E-010  0.4778727E+02  0.7816164E-02  0.1312668E+00
        -11   -1    0    0    0    0  0.00000000000E+00  0.00000000000E+00  0.45593999997E+02  0.45594000000E+02  0.51100000000E-03 0.  1.
         11   -1    0    0    0    0 -0.00000000000E+00 -0.00000000000E+00 -0.45593999997E+02  0.45594000000E+02  0.51100000000E-03 0. -1.
    9900012    2    1    2    0    0 -0.16894922866E+02  0.39086499338E+02  0.83922824601E+01  0.47787271273E+02  0.20000001043E+02 0.  0.
         12    1    1    2    0    0  0.16894922866E+02 -0.39086499338E+02 -0.83922824601E+01  0.43400728727E+02  0.00000000000E+00 0. -1.
         11    1    3    3    0    0 -0.88239550393E+01  0.18392404571E+02 -0.75548410925E+00  0.20413561300E+02  0.51100000000E-03 0. -1.
        -11    1    3    3    0    0 -0.68531032702E+01  0.22532437601E+02  0.79069133259E+01  0.24843410540E+02  0.51100000000E-03 0.  1.
         12    1    3    3    0    0 -0.12178645563E+01 -0.18383428337E+01  0.12408532435E+01  0.25302994336E+01  0.00000000000E+00 0. -1.
</event>
<event>
 7    1  0.2733256E-010  0.4778727E+02  0.7816164E-02  0.1312668E+00
        -11   -1    0    0    0    0  0.00000000000E+00  0.00000000000E+00  0.45593999997E+02  0.45594000000E+02  0.51100000000E-03 0.  1.
         11   -1    0    0    0    0 -0.00000000000E+00 -0.00000000000E+00 -0.45593999997E+02  0.45594000000E+02  0.51100000000E-03 0. -1.
    9900012    2    1    2    0    0 -0.45048683096E+01 -0.85022619480E+01  0.42320688593E+02  0.47787274433E+02  0.20000015450E+02 0.  0.
         12    1    1    2    0    0  0.45048683096E+01  0.85022619480E+01 -0.42320688593E+02  0.43400725567E+02  0.00000000000E+00 0. -1.
         11    1    3    3    0    0  0.16422504378E+01 -0.55618071286E+01  0.17963389270E+02  0.18876282456E+02  0.51100000000E-03 0. -1.
        -11    1    3    3    0    0 -0.84060833207E-01 -0.36190299321E+01  0.22117717205E+02  0.22412002554E+02  0.51100000000E-03 0.  1.
         12    1    3    3    0    0 -0.60630579142E+01  0.67857511263E+00  0.22395821190E+01  0.64989894231E+01  0.00000000000E+00 0. -1.
</event>
<event>
 7    1  0.2733256E-010  0.4778727E+02  0.7816164E-02  0.1312668E+00
        -11   -1    0    0    0    0  0.00000000000E+00  0.00000000000E+00  0.45593999997E+02  0.45594000000E+02  0.51100000000E-03 0.  1.
         11   -1    0    0    0    0 -0.00000000000E+00 -0.00000000000E+00 -0.45593999997E+02  0.45594000000E+02  0.51100000000E-03 0. -1.
    9900012    2    1    2    0    0  0.33546694099E+02 -0.26586048710E+02 -0.71710858882E+01  0.47787272543E+02  0.20000006832E+02 0.  0.
         12    1    1    2    0    0 -0.33546694099E+02  0.26586048710E+02  0.71710858882E+01  0.43400727457E+02  0.00000000000E+00 0. -1.
         11    1    3    3    0    0 -0.64900942787E+00 -0.25815371751E+01  0.11675301905E+01  0.29066603569E+01  0.51100000000E-03 0. -1.
        -11    1    3    3    0    0  0.22030460172E+02 -0.22115023837E+02 -0.26774094639E+01  0.31330240606E+02  0.51100000000E-03 0.  1.
         12    1    3    3    0    0  0.12165243354E+02 -0.18894876985E+01 -0.56612066148E+01  0.13550371580E+02  0.00000000000E+00 0. -1.
</event>
<event>
 7    1  0.2733256E-010  0.4778727E+02  0.7816164E-02  0.1312668E+00
        -11   -1    0    0    0    0  0.00000000000E+00  0.00000000000E+00  0.45593999997E+02  0.45594000000E+02  0.51100000000E-03 0. -1.
         11   -1    0    0    0    0 -0.00000000000E+00 -0.00000000000E+00 -0.45593999997E+02  0.45594000000E+02  0.51100000000E-03 0.  1.
    9900012    2    1    2    0    0 -0.38018696125E+02 -0.39287356455E+01  0.20561297163E+02  0.47787272358E+02  0.20000005989E+02 0.  0.
         12    1    1    2    0    0  0.38018696125E+02  0.39287356455E+01 -0.20561297163E+02  0.43400727642E+02  0.00000000000E+00 0. -1.
         11    1    3    3    0    0  0.31868629898E+00  0.60922099144E+00  0.18454886710E+01  0.19694008910E+01  0.51100000000E-03 0. -1.
        -11    1    3    3    0    0 -0.53806023297E+01  0.51166143670E+01  0.24505409717E+01  0.78189369690E+01  0.51100000000E-03 0.  1.
        -12    1    3    3    0    0 -0.32956780094E+02 -0.96545710039E+01  0.16265267521E+02  0.37998934498E+02  0.00000000000E+00 0.  1.
</event>
<event>
 7    1  0.2733256E-010  0.4778727E+02  0.7816164E-02  0.1312668E+00
        -11   -1    0    0    0    0  0.00000000000E+00  0.00000000000E+00  0.45593999997E+02  0.45594000000E+02  0.51100000000E-03 0. -1.
         11   -1    0    0    0    0 -0.00000000000E+00 -0.00000000000E+00 -0.45593999997E+02  0.45594000000E+02  0.51100000000E-03 0.  1.
    9900012    2    1    2    0    0  0.39656288434E+02 -0.87711175527E+01 -0.15299332304E+02  0.47787270923E+02  0.19999999445E+02 0.  0.
         12    1    1    2    0    0 -0.39656288434E+02  0.87711175527E+01  0.15299332304E+02  0.43400729077E+02  0.00000000000E+00 0. -1.
         11    1    3    3    0    0  0.67192835400E+01  0.11330615234E+01 -0.29436162570E+00  0.68205020882E+01  0.51100000000E-03 0. -1.
        -11    1    3    3    0    0  0.32474910106E+02 -0.92928739534E+01 -0.17721068272E+02  0.38144639907E+02  0.51100000000E-03 0.  1.
         12    1    3    3    0    0  0.46209478773E+00 -0.61130512275E+00  0.27160975931E+01  0.28221289271E+01  0.00000000000E+00 0. -1.
</event>
<event>
 7    1  0.2733256E-010  0.4778727E+02  0.7816164E-02  0.1312668E+00
        -11   -1    0    0    0    0  0.00000000000E+00  0.00000000000E+00  0.45593999997E+02  0.45594000000E+02  0.51100000000E-03 0.  1.
         11   -1    0    0    0    0 -0.00000000000E+00 -0.00000000000E+00 -0.45593999997E+02  0.45594000000E+02  0.51100000000E-03 0. -1.
    9900012    2    1    2    0    0 -0.33145391818E+02 -0.23392515974E+02  0.15420651658E+02  0.47787270744E+02  0.19999998631E+02 0.  0.
         12    1    1    2    0    0  0.33145391818E+02  0.23392515974E+02 -0.15420651658E+02  0.43400729256E+02  0.00000000000E+00 0. -1.
         11    1    3    3    0    0 -0.65180455005E+01 -0.32581212156E+01 -0.14964741762E+00  0.72885297292E+01  0.51100000000E-03 0. -1.
        -11    1    3    3    0    0 -0.17635361766E+02 -0.36327380412E+01  0.11199732671E+02  0.21204640588E+02  0.51100000000E-03 0.  1.
         12    1    3    3    0    0 -0.89919845518E+01 -0.16501656717E+02  0.43705664045E+01  0.19294100427E+02  0.00000000000E+00 0. -1.
</event>
<event>
 7    1  0.2733256E-010  0.4778727E+02  0.7816164E-02  0.1312668E+00
        -11   -1    0    0    0    0  0.00000000000E+00  0.00000000000E+00  0.45593999997E+02  0.45594000000E+02  0.51100000000E-03 0. -1.
         11   -1    0    0    0    0 -0.00000000000E+00 -0.00000000000E+00 -0.45593999997E+02  0.45594000000E+02  0.51100000000E-03 0.  1.
    9900012    2    1    2    0    0 -0.98015399419E+00  0.26729771794E+02 -0.34178677684E+02  0.47787269474E+02  0.19999992838E+02 0.  0.
         12    1    1    2    0    0  0.98015399419E+00 -0.26729771794E+02  0.34178677684E+02  0.43400730526E+02  0.00000000000E+00 0. -1.
         11    1    3    3    0    0 -0.19252883582E+01  0.12190089907E+02 -0.64720069803E+01  0.13935275448E+02  0.51100000000E-03 0.  1.
        -11    1    3    3    0    0  0.41581623380E+01  0.73790483165E+01 -0.50194757138E+01  0.98455982443E+01  0.51100000000E-03 0. -1.
         12    1    3    3    0    0 -0.32130279740E+01  0.71606335704E+01 -0.22687194990E+02  0.24006395781E+02  0.00000000000E+00 0. -1.
</event>
<event>
 7    1  0.2733256E-010  0.4778727E+02  0.7816164E-02  0.1312668E+00
        -11   -1    0    0    0    0  0.00000000000E+00  0.00000000000E+00  0.45593999997E+02  0.45594000000E+02  0.51100000000E-03 0. -1.
         11   -1    0    0    0    0 -0.00000000000E+00 -0.00000000000E+00 -0.45593999997E+02  0.45594000000E+02  0.51100000000E-03 0.  1.
    9900012    2    1    2    0    0  0.42396047687E+01 -0.43136251190E+02 -0.22165961180E+01  0.47787265978E+02  0.19999976898E+02 0.  0.
         12    1    1    2    0    0 -0.42396047687E+01  0.43136251190E+02  0.22165961180E+01  0.43400734022E+02  0.00000000000E+00 0. -1.
         11    1    3    3    0    0 -0.33552354253E+01 -0.10497666307E+02 -0.42024985226E+01  0.11794897064E+02  0.51100000000E-03 0. -1.
        -11    1    3    3    0    0 -0.18033713525E+01 -0.98123319759E-01 -0.86430405320E+00  0.20021983364E+01  0.51100000000E-03 0.  1.
        -12    1    3    3    0    0  0.93982115465E+01 -0.32540461564E+02  0.28502064578E+01  0.33990170578E+02  0.00000000000E+00 0.  1.
</event>
<event>
 7    1  0.2733256E-010  0.4778727E+02  0.7816164E-02  0.1312668E+00
        -11   -1    0    0    0    0  0.00000000000E+00  0.00000000000E+00  0.45593999997E+02  0.45594000000E+02  0.51100000000E-03 0.  1.
         11   -1    0    0    0    0 -0.00000000000E+00 -0.00000000000E+00 -0.45593999997E+02  0.45594000000E+02  0.51100000000E-03 0. -1.
    9900012    2    1    2    0    0  0.38167376690E+02  0.14464112714E+02  0.14753442627E+02  0.47787271097E+02  0.20000000239E+02 0.  0.
         12    1    1    2    0    0 -0.38167376690E+02 -0.14464112714E+02 -0.14753442627E+02  0.43400728903E+02  0.00000000000E+00 0. -1.
         11    1    3    3    0    0  0.11590429405E+02  0.79891878479E+01  0.12885066640E+02  0.19083765846E+02  0.51100000000E-03 0. -1.
        -11    1    3    3    0    0  0.82534323401E+01 -0.10628984213E+01  0.30301089523E+01  0.88560972765E+01  0.51100000000E-03 0.  1.
         12    1    3    3    0    0  0.18323514945E+02  0.75378232875E+01 -0.11617329653E+01  0.19847407975E+02  0.00000000000E+00 0. -1.
</event>
<event>
 7    1  0.2733256E-010  0.4778727E+02  0.7816164E-02  0.1312668E+00
        -11   -1    0    0    0    0  0.00000000000E+00  0.00000000000E+00  0.45593999997E+02  0.45594000000E+02  0.51100000000E-03 0. -1.
         11   -1    0    0    0    0 -0.00000000000E+00 -0.00000000000E+00 -0.45593999997E+02  0.45594000000E+02  0.51100000000E-03 0.  1.
    9900012    2    1    2    0    0 -0.25021869007E+02  0.73182675910E+01 -0.34698305452E+02  0.47787269933E+02  0.19999994932E+02 0.  0.
         12    1    1    2    0    0  0.25021869007E+02 -0.73182675910E+01  0.34698305452E+02  0.43400730067E+02  0.00000000000E+00 0. -1.
         11    1    3    3    0    0 -0.69352186810E+01  0.47438043965E+01 -0.15694293249E+02  0.17802016154E+02  0.51100000000E-03 0. -1.
        -11    1    3    3    0    0  0.65090561026E+00 -0.33545857361E+01 -0.39899995820E+01  0.52532866379E+01  0.51100000000E-03 0.  1.
        -12    1    3    3    0    0 -0.18737555936E+02  0.59290489307E+01 -0.15014012621E+02  0.24731967141E+02  0.00000000000E+00 0.  1.
</event>
<event>
 7    1  0.2733256E-010  0.4778728E+02  0.7816164E-02  0.1312668E+00
        -11   -1    0    0    0    0  0.00000000000E+00  0.00000000000E+00  0.45593999997E+02  0.45594000000E+02  0.51100000000E-03 0. -1.
         11   -1    0    0    0    0 -0.00000000000E+00 -0.00000000000E+00 -0.45593999997E+02  0.45594000000E+02  0.51100000000E-03 0.  1.
    9900012    2    1    2    0    0  0.14093225235E+02 -0.11520638922E+02 -0.39398964590E+02  0.47787279620E+02  0.20000039101E+02 0.  0.
         12    1    1    2    0    0 -0.14093225235E+02  0.11520638922E+02  0.39398964590E+02  0.43400720380E+02  0.00000000000E+00 0. -1.
         11    1    3    3    0    0  0.52706774998E+01 -0.79413913903E+01 -0.24106865965E+02  0.25922706753E+02  0.51100000000E-03 0. -1.
        -11    1    3    3    0    0  0.14989254631E+01 -0.69258200135E+01 -0.98966953708E+01  0.12172031052E+02  0.51100000000E-03 0.  1.
         12    1    3    3    0    0  0.73236222717E+01  0.33465724818E+01 -0.53954032550E+01  0.96925418151E+01  0.00000000000E+00 0. -1.
</event>
<event>
 7    1  0.2733256E-010  0.4778727E+02  0.7816164E-02  0.1312668E+00
        -11   -1    0    0    0    0  0.00000000000E+00  0.00000000000E+00  0.45593999997E+02  0.45594000000E+02  0.51100000000E-03 0. -1.
         11   -1    0    0    0    0 -0.00000000000E+00 -0.00000000000E+00 -0.45593999997E+02  0.45594000000E+02  0.51100000000E-03 0.  1.
    9900012    2    1    2    0    0 -0.62320928746E+01 -0.65873982572E+01 -0.42442790311E+02  0.47787271357E+02  0.20000001423E+02 0.  0.
         12    1    1    2    0    0  0.62320928746E+01  0.65873982572E+01  0.42442790311E+02  0.43400728643E+02  0.00000000000E+00 0. -1.
         11    1    3    3    0    0  0.39451519744E+01  0.26123147361E+01 -0.33086960369E+01  0.57737234179E+01  0.51100000000E-03 0. -1.
        -11    1    3    3    0    0 -0.98740695941E+00 -0.32110127121E+01 -0.40894357733E+01  0.52923586751E+01  0.51100000000E-03 0.  1.
        -12    1    3    3    0    0 -0.91898378896E+01 -0.59887002812E+01 -0.35044658501E+02  0.36721189264E+02  0.00000000000E+00 0.  1.
</event>
<event>
 7    1  0.2733256E-010  0.4778727E+02  0.7816164E-02  0.1312668E+00
        -11   -1    0    0    0    0  0.00000000000E+00  0.00000000000E+00  0.45593999997E+02  0.45594000000E+02  0.51100000000E-03 0.  1.
         11   -1    0    0    0    0 -0.00000000000E+00 -0.00000000000E+00 -0.45593999997E+02  0.45594000000E+02  0.51100000000E-03 0. -1.
    9900012    2    1    2    0    0  0.37784891593E+02 -0.11871209122E+02  0.17748226413E+02  0.47787272132E+02  0.20000004957E+02 0.  0.
         12    1    1    2    0    0 -0.37784891593E+02  0.11871209122E+02 -0.17748226413E+02  0.43400727868E+02  0.00000000000E+00 0. -1.
         11    1    3    3    0    0  0.69240660984E+01  0.36086001047E+01  0.23058126141E+01  0.81413425258E+01  0.51100000000E-03 0. -1.
        -11    1    3    3    0    0  0.14162442587E+02 -0.71418722537E+00  0.69572432266E+01  0.15795191578E+02  0.51100000000E-03 0.  1.
         12    1    3    3    0    0  0.16698382907E+02 -0.14765622002E+02  0.84851705719E+01  0.23850738027E+02  0.00000000000E+00 0. -1.
</event>
<event>
 7    1  0.2733256E-010  0.4778727E+02  0.7816164E-02  0.1312668E+00
        -11   -1    0    0    0    0  0.00000000000E+00  0.00000000000E+00  0.45593999997E+02  0.45594000000E+02  0.51100000000E-03 0. -1.
         11   -1    0    0    0    0 -0.00000000000E+00 -0.00000000000E+00 -0.45593999997E+02  0.45594000000E+02  0.51100000000E-03 0.  1.
    9900012    2    1    2    0    0  0.33425759660E+02  0.21683703345E+02 -0.17209279357E+02  0.47787266186E+02  0.19999977849E+02 0.  0.
         12    1    1    2    0    0 -0.33425759660E+02 -0.21683703345E+02  0.17209279357E+02  0.43400733814E+02  0.00000000000E+00 0. -1.
         11    1    3    3    0    0  0.19752669024E+02  0.12234044907E+02 -0.55930690121E+01  0.23898163310E+02  0.51100000000E-03 0. -1.
        -11    1    3    3    0    0  0.12324506316E+02  0.14171330263E+01 -0.49229140459E+01  0.13346790060E+02  0.51100000000E-03 0.  1.
        -12    1    3    3    0    0  0.13485843197E+01  0.80325254116E+01 -0.66932962988E+01  0.10542312815E+02  0.00000000000E+00 0.  1.
</event>
<event>
 7    1  0.2733256E-010  0.4778727E+02  0.7816164E-02  0.1312668E+00
        -11   -1    0    0    0    0  0.00000000000E+00  0.00000000000E+00  0.45593999997E+02  0.45594000000E+02  0.51100000000E-03 0. -1.
         11   -1    0    0    0    0 -0.00000000000E+00 -0.00000000000E+00 -0.45593999997E+02  0.45594000000E+02  0.51100000000E-03 0.  1.
    9900012    2    1    2    0    0 -0.14263374288E+02  0.21864557157E+02 -0.34671611234E+02  0.47787270382E+02  0.19999996980E+02 0.  0.
         12    1    1    2    0    0  0.14263374288E+02 -0.21864557157E+02  0.34671611234E+02  0.43400729618E+02  0.00000000000E+00 0. -1.
         11    1    3    3    0    0 -0.21699277661E+00  0.66720120149E+01 -0.26710418237E+01  0.71900830925E+01  0.51100000000E-03 0. -1.
        -11    1    3    3    0    0 -0.15264157427E+02  0.82050909184E+01 -0.18513387025E+02  0.25358697095E+02  0.51100000000E-03 0.  1.
         12    1    3    3    0    0  0.12177759159E+01  0.69874542241E+01 -0.13487182386E+02  0.15238490195E+02  0.00000000000E+00 0. -1.
</event>
<event>
 7    1  0.2733256E-010  0.4778727E+02  0.7816164E-02  0.1312668E+00
        -11   -1    0    0    0    0  0.00000000000E+00  0.00000000000E+00  0.45593999997E+02  0.45594000000E+02  0.51100000000E-03 0.  1.
         11   -1    0    0    0    0 -0.00000000000E+00 -0.00000000000E+00 -0.45593999997E+02  0.45594000000E+02  0.51100000000E-03 0. -1.
    9900012    2    1    2    0    0 -0.25169342516E+02  0.33752951518E+02  0.10529303149E+02  0.47787265402E+02  0.19999974274E+02 0.  0.
         12    1    1    2    0    0  0.25169342516E+02 -0.33752951518E+02 -0.10529303149E+02  0.43400734598E+02  0.00000000000E+00 0. -1.
         11    1    3    3    0    0 -0.87554446318E+01  0.11546479438E+02  0.13256359097E+01  0.14551161773E+02  0.51100000000E-03 0. -1.
        -11    1    3    3    0    0 -0.17657628389E+02  0.14518733194E+02  0.25664146296E+01  0.23003737483E+02  0.51100000000E-03 0.  1.
         12    1    3    3    0    0  0.12437305049E+01  0.76877388856E+01  0.66372526097E+01  0.10232366146E+02  0.00000000000E+00 0. -1.
</event>
<event>
 7    1  0.2733256E-010  0.4778727E+02  0.7816164E-02  0.1312668E+00
        -11   -1    0    0    0    0  0.00000000000E+00  0.00000000000E+00  0.45593999997E+02  0.45594000000E+02  0.51100000000E-03 0.  1.
         11   -1    0    0    0    0 -0.00000000000E+00 -0.00000000000E+00 -0.45593999997E+02  0.45594000000E+02  0.51100000000E-03 0. -1.
    9900012    2    1    2    0    0  0.65593251002E+01 -0.45926344690E+00  0.42899740325E+02  0.47787269722E+02  0.19999993971E+02 0.  0.
         12    1    1    2    0    0 -0.65593251002E+01  0.45926344690E+00 -0.42899740325E+02  0.43400730278E+02  0.00000000000E+00 0. -1.
         11    1    3    3    0    0 -0.36173574653E+01  0.33982024417E+01  0.40015772284E+01  0.63753961008E+01  0.51100000000E-03 0. -1.
        -11    1    3    3    0    0  0.12123000405E+01  0.10168005130E+01  0.46784110935E+00  0.16499788594E+01  0.51100000000E-03 0.  1.
        -12    1    3    3    0    0  0.89643825250E+01 -0.48742664016E+01  0.38430321987E+02  0.39761894762E+02  0.00000000000E+00 0.  1.
</event>
<event>
 7    1  0.2733256E-010  0.4778727E+02  0.7816164E-02  0.1312668E+00
        -11   -1    0    0    0    0  0.00000000000E+00  0.00000000000E+00  0.45593999997E+02  0.45594000000E+02  0.51100000000E-03 0. -1.
         11   -1    0    0    0    0 -0.00000000000E+00 -0.00000000000E+00 -0.45593999997E+02  0.45594000000E+02  0.51100000000E-03 0.  1.
    9900012    2    1    2    0    0  0.34615245820E+02  0.17207131257E+02 -0.19731263038E+02  0.47787270164E+02  0.19999995984E+02 0.  0.
         12    1    1    2    0    0 -0.34615245820E+02 -0.17207131257E+02  0.19731263038E+02  0.43400729836E+02  0.00000000000E+00 0. -1.
         11    1    3    3    0    0  0.14105038389E+02  0.35032750457E+01 -0.11404050441E+02  0.18473695102E+02  0.51100000000E-03 0. -1.
        -11    1    3    3    0    0  0.50244616632E+01  0.28258547801E+01 -0.86398592111E+01  0.10386425646E+02  0.51100000000E-03 0.  1.
        -12    1    3    3    0    0  0.15485745767E+02  0.10878001431E+02  0.31264661402E+00  0.18927149416E+02  0.00000000000E+00 0.  1.
</event>
<event>
 7    1  0.2733256E-010  0.4778725E+02  0.7816164E-02  0.1312668E+00
        -11   -1    0    0    0    0  0.00000000000E+00  0.00000000000E+00  0.45593999997E+02  0.45594000000E+02  0.51100000000E-03 0. -1.
         11   -1    0    0    0    0 -0.00000000000E+00 -0.00000000000E+00 -0.45593999997E+02  0.45594000000E+02  0.51100000000E-03 0.  1.
    9900012    2    1    2    0    0  0.38663782520E+02 -0.14750163631E+01  0.19661152766E+02  0.47787254844E+02  0.19999926134E+02 0.  0.
         12    1    1    2    0    0 -0.38663782520E+02  0.14750163631E+01 -0.19661152766E+02  0.43400745156E+02  0.00000000000E+00 0. -1.
         11    1    3    3    0    0  0.22804021660E+02 -0.63051575119E+01  0.13265891176E+02  0.27124938416E+02  0.51100000000E-03 0.  1.
        -11    1    3    3    0    0  0.44235865489E+01 -0.31000308718E+01  0.35326106091E+01  0.64542735717E+01  0.51100000000E-03 0. -1.
         12    1    3    3    0    0  0.11436174311E+02  0.79301720207E+01  0.28626509805E+01  0.14208042856E+02  0.00000000000E+00 0. -1.
</event>
<event>
 7    1  0.2733256E-010  0.4778726E+02  0.7816164E-02  0.1312668E+00
        -11   -1    0    0    0    0  0.00000000000E+00  0.00000000000E+00  0.45593999997E+02  0.45594000000E+02  0.51100000000E-03 0.  1.
         11   -1    0    0    0    0 -0.00000000000E+00 -0.00000000000E+00 -0.45593999997E+02  0.45594000000E+02  0.51100000000E-03 0. -1.
    9900012    2    1    2    0    0 -0.28972206433E+02  0.14064300441E+02 -0.29093484409E+02  0.47787261210E+02  0.19999955160E+02 0.  0.
         12    1    1    2    0    0  0.28972206433E+02 -0.14064300441E+02  0.29093484409E+02  0.43400738790E+02  0.00000000000E+00 0. -1.
         11    1    3    3    0    0 -0.15646091343E+01  0.15529441900E+01 -0.36592422004E+01  0.42719657235E+01  0.51100000000E-03 0. -1.
        -11    1    3    3    0    0 -0.22409726951E+02  0.16439312641E+02 -0.24577328257E+02  0.37101104116E+02  0.51100000000E-03 0.  1.
         12    1    3    3    0    0 -0.49978703477E+01 -0.39279563899E+01 -0.85691395147E+00  0.64141913702E+01  0.00000000000E+00 0. -1.
</event>
<event>
 7    1  0.2733256E-010  0.4778727E+02  0.7816164E-02  0.1312668E+00
        -11   -1    0    0    0    0  0.00000000000E+00  0.00000000000E+00  0.45593999997E+02  0.45594000000E+02  0.51100000000E-03 0. -1.
         11   -1    0    0    0    0 -0.00000000000E+00 -0.00000000000E+00 -0.45593999997E+02  0.45594000000E+02  0.51100000000E-03 0.  1.
    9900012    2    1    2    0    0  0.19596979688E+02  0.21246984753E+02 -0.32375108809E+02  0.47787266776E+02  0.19999980538E+02 0.  0.
         12    1    1    2    0    0 -0.19596979688E+02 -0.21246984753E+02  0.32375108809E+02  0.43400733224E+02  0.00000000000E+00 0. -1.
         11    1    3    3    0    0  0.15926205125E+01  0.29417615712E+01 -0.10108362011E+02  0.10647506001E+02  0.51100000000E-03 0. -1.
        -11    1    3    3    0    0  0.85166517782E+01  0.88325083112E+01 -0.20114009410E+02  0.23560983328E+02  0.51100000000E-03 0.  1.
         12    1    3    3    0    0  0.94877073976E+01  0.94727148708E+01 -0.21527373876E+01  0.13578777447E+02  0.00000000000E+00 0. -1.
</event>
<event>
 7    1  0.2733256E-010  0.4778727E+02  0.7816164E-02  0.1312668E+00
        -11   -1    0    0    0    0  0.00000000000E+00  0.00000000000E+00  0.45593999997E+02  0.45594000000E+02  0.51100000000E-03 0. -1.
         11   -1    0    0    0    0 -0.00000000000E+00 -0.00000000000E+00 -0.45593999997E+02  0.45594000000E+02  0.51100000000E-03 0.  1.
    9900012    2    1    2    0    0  0.34778651348E+02 -0.12421750011E+02 -0.22798442732E+02  0.47787268970E+02  0.19999990542E+02 0.  0.
         12    1    1    2    0    0 -0.34778651348E+02  0.12421750011E+02  0.22798442732E+02  0.43400731030E+02  0.00000000000E+00 0. -1.
         11    1    3    3    0    0  0.10729532073E+02 -0.48169381002E+00 -0.20984603257E+01  0.10943419183E+02  0.51100000000E-03 0.  1.
        -11    1    3    3    0    0  0.28632631974E+01  0.12023772438E+01 -0.85761457269E+01  0.91210889133E+01  0.51100000000E-03 0. -1.
         12    1    3    3    0    0  0.21185856078E+02 -0.13142433444E+02 -0.12123836680E+02  0.27722760873E+02  0.00000000000E+00 0. -1.
</event>
<event>
 7    1  0.2733256E-010  0.4778728E+02  0.7816164E-02  0.1312668E+00
        -11   -1    0    0    0    0  0.00000000000E+00  0.00000000000E+00  0.45593999997E+02  0.45594000000E+02  0.51100000000E-03 0.  1.
         11   -1    0    0    0    0 -0.00000000000E+00 -0.00000000000E+00 -0.45593999997E+02  0.45594000000E+02  0.51100000000E-03 0. -1.
    9900012    2    1    2    0    0 -0.33485919960E+02  0.27557543575E+02  0.17022536005E+01  0.47787277532E+02  0.20000029579E+02 0.  0.
         12    1    1    2    0    0  0.33485919960E+02 -0.27557543575E+02 -0.17022536005E+01  0.43400722468E+02  0.00000000000E+00 0. -1.
         11    1    3    3    0    0 -0.34539304675E+01  0.10139024071E+02 -0.17205924174E+01  0.10848496823E+02  0.51100000000E-03 0. -1.
        -11    1    3    3    0    0 -0.77499873144E+01  0.46370134129E+01 -0.44549881562E+01  0.10070308660E+02  0.51100000000E-03 0.  1.
         12    1    3    3    0    0 -0.22282002178E+02  0.12781506091E+02  0.78778341742E+01  0.26868472049E+02  0.00000000000E+00 0. -1.
</event>
<event>
 7    1  0.2733256E-010  0.4778727E+02  0.7816164E-02  0.1312668E+00
        -11   -1    0    0    0    0  0.00000000000E+00  0.00000000000E+00  0.45593999997E+02  0.45594000000E+02  0.51100000000E-03 0.  1.
         11   -1    0    0    0    0 -0.00000000000E+00 -0.00000000000E+00 -0.45593999997E+02  0.45594000000E+02  0.51100000000E-03 0. -1.
    9900012    2    1    2    0    0 -0.19336218782E+02 -0.38783298998E+02  0.23642412352E+01  0.47787271036E+02  0.19999999963E+02 0.  0.
         12    1    1    2    0    0  0.19336218782E+02  0.38783298998E+02 -0.23642412352E+01  0.43400728964E+02  0.00000000000E+00 0. -1.
         11    1    3    3    0    0 -0.47040758943E+01 -0.62642851433E+01  0.40127451254E+01  0.88018022062E+01  0.51100000000E-03 0. -1.
        -11    1    3    3    0    0  0.95274366915E+00 -0.24653637753E+01  0.38679241872E+01  0.46847173685E+01  0.51100000000E-03 0.  1.
        -12    1    3    3    0    0 -0.15584886557E+02 -0.30053650080E+02 -0.55164280773E+01  0.34300751462E+02  0.00000000000E+00 0.  1.
</event>
<event>
 7    1  0.2733256E-010  0.4778727E+02  0.7816164E-02  0.1312668E+00
        -11   -1    0    0    0    0  0.00000000000E+00  0.00000000000E+00  0.45593999997E+02  0.45594000000E+02  0.51100000000E-03 0.  1.
         11   -1    0    0    0    0 -0.00000000000E+00 -0.00000000000E+00 -0.45593999997E+02  0.45594000000E+02  0.51100000000E-03 0. -1.
    9900012    2    1    2    0    0 -0.43092385493E+02  0.35751340349E+00  0.51518806721E+01  0.47787269848E+02  0.19999994543E+02 0.  0.
         12    1    1    2    0    0  0.43092385493E+02 -0.35751340349E+00 -0.51518806721E+01  0.43400730152E+02  0.00000000000E+00 0. -1.
         11    1    3    3    0    0 -0.13220314165E+02  0.58223816124E+01  0.27970154579E+01  0.14713943387E+02  0.51100000000E-03 0. -1.
        -11    1    3    3    0    0 -0.19662619267E+02  0.27416523930E+01  0.21917721931E+01  0.19973460388E+02  0.51100000000E-03 0.  1.
        -12    1    3    3    0    0 -0.10209452060E+02 -0.82065206019E+01  0.16309302105E+00  0.13099866072E+02  0.00000000000E+00 0.  1.
</event>
<event>
 7    1  0.2733256E-010  0.4778727E+02  0.7816164E-02  0.1312668E+00
        -11   -1    0    0    0    0  0.00000000000E+00  0.00000000000E+00  0.45593999997E+02  0.45594000000E+02  0.51100000000E-03 0. -1.
         11   -1    0    0    0    0 -0.00000000000E+00 -0.00000000000E+00 -0.45593999997E+02  0.45594000000E+02  0.51100000000E-03 0.  1.
    9900012    2    1    2    0    0 -0.37016112439E+02 -0.13377352535E+02 -0.18288713123E+02  0.47787272257E+02  0.20000005527E+02 0.  0.
         12    1    1    2    0    0  0.37016112439E+02  0.13377352535E+02  0.18288713123E+02  0.43400727743E+02  0.00000000000E+00 0. -1.
         11    1    3    3    0    0 -0.13193337232E+02 -0.12629190254E+02 -0.10014912734E+02  0.20829283980E+02  0.51100000000E-03 0. -1.
        -11    1    3    3    0    0 -0.13819335390E+02 -0.15979910315E+01 -0.94973867259E+01  0.16844226335E+02  0.51100000000E-03 0.  1.
         12    1    3    3    0    0 -0.10003439817E+02  0.84982875067E+00  0.12235863369E+01  0.10113761942E+02  0.00000000000E+00 0. -1.
</event>
<event>
 7    1  0.2733256E-010  0.4778728E+02  0.7816164E-02  0.1312668E+00
        -11   -1    0    0    0    0  0.00000000000E+00  0.00000000000E+00  0.45593999997E+02  0.45594000000E+02  0.51100000000E-03 0.  1.
         11   -1    0    0    0    0 -0.00000000000E+00 -0.00000000000E+00 -0.45593999997E+02  0.45594000000E+02  0.51100000000E-03 0. -1.
    9900012    2    1    2    0    0  0.22950453494E+02  0.45136579978E+01  0.36558533219E+02  0.47787276790E+02  0.20000026195E+02 0.  0.
         12    1    1    2    0    0 -0.22950453494E+02 -0.45136579978E+01 -0.36558533219E+02  0.43400723210E+02  0.00000000000E+00 0. -1.
         11    1    3    3    0    0  0.71537685901E+01 -0.29168671104E-01  0.42438774041E+01  0.83179174999E+01  0.51100000000E-03 0. -1.
        -11    1    3    3    0    0  0.16811430677E+02  0.73857693632E+01  0.31292926747E+02  0.36282517211E+02  0.51100000000E-03 0.  1.
        -12    1    3    3    0    0 -0.10147457740E+01 -0.28429426943E+01  0.10217290678E+01  0.31868420791E+01  0.00000000000E+00 0.  1.
</event>
<event>
 7    1  0.2733256E-010  0.4778729E+02  0.7816164E-02  0.1312668E+00
        -11   -1    0    0    0    0  0.00000000000E+00  0.00000000000E+00  0.45593999997E+02  0.45594000000E+02  0.51100000000E-03 0.  1.
         11   -1    0    0    0    0 -0.00000000000E+00 -0.00000000000E+00 -0.45593999997E+02  0.45594000000E+02  0.51100000000E-03 0. -1.
    9900012    2    1    2    0    0  0.21155768318E+01  0.45558897112E+01  0.43109043729E+02  0.47787292084E+02  0.20000095929E+02 0.  0.
         12    1    1    2    0    0 -0.21155768318E+01 -0.45558897112E+01 -0.43109043729E+02  0.43400707916E+02  0.00000000000E+00 0. -1.
         11    1    3    3    0    0  0.57351197281E+00  0.56172304462E+00  0.13349665835E+02  0.13373781325E+02  0.51100000000E-03 0.  1.
        -11    1    3    3    0    0 -0.39147498912E+01  0.10885953047E+00  0.69107916040E-02  0.39162692870E+01  0.51100000000E-03 0. -1.
         12    1    3    3    0    0  0.54568147501E+01  0.38853071361E+01  0.29752467102E+02  0.30497241472E+02  0.00000000000E+00 0. -1.
</event>
<event>
 7    1  0.2733256E-010  0.4778727E+02  0.7816164E-02  0.1312668E+00
        -11   -1    0    0    0    0  0.00000000000E+00  0.00000000000E+00  0.45593999997E+02  0.45594000000E+02  0.51100000000E-03 0. -1.
         11   -1    0    0    0    0 -0.00000000000E+00 -0.00000000000E+00 -0.45593999997E+02  0.45594000000E+02  0.51100000000E-03 0.  1.
    9900012    2    1    2    0    0  0.29054953173E+02  0.64501329702E+01 -0.31588429762E+02  0.47787269430E+02  0.19999992637E+02 0.  0.
         12    1    1    2    0    0 -0.29054953173E+02 -0.64501329702E+01  0.31588429762E+02  0.43400730570E+02  0.00000000000E+00 0. -1.
         11    1    3    3    0    0  0.43334642705E+01  0.24143909581E+01  0.31582803691E+00  0.49707085906E+01  0.51100000000E-03 0. -1.
        -11    1    3    3    0    0  0.21957300048E+02  0.77983390544E+01 -0.22880906554E+02  0.32656898236E+02  0.51100000000E-03 0.  1.
         12    1    3    3    0    0  0.27641888551E+01 -0.37625970422E+01 -0.90233512444E+01  0.10159662603E+02  0.00000000000E+00 0. -1.
</event>
<event>
 7    1  0.2733256E-010  0.4778727E+02  0.7816164E-02  0.1312668E+00
        -11   -1    0    0    0    0  0.00000000000E+00  0.00000000000E+00  0.45593999997E+02  0.45594000000E+02  0.51100000000E-03 0. -1.
         11   -1    0    0    0    0 -0.00000000000E+00 -0.00000000000E+00 -0.45593999997E+02  0.45594000000E+02  0.51100000000E-03 0.  1.
    9900012    2    1    2    0    0  0.32561325299E+02  0.22714421868E+02 -0.17533916588E+02  0.47787273083E+02  0.20000009294E+02 0.  0.
         12    1    1    2    0    0 -0.32561325299E+02 -0.22714421868E+02  0.17533916588E+02  0.43400726917E+02  0.00000000000E+00 0. -1.
         11    1    3    3    0    0  0.34871540361E+02  0.20988237884E+02 -0.13751353247E+02  0.42960798096E+02  0.51100000000E-03 0. -1.
        -11    1    3    3    0    0 -0.19483552220E+00  0.29877198212E+00 -0.94555245370E+00  0.10105915504E+01  0.51100000000E-03 0.  1.
        -12    1    3    3    0    0 -0.21153795406E+01  0.14274120020E+01 -0.28370108874E+01  0.38158834363E+01  0.00000000000E+00 0.  1.
</event>
<event>
 7    1  0.2733256E-010  0.4778727E+02  0.7816164E-02  0.1312668E+00
        -11   -1    0    0    0    0  0.00000000000E+00  0.00000000000E+00  0.45593999997E+02  0.45594000000E+02  0.51100000000E-03 0.  1.
         11   -1    0    0    0    0 -0.00000000000E+00 -0.00000000000E+00 -0.45593999997E+02  0.45594000000E+02  0.51100000000E-03 0. -1.
    9900012    2    1    2    0    0  0.37661892368E+02 -0.21435438906E+02 -0.23931183948E+01  0.47787271970E+02  0.20000004221E+02 0.  0.
         12    1    1    2    0    0 -0.37661892368E+02  0.21435438906E+02  0.23931183948E+01  0.43400728030E+02  0.00000000000E+00 0. -1.
         11    1    3    3    0    0  0.58451662260E+01  0.13274569283E+01 -0.91353271722E+00  0.60632212885E+01  0.51100000000E-03 0. -1.
        -11    1    3    3    0    0  0.19992558016E+02 -0.54361219370E+01 -0.50576687678E+00  0.20724613341E+02  0.51100000000E-03 0.  1.
         12    1    3    3    0    0  0.11824168126E+02 -0.17326773897E+02 -0.97381880081E+00  0.20999437341E+02  0.00000000000E+00 0. -1.
</event>
<event>
 7    1  0.2733256E-010  0.4778726E+02  0.7816164E-02  0.1312668E+00
        -11   -1    0    0    0    0  0.00000000000E+00  0.00000000000E+00  0.45593999997E+02  0.45594000000E+02  0.51100000000E-03 0.  1.
         11   -1    0    0    0    0 -0.00000000000E+00 -0.00000000000E+00 -0.45593999997E+02  0.45594000000E+02  0.51100000000E-03 0. -1.
    9900012    2    1    2    0    0 -0.36977735018E+02 -0.17409061873E+01  0.22654808652E+02  0.47787262720E+02  0.19999962045E+02 0.  0.
         12    1    1    2    0    0  0.36977735018E+02  0.17409061873E+01 -0.22654808652E+02  0.43400737280E+02  0.00000000000E+00 0. -1.
         11    1    3    3    0    0 -0.31188444199E+02 -0.47771389128E+01  0.94032872679E+01  0.32923576954E+02  0.51100000000E-03 0. -1.
        -11    1    3    3    0    0 -0.15206114660E+01  0.13538572742E+01  0.29259944762E+01  0.35646364029E+01  0.51100000000E-03 0.  1.
         12    1    3    3    0    0 -0.42686793524E+01  0.16823754513E+01  0.10325526908E+02  0.11299049363E+02  0.00000000000E+00 0. -1.
</event>
<event>
 7    1  0.2733256E-010  0.4778727E+02  0.7816164E-02  0.1312668E+00
        -11   -1    0    0    0    0  0.00000000000E+00  0.00000000000E+00  0.45593999997E+02  0.45594000000E+02  0.51100000000E-03 0.  1.
         11   -1    0    0    0    0 -0.00000000000E+00 -0.00000000000E+00 -0.45593999997E+02  0.45594000000E+02  0.51100000000E-03 0. -1.
    9900012    2    1    2    0    0 -0.37548764648E+02  0.21639480245E+02  0.23338004576E+01  0.47787268941E+02  0.19999990410E+02 0.  0.
         12    1    1    2    0    0  0.37548764648E+02 -0.21639480245E+02 -0.23338004576E+01  0.43400731059E+02  0.00000000000E+00 0. -1.
         11    1    3    3    0    0 -0.24465485826E+01  0.10194802008E+02  0.34158310779E+00  0.10489817311E+02  0.51100000000E-03 0. -1.
        -11    1    3    3    0    0 -0.31402441289E+01 -0.33504940692E+00  0.53194063231E+00  0.32025540419E+01  0.51100000000E-03 0.  1.
         12    1    3    3    0    0 -0.31961971937E+02  0.11779727644E+02  0.14602767175E+01  0.34094897588E+02  0.00000000000E+00 0. -1.
</event>
<event>
 7    1  0.2733256E-010  0.4778727E+02  0.7816164E-02  0.1312668E+00
        -11   -1    0    0    0    0  0.00000000000E+00  0.00000000000E+00  0.45593999997E+02  0.45594000000E+02  0.51100000000E-03 0.  1.
         11   -1    0    0    0    0 -0.00000000000E+00 -0.00000000000E+00 -0.45593999997E+02  0.45594000000E+02  0.51100000000E-03 0. -1.
    9900012    2    1    2    0    0 -0.32779797259E+02  0.24281187624E+02  0.14816623853E+02  0.47787268172E+02  0.19999986903E+02 0.  0.
         12    1    1    2    0    0  0.32779797259E+02 -0.24281187624E+02 -0.14816623853E+02  0.43400731828E+02  0.00000000000E+00 0. -1.
         11    1    3    3    0    0 -0.74097209609E-01  0.47286656507E+01  0.10811819171E+01  0.48512600251E+01  0.51100000000E-03 0. -1.
        -11    1    3    3    0    0 -0.64334707680E+01  0.68943245728E+00  0.76612198696E+01  0.10027918697E+02  0.51100000000E-03 0.  1.
         12    1    3    3    0    0 -0.26272229282E+02  0.18863089516E+02  0.60742220662E+01  0.32908089450E+02  0.00000000000E+00 0. -1.
</event>
<event>
 7    1  0.2733256E-010  0.4778727E+02  0.7816164E-02  0.1312668E+00
        -11   -1    0    0    0    0  0.00000000000E+00  0.00000000000E+00  0.45593999997E+02  0.45594000000E+02  0.51100000000E-03 0.  1.
         11   -1    0    0    0    0 -0.00000000000E+00 -0.00000000000E+00 -0.45593999997E+02  0.45594000000E+02  0.51100000000E-03 0. -1.
    9900012    2    1    2    0    0  0.66143496496E+01 -0.33070674378E+02  0.27316736800E+02  0.47787271498E+02  0.20000002069E+02 0.  0.
         12    1    1    2    0    0 -0.66143496496E+01  0.33070674378E+02 -0.27316736800E+02  0.43400728502E+02  0.00000000000E+00 0. -1.
         11    1    3    3    0    0  0.88869408089E+00 -0.18978250017E+02  0.67515049362E+01  0.20163000026E+02  0.51100000000E-03 0.  1.
        -11    1    3    3    0    0  0.37734710071E+01 -0.74959813758E+01  0.32622903912E+01  0.90039635209E+01  0.51100000000E-03 0. -1.
        -12    1    3    3    0    0  0.19521845616E+01 -0.65964429849E+01  0.17302941472E+02  0.18620307952E+02  0.00000000000E+00 0.  1.
</event>
<event>
 7    1  0.2733256E-010  0.4778727E+02  0.7816164E-02  0.1312668E+00
        -11   -1    0    0    0    0  0.00000000000E+00  0.00000000000E+00  0.45593999997E+02  0.45594000000E+02  0.51100000000E-03 0.  1.
         11   -1    0    0    0    0 -0.00000000000E+00 -0.00000000000E+00 -0.45593999997E+02  0.45594000000E+02  0.51100000000E-03 0. -1.
    9900012    2    1    2    0    0  0.33148941946E+02  0.23856031907E+01  0.27912008769E+02  0.47787266271E+02  0.19999978235E+02 0.  0.
         12    1    1    2    0    0 -0.33148941946E+02 -0.23856031907E+01 -0.27912008769E+02  0.43400733729E+02  0.00000000000E+00 0. -1.
         11    1    3    3    0    0  0.81029640486E+01 -0.24749027553E+01  0.29055775819E+01  0.89568717400E+01  0.51100000000E-03 0.  1.
        -11    1    3    3    0    0  0.12346955006E+02  0.36399869456E+01  0.27286742988E+01  0.13158361090E+02  0.51100000000E-03 0. -1.
         12    1    3    3    0    0  0.12699022892E+02  0.12205190004E+01  0.22277756888E+02  0.25672033441E+02  0.00000000000E+00 0. -1.
</event>
<event>
 7    1  0.2733256E-010  0.4778727E+02  0.7816164E-02  0.1312668E+00
        -11   -1    0    0    0    0  0.00000000000E+00  0.00000000000E+00  0.45593999997E+02  0.45594000000E+02  0.51100000000E-03 0. -1.
         11   -1    0    0    0    0 -0.00000000000E+00 -0.00000000000E+00 -0.45593999997E+02  0.45594000000E+02  0.51100000000E-03 0.  1.
    9900012    2    1    2    0    0 -0.10330398108E+02 -0.11755182524E+01 -0.42136976808E+02  0.47787265182E+02  0.19999973271E+02 0.  0.
         12    1    1    2    0    0  0.10330398108E+02  0.11755182524E+01  0.42136976808E+02  0.43400734818E+02  0.00000000000E+00 0. -1.
         11    1    3    3    0    0  0.10788362744E+01  0.24057778710E+00 -0.99879746024E-01  0.11098385483E+01  0.51100000000E-03 0. -1.
        -11    1    3    3    0    0 -0.57638820707E+01  0.21863355842E+01 -0.38713438703E+02  0.39201182843E+02  0.51100000000E-03 0.  1.
        -12    1    3    3    0    0 -0.56453523120E+01 -0.36024316238E+01 -0.33236583586E+01  0.74762437905E+01  0.00000000000E+00 0.  1.
</event>
<event>
 7    1  0.2733256E-010  0.4778727E+02  0.7816164E-02  0.1312668E+00
        -11   -1    0    0    0    0  0.00000000000E+00  0.00000000000E+00  0.45593999997E+02  0.45594000000E+02  0.51100000000E-03 0. -1.
         11   -1    0    0    0    0 -0.00000000000E+00 -0.00000000000E+00 -0.45593999997E+02  0.45594000000E+02  0.51100000000E-03 0.  1.
    9900012    2    1    2    0    0  0.28870277086E+02  0.27392972988E+02 -0.17313443103E+02  0.47787272124E+02  0.20000004922E+02 0.  0.
         12    1    1    2    0    0 -0.28870277086E+02 -0.27392972988E+02  0.17313443103E+02  0.43400727876E+02  0.00000000000E+00 0. -1.
         11    1    3    3    0    0  0.26031850644E+01  0.10100872833E+02 -0.27394939591E+01  0.10784666516E+02  0.51100000000E-03 0. -1.
        -11    1    3    3    0    0  0.21248966129E+02  0.14341021309E+02 -0.16930971977E+02  0.30721999709E+02  0.51100000000E-03 0.  1.
         12    1    3    3    0    0  0.50181258918E+01  0.29510788461E+01  0.23570228329E+01  0.62806058989E+01  0.00000000000E+00 0. -1.
</event>
<event>
 7    1  0.2733256E-010  0.4778728E+02  0.7816164E-02  0.1312668E+00
        -11   -1    0    0    0    0  0.00000000000E+00  0.00000000000E+00  0.45593999997E+02  0.45594000000E+02  0.51100000000E-03 0.  1.
         11   -1    0    0    0    0 -0.00000000000E+00 -0.00000000000E+00 -0.45593999997E+02  0.45594000000E+02  0.51100000000E-03 0. -1.
    9900012    2    1    2    0    0 -0.21224461690E+02  0.35718392298E+02  0.12543571709E+02  0.47787279804E+02  0.20000039936E+02 0.  0.
         12    1    1    2    0    0  0.21224461690E+02 -0.35718392298E+02 -0.12543571709E+02  0.43400720196E+02  0.00000000000E+00 0. -1.
         11    1    3    3    0    0 -0.13773542761E+02  0.20577346650E+02  0.53490460857E+01  0.25332784483E+02  0.51100000000E-03 0.  1.
        -11    1    3    3    0    0 -0.24753879666E+01  0.14606948650E+02  0.15266270089E+01  0.14893659212E+02  0.51100000000E-03 0. -1.
         12    1    3    3    0    0 -0.49755309622E+01  0.53409699723E+00  0.56678986140E+01  0.75608361083E+01  0.00000000000E+00 0. -1.
</event>
<event>
 7    1  0.2733256E-010  0.4778727E+02  0.7816164E-02  0.1312668E+00
        -11   -1    0    0    0    0  0.00000000000E+00  0.00000000000E+00  0.45593999997E+02  0.45594000000E+02  0.51100000000E-03 0.  1.
         11   -1    0    0    0    0 -0.00000000000E+00 -0.00000000000E+00 -0.45593999997E+02  0.45594000000E+02  0.51100000000E-03 0. -1.
    9900012    2    1    2    0    0  0.32892579847E+02  0.28153777257E+02  0.30111053732E+01  0.47787265693E+02  0.19999975602E+02 0.  0.
         12    1    1    2    0    0 -0.32892579847E+02 -0.28153777257E+02 -0.30111053732E+01  0.43400734307E+02  0.00000000000E+00 0. -1.
         11    1    3    3    0    0  0.11212396303E+01  0.12399512863E+01 -0.35995201544E+01  0.39687785405E+01  0.51100000000E-03 0. -1.
        -11    1    3    3    0    0  0.11056847228E+01  0.62082542080E+01  0.12894740615E+01  0.64364355535E+01  0.51100000000E-03 0.  1.
         12    1    3    3    0    0  0.30665655494E+02  0.20705571762E+02  0.53211514661E+01  0.37382051599E+02  0.00000000000E+00 0. -1.
</event>
<event>
 7    1  0.2733256E-010  0.4778727E+02  0.7816164E-02  0.1312668E+00
        -11   -1    0    0    0    0  0.00000000000E+00  0.00000000000E+00  0.45593999997E+02  0.45594000000E+02  0.51100000000E-03 0. -1.
         11   -1    0    0    0    0 -0.00000000000E+00 -0.00000000000E+00 -0.45593999997E+02  0.45594000000E+02  0.51100000000E-03 0.  1.
    9900012    2    1    2    0    0  0.36170193259E+02  0.18200036296E+02  0.15623662976E+02  0.47787273666E+02  0.20000011953E+02 0.  0.
         12    1    1    2    0    0 -0.36170193259E+02 -0.18200036296E+02 -0.15623662976E+02  0.43400726334E+02  0.00000000000E+00 0. -1.
         11    1    3    3    0    0  0.99350766657E+00 -0.11799605786E+01  0.26811680534E+01  0.30932227275E+01  0.51100000000E-03 0. -1.
        -11    1    3    3    0    0  0.33130049687E+02  0.12799955036E+02  0.85805230781E+01  0.36538533328E+02  0.51100000000E-03 0.  1.
        -12    1    3    3    0    0  0.20466359046E+01  0.65800418381E+01  0.43619718448E+01  0.81555176103E+01  0.00000000000E+00 0.  1.
</event>
<event>
 7    1  0.2733256E-010  0.4778727E+02  0.7816164E-02  0.1312668E+00
        -11   -1    0    0    0    0  0.00000000000E+00  0.00000000000E+00  0.45593999997E+02  0.45594000000E+02  0.51100000000E-03 0.  1.
         11   -1    0    0    0    0 -0.00000000000E+00 -0.00000000000E+00 -0.45593999997E+02  0.45594000000E+02  0.51100000000E-03 0. -1.
    9900012    2    1    2    0    0  0.14634290542E+02  0.20471987683E+02  0.35360412538E+02  0.47787268275E+02  0.19999987375E+02 0.  0.
         12    1    1    2    0    0 -0.14634290542E+02 -0.20471987683E+02 -0.35360412538E+02  0.43400731725E+02  0.00000000000E+00 0. -1.
         11    1    3    3    0    0 -0.43423377527E+00  0.47236761361E+00 -0.12502749684E+01  0.14053034874E+01  0.51100000000E-03 0. -1.
        -11    1    3    3    0    0  0.88525837117E+01  0.20294842036E+01  0.84669003264E+01  0.12416740551E+02  0.51100000000E-03 0.  1.
        -12    1    3    3    0    0  0.62159406051E+01  0.17970135866E+02  0.28143787180E+02  0.33965224237E+02  0.00000000000E+00 0.  1.
</event>
<event>
 7    1  0.2733256E-010  0.4778727E+02  0.7816164E-02  0.1312668E+00
        -11   -1    0    0    0    0  0.00000000000E+00  0.00000000000E+00  0.45593999997E+02  0.45594000000E+02  0.51100000000E-03 0.  1.
         11   -1    0    0    0    0 -0.00000000000E+00 -0.00000000000E+00 -0.45593999997E+02  0.45594000000E+02  0.51100000000E-03 0. -1.
    9900012    2    1    2    0    0 -0.39670225521E+02  0.34484287266E+01  0.17262816460E+02  0.47787270908E+02  0.19999999379E+02 0.  0.
         12    1    1    2    0    0  0.39670225521E+02 -0.34484287266E+01 -0.17262816460E+02  0.43400729092E+02  0.00000000000E+00 0. -1.
         11    1    3    3    0    0 -0.90935830637E+01  0.45997638657E+01  0.56770574323E+01  0.11665335911E+02  0.51100000000E-03 0. -1.
        -11    1    3    3    0    0 -0.27359567958E+02  0.18942037374E+01  0.45386567419E+01  0.27798082163E+02  0.51100000000E-03 0.  1.
         12    1    3    3    0    0 -0.32170744985E+01 -0.30455388765E+01  0.70471022862E+01  0.83238528345E+01  0.00000000000E+00 0. -1.
</event>
<event>
 7    1  0.2733256E-010  0.4778726E+02  0.7816164E-02  0.1312668E+00
        -11   -1    0    0    0    0  0.00000000000E+00  0.00000000000E+00  0.45593999997E+02  0.45594000000E+02  0.51100000000E-03 0.  1.
         11   -1    0    0    0    0 -0.00000000000E+00 -0.00000000000E+00 -0.45593999997E+02  0.45594000000E+02  0.51100000000E-03 0. -1.
    9900012    2    1    2    0    0 -0.25488778728E+02 -0.61802590026E+01  0.34579632771E+02  0.47787257553E+02  0.19999938486E+02 0.  0.
         12    1    1    2    0    0  0.25488778728E+02  0.61802590026E+01 -0.34579632771E+02  0.43400742447E+02  0.00000000000E+00 0. -1.
         11    1    3    3    0    0 -0.17817270110E+02 -0.71181741180E+01  0.23315229876E+02  0.30194758840E+02  0.51100000000E-03 0.  1.
        -11    1    3    3    0    0 -0.99587223661E+01  0.23199245004E+01  0.10813259097E+02  0.14882364510E+02  0.51100000000E-03 0. -1.
        -12    1    3    3    0    0  0.22872137483E+01 -0.13820093850E+01  0.45114379755E+00  0.27101342027E+01  0.00000000000E+00 0.  1.
</event>
<event>
 7    1  0.2733256E-010  0.4778727E+02  0.7816164E-02  0.1312668E+00
        -11   -1    0    0    0    0  0.00000000000E+00  0.00000000000E+00  0.45593999997E+02  0.45594000000E+02  0.51100000000E-03 0.  1.
         11   -1    0    0    0    0 -0.00000000000E+00 -0.00000000000E+00 -0.45593999997E+02  0.45594000000E+02  0.51100000000E-03 0. -1.
    9900012    2    1    2    0    0  0.37175481502E+02 -0.20456387228E+02  0.91182757660E+01  0.47787272400E+02  0.20000006179E+02 0.  0.
         12    1    1    2    0    0 -0.37175481502E+02  0.20456387228E+02 -0.91182757660E+01  0.43400727600E+02  0.00000000000E+00 0. -1.
         11    1    3    3    0    0  0.10222564411E+02 -0.39874909553E+01 -0.22476250360E+01  0.11200568102E+02  0.51100000000E-03 0. -1.
        -11    1    3    3    0    0  0.16386111665E+02 -0.15480314581E+01  0.61905006470E+01  0.17584747806E+02  0.51100000000E-03 0.  1.
        -12    1    3    3    0    0  0.10566805426E+02 -0.14920864814E+02  0.51754001551E+01  0.19001956491E+02  0.00000000000E+00 0.  1.
</event>
<event>
 7    1  0.2733256E-010  0.4778727E+02  0.7816164E-02  0.1312668E+00
        -11   -1    0    0    0    0  0.00000000000E+00  0.00000000000E+00  0.45593999997E+02  0.45594000000E+02  0.51100000000E-03 0.  1.
         11   -1    0    0    0    0 -0.00000000000E+00 -0.00000000000E+00 -0.45593999997E+02  0.45594000000E+02  0.51100000000E-03 0. -1.
    9900012    2    1    2    0    0  0.29707986515E+02 -0.23320596236E+02  0.21382444653E+02  0.47787267162E+02  0.19999982297E+02 0.  0.
         12    1    1    2    0    0 -0.29707986515E+02  0.23320596236E+02 -0.21382444653E+02  0.43400732838E+02  0.00000000000E+00 0. -1.
         11    1    3    3    0    0  0.11833899550E+02 -0.61064458696E+00  0.33071867596E+01  0.12302501774E+02  0.51100000000E-03 0. -1.
        -11    1    3    3    0    0 -0.43460417269E+00 -0.11645784290E+01  0.34190797068E+01  0.36380255643E+01  0.51100000000E-03 0.  1.
        -12    1    3    3    0    0  0.18308691138E+02 -0.21545373220E+02  0.14656178186E+02  0.31846739824E+02  0.00000000000E+00 0.  1.
</event>
<event>
 7    1  0.2733256E-010  0.4778727E+02  0.7816164E-02  0.1312668E+00
        -11   -1    0    0    0    0  0.00000000000E+00  0.00000000000E+00  0.45593999997E+02  0.45594000000E+02  0.51100000000E-03 0. -1.
         11   -1    0    0    0    0 -0.00000000000E+00 -0.00000000000E+00 -0.45593999997E+02  0.45594000000E+02  0.51100000000E-03 0.  1.
    9900012    2    1    2    0    0  0.67380562873E+01 -0.11830865262E+02 -0.41209857719E+02  0.47787272488E+02  0.20000006581E+02 0.  0.
         12    1    1    2    0    0 -0.67380562873E+01  0.11830865262E+02  0.41209857719E+02  0.43400727512E+02  0.00000000000E+00 0. -1.
         11    1    3    3    0    0 -0.32318113949E+00 -0.10749042335E+02 -0.15581449837E+02  0.18932193123E+02  0.51100000000E-03 0.  1.
        -11    1    3    3    0    0  0.22068895376E+01 -0.59305329305E+01 -0.13781240099E+02  0.15164569272E+02  0.51100000000E-03 0. -1.
        -12    1    3    3    0    0  0.48543478892E+01  0.48487100036E+01 -0.11847167782E+02  0.13690510092E+02  0.00000000000E+00 0.  1.
</event>
<event>
 7    1  0.2733256E-010  0.4778727E+02  0.7816164E-02  0.1312668E+00
        -11   -1    0    0    0    0  0.00000000000E+00  0.00000000000E+00  0.45593999997E+02  0.45594000000E+02  0.51100000000E-03 0.  1.
         11   -1    0    0    0    0 -0.00000000000E+00 -0.00000000000E+00 -0.45593999997E+02  0.45594000000E+02  0.51100000000E-03 0. -1.
    9900012    2    1    2    0    0 -0.24888023652E+02  0.35457106773E+02 -0.26463445680E+01  0.47787270956E+02  0.19999999595E+02 0.  0.
         12    1    1    2    0    0  0.24888023652E+02 -0.35457106773E+02  0.26463445680E+01  0.43400729044E+02  0.00000000000E+00 0. -1.
         11    1    3    3    0    0 -0.30436677206E+01  0.37064977108E+01 -0.56682259804E+01  0.74250134343E+01  0.51100000000E-03 0. -1.
        -11    1    3    3    0    0 -0.52893527780E+01  0.76185298006E+01 -0.42583804501E+01  0.10205540331E+02  0.51100000000E-03 0.  1.
         12    1    3    3    0    0 -0.16555003154E+02  0.24132079261E+02  0.72802618625E+01  0.30156717190E+02  0.00000000000E+00 0. -1.
</event>
<event>
 7    1  0.2733256E-010  0.4778727E+02  0.7816164E-02  0.1312668E+00
        -11   -1    0    0    0    0  0.00000000000E+00  0.00000000000E+00  0.45593999997E+02  0.45594000000E+02  0.51100000000E-03 0.  1.
         11   -1    0    0    0    0 -0.00000000000E+00 -0.00000000000E+00 -0.45593999997E+02  0.45594000000E+02  0.51100000000E-03 0. -1.
    9900012    2    1    2    0    0  0.42380023469E+02 -0.91566422639E+01 -0.19268707062E+01  0.47787270542E+02  0.19999997707E+02 0.  0.
         12    1    1    2    0    0 -0.42380023469E+02  0.91566422639E+01  0.19268707062E+01  0.43400729458E+02  0.00000000000E+00 0. -1.
         11    1    3    3    0    0  0.15562574429E+02 -0.57804909765E+01  0.24378729551E+01  0.16779482221E+02  0.51100000000E-03 0. -1.
        -11    1    3    3    0    0  0.12578711080E+02 -0.56843486541E+01  0.39510522775E+01  0.14357806463E+02  0.51100000000E-03 0.  1.
         12    1    3    3    0    0  0.14238737960E+02  0.23081973667E+01 -0.83157959388E+01  0.16649981858E+02  0.00000000000E+00 0. -1.
</event>
<event>
 7    1  0.2733256E-010  0.4778727E+02  0.7816164E-02  0.1312668E+00
        -11   -1    0    0    0    0  0.00000000000E+00  0.00000000000E+00  0.45593999997E+02  0.45594000000E+02  0.51100000000E-03 0.  1.
         11   -1    0    0    0    0 -0.00000000000E+00 -0.00000000000E+00 -0.45593999997E+02  0.45594000000E+02  0.51100000000E-03 0. -1.
    9900012    2    1    2    0    0 -0.26635573352E+02  0.13781820174E+02  0.31372458752E+02  0.47787268402E+02  0.19999987953E+02 0.  0.
         12    1    1    2    0    0  0.26635573352E+02 -0.13781820174E+02 -0.31372458752E+02  0.43400731598E+02  0.00000000000E+00 0. -1.
         11    1    3    3    0    0 -0.52928331829E+01  0.71900296681E-01  0.27717518265E+00  0.53005734687E+01  0.51100000000E-03 0. -1.
        -11    1    3    3    0    0 -0.21454040642E-01 -0.15220360471E+01  0.60525613234E+01  0.62410378015E+01  0.51100000000E-03 0.  1.
        -12    1    3    3    0    0 -0.21321286129E+02  0.15231955924E+02  0.25042722245E+02  0.36245657132E+02  0.00000000000E+00 0.  1.
</event>
<event>
 7    1  0.2733256E-010  0.4778727E+02  0.7816164E-02  0.1312668E+00
        -11   -1    0    0    0    0  0.00000000000E+00  0.00000000000E+00  0.45593999997E+02  0.45594000000E+02  0.51100000000E-03 0. -1.
         11   -1    0    0    0    0 -0.00000000000E+00 -0.00000000000E+00 -0.45593999997E+02  0.45594000000E+02  0.51100000000E-03 0.  1.
    9900012    2    1    2    0    0 -0.40846810666E+02  0.10972957769E+02 -0.97342565835E+01  0.47787268497E+02  0.19999988384E+02 0.  0.
         12    1    1    2    0    0  0.40846810666E+02 -0.10972957769E+02  0.97342565835E+01  0.43400731503E+02  0.00000000000E+00 0. -1.
         11    1    3    3    0    0 -0.95405021049E+01  0.30438246710E+01 -0.20871870446E+01  0.10229486745E+02  0.51100000000E-03 0. -1.
        -11    1    3    3    0    0 -0.15250171938E+02 -0.43839104969E+01 -0.69193568628E+01  0.17310803420E+02  0.51100000000E-03 0.  1.
         12    1    3    3    0    0 -0.16056136623E+02  0.12313043595E+02 -0.72771267623E+00  0.20246978332E+02  0.00000000000E+00 0. -1.
</event>
<event>
 7    1  0.2733256E-010  0.4778734E+02  0.7816164E-02  0.1312667E+00
        -11   -1    0    0    0    0  0.00000000000E+00  0.00000000000E+00  0.45593999997E+02  0.45594000000E+02  0.51100000000E-03 0.  1.
         11   -1    0    0    0    0 -0.00000000000E+00 -0.00000000000E+00 -0.45593999997E+02  0.45594000000E+02  0.51100000000E-03 0. -1.
    9900012    2    1    2    0    0  0.25701093541E+02  0.23372256412E+02  0.26015555205E+02  0.47787335356E+02  0.20000293218E+02 0.  0.
         12    1    1    2    0    0 -0.25701093541E+02 -0.23372256412E+02 -0.26015555205E+02  0.43400664644E+02  0.00000000000E+00 0. -1.
         11    1    3    3    0    0  0.91861970782E+01  0.56933072418E+01  0.12655993193E+02  0.16642539712E+02  0.51100000000E-03 0. -1.
        -11    1    3    3    0    0  0.20828612821E+01  0.10089306268E+02  0.10273846669E+02  0.14549375854E+02  0.51100000000E-03 0.  1.
         12    1    3    3    0    0  0.14432035180E+02  0.75896429015E+01  0.30857153429E+01  0.16595419790E+02  0.00000000000E+00 0. -1.
</event>
<event>
 7    1  0.2733256E-010  0.4778728E+02  0.7816164E-02  0.1312668E+00
        -11   -1    0    0    0    0  0.00000000000E+00  0.00000000000E+00  0.45593999997E+02  0.45594000000E+02  0.51100000000E-03 0. -1.
         11   -1    0    0    0    0 -0.00000000000E+00 -0.00000000000E+00 -0.45593999997E+02  0.45594000000E+02  0.51100000000E-03 0.  1.
    9900012    2    1    2    0    0  0.20115364431E+02  0.30944737608E+02 -0.22834577542E+02  0.47787278769E+02  0.20000035221E+02 0.  0.
         12    1    1    2    0    0 -0.20115364431E+02 -0.30944737608E+02  0.22834577542E+02  0.43400721231E+02  0.00000000000E+00 0. -1.
         11    1    3    3    0    0 -0.34649547222E-01  0.36507073713E+01 -0.41919961544E+00  0.36748596546E+01  0.51100000000E-03 0. -1.
        -11    1    3    3    0    0  0.22859528714E+02  0.20998497542E+02 -0.19549791794E+02  0.36683638199E+02  0.51100000000E-03 0.  1.
        -12    1    3    3    0    0 -0.27095147356E+01  0.62955326955E+01 -0.28655861319E+01  0.74287809163E+01  0.00000000000E+00 0.  1.
</event>
<event>
 7    1  0.2733256E-010  0.4778727E+02  0.7816164E-02  0.1312668E+00
        -11   -1    0    0    0    0  0.00000000000E+00  0.00000000000E+00  0.45593999997E+02  0.45594000000E+02  0.51100000000E-03 0. -1.
         11   -1    0    0    0    0 -0.00000000000E+00 -0.00000000000E+00 -0.45593999997E+02  0.45594000000E+02  0.51100000000E-03 0.  1.
    9900012    2    1    2    0    0 -0.27334312206E+01 -0.18197423334E+02 -0.39306561634E+02  0.47787266714E+02  0.19999980256E+02 0.  0.
         12    1    1    2    0    0  0.27334312206E+01  0.18197423334E+02  0.39306561634E+02  0.43400733286E+02  0.00000000000E+00 0. -1.
         11    1    3    3    0    0  0.12653569376E+01  0.19980455860E+01 -0.18794422104E+01  0.30208637220E+01  0.51100000000E-03 0. -1.
        -11    1    3    3    0    0 -0.10946335662E+01  0.79120368222E+00 -0.10091935849E+02  0.10181915112E+02  0.51100000000E-03 0.  1.
         12    1    3    3    0    0 -0.29041545921E+01 -0.20986672603E+02 -0.27335183575E+02  0.34584487880E+02  0.00000000000E+00 0. -1.
</event>
<event>
 7    1  0.2733256E-010  0.4778727E+02  0.7816164E-02  0.1312668E+00
        -11   -1    0    0    0    0  0.00000000000E+00  0.00000000000E+00  0.45593999997E+02  0.45594000000E+02  0.51100000000E-03 0.  1.
         11   -1    0    0    0    0 -0.00000000000E+00 -0.00000000000E+00 -0.45593999997E+02  0.45594000000E+02  0.51100000000E-03 0. -1.
    9900012    2    1    2    0    0  0.26260320800E+01  0.32289280554E+01  0.43200709672E+02  0.47787270317E+02  0.19999996681E+02 0.  0.
         12    1    1    2    0    0 -0.26260320800E+01 -0.32289280554E+01 -0.43200709672E+02  0.43400729683E+02  0.00000000000E+00 0. -1.
         11    1    3    3    0    0  0.18938328041E+01 -0.22703703278E+01  0.76500550781E+01  0.82014954170E+01  0.51100000000E-03 0. -1.
        -11    1    3    3    0    0 -0.41961595844E+01 -0.36869461817E+01  0.20706818608E+02  0.21446996631E+02  0.51100000000E-03 0.  1.
         12    1    3    3    0    0  0.49283588603E+01  0.91862445649E+01  0.14843835987E+02  0.18138778268E+02  0.00000000000E+00 0. -1.
</event>
<event>
 7    1  0.2733256E-010  0.4778727E+02  0.7816164E-02  0.1312668E+00
        -11   -1    0    0    0    0  0.00000000000E+00  0.00000000000E+00  0.45593999997E+02  0.45594000000E+02  0.51100000000E-03 0. -1.
         11   -1    0    0    0    0 -0.00000000000E+00 -0.00000000000E+00 -0.45593999997E+02  0.45594000000E+02  0.51100000000E-03 0.  1.
    9900012    2    1    2    0    0 -0.13980835734E+02  0.16960875585E+02 -0.37423096279E+02  0.47787271855E+02  0.20000003694E+02 0.  0.
         12    1    1    2    0    0  0.13980835734E+02 -0.16960875585E+02  0.37423096279E+02  0.43400728145E+02  0.00000000000E+00 0. -1.
         11    1    3    3    0    0  0.16905807268E+01  0.10267253292E+02 -0.17088191298E+02  0.20007019655E+02  0.51100000000E-03 0.  1.
        -11    1    3    3    0    0 -0.84089699406E-01 -0.13648954275E+01 -0.17421939024E+01  0.22147800027E+01  0.51100000000E-03 0. -1.
        -12    1    3    3    0    0 -0.15587326761E+02  0.80585177206E+01 -0.18592711079E+02  0.25565472197E+02  0.00000000000E+00 0.  1.
</event>
<event>
 7    1  0.2733256E-010  0.4778728E+02  0.7816164E-02  0.1312668E+00
        -11   -1    0    0    0    0  0.00000000000E+00  0.00000000000E+00  0.45593999997E+02  0.45594000000E+02  0.51100000000E-03 0. -1.
         11   -1    0    0    0    0 -0.00000000000E+00 -0.00000000000E+00 -0.45593999997E+02  0.45594000000E+02  0.51100000000E-03 0.  1.
    9900012    2    1    2    0    0  0.15299791191E+01 -0.71315079204E+01 -0.42783442236E+02  0.47787283752E+02  0.20000057938E+02 0.  0.
         12    1    1    2    0    0 -0.15299791191E+01  0.71315079204E+01  0.42783442236E+02  0.43400716248E+02  0.00000000000E+00 0. -1.
         11    1    3    3    0    0 -0.15674627855E+01 -0.70269617274E+01 -0.49604100795E+01  0.87430428982E+01  0.51100000000E-03 0. -1.
        -11    1    3    3    0    0 -0.10501567717E+01 -0.37596699599E+01 -0.20225718883E+02  0.20598972111E+02  0.51100000000E-03 0.  1.
        -12    1    3    3    0    0  0.41475986763E+01  0.36551237669E+01 -0.17597313274E+02  0.18445268742E+02  0.00000000000E+00 0.  1.
</event>
<event>
 7    1  0.2733256E-010  0.4778727E+02  0.7816164E-02  0.1312668E+00
        -11   -1    0    0    0    0  0.00000000000E+00  0.00000000000E+00  0.45593999997E+02  0.45594000000E+02  0.51100000000E-03 0. -1.
         11   -1    0    0    0    0 -0.00000000000E+00 -0.00000000000E+00 -0.45593999997E+02  0.45594000000E+02  0.51100000000E-03 0.  1.
    9900012    2    1    2    0    0  0.41888485403E+02 -0.11112875489E+02 -0.23413921780E+01  0.47787270417E+02  0.19999997138E+02 0.  0.
         12    1    1    2    0    0 -0.41888485403E+02  0.11112875489E+02  0.23413921780E+01  0.43400729583E+02  0.00000000000E+00 0. -1.
         11    1    3    3    0    0  0.28002369814E+01 -0.33684360868E+01  0.10892778719E+01  0.45137806068E+01  0.51100000000E-03 0. -1.
        -11    1    3    3    0    0  0.17867740824E+02 -0.91785350224E+00 -0.93809017702E+01  0.20201483497E+02  0.51100000000E-03 0.  1.
        -12    1    3    3    0    0  0.21220507598E+02 -0.68265859004E+01  0.59502317203E+01  0.23072006312E+02  0.00000000000E+00 0.  1.
</event>
<event>
 7    1  0.2733256E-010  0.4778731E+02  0.7816164E-02  0.1312668E+00
        -11   -1    0    0    0    0  0.00000000000E+00  0.00000000000E+00  0.45593999997E+02  0.45594000000E+02  0.51100000000E-03 0.  1.
         11   -1    0    0    0    0 -0.00000000000E+00 -0.00000000000E+00 -0.45593999997E+02  0.45594000000E+02  0.51100000000E-03 0. -1.
    9900012    2    1    2    0    0 -0.67371632071E+01  0.30662135785E+02  0.29967708732E+02  0.47787314457E+02  0.20000197934E+02 0.  0.
         12    1    1    2    0    0  0.67371632071E+01 -0.30662135785E+02 -0.29967708732E+02  0.43400685543E+02  0.00000000000E+00 0. -1.
         11    1    3    3    0    0 -0.14501028556E+01  0.12007695252E+02  0.19931394798E+01  0.12258064643E+02  0.51100000000E-03 0. -1.
        -11    1    3    3    0    0 -0.37383777091E+01  0.74027734510E+01  0.44622964758E+01  0.94174631808E+01  0.51100000000E-03 0.  1.
        -12    1    3    3    0    0 -0.15486826424E+01  0.11251667082E+02  0.23512272777E+02  0.26111786633E+02  0.00000000000E+00 0.  1.
</event>
<event>
 7    1  0.2733256E-010  0.4778727E+02  0.7816164E-02  0.1312668E+00
        -11   -1    0    0    0    0  0.00000000000E+00  0.00000000000E+00  0.45593999997E+02  0.45594000000E+02  0.51100000000E-03 0. -1.
         11   -1    0    0    0    0 -0.00000000000E+00 -0.00000000000E+00 -0.45593999997E+02  0.45594000000E+02  0.51100000000E-03 0.  1.
    9900012    2    1    2    0    0 -0.66086170429E+01 -0.36657933982E+02 -0.22274321034E+02  0.47787270506E+02  0.19999997547E+02 0.  0.
         12    1    1    2    0    0  0.66086170429E+01  0.36657933982E+02  0.22274321034E+02  0.43400729494E+02  0.00000000000E+00 0. -1.
         11    1    3    3    0    0 -0.26858613699E+01 -0.23895899904E+01 -0.26410259055E+01  0.44608306082E+01  0.51100000000E-03 0.  1.
        -11    1    3    3    0    0 -0.92281316989E+01 -0.15077530781E+02 -0.14236560480E+02  0.22697356756E+02  0.51100000000E-03 0. -1.
         12    1    3    3    0    0  0.53053760259E+01 -0.19190813210E+02 -0.53967346485E+01  0.20629083143E+02  0.00000000000E+00 0. -1.
</event>
<event>
 7    1  0.2733256E-010  0.4778727E+02  0.7816164E-02  0.1312668E+00
        -11   -1    0    0    0    0  0.00000000000E+00  0.00000000000E+00  0.45593999997E+02  0.45594000000E+02  0.51100000000E-03 0. -1.
         11   -1    0    0    0    0 -0.00000000000E+00 -0.00000000000E+00 -0.45593999997E+02  0.45594000000E+02  0.51100000000E-03 0.  1.
    9900012    2    1    2    0    0  0.19599902390E+02  0.79500462959E+01 -0.37898071718E+02  0.47787271322E+02  0.20000001266E+02 0.  0.
         12    1    1    2    0    0 -0.19599902390E+02 -0.79500462959E+01  0.37898071718E+02  0.43400728678E+02  0.00000000000E+00 0. -1.
         11    1    3    3    0    0 -0.31657479179E+01  0.15291764635E+01 -0.44166329762E+01  0.56450852645E+01  0.51100000000E-03 0. -1.
        -11    1    3    3    0    0  0.17637517596E+01  0.30592292989E+01 -0.92451816828E+01  0.98966200686E+01  0.51100000000E-03 0.  1.
        -12    1    3    3    0    0  0.21001898549E+02  0.33616405335E+01 -0.24236257059E+02  0.32245565989E+02  0.00000000000E+00 0.  1.
</event>
<event>
 7    1  0.2733256E-010  0.4778729E+02  0.7816164E-02  0.1312668E+00
        -11   -1    0    0    0    0  0.00000000000E+00  0.00000000000E+00  0.45593999997E+02  0.45594000000E+02  0.51100000000E-03 0.  1.
         11   -1    0    0    0    0 -0.00000000000E+00 -0.00000000000E+00 -0.45593999997E+02  0.45594000000E+02  0.51100000000E-03 0. -1.
    9900012    2    1    2    0    0  0.18052644750E+02 -0.94903463856E+01  0.38310014379E+02  0.47787287348E+02  0.20000074333E+02 0.  0.
         12    1    1    2    0    0 -0.18052644750E+02  0.94903463856E+01 -0.38310014379E+02  0.43400712652E+02  0.00000000000E+00 0. -1.
         11    1    3    3    0    0  0.72102874278E+01  0.86966406683E-02  0.16222182902E+02  0.17752395297E+02  0.51100000000E-03 0. -1.
        -11    1    3    3    0    0  0.72320809993E+01  0.26243704388E+01  0.79137859163E+01  0.11037133848E+02  0.51100000000E-03 0.  1.
         12    1    3    3    0    0  0.36102763225E+01 -0.12123413465E+02  0.14174045561E+02  0.18997758203E+02  0.00000000000E+00 0. -1.
</event>
<event>
 7    1  0.2733256E-010  0.4778731E+02  0.7816164E-02  0.1312668E+00
        -11   -1    0    0    0    0  0.00000000000E+00  0.00000000000E+00  0.45593999997E+02  0.45594000000E+02  0.51100000000E-03 0.  1.
         11   -1    0    0    0    0 -0.00000000000E+00 -0.00000000000E+00 -0.45593999997E+02  0.45594000000E+02  0.51100000000E-03 0. -1.
    9900012    2    1    2    0    0 -0.31028674248E+01 -0.43012162965E+02 -0.48934498118E+01  0.47787311062E+02  0.20000182457E+02 0.  0.
         12    1    1    2    0    0  0.31028674248E+01  0.43012162965E+02  0.48934498118E+01  0.43400688938E+02  0.00000000000E+00 0. -1.
         11    1    3    3    0    0 -0.47321866946E+00 -0.20997062098E+02  0.20229123488E+01  0.21099590690E+02  0.51100000000E-03 0. -1.
        -11    1    3    3    0    0  0.18752699035E+01 -0.14879627773E+02  0.11142746326E+01  0.15038669093E+02  0.51100000000E-03 0.  1.
         12    1    3    3    0    0 -0.45049186589E+01 -0.71354730942E+01 -0.80306367933E+01  0.11649051279E+02  0.00000000000E+00 0. -1.
</event>
<event>
 7    1  0.2733256E-010  0.4778727E+02  0.7816164E-02  0.1312668E+00
        -11   -1    0    0    0    0  0.00000000000E+00  0.00000000000E+00  0.45593999997E+02  0.45594000000E+02  0.51100000000E-03 0.  1.
         11   -1    0    0    0    0 -0.00000000000E+00 -0.00000000000E+00 -0.45593999997E+02  0.45594000000E+02  0.51100000000E-03 0. -1.
    9900012    2    1    2    0    0  0.20908617753E+02  0.15980636822E+02  0.34511920224E+02  0.47787266284E+02  0.19999978294E+02 0.  0.
         12    1    1    2    0    0 -0.20908617753E+02 -0.15980636822E+02 -0.34511920224E+02  0.43400733716E+02  0.00000000000E+00 0. -1.
         11    1    3    3    0    0  0.59687547973E+01  0.61147294903E+00  0.16247739061E+02  0.17320189313E+02  0.51100000000E-03 0. -1.
        -11    1    3    3    0    0  0.46737874254E+01  0.89194752228E+01  0.14721646848E+02  0.17836149061E+02  0.51100000000E-03 0.  1.
         12    1    3    3    0    0  0.10266075530E+02  0.64496886503E+01  0.35425343150E+01  0.12630927909E+02  0.00000000000E+00 0. -1.
</event>
<event>
 7    1  0.2733256E-010  0.4778726E+02  0.7816164E-02  0.1312668E+00
        -11   -1    0    0    0    0  0.00000000000E+00  0.00000000000E+00  0.45593999997E+02  0.45594000000E+02  0.51100000000E-03 0. -1.
         11   -1    0    0    0    0 -0.00000000000E+00 -0.00000000000E+00 -0.45593999997E+02  0.45594000000E+02  0.51100000000E-03 0.  1.
    9900012    2    1    2    0    0 -0.62649561536E+00 -0.33992680281E+02 -0.26976455804E+02  0.47787262942E+02  0.19999963056E+02 0.  0.
         12    1    1    2    0    0  0.62649561536E+00  0.33992680281E+02  0.26976455804E+02  0.43400737058E+02  0.00000000000E+00 0. -1.
         11    1    3    3    0    0 -0.16818697311E+01 -0.94488593477E+01 -0.13136774558E+02  0.16269126431E+02  0.51100000000E-03 0. -1.
        -11    1    3    3    0    0  0.82184466535E+00 -0.11524548916E+02 -0.14427391788E+02  0.18483514017E+02  0.51100000000E-03 0.  1.
         12    1    3    3    0    0  0.23352945040E+00 -0.13019272018E+02  0.58771054137E+00  0.13034622494E+02  0.00000000000E+00 0. -1.
</event>
<event>
 7    1  0.2733256E-010  0.4778727E+02  0.7816164E-02  0.1312668E+00
        -11   -1    0    0    0    0  0.00000000000E+00  0.00000000000E+00  0.45593999997E+02  0.45594000000E+02  0.51100000000E-03 0. -1.
         11   -1    0    0    0    0 -0.00000000000E+00 -0.00000000000E+00 -0.45593999997E+02  0.45594000000E+02  0.51100000000E-03 0.  1.
    9900012    2    1    2    0    0 -0.32112866321E+02  0.27508733431E+02 -0.97804151458E+01  0.47787272831E+02  0.20000008148E+02 0.  0.
         12    1    1    2    0    0  0.32112866321E+02 -0.27508733431E+02  0.97804151458E+01  0.43400727169E+02  0.00000000000E+00 0. -1.
         11    1    3    3    0    0  0.17843081774E+00  0.55167622542E+01 -0.54069911686E+01  0.77267106252E+01  0.51100000000E-03 0.  1.
        -11    1    3    3    0    0 -0.11048917930E+02  0.11872850073E+02 -0.29781747712E+01  0.16489775059E+02  0.51100000000E-03 0. -1.
        -12    1    3    3    0    0 -0.21242379210E+02  0.10119121103E+02 -0.13952492060E+01  0.23570787147E+02  0.00000000000E+00 0.  1.
</event>
<event>
 7    1  0.2733256E-010  0.4778727E+02  0.7816164E-02  0.1312668E+00
        -11   -1    0    0    0    0  0.00000000000E+00  0.00000000000E+00  0.45593999997E+02  0.45594000000E+02  0.51100000000E-03 0.  1.
         11   -1    0    0    0    0 -0.00000000000E+00 -0.00000000000E+00 -0.45593999997E+02  0.45594000000E+02  0.51100000000E-03 0. -1.
    9900012    2    1    2    0    0  0.41212627531E+02 -0.36601039497E+01  0.13105203869E+02  0.47787269622E+02  0.19999993514E+02 0.  0.
         12    1    1    2    0    0 -0.41212627531E+02  0.36601039497E+01 -0.13105203869E+02  0.43400730378E+02  0.00000000000E+00 0. -1.
         11    1    3    3    0    0  0.16552661183E+02 -0.57794424129E+01  0.14594241581E+02  0.22811936227E+02  0.51100000000E-03 0. -1.
        -11    1    3    3    0    0  0.48596458175E+01 -0.76931550477E+00 -0.37450162034E+00  0.49343951546E+01  0.51100000000E-03 0.  1.
         12    1    3    3    0    0  0.19800320530E+02  0.28886539680E+01 -0.11145360921E+01  0.20040938240E+02  0.00000000000E+00 0. -1.
</event>
<event>
 7    1  0.2733256E-010  0.4778727E+02  0.7816164E-02  0.1312668E+00
        -11   -1    0    0    0    0  0.00000000000E+00  0.00000000000E+00  0.45593999997E+02  0.45594000000E+02  0.51100000000E-03 0.  1.
         11   -1    0    0    0    0 -0.00000000000E+00 -0.00000000000E+00 -0.45593999997E+02  0.45594000000E+02  0.51100000000E-03 0. -1.
    9900012    2    1    2    0    0 -0.14457715684E+02 -0.40688167346E+02  0.43670090593E+01  0.47787271056E+02  0.20000000053E+02 0.  0.
         12    1    1    2    0    0  0.14457715684E+02  0.40688167346E+02 -0.43670090593E+01  0.43400728944E+02  0.00000000000E+00 0. -1.
         11    1    3    3    0    0 -0.12760396827E+02 -0.13392228129E+02  0.16241594765E+01  0.18569259428E+02  0.51100000000E-03 0. -1.
        -11    1    3    3    0    0 -0.48582782441E+00 -0.61546387058E+01  0.49693777404E+01  0.79252963139E+01  0.51100000000E-03 0.  1.
         12    1    3    3    0    0 -0.12114910324E+01 -0.21141300511E+02 -0.22265281576E+01  0.21292715315E+02  0.00000000000E+00 0. -1.
</event>
<event>
 7    1  0.2733256E-010  0.4778727E+02  0.7816164E-02  0.1312668E+00
        -11   -1    0    0    0    0  0.00000000000E+00  0.00000000000E+00  0.45593999997E+02  0.45594000000E+02  0.51100000000E-03 0.  1.
         11   -1    0    0    0    0 -0.00000000000E+00 -0.00000000000E+00 -0.45593999997E+02  0.45594000000E+02  0.51100000000E-03 0. -1.
    9900012    2    1    2    0    0  0.14255337406E+02 -0.37127733355E+02  0.17376415028E+02  0.47787273879E+02  0.20000012922E+02 0.  0.
         12    1    1    2    0    0 -0.14255337406E+02  0.37127733355E+02 -0.17376415028E+02  0.43400726121E+02  0.00000000000E+00 0. -1.
         11    1    3    3    0    0  0.99455833135E+00 -0.83602314182E+01  0.99952027183E+01  0.13068538299E+02  0.51100000000E-03 0. -1.
        -11    1    3    3    0    0  0.35572543186E+01 -0.18357095742E+02  0.82993563293E+01  0.20457671864E+02  0.51100000000E-03 0.  1.
        -12    1    3    3    0    0  0.97035247565E+01 -0.10410406195E+02 -0.91814402009E+00  0.14261063715E+02  0.00000000000E+00 0.  1.
</event>
<event>
 7    1  0.2733256E-010  0.4778727E+02  0.7816164E-02  0.1312668E+00
        -11   -1    0    0    0    0  0.00000000000E+00  0.00000000000E+00  0.45593999997E+02  0.45594000000E+02  0.51100000000E-03 0.  1.
         11   -1    0    0    0    0 -0.00000000000E+00 -0.00000000000E+00 -0.45593999997E+02  0.45594000000E+02  0.51100000000E-03 0. -1.
    9900012    2    1    2    0    0 -0.20915883684E+02 -0.11563141415E+02  0.36227653103E+02  0.47787270986E+02  0.19999999733E+02 0.  0.
         12    1    1    2    0    0  0.20915883684E+02  0.11563141415E+02 -0.36227653103E+02  0.43400729014E+02  0.00000000000E+00 0. -1.
         11    1    3    3    0    0 -0.43392788963E+01 -0.45776080376E+01  0.83240081820E+01  0.10443799556E+02  0.51100000000E-03 0. -1.
        -11    1    3    3    0    0 -0.19032184090E+02 -0.33588032480E+01  0.17566782005E+02  0.26116994865E+02  0.51100000000E-03 0.  1.
         12    1    3    3    0    0  0.24555793027E+01 -0.36267301291E+01  0.10336862915E+02  0.11226476565E+02  0.00000000000E+00 0. -1.
</event>
<event>
 7    1  0.2733256E-010  0.4778727E+02  0.7816164E-02  0.1312668E+00
        -11   -1    0    0    0    0  0.00000000000E+00  0.00000000000E+00  0.45593999997E+02  0.45594000000E+02  0.51100000000E-03 0.  1.
         11   -1    0    0    0    0 -0.00000000000E+00 -0.00000000000E+00 -0.45593999997E+02  0.45594000000E+02  0.51100000000E-03 0. -1.
    9900012    2    1    2    0    0  0.37862249547E+02  0.16835564796E+02  0.12908808422E+02  0.47787268237E+02  0.19999987198E+02 0.  0.
         12    1    1    2    0    0 -0.37862249547E+02 -0.16835564796E+02 -0.12908808422E+02  0.43400731763E+02  0.00000000000E+00 0. -1.
         11    1    3    3    0    0  0.13170689263E+02  0.61399558889E+01  0.94021700582E+00  0.14561940882E+02  0.51100000000E-03 0. -1.
        -11    1    3    3    0    0  0.18814990201E+01  0.77624353367E+01  0.34502049817E+01  0.87005376614E+01  0.51100000000E-03 0.  1.
         12    1    3    3    0    0  0.22810061263E+02  0.29331735704E+01  0.85183864344E+01  0.24524789693E+02  0.00000000000E+00 0. -1.
</event>
<event>
 7    1  0.2733256E-010  0.4778726E+02  0.7816164E-02  0.1312668E+00
        -11   -1    0    0    0    0  0.00000000000E+00  0.00000000000E+00  0.45593999997E+02  0.45594000000E+02  0.51100000000E-03 0. -1.
         11   -1    0    0    0    0 -0.00000000000E+00 -0.00000000000E+00 -0.45593999997E+02  0.45594000000E+02  0.51100000000E-03 0.  1.
    9900012    2    1    2    0    0 -0.18666084658E+01 -0.26689878942E+02 -0.34172942366E+02  0.47787264348E+02  0.19999969470E+02 0.  0.
         12    1    1    2    0    0  0.18666084658E+01  0.26689878942E+02  0.34172942366E+02  0.43400735652E+02  0.00000000000E+00 0. -1.
         11    1    3    3    0    0 -0.11782221354E+01 -0.20512884245E+02 -0.22044709640E+02  0.30135292446E+02  0.51100000000E-03 0. -1.
        -11    1    3    3    0    0 -0.46675678551E+01 -0.48720278621E+01 -0.11615641201E+02  0.13433017752E+02  0.51100000000E-03 0.  1.
         12    1    3    3    0    0  0.39791815247E+01 -0.13049668351E+01 -0.51259152614E+00  0.42189541500E+01  0.00000000000E+00 0. -1.
</event>
<event>
 7    1  0.2733256E-010  0.4778727E+02  0.7816164E-02  0.1312668E+00
        -11   -1    0    0    0    0  0.00000000000E+00  0.00000000000E+00  0.45593999997E+02  0.45594000000E+02  0.51100000000E-03 0.  1.
         11   -1    0    0    0    0 -0.00000000000E+00 -0.00000000000E+00 -0.45593999997E+02  0.45594000000E+02  0.51100000000E-03 0. -1.
    9900012    2    1    2    0    0 -0.39490972719E+00 -0.41286371957E+02 -0.13375451554E+02  0.47787272272E+02  0.20000005599E+02 0.  0.
         12    1    1    2    0    0  0.39490972719E+00  0.41286371957E+02  0.13375451554E+02  0.43400727728E+02  0.00000000000E+00 0. -1.
         11    1    3    3    0    0  0.10529397964E+01 -0.12581432816E+02 -0.66910784342E+01  0.14288865063E+02  0.51100000000E-03 0. -1.
        -11    1    3    3    0    0 -0.76321837252E+01 -0.20060544252E+02 -0.77423121433E+01  0.22817078290E+02  0.51100000000E-03 0.  1.
         12    1    3    3    0    0  0.61843342015E+01 -0.86443948880E+01  0.10579390238E+01  0.10681328919E+02  0.00000000000E+00 0. -1.
</event>
<event>
 7    1  0.2733256E-010  0.4778728E+02  0.7816164E-02  0.1312668E+00
        -11   -1    0    0    0    0  0.00000000000E+00  0.00000000000E+00  0.45593999997E+02  0.45594000000E+02  0.51100000000E-03 0. -1.
         11   -1    0    0    0    0 -0.00000000000E+00 -0.00000000000E+00 -0.45593999997E+02  0.45594000000E+02  0.51100000000E-03 0.  1.
    9900012    2    1    2    0    0 -0.30594024996E+02 -0.16988519919E+02 -0.25671358213E+02  0.47787276423E+02  0.20000024525E+02 0.  0.
         12    1    1    2    0    0  0.30594024996E+02  0.16988519919E+02  0.25671358213E+02  0.43400723577E+02  0.00000000000E+00 0. -1.
         11    1    3    3    0    0 -0.18852901404E+02 -0.54858135943E+01 -0.13153473202E+02  0.23633448747E+02  0.51100000000E-03 0. -1.
        -11    1    3    3    0    0 -0.14212053518E+02 -0.82954371288E+01 -0.11161052489E+02  0.19883808369E+02  0.51100000000E-03 0.  1.
         12    1    3    3    0    0  0.24709299255E+01 -0.32072691958E+01 -0.13568325213E+01  0.42700193069E+01  0.00000000000E+00 0. -1.
</event>
<event>
 7    1  0.2733256E-010  0.4778729E+02  0.7816164E-02  0.1312668E+00
        -11   -1    0    0    0    0  0.00000000000E+00  0.00000000000E+00  0.45593999997E+02  0.45594000000E+02  0.51100000000E-03 0. -1.
         11   -1    0    0    0    0 -0.00000000000E+00 -0.00000000000E+00 -0.45593999997E+02  0.45594000000E+02  0.51100000000E-03 0.  1.
    9900012    2    1    2    0    0  0.15094154830E+02 -0.42673574840E+01 -0.40466994460E+02  0.47787291589E+02  0.20000093673E+02 0.  0.
         12    1    1    2    0    0 -0.15094154830E+02  0.42673574840E+01  0.40466994460E+02  0.43400708411E+02  0.00000000000E+00 0. -1.
         11    1    3    3    0    0  0.18644090435E+01 -0.16723252163E+00  0.18346665919E+01  0.26210664933E+01  0.51100000000E-03 0. -1.
        -11    1    3    3    0    0  0.52598208268E+01 -0.40153305044E+01 -0.10750127482E+02  0.12623542899E+02  0.51100000000E-03 0.  1.
        -12    1    3    3    0    0  0.79699249598E+01 -0.84794458041E-01 -0.31551533570E+02  0.32542682197E+02  0.00000000000E+00 0.  1.
</event>
<event>
 7    1  0.2733256E-010  0.4778727E+02  0.7816164E-02  0.1312668E+00
        -11   -1    0    0    0    0  0.00000000000E+00  0.00000000000E+00  0.45593999997E+02  0.45594000000E+02  0.51100000000E-03 0. -1.
         11   -1    0    0    0    0 -0.00000000000E+00 -0.00000000000E+00 -0.45593999997E+02  0.45594000000E+02  0.51100000000E-03 0.  1.
    9900012    2    1    2    0    0 -0.28680383360E+02 -0.13627369388E+02 -0.29586379025E+02  0.47787269477E+02  0.19999992855E+02 0.  0.
         12    1    1    2    0    0  0.28680383360E+02  0.13627369388E+02  0.29586379025E+02  0.43400730523E+02  0.00000000000E+00 0. -1.
         11    1    3    3    0    0 -0.80253498971E+00  0.11463400939E+01  0.53473221727E+00  0.14980309830E+01  0.51100000000E-03 0. -1.
        -11    1    3    3    0    0 -0.18908573560E+02 -0.46152235781E+01 -0.25267374647E+02  0.31894743526E+02  0.51100000000E-03 0.  1.
         12    1    3    3    0    0 -0.89692748095E+01 -0.10158485904E+02 -0.48537365954E+01  0.14394494969E+02  0.00000000000E+00 0. -1.
</event>
<event>
 7    1  0.2733256E-010  0.4778727E+02  0.7816164E-02  0.1312668E+00
        -11   -1    0    0    0    0  0.00000000000E+00  0.00000000000E+00  0.45593999997E+02  0.45594000000E+02  0.51100000000E-03 0.  1.
         11   -1    0    0    0    0 -0.00000000000E+00 -0.00000000000E+00 -0.45593999997E+02  0.45594000000E+02  0.51100000000E-03 0. -1.
    9900012    2    1    2    0    0 -0.30232361275E+02 -0.22231278725E+02  0.21803622313E+02  0.47787269960E+02  0.19999995056E+02 0.  0.
         12    1    1    2    0    0  0.30232361275E+02  0.22231278725E+02 -0.21803622313E+02  0.43400730040E+02  0.00000000000E+00 0. -1.
         11    1    3    3    0    0 -0.13307460584E+02 -0.14219126180E+02  0.12898202316E+02  0.23358845857E+02  0.51100000000E-03 0.  1.
        -11    1    3    3    0    0 -0.58434787422E+01 -0.23219895471E+01 -0.32026727552E+01  0.70565566891E+01  0.51100000000E-03 0. -1.
         12    1    3    3    0    0 -0.11081421949E+02 -0.56901629979E+01  0.12108092753E+02  0.17371867414E+02  0.00000000000E+00 0. -1.
</event>
<event>
 7    1  0.2733256E-010  0.4778728E+02  0.7816164E-02  0.1312668E+00
        -11   -1    0    0    0    0  0.00000000000E+00  0.00000000000E+00  0.45593999997E+02  0.45594000000E+02  0.51100000000E-03 0. -1.
         11   -1    0    0    0    0 -0.00000000000E+00 -0.00000000000E+00 -0.45593999997E+02  0.45594000000E+02  0.51100000000E-03 0.  1.
    9900012    2    1    2    0    0 -0.31950899832E+01  0.40065218050E+02  0.16376577405E+02  0.47787278982E+02  0.20000036192E+02 0.  0.
         12    1    1    2    0    0  0.31950899832E+01 -0.40065218050E+02 -0.16376577405E+02  0.43400721018E+02  0.00000000000E+00 0. -1.
         11    1    3    3    0    0  0.24717678499E+01  0.95537041411E+01  0.12501137065E+02  0.15926748799E+02  0.51100000000E-03 0. -1.
        -11    1    3    3    0    0 -0.35897667760E+00  0.30561303718E+00 -0.70861717633E+00  0.85111817468E+00  0.51100000000E-03 0.  1.
        -12    1    3    3    0    0 -0.53078811555E+01  0.30205900871E+02  0.45840575157E+01  0.31009412009E+02  0.00000000000E+00 0.  1.
</event>
<event>
 7    1  0.2733256E-010  0.4778728E+02  0.7816164E-02  0.1312668E+00
        -11   -1    0    0    0    0  0.00000000000E+00  0.00000000000E+00  0.45593999997E+02  0.45594000000E+02  0.51100000000E-03 0.  1.
         11   -1    0    0    0    0 -0.00000000000E+00 -0.00000000000E+00 -0.45593999997E+02  0.45594000000E+02  0.51100000000E-03 0. -1.
    9900012    2    1    2    0    0 -0.29033982478E+02 -0.29281052717E+02 -0.13537750974E+02  0.47787275488E+02  0.20000020261E+02 0.  0.
         12    1    1    2    0    0  0.29033982478E+02  0.29281052717E+02  0.13537750974E+02  0.43400724512E+02  0.00000000000E+00 0. -1.
         11    1    3    3    0    0 -0.50291698885E+01 -0.18651361386E+01  0.30044989521E+01  0.61480319450E+01  0.51100000000E-03 0. -1.
        -11    1    3    3    0    0  0.73187977530E+00 -0.35667403813E+01 -0.36156712539E+00  0.36589637878E+01  0.51100000000E-03 0.  1.
         12    1    3    3    0    0 -0.24736692365E+02 -0.23849176197E+02 -0.16180682800E+02  0.37980279755E+02  0.00000000000E+00 0. -1.
</event>
<event>
 7    1  0.2733256E-010  0.4778726E+02  0.7816164E-02  0.1312668E+00
        -11   -1    0    0    0    0  0.00000000000E+00  0.00000000000E+00  0.45593999997E+02  0.45594000000E+02  0.51100000000E-03 0.  1.
         11   -1    0    0    0    0 -0.00000000000E+00 -0.00000000000E+00 -0.45593999997E+02  0.45594000000E+02  0.51100000000E-03 0. -1.
    9900012    2    1    2    0    0  0.15606172723E+02 -0.40496711998E+02 -0.29707752366E+00  0.47787256172E+02  0.19999932193E+02 0.  0.
         12    1    1    2    0    0 -0.15606172723E+02  0.40496711998E+02  0.29707752366E+00  0.43400743828E+02  0.00000000000E+00 0. -1.
         11    1    3    3    0    0  0.25374889839E+01  0.10494114965E+01  0.49772218044E+00  0.27906706116E+01  0.51100000000E-03 0. -1.
        -11    1    3    3    0    0  0.16938668769E+01 -0.21417712795E+02 -0.33176607800E+01  0.21739238250E+02  0.51100000000E-03 0.  1.
         12    1    3    3    0    0  0.11374816862E+02 -0.20128410700E+02  0.25228610759E+01  0.23257347311E+02  0.00000000000E+00 0. -1.
</event>
<event>
 7    1  0.2733256E-010  0.4778727E+02  0.7816164E-02  0.1312668E+00
        -11   -1    0    0    0    0  0.00000000000E+00  0.00000000000E+00  0.45593999997E+02  0.45594000000E+02  0.51100000000E-03 0. -1.
         11   -1    0    0    0    0 -0.00000000000E+00 -0.00000000000E+00 -0.45593999997E+02  0.45594000000E+02  0.51100000000E-03 0.  1.
    9900012    2    1    2    0    0  0.30191507631E+02 -0.98470659080E+01 -0.29582623927E+02  0.47787268688E+02  0.19999989254E+02 0.  0.
         12    1    1    2    0    0 -0.30191507631E+02  0.98470659080E+01  0.29582623927E+02  0.43400731312E+02  0.00000000000E+00 0. -1.
         11    1    3    3    0    0  0.16258329739E+02 -0.77681744722E+01 -0.14838364769E+02  0.23342126934E+02  0.51100000000E-03 0. -1.
        -11    1    3    3    0    0  0.12617196696E+02 -0.17723040839E+01 -0.17340644997E+02  0.21518194241E+02  0.51100000000E-03 0.  1.
         12    1    3    3    0    0  0.13159811969E+01 -0.30658735191E+00  0.25963858391E+01  0.29269475124E+01  0.00000000000E+00 0. -1.
</event>
<event>
 7    1  0.2733256E-010  0.4778727E+02  0.7816164E-02  0.1312668E+00
        -11   -1    0    0    0    0  0.00000000000E+00  0.00000000000E+00  0.45593999997E+02  0.45594000000E+02  0.51100000000E-03 0. -1.
         11   -1    0    0    0    0 -0.00000000000E+00 -0.00000000000E+00 -0.45593999997E+02  0.45594000000E+02  0.51100000000E-03 0.  1.
    9900012    2    1    2    0    0 -0.35640659934E+02 -0.24412560595E+02 -0.41705526117E+01  0.47787271153E+02  0.20000000496E+02 0.  0.
         12    1    1    2    0    0  0.35640659934E+02  0.24412560595E+02  0.41705526117E+01  0.43400728847E+02  0.00000000000E+00 0. -1.
         11    1    3    3    0    0 -0.63394601962E+01 -0.10406438555E+02 -0.25404796068E+01  0.12447359394E+02  0.51100000000E-03 0. -1.
        -11    1    3    3    0    0 -0.11782087126E+02 -0.80484946305E+01  0.57960920324E+01  0.15400991071E+02  0.51100000000E-03 0.  1.
        -12    1    3    3    0    0 -0.17519112612E+02 -0.59576274095E+01 -0.74261650373E+01  0.19938920688E+02  0.00000000000E+00 0.  1.
</event>
<event>
 7    1  0.2733256E-010  0.4778728E+02  0.7816164E-02  0.1312668E+00
        -11   -1    0    0    0    0  0.00000000000E+00  0.00000000000E+00  0.45593999997E+02  0.45594000000E+02  0.51100000000E-03 0. -1.
         11   -1    0    0    0    0 -0.00000000000E+00 -0.00000000000E+00 -0.45593999997E+02  0.45594000000E+02  0.51100000000E-03 0.  1.
    9900012    2    1    2    0    0 -0.15140570820E+02 -0.28100115993E+02 -0.29406962221E+02  0.47787276151E+02  0.20000023281E+02 0.  0.
         12    1    1    2    0    0  0.15140570820E+02  0.28100115993E+02  0.29406962221E+02  0.43400723849E+02  0.00000000000E+00 0. -1.
         11    1    3    3    0    0 -0.13836755389E+01  0.39420615118E+00 -0.57558913846E+01  0.59329792161E+01  0.51100000000E-03 0. -1.
        -11    1    3    3    0    0 -0.42240809000E+01 -0.18402716058E+02 -0.19990304099E+02  0.27497546727E+02  0.51100000000E-03 0.  1.
        -12    1    3    3    0    0 -0.95328143811E+01 -0.10091606086E+02 -0.36607667375E+01  0.14356750208E+02  0.00000000000E+00 0.  1.
</event>
<event>
 7    1  0.2733256E-010  0.4778728E+02  0.7816164E-02  0.1312668E+00
        -11   -1    0    0    0    0  0.00000000000E+00  0.00000000000E+00  0.45593999997E+02  0.45594000000E+02  0.51100000000E-03 0.  1.
         11   -1    0    0    0    0 -0.00000000000E+00 -0.00000000000E+00 -0.45593999997E+02  0.45594000000E+02  0.51100000000E-03 0. -1.
    9900012    2    1    2    0    0  0.94303489488E+01  0.16469168236E+02  0.39031498943E+02  0.47787275427E+02  0.20000019982E+02 0.  0.
         12    1    1    2    0    0 -0.94303489488E+01 -0.16469168236E+02 -0.39031498943E+02  0.43400724573E+02  0.00000000000E+00 0. -1.
         11    1    3    3    0    0  0.13034004520E+01 -0.32294871637E+01  0.44726183091E+01  0.56685760892E+01  0.51100000000E-03 0. -1.
        -11    1    3    3    0    0  0.75325896151E+01  0.53695056249E+01  0.17807041687E+02  0.20066445397E+02  0.51100000000E-03 0.  1.
         12    1    3    3    0    0  0.59435888168E+00  0.14329149775E+02  0.16751838947E+02  0.22052253940E+02  0.00000000000E+00 0. -1.
</event>
<event>
 7    1  0.2733256E-010  0.4778726E+02  0.7816164E-02  0.1312668E+00
        -11   -1    0    0    0    0  0.00000000000E+00  0.00000000000E+00  0.45593999997E+02  0.45594000000E+02  0.51100000000E-03 0.  1.
         11   -1    0    0    0    0 -0.00000000000E+00 -0.00000000000E+00 -0.45593999997E+02  0.45594000000E+02  0.51100000000E-03 0. -1.
    9900012    2    1    2    0    0  0.31065637039E+00  0.88825275361E+00  0.43390535982E+02  0.47787261375E+02  0.19999955914E+02 0.  0.
         12    1    1    2    0    0 -0.31065637039E+00 -0.88825275361E+00 -0.43390535982E+02  0.43400738625E+02  0.00000000000E+00 0. -1.
         11    1    3    3    0    0 -0.42140628402E+01 -0.24549435518E+01  0.28401960626E+01  0.56437387784E+01  0.51100000000E-03 0.  1.
        -11    1    3    3    0    0  0.20115767971E+01 -0.18788225778E+00  0.82472568932E+00  0.21821809451E+01  0.51100000000E-03 0. -1.
        -12    1    3    3    0    0  0.25131424135E+01  0.35310785632E+01  0.39725614231E+02  0.39961341652E+02  0.00000000000E+00 0.  1.
</event>
<event>
 7    1  0.2733256E-010  0.4778727E+02  0.7816164E-02  0.1312668E+00
        -11   -1    0    0    0    0  0.00000000000E+00  0.00000000000E+00  0.45593999997E+02  0.45594000000E+02  0.51100000000E-03 0.  1.
         11   -1    0    0    0    0 -0.00000000000E+00 -0.00000000000E+00 -0.45593999997E+02  0.45594000000E+02  0.51100000000E-03 0. -1.
    9900012    2    1    2    0    0  0.26442623861E+02 -0.11118222038E+01  0.34397307623E+02  0.47787271009E+02  0.19999999837E+02 0.  0.
         12    1    1    2    0    0 -0.26442623861E+02  0.11118222038E+01 -0.34397307623E+02  0.43400728991E+02  0.00000000000E+00 0. -1.
         11    1    3    3    0    0  0.24663701467E+01 -0.19485829900E+01  0.21171367996E+00  0.31503619336E+01  0.51100000000E-03 0. -1.
        -11    1    3    3    0    0  0.92426241873E+01 -0.26819975658E+01  0.31917125762E+01  0.10139341312E+02  0.51100000000E-03 0.  1.
        -12    1    3    3    0    0  0.14733629527E+02  0.35187583521E+01  0.30993881367E+02  0.34497567763E+02  0.00000000000E+00 0.  1.
</event>
<event>
 7    1  0.2733256E-010  0.4778727E+02  0.7816164E-02  0.1312668E+00
        -11   -1    0    0    0    0  0.00000000000E+00  0.00000000000E+00  0.45593999997E+02  0.45594000000E+02  0.51100000000E-03 0.  1.
         11   -1    0    0    0    0 -0.00000000000E+00 -0.00000000000E+00 -0.45593999997E+02  0.45594000000E+02  0.51100000000E-03 0. -1.
    9900012    2    1    2    0    0  0.10159659358E+01  0.42691480160E+02  0.77478007236E+01  0.47787273266E+02  0.20000010129E+02 0.  0.
         12    1    1    2    0    0 -0.10159659358E+01 -0.42691480160E+02 -0.77478007236E+01  0.43400726734E+02  0.00000000000E+00 0. -1.
         11    1    3    3    0    0 -0.72250676196E+00 -0.51137287592E+00  0.15128272478E+01  0.17527591912E+01  0.51100000000E-03 0. -1.
        -11    1    3    3    0    0  0.69543615961E+01  0.11210297896E+02  0.20501715346E+01  0.13350547843E+02  0.51100000000E-03 0.  1.
        -12    1    3    3    0    0 -0.52158888984E+01  0.31992555139E+02  0.41848019411E+01  0.32683966232E+02  0.00000000000E+00 0.  1.
</event>
<event>
 7    1  0.2733256E-010  0.4778728E+02  0.7816164E-02  0.1312668E+00
        -11   -1    0    0    0    0  0.00000000000E+00  0.00000000000E+00  0.45593999997E+02  0.45594000000E+02  0.51100000000E-03 0.  1.
         11   -1    0    0    0    0 -0.00000000000E+00 -0.00000000000E+00 -0.45593999997E+02  0.45594000000E+02  0.51100000000E-03 0. -1.
    9900012    2    1    2    0    0 -0.64991081056E+00 -0.14249176592E+02  0.40989771614E+02  0.47787276566E+02  0.20000025174E+02 0.  0.
         12    1    1    2    0    0  0.64991081056E+00  0.14249176592E+02 -0.40989771614E+02  0.43400723434E+02  0.00000000000E+00 0. -1.
         11    1    3    3    0    0  0.81324802753E+00  0.26455438524E+01  0.33956697815E+01  0.43807360289E+01  0.51100000000E-03 0. -1.
        -11    1    3    3    0    0 -0.26484336475E+01  0.16365272817E+01  0.59987749268E+01  0.67585296635E+01  0.51100000000E-03 0.  1.
         12    1    3    3    0    0  0.11852748094E+01 -0.18531247726E+02  0.31595326906E+02  0.36648010873E+02  0.00000000000E+00 0. -1.
</event>
<event>
 7    1  0.2733256E-010  0.4778727E+02  0.7816164E-02  0.1312668E+00
        -11   -1    0    0    0    0  0.00000000000E+00  0.00000000000E+00  0.45593999997E+02  0.45594000000E+02  0.51100000000E-03 0. -1.
         11   -1    0    0    0    0 -0.00000000000E+00 -0.00000000000E+00 -0.45593999997E+02  0.45594000000E+02  0.51100000000E-03 0.  1.
    9900012    2    1    2    0    0  0.20838091237E+02 -0.10415601850E+02 -0.36618474072E+02  0.47787268996E+02  0.19999990661E+02 0.  0.
         12    1    1    2    0    0 -0.20838091237E+02  0.10415601850E+02  0.36618474072E+02  0.43400731004E+02  0.00000000000E+00 0. -1.
         11    1    3    3    0    0  0.72523966364E+01  0.56008707551E+01 -0.14347139734E+02  0.17023731348E+02  0.51100000000E-03 0. -1.
        -11    1    3    3    0    0  0.34646725451E+01 -0.42662708073E+01 -0.78758262523E+01  0.96038357890E+01  0.51100000000E-03 0.  1.
         12    1    3    3    0    0  0.10121022056E+02 -0.11750201798E+02 -0.14395508085E+02  0.21159701859E+02  0.00000000000E+00 0. -1.
</event>
<event>
 7    1  0.2733256E-010  0.4778728E+02  0.7816164E-02  0.1312668E+00
        -11   -1    0    0    0    0  0.00000000000E+00  0.00000000000E+00  0.45593999997E+02  0.45594000000E+02  0.51100000000E-03 0.  1.
         11   -1    0    0    0    0 -0.00000000000E+00 -0.00000000000E+00 -0.45593999997E+02  0.45594000000E+02  0.51100000000E-03 0. -1.
    9900012    2    1    2    0    0 -0.29668014274E+02 -0.15532499634E+02  0.27607483715E+02  0.47787276816E+02  0.20000026314E+02 0.  0.
         12    1    1    2    0    0  0.29668014274E+02  0.15532499634E+02 -0.27607483715E+02  0.43400723184E+02  0.00000000000E+00 0. -1.
         11    1    3    3    0    0 -0.67233711481E+00  0.42805122017E+00 -0.40837242120E+00  0.89556314046E+00  0.51100000000E-03 0. -1.
        -11    1    3    3    0    0 -0.26225594254E+02 -0.16680427478E+02  0.16828929105E+02  0.35344466468E+02  0.51100000000E-03 0.  1.
        -12    1    3    3    0    0 -0.27700829055E+01  0.71987662452E+00  0.11186927032E+02  0.11547247207E+02  0.00000000000E+00 0.  1.
</event>
<event>
 7    1  0.2733256E-010  0.4778728E+02  0.7816164E-02  0.1312668E+00
        -11   -1    0    0    0    0  0.00000000000E+00  0.00000000000E+00  0.45593999997E+02  0.45594000000E+02  0.51100000000E-03 0.  1.
         11   -1    0    0    0    0 -0.00000000000E+00 -0.00000000000E+00 -0.45593999997E+02  0.45594000000E+02  0.51100000000E-03 0. -1.
    9900012    2    1    2    0    0  0.50294370356E+01 -0.15842111406E+02  0.40091830827E+02  0.47787278464E+02  0.20000033831E+02 0.  0.
         12    1    1    2    0    0 -0.50294370356E+01  0.15842111406E+02 -0.40091830827E+02  0.43400721536E+02  0.00000000000E+00 0. -1.
         11    1    3    3    0    0 -0.10259788880E+01 -0.25070697139E+01  0.17737334163E+02  0.17942994586E+02  0.51100000000E-03 0. -1.
        -11    1    3    3    0    0 -0.11197510803E+01 -0.76101728935E+01  0.18219543735E+02  0.19776762832E+02  0.51100000000E-03 0.  1.
         12    1    3    3    0    0  0.71751670038E+01 -0.57248687990E+01  0.41349529297E+01  0.10067521047E+02  0.00000000000E+00 0. -1.
</event>
<event>
 7    1  0.2733256E-010  0.4778727E+02  0.7816164E-02  0.1312668E+00
        -11   -1    0    0    0    0  0.00000000000E+00  0.00000000000E+00  0.45593999997E+02  0.45594000000E+02  0.51100000000E-03 0.  1.
         11   -1    0    0    0    0 -0.00000000000E+00 -0.00000000000E+00 -0.45593999997E+02  0.45594000000E+02  0.51100000000E-03 0. -1.
    9900012    2    1    2    0    0  0.25542349689E+02  0.18070914299E+02  0.30077458464E+02  0.47787273291E+02  0.20000010243E+02 0.  0.
         12    1    1    2    0    0 -0.25542349689E+02 -0.18070914299E+02 -0.30077458464E+02  0.43400726709E+02  0.00000000000E+00 0. -1.
         11    1    3    3    0    0  0.12161759583E+02  0.41141134969E+01  0.70790201978E+01  0.14661065897E+02  0.51100000000E-03 0. -1.
        -11    1    3    3    0    0  0.15406809472E+02  0.78227435843E+01  0.18061640965E+02  0.24995759038E+02  0.51100000000E-03 0.  1.
        -12    1    3    3    0    0 -0.20262193659E+01  0.61340572178E+01  0.49367973010E+01  0.81304483555E+01  0.00000000000E+00 0.  1.
</event>
<event>
 7    1  0.2733256E-010  0.4778728E+02  0.7816164E-02  0.1312668E+00
        -11   -1    0    0    0    0  0.00000000000E+00  0.00000000000E+00  0.45593999997E+02  0.45594000000E+02  0.51100000000E-03 0. -1.
         11   -1    0    0    0    0 -0.00000000000E+00 -0.00000000000E+00 -0.45593999997E+02  0.45594000000E+02  0.51100000000E-03 0.  1.
    9900012    2    1    2    0    0  0.11980970209E+02  0.60977038823E+00 -0.41709797367E+02  0.47787278076E+02  0.20000032062E+02 0.  0.
         12    1    1    2    0    0 -0.11980970209E+02 -0.60977038823E+00  0.41709797367E+02  0.43400721924E+02  0.00000000000E+00 0. -1.
         11    1    3    3    0    0  0.35654847489E+01 -0.12040956330E+00 -0.52394882185E+01  0.63387236105E+01  0.51100000000E-03 0. -1.
        -11    1    3    3    0    0  0.20405806940E+01 -0.68624959981E+01 -0.26253830766E+02  0.27212523790E+02  0.51100000000E-03 0.  1.
        -12    1    3    3    0    0  0.63749047663E+01  0.75926759497E+01 -0.10216478383E+02  0.14236030676E+02  0.00000000000E+00 0.  1.
</event>
<event>
 7    1  0.2733256E-010  0.4778727E+02  0.7816164E-02  0.1312668E+00
        -11   -1    0    0    0    0  0.00000000000E+00  0.00000000000E+00  0.45593999997E+02  0.45594000000E+02  0.51100000000E-03 0. -1.
         11   -1    0    0    0    0 -0.00000000000E+00 -0.00000000000E+00 -0.45593999997E+02  0.45594000000E+02  0.51100000000E-03 0.  1.
    9900012    2    1    2    0    0 -0.13386405573E+02  0.29031435436E+02 -0.29353080303E+02  0.47787269350E+02  0.19999992276E+02 0.  0.
         12    1    1    2    0    0  0.13386405573E+02 -0.29031435436E+02  0.29353080303E+02  0.43400730650E+02  0.00000000000E+00 0. -1.
         11    1    3    3    0    0 -0.23019774764E-01  0.12728619442E+02 -0.14615039285E+02  0.19380857989E+02  0.51100000000E-03 0. -1.
        -11    1    3    3    0    0 -0.46195949551E+01  0.14505036714E+02 -0.78276223622E+01  0.17117488709E+02  0.51100000000E-03 0.  1.
         12    1    3    3    0    0 -0.87437908433E+01  0.17977792804E+01 -0.69104186557E+01  0.11288922652E+02  0.00000000000E+00 0. -1.
</event>
<event>
 7    1  0.2733256E-010  0.4778727E+02  0.7816164E-02  0.1312668E+00
        -11   -1    0    0    0    0  0.00000000000E+00  0.00000000000E+00  0.45593999997E+02  0.45594000000E+02  0.51100000000E-03 0. -1.
         11   -1    0    0    0    0 -0.00000000000E+00 -0.00000000000E+00 -0.45593999997E+02  0.45594000000E+02  0.51100000000E-03 0.  1.
    9900012    2    1    2    0    0 -0.26907486591E+02  0.88723521942E+01 -0.32876919686E+02  0.47787270558E+02  0.19999997780E+02 0.  0.
         12    1    1    2    0    0  0.26907486591E+02 -0.88723521942E+01  0.32876919686E+02  0.43400729442E+02  0.00000000000E+00 0. -1.
         11    1    3    3    0    0 -0.81066608242E+00  0.39684428441E+01 -0.14106131556E+02  0.14676125709E+02  0.51100000000E-03 0. -1.
        -11    1    3    3    0    0 -0.12795581240E+01  0.14269548510E+01 -0.28062717626E+01  0.33983276190E+01  0.51100000000E-03 0.  1.
        -12    1    3    3    0    0 -0.24817262384E+02  0.34769544991E+01 -0.15964516368E+02  0.29712817229E+02  0.00000000000E+00 0.  1.
</event>
<event>
 7    1  0.2733256E-010  0.4778727E+02  0.7816164E-02  0.1312668E+00
        -11   -1    0    0    0    0  0.00000000000E+00  0.00000000000E+00  0.45593999997E+02  0.45594000000E+02  0.51100000000E-03 0. -1.
         11   -1    0    0    0    0 -0.00000000000E+00 -0.00000000000E+00 -0.45593999997E+02  0.45594000000E+02  0.51100000000E-03 0.  1.
    9900012    2    1    2    0    0  0.30482299780E+02 -0.20796319092E+02  0.22846569105E+02  0.47787271809E+02  0.20000003485E+02 0.  0.
         12    1    1    2    0    0 -0.30482299780E+02  0.20796319092E+02 -0.22846569105E+02  0.43400728191E+02  0.00000000000E+00 0. -1.
         11    1    3    3    0    0  0.17981499678E+02 -0.96009540562E+01  0.18719892057E+02  0.27675747657E+02  0.51100000000E-03 0. -1.
        -11    1    3    3    0    0  0.13624731243E+01  0.10256640687E+01  0.31076911298E+01  0.35448644848E+01  0.51100000000E-03 0.  1.
        -12    1    3    3    0    0  0.11138326978E+02 -0.12221029104E+02  0.10189859176E+01  0.16566659667E+02  0.00000000000E+00 0.  1.
</event>
<event>
 7    1  0.2733256E-010  0.4778727E+02  0.7816164E-02  0.1312668E+00
        -11   -1    0    0    0    0  0.00000000000E+00  0.00000000000E+00  0.45593999997E+02  0.45594000000E+02  0.51100000000E-03 0.  1.
         11   -1    0    0    0    0 -0.00000000000E+00 -0.00000000000E+00 -0.45593999997E+02  0.45594000000E+02  0.51100000000E-03 0. -1.
    9900012    2    1    2    0    0  0.19424961689E+02 -0.38091247867E+02  0.74398294243E+01  0.47787270023E+02  0.19999995344E+02 0.  0.
         12    1    1    2    0    0 -0.19424961689E+02  0.38091247867E+02 -0.74398294243E+01  0.43400729977E+02  0.00000000000E+00 0. -1.
         11    1    3    3    0    0  0.19149207360E+01 -0.22987465076E+01 -0.50003625095E+01  0.58270732292E+01  0.51100000000E-03 0. -1.
        -11    1    3    3    0    0  0.13166706097E+00 -0.14929146265E+00  0.51446360006E+00  0.55163141016E+00  0.51100000000E-03 0.  1.
        -12    1    3    3    0    0  0.17378373892E+02 -0.35643209897E+02  0.11925728334E+02  0.41408565384E+02  0.00000000000E+00 0.  1.
</event>
<event>
 7    1  0.2733256E-010  0.4778722E+02  0.7816164E-02  0.1312668E+00
        -11   -1    0    0    0    0  0.00000000000E+00  0.00000000000E+00  0.45593999997E+02  0.45594000000E+02  0.51100000000E-03 0.  1.
         11   -1    0    0    0    0 -0.00000000000E+00 -0.00000000000E+00 -0.45593999997E+02  0.45594000000E+02  0.51100000000E-03 0. -1.
    9900012    2    1    2    0    0  0.73853169148E-01  0.38736104464E+02  0.19573880785E+02  0.47787215994E+02  0.19999749003E+02 0.  0.
         12    1    1    2    0    0 -0.73853169148E-01 -0.38736104464E+02 -0.19573880785E+02  0.43400784006E+02  0.00000000000E+00 0. -1.
         11    1    3    3    0    0  0.81151804623E+00  0.14326103701E+02 -0.18692966802E+00  0.14350287515E+02  0.51100000000E-03 0. -1.
        -11    1    3    3    0    0 -0.43172164827E+01  0.13345508595E+02  0.55751049459E+01  0.15093798503E+02  0.51100000000E-03 0.  1.
        -12    1    3    3    0    0  0.35795516057E+01  0.11064492168E+02  0.14185705507E+02  0.18343129977E+02  0.00000000000E+00 0.  1.
</event>
<event>
 7    1  0.2733256E-010  0.4778727E+02  0.7816164E-02  0.1312668E+00
        -11   -1    0    0    0    0  0.00000000000E+00  0.00000000000E+00  0.45593999997E+02  0.45594000000E+02  0.51100000000E-03 0. -1.
         11   -1    0    0    0    0 -0.00000000000E+00 -0.00000000000E+00 -0.45593999997E+02  0.45594000000E+02  0.51100000000E-03 0.  1.
    9900012    2    1    2    0    0 -0.20934860989E+02  0.35512248684E+02 -0.13573320650E+02  0.47787271381E+02  0.20000001534E+02 0.  0.
         12    1    1    2    0    0  0.20934860989E+02 -0.35512248684E+02  0.13573320650E+02  0.43400728619E+02  0.00000000000E+00 0. -1.
         11    1    3    3    0    0  0.36418979306E+01  0.45671320112E+01 -0.18322184657E+01  0.61220209173E+01  0.51100000000E-03 0. -1.
        -11    1    3    3    0    0 -0.53629100110E+01  0.10572642703E+02 -0.49691043140E+01  0.12854321275E+02  0.51100000000E-03 0.  1.
        -12    1    3    3    0    0 -0.19213848908E+02  0.20372473970E+02 -0.67719978704E+01  0.28810929188E+02  0.00000000000E+00 0.  1.
</event>
<event>
 7    1  0.2733256E-010  0.4778727E+02  0.7816164E-02  0.1312668E+00
        -11   -1    0    0    0    0  0.00000000000E+00  0.00000000000E+00  0.45593999997E+02  0.45594000000E+02  0.51100000000E-03 0.  1.
         11   -1    0    0    0    0 -0.00000000000E+00 -0.00000000000E+00 -0.45593999997E+02  0.45594000000E+02  0.51100000000E-03 0. -1.
    9900012    2    1    2    0    0 -0.29708815831E+02 -0.27292564654E+02 -0.16003914036E+02  0.47787273186E+02  0.20000009764E+02 0.  0.
         12    1    1    2    0    0  0.29708815831E+02  0.27292564654E+02  0.16003914036E+02  0.43400726814E+02  0.00000000000E+00 0. -1.
         11    1    3    3    0    0 -0.14736441246E+02 -0.14195656184E+02 -0.10866784420E+02  0.23168218727E+02  0.51100000000E-03 0. -1.
        -11    1    3    3    0    0 -0.10272574060E+02 -0.15313362809E+02 -0.19966890882E+01  0.18547550402E+02  0.51100000000E-03 0.  1.
        -12    1    3    3    0    0 -0.46998005258E+01  0.22164543381E+01 -0.31404405275E+01  0.60715040576E+01  0.00000000000E+00 0.  1.
</event>
<event>
 7    1  0.2733256E-010  0.4778727E+02  0.7816164E-02  0.1312668E+00
        -11   -1    0    0    0    0  0.00000000000E+00  0.00000000000E+00  0.45593999997E+02  0.45594000000E+02  0.51100000000E-03 0.  1.
         11   -1    0    0    0    0 -0.00000000000E+00 -0.00000000000E+00 -0.45593999997E+02  0.45594000000E+02  0.51100000000E-03 0. -1.
    9900012    2    1    2    0    0 -0.39680328144E+02  0.26623975972E+01  0.17378336218E+02  0.47787269911E+02  0.19999994832E+02 0.  0.
         12    1    1    2    0    0  0.39680328144E+02 -0.26623975972E+01 -0.17378336218E+02  0.43400730089E+02  0.00000000000E+00 0. -1.
         11    1    3    3    0    0 -0.48270790566E+01 -0.20842877107E+00 -0.24440430445E+01  0.54145619800E+01  0.51100000000E-03 0. -1.
        -11    1    3    3    0    0 -0.27959368225E+01  0.14499750362E+01 -0.18482699995E+01  0.36518204465E+01  0.51100000000E-03 0.  1.
         12    1    3    3    0    0 -0.32057312265E+02  0.14208513321E+01  0.21670649262E+02  0.38720887484E+02  0.00000000000E+00 0. -1.
</event>
<event>
 7    1  0.2733256E-010  0.4778727E+02  0.7816164E-02  0.1312668E+00
        -11   -1    0    0    0    0  0.00000000000E+00  0.00000000000E+00  0.45593999997E+02  0.45594000000E+02  0.51100000000E-03 0.  1.
         11   -1    0    0    0    0 -0.00000000000E+00 -0.00000000000E+00 -0.45593999997E+02  0.45594000000E+02  0.51100000000E-03 0. -1.
    9900012    2    1    2    0    0 -0.56023208254E+01  0.30824103871E+02  0.30035178179E+02  0.47787270671E+02  0.19999998295E+02 0.  0.
         12    1    1    2    0    0  0.56023208254E+01 -0.30824103871E+02 -0.30035178179E+02  0.43400729329E+02  0.00000000000E+00 0. -1.
         11    1    3    3    0    0 -0.51753552639E+01  0.41034764565E+00  0.17115155568E+01  0.54664406208E+01  0.51100000000E-03 0. -1.
        -11    1    3    3    0    0  0.33245164466E+01  0.14583805321E+02  0.11083698533E+02  0.18616878382E+02  0.51100000000E-03 0.  1.
        -12    1    3    3    0    0 -0.37514820082E+01  0.15829950905E+02  0.17239964088E+02  0.23703951668E+02  0.00000000000E+00 0.  1.
</event>
<event>
 7    1  0.2733256E-010  0.4778726E+02  0.7816164E-02  0.1312668E+00
        -11   -1    0    0    0    0  0.00000000000E+00  0.00000000000E+00  0.45593999997E+02  0.45594000000E+02  0.51100000000E-03 0.  1.
         11   -1    0    0    0    0 -0.00000000000E+00 -0.00000000000E+00 -0.45593999997E+02  0.45594000000E+02  0.51100000000E-03 0. -1.
    9900012    2    1    2    0    0 -0.88435701160E+01  0.28068384054E+02  0.31899544548E+02  0.47787264313E+02  0.19999969308E+02 0.  0.
         12    1    1    2    0    0  0.88435701160E+01 -0.28068384054E+02 -0.31899544548E+02  0.43400735687E+02  0.00000000000E+00 0. -1.
         11    1    3    3    0    0  0.33744373642E+01  0.21825374049E+01  0.41505496374E+01  0.57773142205E+01  0.51100000000E-03 0. -1.
        -11    1    3    3    0    0 -0.63403798198E+00  0.13892740060E+02  0.17816672466E+02  0.22601859405E+02  0.51100000000E-03 0.  1.
        -12    1    3    3    0    0 -0.11583969498E+02  0.11993106589E+02  0.99323224451E+01  0.19408090688E+02  0.00000000000E+00 0.  1.
</event>
<event>
 7    1  0.2733256E-010  0.4778728E+02  0.7816164E-02  0.1312668E+00
        -11   -1    0    0    0    0  0.00000000000E+00  0.00000000000E+00  0.45593999997E+02  0.45594000000E+02  0.51100000000E-03 0. -1.
         11   -1    0    0    0    0 -0.00000000000E+00 -0.00000000000E+00 -0.45593999997E+02  0.45594000000E+02  0.51100000000E-03 0.  1.
    9900012    2    1    2    0    0  0.13550861988E+02  0.11383301255E+02 -0.39628488155E+02  0.47787280173E+02  0.20000041621E+02 0.  0.
         12    1    1    2    0    0 -0.13550861988E+02 -0.11383301255E+02  0.39628488155E+02  0.43400719827E+02  0.00000000000E+00 0. -1.
         11    1    3    3    0    0  0.20790535840E+01  0.15901441201E+01  0.12214124862E+01  0.28884028200E+01  0.51100000000E-03 0. -1.
        -11    1    3    3    0    0  0.57915112562E+00  0.50574002730E+01 -0.50109967578E+01  0.71430247316E+01  0.51100000000E-03 0.  1.
        -12    1    3    3    0    0  0.10892657278E+02  0.47357568622E+01 -0.35838903883E+02  0.37755852621E+02  0.00000000000E+00 0.  1.
</event>
<event>
 7    1  0.2733256E-010  0.4778727E+02  0.7816164E-02  0.1312668E+00
        -11   -1    0    0    0    0  0.00000000000E+00  0.00000000000E+00  0.45593999997E+02  0.45594000000E+02  0.51100000000E-03 0.  1.
         11   -1    0    0    0    0 -0.00000000000E+00 -0.00000000000E+00 -0.45593999997E+02  0.45594000000E+02  0.51100000000E-03 0. -1.
    9900012    2    1    2    0    0  0.11816499743E+02  0.41739797992E+02  0.13352509903E+01  0.47787270769E+02  0.19999998742E+02 0.  0.
         12    1    1    2    0    0 -0.11816499743E+02 -0.41739797992E+02 -0.13352509903E+01  0.43400729231E+02  0.00000000000E+00 0. -1.
         11    1    3    3    0    0  0.94632825534E+00 -0.44973171743E+00  0.66409314643E+00  0.12404901260E+01  0.51100000000E-03 0. -1.
        -11    1    3    3    0    0  0.73365508638E+01  0.31394716531E+02  0.77553685748E+01  0.33160201246E+02  0.51100000000E-03 0.  1.
        -12    1    3    3    0    0  0.35336206236E+01  0.10794813179E+02 -0.70842107309E+01  0.13386579397E+02  0.00000000000E+00 0.  1.
</event>
<event>
 7    1  0.2733256E-010  0.4778727E+02  0.7816164E-02  0.1312668E+00
        -11   -1    0    0    0    0  0.00000000000E+00  0.00000000000E+00  0.45593999997E+02  0.45594000000E+02  0.51100000000E-03 0.  1.
         11   -1    0    0    0    0 -0.00000000000E+00 -0.00000000000E+00 -0.45593999997E+02  0.45594000000E+02  0.51100000000E-03 0. -1.
    9900012    2    1    2    0    0 -0.43180275651E+02 -0.43166009597E+01 -0.67404983980E+00  0.47787267375E+02  0.19999983272E+02 0.  0.
         12    1    1    2    0    0  0.43180275651E+02  0.43166009597E+01  0.67404983980E+00  0.43400732625E+02  0.00000000000E+00 0. -1.
         11    1    3    3    0    0 -0.14901514345E+02 -0.17695423602E+01  0.54635066305E-01  0.15006311845E+02  0.51100000000E-03 0. -1.
        -11    1    3    3    0    0 -0.24549889749E+02 -0.49139029338E+01 -0.61570917768E+01  0.25782810323E+02  0.51100000000E-03 0.  1.
         12    1    3    3    0    0 -0.37288715573E+01  0.23668443343E+01  0.54284068707E+01  0.69981452077E+01  0.00000000000E+00 0. -1.
</event>
<event>
 7    1  0.2733256E-010  0.4778727E+02  0.7816164E-02  0.1312668E+00
        -11   -1    0    0    0    0  0.00000000000E+00  0.00000000000E+00  0.45593999997E+02  0.45594000000E+02  0.51100000000E-03 0.  1.
         11   -1    0    0    0    0 -0.00000000000E+00 -0.00000000000E+00 -0.45593999997E+02  0.45594000000E+02  0.51100000000E-03 0. -1.
    9900012    2    1    2    0    0 -0.32942439488E+02  0.27750983635E+02 -0.53199578313E+01  0.47787270012E+02  0.19999995293E+02 0.  0.
         12    1    1    2    0    0  0.32942439488E+02 -0.27750983635E+02  0.53199578313E+01  0.43400729988E+02  0.00000000000E+00 0. -1.
         11    1    3    3    0    0 -0.43183850223E+01  0.72632806069E+01 -0.79282400702E+01  0.11587091320E+02  0.51100000000E-03 0. -1.
        -11    1    3    3    0    0 -0.11080349024E+02  0.97305913714E+01 -0.25960868486E+01  0.14973249818E+02  0.51100000000E-03 0.  1.
        -12    1    3    3    0    0 -0.17543705442E+02  0.10757111657E+02  0.52043690875E+01  0.21226928874E+02  0.00000000000E+00 0.  1.
</event>
<event>
 7    1  0.2733256E-010  0.4778728E+02  0.7816164E-02  0.1312668E+00
        -11   -1    0    0    0    0  0.00000000000E+00  0.00000000000E+00  0.45593999997E+02  0.45594000000E+02  0.51100000000E-03 0.  1.
         11   -1    0    0    0    0 -0.00000000000E+00 -0.00000000000E+00 -0.45593999997E+02  0.45594000000E+02  0.51100000000E-03 0. -1.
    9900012    2    1    2    0    0 -0.28158773549E+02  0.32922763883E+02  0.26072833781E+01  0.47787276088E+02  0.20000022994E+02 0.  0.
         12    1    1    2    0    0  0.28158773549E+02 -0.32922763883E+02 -0.26072833781E+01  0.43400723912E+02  0.00000000000E+00 0. -1.
         11    1    3    3    0    0 -0.90468280898E+01  0.66310540619E+01 -0.58372359079E+01  0.12644734073E+02  0.51100000000E-03 0. -1.
        -11    1    3    3    0    0 -0.48952836247E+01  0.86902240598E+00  0.88722289970E+00  0.50503630012E+01  0.51100000000E-03 0.  1.
        -12    1    3    3    0    0 -0.14216661835E+02  0.25422687415E+02  0.75572963862E+01  0.30092179014E+02  0.00000000000E+00 0.  1.
</event>
<event>
 7    1  0.2733256E-010  0.4778727E+02  0.7816164E-02  0.1312668E+00
        -11   -1    0    0    0    0  0.00000000000E+00  0.00000000000E+00  0.45593999997E+02  0.45594000000E+02  0.51100000000E-03 0. -1.
         11   -1    0    0    0    0 -0.00000000000E+00 -0.00000000000E+00 -0.45593999997E+02  0.45594000000E+02  0.51100000000E-03 0.  1.
    9900012    2    1    2    0    0 -0.22193441114E+02 -0.16936406615E+02 -0.33229995155E+02  0.47787271025E+02  0.19999999913E+02 0.  0.
         12    1    1    2    0    0  0.22193441114E+02  0.16936406615E+02  0.33229995155E+02  0.43400728975E+02  0.00000000000E+00 0. -1.
         11    1    3    3    0    0 -0.12084122784E+01 -0.18441480423E+01  0.73616047061E+00  0.23244514914E+01  0.51100000000E-03 0. -1.
        -11    1    3    3    0    0 -0.89054177035E+01 -0.90108887174E+01 -0.52352235957E+01  0.13708032182E+02  0.51100000000E-03 0.  1.
         12    1    3    3    0    0 -0.12079611132E+02 -0.60813698553E+01 -0.28730932030E+02  0.31754787352E+02  0.00000000000E+00 0. -1.
</event>
<event>
 7    1  0.2733256E-010  0.4778729E+02  0.7816164E-02  0.1312668E+00
        -11   -1    0    0    0    0  0.00000000000E+00  0.00000000000E+00  0.45593999997E+02  0.45594000000E+02  0.51100000000E-03 0.  1.
         11   -1    0    0    0    0 -0.00000000000E+00 -0.00000000000E+00 -0.45593999997E+02  0.45594000000E+02  0.51100000000E-03 0. -1.
    9900012    2    1    2    0    0  0.34294416274E+02 -0.15749802523E+02  0.21434971936E+02  0.47787293912E+02  0.20000104261E+02 0.  0.
         12    1    1    2    0    0 -0.34294416274E+02  0.15749802523E+02 -0.21434971936E+02  0.43400706088E+02  0.00000000000E+00 0. -1.
         11    1    3    3    0    0 -0.10897559903E+01  0.17734215535E+01  0.32023977914E+01  0.38194167094E+01  0.51100000000E-03 0. -1.
        -11    1    3    3    0    0  0.79284908896E+01 -0.64784258560E+01  0.65318165870E+01  0.12144776554E+02  0.51100000000E-03 0.  1.
        -12    1    3    3    0    0  0.27455681374E+02 -0.11044798221E+02  0.11700757557E+02  0.31823100649E+02  0.00000000000E+00 0.  1.
</event>
<event>
 7    1  0.2733256E-010  0.4778727E+02  0.7816164E-02  0.1312668E+00
        -11   -1    0    0    0    0  0.00000000000E+00  0.00000000000E+00  0.45593999997E+02  0.45594000000E+02  0.51100000000E-03 0.  1.
         11   -1    0    0    0    0 -0.00000000000E+00 -0.00000000000E+00 -0.45593999997E+02  0.45594000000E+02  0.51100000000E-03 0. -1.
    9900012    2    1    2    0    0 -0.40999002836E+02 -0.13641928240E+02 -0.40746870219E+01  0.47787268278E+02  0.19999987388E+02 0.  0.
         12    1    1    2    0    0  0.40999002836E+02  0.13641928240E+02  0.40746870219E+01  0.43400731722E+02  0.00000000000E+00 0. -1.
         11    1    3    3    0    0 -0.15628361130E+02  0.42944992470E+00 -0.87084153839E+01  0.17895993898E+02  0.51100000000E-03 0. -1.
        -11    1    3    3    0    0 -0.22896580190E+01 -0.33670680608E+01  0.97787436012E+00  0.41875911566E+01  0.51100000000E-03 0.  1.
         12    1    3    3    0    0 -0.23080983687E+02 -0.10704310104E+02  0.36558540019E+01  0.25703683223E+02  0.00000000000E+00 0. -1.
</event>
<event>
 7    1  0.2733256E-010  0.4778727E+02  0.7816164E-02  0.1312668E+00
        -11   -1    0    0    0    0  0.00000000000E+00  0.00000000000E+00  0.45593999997E+02  0.45594000000E+02  0.51100000000E-03 0.  1.
         11   -1    0    0    0    0 -0.00000000000E+00 -0.00000000000E+00 -0.45593999997E+02  0.45594000000E+02  0.51100000000E-03 0. -1.
    9900012    2    1    2    0    0 -0.14379462445E+02 -0.36536569127E+02 -0.18491445186E+02  0.47787269950E+02  0.19999995012E+02 0.  0.
         12    1    1    2    0    0  0.14379462445E+02  0.36536569127E+02  0.18491445186E+02  0.43400730050E+02  0.00000000000E+00 0. -1.
         11    1    3    3    0    0 -0.10138616328E+02 -0.14600841926E+02 -0.10853539105E+02  0.20827276283E+02  0.51100000000E-03 0. -1.
        -11    1    3    3    0    0 -0.21002562890E+01  0.82015948753E+00 -0.28040008632E+01  0.35980771484E+01  0.51100000000E-03 0.  1.
        -12    1    3    3    0    0 -0.21405898282E+01 -0.22755886688E+02 -0.48339052174E+01  0.23361916519E+02  0.00000000000E+00 0.  1.
</event>
<event>
 7    1  0.2733256E-010  0.4778728E+02  0.7816164E-02  0.1312668E+00
        -11   -1    0    0    0    0  0.00000000000E+00  0.00000000000E+00  0.45593999997E+02  0.45594000000E+02  0.51100000000E-03 0.  1.
         11   -1    0    0    0    0 -0.00000000000E+00 -0.00000000000E+00 -0.45593999997E+02  0.45594000000E+02  0.51100000000E-03 0. -1.
    9900012    2    1    2    0    0  0.36100723638E+02  0.23746832324E+02 -0.40556052872E+01  0.47787283107E+02  0.20000054997E+02 0.  0.
         12    1    1    2    0    0 -0.36100723638E+02 -0.23746832324E+02  0.40556052872E+01  0.43400716893E+02  0.00000000000E+00 0. -1.
         11    1    3    3    0    0  0.29953190039E+01  0.48149257003E+01  0.55141919479E+01  0.79095991387E+01  0.51100000000E-03 0. -1.
        -11    1    3    3    0    0  0.57383543681E+01  0.56661221016E+01 -0.38316033582E+01  0.89283164751E+01  0.51100000000E-03 0.  1.
        -12    1    3    3    0    0  0.27367050266E+02  0.13265784522E+02 -0.57381938769E+01  0.30949367493E+02  0.00000000000E+00 0.  1.
</event>
<event>
 7    1  0.2733256E-010  0.4778727E+02  0.7816164E-02  0.1312668E+00
        -11   -1    0    0    0    0  0.00000000000E+00  0.00000000000E+00  0.45593999997E+02  0.45594000000E+02  0.51100000000E-03 0.  1.
         11   -1    0    0    0    0 -0.00000000000E+00 -0.00000000000E+00 -0.45593999997E+02  0.45594000000E+02  0.51100000000E-03 0. -1.
    9900012    2    1    2    0    0 -0.55293526766E+01  0.18581347214E+02  0.38830182673E+02  0.47787270839E+02  0.19999999063E+02 0.  0.
         12    1    1    2    0    0  0.55293526766E+01 -0.18581347214E+02 -0.38830182673E+02  0.43400729161E+02  0.00000000000E+00 0. -1.
         11    1    3    3    0    0  0.20905544767E+01  0.11766632003E+02  0.20562626079E+02  0.23783305873E+02  0.51100000000E-03 0. -1.
        -11    1    3    3    0    0  0.24416150003E+01  0.11019465283E+01  0.38718092625E+00  0.27065992115E+01  0.51100000000E-03 0.  1.
         12    1    3    3    0    0 -0.10061522154E+02  0.57127686830E+01  0.17880375668E+02  0.21297365755E+02  0.00000000000E+00 0. -1.
</event>
<event>
 7    1  0.2733256E-010  0.4778727E+02  0.7816164E-02  0.1312668E+00
        -11   -1    0    0    0    0  0.00000000000E+00  0.00000000000E+00  0.45593999997E+02  0.45594000000E+02  0.51100000000E-03 0. -1.
         11   -1    0    0    0    0 -0.00000000000E+00 -0.00000000000E+00 -0.45593999997E+02  0.45594000000E+02  0.51100000000E-03 0.  1.
    9900012    2    1    2    0    0 -0.33442094325E+02  0.15101471726E+02 -0.23177468762E+02  0.47787272133E+02  0.20000004964E+02 0.  0.
         12    1    1    2    0    0  0.33442094325E+02 -0.15101471726E+02  0.23177468762E+02  0.43400727867E+02  0.00000000000E+00 0. -1.
         11    1    3    3    0    0 -0.10562738502E+01  0.34817900821E+01  0.12298148254E+01  0.38407058450E+01  0.51100000000E-03 0. -1.
        -11    1    3    3    0    0 -0.76315893933E+01  0.83334568130E+01 -0.10164869836E+02  0.15199086754E+02  0.51100000000E-03 0.  1.
        -12    1    3    3    0    0 -0.24754231082E+02  0.32862248312E+01 -0.14242413751E+02  0.28747479534E+02  0.00000000000E+00 0.  1.
</event>
<event>
 7    1  0.2733256E-010  0.4778727E+02  0.7816164E-02  0.1312668E+00
        -11   -1    0    0    0    0  0.00000000000E+00  0.00000000000E+00  0.45593999997E+02  0.45594000000E+02  0.51100000000E-03 0. -1.
         11   -1    0    0    0    0 -0.00000000000E+00 -0.00000000000E+00 -0.45593999997E+02  0.45594000000E+02  0.51100000000E-03 0.  1.
    9900012    2    1    2    0    0 -0.10233101289E+02  0.15692259254E+02 -0.39149200585E+02  0.47787271101E+02  0.20000000259E+02 0.  0.
         12    1    1    2    0    0  0.10233101289E+02 -0.15692259254E+02  0.39149200585E+02  0.43400728899E+02  0.00000000000E+00 0. -1.
         11    1    3    3    0    0 -0.38892621043E+01 -0.26470814988E+00 -0.42197665317E+01  0.57448115691E+01  0.51100000000E-03 0. -1.
        -11    1    3    3    0    0 -0.98301321998E+01  0.51226338645E+01 -0.23127110778E+02  0.25646366799E+02  0.51100000000E-03 0.  1.
         12    1    3    3    0    0  0.34862930150E+01  0.10834333539E+02 -0.11802323275E+02  0.16396092733E+02  0.00000000000E+00 0. -1.
</event>
<event>
 7    1  0.2733256E-010  0.4778727E+02  0.7816164E-02  0.1312668E+00
        -11   -1    0    0    0    0  0.00000000000E+00  0.00000000000E+00  0.45593999997E+02  0.45594000000E+02  0.51100000000E-03 0. -1.
         11   -1    0    0    0    0 -0.00000000000E+00 -0.00000000000E+00 -0.45593999997E+02  0.45594000000E+02  0.51100000000E-03 0.  1.
    9900012    2    1    2    0    0 -0.22245803912E+02  0.10893624325E+02 -0.35638126975E+02  0.47787274926E+02  0.20000017699E+02 0.  0.
         12    1    1    2    0    0  0.22245803912E+02 -0.10893624325E+02  0.35638126975E+02  0.43400725074E+02  0.00000000000E+00 0. -1.
         11    1    3    3    0    0 -0.12492757284E+02  0.99877182324E+01 -0.11388621275E+02  0.19634770049E+02  0.51100000000E-03 0. -1.
        -11    1    3    3    0    0 -0.25453756263E+01 -0.23297132102E+01 -0.99295774004E+00  0.35906080342E+01  0.51100000000E-03 0.  1.
        -12    1    3    3    0    0 -0.72076710018E+01  0.32356193026E+01 -0.23256547960E+02  0.24561896843E+02  0.00000000000E+00 0.  1.
</event>
<event>
 7    1  0.2733256E-010  0.4778727E+02  0.7816164E-02  0.1312668E+00
        -11   -1    0    0    0    0  0.00000000000E+00  0.00000000000E+00  0.45593999997E+02  0.45594000000E+02  0.51100000000E-03 0.  1.
         11   -1    0    0    0    0 -0.00000000000E+00 -0.00000000000E+00 -0.45593999997E+02  0.45594000000E+02  0.51100000000E-03 0. -1.
    9900012    2    1    2    0    0 -0.15669423122E+02  0.15853158748E+02  0.37239362220E+02  0.47787267728E+02  0.19999984877E+02 0.  0.
         12    1    1    2    0    0  0.15669423122E+02 -0.15853158748E+02 -0.37239362220E+02  0.43400732272E+02  0.00000000000E+00 0. -1.
         11    1    3    3    0    0 -0.48523116144E+01  0.60319634011E+01  0.52638408726E+01  0.93614919467E+01  0.51100000000E-03 0. -1.
        -11    1    3    3    0    0 -0.10446619526E+02  0.13253815058E+02  0.21118796153E+02  0.27033294737E+02  0.51100000000E-03 0.  1.
         12    1    3    3    0    0 -0.37049198142E+00 -0.34326197117E+01  0.10856725194E+02  0.11392481044E+02  0.00000000000E+00 0. -1.
</event>
<event>
 7    1  0.2733256E-010  0.4778727E+02  0.7816164E-02  0.1312668E+00
        -11   -1    0    0    0    0  0.00000000000E+00  0.00000000000E+00  0.45593999997E+02  0.45594000000E+02  0.51100000000E-03 0.  1.
         11   -1    0    0    0    0 -0.00000000000E+00 -0.00000000000E+00 -0.45593999997E+02  0.45594000000E+02  0.51100000000E-03 0. -1.
    9900012    2    1    2    0    0  0.34715011934E+02 -0.35195961221E+01  0.25808986347E+02  0.47787269744E+02  0.19999994073E+02 0.  0.
         12    1    1    2    0    0 -0.34715011934E+02  0.35195961221E+01 -0.25808986347E+02  0.43400730256E+02  0.00000000000E+00 0. -1.
         11    1    3    3    0    0  0.13045629041E+02 -0.11807844525E+00  0.13123569145E+02  0.18504876302E+02  0.51100000000E-03 0. -1.
        -11    1    3    3    0    0  0.84283671548E+01  0.58037379737E+01  0.56339334380E+01  0.11681693097E+02  0.51100000000E-03 0.  1.
         12    1    3    3    0    0  0.13241015738E+02 -0.92052556505E+01  0.70514837639E+01  0.17600700345E+02  0.00000000000E+00 0. -1.
</event>
<event>
 7    1  0.2733256E-010  0.4778727E+02  0.7816164E-02  0.1312668E+00
        -11   -1    0    0    0    0  0.00000000000E+00  0.00000000000E+00  0.45593999997E+02  0.45594000000E+02  0.51100000000E-03 0. -1.
         11   -1    0    0    0    0 -0.00000000000E+00 -0.00000000000E+00 -0.45593999997E+02  0.45594000000E+02  0.51100000000E-03 0.  1.
    9900012    2    1    2    0    0  0.38262615742E+02  0.19923860601E+02 -0.47576928481E+01  0.47787266989E+02  0.19999981510E+02 0.  0.
         12    1    1    2    0    0 -0.38262615742E+02 -0.19923860601E+02  0.47576928481E+01  0.43400733011E+02  0.00000000000E+00 0. -1.
         11    1    3    3    0    0  0.22878406518E+01  0.43482698713E+01 -0.56518946185E+00  0.49458169306E+01  0.51100000000E-03 0. -1.
        -11    1    3    3    0    0  0.73442926259E+01  0.50635057608E+01 -0.81542215591E+01  0.12085903121E+02  0.51100000000E-03 0.  1.
         12    1    3    3    0    0  0.28630482464E+02  0.10512084969E+02  0.39617181729E+01  0.30755546937E+02  0.00000000000E+00 0. -1.
</event>
<event>
 7    1  0.2733256E-010  0.4778728E+02  0.7816164E-02  0.1312668E+00
        -11   -1    0    0    0    0  0.00000000000E+00  0.00000000000E+00  0.45593999997E+02  0.45594000000E+02  0.51100000000E-03 0.  1.
         11   -1    0    0    0    0 -0.00000000000E+00 -0.00000000000E+00 -0.45593999997E+02  0.45594000000E+02  0.51100000000E-03 0. -1.
    9900012    2    1    2    0    0 -0.23858591954E+02  0.35079856347E+02  0.91539017582E+01  0.47787278246E+02  0.20000032835E+02 0.  0.
         12    1    1    2    0    0  0.23858591954E+02 -0.35079856347E+02 -0.91539017582E+01  0.43400721754E+02  0.00000000000E+00 0. -1.
         11    1    3    3    0    0 -0.12010149512E+01  0.53871430111E+01  0.58396755281E+00  0.55502040592E+01  0.51100000000E-03 0. -1.
        -11    1    3    3    0    0 -0.24921052992E+02  0.28619137582E+02  0.10140461644E+02  0.39280311618E+02  0.51100000000E-03 0.  1.
         12    1    3    3    0    0  0.22634759897E+01  0.10735757538E+01 -0.15705274382E+01  0.29567625689E+01  0.00000000000E+00 0. -1.
</event>
<event>
 7    1  0.2733256E-010  0.4778727E+02  0.7816164E-02  0.1312668E+00
        -11   -1    0    0    0    0  0.00000000000E+00  0.00000000000E+00  0.45593999997E+02  0.45594000000E+02  0.51100000000E-03 0.  1.
         11   -1    0    0    0    0 -0.00000000000E+00 -0.00000000000E+00 -0.45593999997E+02  0.45594000000E+02  0.51100000000E-03 0. -1.
    9900012    2    1    2    0    0  0.12572344068E+02  0.51032937895E+01  0.41225184814E+02  0.47787270676E+02  0.19999998322E+02 0.  0.
         12    1    1    2    0    0 -0.12572344068E+02 -0.51032937895E+01 -0.41225184814E+02  0.43400729324E+02  0.00000000000E+00 0. -1.
         11    1    3    3    0    0 -0.13751161477E+01 -0.35775192316E+01  0.49144892731E+00  0.38640795258E+01  0.51100000000E-03 0. -1.
        -11    1    3    3    0    0  0.35009380602E+01  0.20422017238E+01  0.10304459012E+02  0.11072896233E+02  0.51100000000E-03 0.  1.
         12    1    3    3    0    0  0.10446522156E+02  0.66386112973E+01  0.30429276874E+02  0.32850294918E+02  0.00000000000E+00 0. -1.
</event>
<event>
 7    1  0.2733256E-010  0.4778729E+02  0.7816164E-02  0.1312668E+00
        -11   -1    0    0    0    0  0.00000000000E+00  0.00000000000E+00  0.45593999997E+02  0.45594000000E+02  0.51100000000E-03 0.  1.
         11   -1    0    0    0    0 -0.00000000000E+00 -0.00000000000E+00 -0.45593999997E+02  0.45594000000E+02  0.51100000000E-03 0. -1.
    9900012    2    1    2    0    0  0.39642072750E+02 -0.10811902311E+02  0.13972489516E+02  0.47787290020E+02  0.20000086517E+02 0.  0.
         12    1    1    2    0    0 -0.39642072750E+02  0.10811902311E+02 -0.13972489516E+02  0.43400709980E+02  0.00000000000E+00 0. -1.
         11    1    3    3    0    0  0.10437776026E+02 -0.15140393617E+01  0.60613274680E+01  0.12164669108E+02  0.51100000000E-03 0. -1.
        -11    1    3    3    0    0  0.25618118219E+02 -0.88080281831E+01  0.12452795720E+02  0.29815121383E+02  0.51100000000E-03 0.  1.
        -12    1    3    3    0    0  0.35861785046E+01 -0.48983476596E+00 -0.45416336726E+01  0.58074995291E+01  0.00000000000E+00 0.  1.
</event>
<event>
 7    1  0.2733256E-010  0.4778726E+02  0.7816164E-02  0.1312668E+00
        -11   -1    0    0    0    0  0.00000000000E+00  0.00000000000E+00  0.45593999997E+02  0.45594000000E+02  0.51100000000E-03 0.  1.
         11   -1    0    0    0    0 -0.00000000000E+00 -0.00000000000E+00 -0.45593999997E+02  0.45594000000E+02  0.51100000000E-03 0. -1.
    9900012    2    1    2    0    0 -0.24680896664E+02  0.24804705246E+02  0.25674963441E+02  0.47787264866E+02  0.19999971830E+02 0.  0.
         12    1    1    2    0    0  0.24680896664E+02 -0.24804705246E+02 -0.25674963441E+02  0.43400735134E+02  0.00000000000E+00 0. -1.
         11    1    3    3    0    0 -0.83699948532E+01  0.34139935162E+01  0.82549443164E+01  0.12241579616E+02  0.51100000000E-03 0. -1.
        -11    1    3    3    0    0 -0.19169217339E+02  0.16451781722E+02  0.14661302265E+02  0.29207427130E+02  0.51100000000E-03 0.  1.
        -12    1    3    3    0    0  0.28583155277E+01  0.49389300077E+01  0.27587168592E+01  0.63382581193E+01  0.00000000000E+00 0.  1.
</event>
<event>
 7    1  0.2733256E-010  0.4778728E+02  0.7816164E-02  0.1312668E+00
        -11   -1    0    0    0    0  0.00000000000E+00  0.00000000000E+00  0.45593999997E+02  0.45594000000E+02  0.51100000000E-03 0.  1.
         11   -1    0    0    0    0 -0.00000000000E+00 -0.00000000000E+00 -0.45593999997E+02  0.45594000000E+02  0.51100000000E-03 0. -1.
    9900012    2    1    2    0    0 -0.58835096623E+01  0.22082113115E+02  0.36896984555E+02  0.47787275642E+02  0.20000020960E+02 0.  0.
         12    1    1    2    0    0  0.58835096623E+01 -0.22082113115E+02 -0.36896984555E+02  0.43400724358E+02  0.00000000000E+00 0. -1.
         11    1    3    3    0    0 -0.68935944394E+00  0.38148735944E+01  0.77915176964E+01  0.87026562186E+01  0.51100000000E-03 0. -1.
        -11    1    3    3    0    0 -0.58171335578E+01  0.13435875760E+02  0.30655692596E+02  0.33972537277E+02  0.51100000000E-03 0.  1.
         12    1    3    3    0    0  0.62298333945E+00  0.48313637605E+01 -0.15502257370E+01  0.51120821456E+01  0.00000000000E+00 0. -1.
</event>
<event>
 7    1  0.2733256E-010  0.4778728E+02  0.7816164E-02  0.1312668E+00
        -11   -1    0    0    0    0  0.00000000000E+00  0.00000000000E+00  0.45593999997E+02  0.45594000000E+02  0.51100000000E-03 0.  1.
         11   -1    0    0    0    0 -0.00000000000E+00 -0.00000000000E+00 -0.45593999997E+02  0.45594000000E+02  0.51100000000E-03 0. -1.
    9900012    2    1    2    0    0 -0.15696203024E+02 -0.21257909200E+02  0.34428957729E+02  0.47787278540E+02  0.20000034174E+02 0.  0.
         12    1    1    2    0    0  0.15696203024E+02  0.21257909200E+02 -0.34428957729E+02  0.43400721460E+02  0.00000000000E+00 0. -1.
         11    1    3    3    0    0 -0.74658324684E+01 -0.12920210509E+02  0.21144308498E+02  0.25879572565E+02  0.51100000000E-03 0. -1.
        -11    1    3    3    0    0 -0.11844011341E+01 -0.92593737689E+01  0.11035843957E+02  0.14454364765E+02  0.51100000000E-03 0.  1.
         12    1    3    3    0    0 -0.70459694211E+01  0.92167507744E+00  0.22488052742E+01  0.74533412100E+01  0.00000000000E+00 0. -1.
</event>
<event>
 7    1  0.2733256E-010  0.4778727E+02  0.7816164E-02  0.1312668E+00
        -11   -1    0    0    0    0  0.00000000000E+00  0.00000000000E+00  0.45593999997E+02  0.45594000000E+02  0.51100000000E-03 0. -1.
         11   -1    0    0    0    0 -0.00000000000E+00 -0.00000000000E+00 -0.45593999997E+02  0.45594000000E+02  0.51100000000E-03 0.  1.
    9900012    2    1    2    0    0  0.23925313669E+02  0.18618896485E+02 -0.31057035476E+02  0.47787269672E+02  0.19999993741E+02 0.  0.
         12    1    1    2    0    0 -0.23925313669E+02 -0.18618896485E+02  0.31057035476E+02  0.43400730328E+02  0.00000000000E+00 0. -1.
         11    1    3    3    0    0  0.65105784647E+01  0.11206377969E+02 -0.14567815954E+02  0.19498507663E+02  0.51100000000E-03 0. -1.
        -11    1    3    3    0    0  0.41682609377E+01  0.89481221571E+00 -0.12187585973E+02  0.12911713297E+02  0.51100000000E-03 0.  1.
         12    1    3    3    0    0  0.13246474267E+02  0.65177062995E+01 -0.43016335486E+01  0.15377048712E+02  0.00000000000E+00 0. -1.
</event>
<event>
 7    1  0.2733256E-010  0.4778727E+02  0.7816164E-02  0.1312668E+00
        -11   -1    0    0    0    0  0.00000000000E+00  0.00000000000E+00  0.45593999997E+02  0.45594000000E+02  0.51100000000E-03 0.  1.
         11   -1    0    0    0    0 -0.00000000000E+00 -0.00000000000E+00 -0.45593999997E+02  0.45594000000E+02  0.51100000000E-03 0. -1.
    9900012    2    1    2    0    0  0.41516758851E+02  0.49088479312E+00  0.12638881463E+02  0.47787267771E+02  0.19999985074E+02 0.  0.
         12    1    1    2    0    0 -0.41516758851E+02 -0.49088479312E+00 -0.12638881463E+02  0.43400732229E+02  0.00000000000E+00 0. -1.
         11    1    3    3    0    0  0.23645313381E+01 -0.27225145474E+00  0.21548539733E+01  0.32106892112E+01  0.51100000000E-03 0. -1.
        -11    1    3    3    0    0  0.38667592361E+02 -0.11153750916E+01  0.13516108623E+02  0.40976968570E+02  0.51100000000E-03 0.  1.
         12    1    3    3    0    0  0.48463515223E+00  0.18785113395E+01 -0.30320811331E+01  0.35996099901E+01  0.00000000000E+00 0. -1.
</event>
<event>
 7    1  0.2733256E-010  0.4778727E+02  0.7816164E-02  0.1312668E+00
        -11   -1    0    0    0    0  0.00000000000E+00  0.00000000000E+00  0.45593999997E+02  0.45594000000E+02  0.51100000000E-03 0.  1.
         11   -1    0    0    0    0 -0.00000000000E+00 -0.00000000000E+00 -0.45593999997E+02  0.45594000000E+02  0.51100000000E-03 0. -1.
    9900012    2    1    2    0    0  0.41358303379E+01 -0.11880231788E+02  0.41537675114E+02  0.47787268972E+02  0.19999990549E+02 0.  0.
         12    1    1    2    0    0 -0.41358303379E+01  0.11880231788E+02 -0.41537675114E+02  0.43400731028E+02  0.00000000000E+00 0. -1.
         11    1    3    3    0    0 -0.38138454014E+00  0.15989037920E+01  0.11142982120E+02  0.11263569518E+02  0.51100000000E-03 0. -1.
        -11    1    3    3    0    0  0.73690264259E+01 -0.25338978812E+01  0.67359944544E+01  0.10300330601E+02  0.51100000000E-03 0.  1.
        -12    1    3    3    0    0 -0.28518115479E+01 -0.10945237698E+02  0.23658698540E+02  0.26223368853E+02  0.00000000000E+00 0.  1.
</event>
<event>
 7    1  0.2733256E-010  0.4778727E+02  0.7816164E-02  0.1312668E+00
        -11   -1    0    0    0    0  0.00000000000E+00  0.00000000000E+00  0.45593999997E+02  0.45594000000E+02  0.51100000000E-03 0. -1.
         11   -1    0    0    0    0 -0.00000000000E+00 -0.00000000000E+00 -0.45593999997E+02  0.45594000000E+02  0.51100000000E-03 0.  1.
    9900012    2    1    2    0    0  0.93284256130E+00 -0.36481620231E+02 -0.23491370242E+02  0.47787270907E+02  0.19999999376E+02 0.  0.
         12    1    1    2    0    0 -0.93284256130E+00  0.36481620231E+02  0.23491370242E+02  0.43400729093E+02  0.00000000000E+00 0. -1.
         11    1    3    3    0    0  0.72374613233E+01 -0.14581801994E+02 -0.65951903054E+01  0.17564348300E+02  0.51100000000E-03 0. -1.
        -11    1    3    3    0    0  0.27006926255E+01 -0.74539881511E+01 -0.66998860505E+01  0.10379988120E+02  0.51100000000E-03 0.  1.
         12    1    3    3    0    0 -0.90053113875E+01 -0.14445830086E+02 -0.10196293886E+02  0.19842934488E+02  0.00000000000E+00 0. -1.
</event>
<event>
 7    1  0.2733256E-010  0.4778727E+02  0.7816164E-02  0.1312668E+00
        -11   -1    0    0    0    0  0.00000000000E+00  0.00000000000E+00  0.45593999997E+02  0.45594000000E+02  0.51100000000E-03 0. -1.
         11   -1    0    0    0    0 -0.00000000000E+00 -0.00000000000E+00 -0.45593999997E+02  0.45594000000E+02  0.51100000000E-03 0.  1.
    9900012    2    1    2    0    0  0.42325199258E+02  0.51522934934E+01 -0.81027457606E+01  0.47787272940E+02  0.20000008643E+02 0.  0.
         12    1    1    2    0    0 -0.42325199258E+02 -0.51522934934E+01  0.81027457606E+01  0.43400727060E+02  0.00000000000E+00 0. -1.
         11    1    3    3    0    0  0.11455415169E+02  0.15174844553E+00 -0.80104225225E+01  0.13979142804E+02  0.51100000000E-03 0. -1.
        -11    1    3    3    0    0  0.47023376720E+01 -0.38261550279E+01  0.11226620867E+01  0.61653720327E+01  0.51100000000E-03 0.  1.
         12    1    3    3    0    0  0.26167446417E+02  0.88267000757E+01 -0.12149853247E+01  0.27642758104E+02  0.00000000000E+00 0. -1.
</event>
<event>
 7    1  0.2733256E-010  0.4778727E+02  0.7816164E-02  0.1312668E+00
        -11   -1    0    0    0    0  0.00000000000E+00  0.00000000000E+00  0.45593999997E+02  0.45594000000E+02  0.51100000000E-03 0.  1.
         11   -1    0    0    0    0 -0.00000000000E+00 -0.00000000000E+00 -0.45593999997E+02  0.45594000000E+02  0.51100000000E-03 0. -1.
    9900012    2    1    2    0    0  0.30135077637E+01  0.43023177737E+02  0.48526245199E+01  0.47787274011E+02  0.20000013528E+02 0.  0.
         12    1    1    2    0    0 -0.30135077637E+01 -0.43023177737E+02 -0.48526245199E+01  0.43400725989E+02  0.00000000000E+00 0. -1.
         11    1    3    3    0    0  0.77232588261E+01  0.16747248256E+02  0.37695625743E+01  0.18823619559E+02  0.51100000000E-03 0. -1.
        -11    1    3    3    0    0 -0.22672053791E+00  0.81985679858E+01  0.54323883948E+01  0.98376197910E+01  0.51100000000E-03 0.  1.
        -12    1    3    3    0    0 -0.44830305246E+01  0.18077361495E+02 -0.43493264493E+01  0.19126034661E+02  0.00000000000E+00 0.  1.
</event>
<event>
 7    1  0.2733256E-010  0.4778727E+02  0.7816164E-02  0.1312668E+00
        -11   -1    0    0    0    0  0.00000000000E+00  0.00000000000E+00  0.45593999997E+02  0.45594000000E+02  0.51100000000E-03 0. -1.
         11   -1    0    0    0    0 -0.00000000000E+00 -0.00000000000E+00 -0.45593999997E+02  0.45594000000E+02  0.51100000000E-03 0.  1.
    9900012    2    1    2    0    0 -0.10881856153E+02  0.10280490879E+02 -0.40737203854E+02  0.47787273464E+02  0.20000011031E+02 0.  0.
         12    1    1    2    0    0  0.10881856153E+02 -0.10280490879E+02  0.40737203854E+02  0.43400726536E+02  0.00000000000E+00 0. -1.
         11    1    3    3    0    0  0.34806125553E+01  0.22471212732E+01 -0.19490237283E+02  0.19925701177E+02  0.51100000000E-03 0. -1.
        -11    1    3    3    0    0 -0.85526468667E+01  0.89458931280E+00 -0.12438585892E+02  0.15121722049E+02  0.51100000000E-03 0.  1.
        -12    1    3    3    0    0 -0.58098218421E+01  0.71387802932E+01 -0.88083806781E+01  0.12739850238E+02  0.00000000000E+00 0.  1.
</event>
<event>
 7    1  0.2733256E-010  0.4778727E+02  0.7816164E-02  0.1312668E+00
        -11   -1    0    0    0    0  0.00000000000E+00  0.00000000000E+00  0.45593999997E+02  0.45594000000E+02  0.51100000000E-03 0. -1.
         11   -1    0    0    0    0 -0.00000000000E+00 -0.00000000000E+00 -0.45593999997E+02  0.45594000000E+02  0.51100000000E-03 0.  1.
    9900012    2    1    2    0    0  0.76516587287E+00 -0.42893603163E+02 -0.65708868815E+01  0.47787271601E+02  0.20000002539E+02 0.  0.
         12    1    1    2    0    0 -0.76516587287E+00  0.42893603163E+02  0.65708868815E+01  0.43400728399E+02  0.00000000000E+00 0. -1.
         11    1    3    3    0    0  0.14269564368E+00 -0.13523685652E+02  0.25214755547E+01  0.13757480689E+02  0.51100000000E-03 0. -1.
        -11    1    3    3    0    0  0.14596648820E+01  0.84984431489E+00  0.12248446534E+01  0.20864087839E+01  0.51100000000E-03 0.  1.
        -12    1    3    3    0    0 -0.83719465282E+00 -0.30219761826E+02 -0.10317207090E+02  0.31943382129E+02  0.00000000000E+00 0.  1.
</event>
<event>
 7    1  0.2733256E-010  0.4778728E+02  0.7816164E-02  0.1312668E+00
        -11   -1    0    0    0    0  0.00000000000E+00  0.00000000000E+00  0.45593999997E+02  0.45594000000E+02  0.51100000000E-03 0.  1.
         11   -1    0    0    0    0 -0.00000000000E+00 -0.00000000000E+00 -0.45593999997E+02  0.45594000000E+02  0.51100000000E-03 0. -1.
    9900012    2    1    2    0    0  0.26409241991E+01 -0.39787164743E+02  0.17135615706E+02  0.47787282442E+02  0.20000051965E+02 0.  0.
         12    1    1    2    0    0 -0.26409241991E+01  0.39787164743E+02 -0.17135615706E+02  0.43400717558E+02  0.00000000000E+00 0. -1.
         11    1    3    3    0    0  0.31823601864E+01 -0.81524360875E+01 -0.60469896071E+00  0.87724165206E+01  0.51100000000E-03 0. -1.
        -11    1    3    3    0    0  0.18607350325E+01 -0.30236934308E+02  0.11901101662E+02  0.32547976162E+02  0.51100000000E-03 0.  1.
        -12    1    3    3    0    0 -0.24021710197E+01 -0.13977943482E+01  0.58392130048E+01  0.64668897596E+01  0.00000000000E+00 0.  1.
</event>
<event>
 7    1  0.2733256E-010  0.4778726E+02  0.7816164E-02  0.1312668E+00
        -11   -1    0    0    0    0  0.00000000000E+00  0.00000000000E+00  0.45593999997E+02  0.45594000000E+02  0.51100000000E-03 0.  1.
         11   -1    0    0    0    0 -0.00000000000E+00 -0.00000000000E+00 -0.45593999997E+02  0.45594000000E+02  0.51100000000E-03 0. -1.
    9900012    2    1    2    0    0 -0.25607621201E+02 -0.10032349072E+02  0.33574179382E+02  0.47787264837E+02  0.19999971699E+02 0.  0.
         12    1    1    2    0    0  0.25607621201E+02  0.10032349072E+02 -0.33574179382E+02  0.43400735163E+02  0.00000000000E+00 0. -1.
         11    1    3    3    0    0 -0.75729354306E+01 -0.16335021383E+01  0.59873577494E+01  0.97911252342E+01  0.51100000000E-03 0. -1.
        -11    1    3    3    0    0 -0.14292540721E+02 -0.63491779788E+01  0.29446362036E+02  0.33341820866E+02  0.51100000000E-03 0.  1.
         12    1    3    3    0    0 -0.37421450493E+01 -0.20496689548E+01 -0.18595404030E+01  0.46543187369E+01  0.00000000000E+00 0. -1.
</event>
<event>
 7    1  0.2733256E-010  0.4778728E+02  0.7816164E-02  0.1312668E+00
        -11   -1    0    0    0    0  0.00000000000E+00  0.00000000000E+00  0.45593999997E+02  0.45594000000E+02  0.51100000000E-03 0.  1.
         11   -1    0    0    0    0 -0.00000000000E+00 -0.00000000000E+00 -0.45593999997E+02  0.45594000000E+02  0.51100000000E-03 0. -1.
    9900012    2    1    2    0    0  0.41007192409E+02  0.13923725591E+02 -0.28570516701E+01  0.47787277565E+02  0.20000029731E+02 0.  0.
         12    1    1    2    0    0 -0.41007192409E+02 -0.13923725591E+02  0.28570516701E+01  0.43400722435E+02  0.00000000000E+00 0. -1.
         11    1    3    3    0    0  0.20637743493E+02  0.57344278870E+01  0.23618718004E+01  0.21549444502E+02  0.51100000000E-03 0. -1.
        -11    1    3    3    0    0  0.11765896530E+02  0.21513090368E+00  0.27138179538E+01  0.12076730129E+02  0.51100000000E-03 0.  1.
         12    1    3    3    0    0  0.86035523862E+01  0.79741668002E+01 -0.79327414243E+01  0.14161102935E+02  0.00000000000E+00 0. -1.
</event>
<event>
 7    1  0.2733256E-010  0.4778727E+02  0.7816164E-02  0.1312668E+00
        -11   -1    0    0    0    0  0.00000000000E+00  0.00000000000E+00  0.45593999997E+02  0.45594000000E+02  0.51100000000E-03 0. -1.
         11   -1    0    0    0    0 -0.00000000000E+00 -0.00000000000E+00 -0.45593999997E+02  0.45594000000E+02  0.51100000000E-03 0.  1.
    9900012    2    1    2    0    0  0.12231709723E+02  0.31755195570E+02 -0.26937264288E+02  0.47787269871E+02  0.19999994650E+02 0.  0.
         12    1    1    2    0    0 -0.12231709723E+02 -0.31755195570E+02  0.26937264288E+02  0.43400730129E+02  0.00000000000E+00 0. -1.
         11    1    3    3    0    0 -0.23427119679E+01 -0.20032409780E+00 -0.42978691526E+00  0.23902188524E+01  0.51100000000E-03 0. -1.
        -11    1    3    3    0    0  0.94758849262E+01  0.84792473584E+01 -0.74937439978E+01  0.14759614841E+02  0.51100000000E-03 0.  1.
         12    1    3    3    0    0  0.50985367643E+01  0.23476272309E+02 -0.19013733374E+02  0.30637436177E+02  0.00000000000E+00 0. -1.
</event>
<event>
 7    1  0.2733256E-010  0.4778727E+02  0.7816164E-02  0.1312668E+00
        -11   -1    0    0    0    0  0.00000000000E+00  0.00000000000E+00  0.45593999997E+02  0.45594000000E+02  0.51100000000E-03 0.  1.
         11   -1    0    0    0    0 -0.00000000000E+00 -0.00000000000E+00 -0.45593999997E+02  0.45594000000E+02  0.51100000000E-03 0. -1.
    9900012    2    1    2    0    0 -0.14112173589E+02  0.28336793276E+02  0.29689995887E+02  0.47787272444E+02  0.20000006383E+02 0.  0.
         12    1    1    2    0    0  0.14112173589E+02 -0.28336793276E+02 -0.29689995887E+02  0.43400727556E+02  0.00000000000E+00 0. -1.
         11    1    3    3    0    0 -0.60711711038E+01  0.31123536865E+01  0.79088232406E+01  0.10444871917E+02  0.51100000000E-03 0.  1.
        -11    1    3    3    0    0 -0.33455313521E+01  0.18598365350E+02  0.22269599780E+02  0.29206623364E+02  0.51100000000E-03 0. -1.
         12    1    3    3    0    0 -0.46954711327E+01  0.66260742403E+01 -0.48842713346E+00  0.81357771639E+01  0.00000000000E+00 0. -1.
</event>
<event>
 7    1  0.2733256E-010  0.4778727E+02  0.7816164E-02  0.1312668E+00
        -11   -1    0    0    0    0  0.00000000000E+00  0.00000000000E+00  0.45593999997E+02  0.45594000000E+02  0.51100000000E-03 0.  1.
         11   -1    0    0    0    0 -0.00000000000E+00 -0.00000000000E+00 -0.45593999997E+02  0.45594000000E+02  0.51100000000E-03 0. -1.
    9900012    2    1    2    0    0 -0.30482492970E+02 -0.18610693867E+02  0.24659339929E+02  0.47787270172E+02  0.19999996022E+02 0.  0.
         12    1    1    2    0    0  0.30482492970E+02  0.18610693867E+02 -0.24659339929E+02  0.43400729828E+02  0.00000000000E+00 0. -1.
         11    1    3    3    0    0 -0.14309060368E+02 -0.38546431350E+01  0.12945931986E+02  0.19677516041E+02  0.51100000000E-03 0. -1.
        -11    1    3    3    0    0 -0.90881349110E+01 -0.23808566617E+01  0.10043036325E+02  0.13752281756E+02  0.51100000000E-03 0.  1.
        -12    1    3    3    0    0 -0.70852976911E+01 -0.12375194070E+02  0.16703716177E+01  0.14357472375E+02  0.00000000000E+00 0.  1.
</event>
<event>
 7    1  0.2733256E-010  0.4778729E+02  0.7816164E-02  0.1312668E+00
        -11   -1    0    0    0    0  0.00000000000E+00  0.00000000000E+00  0.45593999997E+02  0.45594000000E+02  0.51100000000E-03 0.  1.
         11   -1    0    0    0    0 -0.00000000000E+00 -0.00000000000E+00 -0.45593999997E+02  0.45594000000E+02  0.51100000000E-03 0. -1.
    9900012    2    1    2    0    0 -0.27608985068E+02 -0.26141155402E+02  0.20928581293E+02  0.47787290592E+02  0.20000089124E+02 0.  0.
         12    1    1    2    0    0  0.27608985068E+02  0.26141155402E+02 -0.20928581293E+02  0.43400709408E+02  0.00000000000E+00 0. -1.
         11    1    3    3    0    0 -0.65011006699E+01 -0.58104030284E+01  0.42761620774E+00  0.87297164419E+01  0.51100000000E-03 0. -1.
        -11    1    3    3    0    0  0.23913546421E+01 -0.12159994640E+01  0.31908295568E+01  0.41687678326E+01  0.51100000000E-03 0.  1.
        -12    1    3    3    0    0 -0.23499239040E+02 -0.19114752909E+02  0.17310135528E+02  0.34888806317E+02  0.00000000000E+00 0.  1.
</event>
<event>
 7    1  0.2733256E-010  0.4778727E+02  0.7816164E-02  0.1312668E+00
        -11   -1    0    0    0    0  0.00000000000E+00  0.00000000000E+00  0.45593999997E+02  0.45594000000E+02  0.51100000000E-03 0.  1.
         11   -1    0    0    0    0 -0.00000000000E+00 -0.00000000000E+00 -0.45593999997E+02  0.45594000000E+02  0.51100000000E-03 0. -1.
    9900012    2    1    2    0    0 -0.26491505168E+02 -0.23864454722E+01  0.34294732938E+02  0.47787266419E+02  0.19999978913E+02 0.  0.
         12    1    1    2    0    0  0.26491505168E+02  0.23864454722E+01 -0.34294732938E+02  0.43400733581E+02  0.00000000000E+00 0. -1.
         11    1    3    3    0    0 -0.48341140540E+00  0.54098530935E+00 -0.84196749685E+00  0.11114230602E+01  0.51100000000E-03 0. -1.
        -11    1    3    3    0    0 -0.16121531265E+02 -0.91118268016E+01  0.17151730422E+02  0.25241058115E+02  0.51100000000E-03 0.  1.
        -12    1    3    3    0    0 -0.98865624974E+01  0.61843960201E+01  0.17984970012E+02  0.21434785245E+02  0.00000000000E+00 0.  1.
</event>
<event>
 7    1  0.2733256E-010  0.4778724E+02  0.7816164E-02  0.1312668E+00
        -11   -1    0    0    0    0  0.00000000000E+00  0.00000000000E+00  0.45593999997E+02  0.45594000000E+02  0.51100000000E-03 0.  1.
         11   -1    0    0    0    0 -0.00000000000E+00 -0.00000000000E+00 -0.45593999997E+02  0.45594000000E+02  0.51100000000E-03 0. -1.
    9900012    2    1    2    0    0 -0.13956126817E+02  0.27145691961E+02  0.30853912876E+02  0.47787239551E+02  0.19999856410E+02 0.  0.
         12    1    1    2    0    0  0.13956126817E+02 -0.27145691961E+02 -0.30853912876E+02  0.43400760449E+02  0.00000000000E+00 0. -1.
         11    1    3    3    0    0 -0.82315999848E+00  0.13328936755E+02  0.79360399697E+01  0.15534441672E+02  0.51100000000E-03 0. -1.
        -11    1    3    3    0    0 -0.32211782968E+00  0.62366044269E+01  0.12835820426E+02  0.14274357462E+02  0.51100000000E-03 0.  1.
        -12    1    3    3    0    0 -0.12810848988E+02  0.75801507793E+01  0.10082052480E+02  0.17978440418E+02  0.00000000000E+00 0.  1.
</event>
<event>
 7    1  0.2733256E-010  0.4778727E+02  0.7816164E-02  0.1312668E+00
        -11   -1    0    0    0    0  0.00000000000E+00  0.00000000000E+00  0.45593999997E+02  0.45594000000E+02  0.51100000000E-03 0. -1.
         11   -1    0    0    0    0 -0.00000000000E+00 -0.00000000000E+00 -0.45593999997E+02  0.45594000000E+02  0.51100000000E-03 0.  1.
    9900012    2    1    2    0    0  0.33278212374E+01 -0.17277996836E+02 -0.39673923575E+02  0.47787265206E+02  0.19999973378E+02 0.  0.
         12    1    1    2    0    0 -0.33278212374E+01  0.17277996836E+02  0.39673923575E+02  0.43400734794E+02  0.00000000000E+00 0. -1.
         11    1    3    3    0    0  0.68848853938E-01 -0.60650583897E+01 -0.97129617797E+01  0.11451257583E+02  0.51100000000E-03 0. -1.
        -11    1    3    3    0    0 -0.39121181961E+01 -0.83782332505E+01 -0.26145968920E+02  0.27732853301E+02  0.51100000000E-03 0.  1.
         12    1    3    3    0    0  0.71710905795E+01 -0.28347051953E+01 -0.38149928757E+01  0.86031543219E+01  0.00000000000E+00 0. -1.
</event>
<event>
 7    1  0.2733256E-010  0.4778727E+02  0.7816164E-02  0.1312668E+00
        -11   -1    0    0    0    0  0.00000000000E+00  0.00000000000E+00  0.45593999997E+02  0.45594000000E+02  0.51100000000E-03 0. -1.
         11   -1    0    0    0    0 -0.00000000000E+00 -0.00000000000E+00 -0.45593999997E+02  0.45594000000E+02  0.51100000000E-03 0.  1.
    9900012    2    1    2    0    0  0.11348343631E+02  0.32393787293E+02 -0.26560893090E+02  0.47787269591E+02  0.19999993372E+02 0.  0.
         12    1    1    2    0    0 -0.11348343631E+02 -0.32393787293E+02  0.26560893090E+02  0.43400730409E+02  0.00000000000E+00 0. -1.
         11    1    3    3    0    0  0.21226273261E+01 -0.83019917460E+00  0.11052531161E+01  0.25330539171E+01  0.51100000000E-03 0. -1.
        -11    1    3    3    0    0  0.93284031339E+00 -0.26840905859E+00 -0.20912577613E+01  0.23055571471E+01  0.51100000000E-03 0.  1.
        -12    1    3    3    0    0  0.82928759915E+01  0.33492395526E+02 -0.25574888445E+02  0.42948658527E+02  0.00000000000E+00 0.  1.
</event>
<event>
 7    1  0.2733256E-010  0.4778727E+02  0.7816164E-02  0.1312668E+00
        -11   -1    0    0    0    0  0.00000000000E+00  0.00000000000E+00  0.45593999997E+02  0.45594000000E+02  0.51100000000E-03 0.  1.
         11   -1    0    0    0    0 -0.00000000000E+00 -0.00000000000E+00 -0.45593999997E+02  0.45594000000E+02  0.51100000000E-03 0. -1.
    9900012    2    1    2    0    0  0.31850512296E+02  0.17597993224E+01  0.29429087099E+02  0.47787271957E+02  0.20000004163E+02 0.  0.
         12    1    1    2    0    0 -0.31850512296E+02 -0.17597993224E+01 -0.29429087099E+02  0.43400728043E+02  0.00000000000E+00 0. -1.
         11    1    3    3    0    0  0.45425678496E+01  0.93152737043E+00 -0.57487507447E+00  0.46725953733E+01  0.51100000000E-03 0. -1.
        -11    1    3    3    0    0  0.92977358357E+01  0.73025727999E+01  0.11321182259E+02  0.16369014301E+02  0.51100000000E-03 0.  1.
        -12    1    3    3    0    0  0.18010208610E+02 -0.64743008480E+01  0.18682779914E+02  0.26745662283E+02  0.00000000000E+00 0.  1.
</event>
<event>
 7    1  0.2733256E-010  0.4778727E+02  0.7816164E-02  0.1312668E+00
        -11   -1    0    0    0    0  0.00000000000E+00  0.00000000000E+00  0.45593999997E+02  0.45594000000E+02  0.51100000000E-03 0.  1.
         11   -1    0    0    0    0 -0.00000000000E+00 -0.00000000000E+00 -0.45593999997E+02  0.45594000000E+02  0.51100000000E-03 0. -1.
    9900012    2    1    2    0    0 -0.31114324518E+02 -0.30251010671E+02 -0.63140416192E+00  0.47787268346E+02  0.19999987699E+02 0.  0.
         12    1    1    2    0    0  0.31114324518E+02  0.30251010671E+02  0.63140416192E+00  0.43400731654E+02  0.00000000000E+00 0. -1.
         11    1    3    3    0    0 -0.13037597618E+02 -0.62969265615E+01 -0.24614478156E+01  0.14686352896E+02  0.51100000000E-03 0. -1.
        -11    1    3    3    0    0 -0.19475134557E+02 -0.22439175674E+02 -0.84459209442E+00  0.29723909686E+02  0.51100000000E-03 0.  1.
        -12    1    3    3    0    0  0.13984076577E+01 -0.15149084354E+01  0.26746357481E+01  0.33770057640E+01  0.00000000000E+00 0.  1.
</event>
<event>
 7    1  0.2733256E-010  0.4778727E+02  0.7816164E-02  0.1312668E+00
        -11   -1    0    0    0    0  0.00000000000E+00  0.00000000000E+00  0.45593999997E+02  0.45594000000E+02  0.51100000000E-03 0. -1.
         11   -1    0    0    0    0 -0.00000000000E+00 -0.00000000000E+00 -0.45593999997E+02  0.45594000000E+02  0.51100000000E-03 0.  1.
    9900012    2    1    2    0    0 -0.18114370243E+02  0.39419828301E+02  0.12529266037E+01  0.47787273075E+02  0.20000009257E+02 0.  0.
         12    1    1    2    0    0  0.18114370243E+02 -0.39419828301E+02 -0.12529266037E+01  0.43400726925E+02  0.00000000000E+00 0. -1.
         11    1    3    3    0    0  0.17545453636E+01  0.27791210166E+01  0.37952734831E+01  0.50205621329E+01  0.51100000000E-03 0. -1.
        -11    1    3    3    0    0 -0.95226792641E+01  0.11100721048E+02 -0.40296879838E+01  0.15170557460E+02  0.51100000000E-03 0.  1.
        -12    1    3    3    0    0 -0.10346236343E+02  0.25539986237E+02  0.14873411044E+01  0.27596153482E+02  0.00000000000E+00 0.  1.
</event>
<event>
 7    1  0.2733256E-010  0.4778728E+02  0.7816164E-02  0.1312668E+00
        -11   -1    0    0    0    0  0.00000000000E+00  0.00000000000E+00  0.45593999997E+02  0.45594000000E+02  0.51100000000E-03 0.  1.
         11   -1    0    0    0    0 -0.00000000000E+00 -0.00000000000E+00 -0.45593999997E+02  0.45594000000E+02  0.51100000000E-03 0. -1.
    9900012    2    1    2    0    0  0.18055125485E+02  0.39119732075E+02  0.52231502564E+01  0.47787282351E+02  0.20000051549E+02 0.  0.
         12    1    1    2    0    0 -0.18055125485E+02 -0.39119732075E+02 -0.52231502564E+01  0.43400717649E+02  0.00000000000E+00 0. -1.
         11    1    3    3    0    0 -0.91893517589E+00  0.41650212532E+01 -0.25377099101E+00  0.42727326003E+01  0.51100000000E-03 0. -1.
        -11    1    3    3    0    0  0.13542782773E+02  0.35206750790E+02  0.50927416353E+01  0.38063871113E+02  0.51100000000E-03 0.  1.
         12    1    3    3    0    0  0.54312778875E+01 -0.25203996865E+00  0.38417961206E+00  0.54506786377E+01  0.00000000000E+00 0. -1.
</event>
<event>
 7    1  0.2733256E-010  0.4778727E+02  0.7816164E-02  0.1312668E+00
        -11   -1    0    0    0    0  0.00000000000E+00  0.00000000000E+00  0.45593999997E+02  0.45594000000E+02  0.51100000000E-03 0.  1.
         11   -1    0    0    0    0 -0.00000000000E+00 -0.00000000000E+00 -0.45593999997E+02  0.45594000000E+02  0.51100000000E-03 0. -1.
    9900012    2    1    2    0    0  0.14461465636E+02  0.16704560021E+02  0.37355684576E+02  0.47787268624E+02  0.19999988965E+02 0.  0.
         12    1    1    2    0    0 -0.14461465636E+02 -0.16704560021E+02 -0.37355684576E+02  0.43400731376E+02  0.00000000000E+00 0. -1.
         11    1    3    3    0    0  0.52219831178E+01 -0.28057245651E+01  0.88706881564E+01  0.10669128673E+02  0.51100000000E-03 0. -1.
        -11    1    3    3    0    0  0.12498267757E+01  0.59214639321E+01  0.15685547816E+02  0.16812561156E+02  0.51100000000E-03 0.  1.
         12    1    3    3    0    0  0.79896557429E+01  0.13588820654E+02  0.12799448603E+02  0.20305578795E+02  0.00000000000E+00 0. -1.
</event>
<event>
 7    1  0.2733256E-010  0.4778727E+02  0.7816164E-02  0.1312668E+00
        -11   -1    0    0    0    0  0.00000000000E+00  0.00000000000E+00  0.45593999997E+02  0.45594000000E+02  0.51100000000E-03 0. -1.
         11   -1    0    0    0    0 -0.00000000000E+00 -0.00000000000E+00 -0.45593999997E+02  0.45594000000E+02  0.51100000000E-03 0.  1.
    9900012    2    1    2    0    0  0.39242003325E+02 -0.37335907372E+01  0.18158981304E+02  0.47787272740E+02  0.20000007729E+02 0.  0.
         12    1    1    2    0    0 -0.39242003325E+02  0.37335907372E+01 -0.18158981304E+02  0.43400727260E+02  0.00000000000E+00 0. -1.
         11    1    3    3    0    0  0.51962057279E+00 -0.25659652116E+01 -0.13730437594E+01  0.29562531071E+01  0.51100000000E-03 0. -1.
        -11    1    3    3    0    0  0.18934383738E+02 -0.61717591164E+01  0.88314103874E+01  0.21785208464E+02  0.51100000000E-03 0.  1.
         12    1    3    3    0    0  0.19787999013E+02  0.50041335908E+01  0.10700614676E+02  0.23045811168E+02  0.00000000000E+00 0. -1.
</event>
<event>
 7    1  0.2733256E-010  0.4778722E+02  0.7816164E-02  0.1312668E+00
        -11   -1    0    0    0    0  0.00000000000E+00  0.00000000000E+00  0.45593999997E+02  0.45594000000E+02  0.51100000000E-03 0.  1.
         11   -1    0    0    0    0 -0.00000000000E+00 -0.00000000000E+00 -0.45593999997E+02  0.45594000000E+02  0.51100000000E-03 0. -1.
    9900012    2    1    2    0    0 -0.33234127004E+02  0.14054841049E+01  0.27877318440E+02  0.47787222740E+02  0.19999779762E+02 0.  0.
         12    1    1    2    0    0  0.33234127004E+02 -0.14054841049E+01 -0.27877318440E+02  0.43400777260E+02  0.00000000000E+00 0. -1.
         11    1    3    3    0    0 -0.18032054882E+02 -0.26240020946E+01  0.88924869800E+01  0.20276013297E+02  0.51100000000E-03 0. -1.
        -11    1    3    3    0    0 -0.50938839863E+01 -0.39902980775E+01  0.95113486252E+01  0.11503733557E+02  0.51100000000E-03 0.  1.
        -12    1    3    3    0    0 -0.10108188136E+02  0.80197842770E+01  0.94734828351E+01  0.16007475887E+02  0.00000000000E+00 0.  1.
</event>
<event>
 7    1  0.2733256E-010  0.4778726E+02  0.7816164E-02  0.1312668E+00
        -11   -1    0    0    0    0  0.00000000000E+00  0.00000000000E+00  0.45593999997E+02  0.45594000000E+02  0.51100000000E-03 0.  1.
         11   -1    0    0    0    0 -0.00000000000E+00 -0.00000000000E+00 -0.45593999997E+02  0.45594000000E+02  0.51100000000E-03 0. -1.
    9900012    2    1    2    0    0 -0.21959796322E+02 -0.25205167498E+02  0.27678358684E+02  0.47787255047E+02  0.19999927059E+02 0.  0.
         12    1    1    2    0    0  0.21959796322E+02  0.25205167498E+02 -0.27678358684E+02  0.43400744953E+02  0.00000000000E+00 0. -1.
         11    1    3    3    0    0 -0.79250299082E+01 -0.21710822317E+02  0.13486878571E+02  0.26759331056E+02  0.51100000000E-03 0. -1.
        -11    1    3    3    0    0 -0.29558260925E+01 -0.18731235291E+01  0.83235147112E+00  0.35969860824E+01  0.51100000000E-03 0.  1.
        -12    1    3    3    0    0 -0.11078940321E+02 -0.16212216518E+01  0.13359128642E+02  0.17430937908E+02  0.00000000000E+00 0.  1.
</event>
<event>
 7    1  0.2733256E-010  0.4778727E+02  0.7816164E-02  0.1312668E+00
        -11   -1    0    0    0    0  0.00000000000E+00  0.00000000000E+00  0.45593999997E+02  0.45594000000E+02  0.51100000000E-03 0.  1.
         11   -1    0    0    0    0 -0.00000000000E+00 -0.00000000000E+00 -0.45593999997E+02  0.45594000000E+02  0.51100000000E-03 0. -1.
    9900012    2    1    2    0    0 -0.79785549108E+01  0.42050047929E+02  0.71944007885E+01  0.47787271066E+02  0.20000000099E+02 0.  0.
         12    1    1    2    0    0  0.79785549108E+01 -0.42050047929E+02 -0.71944007885E+01  0.43400728934E+02  0.00000000000E+00 0. -1.
         11    1    3    3    0    0  0.42096059017E+00  0.53534376600E+01  0.54520884015E+01  0.76525662883E+01  0.51100000000E-03 0. -1.
        -11    1    3    3    0    0  0.32524719174E+01  0.16162344262E+02  0.83012293819E+00  0.16507242349E+02  0.51100000000E-03 0.  1.
        -12    1    3    3    0    0 -0.11651987418E+02  0.20534266007E+02  0.91218944885E+00  0.23627462429E+02  0.00000000000E+00 0.  1.
</event>
<event>
 7    1  0.2733256E-010  0.4778727E+02  0.7816164E-02  0.1312668E+00
        -11   -1    0    0    0    0  0.00000000000E+00  0.00000000000E+00  0.45593999997E+02  0.45594000000E+02  0.51100000000E-03 0.  1.
         11   -1    0    0    0    0 -0.00000000000E+00 -0.00000000000E+00 -0.45593999997E+02  0.45594000000E+02  0.51100000000E-03 0. -1.
    9900012    2    1    2    0    0 -0.41249921065E+02  0.39653987051E+01 -0.12897407498E+02  0.47787268498E+02  0.19999988390E+02 0.  0.
         12    1    1    2    0    0  0.41249921065E+02 -0.39653987051E+01  0.12897407498E+02  0.43400731502E+02  0.00000000000E+00 0. -1.
         11    1    3    3    0    0 -0.24567193289E+01  0.46780087413E+00 -0.20756752903E+01  0.32500362599E+01  0.51100000000E-03 0. -1.
        -11    1    3    3    0    0 -0.25737966449E+02  0.79578371979E+01 -0.14027781956E+02  0.30373487727E+02  0.51100000000E-03 0.  1.
        -12    1    3    3    0    0 -0.13055235286E+02 -0.44602393670E+01  0.32060497481E+01  0.14163744511E+02  0.00000000000E+00 0.  1.
</event>
<event>
 7    1  0.2733256E-010  0.4778727E+02  0.7816164E-02  0.1312668E+00
        -11   -1    0    0    0    0  0.00000000000E+00  0.00000000000E+00  0.45593999997E+02  0.45594000000E+02  0.51100000000E-03 0.  1.
         11   -1    0    0    0    0 -0.00000000000E+00 -0.00000000000E+00 -0.45593999997E+02  0.45594000000E+02  0.51100000000E-03 0. -1.
    9900012    2    1    2    0    0 -0.24661627638E+02 -0.21264421210E+02  0.28692370404E+02  0.47787267212E+02  0.19999982526E+02 0.  0.
         12    1    1    2    0    0  0.24661627638E+02  0.21264421210E+02 -0.28692370404E+02  0.43400732788E+02  0.00000000000E+00 0. -1.
         11    1    3    3    0    0 -0.10126107358E+02 -0.42668149197E+01  0.89036935566E+01  0.14142825708E+02  0.51100000000E-03 0. -1.
        -11    1    3    3    0    0 -0.97431534427E+01 -0.73397936406E+01  0.19325069817E+02  0.22853007097E+02  0.51100000000E-03 0.  1.
         12    1    3    3    0    0 -0.47923668365E+01 -0.96578126500E+01  0.46360703022E+00  0.10791434407E+02  0.00000000000E+00 0. -1.
</event>
<event>
 7    1  0.2733256E-010  0.4778728E+02  0.7816164E-02  0.1312668E+00
        -11   -1    0    0    0    0  0.00000000000E+00  0.00000000000E+00  0.45593999997E+02  0.45594000000E+02  0.51100000000E-03 0.  1.
         11   -1    0    0    0    0 -0.00000000000E+00 -0.00000000000E+00 -0.45593999997E+02  0.45594000000E+02  0.51100000000E-03 0. -1.
    9900012    2    1    2    0    0  0.29662736808E+02  0.94348783417E+01  0.30244470829E+02  0.47787275352E+02  0.20000019638E+02 0.  0.
         12    1    1    2    0    0 -0.29662736808E+02 -0.94348783417E+01 -0.30244470829E+02  0.43400724648E+02  0.00000000000E+00 0. -1.
         11    1    3    3    0    0 -0.16426230611E+01  0.87356277341E+00 -0.90493966582E-01  0.18626625726E+01  0.51100000000E-03 0. -1.
        -11    1    3    3    0    0  0.11366319873E+02  0.81173908722E+01  0.16671689724E+02  0.21749264368E+02  0.51100000000E-03 0.  1.
        -12    1    3    3    0    0  0.19939039997E+02  0.44392469606E+00  0.13663275071E+02  0.24175348411E+02  0.00000000000E+00 0.  1.
</event>
<event>
 7    1  0.2733256E-010  0.4778727E+02  0.7816164E-02  0.1312668E+00
        -11   -1    0    0    0    0  0.00000000000E+00  0.00000000000E+00  0.45593999997E+02  0.45594000000E+02  0.51100000000E-03 0.  1.
         11   -1    0    0    0    0 -0.00000000000E+00 -0.00000000000E+00 -0.45593999997E+02  0.45594000000E+02  0.51100000000E-03 0. -1.
    9900012    2    1    2    0    0 -0.27153147512E+02 -0.29869317169E+02  0.15942191561E+02  0.47787274202E+02  0.20000014398E+02 0.  0.
         12    1    1    2    0    0  0.27153147512E+02  0.29869317169E+02 -0.15942191561E+02  0.43400725798E+02  0.00000000000E+00 0. -1.
         11    1    3    3    0    0 -0.45753610317E+01 -0.83008786310E+01  0.12184994069E+02  0.15437376569E+02  0.51100000000E-03 0. -1.
        -11    1    3    3    0    0 -0.11747852201E+02 -0.11178159596E+02  0.57598536610E+01  0.17208695411E+02  0.51100000000E-03 0.  1.
         12    1    3    3    0    0 -0.10829934280E+02 -0.10390278943E+02 -0.20026561688E+01  0.15141202222E+02  0.00000000000E+00 0. -1.
</event>
<event>
 7    1  0.2733256E-010  0.4778726E+02  0.7816164E-02  0.1312668E+00
        -11   -1    0    0    0    0  0.00000000000E+00  0.00000000000E+00  0.45593999997E+02  0.45594000000E+02  0.51100000000E-03 0.  1.
         11   -1    0    0    0    0 -0.00000000000E+00 -0.00000000000E+00 -0.45593999997E+02  0.45594000000E+02  0.51100000000E-03 0. -1.
    9900012    2    1    2    0    0  0.34681629522E+02  0.24367345720E+02  0.93296104348E+01  0.47787255829E+02  0.19999930628E+02 0.  0.
         12    1    1    2    0    0 -0.34681629522E+02 -0.24367345720E+02 -0.93296104348E+01  0.43400744171E+02  0.00000000000E+00 0. -1.
         11    1    3    3    0    0  0.42237027080E+01  0.53361774852E+01 -0.80975402690E+00  0.68534776985E+01  0.51100000000E-03 0.  1.
        -11    1    3    3    0    0  0.39170361700E+01  0.44648672927E+01  0.88152154668E+01  0.10629498402E+02  0.51100000000E-03 0. -1.
        -12    1    3    3    0    0  0.26540890644E+02  0.14566300942E+02  0.13241489949E+01  0.30304279728E+02  0.00000000000E+00 0.  1.
</event>
<event>
 7    1  0.2733256E-010  0.4778728E+02  0.7816164E-02  0.1312668E+00
        -11   -1    0    0    0    0  0.00000000000E+00  0.00000000000E+00  0.45593999997E+02  0.45594000000E+02  0.51100000000E-03 0. -1.
         11   -1    0    0    0    0 -0.00000000000E+00 -0.00000000000E+00 -0.45593999997E+02  0.45594000000E+02  0.51100000000E-03 0.  1.
    9900012    2    1    2    0    0  0.36839302364E+02  0.48664095392E+01 -0.22423351907E+02  0.47787275914E+02  0.20000022203E+02 0.  0.
         12    1    1    2    0    0 -0.36839302364E+02 -0.48664095392E+01  0.22423351907E+02  0.43400724086E+02  0.00000000000E+00 0. -1.
         11    1    3    3    0    0  0.34807912221E+01 -0.19040563890E+01 -0.87795993076E+00  0.40635147552E+01  0.51100000000E-03 0. -1.
        -11    1    3    3    0    0  0.11739824741E+02  0.92641869124E+01 -0.14549888677E+02  0.20864992328E+02  0.51100000000E-03 0.  1.
        -12    1    3    3    0    0  0.21618686401E+02 -0.24937209843E+01 -0.69955032996E+01  0.22858768831E+02  0.00000000000E+00 0.  1.
</event>
<event>
 7    1  0.2733256E-010  0.4778727E+02  0.7816164E-02  0.1312668E+00
        -11   -1    0    0    0    0  0.00000000000E+00  0.00000000000E+00  0.45593999997E+02  0.45594000000E+02  0.51100000000E-03 0.  1.
         11   -1    0    0    0    0 -0.00000000000E+00 -0.00000000000E+00 -0.45593999997E+02  0.45594000000E+02  0.51100000000E-03 0. -1.
    9900012    2    1    2    0    0  0.39581104325E+02 -0.13809802312E+01  0.17749708125E+02  0.47787273456E+02  0.20000010996E+02 0.  0.
         12    1    1    2    0    0 -0.39581104325E+02  0.13809802312E+01 -0.17749708125E+02  0.43400726544E+02  0.00000000000E+00 0. -1.
         11    1    3    3    0    0  0.17614707476E+02 -0.39657438837E+01  0.31787316400E+01  0.18333286097E+02  0.51100000000E-03 0. -1.
        -11    1    3    3    0    0  0.14980184013E+02 -0.44219491538E+01  0.77501267102E+01  0.17436284342E+02  0.51100000000E-03 0.  1.
         12    1    3    3    0    0  0.69862128364E+01  0.70067128063E+01  0.68208497750E+01  0.12017703017E+02  0.00000000000E+00 0. -1.
</event>
<event>
 7    1  0.2733256E-010  0.4778727E+02  0.7816164E-02  0.1312668E+00
        -11   -1    0    0    0    0  0.00000000000E+00  0.00000000000E+00  0.45593999997E+02  0.45594000000E+02  0.51100000000E-03 0.  1.
         11   -1    0    0    0    0 -0.00000000000E+00 -0.00000000000E+00 -0.45593999997E+02  0.45594000000E+02  0.51100000000E-03 0. -1.
    9900012    2    1    2    0    0 -0.13885857973E+02 -0.38321031885E+02  0.14909888123E+02  0.47787270741E+02  0.19999998618E+02 0.  0.
         12    1    1    2    0    0  0.13885857973E+02  0.38321031885E+02 -0.14909888123E+02  0.43400729259E+02  0.00000000000E+00 0. -1.
         11    1    3    3    0    0 -0.10336291932E+02 -0.82877804912E+01  0.21746188897E+01  0.13425915386E+02  0.51100000000E-03 0. -1.
        -11    1    3    3    0    0 -0.28398069344E+01 -0.91471506913E+01 -0.55712831461E+00  0.95940221708E+01  0.51100000000E-03 0.  1.
        -12    1    3    3    0    0 -0.70975910688E+00 -0.20886100702E+02  0.13292397547E+02  0.24767333185E+02  0.00000000000E+00 0.  1.
</event>
<event>
 7    1  0.2733256E-010  0.4778727E+02  0.7816164E-02  0.1312668E+00
        -11   -1    0    0    0    0  0.00000000000E+00  0.00000000000E+00  0.45593999997E+02  0.45594000000E+02  0.51100000000E-03 0.  1.
         11   -1    0    0    0    0 -0.00000000000E+00 -0.00000000000E+00 -0.45593999997E+02  0.45594000000E+02  0.51100000000E-03 0. -1.
    9900012    2    1    2    0    0 -0.27250278967E+02  0.20499607325E+02  0.26847935687E+02  0.47787271263E+02  0.20000000998E+02 0.  0.
         12    1    1    2    0    0  0.27250278967E+02 -0.20499607325E+02 -0.26847935687E+02  0.43400728737E+02  0.00000000000E+00 0. -1.
         11    1    3    3    0    0 -0.37631059231E+01  0.22678134791E+01  0.94424749668E+01  0.10414618472E+02  0.51100000000E-03 0. -1.
        -11    1    3    3    0    0 -0.12384107285E+02  0.26416505458E+01  0.12092353886E+02  0.17509124867E+02  0.51100000000E-03 0.  1.
         12    1    3    3    0    0 -0.11103065759E+02  0.15590143300E+02  0.53131068341E+01  0.19863527924E+02  0.00000000000E+00 0. -1.
</event>
<event>
 7    1  0.2733256E-010  0.4778727E+02  0.7816164E-02  0.1312668E+00
        -11   -1    0    0    0    0  0.00000000000E+00  0.00000000000E+00  0.45593999997E+02  0.45594000000E+02  0.51100000000E-03 0.  1.
         11   -1    0    0    0    0 -0.00000000000E+00 -0.00000000000E+00 -0.45593999997E+02  0.45594000000E+02  0.51100000000E-03 0. -1.
    9900012    2    1    2    0    0 -0.17541877478E+02  0.33426073359E+02 -0.21415025476E+02  0.47787272336E+02  0.20000005887E+02 0.  0.
         12    1    1    2    0    0  0.17541877478E+02 -0.33426073359E+02  0.21415025476E+02  0.43400727664E+02  0.00000000000E+00 0. -1.
         11    1    3    3    0    0  0.24658495937E+01  0.73143212020E+00 -0.19414784037E+01  0.32225371710E+01  0.51100000000E-03 0. -1.
        -11    1    3    3    0    0 -0.12404165997E+01  0.66976783020E+01  0.43162494666E+00  0.68252346724E+01  0.51100000000E-03 0.  1.
        -12    1    3    3    0    0 -0.18767310472E+02  0.25996962937E+02 -0.19905172019E+02  0.37739500492E+02  0.00000000000E+00 0.  1.
</event>
<event>
 7    1  0.2733256E-010  0.4778726E+02  0.7816164E-02  0.1312668E+00
        -11   -1    0    0    0    0  0.00000000000E+00  0.00000000000E+00  0.45593999997E+02  0.45594000000E+02  0.51100000000E-03 0.  1.
         11   -1    0    0    0    0 -0.00000000000E+00 -0.00000000000E+00 -0.45593999997E+02  0.45594000000E+02  0.51100000000E-03 0. -1.
    9900012    2    1    2    0    0 -0.22410150162E+02  0.33269926203E+02  0.16568700643E+02  0.47787255066E+02  0.19999927147E+02 0.  0.
         12    1    1    2    0    0  0.22410150162E+02 -0.33269926203E+02 -0.16568700643E+02  0.43400744934E+02  0.00000000000E+00 0. -1.
         11    1    3    3    0    0 -0.62657826887E+01  0.41743880425E+01  0.70147497327E+01  0.10290396606E+02  0.51100000000E-03 0. -1.
        -11    1    3    3    0    0  0.23865357439E+01  0.15646966763E+01  0.19324374534E+01  0.34464682384E+01  0.51100000000E-03 0.  1.
         12    1    3    3    0    0 -0.18530903217E+02  0.27530841484E+02  0.76215134571E+01  0.34050390222E+02  0.00000000000E+00 0. -1.
</event>
<event>
 7    1  0.2733256E-010  0.4778727E+02  0.7816164E-02  0.1312668E+00
        -11   -1    0    0    0    0  0.00000000000E+00  0.00000000000E+00  0.45593999997E+02  0.45594000000E+02  0.51100000000E-03 0. -1.
         11   -1    0    0    0    0 -0.00000000000E+00 -0.00000000000E+00 -0.45593999997E+02  0.45594000000E+02  0.51100000000E-03 0.  1.
    9900012    2    1    2    0    0 -0.19327412375E+02  0.24806384880E+02 -0.29911830303E+02  0.47787271988E+02  0.20000004302E+02 0.  0.
         12    1    1    2    0    0  0.19327412375E+02 -0.24806384880E+02  0.29911830303E+02  0.43400728012E+02  0.00000000000E+00 0. -1.
         11    1    3    3    0    0  0.14345629441E+01  0.36610039895E+01 -0.21513613605E+01  0.44821063147E+01  0.51100000000E-03 0. -1.
        -11    1    3    3    0    0 -0.11912735776E+01 -0.20773926489E+01 -0.43284612145E+01  0.49467433429E+01  0.51100000000E-03 0.  1.
        -12    1    3    3    0    0 -0.19570701741E+02  0.23222773540E+02 -0.23432007728E+02  0.38358422330E+02  0.00000000000E+00 0.  1.
</event>
<event>
 7    1  0.2733256E-010  0.4778727E+02  0.7816164E-02  0.1312668E+00
        -11   -1    0    0    0    0  0.00000000000E+00  0.00000000000E+00  0.45593999997E+02  0.45594000000E+02  0.51100000000E-03 0.  1.
         11   -1    0    0    0    0 -0.00000000000E+00 -0.00000000000E+00 -0.45593999997E+02  0.45594000000E+02  0.51100000000E-03 0. -1.
    9900012    2    1    2    0    0  0.17572443533E+02  0.31242076888E+02  0.24469679825E+02  0.47787269928E+02  0.19999994911E+02 0.  0.
         12    1    1    2    0    0 -0.17572443533E+02 -0.31242076888E+02 -0.24469679825E+02  0.43400730072E+02  0.00000000000E+00 0. -1.
         11    1    3    3    0    0  0.13870473156E+02  0.12723954215E+02  0.15125510114E+02  0.24146844368E+02  0.51100000000E-03 0. -1.
        -11    1    3    3    0    0  0.66356287420E+01  0.95530483271E+01  0.79886522135E+01  0.14110664959E+02  0.51100000000E-03 0.  1.
         12    1    3    3    0    0 -0.29336583655E+01  0.89650743456E+01  0.13555174976E+01  0.95297606010E+01  0.00000000000E+00 0. -1.
</event>
<event>
 7    1  0.2733256E-010  0.4778727E+02  0.7816164E-02  0.1312668E+00
        -11   -1    0    0    0    0  0.00000000000E+00  0.00000000000E+00  0.45593999997E+02  0.45594000000E+02  0.51100000000E-03 0. -1.
         11   -1    0    0    0    0 -0.00000000000E+00 -0.00000000000E+00 -0.45593999997E+02  0.45594000000E+02  0.51100000000E-03 0.  1.
    9900012    2    1    2    0    0 -0.12571169238E+02  0.34717619413E+02 -0.22809560704E+02  0.47787268978E+02  0.19999990578E+02 0.  0.
         12    1    1    2    0    0  0.12571169238E+02 -0.34717619413E+02  0.22809560704E+02  0.43400731022E+02  0.00000000000E+00 0. -1.
         11    1    3    3    0    0  0.40689096202E+01  0.14482845313E+01 -0.26542041060E+01  0.50693543256E+01  0.51100000000E-03 0. -1.
        -11    1    3    3    0    0 -0.16403641935E+01  0.34462623385E+01 -0.43362526314E+01  0.57767296923E+01  0.51100000000E-03 0.  1.
        -12    1    3    3    0    0 -0.14999714664E+02  0.29823072543E+02 -0.15819103967E+02  0.36941184960E+02  0.00000000000E+00 0.  1.
</event>
<event>
 7    1  0.2733256E-010  0.4778727E+02  0.7816164E-02  0.1312668E+00
        -11   -1    0    0    0    0  0.00000000000E+00  0.00000000000E+00  0.45593999997E+02  0.45594000000E+02  0.51100000000E-03 0.  1.
         11   -1    0    0    0    0 -0.00000000000E+00 -0.00000000000E+00 -0.45593999997E+02  0.45594000000E+02  0.51100000000E-03 0. -1.
    9900012    2    1    2    0    0  0.15612638046E+02  0.15495653194E+02  0.37413276091E+02  0.47787274631E+02  0.20000016352E+02 0.  0.
         12    1    1    2    0    0 -0.15612638046E+02 -0.15495653194E+02 -0.37413276091E+02  0.43400725369E+02  0.00000000000E+00 0. -1.
         11    1    3    3    0    0 -0.18079411187E+01 -0.19746492686E+01  0.90221339542E+01  0.94109931554E+01  0.51100000000E-03 0. -1.
        -11    1    3    3    0    0  0.94678424125E+00  0.51828223505E+01  0.57929569210E+01  0.78304787890E+01  0.51100000000E-03 0.  1.
         12    1    3    3    0    0  0.16473794924E+02  0.12287480112E+02  0.22598185216E+02  0.30545802686E+02  0.00000000000E+00 0. -1.
</event>
<event>
 7    1  0.2733256E-010  0.4778728E+02  0.7816164E-02  0.1312668E+00
        -11   -1    0    0    0    0  0.00000000000E+00  0.00000000000E+00  0.45593999997E+02  0.45594000000E+02  0.51100000000E-03 0.  1.
         11   -1    0    0    0    0 -0.00000000000E+00 -0.00000000000E+00 -0.45593999997E+02  0.45594000000E+02  0.51100000000E-03 0. -1.
    9900012    2    1    2    0    0  0.19991746041E+01 -0.29745368534E+02  0.31541071484E+02  0.47787276058E+02  0.20000022860E+02 0.  0.
         12    1    1    2    0    0 -0.19991746041E+01  0.29745368534E+02 -0.31541071484E+02  0.43400723942E+02  0.00000000000E+00 0. -1.
         11    1    3    3    0    0 -0.33143613722E+01 -0.19307047484E+02  0.15695945022E+02  0.25101987257E+02  0.51100000000E-03 0. -1.
        -11    1    3    3    0    0 -0.57978316542E+00 -0.49355579291E+01  0.13350201358E+02  0.14245130998E+02  0.51100000000E-03 0.  1.
         12    1    3    3    0    0  0.58933191418E+01 -0.55027631214E+01  0.24949251036E+01  0.84401578036E+01  0.00000000000E+00 0. -1.
</event>
<event>
 7    1  0.2733256E-010  0.4778727E+02  0.7816164E-02  0.1312668E+00
        -11   -1    0    0    0    0  0.00000000000E+00  0.00000000000E+00  0.45593999997E+02  0.45594000000E+02  0.51100000000E-03 0.  1.
         11   -1    0    0    0    0 -0.00000000000E+00 -0.00000000000E+00 -0.45593999997E+02  0.45594000000E+02  0.51100000000E-03 0. -1.
    9900012    2    1    2    0    0 -0.18100079699E+02 -0.17323549531E+02  0.35438754732E+02  0.47787267398E+02  0.19999983373E+02 0.  0.
         12    1    1    2    0    0  0.18100079699E+02  0.17323549531E+02 -0.35438754732E+02  0.43400732602E+02  0.00000000000E+00 0. -1.
         11    1    3    3    0    0 -0.15777912639E+01 -0.54279180101E+01  0.14400607222E+02  0.15470268512E+02  0.51100000000E-03 0. -1.
        -11    1    3    3    0    0  0.19224786011E+01 -0.16282604782E+01  0.79211805884E-02  0.25193688025E+01  0.51100000000E-03 0.  1.
        -12    1    3    3    0    0 -0.18444767036E+02 -0.10267371043E+02  0.21030226329E+02  0.29797630084E+02  0.00000000000E+00 0.  1.
</event>
<event>
 7    1  0.2733256E-010  0.4778727E+02  0.7816164E-02  0.1312668E+00
        -11   -1    0    0    0    0  0.00000000000E+00  0.00000000000E+00  0.45593999997E+02  0.45594000000E+02  0.51100000000E-03 0.  1.
         11   -1    0    0    0    0 -0.00000000000E+00 -0.00000000000E+00 -0.45593999997E+02  0.45594000000E+02  0.51100000000E-03 0. -1.
    9900012    2    1    2    0    0 -0.16204921802E+02  0.39809617057E+02  0.60181348083E+01  0.47787273653E+02  0.20000011895E+02 0.  0.
         12    1    1    2    0    0  0.16204921802E+02 -0.39809617057E+02 -0.60181348083E+01  0.43400726347E+02  0.00000000000E+00 0. -1.
         11    1    3    3    0    0 -0.12509290294E+02  0.17936428216E+02 -0.32029512673E+01  0.22101056488E+02  0.51100000000E-03 0. -1.
        -11    1    3    3    0    0 -0.45388230445E+01  0.80989061986E+01  0.36960349557E+00  0.92913832796E+01  0.51100000000E-03 0.  1.
        -12    1    3    3    0    0  0.84319153612E+00  0.13774282642E+02  0.88514825801E+01  0.16394833886E+02  0.00000000000E+00 0.  1.
</event>
<event>
 7    1  0.2733256E-010  0.4778727E+02  0.7816164E-02  0.1312668E+00
        -11   -1    0    0    0    0  0.00000000000E+00  0.00000000000E+00  0.45593999997E+02  0.45594000000E+02  0.51100000000E-03 0.  1.
         11   -1    0    0    0    0 -0.00000000000E+00 -0.00000000000E+00 -0.45593999997E+02  0.45594000000E+02  0.51100000000E-03 0. -1.
    9900012    2    1    2    0    0 -0.68309051292E+01  0.31172703985E+02  0.29414698732E+02  0.47787271433E+02  0.20000001774E+02 0.  0.
         12    1    1    2    0    0  0.68309051292E+01 -0.31172703985E+02 -0.29414698732E+02  0.43400728567E+02  0.00000000000E+00 0. -1.
         11    1    3    3    0    0 -0.91419276479E+00  0.24741349087E+01 -0.26647066122E+01  0.37493670863E+01  0.51100000000E-03 0. -1.
        -11    1    3    3    0    0 -0.37226029013E+01  0.49009067020E+01  0.50738717670E+01  0.79762669107E+01  0.51100000000E-03 0.  1.
        -12    1    3    3    0    0 -0.21941094632E+01  0.23797662374E+02  0.27005533577E+02  0.36061637436E+02  0.00000000000E+00 0.  1.
</event>
<event>
 7    1  0.2733256E-010  0.4778729E+02  0.7816164E-02  0.1312668E+00
        -11   -1    0    0    0    0  0.00000000000E+00  0.00000000000E+00  0.45593999997E+02  0.45594000000E+02  0.51100000000E-03 0.  1.
         11   -1    0    0    0    0 -0.00000000000E+00 -0.00000000000E+00 -0.45593999997E+02  0.45594000000E+02  0.51100000000E-03 0. -1.
    9900012    2    1    2    0    0 -0.15161367707E+02  0.28554778247E+02  0.28954783869E+02  0.47787286407E+02  0.20000070045E+02 0.  0.
         12    1    1    2    0    0  0.15161367707E+02 -0.28554778247E+02 -0.28954783869E+02  0.43400713593E+02  0.00000000000E+00 0. -1.
         11    1    3    3    0    0  0.10109008903E+01  0.26116610161E+01 -0.12868069547E+01  0.30819744114E+01  0.51100000000E-03 0. -1.
        -11    1    3    3    0    0 -0.18972004603E+01  0.12004950859E+02  0.16443166330E+02  0.20447394306E+02  0.51100000000E-03 0.  1.
         12    1    3    3    0    0 -0.14275068137E+02  0.13938166372E+02  0.13798424494E+02  0.24257917690E+02  0.00000000000E+00 0. -1.
</event>
<event>
 7    1  0.2733256E-010  0.4778727E+02  0.7816164E-02  0.1312668E+00
        -11   -1    0    0    0    0  0.00000000000E+00  0.00000000000E+00  0.45593999997E+02  0.45594000000E+02  0.51100000000E-03 0.  1.
         11   -1    0    0    0    0 -0.00000000000E+00 -0.00000000000E+00 -0.45593999997E+02  0.45594000000E+02  0.51100000000E-03 0. -1.
    9900012    2    1    2    0    0 -0.29686644564E+02  0.19388581943E+02  0.25028169673E+02  0.47787271292E+02  0.20000001128E+02 0.  0.
         12    1    1    2    0    0  0.29686644564E+02 -0.19388581943E+02 -0.25028169673E+02  0.43400728708E+02  0.00000000000E+00 0. -1.
         11    1    3    3    0    0 -0.15214645520E+02  0.25828847792E+01  0.89294283045E+01  0.17829509869E+02  0.51100000000E-03 0. -1.
        -11    1    3    3    0    0 -0.16510401700E+02  0.14160872606E+02  0.12673587698E+02  0.25174262703E+02  0.51100000000E-03 0.  1.
        -12    1    3    3    0    0  0.20384026561E+01  0.26448245581E+01  0.34251536706E+01  0.47834987194E+01  0.00000000000E+00 0.  1.
</event>
<event>
 7    1  0.2733256E-010  0.4778728E+02  0.7816164E-02  0.1312668E+00
        -11   -1    0    0    0    0  0.00000000000E+00  0.00000000000E+00  0.45593999997E+02  0.45594000000E+02  0.51100000000E-03 0. -1.
         11   -1    0    0    0    0 -0.00000000000E+00 -0.00000000000E+00 -0.45593999997E+02  0.45594000000E+02  0.51100000000E-03 0.  1.
    9900012    2    1    2    0    0 -0.29136446614E+02 -0.54408560912E+01 -0.31703108595E+02  0.47787279604E+02  0.20000039027E+02 0.  0.
         12    1    1    2    0    0  0.29136446614E+02  0.54408560912E+01  0.31703108595E+02  0.43400720396E+02  0.00000000000E+00 0. -1.
         11    1    3    3    0    0 -0.10448909767E+02 -0.15135397666E+01 -0.14133950354E+02  0.17641969018E+02  0.51100000000E-03 0. -1.
        -11    1    3    3    0    0 -0.18431058017E+02 -0.38140986268E+01 -0.20136215109E+02  0.27562989807E+02  0.51100000000E-03 0.  1.
         12    1    3    3    0    0 -0.25647883018E+00 -0.11321769778E+00  0.25670568685E+01  0.25823207786E+01  0.00000000000E+00 0. -1.
</event>
<event>
 7    1  0.2733256E-010  0.4778728E+02  0.7816164E-02  0.1312668E+00
        -11   -1    0    0    0    0  0.00000000000E+00  0.00000000000E+00  0.45593999997E+02  0.45594000000E+02  0.51100000000E-03 0.  1.
         11   -1    0    0    0    0 -0.00000000000E+00 -0.00000000000E+00 -0.45593999997E+02  0.45594000000E+02  0.51100000000E-03 0. -1.
    9900012    2    1    2    0    0 -0.45765177123E+01  0.31070502617E+02  0.29955003536E+02  0.47787275535E+02  0.20000020476E+02 0.  0.
         12    1    1    2    0    0  0.45765177123E+01 -0.31070502617E+02 -0.29955003536E+02  0.43400724465E+02  0.00000000000E+00 0. -1.
         11    1    3    3    0    0 -0.26752466901E+01  0.20860675065E+02  0.20397786129E+02  0.29298368355E+02  0.51100000000E-03 0. -1.
        -11    1    3    3    0    0  0.43313318791E+01  0.81225877809E+01  0.62883466530E+01  0.11148101722E+02  0.51100000000E-03 0.  1.
         12    1    3    3    0    0 -0.62326029013E+01  0.20872397710E+01  0.32688707531E+01  0.73408054591E+01  0.00000000000E+00 0. -1.
</event>
<event>
 7    1  0.2733256E-010  0.4778727E+02  0.7816164E-02  0.1312668E+00
        -11   -1    0    0    0    0  0.00000000000E+00  0.00000000000E+00  0.45593999997E+02  0.45594000000E+02  0.51100000000E-03 0.  1.
         11   -1    0    0    0    0 -0.00000000000E+00 -0.00000000000E+00 -0.45593999997E+02  0.45594000000E+02  0.51100000000E-03 0. -1.
    9900012    2    1    2    0    0 -0.17176005846E+02  0.33242393641E+02  0.21989804852E+02  0.47787269254E+02  0.19999991838E+02 0.  0.
         12    1    1    2    0    0  0.17176005846E+02 -0.33242393641E+02 -0.21989804852E+02  0.43400730746E+02  0.00000000000E+00 0. -1.
         11    1    3    3    0    0 -0.85755121544E+01  0.21476556881E+02  0.30200238321E+01  0.23321716240E+02  0.51100000000E-03 0. -1.
        -11    1    3    3    0    0 -0.12931609775E+01  0.48954423092E+01  0.40307451691E+01  0.64718256772E+01  0.51100000000E-03 0.  1.
        -12    1    3    3    0    0 -0.73073327145E+01  0.68703944505E+01  0.14939035851E+02  0.17993727337E+02  0.00000000000E+00 0.  1.
</event>
<event>
 7    1  0.2733256E-010  0.4778727E+02  0.7816164E-02  0.1312668E+00
        -11   -1    0    0    0    0  0.00000000000E+00  0.00000000000E+00  0.45593999997E+02  0.45594000000E+02  0.51100000000E-03 0.  1.
         11   -1    0    0    0    0 -0.00000000000E+00 -0.00000000000E+00 -0.45593999997E+02  0.45594000000E+02  0.51100000000E-03 0. -1.
    9900012    2    1    2    0    0  0.29772291520E+01 -0.34811965013E+02  0.25746584837E+02  0.47787269219E+02  0.19999991678E+02 0.  0.
         12    1    1    2    0    0 -0.29772291520E+01  0.34811965013E+02 -0.25746584837E+02  0.43400730781E+02  0.00000000000E+00 0. -1.
         11    1    3    3    0    0  0.93862364481E+00  0.10422083305E+01  0.83449486635E+00  0.16320522338E+01  0.51100000000E-03 0. -1.
        -11    1    3    3    0    0  0.54724590761E+01 -0.42437155295E+01  0.59771968334E+01  0.91478856618E+01  0.51100000000E-03 0.  1.
        -12    1    3    3    0    0 -0.34338535690E+01 -0.31610457814E+02  0.18934893137E+02  0.37007331324E+02  0.00000000000E+00 0.  1.
</event>
<event>
 7    1  0.2733256E-010  0.4778730E+02  0.7816164E-02  0.1312668E+00
        -11   -1    0    0    0    0  0.00000000000E+00  0.00000000000E+00  0.45593999997E+02  0.45594000000E+02  0.51100000000E-03 0.  1.
         11   -1    0    0    0    0 -0.00000000000E+00 -0.00000000000E+00 -0.45593999997E+02  0.45594000000E+02  0.51100000000E-03 0. -1.
    9900012    2    1    2    0    0 -0.42723971578E+02 -0.76085889488E+01 -0.62648430508E+00  0.47787298903E+02  0.20000127016E+02 0.  0.
         12    1    1    2    0    0  0.42723971578E+02  0.76085889488E+01  0.62648430508E+00  0.43400701097E+02  0.00000000000E+00 0. -1.
         11    1    3    3    0    0 -0.10108032377E+02  0.19807122262E+00  0.21348302305E+00  0.10112226560E+02  0.51100000000E-03 0. -1.
        -11    1    3    3    0    0 -0.11966611529E+01 -0.44985903173E+01 -0.37092045977E+01  0.59521014580E+01  0.51100000000E-03 0.  1.
        -12    1    3    3    0    0 -0.31419278048E+02 -0.33080698541E+01  0.28692372696E+01  0.31722970884E+02  0.00000000000E+00 0.  1.
</event>
<event>
 7    1  0.2733256E-010  0.4778727E+02  0.7816164E-02  0.1312668E+00
        -11   -1    0    0    0    0  0.00000000000E+00  0.00000000000E+00  0.45593999997E+02  0.45594000000E+02  0.51100000000E-03 0.  1.
         11   -1    0    0    0    0 -0.00000000000E+00 -0.00000000000E+00 -0.45593999997E+02  0.45594000000E+02  0.51100000000E-03 0. -1.
    9900012    2    1    2    0    0 -0.26952629517E+01  0.36915941554E+02 -0.22662126682E+02  0.47787272253E+02  0.20000005510E+02 0.  0.
         12    1    1    2    0    0  0.26952629517E+01 -0.36915941554E+02  0.22662126682E+02  0.43400727747E+02  0.00000000000E+00 0. -1.
         11    1    3    3    0    0 -0.52371450217E+01  0.19688162701E+02 -0.55077852087E+01  0.21104197135E+02  0.51100000000E-03 0. -1.
        -11    1    3    3    0    0 -0.17014200948E+01  0.18522646295E+01  0.82630668291E+00  0.26473567180E+01  0.51100000000E-03 0.  1.
        -12    1    3    3    0    0  0.42433021648E+01  0.15375514224E+02 -0.17980648156E+02  0.24035718400E+02  0.00000000000E+00 0.  1.
</event>
<event>
 7    1  0.2733256E-010  0.4778727E+02  0.7816164E-02  0.1312668E+00
        -11   -1    0    0    0    0  0.00000000000E+00  0.00000000000E+00  0.45593999997E+02  0.45594000000E+02  0.51100000000E-03 0. -1.
         11   -1    0    0    0    0 -0.00000000000E+00 -0.00000000000E+00 -0.45593999997E+02  0.45594000000E+02  0.51100000000E-03 0.  1.
    9900012    2    1    2    0    0 -0.78256052379E+01  0.14674126001E+02 -0.40088065367E+02  0.47787273553E+02  0.20000011439E+02 0.  0.
         12    1    1    2    0    0  0.78256052379E+01 -0.14674126001E+02  0.40088065367E+02  0.43400726447E+02  0.00000000000E+00 0. -1.
         11    1    3    3    0    0 -0.55383163441E+01  0.31442703955E+01 -0.16117553543E+02  0.17330173591E+02  0.51100000000E-03 0. -1.
        -11    1    3    3    0    0 -0.51259068002E+01  0.11714566089E+02 -0.24431443540E+02  0.27575376931E+02  0.51100000000E-03 0.  1.
         12    1    3    3    0    0  0.28386179063E+01 -0.18471048339E+00  0.46093171577E+00  0.28817230310E+01  0.00000000000E+00 0. -1.
</event>
<event>
 7    1  0.2733256E-010  0.4778726E+02  0.7816164E-02  0.1312668E+00
        -11   -1    0    0    0    0  0.00000000000E+00  0.00000000000E+00  0.45593999997E+02  0.45594000000E+02  0.51100000000E-03 0. -1.
         11   -1    0    0    0    0 -0.00000000000E+00 -0.00000000000E+00 -0.45593999997E+02  0.45594000000E+02  0.51100000000E-03 0.  1.
    9900012    2    1    2    0    0  0.17560908401E+02 -0.39601641898E+02  0.26359958010E+01  0.47787262463E+02  0.19999960874E+02 0.  0.
         12    1    1    2    0    0 -0.17560908401E+02  0.39601641898E+02 -0.26359958010E+01  0.43400737537E+02  0.00000000000E+00 0. -1.
         11    1    3    3    0    0  0.22172585402E+01 -0.34603815076E+01  0.28352037068E+01  0.49928805246E+01  0.51100000000E-03 0.  1.
        -11    1    3    3    0    0  0.15877324483E+02 -0.28207303405E+02 -0.60404707337E+01  0.32927627990E+02  0.51100000000E-03 0. -1.
         12    1    3    3    0    0 -0.53367462230E+00 -0.79339569858E+01  0.58412628279E+01  0.98667539485E+01  0.00000000000E+00 0. -1.
</event>
<event>
 7    1  0.2733256E-010  0.4778727E+02  0.7816164E-02  0.1312668E+00
        -11   -1    0    0    0    0  0.00000000000E+00  0.00000000000E+00  0.45593999997E+02  0.45594000000E+02  0.51100000000E-03 0.  1.
         11   -1    0    0    0    0 -0.00000000000E+00 -0.00000000000E+00 -0.45593999997E+02  0.45594000000E+02  0.51100000000E-03 0. -1.
    9900012    2    1    2    0    0  0.12108497178E+02 -0.19449323997E+02  0.36860973735E+02  0.47787270830E+02  0.19999999021E+02 0.  0.
         12    1    1    2    0    0 -0.12108497178E+02  0.19449323997E+02 -0.36860973735E+02  0.43400729170E+02  0.00000000000E+00 0. -1.
         11    1    3    3    0    0  0.28947756507E+01  0.36869139716E+00  0.11169988381E+01  0.31246353515E+01  0.51100000000E-03 0. -1.
        -11    1    3    3    0    0  0.10079126697E+02 -0.13599963048E+02  0.13805368051E+02  0.21843442430E+02  0.51100000000E-03 0.  1.
         12    1    3    3    0    0 -0.86540516942E+00 -0.62180523460E+01  0.21938606845E+02  0.22819193049E+02  0.00000000000E+00 0. -1.
</event>
<event>
 7    1  0.2733256E-010  0.4778727E+02  0.7816164E-02  0.1312668E+00
        -11   -1    0    0    0    0  0.00000000000E+00  0.00000000000E+00  0.45593999997E+02  0.45594000000E+02  0.51100000000E-03 0.  1.
         11   -1    0    0    0    0 -0.00000000000E+00 -0.00000000000E+00 -0.45593999997E+02  0.45594000000E+02  0.51100000000E-03 0. -1.
    9900012    2    1    2    0    0  0.12532538438E+02  0.41397223461E+02 -0.35817223825E+01  0.47787269992E+02  0.19999995202E+02 0.  0.
         12    1    1    2    0    0 -0.12532538438E+02 -0.41397223461E+02  0.35817223825E+01  0.43400730008E+02  0.00000000000E+00 0. -1.
         11    1    3    3    0    0  0.33913183168E+01  0.91765553141E+01 -0.31259061646E+01  0.10270418539E+02  0.51100000000E-03 0. -1.
        -11    1    3    3    0    0 -0.59880549477E+00  0.18318888265E+01  0.48026902138E+01  0.51749606998E+01  0.51100000000E-03 0.  1.
        -12    1    3    3    0    0  0.97400256164E+01  0.30388779320E+02 -0.52585064318E+01  0.32341890753E+02  0.00000000000E+00 0.  1.
</event>
<event>
 7    1  0.2733256E-010  0.4778727E+02  0.7816164E-02  0.1312668E+00
        -11   -1    0    0    0    0  0.00000000000E+00  0.00000000000E+00  0.45593999997E+02  0.45594000000E+02  0.51100000000E-03 0. -1.
         11   -1    0    0    0    0 -0.00000000000E+00 -0.00000000000E+00 -0.45593999997E+02  0.45594000000E+02  0.51100000000E-03 0.  1.
    9900012    2    1    2    0    0  0.38246818711E+01 -0.30564765865E+02 -0.30574340975E+02  0.47787269248E+02  0.19999991808E+02 0.  0.
         12    1    1    2    0    0 -0.38246818711E+01  0.30564765865E+02  0.30574340975E+02  0.43400730752E+02  0.00000000000E+00 0. -1.
         11    1    3    3    0    0  0.56630800985E+00 -0.24450603992E+01  0.64371061316E+00  0.25910207896E+01  0.51100000000E-03 0. -1.
        -11    1    3    3    0    0  0.63473725292E+01 -0.23292703399E+02 -0.16072738887E+02  0.29002967180E+02  0.51100000000E-03 0.  1.
         12    1    3    3    0    0 -0.30889986679E+01 -0.48270020663E+01 -0.15145312701E+02  0.16193281278E+02  0.00000000000E+00 0. -1.
</event>
<event>
 7    1  0.2733256E-010  0.4778727E+02  0.7816164E-02  0.1312668E+00
        -11   -1    0    0    0    0  0.00000000000E+00  0.00000000000E+00  0.45593999997E+02  0.45594000000E+02  0.51100000000E-03 0.  1.
         11   -1    0    0    0    0 -0.00000000000E+00 -0.00000000000E+00 -0.45593999997E+02  0.45594000000E+02  0.51100000000E-03 0. -1.
    9900012    2    1    2    0    0  0.72479143428E+01 -0.41399037284E+02  0.10826387285E+02  0.47787271757E+02  0.20000003248E+02 0.  0.
         12    1    1    2    0    0 -0.72479143428E+01  0.41399037284E+02 -0.10826387285E+02  0.43400728243E+02  0.00000000000E+00 0. -1.
         11    1    3    3    0    0  0.71514574469E+01 -0.15233425280E+02  0.93039606462E+01  0.19229255662E+02  0.51100000000E-03 0. -1.
        -11    1    3    3    0    0  0.27275384292E+01 -0.98052027706E+01  0.54263665120E+01  0.11533729711E+02  0.51100000000E-03 0.  1.
         12    1    3    3    0    0 -0.26310815333E+01 -0.16360409234E+02 -0.39039398727E+01  0.17024286384E+02  0.00000000000E+00 0. -1.
</event>
<event>
 7    1  0.2733256E-010  0.4778727E+02  0.7816164E-02  0.1312668E+00
        -11   -1    0    0    0    0  0.00000000000E+00  0.00000000000E+00  0.45593999997E+02  0.45594000000E+02  0.51100000000E-03 0.  1.
         11   -1    0    0    0    0 -0.00000000000E+00 -0.00000000000E+00 -0.45593999997E+02  0.45594000000E+02  0.51100000000E-03 0. -1.
    9900012    2    1    2    0    0 -0.12453187792E+02  0.14459202434E+02  0.38980420109E+02  0.47787267597E+02  0.19999984282E+02 0.  0.
         12    1    1    2    0    0  0.12453187792E+02 -0.14459202434E+02 -0.38980420109E+02  0.43400732403E+02  0.00000000000E+00 0. -1.
         11    1    3    3    0    0 -0.32738202056E+01  0.38992265410E+01  0.59544406319E+01  0.78343621219E+01  0.51100000000E-03 0. -1.
        -11    1    3    3    0    0  0.44548098156E+01  0.48193150686E+01  0.16584121498E+02  0.17835476286E+02  0.51100000000E-03 0.  1.
         12    1    3    3    0    0 -0.13634177402E+02  0.57406608242E+01  0.16441857979E+02  0.22117429189E+02  0.00000000000E+00 0. -1.
</event>
<event>
 7    1  0.2733256E-010  0.4778726E+02  0.7816164E-02  0.1312668E+00
        -11   -1    0    0    0    0  0.00000000000E+00  0.00000000000E+00  0.45593999997E+02  0.45594000000E+02  0.51100000000E-03 0.  1.
         11   -1    0    0    0    0 -0.00000000000E+00 -0.00000000000E+00 -0.45593999997E+02  0.45594000000E+02  0.51100000000E-03 0. -1.
    9900012    2    1    2    0    0 -0.11952587387E+02  0.16654461247E+02  0.38254259853E+02  0.47787264735E+02  0.19999971232E+02 0.  0.
         12    1    1    2    0    0  0.11952587387E+02 -0.16654461247E+02 -0.38254259853E+02  0.43400735265E+02  0.00000000000E+00 0. -1.
         11    1    3    3    0    0 -0.37317458174E+00  0.52202757716E+01  0.16034888624E+02  0.16867370626E+02  0.51100000000E-03 0. -1.
        -11    1    3    3    0    0 -0.82155243236E+01  0.41793398011E+01  0.20863565730E+02  0.22808991568E+02  0.51100000000E-03 0.  1.
        -12    1    3    3    0    0 -0.33638884814E+01  0.72548456746E+01  0.13558054982E+01  0.81109025408E+01  0.00000000000E+00 0.  1.
</event>
<event>
 7    1  0.2733256E-010  0.4778728E+02  0.7816164E-02  0.1312668E+00
        -11   -1    0    0    0    0  0.00000000000E+00  0.00000000000E+00  0.45593999997E+02  0.45594000000E+02  0.51100000000E-03 0. -1.
         11   -1    0    0    0    0 -0.00000000000E+00 -0.00000000000E+00 -0.45593999997E+02  0.45594000000E+02  0.51100000000E-03 0.  1.
    9900012    2    1    2    0    0  0.22066762923E+02  0.37357715464E+02 -0.10401551627E+01  0.47787275889E+02  0.20000022087E+02 0.  0.
         12    1    1    2    0    0 -0.22066762923E+02 -0.37357715464E+02  0.10401551627E+01  0.43400724111E+02  0.00000000000E+00 0. -1.
         11    1    3    3    0    0  0.11670089922E+02  0.22905234028E+02  0.47175308562E+01  0.26136102278E+02  0.51100000000E-03 0. -1.
        -11    1    3    3    0    0 -0.76217175073E+00  0.72220653589E+01 -0.27145560472E+00  0.72672430971E+01  0.51100000000E-03 0.  1.
        -12    1    3    3    0    0  0.11158844752E+02  0.72304160775E+01 -0.54862304141E+01  0.14383930513E+02  0.00000000000E+00 0.  1.
</event>
<event>
 7    1  0.2733256E-010  0.4778727E+02  0.7816164E-02  0.1312668E+00
        -11   -1    0    0    0    0  0.00000000000E+00  0.00000000000E+00  0.45593999997E+02  0.45594000000E+02  0.51100000000E-03 0.  1.
         11   -1    0    0    0    0 -0.00000000000E+00 -0.00000000000E+00 -0.45593999997E+02  0.45594000000E+02  0.51100000000E-03 0. -1.
    9900012    2    1    2    0    0 -0.37056681966E+02 -0.11293372294E+02  0.19567454636E+02  0.47787271699E+02  0.20000002986E+02 0.  0.
         12    1    1    2    0    0  0.37056681966E+02  0.11293372294E+02 -0.19567454636E+02  0.43400728301E+02  0.00000000000E+00 0. -1.
         11    1    3    3    0    0 -0.11920531656E+02 -0.85406542982E+01  0.11804583269E+02  0.18825249991E+02  0.51100000000E-03 0. -1.
        -11    1    3    3    0    0 -0.11818020372E+02  0.15878999232E+01  0.89424096954E+01  0.14904822143E+02  0.51100000000E-03 0.  1.
         12    1    3    3    0    0 -0.13318129938E+02 -0.43406179191E+01 -0.11795383287E+01  0.14057199566E+02  0.00000000000E+00 0. -1.
</event>
<event>
 7    1  0.2733256E-010  0.4778727E+02  0.7816164E-02  0.1312668E+00
        -11   -1    0    0    0    0  0.00000000000E+00  0.00000000000E+00  0.45593999997E+02  0.45594000000E+02  0.51100000000E-03 0.  1.
         11   -1    0    0    0    0 -0.00000000000E+00 -0.00000000000E+00 -0.45593999997E+02  0.45594000000E+02  0.51100000000E-03 0. -1.
    9900012    2    1    2    0    0  0.18383379243E+02 -0.32585408974E+02 -0.21996954520E+02  0.47787268226E+02  0.19999987147E+02 0.  0.
         12    1    1    2    0    0 -0.18383379243E+02  0.32585408974E+02  0.21996954520E+02  0.43400731774E+02  0.00000000000E+00 0. -1.
         11    1    3    3    0    0  0.80972888008E+01 -0.22673419477E+01 -0.44784711696E+01  0.95269947890E+01  0.51100000000E-03 0. -1.
        -11    1    3    3    0    0  0.69333612353E+01 -0.11940327697E+02 -0.19539693248E+01  0.13944924522E+02  0.51100000000E-03 0.  1.
        -12    1    3    3    0    0  0.33527292067E+01 -0.18377739329E+02 -0.15564514026E+02  0.24315348915E+02  0.00000000000E+00 0.  1.
</event>
<event>
 7    1  0.2733256E-010  0.4778727E+02  0.7816164E-02  0.1312668E+00
        -11   -1    0    0    0    0  0.00000000000E+00  0.00000000000E+00  0.45593999997E+02  0.45594000000E+02  0.51100000000E-03 0.  1.
         11   -1    0    0    0    0 -0.00000000000E+00 -0.00000000000E+00 -0.45593999997E+02  0.45594000000E+02  0.51100000000E-03 0. -1.
    9900012    2    1    2    0    0  0.18763648128E+02 -0.10022490757E+01  0.39122168350E+02  0.47787273616E+02  0.20000011723E+02 0.  0.
         12    1    1    2    0    0 -0.18763648128E+02  0.10022490757E+01 -0.39122168350E+02  0.43400726384E+02  0.00000000000E+00 0. -1.
         11    1    3    3    0    0  0.64711395077E+01 -0.41218489208E+01  0.69118781233E+01  0.10326632777E+02  0.51100000000E-03 0. -1.
        -11    1    3    3    0    0  0.54099482187E+01 -0.55178286776E+01  0.98307286523E+01  0.12504287230E+02  0.51100000000E-03 0.  1.
         12    1    3    3    0    0  0.68825604014E+01  0.86374285227E+01  0.22379561575E+02  0.24956353609E+02  0.00000000000E+00 0. -1.
</event>
<event>
 7    1  0.2733256E-010  0.4778727E+02  0.7816164E-02  0.1312668E+00
        -11   -1    0    0    0    0  0.00000000000E+00  0.00000000000E+00  0.45593999997E+02  0.45594000000E+02  0.51100000000E-03 0. -1.
         11   -1    0    0    0    0 -0.00000000000E+00 -0.00000000000E+00 -0.45593999997E+02  0.45594000000E+02  0.51100000000E-03 0.  1.
    9900012    2    1    2    0    0  0.66663409992E+01  0.35246941443E+02 -0.24430238295E+02  0.47787268133E+02  0.19999986727E+02 0.  0.
         12    1    1    2    0    0 -0.66663409992E+01 -0.35246941443E+02  0.24430238295E+02  0.43400731867E+02  0.00000000000E+00 0. -1.
         11    1    3    3    0    0 -0.10703325709E+01  0.24823771477E+01 -0.62908806313E+01  0.68471152681E+01  0.51100000000E-03 0. -1.
        -11    1    3    3    0    0  0.93322393216E+00  0.13883862049E+01  0.23272387222E+01  0.28661059807E+01  0.51100000000E-03 0.  1.
        -12    1    3    3    0    0  0.68034496380E+01  0.31376178090E+02 -0.20466596386E+02  0.38074046885E+02  0.00000000000E+00 0.  1.
</event>
<event>
 7    1  0.2733256E-010  0.4778727E+02  0.7816164E-02  0.1312668E+00
        -11   -1    0    0    0    0  0.00000000000E+00  0.00000000000E+00  0.45593999997E+02  0.45594000000E+02  0.51100000000E-03 0.  1.
         11   -1    0    0    0    0 -0.00000000000E+00 -0.00000000000E+00 -0.45593999997E+02  0.45594000000E+02  0.51100000000E-03 0. -1.
    9900012    2    1    2    0    0 -0.20561339163E+02  0.38191194919E+02  0.15124573556E+01  0.47787267693E+02  0.19999984721E+02 0.  0.
         12    1    1    2    0    0  0.20561339163E+02 -0.38191194919E+02 -0.15124573556E+01  0.43400732307E+02  0.00000000000E+00 0. -1.
         11    1    3    3    0    0 -0.74995459297E+01  0.14287576324E+01 -0.31982165146E+01  0.82772656512E+01  0.51100000000E-03 0. -1.
        -11    1    3    3    0    0 -0.79007398353E+01  0.17124252896E+02  0.11402200780E+01  0.18893433496E+02  0.51100000000E-03 0.  1.
         12    1    3    3    0    0 -0.51610533980E+01  0.19638184391E+02  0.35704537922E+01  0.20616568546E+02  0.00000000000E+00 0. -1.
</event>
<event>
 7    1  0.2733256E-010  0.4778727E+02  0.7816164E-02  0.1312668E+00
        -11   -1    0    0    0    0  0.00000000000E+00  0.00000000000E+00  0.45593999997E+02  0.45594000000E+02  0.51100000000E-03 0.  1.
         11   -1    0    0    0    0 -0.00000000000E+00 -0.00000000000E+00 -0.45593999997E+02  0.45594000000E+02  0.51100000000E-03 0. -1.
    9900012    2    1    2    0    0 -0.10743548770E+02 -0.33938525132E+02  0.24826916961E+02  0.47787272655E+02  0.20000007342E+02 0.  0.
         12    1    1    2    0    0  0.10743548770E+02  0.33938525132E+02 -0.24826916961E+02  0.43400727345E+02  0.00000000000E+00 0. -1.
         11    1    3    3    0    0 -0.63396309857E-01 -0.25279758839E+01  0.38456538473E+00  0.25578451787E+01  0.51100000000E-03 0. -1.
        -11    1    3    3    0    0  0.51929443409E+00 -0.28452659959E+01  0.11621846718E+02  0.11976331939E+02  0.51100000000E-03 0.  1.
        -12    1    3    3    0    0 -0.11199446895E+02 -0.28565283252E+02  0.12820504858E+02  0.33253095537E+02  0.00000000000E+00 0.  1.
</event>
<event>
 7    1  0.2733256E-010  0.4778727E+02  0.7816164E-02  0.1312668E+00
        -11   -1    0    0    0    0  0.00000000000E+00  0.00000000000E+00  0.45593999997E+02  0.45594000000E+02  0.51100000000E-03 0.  1.
         11   -1    0    0    0    0 -0.00000000000E+00 -0.00000000000E+00 -0.45593999997E+02  0.45594000000E+02  0.51100000000E-03 0. -1.
    9900012    2    1    2    0    0 -0.79873395923E+01 -0.51639381116E+01  0.42345713072E+02  0.47787271133E+02  0.20000000403E+02 0.  0.
         12    1    1    2    0    0  0.79873395923E+01  0.51639381116E+01 -0.42345713072E+02  0.43400728867E+02  0.00000000000E+00 0. -1.
         11    1    3    3    0    0  0.39833801501E+00 -0.15806947918E+01  0.10984233823E+02  0.11104533404E+02  0.51100000000E-03 0.  1.
        -11    1    3    3    0    0 -0.37918793483E+01  0.64541090774E+01  0.16950855572E+02  0.18530120827E+02  0.51100000000E-03 0. -1.
         12    1    3    3    0    0 -0.45937982589E+01 -0.10037352397E+02  0.14410623678E+02  0.18152616901E+02  0.00000000000E+00 0. -1.
</event>
<event>
 7    1  0.2733256E-010  0.4778727E+02  0.7816164E-02  0.1312668E+00
        -11   -1    0    0    0    0  0.00000000000E+00  0.00000000000E+00  0.45593999997E+02  0.45594000000E+02  0.51100000000E-03 0. -1.
         11   -1    0    0    0    0 -0.00000000000E+00 -0.00000000000E+00 -0.45593999997E+02  0.45594000000E+02  0.51100000000E-03 0.  1.
    9900012    2    1    2    0    0  0.33726600377E+02  0.25204669957E+02  0.10529198774E+02  0.47787274344E+02  0.20000015045E+02 0.  0.
         12    1    1    2    0    0 -0.33726600377E+02 -0.25204669957E+02 -0.10529198774E+02  0.43400725656E+02  0.00000000000E+00 0. -1.
         11    1    3    3    0    0  0.64389536077E+00 -0.55761868906E+00 -0.99133666238E+00  0.13070151022E+01  0.51100000000E-03 0. -1.
        -11    1    3    3    0    0  0.13927669546E+02  0.19475498890E+02  0.10907469467E+02  0.26310604828E+02  0.51100000000E-03 0.  1.
        -12    1    3    3    0    0  0.19155035470E+02  0.62867897566E+01  0.61306596923E+00  0.20169654414E+02  0.00000000000E+00 0.  1.
</event>
<event>
 7    1  0.2733256E-010  0.4778727E+02  0.7816164E-02  0.1312668E+00
        -11   -1    0    0    0    0  0.00000000000E+00  0.00000000000E+00  0.45593999997E+02  0.45594000000E+02  0.51100000000E-03 0.  1.
         11   -1    0    0    0    0 -0.00000000000E+00 -0.00000000000E+00 -0.45593999997E+02  0.45594000000E+02  0.51100000000E-03 0. -1.
    9900012    2    1    2    0    0 -0.28147658492E+02  0.88691878242E+01  0.31822478860E+02  0.47787270374E+02  0.19999996945E+02 0.  0.
         12    1    1    2    0    0  0.28147658492E+02 -0.88691878242E+01 -0.31822478860E+02  0.43400729626E+02  0.00000000000E+00 0. -1.
         11    1    3    3    0    0 -0.14971066776E+02  0.80051327236E+01  0.14290189414E+02  0.22190640011E+02  0.51100000000E-03 0. -1.
        -11    1    3    3    0    0 -0.11986027857E+02  0.52766306783E+01  0.16209271299E+02  0.20838622109E+02  0.51100000000E-03 0.  1.
         12    1    3    3    0    0 -0.11905638588E+01 -0.44125755777E+01  0.13230181469E+01  0.47580082543E+01  0.00000000000E+00 0. -1.
</event>
<event>
 7    1  0.2733256E-010  0.4778726E+02  0.7816164E-02  0.1312668E+00
        -11   -1    0    0    0    0  0.00000000000E+00  0.00000000000E+00  0.45593999997E+02  0.45594000000E+02  0.51100000000E-03 0.  1.
         11   -1    0    0    0    0 -0.00000000000E+00 -0.00000000000E+00 -0.45593999997E+02  0.45594000000E+02  0.51100000000E-03 0. -1.
    9900012    2    1    2    0    0  0.22240904427E+02 -0.18606107486E+02  0.32292086825E+02  0.47787263405E+02  0.19999965167E+02 0.  0.
         12    1    1    2    0    0 -0.22240904427E+02  0.18606107486E+02 -0.32292086825E+02  0.43400736595E+02  0.00000000000E+00 0. -1.
         11    1    3    3    0    0  0.40384233651E+01 -0.18929669242E+01 -0.78919860826E+00  0.45293511407E+01  0.51100000000E-03 0. -1.
        -11    1    3    3    0    0 -0.92542299674E+00 -0.38414731613E+01  0.94500468585E+01  0.10242885807E+02  0.51100000000E-03 0.  1.
        -12    1    3    3    0    0  0.19127904058E+02 -0.12871667400E+02  0.23631238575E+02  0.33015026456E+02  0.00000000000E+00 0.  1.
</event>
<event>
 7    1  0.2733256E-010  0.4778727E+02  0.7816164E-02  0.1312668E+00
        -11   -1    0    0    0    0  0.00000000000E+00  0.00000000000E+00  0.45593999997E+02  0.45594000000E+02  0.51100000000E-03 0. -1.
         11   -1    0    0    0    0 -0.00000000000E+00 -0.00000000000E+00 -0.45593999997E+02  0.45594000000E+02  0.51100000000E-03 0.  1.
    9900012    2    1    2    0    0 -0.31500686258E+02  0.17733619936E+02 -0.24017680974E+02  0.47787268323E+02  0.19999987591E+02 0.  0.
         12    1    1    2    0    0  0.31500686258E+02 -0.17733619936E+02  0.24017680974E+02  0.43400731677E+02  0.00000000000E+00 0. -1.
         11    1    3    3    0    0 -0.40894021558E+01  0.26493198838E+01  0.14049737837E+01  0.50711002192E+01  0.51100000000E-03 0. -1.
        -11    1    3    3    0    0 -0.24992099506E+02  0.11638333476E+02 -0.14802128284E+02  0.31291513959E+02  0.51100000000E-03 0.  1.
        -12    1    3    3    0    0 -0.24191845957E+01  0.34459665756E+01 -0.10620526473E+02  0.11424654144E+02  0.00000000000E+00 0.  1.
</event>
<event>
 7    1  0.2733256E-010  0.4778727E+02  0.7816164E-02  0.1312668E+00
        -11   -1    0    0    0    0  0.00000000000E+00  0.00000000000E+00  0.45593999997E+02  0.45594000000E+02  0.51100000000E-03 0.  1.
         11   -1    0    0    0    0 -0.00000000000E+00 -0.00000000000E+00 -0.45593999997E+02  0.45594000000E+02  0.51100000000E-03 0. -1.
    9900012    2    1    2    0    0  0.27386889231E+02 -0.12960969502E+02  0.31074020830E+02  0.47787271864E+02  0.20000003739E+02 0.  0.
         12    1    1    2    0    0 -0.27386889231E+02  0.12960969502E+02 -0.31074020830E+02  0.43400728136E+02  0.00000000000E+00 0. -1.
         11    1    3    3    0    0 -0.77727314146E+00 -0.25217323389E+01  0.60421189245E+01  0.65932153677E+01  0.51100000000E-03 0. -1.
        -11    1    3    3    0    0  0.10501294926E+02 -0.40046235908E+01  0.17802652428E+02  0.21053470948E+02  0.51100000000E-03 0.  1.
        -12    1    3    3    0    0  0.17662867446E+02 -0.64346135727E+01  0.72292494773E+01  0.20140585549E+02  0.00000000000E+00 0.  1.
</event>
<event>
 7    1  0.2733256E-010  0.4778728E+02  0.7816164E-02  0.1312668E+00
        -11   -1    0    0    0    0  0.00000000000E+00  0.00000000000E+00  0.45593999997E+02  0.45594000000E+02  0.51100000000E-03 0.  1.
         11   -1    0    0    0    0 -0.00000000000E+00 -0.00000000000E+00 -0.45593999997E+02  0.45594000000E+02  0.51100000000E-03 0. -1.
    9900012    2    1    2    0    0  0.11314112178E+02  0.30974269175E+02  0.28217155342E+02  0.47787281793E+02  0.20000049006E+02 0.  0.
         12    1    1    2    0    0 -0.11314112178E+02 -0.30974269175E+02 -0.28217155342E+02  0.43400718207E+02  0.00000000000E+00 0. -1.
         11    1    3    3    0    0  0.59438960938E+01  0.69349142466E+01  0.22539854286E+01  0.94076238740E+01  0.51100000000E-03 0. -1.
        -11    1    3    3    0    0  0.82586096055E+01  0.11345448658E+02  0.18986906567E+02  0.23609880540E+02  0.51100000000E-03 0.  1.
         12    1    3    3    0    0 -0.28883935218E+01  0.12693906271E+02  0.69762633470E+01  0.14769777379E+02  0.00000000000E+00 0. -1.
</event>
<event>
 7    1  0.2733256E-010  0.4778726E+02  0.7816164E-02  0.1312668E+00
        -11   -1    0    0    0    0  0.00000000000E+00  0.00000000000E+00  0.45593999997E+02  0.45594000000E+02  0.51100000000E-03 0.  1.
         11   -1    0    0    0    0 -0.00000000000E+00 -0.00000000000E+00 -0.45593999997E+02  0.45594000000E+02  0.51100000000E-03 0. -1.
    9900012    2    1    2    0    0  0.37501157373E+02  0.89511851994E+01  0.19928962923E+02  0.47787261711E+02  0.19999957447E+02 0.  0.
         12    1    1    2    0    0 -0.37501157373E+02 -0.89511851994E+01 -0.19928962923E+02  0.43400738289E+02  0.00000000000E+00 0. -1.
         11    1    3    3    0    0  0.12461337119E+02  0.88233387643E+01  0.15494292248E+01  0.15347213458E+02  0.51100000000E-03 0.  1.
        -11    1    3    3    0    0  0.18304693635E+01  0.77175798773E+00 -0.97492223648E+00  0.22128493194E+01  0.51100000000E-03 0. -1.
        -12    1    3    3    0    0  0.23209350891E+02 -0.64391155261E+00  0.19354455935E+02  0.30227198934E+02  0.00000000000E+00 0.  1.
</event>
<event>
 7    1  0.2733256E-010  0.4778727E+02  0.7816164E-02  0.1312668E+00
        -11   -1    0    0    0    0  0.00000000000E+00  0.00000000000E+00  0.45593999997E+02  0.45594000000E+02  0.51100000000E-03 0.  1.
         11   -1    0    0    0    0 -0.00000000000E+00 -0.00000000000E+00 -0.45593999997E+02  0.45594000000E+02  0.51100000000E-03 0. -1.
    9900012    2    1    2    0    0  0.93086650907E+01 -0.37755436053E+02  0.19274317001E+02  0.47787268518E+02  0.19999988480E+02 0.  0.
         12    1    1    2    0    0 -0.93086650907E+01  0.37755436053E+02 -0.19274317001E+02  0.43400731482E+02  0.00000000000E+00 0. -1.
         11    1    3    3    0    0  0.50313066863E+01 -0.11061508709E+02  0.63616394840E+01  0.13716467442E+02  0.51100000000E-03 0.  1.
        -11    1    3    3    0    0  0.31181264032E+01 -0.58606946137E+01  0.11347501264E+02  0.13146719698E+02  0.51100000000E-03 0. -1.
         12    1    3    3    0    0  0.11592320013E+01 -0.20833232730E+02  0.15651762533E+01  0.20924081378E+02  0.00000000000E+00 0. -1.
</event>
<event>
 7    1  0.2733256E-010  0.4778727E+02  0.7816164E-02  0.1312668E+00
        -11   -1    0    0    0    0  0.00000000000E+00  0.00000000000E+00  0.45593999997E+02  0.45594000000E+02  0.51100000000E-03 0.  1.
         11   -1    0    0    0    0 -0.00000000000E+00 -0.00000000000E+00 -0.45593999997E+02  0.45594000000E+02  0.51100000000E-03 0. -1.
    9900012    2    1    2    0    0 -0.39406486352E+02 -0.55503500037E+01  0.17318941375E+02  0.47787270950E+02  0.19999999569E+02 0.  0.
         12    1    1    2    0    0  0.39406486352E+02  0.55503500037E+01 -0.17318941375E+02  0.43400729050E+02  0.00000000000E+00 0. -1.
         11    1    3    3    0    0 -0.12616707580E+02 -0.34085559073E+01  0.10961033669E+02  0.17057075449E+02  0.51100000000E-03 0. -1.
        -11    1    3    3    0    0 -0.11267444836E+02 -0.65361519948E+01  0.65858205333E+01  0.14596219661E+02  0.51100000000E-03 0.  1.
        -12    1    3    3    0    0 -0.15522333935E+02  0.43943578984E+01 -0.22791282700E+00  0.16133975839E+02  0.00000000000E+00 0.  1.
</event>
<event>
 7    1  0.2733256E-010  0.4778727E+02  0.7816164E-02  0.1312668E+00
        -11   -1    0    0    0    0  0.00000000000E+00  0.00000000000E+00  0.45593999997E+02  0.45594000000E+02  0.51100000000E-03 0.  1.
         11   -1    0    0    0    0 -0.00000000000E+00 -0.00000000000E+00 -0.45593999997E+02  0.45594000000E+02  0.51100000000E-03 0. -1.
    9900012    2    1    2    0    0 -0.19365346939E+02 -0.90439775357E+01  0.37773179619E+02  0.47787270855E+02  0.19999999138E+02 0.  0.
         12    1    1    2    0    0  0.19365346939E+02  0.90439775357E+01 -0.37773179619E+02  0.43400729145E+02  0.00000000000E+00 0. -1.
         11    1    3    3    0    0 -0.64809774063E+01  0.51972406465E+01  0.16660824812E+02  0.18617128193E+02  0.51100000000E-03 0. -1.
        -11    1    3    3    0    0 -0.50480881287E+01 -0.31711820341E+01  0.34051160390E+01  0.68654500762E+01  0.51100000000E-03 0.  1.
        -12    1    3    3    0    0 -0.78362814037E+01 -0.11070036148E+02  0.17707238768E+02  0.22304692586E+02  0.00000000000E+00 0.  1.
</event>
<event>
 7    1  0.2733256E-010  0.4778727E+02  0.7816164E-02  0.1312668E+00
        -11   -1    0    0    0    0  0.00000000000E+00  0.00000000000E+00  0.45593999997E+02  0.45594000000E+02  0.51100000000E-03 0. -1.
         11   -1    0    0    0    0 -0.00000000000E+00 -0.00000000000E+00 -0.45593999997E+02  0.45594000000E+02  0.51100000000E-03 0.  1.
    9900012    2    1    2    0    0  0.69671785635E+01 -0.33330601615E+02  0.26910085787E+02  0.47787270764E+02  0.19999998721E+02 0.  0.
         12    1    1    2    0    0 -0.69671785635E+01  0.33330601615E+02 -0.26910085787E+02  0.43400729236E+02  0.00000000000E+00 0. -1.
         11    1    3    3    0    0  0.49639395563E+01 -0.30756763122E+02  0.14502607759E+02  0.34364877502E+02  0.51100000000E-03 0.  1.
        -11    1    3    3    0    0  0.25167290594E+01 -0.20827515477E+01  0.49478057098E+01  0.59289595015E+01  0.51100000000E-03 0. -1.
        -12    1    3    3    0    0 -0.51349005217E+00 -0.49108694531E+00  0.74596723183E+01  0.74934337602E+01  0.00000000000E+00 0.  1.
</event>
<event>
 7    1  0.2733256E-010  0.4778724E+02  0.7816164E-02  0.1312668E+00
        -11   -1    0    0    0    0  0.00000000000E+00  0.00000000000E+00  0.45593999997E+02  0.45594000000E+02  0.51100000000E-03 0.  1.
         11   -1    0    0    0    0 -0.00000000000E+00 -0.00000000000E+00 -0.45593999997E+02  0.45594000000E+02  0.51100000000E-03 0. -1.
    9900012    2    1    2    0    0  0.37379846608E+02  0.19785514516E+02  0.97419903915E+01  0.47787240861E+02  0.19999862379E+02 0.  0.
         12    1    1    2    0    0 -0.37379846608E+02 -0.19785514516E+02 -0.97419903915E+01  0.43400759139E+02  0.00000000000E+00 0. -1.
         11    1    3    3    0    0  0.78886271174E+01  0.65107801016E+01  0.12742294111E+01  0.10307490295E+02  0.51100000000E-03 0. -1.
        -11    1    3    3    0    0  0.21922578262E+02  0.16231686214E+02  0.10286950110E+02  0.29152845793E+02  0.51100000000E-03 0.  1.
         12    1    3    3    0    0  0.75686412292E+01 -0.29569518005E+01 -0.18191891292E+01  0.83269047728E+01  0.00000000000E+00 0. -1.
</event>
<event>
 7    1  0.2733256E-010  0.4778728E+02  0.7816164E-02  0.1312668E+00
        -11   -1    0    0    0    0  0.00000000000E+00  0.00000000000E+00  0.45593999997E+02  0.45594000000E+02  0.51100000000E-03 0.  1.
         11   -1    0    0    0    0 -0.00000000000E+00 -0.00000000000E+00 -0.45593999997E+02  0.45594000000E+02  0.51100000000E-03 0. -1.
    9900012    2    1    2    0    0  0.53167751040E+01 -0.30915668135E+02  0.29992935431E+02  0.47787276395E+02  0.20000024394E+02 0.  0.
         12    1    1    2    0    0 -0.53167751040E+01  0.30915668135E+02 -0.29992935431E+02  0.43400723605E+02  0.00000000000E+00 0. -1.
         11    1    3    3    0    0 -0.12808241118E+01  0.16833540075E+01 -0.39215076268E+00  0.21512725540E+01  0.51100000000E-03 0. -1.
        -11    1    3    3    0    0 -0.13938443480E+01 -0.94477164925E+01  0.80801521648E+01  0.12509636616E+02  0.51100000000E-03 0.  1.
         12    1    3    3    0    0  0.79914435639E+01 -0.23151305650E+02  0.22304934028E+02  0.33126367225E+02  0.00000000000E+00 0. -1.
</event>
<event>
 7    1  0.2733256E-010  0.4778727E+02  0.7816164E-02  0.1312668E+00
        -11   -1    0    0    0    0  0.00000000000E+00  0.00000000000E+00  0.45593999997E+02  0.45594000000E+02  0.51100000000E-03 0.  1.
         11   -1    0    0    0    0 -0.00000000000E+00 -0.00000000000E+00 -0.45593999997E+02  0.45594000000E+02  0.51100000000E-03 0. -1.
    9900012    2    1    2    0    0  0.20093201005E+02  0.26651648948E+02  0.27741243811E+02  0.47787265830E+02  0.19999976226E+02 0.  0.
         12    1    1    2    0    0 -0.20093201005E+02 -0.26651648948E+02 -0.27741243811E+02  0.43400734170E+02  0.00000000000E+00 0. -1.
         11    1    3    3    0    0  0.48182058751E+01  0.47707584777E+01  0.14633030599E+02  0.16127641770E+02  0.51100000000E-03 0. -1.
        -11    1    3    3    0    0  0.10592783381E+02  0.74567942837E+01  0.95193836763E+01  0.16075742800E+02  0.51100000000E-03 0.  1.
         12    1    3    3    0    0  0.46822117485E+01  0.14424096187E+02  0.35888295364E+01  0.15583881259E+02  0.00000000000E+00 0. -1.
</event>
<event>
 7    1  0.2733256E-010  0.4778727E+02  0.7816164E-02  0.1312668E+00
        -11   -1    0    0    0    0  0.00000000000E+00  0.00000000000E+00  0.45593999997E+02  0.45594000000E+02  0.51100000000E-03 0. -1.
         11   -1    0    0    0    0 -0.00000000000E+00 -0.00000000000E+00 -0.45593999997E+02  0.45594000000E+02  0.51100000000E-03 0.  1.
    9900012    2    1    2    0    0  0.27551690397E+02  0.24606235567E+02  0.22782910575E+02  0.47787268592E+02  0.19999988818E+02 0.  0.
         12    1    1    2    0    0 -0.27551690397E+02 -0.24606235567E+02 -0.22782910575E+02  0.43400731408E+02  0.00000000000E+00 0. -1.
         11    1    3    3    0    0  0.87091217759E+00  0.11531181568E+01  0.45931230832E+01  0.48150752250E+01  0.51100000000E-03 0. -1.
        -11    1    3    3    0    0  0.18001650154E+02  0.24052560481E+02  0.12284958320E+02  0.32457745996E+02  0.51100000000E-03 0.  1.
        -12    1    3    3    0    0  0.86791280655E+01 -0.59944307066E+00  0.59048291719E+01  0.10514447371E+02  0.00000000000E+00 0.  1.
</event>
<event>
 7    1  0.2733256E-010  0.4778727E+02  0.7816164E-02  0.1312668E+00
        -11   -1    0    0    0    0  0.00000000000E+00  0.00000000000E+00  0.45593999997E+02  0.45594000000E+02  0.51100000000E-03 0.  1.
         11   -1    0    0    0    0 -0.00000000000E+00 -0.00000000000E+00 -0.45593999997E+02  0.45594000000E+02  0.51100000000E-03 0. -1.
    9900012    2    1    2    0    0 -0.16587659434E+02  0.18228394227E+02  0.35723917832E+02  0.47787272969E+02  0.20000008774E+02 0.  0.
         12    1    1    2    0    0  0.16587659434E+02 -0.18228394227E+02 -0.35723917832E+02  0.43400727031E+02  0.00000000000E+00 0. -1.
         11    1    3    3    0    0 -0.12853440615E+01  0.59044285387E+01  0.68768120576E+01  0.91545032668E+01  0.51100000000E-03 0. -1.
        -11    1    3    3    0    0 -0.11571424205E+02  0.13871131457E+02  0.29450409969E+02  0.34548991210E+02  0.51100000000E-03 0.  1.
         12    1    3    3    0    0 -0.37308911672E+01 -0.15471657691E+01 -0.60330419474E+00  0.40837784918E+01  0.00000000000E+00 0. -1.
</event>
<event>
 7    1  0.2733256E-010  0.4778727E+02  0.7816164E-02  0.1312668E+00
        -11   -1    0    0    0    0  0.00000000000E+00  0.00000000000E+00  0.45593999997E+02  0.45594000000E+02  0.51100000000E-03 0. -1.
         11   -1    0    0    0    0 -0.00000000000E+00 -0.00000000000E+00 -0.45593999997E+02  0.45594000000E+02  0.51100000000E-03 0.  1.
    9900012    2    1    2    0    0  0.31941094644E+01  0.41528816102E+02 -0.12197484512E+02  0.47787268088E+02  0.19999986519E+02 0.  0.
         12    1    1    2    0    0 -0.31941094644E+01 -0.41528816102E+02  0.12197484512E+02  0.43400731912E+02  0.00000000000E+00 0. -1.
         11    1    3    3    0    0 -0.19104543366E+01  0.18983751250E+02 -0.11283975809E+02  0.22166658692E+02  0.51100000000E-03 0. -1.
        -11    1    3    3    0    0  0.11965090152E+01  0.96213466117E+01 -0.57577015876E+01  0.11276217109E+02  0.51100000000E-03 0.  1.
         12    1    3    3    0    0  0.39080547859E+01  0.12923718241E+02  0.48441928840E+01  0.14344392287E+02  0.00000000000E+00 0. -1.
</event>
<event>
 7    1  0.2733256E-010  0.4778727E+02  0.7816164E-02  0.1312668E+00
        -11   -1    0    0    0    0  0.00000000000E+00  0.00000000000E+00  0.45593999997E+02  0.45594000000E+02  0.51100000000E-03 0.  1.
         11   -1    0    0    0    0 -0.00000000000E+00 -0.00000000000E+00 -0.45593999997E+02  0.45594000000E+02  0.51100000000E-03 0. -1.
    9900012    2    1    2    0    0 -0.72193447001E+01  0.38787634114E+01  0.42619946802E+02  0.47787267185E+02  0.19999982404E+02 0.  0.
         12    1    1    2    0    0  0.72193447001E+01 -0.38787634114E+01 -0.42619946802E+02  0.43400732815E+02  0.00000000000E+00 0. -1.
         11    1    3    3    0    0  0.70812627711E+00  0.10860899819E+01  0.17952274937E+02  0.17999033584E+02  0.51100000000E-03 0. -1.
        -11    1    3    3    0    0 -0.94951295515E+01  0.33702488114E+01  0.25848247235E+02  0.27742529582E+02  0.51100000000E-03 0.  1.
        -12    1    3    3    0    0  0.15676585743E+01 -0.57757538192E+00 -0.11805753705E+01  0.20457040189E+01  0.00000000000E+00 0.  1.
</event>
<event>
 7    1  0.2733256E-010  0.4778727E+02  0.7816164E-02  0.1312668E+00
        -11   -1    0    0    0    0  0.00000000000E+00  0.00000000000E+00  0.45593999997E+02  0.45594000000E+02  0.51100000000E-03 0.  1.
         11   -1    0    0    0    0 -0.00000000000E+00 -0.00000000000E+00 -0.45593999997E+02  0.45594000000E+02  0.51100000000E-03 0. -1.
    9900012    2    1    2    0    0  0.16042805297E+02  0.14712249884E+02  0.37547322956E+02  0.47787270056E+02  0.19999995495E+02 0.  0.
         12    1    1    2    0    0 -0.16042805297E+02 -0.14712249884E+02 -0.37547322956E+02  0.43400729944E+02  0.00000000000E+00 0. -1.
         11    1    3    3    0    0 -0.31465775565E+00  0.75337831392E+01  0.56780203117E+01  0.94391108062E+01  0.51100000000E-03 0. -1.
        -11    1    3    3    0    0  0.21441120660E+01  0.55105829273E+01  0.43858984635E+01  0.73620544920E+01  0.51100000000E-03 0.  1.
        -12    1    3    3    0    0  0.14213350987E+02  0.16678838176E+01  0.27483404181E+02  0.30986104758E+02  0.00000000000E+00 0.  1.
</event>
<event>
 7    1  0.2733256E-010  0.4778727E+02  0.7816164E-02  0.1312668E+00
        -11   -1    0    0    0    0  0.00000000000E+00  0.00000000000E+00  0.45593999997E+02  0.45594000000E+02  0.51100000000E-03 0.  1.
         11   -1    0    0    0    0 -0.00000000000E+00 -0.00000000000E+00 -0.45593999997E+02  0.45594000000E+02  0.51100000000E-03 0. -1.
    9900012    2    1    2    0    0 -0.33273337317E+02  0.22424395685E+02  0.16542514177E+02  0.47787271051E+02  0.20000000028E+02 0.  0.
         12    1    1    2    0    0  0.33273337317E+02 -0.22424395685E+02 -0.16542514177E+02  0.43400728949E+02  0.00000000000E+00 0. -1.
         11    1    3    3    0    0 -0.35430818792E+01 -0.75306592799E+00 -0.29645267559E+01  0.46807004435E+01  0.51100000000E-03 0. -1.
        -11    1    3    3    0    0 -0.83934314915E+01  0.78578627821E+01  0.23573695216E+01  0.11736817756E+02  0.51100000000E-03 0.  1.
        -12    1    3    3    0    0 -0.21336823946E+02  0.15319598831E+02  0.17149671411E+02  0.31369752851E+02  0.00000000000E+00 0.  1.
</event>
<event>
 7    1  0.2733256E-010  0.4778727E+02  0.7816164E-02  0.1312668E+00
        -11   -1    0    0    0    0  0.00000000000E+00  0.00000000000E+00  0.45593999997E+02  0.45594000000E+02  0.51100000000E-03 0.  1.
         11   -1    0    0    0    0 -0.00000000000E+00 -0.00000000000E+00 -0.45593999997E+02  0.45594000000E+02  0.51100000000E-03 0. -1.
    9900012    2    1    2    0    0  0.84884262598E+01  0.55232982250E+00  0.42558956335E+02  0.47787271747E+02  0.20000003201E+02 0.  0.
         12    1    1    2    0    0 -0.84884262598E+01 -0.55232982250E+00 -0.42558956335E+02  0.43400728253E+02  0.00000000000E+00 0. -1.
         11    1    3    3    0    0  0.39788771837E+01 -0.55920976006E+00  0.15745262424E+02  0.16249845177E+02  0.51100000000E-03 0. -1.
        -11    1    3    3    0    0  0.41006188178E+00  0.83017461091E+01  0.12796391842E+02  0.15258924721E+02  0.51100000000E-03 0.  1.
         12    1    3    3    0    0  0.40994871943E+01 -0.71902065266E+01  0.14017302069E+02  0.16278501848E+02  0.00000000000E+00 0. -1.
</event>
<event>
 7    1  0.2733256E-010  0.4778727E+02  0.7816164E-02  0.1312668E+00
        -11   -1    0    0    0    0  0.00000000000E+00  0.00000000000E+00  0.45593999997E+02  0.45594000000E+02  0.51100000000E-03 0.  1.
         11   -1    0    0    0    0 -0.00000000000E+00 -0.00000000000E+00 -0.45593999997E+02  0.45594000000E+02  0.51100000000E-03 0. -1.
    9900012    2    1    2    0    0  0.20359648553E+02 -0.19777860352E+02  0.32832056585E+02  0.47787274327E+02  0.20000014967E+02 0.  0.
         12    1    1    2    0    0 -0.20359648553E+02  0.19777860352E+02 -0.32832056585E+02  0.43400725673E+02  0.00000000000E+00 0. -1.
         11    1    3    3    0    0 -0.84304068124E+00  0.72916756413E+00  0.17658777157E+01  0.20882354500E+01  0.51100000000E-03 0. -1.
        -11    1    3    3    0    0 -0.24138292504E+01 -0.31668442758E+01  0.21124901418E+01  0.45075591152E+01  0.51100000000E-03 0.  1.
        -12    1    3    3    0    0  0.23616518485E+02 -0.17340183641E+02  0.28953688728E+02  0.41191479762E+02  0.00000000000E+00 0.  1.
</event>
<event>
 7    1  0.2733256E-010  0.4778727E+02  0.7816164E-02  0.1312668E+00
        -11   -1    0    0    0    0  0.00000000000E+00  0.00000000000E+00  0.45593999997E+02  0.45594000000E+02  0.51100000000E-03 0.  1.
         11   -1    0    0    0    0 -0.00000000000E+00 -0.00000000000E+00 -0.45593999997E+02  0.45594000000E+02  0.51100000000E-03 0. -1.
    9900012    2    1    2    0    0  0.26358850117E+02  0.11039021045E+02  0.32664579551E+02  0.47787265877E+02  0.19999976440E+02 0.  0.
         12    1    1    2    0    0 -0.26358850117E+02 -0.11039021045E+02 -0.32664579551E+02  0.43400734123E+02  0.00000000000E+00 0. -1.
         11    1    3    3    0    0 -0.31115016062E+01  0.16845306141E+00  0.39797352166E+01  0.50545139563E+01  0.51100000000E-03 0. -1.
        -11    1    3    3    0    0  0.83000263323E+01  0.43177678994E+01  0.10517401391E+02  0.14076551035E+02  0.51100000000E-03 0.  1.
         12    1    3    3    0    0  0.21170325391E+02  0.65528000845E+01  0.18167442943E+02  0.28656200886E+02  0.00000000000E+00 0. -1.
</event>
<event>
 7    1  0.2733256E-010  0.4778727E+02  0.7816164E-02  0.1312668E+00
        -11   -1    0    0    0    0  0.00000000000E+00  0.00000000000E+00  0.45593999997E+02  0.45594000000E+02  0.51100000000E-03 0.  1.
         11   -1    0    0    0    0 -0.00000000000E+00 -0.00000000000E+00 -0.45593999997E+02  0.45594000000E+02  0.51100000000E-03 0. -1.
    9900012    2    1    2    0    0  0.19107095708E+02  0.19666246252E+01  0.38918819677E+02  0.47787271390E+02  0.20000001577E+02 0.  0.
         12    1    1    2    0    0 -0.19107095708E+02 -0.19666246252E+01 -0.38918819677E+02  0.43400728610E+02  0.00000000000E+00 0. -1.
         11    1    3    3    0    0 -0.76382926218E+00  0.15972923053E+01  0.13744165062E+01  0.22413832434E+01  0.51100000000E-03 0. -1.
        -11    1    3    3    0    0  0.15603495946E+02  0.25767021345E+00  0.38164834018E+02  0.41232148084E+02  0.51100000000E-03 0.  1.
         12    1    3    3    0    0  0.42674290234E+01  0.11166210649E+00 -0.62043084737E+00  0.43137400632E+01  0.00000000000E+00 0. -1.
</event>
<event>
 7    1  0.2733256E-010  0.4778728E+02  0.7816164E-02  0.1312668E+00
        -11   -1    0    0    0    0  0.00000000000E+00  0.00000000000E+00  0.45593999997E+02  0.45594000000E+02  0.51100000000E-03 0. -1.
         11   -1    0    0    0    0 -0.00000000000E+00 -0.00000000000E+00 -0.45593999997E+02  0.45594000000E+02  0.51100000000E-03 0.  1.
    9900012    2    1    2    0    0 -0.37961462028E+02 -0.62541428393E+01 -0.20085716221E+02  0.47787275374E+02  0.20000019742E+02 0.  0.
         12    1    1    2    0    0  0.37961462028E+02  0.62541428393E+01  0.20085716221E+02  0.43400724626E+02  0.00000000000E+00 0. -1.
         11    1    3    3    0    0 -0.64582677708E+01 -0.60284305394E+01  0.36007223254E+00  0.88419935332E+01  0.51100000000E-03 0. -1.
        -11    1    3    3    0    0 -0.39324796136E+01 -0.91041864345E+00  0.82048349306E+00  0.41190352561E+01  0.51100000000E-03 0.  1.
        -12    1    3    3    0    0 -0.27570714643E+02  0.68470634352E+00 -0.21266271946E+02  0.34826246585E+02  0.00000000000E+00 0.  1.
</event>
<event>
 7    1  0.2733256E-010  0.4778727E+02  0.7816164E-02  0.1312668E+00
        -11   -1    0    0    0    0  0.00000000000E+00  0.00000000000E+00  0.45593999997E+02  0.45594000000E+02  0.51100000000E-03 0.  1.
         11   -1    0    0    0    0 -0.00000000000E+00 -0.00000000000E+00 -0.45593999997E+02  0.45594000000E+02  0.51100000000E-03 0. -1.
    9900012    2    1    2    0    0 -0.21798896023E+02  0.35936492831E+02  0.10816648134E+02  0.47787271185E+02  0.20000000643E+02 0.  0.
         12    1    1    2    0    0  0.21798896023E+02 -0.35936492831E+02 -0.10816648134E+02  0.43400728815E+02  0.00000000000E+00 0. -1.
         11    1    3    3    0    0 -0.12943171500E+02  0.15107891291E+02 -0.39068223748E+01  0.20274055566E+02  0.51100000000E-03 0. -1.
        -11    1    3    3    0    0 -0.22609020703E+00  0.63460413291E+00 -0.45915735336E+00  0.81526984703E+00  0.51100000000E-03 0.  1.
        -12    1    3    3    0    0 -0.86296343161E+01  0.20193997406E+02  0.15182627862E+02  0.26697945773E+02  0.00000000000E+00 0.  1.
</event>
<event>
 7    1  0.2733256E-010  0.4778728E+02  0.7816164E-02  0.1312668E+00
        -11   -1    0    0    0    0  0.00000000000E+00  0.00000000000E+00  0.45593999997E+02  0.45594000000E+02  0.51100000000E-03 0. -1.
         11   -1    0    0    0    0 -0.00000000000E+00 -0.00000000000E+00 -0.45593999997E+02  0.45594000000E+02  0.51100000000E-03 0.  1.
    9900012    2    1    2    0    0 -0.21546613258E+02  0.27880812144E+02 -0.25338243615E+02  0.47787276294E+02  0.20000023937E+02 0.  0.
         12    1    1    2    0    0  0.21546613258E+02 -0.27880812144E+02  0.25338243615E+02  0.43400723706E+02  0.00000000000E+00 0. -1.
         11    1    3    3    0    0  0.10946767361E+01  0.47355920511E+01 -0.91087591985E+01  0.10324419772E+02  0.51100000000E-03 0. -1.
        -11    1    3    3    0    0 -0.21473934946E+01 -0.75917170439E+00 -0.10461040036E+01  0.25063867109E+01  0.51100000000E-03 0.  1.
        -12    1    3    3    0    0 -0.20493896499E+02  0.23904391797E+02 -0.15183380413E+02  0.34956469811E+02  0.00000000000E+00 0.  1.
</event>
<event>
 7    1  0.2733256E-010  0.4778727E+02  0.7816164E-02  0.1312668E+00
        -11   -1    0    0    0    0  0.00000000000E+00  0.00000000000E+00  0.45593999997E+02  0.45594000000E+02  0.51100000000E-03 0. -1.
         11   -1    0    0    0    0 -0.00000000000E+00 -0.00000000000E+00 -0.45593999997E+02  0.45594000000E+02  0.51100000000E-03 0.  1.
    9900012    2    1    2    0    0 -0.40587273384E+02 -0.12686632140E+02 -0.86802063116E+01  0.47787269852E+02  0.19999994562E+02 0.  0.
         12    1    1    2    0    0  0.40587273384E+02  0.12686632140E+02  0.86802063116E+01  0.43400730148E+02  0.00000000000E+00 0. -1.
         11    1    3    3    0    0 -0.10252186693E+01 -0.24868328642E+01 -0.28967523735E+01  0.39530476330E+01  0.51100000000E-03 0. -1.
        -11    1    3    3    0    0 -0.19044483878E+02 -0.55016092217E+01 -0.10250770219E+02  0.22316773077E+02  0.51100000000E-03 0.  1.
        -12    1    3    3    0    0 -0.20517570837E+02 -0.46981900542E+01  0.44673162811E+01  0.21517449142E+02  0.00000000000E+00 0.  1.
</event>
<event>
 7    1  0.2733256E-010  0.4778726E+02  0.7816164E-02  0.1312668E+00
        -11   -1    0    0    0    0  0.00000000000E+00  0.00000000000E+00  0.45593999997E+02  0.45594000000E+02  0.51100000000E-03 0. -1.
         11   -1    0    0    0    0 -0.00000000000E+00 -0.00000000000E+00 -0.45593999997E+02  0.45594000000E+02  0.51100000000E-03 0.  1.
    9900012    2    1    2    0    0 -0.37117708069E+02  0.18657612592E+02 -0.12561575045E+02  0.47787263514E+02  0.19999965665E+02 0.  0.
         12    1    1    2    0    0  0.37117708069E+02 -0.18657612592E+02  0.12561575045E+02  0.43400736486E+02  0.00000000000E+00 0. -1.
         11    1    3    3    0    0 -0.13942565037E+02  0.44292046951E+01  0.21615226405E+01  0.14788007114E+02  0.51100000000E-03 0. -1.
        -11    1    3    3    0    0 -0.21307856933E+02  0.94518700648E+01 -0.82195851921E+01  0.24716880786E+02  0.51100000000E-03 0.  1.
        -12    1    3    3    0    0 -0.18672860986E+01  0.47765378325E+01 -0.65035124938E+01  0.82823756131E+01  0.00000000000E+00 0.  1.
</event>
<event>
 7    1  0.2733256E-010  0.4778728E+02  0.7816164E-02  0.1312668E+00
        -11   -1    0    0    0    0  0.00000000000E+00  0.00000000000E+00  0.45593999997E+02  0.45594000000E+02  0.51100000000E-03 0. -1.
         11   -1    0    0    0    0 -0.00000000000E+00 -0.00000000000E+00 -0.45593999997E+02  0.45594000000E+02  0.51100000000E-03 0.  1.
    9900012    2    1    2    0    0 -0.41995249571E+01 -0.43155449418E+02  0.18956614381E+01  0.47787281612E+02  0.20000048182E+02 0.  0.
         12    1    1    2    0    0  0.41995249571E+01  0.43155449418E+02 -0.18956614381E+01  0.43400718388E+02  0.00000000000E+00 0. -1.
         11    1    3    3    0    0 -0.27051487014E+01 -0.98743226329E+01 -0.73700943363E+01  0.12615005658E+02  0.51100000000E-03 0.  1.
        -11    1    3    3    0    0  0.14991059334E+01 -0.19719808015E+01  0.61283616676E+00  0.25517827709E+01  0.51100000000E-03 0. -1.
        -12    1    3    3    0    0 -0.29934821892E+01 -0.31309145983E+02  0.86529196077E+01  0.32620493184E+02  0.00000000000E+00 0.  1.
</event>
<event>
 7    1  0.2733256E-010  0.4778727E+02  0.7816164E-02  0.1312668E+00
        -11   -1    0    0    0    0  0.00000000000E+00  0.00000000000E+00  0.45593999997E+02  0.45594000000E+02  0.51100000000E-03 0.  1.
         11   -1    0    0    0    0 -0.00000000000E+00 -0.00000000000E+00 -0.45593999997E+02  0.45594000000E+02  0.51100000000E-03 0. -1.
    9900012    2    1    2    0    0 -0.35729957377E+01 -0.96099510593E+01  0.42172332717E+02  0.47787272994E+02  0.20000008887E+02 0.  0.
         12    1    1    2    0    0  0.35729957377E+01  0.96099510593E+01 -0.42172332717E+02  0.43400727006E+02  0.00000000000E+00 0. -1.
         11    1    3    3    0    0 -0.76869883221E+01 -0.38028578506E+01  0.22288904437E+02  0.23881934146E+02  0.51100000000E-03 0. -1.
        -11    1    3    3    0    0 -0.18120122919E+00 -0.82953574571E+01  0.11997305628E+02  0.14587019292E+02  0.51100000000E-03 0.  1.
        -12    1    3    3    0    0  0.42951938135E+01  0.24882642484E+01  0.78861226516E+01  0.93183195557E+01  0.00000000000E+00 0.  1.
</event>
<event>
 7    1  0.2733256E-010  0.4778727E+02  0.7816164E-02  0.1312668E+00
        -11   -1    0    0    0    0  0.00000000000E+00  0.00000000000E+00  0.45593999997E+02  0.45594000000E+02  0.51100000000E-03 0. -1.
         11   -1    0    0    0    0 -0.00000000000E+00 -0.00000000000E+00 -0.45593999997E+02  0.45594000000E+02  0.51100000000E-03 0.  1.
    9900012    2    1    2    0    0 -0.94244143026E+01  0.13067614273E+02 -0.40299392816E+02  0.47787272022E+02  0.20000004456E+02 0.  0.
         12    1    1    2    0    0  0.94244143026E+01 -0.13067614273E+02  0.40299392816E+02  0.43400727978E+02  0.00000000000E+00 0. -1.
         11    1    3    3    0    0  0.63118900219E+00  0.13232971413E+02 -0.16730134182E+02  0.21340274646E+02  0.51100000000E-03 0. -1.
        -11    1    3    3    0    0 -0.51988354145E+00  0.13876966905E+01 -0.73753883747E+00  0.16552778617E+01  0.51100000000E-03 0.  1.
        -12    1    3    3    0    0 -0.95357197633E+01 -0.15530538299E+01 -0.22831719796E+02  0.24791719514E+02  0.00000000000E+00 0.  1.
</event>
<event>
 7    1  0.2733256E-010  0.4778727E+02  0.7816164E-02  0.1312668E+00
        -11   -1    0    0    0    0  0.00000000000E+00  0.00000000000E+00  0.45593999997E+02  0.45594000000E+02  0.51100000000E-03 0.  1.
         11   -1    0    0    0    0 -0.00000000000E+00 -0.00000000000E+00 -0.45593999997E+02  0.45594000000E+02  0.51100000000E-03 0. -1.
    9900012    2    1    2    0    0 -0.40735179894E+02 -0.14797268839E+02  0.23041713392E+01  0.47787271300E+02  0.20000001166E+02 0.  0.
         12    1    1    2    0    0  0.40735179894E+02  0.14797268839E+02 -0.23041713392E+01  0.43400728700E+02  0.00000000000E+00 0. -1.
         11    1    3    3    0    0 -0.82223534780E+01 -0.32071485488E+01 -0.47150887339E+00  0.88382814738E+01  0.51100000000E-03 0. -1.
        -11    1    3    3    0    0 -0.10310237483E+02  0.46732318476E+01  0.11733563798E+01  0.11380547365E+02  0.51100000000E-03 0.  1.
        -12    1    3    3    0    0 -0.22202588933E+02 -0.16263352138E+02  0.16023238328E+01  0.27568442462E+02  0.00000000000E+00 0.  1.
</event>
<event>
 7    1  0.2733256E-010  0.4778727E+02  0.7816164E-02  0.1312668E+00
        -11   -1    0    0    0    0  0.00000000000E+00  0.00000000000E+00  0.45593999997E+02  0.45594000000E+02  0.51100000000E-03 0.  1.
         11   -1    0    0    0    0 -0.00000000000E+00 -0.00000000000E+00 -0.45593999997E+02  0.45594000000E+02  0.51100000000E-03 0. -1.
    9900012    2    1    2    0    0 -0.18208337169E+02 -0.67740257647E+01  0.38809693546E+02  0.47787270967E+02  0.19999999645E+02 0.  0.
         12    1    1    2    0    0  0.18208337169E+02  0.67740257647E+01 -0.38809693546E+02  0.43400729033E+02  0.00000000000E+00 0. -1.
         11    1    3    3    0    0 -0.17573255886E+02 -0.10983563503E+02  0.23886491944E+02  0.31623132155E+02  0.51100000000E-03 0.  1.
        -11    1    3    3    0    0 -0.18831396640E+01  0.17777607368E+01  0.31503982861E+01  0.40781929642E+01  0.51100000000E-03 0. -1.
        -12    1    3    3    0    0  0.12480583807E+01  0.24317770017E+01  0.11772803316E+02  0.12085945847E+02  0.00000000000E+00 0.  1.
</event>
<event>
 7    1  0.2733256E-010  0.4778727E+02  0.7816164E-02  0.1312668E+00
        -11   -1    0    0    0    0  0.00000000000E+00  0.00000000000E+00  0.45593999997E+02  0.45594000000E+02  0.51100000000E-03 0. -1.
         11   -1    0    0    0    0 -0.00000000000E+00 -0.00000000000E+00 -0.45593999997E+02  0.45594000000E+02  0.51100000000E-03 0.  1.
    9900012    2    1    2    0    0 -0.30719454488E+02 -0.15416930811E+00 -0.30658022423E+02  0.47787274303E+02  0.20000014855E+02 0.  0.
         12    1    1    2    0    0  0.30719454488E+02  0.15416930811E+00  0.30658022423E+02  0.43400725697E+02  0.00000000000E+00 0. -1.
         11    1    3    3    0    0 -0.24344166225E+01 -0.98249480534E+00  0.12456935758E+01  0.29057586066E+01  0.51100000000E-03 0. -1.
        -11    1    3    3    0    0 -0.59333469842E+01  0.61971894748E+01 -0.87692181934E+01  0.12268208989E+02  0.51100000000E-03 0.  1.
        -12    1    3    3    0    0 -0.22351690881E+02 -0.53688639775E+01 -0.23134497805E+02  0.32613306707E+02  0.00000000000E+00 0.  1.
</event>
<event>
 7    1  0.2733256E-010  0.4778728E+02  0.7816164E-02  0.1312668E+00
        -11   -1    0    0    0    0  0.00000000000E+00  0.00000000000E+00  0.45593999997E+02  0.45594000000E+02  0.51100000000E-03 0. -1.
         11   -1    0    0    0    0 -0.00000000000E+00 -0.00000000000E+00 -0.45593999997E+02  0.45594000000E+02  0.51100000000E-03 0.  1.
    9900012    2    1    2    0    0  0.40705527053E+01  0.29570597770E+02 -0.31506083068E+02  0.47787275097E+02  0.20000018476E+02 0.  0.
         12    1    1    2    0    0 -0.40705527053E+01 -0.29570597770E+02  0.31506083068E+02  0.43400724903E+02  0.00000000000E+00 0. -1.
         11    1    3    3    0    0  0.24975885074E+01  0.13059011482E+02 -0.38317062602E+01  0.13836824143E+02  0.51100000000E-03 0. -1.
        -11    1    3    3    0    0  0.11885202858E+01  0.15608040907E+02 -0.16539346324E+02  0.22772208907E+02  0.51100000000E-03 0.  1.
         12    1    3    3    0    0  0.38444391208E+00  0.90354538158E+00 -0.11135030484E+02  0.11178242046E+02  0.00000000000E+00 0. -1.
</event>
<event>
 7    1  0.2733256E-010  0.4778731E+02  0.7816164E-02  0.1312668E+00
        -11   -1    0    0    0    0  0.00000000000E+00  0.00000000000E+00  0.45593999997E+02  0.45594000000E+02  0.51100000000E-03 0.  1.
         11   -1    0    0    0    0 -0.00000000000E+00 -0.00000000000E+00 -0.45593999997E+02  0.45594000000E+02  0.51100000000E-03 0. -1.
    9900012    2    1    2    0    0  0.28323228412E+02  0.32868413193E+02  0.10400028163E+01  0.47787314990E+02  0.20000200364E+02 0.  0.
         12    1    1    2    0    0 -0.28323228412E+02 -0.32868413193E+02 -0.10400028163E+01  0.43400685010E+02  0.00000000000E+00 0. -1.
         11    1    3    3    0    0  0.28179974666E+01  0.51749018519E+01  0.34440595776E+00  0.59024854615E+01  0.51100000000E-03 0.  1.
        -11    1    3    3    0    0  0.26524983206E+02  0.20152395940E+02  0.40713194265E+01  0.33559937997E+02  0.51100000000E-03 0. -1.
         12    1    3    3    0    0 -0.10197522607E+01  0.75411154007E+01 -0.33757225679E+01  0.83248915318E+01  0.00000000000E+00 0. -1.
</event>
<event>
 7    1  0.2733256E-010  0.4778728E+02  0.7816164E-02  0.1312668E+00
        -11   -1    0    0    0    0  0.00000000000E+00  0.00000000000E+00  0.45593999997E+02  0.45594000000E+02  0.51100000000E-03 0.  1.
         11   -1    0    0    0    0 -0.00000000000E+00 -0.00000000000E+00 -0.45593999997E+02  0.45594000000E+02  0.51100000000E-03 0. -1.
    9900012    2    1    2    0    0 -0.18748078421E+02  0.29068682926E+02  0.26213431326E+02  0.47787277041E+02  0.20000027339E+02 0.  0.
         12    1    1    2    0    0  0.18748078421E+02 -0.29068682926E+02 -0.26213431326E+02  0.43400722959E+02  0.00000000000E+00 0. -1.
         11    1    3    3    0    0 -0.42302510612E+01  0.67976146963E+01  0.76982767537E+01  0.11107027273E+02  0.51100000000E-03 0.  1.
        -11    1    3    3    0    0 -0.29731634616E+01  0.16564309577E+02  0.16639572686E+02  0.23666250911E+02  0.51100000000E-03 0. -1.
         12    1    3    3    0    0 -0.11544663898E+02  0.57067586530E+01  0.18755818857E+01  0.13013998857E+02  0.00000000000E+00 0. -1.
</event>
<event>
 7    1  0.2733256E-010  0.4778727E+02  0.7816164E-02  0.1312668E+00
        -11   -1    0    0    0    0  0.00000000000E+00  0.00000000000E+00  0.45593999997E+02  0.45594000000E+02  0.51100000000E-03 0.  1.
         11   -1    0    0    0    0 -0.00000000000E+00 -0.00000000000E+00 -0.45593999997E+02  0.45594000000E+02  0.51100000000E-03 0. -1.
    9900012    2    1    2    0    0  0.14520023622E+02  0.76933849042E+01  0.40169691500E+02  0.47787269908E+02  0.19999994820E+02 0.  0.
         12    1    1    2    0    0 -0.14520023622E+02 -0.76933849042E+01 -0.40169691500E+02  0.43400730092E+02  0.00000000000E+00 0. -1.
         11    1    3    3    0    0  0.98871512189E+00  0.28019224016E+01  0.15624268055E+02  0.15904278646E+02  0.51100000000E-03 0. -1.
        -11    1    3    3    0    0 -0.30766322370E+01  0.12992586915E+01  0.35700472946E+01  0.48886579975E+01  0.51100000000E-03 0.  1.
         12    1    3    3    0    0  0.16607940738E+02  0.35922038110E+01  0.20975376151E+02  0.26994333265E+02  0.00000000000E+00 0. -1.
</event>
<event>
 7    1  0.2733256E-010  0.4778727E+02  0.7816164E-02  0.1312668E+00
        -11   -1    0    0    0    0  0.00000000000E+00  0.00000000000E+00  0.45593999997E+02  0.45594000000E+02  0.51100000000E-03 0.  1.
         11   -1    0    0    0    0 -0.00000000000E+00 -0.00000000000E+00 -0.45593999997E+02  0.45594000000E+02  0.51100000000E-03 0. -1.
    9900012    2    1    2    0    0  0.53944647389E+01  0.43058027602E+02  0.72749255042E+00  0.47787271478E+02  0.20000001976E+02 0.  0.
         12    1    1    2    0    0 -0.53944647389E+01 -0.43058027602E+02 -0.72749255042E+00  0.43400728522E+02  0.00000000000E+00 0. -1.
         11    1    3    3    0    0 -0.23526039315E+01  0.86121643766E+01 -0.10655615067E+01  0.89910812528E+01  0.51100000000E-03 0. -1.
        -11    1    3    3    0    0 -0.98632952863E+00  0.27326053647E+02 -0.24812532687E+00  0.27344974315E+02  0.51100000000E-03 0.  1.
        -12    1    3    3    0    0  0.87333981990E+01  0.71198095792E+01  0.20411793840E+01  0.11451215910E+02  0.00000000000E+00 0.  1.
</event>
<event>
 7    1  0.2733256E-010  0.4778727E+02  0.7816164E-02  0.1312668E+00
        -11   -1    0    0    0    0  0.00000000000E+00  0.00000000000E+00  0.45593999997E+02  0.45594000000E+02  0.51100000000E-03 0. -1.
         11   -1    0    0    0    0 -0.00000000000E+00 -0.00000000000E+00 -0.45593999997E+02  0.45594000000E+02  0.51100000000E-03 0.  1.
    9900012    2    1    2    0    0  0.33344514087E+00 -0.26643295815E+02 -0.34258531936E+02  0.47787269500E+02  0.19999992956E+02 0.  0.
         12    1    1    2    0    0 -0.33344514087E+00  0.26643295815E+02  0.34258531936E+02  0.43400730500E+02  0.00000000000E+00 0. -1.
         11    1    3    3    0    0 -0.39806838791E+01 -0.84160051911E+00  0.68537670248E+00  0.41260001290E+01  0.51100000000E-03 0. -1.
        -11    1    3    3    0    0  0.12639117476E+01 -0.60615504987E+01 -0.77493008816E+01  0.99192505649E+01  0.51100000000E-03 0.  1.
         12    1    3    3    0    0  0.30502172723E+01 -0.19740144797E+02 -0.27194607757E+02  0.33742018806E+02  0.00000000000E+00 0. -1.
</event>
<event>
 7    1  0.2733256E-010  0.4778727E+02  0.7816164E-02  0.1312668E+00
        -11   -1    0    0    0    0  0.00000000000E+00  0.00000000000E+00  0.45593999997E+02  0.45594000000E+02  0.51100000000E-03 0.  1.
         11   -1    0    0    0    0 -0.00000000000E+00 -0.00000000000E+00 -0.45593999997E+02  0.45594000000E+02  0.51100000000E-03 0. -1.
    9900012    2    1    2    0    0  0.37413599770E+02  0.12278441713E+02  0.18250627779E+02  0.47787274281E+02  0.20000014755E+02 0.  0.
         12    1    1    2    0    0 -0.37413599770E+02 -0.12278441713E+02 -0.18250627779E+02  0.43400725719E+02  0.00000000000E+00 0. -1.
         11    1    3    3    0    0  0.12282503111E+02  0.24611769854E+00  0.20700744561E+01  0.12458156570E+02  0.51100000000E-03 0. -1.
        -11    1    3    3    0    0  0.84546877025E+01 -0.15749646535E+01  0.34353340134E+00  0.86069897911E+01  0.51100000000E-03 0.  1.
        -12    1    3    3    0    0  0.16676408956E+02  0.13607288668E+02  0.15837019922E+02  0.26722127920E+02  0.00000000000E+00 0.  1.
</event>
<event>
 7    1  0.2733256E-010  0.4778727E+02  0.7816164E-02  0.1312668E+00
        -11   -1    0    0    0    0  0.00000000000E+00  0.00000000000E+00  0.45593999997E+02  0.45594000000E+02  0.51100000000E-03 0.  1.
         11   -1    0    0    0    0 -0.00000000000E+00 -0.00000000000E+00 -0.45593999997E+02  0.45594000000E+02  0.51100000000E-03 0. -1.
    9900012    2    1    2    0    0 -0.10798503230E+02 -0.24011420439E+02  0.34503150183E+02  0.47787270097E+02  0.19999995681E+02 0.  0.
         12    1    1    2    0    0  0.10798503230E+02  0.24011420439E+02 -0.34503150183E+02  0.43400729903E+02  0.00000000000E+00 0. -1.
         11    1    3    3    0    0  0.17685072181E+01 -0.17533973390E+01  0.21615721993E+01  0.32976377368E+01  0.51100000000E-03 0. -1.
        -11    1    3    3    0    0 -0.96310043317E+01 -0.13812852784E+02  0.31229141432E+02  0.35479718450E+02  0.51100000000E-03 0.  1.
         12    1    3    3    0    0 -0.29360061162E+01 -0.84451703166E+01  0.11124365525E+01  0.90099139105E+01  0.00000000000E+00 0. -1.
</event>
<event>
 7    1  0.2733256E-010  0.4778726E+02  0.7816164E-02  0.1312668E+00
        -11   -1    0    0    0    0  0.00000000000E+00  0.00000000000E+00  0.45593999997E+02  0.45594000000E+02  0.51100000000E-03 0. -1.
         11   -1    0    0    0    0 -0.00000000000E+00 -0.00000000000E+00 -0.45593999997E+02  0.45594000000E+02  0.51100000000E-03 0.  1.
    9900012    2    1    2    0    0 -0.30386601532E+02  0.14831215700E+02 -0.27208707637E+02  0.47787259418E+02  0.19999946990E+02 0.  0.
         12    1    1    2    0    0  0.30386601532E+02 -0.14831215700E+02  0.27208707637E+02  0.43400740582E+02  0.00000000000E+00 0. -1.
         11    1    3    3    0    0 -0.15702565616E+01  0.41899743084E+00 -0.50419305771E+00  0.17016096546E+01  0.51100000000E-03 0. -1.
        -11    1    3    3    0    0 -0.53120517690E+01 -0.36609298401E+01 -0.10428200340E+02  0.12262449343E+02  0.51100000000E-03 0.  1.
        -12    1    3    3    0    0 -0.23504293201E+02  0.18073148109E+02 -0.16276314239E+02  0.33823200420E+02  0.00000000000E+00 0.  1.
</event>
<event>
 7    1  0.2733256E-010  0.4778728E+02  0.7816164E-02  0.1312668E+00
        -11   -1    0    0    0    0  0.00000000000E+00  0.00000000000E+00  0.45593999997E+02  0.45594000000E+02  0.51100000000E-03 0.  1.
         11   -1    0    0    0    0 -0.00000000000E+00 -0.00000000000E+00 -0.45593999997E+02  0.45594000000E+02  0.51100000000E-03 0. -1.
    9900012    2    1    2    0    0  0.22312768735E+02 -0.37225819859E+02 -0.36312500622E-01  0.47787278446E+02  0.20000033748E+02 0.  0.
         12    1    1    2    0    0 -0.22312768735E+02  0.37225819859E+02  0.36312500622E-01  0.43400721554E+02  0.00000000000E+00 0. -1.
         11    1    3    3    0    0  0.15425385661E+02 -0.16836033623E+02  0.20342753019E+01  0.22924502769E+02  0.51100000000E-03 0. -1.
        -11    1    3    3    0    0  0.89027713671E+01 -0.12243048740E+02  0.24431041448E+01  0.15333634227E+02  0.51100000000E-03 0.  1.
         12    1    3    3    0    0 -0.20153882927E+01 -0.81467374956E+01 -0.45136919474E+01  0.95291414508E+01  0.00000000000E+00 0. -1.
</event>
<event>
 7    1  0.2733256E-010  0.4778727E+02  0.7816164E-02  0.1312668E+00
        -11   -1    0    0    0    0  0.00000000000E+00  0.00000000000E+00  0.45593999997E+02  0.45594000000E+02  0.51100000000E-03 0. -1.
         11   -1    0    0    0    0 -0.00000000000E+00 -0.00000000000E+00 -0.45593999997E+02  0.45594000000E+02  0.51100000000E-03 0.  1.
    9900012    2    1    2    0    0 -0.29174478865E+01 -0.27569170704E+02 -0.33392401353E+02  0.47787272546E+02  0.20000006844E+02 0.  0.
         12    1    1    2    0    0  0.29174478865E+01  0.27569170704E+02  0.33392401353E+02  0.43400727454E+02  0.00000000000E+00 0. -1.
         11    1    3    3    0    0 -0.60811115250E+01 -0.11984677458E+02 -0.10440360426E+02  0.17018035646E+02  0.51100000000E-03 0. -1.
        -11    1    3    3    0    0 -0.50208556475E+01 -0.68899344600E+01 -0.87924374279E+01  0.12246923878E+02  0.51100000000E-03 0.  1.
         12    1    3    3    0    0  0.81845192860E+01 -0.86945587859E+01 -0.14159603498E+02  0.18522313021E+02  0.00000000000E+00 0. -1.
</event>
<event>
 7    1  0.2733256E-010  0.4778727E+02  0.7816164E-02  0.1312668E+00
        -11   -1    0    0    0    0  0.00000000000E+00  0.00000000000E+00  0.45593999997E+02  0.45594000000E+02  0.51100000000E-03 0.  1.
         11   -1    0    0    0    0 -0.00000000000E+00 -0.00000000000E+00 -0.45593999997E+02  0.45594000000E+02  0.51100000000E-03 0. -1.
    9900012    2    1    2    0    0  0.25196841714E+02  0.17755989736E+01  0.35292909854E+02  0.47787273393E+02  0.20000010709E+02 0.  0.
         12    1    1    2    0    0 -0.25196841714E+02 -0.17755989736E+01 -0.35292909854E+02  0.43400726607E+02  0.00000000000E+00 0. -1.
         11    1    3    3    0    0  0.14421112644E+02  0.22080831859E+01  0.12685173565E+02  0.19332815364E+02  0.51100000000E-03 0. -1.
        -11    1    3    3    0    0  0.10420816273E+02  0.13827036748E+01  0.23959117304E+02  0.26163802925E+02  0.51100000000E-03 0.  1.
         12    1    3    3    0    0  0.35491279632E+00 -0.18151878871E+01 -0.13513810154E+01  0.22906551044E+01  0.00000000000E+00 0. -1.
</event>
<event>
 7    1  0.2733256E-010  0.4778727E+02  0.7816164E-02  0.1312668E+00
        -11   -1    0    0    0    0  0.00000000000E+00  0.00000000000E+00  0.45593999997E+02  0.45594000000E+02  0.51100000000E-03 0.  1.
         11   -1    0    0    0    0 -0.00000000000E+00 -0.00000000000E+00 -0.45593999997E+02  0.45594000000E+02  0.51100000000E-03 0. -1.
    9900012    2    1    2    0    0 -0.42671024292E+02  0.21446082737E+01 -0.76293821774E+01  0.47787272689E+02  0.20000007496E+02 0.  0.
         12    1    1    2    0    0  0.42671024292E+02 -0.21446082737E+01  0.76293821774E+01  0.43400727311E+02  0.00000000000E+00 0. -1.
         11    1    3    3    0    0 -0.83951676061E+01  0.40981894660E+01 -0.28396936704E+01  0.97641106322E+01  0.51100000000E-03 0. -1.
        -11    1    3    3    0    0 -0.43189484204E+01  0.14707274066E+00  0.48381196000E+01  0.64870908252E+01  0.51100000000E-03 0.  1.
         12    1    3    3    0    0 -0.29956908265E+02 -0.21006539330E+01 -0.96278081070E+01  0.31536071231E+02  0.00000000000E+00 0. -1.
</event>
<event>
 7    1  0.2733256E-010  0.4778726E+02  0.7816164E-02  0.1312668E+00
        -11   -1    0    0    0    0  0.00000000000E+00  0.00000000000E+00  0.45593999997E+02  0.45594000000E+02  0.51100000000E-03 0.  1.
         11   -1    0    0    0    0 -0.00000000000E+00 -0.00000000000E+00 -0.45593999997E+02  0.45594000000E+02  0.51100000000E-03 0. -1.
    9900012    2    1    2    0    0 -0.40575299837E+02 -0.12667469278E+02  0.87638149621E+01  0.47787260519E+02  0.19999952012E+02 0.  0.
         12    1    1    2    0    0  0.40575299837E+02  0.12667469278E+02 -0.87638149621E+01  0.43400739481E+02  0.00000000000E+00 0. -1.
         11    1    3    3    0    0 -0.74230161039E+01 -0.37935379898E+01  0.87129634114E+01  0.12058516917E+02  0.51100000000E-03 0. -1.
        -11    1    3    3    0    0 -0.12730092984E+02 -0.84923990063E+01 -0.27588047609E-01  0.15302838613E+02  0.51100000000E-03 0.  1.
         12    1    3    3    0    0 -0.20422190749E+02 -0.38153228186E+00  0.78439598326E-01  0.20425904989E+02  0.00000000000E+00 0. -1.
</event>
<event>
 7    1  0.2733256E-010  0.4778727E+02  0.7816164E-02  0.1312668E+00
        -11   -1    0    0    0    0  0.00000000000E+00  0.00000000000E+00  0.45593999997E+02  0.45594000000E+02  0.51100000000E-03 0. -1.
         11   -1    0    0    0    0 -0.00000000000E+00 -0.00000000000E+00 -0.45593999997E+02  0.45594000000E+02  0.51100000000E-03 0.  1.
    9900012    2    1    2    0    0  0.29947998339E+02  0.12935467408E+02 -0.28625411214E+02  0.47787273177E+02  0.20000009725E+02 0.  0.
         12    1    1    2    0    0 -0.29947998339E+02 -0.12935467408E+02  0.28625411214E+02  0.43400726823E+02  0.00000000000E+00 0. -1.
         11    1    3    3    0    0  0.79678998335E+01 -0.25862782431E+01 -0.23102550424E+01  0.86898527910E+01  0.51100000000E-03 0.  1.
        -11    1    3    3    0    0  0.39512992550E+01  0.10471572781E+01 -0.25931403554E-01  0.40877838576E+01  0.51100000000E-03 0. -1.
        -12    1    3    3    0    0  0.18028799251E+02  0.14474588373E+02 -0.26289224768E+02  0.35009636529E+02  0.00000000000E+00 0.  1.
</event>
<event>
 7    1  0.2733256E-010  0.4778727E+02  0.7816164E-02  0.1312668E+00
        -11   -1    0    0    0    0  0.00000000000E+00  0.00000000000E+00  0.45593999997E+02  0.45594000000E+02  0.51100000000E-03 0.  1.
         11   -1    0    0    0    0 -0.00000000000E+00 -0.00000000000E+00 -0.45593999997E+02  0.45594000000E+02  0.51100000000E-03 0. -1.
    9900012    2    1    2    0    0  0.18044202722E+02  0.19546775853E+01  0.39423460165E+02  0.47787271577E+02  0.20000002427E+02 0.  0.
         12    1    1    2    0    0 -0.18044202722E+02 -0.19546775853E+01 -0.39423460165E+02  0.43400728423E+02  0.00000000000E+00 0. -1.
         11    1    3    3    0    0  0.99278507692E+01 -0.36873582510E+00  0.19361195094E+02  0.21761297359E+02  0.51100000000E-03 0. -1.
        -11    1    3    3    0    0  0.10305730233E+02 -0.20303916841E+01  0.17765890787E+02  0.20638736437E+02  0.51100000000E-03 0.  1.
         12    1    3    3    0    0 -0.21893782800E+01  0.43538050945E+01  0.22963742837E+01  0.53872377806E+01  0.00000000000E+00 0. -1.
</event>
<event>
 7    1  0.2733256E-010  0.4778727E+02  0.7816164E-02  0.1312668E+00
        -11   -1    0    0    0    0  0.00000000000E+00  0.00000000000E+00  0.45593999997E+02  0.45594000000E+02  0.51100000000E-03 0. -1.
         11   -1    0    0    0    0 -0.00000000000E+00 -0.00000000000E+00 -0.45593999997E+02  0.45594000000E+02  0.51100000000E-03 0.  1.
    9900012    2    1    2    0    0  0.20569129200E+02 -0.23018678319E+02 -0.30506959042E+02  0.47787272154E+02  0.20000005059E+02 0.  0.
         12    1    1    2    0    0 -0.20569129200E+02  0.23018678319E+02  0.30506959042E+02  0.43400727846E+02  0.00000000000E+00 0. -1.
         11    1    3    3    0    0  0.97862839298E-01  0.40426936618E+00 -0.22245339985E+01  0.22630869686E+01  0.51100000000E-03 0. -1.
        -11    1    3    3    0    0  0.51859327942E+01 -0.15443980903E+02 -0.60262293679E+01  0.17370258655E+02  0.51100000000E-03 0.  1.
        -12    1    3    3    0    0  0.15285333566E+02 -0.79789667821E+01 -0.22256195675E+02  0.28153926530E+02  0.00000000000E+00 0.  1.
</event>
<event>
 7    1  0.2733256E-010  0.4778726E+02  0.7816164E-02  0.1312668E+00
        -11   -1    0    0    0    0  0.00000000000E+00  0.00000000000E+00  0.45593999997E+02  0.45594000000E+02  0.51100000000E-03 0. -1.
         11   -1    0    0    0    0 -0.00000000000E+00 -0.00000000000E+00 -0.45593999997E+02  0.45594000000E+02  0.51100000000E-03 0.  1.
    9900012    2    1    2    0    0 -0.41672813607E+02  0.89685570899E+01  0.81587899312E+01  0.47787259645E+02  0.19999948026E+02 0.  0.
         12    1    1    2    0    0  0.41672813607E+02 -0.89685570899E+01 -0.81587899312E+01  0.43400740355E+02  0.00000000000E+00 0. -1.
         11    1    3    3    0    0 -0.14604604247E+02  0.29174877334E+01 -0.39410103785E+01  0.15405770444E+02  0.51100000000E-03 0. -1.
        -11    1    3    3    0    0 -0.17612781037E+02  0.63544979196E+01  0.24769271708E+01  0.18887161463E+02  0.51100000000E-03 0.  1.
         12    1    3    3    0    0 -0.94554283231E+01 -0.30342856311E+00  0.96228731389E+01  0.13494327738E+02  0.00000000000E+00 0. -1.
</event>
<event>
 7    1  0.2733256E-010  0.4778727E+02  0.7816164E-02  0.1312668E+00
        -11   -1    0    0    0    0  0.00000000000E+00  0.00000000000E+00  0.45593999997E+02  0.45594000000E+02  0.51100000000E-03 0.  1.
         11   -1    0    0    0    0 -0.00000000000E+00 -0.00000000000E+00 -0.45593999997E+02  0.45594000000E+02  0.51100000000E-03 0. -1.
    9900012    2    1    2    0    0  0.65992292856E+01  0.41997032583E+02  0.87362909826E+01  0.47787270132E+02  0.19999995840E+02 0.  0.
         12    1    1    2    0    0 -0.65992292856E+01 -0.41997032583E+02 -0.87362909826E+01  0.43400729868E+02  0.00000000000E+00 0. -1.
         11    1    3    3    0    0 -0.38514811938E+00  0.16207778815E+01 -0.79097881025E+00  0.18441550245E+01  0.51100000000E-03 0. -1.
        -11    1    3    3    0    0  0.41826099347E+01  0.39448681670E+02  0.42502188453E+01  0.39896830348E+02  0.51100000000E-03 0.  1.
         12    1    3    3    0    0  0.28017674703E+01  0.92757303183E+00  0.52770509476E+01  0.60462847593E+01  0.00000000000E+00 0. -1.
</event>
<event>
 7    1  0.2733256E-010  0.4778726E+02  0.7816164E-02  0.1312668E+00
        -11   -1    0    0    0    0  0.00000000000E+00  0.00000000000E+00  0.45593999997E+02  0.45594000000E+02  0.51100000000E-03 0.  1.
         11   -1    0    0    0    0 -0.00000000000E+00 -0.00000000000E+00 -0.45593999997E+02  0.45594000000E+02  0.51100000000E-03 0. -1.
    9900012    2    1    2    0    0 -0.99989439613E+00  0.44712912651E+01  0.43158217496E+02  0.47787263004E+02  0.19999963338E+02 0.  0.
         12    1    1    2    0    0  0.99989439613E+00 -0.44712912651E+01 -0.43158217496E+02  0.43400736996E+02  0.00000000000E+00 0. -1.
         11    1    3    3    0    0  0.12245838603E+01 -0.17605020965E+01  0.27429711958E+01  0.34817904166E+01  0.51100000000E-03 0. -1.
        -11    1    3    3    0    0  0.40089530733E+01 -0.35979105984E+01  0.20897258499E+02  0.21580363261E+02  0.51100000000E-03 0.  1.
         12    1    3    3    0    0 -0.62334313297E+01  0.98297039600E+01  0.19517987801E+02  0.22725109326E+02  0.00000000000E+00 0. -1.
</event>
<event>
 7    1  0.2733256E-010  0.4778727E+02  0.7816164E-02  0.1312668E+00
        -11   -1    0    0    0    0  0.00000000000E+00  0.00000000000E+00  0.45593999997E+02  0.45594000000E+02  0.51100000000E-03 0. -1.
         11   -1    0    0    0    0 -0.00000000000E+00 -0.00000000000E+00 -0.45593999997E+02  0.45594000000E+02  0.51100000000E-03 0.  1.
    9900012    2    1    2    0    0 -0.28791269607E+02 -0.23146717293E+02 -0.22779719840E+02  0.47787270018E+02  0.19999995318E+02 0.  0.
         12    1    1    2    0    0  0.28791269607E+02  0.23146717293E+02  0.22779719840E+02  0.43400729982E+02  0.00000000000E+00 0. -1.
         11    1    3    3    0    0 -0.24238176576E+02 -0.14423324831E+02 -0.15347579900E+02  0.32110274243E+02  0.51100000000E-03 0. -1.
        -11    1    3    3    0    0 -0.57584132753E+01 -0.16964918665E+01 -0.10219752227E+01  0.60894861621E+01  0.51100000000E-03 0.  1.
         12    1    3    3    0    0  0.12053202441E+01 -0.70269005953E+01 -0.64101647172E+01  0.95875096124E+01  0.00000000000E+00 0. -1.
</event>
<event>
 7    1  0.2733256E-010  0.4778727E+02  0.7816164E-02  0.1312668E+00
        -11   -1    0    0    0    0  0.00000000000E+00  0.00000000000E+00  0.45593999997E+02  0.45594000000E+02  0.51100000000E-03 0.  1.
         11   -1    0    0    0    0 -0.00000000000E+00 -0.00000000000E+00 -0.45593999997E+02  0.45594000000E+02  0.51100000000E-03 0. -1.
    9900012    2    1    2    0    0 -0.17625148401E+02 -0.35370556069E+02  0.17941600913E+02  0.47787272631E+02  0.20000007235E+02 0.  0.
         12    1    1    2    0    0  0.17625148401E+02  0.35370556069E+02 -0.17941600913E+02  0.43400727369E+02  0.00000000000E+00 0. -1.
         11    1    3    3    0    0 -0.13168104344E+02 -0.10751265320E+02  0.10196610316E+02  0.19823207112E+02  0.51100000000E-03 0. -1.
        -11    1    3    3    0    0 -0.61500922048E+00 -0.86002304881E+01  0.75946289641E+01  0.11490021330E+02  0.51100000000E-03 0.  1.
         12    1    3    3    0    0 -0.38420348361E+01 -0.16019060262E+02  0.15036163256E+00  0.16474044190E+02  0.00000000000E+00 0. -1.
</event>
<event>
 7    1  0.2733256E-010  0.4778727E+02  0.7816164E-02  0.1312668E+00
        -11   -1    0    0    0    0  0.00000000000E+00  0.00000000000E+00  0.45593999997E+02  0.45594000000E+02  0.51100000000E-03 0.  1.
         11   -1    0    0    0    0 -0.00000000000E+00 -0.00000000000E+00 -0.45593999997E+02  0.45594000000E+02  0.51100000000E-03 0. -1.
    9900012    2    1    2    0    0  0.17337182770E+01 -0.26876221240E+02  0.34033610499E+02  0.47787266242E+02  0.19999978102E+02 0.  0.
         12    1    1    2    0    0 -0.17337182770E+01  0.26876221240E+02 -0.34033610499E+02  0.43400733758E+02  0.00000000000E+00 0. -1.
         11    1    3    3    0    0 -0.71730916220E+00 -0.16639142185E+02  0.99819970271E+01  0.19416895993E+02  0.51100000000E-03 0. -1.
        -11    1    3    3    0    0  0.53954293237E+00 -0.12249562875E+02  0.19211330556E+02  0.22790746350E+02  0.51100000000E-03 0.  1.
         12    1    3    3    0    0  0.19114845068E+01  0.20124838202E+01  0.48402829160E+01  0.55796238989E+01  0.00000000000E+00 0. -1.
</event>
<event>
 7    1  0.2733256E-010  0.4778727E+02  0.7816164E-02  0.1312668E+00
        -11   -1    0    0    0    0  0.00000000000E+00  0.00000000000E+00  0.45593999997E+02  0.45594000000E+02  0.51100000000E-03 0.  1.
         11   -1    0    0    0    0 -0.00000000000E+00 -0.00000000000E+00 -0.45593999997E+02  0.45594000000E+02  0.51100000000E-03 0. -1.
    9900012    2    1    2    0    0  0.20728539770E+01  0.11274007253E+02  0.41859568853E+02  0.47787268812E+02  0.19999989820E+02 0.  0.
         12    1    1    2    0    0 -0.20728539770E+01 -0.11274007253E+02 -0.41859568853E+02  0.43400731188E+02  0.00000000000E+00 0. -1.
         11    1    3    3    0    0  0.35154610360E+00  0.85859889626E+01  0.81725960062E+01  0.11858925620E+02  0.51100000000E-03 0. -1.
        -11    1    3    3    0    0  0.49080087748E+01  0.18570791740E+01  0.56978719611E+01  0.77461628138E+01  0.51100000000E-03 0.  1.
        -12    1    3    3    0    0 -0.31867009014E+01  0.83093911616E+00  0.27989100885E+02  0.28182180377E+02  0.00000000000E+00 0.  1.
</event>
<event>
 7    1  0.2733256E-010  0.4778728E+02  0.7816164E-02  0.1312668E+00
        -11   -1    0    0    0    0  0.00000000000E+00  0.00000000000E+00  0.45593999997E+02  0.45594000000E+02  0.51100000000E-03 0.  1.
         11   -1    0    0    0    0 -0.00000000000E+00 -0.00000000000E+00 -0.45593999997E+02  0.45594000000E+02  0.51100000000E-03 0. -1.
    9900012    2    1    2    0    0 -0.25520598834E+01  0.38259180923E+01  0.43156367942E+02  0.47787277047E+02  0.20000027369E+02 0.  0.
         12    1    1    2    0    0  0.25520598834E+01 -0.38259180923E+01 -0.43156367942E+02  0.43400722953E+02  0.00000000000E+00 0. -1.
         11    1    3    3    0    0 -0.13219359912E+01  0.17509729343E+01  0.26898660748E+01  0.34711382489E+01  0.51100000000E-03 0. -1.
        -11    1    3    3    0    0  0.27692020894E+01  0.31911806439E+00 -0.73577442062E+00  0.28829985796E+01  0.51100000000E-03 0.  1.
        -12    1    3    3    0    0 -0.39993259815E+01  0.17558270936E+01  0.41202276288E+02  0.41433140219E+02  0.00000000000E+00 0.  1.
</event>
<event>
 7    1  0.2733256E-010  0.4778726E+02  0.7816164E-02  0.1312668E+00
        -11   -1    0    0    0    0  0.00000000000E+00  0.00000000000E+00  0.45593999997E+02  0.45594000000E+02  0.51100000000E-03 0.  1.
         11   -1    0    0    0    0 -0.00000000000E+00 -0.00000000000E+00 -0.45593999997E+02  0.45594000000E+02  0.51100000000E-03 0. -1.
    9900012    2    1    2    0    0 -0.74146532469E+01  0.42458407641E+02 -0.50922502598E+01  0.47787257208E+02  0.19999936915E+02 0.  0.
         12    1    1    2    0    0  0.74146532469E+01 -0.42458407641E+02  0.50922502598E+01  0.43400742792E+02  0.00000000000E+00 0. -1.
         11    1    3    3    0    0 -0.83488743075E+01  0.77497103254E+01 -0.99339522901E+00  0.11434533076E+02  0.51100000000E-03 0. -1.
        -11    1    3    3    0    0 -0.24591952468E+01  0.78025369838E+01  0.22812803061E+01  0.84930244755E+01  0.51100000000E-03 0.  1.
        -12    1    3    3    0    0  0.33934163074E+01  0.26906160332E+02 -0.63801353369E+01  0.27859699656E+02  0.00000000000E+00 0.  1.
</event>
<event>
 7    1  0.2733256E-010  0.4778727E+02  0.7816164E-02  0.1312668E+00
        -11   -1    0    0    0    0  0.00000000000E+00  0.00000000000E+00  0.45593999997E+02  0.45594000000E+02  0.51100000000E-03 0.  1.
         11   -1    0    0    0    0 -0.00000000000E+00 -0.00000000000E+00 -0.45593999997E+02  0.45594000000E+02  0.51100000000E-03 0. -1.
    9900012    2    1    2    0    0 -0.29283204876E+02  0.15644160381E+02  0.27953132944E+02  0.47787268633E+02  0.19999989003E+02 0.  0.
         12    1    1    2    0    0  0.29283204876E+02 -0.15644160381E+02 -0.27953132944E+02  0.43400731367E+02  0.00000000000E+00 0. -1.
         11    1    3    3    0    0  0.87881214540E+00 -0.20140589250E+01  0.30059048121E+00  0.22179041996E+01  0.51100000000E-03 0.  1.
        -11    1    3    3    0    0 -0.49106335183E+01 -0.70844838999E+00  0.31279388347E+01  0.58651702692E+01  0.51100000000E-03 0. -1.
        -12    1    3    3    0    0 -0.25251383503E+02  0.18366667696E+02  0.24524603628E+02  0.39704194164E+02  0.00000000000E+00 0.  1.
</event>
<event>
 7    1  0.2733256E-010  0.4778727E+02  0.7816164E-02  0.1312668E+00
        -11   -1    0    0    0    0  0.00000000000E+00  0.00000000000E+00  0.45593999997E+02  0.45594000000E+02  0.51100000000E-03 0.  1.
         11   -1    0    0    0    0 -0.00000000000E+00 -0.00000000000E+00 -0.45593999997E+02  0.45594000000E+02  0.51100000000E-03 0. -1.
    9900012    2    1    2    0    0  0.20155872821E+02 -0.23490699712E+02  0.30422873143E+02  0.47787269679E+02  0.19999993774E+02 0.  0.
         12    1    1    2    0    0 -0.20155872821E+02  0.23490699712E+02 -0.30422873143E+02  0.43400730321E+02  0.00000000000E+00 0. -1.
         11    1    3    3    0    0 -0.21060772643E+00  0.40257042694E+00 -0.17582089044E+01  0.18159618321E+01  0.51100000000E-03 0. -1.
        -11    1    3    3    0    0  0.79657683682E+01 -0.12851621360E+02  0.94809645301E+01  0.17846745528E+02  0.51100000000E-03 0.  1.
        -12    1    3    3    0    0  0.12400712179E+02 -0.11041648779E+02  0.22700117517E+02  0.28124562318E+02  0.00000000000E+00 0.  1.
</event>
<event>
 7    1  0.2733256E-010  0.4778729E+02  0.7816164E-02  0.1312668E+00
        -11   -1    0    0    0    0  0.00000000000E+00  0.00000000000E+00  0.45593999997E+02  0.45594000000E+02  0.51100000000E-03 0.  1.
         11   -1    0    0    0    0 -0.00000000000E+00 -0.00000000000E+00 -0.45593999997E+02  0.45594000000E+02  0.51100000000E-03 0. -1.
    9900012    2    1    2    0    0 -0.20570449448E+02 -0.47509040608E+01  0.37919748103E+02  0.47787288299E+02  0.20000078672E+02 0.  0.
         12    1    1    2    0    0  0.20570449448E+02  0.47509040608E+01 -0.37919748103E+02  0.43400711701E+02  0.00000000000E+00 0. -1.
         11    1    3    3    0    0  0.11450770603E+01 -0.45866854443E+01  0.57684569011E+01  0.74581485719E+01  0.51100000000E-03 0. -1.
        -11    1    3    3    0    0 -0.69979162671E+01 -0.52704020916E+01  0.12049663899E+02  0.14897730386E+02  0.51100000000E-03 0.  1.
        -12    1    3    3    0    0 -0.14717610242E+02  0.51061834751E+01  0.20101627303E+02  0.25431409342E+02  0.00000000000E+00 0.  1.
</event>
<event>
 7    1  0.2733256E-010  0.4778730E+02  0.7816164E-02  0.1312668E+00
        -11   -1    0    0    0    0  0.00000000000E+00  0.00000000000E+00  0.45593999997E+02  0.45594000000E+02  0.51100000000E-03 0. -1.
         11   -1    0    0    0    0 -0.00000000000E+00 -0.00000000000E+00 -0.45593999997E+02  0.45594000000E+02  0.51100000000E-03 0.  1.
    9900012    2    1    2    0    0 -0.37379353264E+02 -0.17396234468E+02 -0.13556402830E+02  0.47787296298E+02  0.20000115143E+02 0.  0.
         12    1    1    2    0    0  0.37379353264E+02  0.17396234468E+02  0.13556402830E+02  0.43400703702E+02  0.00000000000E+00 0. -1.
         11    1    3    3    0    0 -0.34937991963E+01  0.30372571755E+01 -0.10392372297E+01  0.47446367885E+01  0.51100000000E-03 0. -1.
        -11    1    3    3    0    0 -0.32568290896E+02 -0.15486109578E+02 -0.10941020809E+02  0.37685794384E+02  0.51100000000E-03 0.  1.
         12    1    3    3    0    0 -0.13172631711E+01 -0.49473820661E+01 -0.15761447915E+01  0.53568651256E+01  0.00000000000E+00 0. -1.
</event>
<event>
 7    1  0.2733256E-010  0.4778728E+02  0.7816164E-02  0.1312668E+00
        -11   -1    0    0    0    0  0.00000000000E+00  0.00000000000E+00  0.45593999997E+02  0.45594000000E+02  0.51100000000E-03 0.  1.
         11   -1    0    0    0    0 -0.00000000000E+00 -0.00000000000E+00 -0.45593999997E+02  0.45594000000E+02  0.51100000000E-03 0. -1.
    9900012    2    1    2    0    0  0.18707992652E+02  0.38257749326E+02  0.83653114222E+01  0.47787276415E+02  0.20000024485E+02 0.  0.
         12    1    1    2    0    0 -0.18707992652E+02 -0.38257749326E+02 -0.83653114222E+01  0.43400723585E+02  0.00000000000E+00 0. -1.
         11    1    3    3    0    0 -0.14641652529E+01  0.37245953086E+01  0.62693634508E+00  0.40508566430E+01  0.51100000000E-03 0. -1.
        -11    1    3    3    0    0  0.98848047833E+01  0.11459357780E+02  0.10356320932E+02  0.18337928723E+02  0.51100000000E-03 0.  1.
         12    1    3    3    0    0  0.10287353122E+02  0.23073796237E+02 -0.26179458552E+01  0.25398491048E+02  0.00000000000E+00 0. -1.
</event>
<event>
 7    1  0.2733256E-010  0.4778729E+02  0.7816164E-02  0.1312668E+00
        -11   -1    0    0    0    0  0.00000000000E+00  0.00000000000E+00  0.45593999997E+02  0.45594000000E+02  0.51100000000E-03 0. -1.
         11   -1    0    0    0    0 -0.00000000000E+00 -0.00000000000E+00 -0.45593999997E+02  0.45594000000E+02  0.51100000000E-03 0.  1.
    9900012    2    1    2    0    0 -0.26371918166E+02  0.32050054311E+02 -0.12686131552E+02  0.47787285917E+02  0.20000067811E+02 0.  0.
         12    1    1    2    0    0  0.26371918166E+02 -0.32050054311E+02  0.12686131552E+02  0.43400714083E+02  0.00000000000E+00 0. -1.
         11    1    3    3    0    0  0.18185997463E+00  0.41842420383E-01  0.53101498441E+00  0.56285079133E+00  0.51100000000E-03 0. -1.
        -11    1    3    3    0    0 -0.16262392832E+02  0.30987050771E+02 -0.10217365057E+02  0.36456237945E+02  0.51100000000E-03 0.  1.
        -12    1    3    3    0    0 -0.10291385309E+02  0.10211611199E+01 -0.29997814798E+01  0.10768197181E+02  0.00000000000E+00 0.  1.
</event>
<event>
 7    1  0.2733256E-010  0.4778727E+02  0.7816164E-02  0.1312668E+00
        -11   -1    0    0    0    0  0.00000000000E+00  0.00000000000E+00  0.45593999997E+02  0.45594000000E+02  0.51100000000E-03 0.  1.
         11   -1    0    0    0    0 -0.00000000000E+00 -0.00000000000E+00 -0.45593999997E+02  0.45594000000E+02  0.51100000000E-03 0. -1.
    9900012    2    1    2    0    0  0.43048251873E+02 -0.19120789031E+00  0.55167424267E+01  0.47787274236E+02  0.20000014553E+02 0.  0.
         12    1    1    2    0    0 -0.43048251873E+02  0.19120789031E+00 -0.55167424267E+01  0.43400725764E+02  0.00000000000E+00 0. -1.
         11    1    3    3    0    0  0.22878164948E+01 -0.69495327724E+00 -0.37186211409E+01  0.44209962477E+01  0.51100000000E-03 0. -1.
        -11    1    3    3    0    0  0.22894853948E+01  0.18981572920E+01 -0.15961626327E+01  0.33752747872E+01  0.51100000000E-03 0.  1.
        -12    1    3    3    0    0  0.38470949984E+02 -0.13944119051E+01  0.10831526200E+02  0.39991003201E+02  0.00000000000E+00 0.  1.
</event>
<event>
 7    1  0.2733256E-010  0.4778727E+02  0.7816164E-02  0.1312668E+00
        -11   -1    0    0    0    0  0.00000000000E+00  0.00000000000E+00  0.45593999997E+02  0.45594000000E+02  0.51100000000E-03 0. -1.
         11   -1    0    0    0    0 -0.00000000000E+00 -0.00000000000E+00 -0.45593999997E+02  0.45594000000E+02  0.51100000000E-03 0.  1.
    9900012    2    1    2    0    0 -0.84635422602E+01 -0.34901655456E+02 -0.24369379369E+02  0.47787265536E+02  0.19999974887E+02 0.  0.
         12    1    1    2    0    0  0.84635422602E+01  0.34901655456E+02  0.24369379369E+02  0.43400734464E+02  0.00000000000E+00 0. -1.
         11    1    3    3    0    0  0.13517837789E+01 -0.16163509619E+02 -0.18067267811E+02  0.24279879098E+02  0.51100000000E-03 0. -1.
        -11    1    3    3    0    0 -0.44895712367E+01 -0.11808200197E+02 -0.74909806337E+01  0.14686886426E+02  0.51100000000E-03 0.  1.
         12    1    3    3    0    0 -0.53257548025E+01 -0.69299456400E+01  0.11888690760E+01  0.88205000124E+01  0.00000000000E+00 0. -1.
</event>
<event>
 7    1  0.2733256E-010  0.4778727E+02  0.7816164E-02  0.1312668E+00
        -11   -1    0    0    0    0  0.00000000000E+00  0.00000000000E+00  0.45593999997E+02  0.45594000000E+02  0.51100000000E-03 0.  1.
         11   -1    0    0    0    0 -0.00000000000E+00 -0.00000000000E+00 -0.45593999997E+02  0.45594000000E+02  0.51100000000E-03 0. -1.
    9900012    2    1    2    0    0  0.39860190224E+02  0.14366780792E+02  0.94012758386E+01  0.47787272559E+02  0.20000006907E+02 0.  0.
         12    1    1    2    0    0 -0.39860190224E+02 -0.14366780792E+02 -0.94012758386E+01  0.43400727441E+02  0.00000000000E+00 0. -1.
         11    1    3    3    0    0  0.83285688744E+01  0.66351834176E+00  0.67923771116E+01  0.10767622912E+02  0.51100000000E-03 0. -1.
        -11    1    3    3    0    0  0.23409201576E+02  0.11531649602E+02  0.76786862920E+01  0.27201688999E+02  0.51100000000E-03 0.  1.
        -12    1    3    3    0    0  0.81224197737E+01  0.21716128480E+01 -0.50697875651E+01  0.98179606486E+01  0.00000000000E+00 0.  1.
</event>
<event>
 7    1  0.2733256E-010  0.4778728E+02  0.7816164E-02  0.1312668E+00
        -11   -1    0    0    0    0  0.00000000000E+00  0.00000000000E+00  0.45593999997E+02  0.45594000000E+02  0.51100000000E-03 0.  1.
         11   -1    0    0    0    0 -0.00000000000E+00 -0.00000000000E+00 -0.45593999997E+02  0.45594000000E+02  0.51100000000E-03 0. -1.
    9900012    2    1    2    0    0 -0.33956098518E+02 -0.26365353299E+02 -0.59560311398E+01  0.47787276641E+02  0.20000025518E+02 0.  0.
         12    1    1    2    0    0  0.33956098518E+02  0.26365353299E+02  0.59560311398E+01  0.43400723359E+02  0.00000000000E+00 0. -1.
         11    1    3    3    0    0 -0.14315200151E+02 -0.15138693169E+02 -0.40954533960E+01  0.21233881534E+02  0.51100000000E-03 0. -1.
        -11    1    3    3    0    0 -0.21577225026E+02 -0.88606153150E+01 -0.87868286907E+00  0.23342219848E+02  0.51100000000E-03 0.  1.
         12    1    3    3    0    0  0.19363266595E+01 -0.23660448155E+01 -0.98189487469E+00  0.32111752594E+01  0.00000000000E+00 0. -1.
</event>
<event>
 7    1  0.2733256E-010  0.4778726E+02  0.7816164E-02  0.1312668E+00
        -11   -1    0    0    0    0  0.00000000000E+00  0.00000000000E+00  0.45593999997E+02  0.45594000000E+02  0.51100000000E-03 0.  1.
         11   -1    0    0    0    0 -0.00000000000E+00 -0.00000000000E+00 -0.45593999997E+02  0.45594000000E+02  0.51100000000E-03 0. -1.
    9900012    2    1    2    0    0  0.20718730314E+02  0.35991927307E+02  0.12607112557E+02  0.47787263784E+02  0.19999966896E+02 0.  0.
         12    1    1    2    0    0 -0.20718730314E+02 -0.35991927307E+02 -0.12607112557E+02  0.43400736216E+02  0.00000000000E+00 0. -1.
         11    1    3    3    0    0  0.11329566818E+02  0.14880834821E+02 -0.87466631514E-01  0.18703100810E+02  0.51100000000E-03 0. -1.
        -11    1    3    3    0    0  0.93760060352E+01  0.61832670707E+01  0.50878150114E+01  0.12329969290E+02  0.51100000000E-03 0.  1.
        -12    1    3    3    0    0  0.13157460899E-01  0.14927825415E+02  0.76067641776E+01  0.16754193684E+02  0.00000000000E+00 0.  1.
</event>
<event>
 7    1  0.2733256E-010  0.4778727E+02  0.7816164E-02  0.1312668E+00
        -11   -1    0    0    0    0  0.00000000000E+00  0.00000000000E+00  0.45593999997E+02  0.45594000000E+02  0.51100000000E-03 0.  1.
         11   -1    0    0    0    0 -0.00000000000E+00 -0.00000000000E+00 -0.45593999997E+02  0.45594000000E+02  0.51100000000E-03 0. -1.
    9900012    2    1    2    0    0 -0.20267683882E+02  0.23936166753E+02  0.29998397743E+02  0.47787274708E+02  0.20000016704E+02 0.  0.
         12    1    1    2    0    0  0.20267683882E+02 -0.23936166753E+02 -0.29998397743E+02  0.43400725292E+02  0.00000000000E+00 0. -1.
         11    1    3    3    0    0 -0.23602842535E+01  0.19294691501E+00  0.33332019813E+01  0.40888147400E+01  0.51100000000E-03 0. -1.
        -11    1    3    3    0    0 -0.10745422131E+02  0.24963543129E+02  0.22764765361E+02  0.35452462884E+02  0.51100000000E-03 0.  1.
        -12    1    3    3    0    0 -0.71619774972E+01 -0.12203232914E+01  0.39004304000E+01  0.82459970841E+01  0.00000000000E+00 0.  1.
</event>
<event>
 7    1  0.2733256E-010  0.4778727E+02  0.7816164E-02  0.1312668E+00
        -11   -1    0    0    0    0  0.00000000000E+00  0.00000000000E+00  0.45593999997E+02  0.45594000000E+02  0.51100000000E-03 0.  1.
         11   -1    0    0    0    0 -0.00000000000E+00 -0.00000000000E+00 -0.45593999997E+02  0.45594000000E+02  0.51100000000E-03 0. -1.
    9900012    2    1    2    0    0 -0.17671277338E+02 -0.11870158514E+02  0.37821275432E+02  0.47787267504E+02  0.19999983859E+02 0.  0.
         12    1    1    2    0    0  0.17671277338E+02  0.11870158514E+02 -0.37821275432E+02  0.43400732496E+02  0.00000000000E+00 0. -1.
         11    1    3    3    0    0 -0.52763084866E+01 -0.13586438092E+02  0.15059684349E+02  0.20957691290E+02  0.51100000000E-03 0. -1.
        -11    1    3    3    0    0 -0.70283674581E+01 -0.24093232178E+01  0.11576352916E+02  0.13755534690E+02  0.51100000000E-03 0.  1.
         12    1    3    3    0    0 -0.53666013930E+01  0.41256027958E+01  0.11185238167E+02  0.13074041525E+02  0.00000000000E+00 0. -1.
</event>
<event>
 7    1  0.2733256E-010  0.4778727E+02  0.7816164E-02  0.1312668E+00
        -11   -1    0    0    0    0  0.00000000000E+00  0.00000000000E+00  0.45593999997E+02  0.45594000000E+02  0.51100000000E-03 0.  1.
         11   -1    0    0    0    0 -0.00000000000E+00 -0.00000000000E+00 -0.45593999997E+02  0.45594000000E+02  0.51100000000E-03 0. -1.
    9900012    2    1    2    0    0 -0.89064796917E+01  0.24887746418E+02  0.34422352111E+02  0.47787266975E+02  0.19999981446E+02 0.  0.
         12    1    1    2    0    0  0.89064796917E+01 -0.24887746418E+02 -0.34422352111E+02  0.43400733025E+02  0.00000000000E+00 0. -1.
         11    1    3    3    0    0 -0.95688695752E+00  0.10460898800E+02  0.93022122463E+01  0.14031293215E+02  0.51100000000E-03 0. -1.
        -11    1    3    3    0    0 -0.41880707808E+01  0.16421406858E+02  0.14462214498E+02  0.22279097569E+02  0.51100000000E-03 0.  1.
         12    1    3    3    0    0 -0.37615219534E+01 -0.19945592401E+01  0.10657925367E+02  0.11476876191E+02  0.00000000000E+00 0. -1.
</event>
<event>
 7    1  0.2733256E-010  0.4778728E+02  0.7816164E-02  0.1312668E+00
        -11   -1    0    0    0    0  0.00000000000E+00  0.00000000000E+00  0.45593999997E+02  0.45594000000E+02  0.51100000000E-03 0.  1.
         11   -1    0    0    0    0 -0.00000000000E+00 -0.00000000000E+00 -0.45593999997E+02  0.45594000000E+02  0.51100000000E-03 0. -1.
    9900012    2    1    2    0    0  0.35430234206E+02  0.19252114196E+02  0.16052334921E+02  0.47787275890E+02  0.20000022091E+02 0.  0.
         12    1    1    2    0    0 -0.35430234206E+02 -0.19252114196E+02 -0.16052334921E+02  0.43400724110E+02  0.00000000000E+00 0. -1.
         11    1    3    3    0    0  0.88569087958E+01  0.95391915988E+01  0.12607484249E+02  0.18121525022E+02  0.51100000000E-03 0. -1.
        -11    1    3    3    0    0  0.89559698497E+01  0.53587446542E+01  0.47594568352E+01  0.11470744084E+02  0.51100000000E-03 0.  1.
        -12    1    3    3    0    0  0.17617355560E+02  0.43541779427E+01 -0.13146061627E+01  0.18195006784E+02  0.00000000000E+00 0.  1.
</event>
<event>
 7    1  0.2733256E-010  0.4778727E+02  0.7816164E-02  0.1312668E+00
        -11   -1    0    0    0    0  0.00000000000E+00  0.00000000000E+00  0.45593999997E+02  0.45594000000E+02  0.51100000000E-03 0.  1.
         11   -1    0    0    0    0 -0.00000000000E+00 -0.00000000000E+00 -0.45593999997E+02  0.45594000000E+02  0.51100000000E-03 0. -1.
    9900012    2    1    2    0    0 -0.73027124610E+01 -0.76630014482E+01  0.42090047996E+02  0.47787270273E+02  0.19999996483E+02 0.  0.
         12    1    1    2    0    0  0.73027124610E+01  0.76630014482E+01 -0.42090047996E+02  0.43400729727E+02  0.00000000000E+00 0. -1.
         11    1    3    3    0    0  0.23988689164E+01 -0.45066009454E+01  0.16619620040E+01  0.53689982420E+01  0.51100000000E-03 0. -1.
        -11    1    3    3    0    0  0.57589680076E+00  0.56257322999E+00  0.35223340623E+00  0.87875730313E+00  0.51100000000E-03 0.  1.
        -12    1    3    3    0    0 -0.10277478178E+02 -0.37189737328E+01  0.40075852586E+02  0.41539514728E+02  0.00000000000E+00 0.  1.
</event>
<event>
 7    1  0.2733256E-010  0.4778727E+02  0.7816164E-02  0.1312668E+00
        -11   -1    0    0    0    0  0.00000000000E+00  0.00000000000E+00  0.45593999997E+02  0.45594000000E+02  0.51100000000E-03 0.  1.
         11   -1    0    0    0    0 -0.00000000000E+00 -0.00000000000E+00 -0.45593999997E+02  0.45594000000E+02  0.51100000000E-03 0. -1.
    9900012    2    1    2    0    0 -0.28299146699E+02  0.79341974281E+01  0.31934781918E+02  0.47787268568E+02  0.19999988710E+02 0.  0.
         12    1    1    2    0    0  0.28299146699E+02 -0.79341974281E+01 -0.31934781918E+02  0.43400731432E+02  0.00000000000E+00 0. -1.
         11    1    3    3    0    0 -0.11171973202E+02  0.28247597006E+01  0.56893527577E+01  0.12851497487E+02  0.51100000000E-03 0. -1.
        -11    1    3    3    0    0 -0.12599232164E+02  0.99156074368E+01  0.21427123474E+02  0.26761568388E+02  0.51100000000E-03 0.  1.
         12    1    3    3    0    0 -0.45279413319E+01 -0.48061697092E+01  0.48183056863E+01  0.81742026930E+01  0.00000000000E+00 0. -1.
</event>
<event>
 7    1  0.2733256E-010  0.4778727E+02  0.7816164E-02  0.1312668E+00
        -11   -1    0    0    0    0  0.00000000000E+00  0.00000000000E+00  0.45593999997E+02  0.45594000000E+02  0.51100000000E-03 0.  1.
         11   -1    0    0    0    0 -0.00000000000E+00 -0.00000000000E+00 -0.45593999997E+02  0.45594000000E+02  0.51100000000E-03 0. -1.
    9900012    2    1    2    0    0  0.17400768556E+02  0.11428453338E+02  0.38081849013E+02  0.47787268252E+02  0.19999987269E+02 0.  0.
         12    1    1    2    0    0 -0.17400768556E+02 -0.11428453338E+02 -0.38081849013E+02  0.43400731748E+02  0.00000000000E+00 0. -1.
         11    1    3    3    0    0  0.89975323817E+01  0.11075606933E+02  0.19831289795E+02  0.24431633451E+02  0.51100000000E-03 0. -1.
        -11    1    3    3    0    0  0.58602712737E+01  0.51874231511E+01  0.15206040717E+02  0.17101924246E+02  0.51100000000E-03 0.  1.
         12    1    3    3    0    0  0.25429649010E+01 -0.48345767470E+01  0.30445185007E+01  0.62537105555E+01  0.00000000000E+00 0. -1.
</event>
<event>
 7    1  0.2733256E-010  0.4778727E+02  0.7816164E-02  0.1312668E+00
        -11   -1    0    0    0    0  0.00000000000E+00  0.00000000000E+00  0.45593999997E+02  0.45594000000E+02  0.51100000000E-03 0. -1.
         11   -1    0    0    0    0 -0.00000000000E+00 -0.00000000000E+00 -0.45593999997E+02  0.45594000000E+02  0.51100000000E-03 0.  1.
    9900012    2    1    2    0    0 -0.42686284202E+02 -0.71782455975E+01 -0.31586676979E+01  0.47787271314E+02  0.20000001229E+02 0.  0.
         12    1    1    2    0    0  0.42686284202E+02  0.71782455975E+01  0.31586676979E+01  0.43400728686E+02  0.00000000000E+00 0. -1.
         11    1    3    3    0    0 -0.23448143993E+02 -0.43129696236E+01  0.13475242062E+01  0.23879551617E+02  0.51100000000E-03 0. -1.
        -11    1    3    3    0    0 -0.19507024683E+02  0.10091890773E+01 -0.31020188979E+01  0.19777891598E+02  0.51100000000E-03 0.  1.
         12    1    3    3    0    0  0.26888447360E+00 -0.38744650512E+01 -0.14041730062E+01  0.41298280986E+01  0.00000000000E+00 0. -1.
</event>
<event>
 7    1  0.2733256E-010  0.4778726E+02  0.7816164E-02  0.1312668E+00
        -11   -1    0    0    0    0  0.00000000000E+00  0.00000000000E+00  0.45593999997E+02  0.45594000000E+02  0.51100000000E-03 0.  1.
         11   -1    0    0    0    0 -0.00000000000E+00 -0.00000000000E+00 -0.45593999997E+02  0.45594000000E+02  0.51100000000E-03 0. -1.
    9900012    2    1    2    0    0 -0.29661810578E+02  0.12856716917E+02 -0.28956965287E+02  0.47787262503E+02  0.19999961056E+02 0.  0.
         12    1    1    2    0    0  0.29661810578E+02 -0.12856716917E+02  0.28956965287E+02  0.43400737497E+02  0.00000000000E+00 0. -1.
         11    1    3    3    0    0  0.12436058890E+00  0.23468209894E+00  0.17016190311E+01  0.17222220623E+01  0.51100000000E-03 0. -1.
        -11    1    3    3    0    0 -0.96360482358E+01  0.10244424190E+02 -0.11663259372E+02  0.18271104839E+02  0.51100000000E-03 0.  1.
        -12    1    3    3    0    0 -0.20150122931E+02  0.23776106277E+01 -0.18995324946E+02  0.27793935602E+02  0.00000000000E+00 0.  1.
</event>
<event>
 7    1  0.2733256E-010  0.4778726E+02  0.7816164E-02  0.1312668E+00
        -11   -1    0    0    0    0  0.00000000000E+00  0.00000000000E+00  0.45593999997E+02  0.45594000000E+02  0.51100000000E-03 0.  1.
         11   -1    0    0    0    0 -0.00000000000E+00 -0.00000000000E+00 -0.45593999997E+02  0.45594000000E+02  0.51100000000E-03 0. -1.
    9900012    2    1    2    0    0  0.40787619899E+02 -0.14520817084E+02 -0.30232478581E+01  0.47787261603E+02  0.19999956952E+02 0.  0.
         12    1    1    2    0    0 -0.40787619899E+02  0.14520817084E+02  0.30232478581E+01  0.43400738397E+02  0.00000000000E+00 0. -1.
         11    1    3    3    0    0  0.24789860736E+02 -0.17854741317E+02  0.44166126963E+00  0.30553625770E+02  0.51100000000E-03 0. -1.
        -11    1    3    3    0    0  0.73490121113E+01  0.18256384649E+00  0.12774135692E+00  0.73523891821E+01  0.51100000000E-03 0.  1.
        -12    1    3    3    0    0  0.86487470523E+01  0.31513603866E+01 -0.35926504846E+01  0.98812466504E+01  0.00000000000E+00 0.  1.
</event>
<event>
 7    1  0.2733256E-010  0.4778726E+02  0.7816164E-02  0.1312668E+00
        -11   -1    0    0    0    0  0.00000000000E+00  0.00000000000E+00  0.45593999997E+02  0.45594000000E+02  0.51100000000E-03 0.  1.
         11   -1    0    0    0    0 -0.00000000000E+00 -0.00000000000E+00 -0.45593999997E+02  0.45594000000E+02  0.51100000000E-03 0. -1.
    9900012    2    1    2    0    0 -0.25864332308E+02 -0.29990640077E+02  0.17754488941E+02  0.47787262040E+02  0.19999958944E+02 0.  0.
         12    1    1    2    0    0  0.25864332308E+02  0.29990640077E+02 -0.17754488941E+02  0.43400737960E+02  0.00000000000E+00 0. -1.
         11    1    3    3    0    0 -0.67435599592E+01 -0.19184545445E+01  0.32635893879E+01  0.77335040387E+01  0.51100000000E-03 0. -1.
        -11    1    3    3    0    0 -0.13396059298E+02 -0.63628629838E+01  0.68681947740E+01  0.16343577631E+02  0.51100000000E-03 0.  1.
         12    1    3    3    0    0 -0.57247130503E+01 -0.21709322548E+02  0.76227047794E+01  0.23710180370E+02  0.00000000000E+00 0. -1.
</event>
<event>
 7    1  0.2733256E-010  0.4778727E+02  0.7816164E-02  0.1312668E+00
        -11   -1    0    0    0    0  0.00000000000E+00  0.00000000000E+00  0.45593999997E+02  0.45594000000E+02  0.51100000000E-03 0.  1.
         11   -1    0    0    0    0 -0.00000000000E+00 -0.00000000000E+00 -0.45593999997E+02  0.45594000000E+02  0.51100000000E-03 0. -1.
    9900012    2    1    2    0    0  0.39610072157E+02  0.14977321584E+02  0.95050132732E+01  0.47787271257E+02  0.20000000968E+02 0.  0.
         12    1    1    2    0    0 -0.39610072157E+02 -0.14977321584E+02 -0.95050132732E+01  0.43400728743E+02  0.00000000000E+00 0. -1.
         11    1    3    3    0    0  0.12110187065E+02  0.10868957661E+02 -0.26266047655E+01  0.16483019269E+02  0.51100000000E-03 0. -1.
        -11    1    3    3    0    0  0.54445629325E+01  0.32567351986E+01  0.50984250502E+01  0.81390127125E+01  0.51100000000E-03 0.  1.
        -12    1    3    3    0    0  0.22055322160E+02  0.85162872488E+00  0.70331929884E+01  0.23165239275E+02  0.00000000000E+00 0.  1.
</event>
<event>
 7    1  0.2733256E-010  0.4778727E+02  0.7816164E-02  0.1312668E+00
        -11   -1    0    0    0    0  0.00000000000E+00  0.00000000000E+00  0.45593999997E+02  0.45594000000E+02  0.51100000000E-03 0. -1.
         11   -1    0    0    0    0 -0.00000000000E+00 -0.00000000000E+00 -0.45593999997E+02  0.45594000000E+02  0.51100000000E-03 0.  1.
    9900012    2    1    2    0    0 -0.80965496566E+01 -0.40010520792E+02 -0.14738637273E+02  0.47787270524E+02  0.19999997628E+02 0.  0.
         12    1    1    2    0    0  0.80965496566E+01  0.40010520792E+02  0.14738637273E+02  0.43400729476E+02  0.00000000000E+00 0. -1.
         11    1    3    3    0    0  0.18467438129E+01 -0.51396339052E+01 -0.53523749212E+01  0.76468435938E+01  0.51100000000E-03 0. -1.
        -11    1    3    3    0    0  0.24532352328E+01 -0.13812675301E+02 -0.18692979539E+00  0.14030085712E+02  0.51100000000E-03 0.  1.
        -12    1    3    3    0    0 -0.12396528702E+02 -0.21058211585E+02 -0.91993325562E+01  0.26110341218E+02  0.00000000000E+00 0.  1.
</event>
<event>
 7    1  0.2733256E-010  0.4778727E+02  0.7816164E-02  0.1312668E+00
        -11   -1    0    0    0    0  0.00000000000E+00  0.00000000000E+00  0.45593999997E+02  0.45594000000E+02  0.51100000000E-03 0. -1.
         11   -1    0    0    0    0 -0.00000000000E+00 -0.00000000000E+00 -0.45593999997E+02  0.45594000000E+02  0.51100000000E-03 0.  1.
    9900012    2    1    2    0    0  0.20903264376E+02 -0.30666851159E+02 -0.22499361972E+02  0.47787268316E+02  0.19999987558E+02 0.  0.
         12    1    1    2    0    0 -0.20903264376E+02  0.30666851159E+02  0.22499361972E+02  0.43400731684E+02  0.00000000000E+00 0. -1.
         11    1    3    3    0    0  0.66862689866E+01 -0.13653223598E+00 -0.19222858183E+01  0.69584493273E+01  0.51100000000E-03 0. -1.
        -11    1    3    3    0    0  0.79557425966E+01 -0.92745348217E+01 -0.11825248745E+02  0.17004333111E+02  0.51100000000E-03 0.  1.
         12    1    3    3    0    0  0.62612527929E+01 -0.21255784102E+02 -0.87518274084E+01  0.23824485877E+02  0.00000000000E+00 0. -1.
</event>
<event>
 7    1  0.2733256E-010  0.4778727E+02  0.7816164E-02  0.1312668E+00
        -11   -1    0    0    0    0  0.00000000000E+00  0.00000000000E+00  0.45593999997E+02  0.45594000000E+02  0.51100000000E-03 0.  1.
         11   -1    0    0    0    0 -0.00000000000E+00 -0.00000000000E+00 -0.45593999997E+02  0.45594000000E+02  0.51100000000E-03 0. -1.
    9900012    2    1    2    0    0 -0.39935491681E+02  0.72535877028E+01  0.15367670403E+02  0.47787270467E+02  0.19999997368E+02 0.  0.
         12    1    1    2    0    0  0.39935491681E+02 -0.72535877028E+01 -0.15367670403E+02  0.43400729533E+02  0.00000000000E+00 0. -1.
         11    1    3    3    0    0 -0.23428589299E+02  0.11837150445E+02  0.87399773419E+01  0.27665938109E+02  0.51100000000E-03 0. -1.
        -11    1    3    3    0    0 -0.91185008341E+01 -0.20899946085E+00  0.70449680885E+01  0.11524856349E+02  0.51100000000E-03 0.  1.
         12    1    3    3    0    0 -0.73884015477E+01 -0.43745632817E+01 -0.41727502744E+00  0.85964760096E+01  0.00000000000E+00 0. -1.
</event>
<event>
 7    1  0.2733256E-010  0.4778726E+02  0.7816164E-02  0.1312668E+00
        -11   -1    0    0    0    0  0.00000000000E+00  0.00000000000E+00  0.45593999997E+02  0.45594000000E+02  0.51100000000E-03 0. -1.
         11   -1    0    0    0    0 -0.00000000000E+00 -0.00000000000E+00 -0.45593999997E+02  0.45594000000E+02  0.51100000000E-03 0.  1.
    9900012    2    1    2    0    0  0.77861573075E+01 -0.42626783312E+02  0.24407335148E+01  0.47787261743E+02  0.19999957593E+02 0.  0.
         12    1    1    2    0    0 -0.77861573075E+01  0.42626783312E+02 -0.24407335148E+01  0.43400738257E+02  0.00000000000E+00 0. -1.
         11    1    3    3    0    0 -0.14762061055E-01 -0.14460411991E+02  0.65480508419E+01  0.15873900055E+02  0.51100000000E-03 0. -1.
        -11    1    3    3    0    0 -0.26200908053E+01 -0.44305317755E+01  0.15597652961E+01  0.53784157223E+01  0.51100000000E-03 0.  1.
        -12    1    3    3    0    0  0.10421010174E+02 -0.23735839545E+02 -0.56670826232E+01  0.26534945966E+02  0.00000000000E+00 0.  1.
</event>
<event>
 7    1  0.2733256E-010  0.4778727E+02  0.7816164E-02  0.1312668E+00
        -11   -1    0    0    0    0  0.00000000000E+00  0.00000000000E+00  0.45593999997E+02  0.45594000000E+02  0.51100000000E-03 0.  1.
         11   -1    0    0    0    0 -0.00000000000E+00 -0.00000000000E+00 -0.45593999997E+02  0.45594000000E+02  0.51100000000E-03 0. -1.
    9900012    2    1    2    0    0  0.29914700363E+02  0.23077761269E+02  0.21357689278E+02  0.47787271270E+02  0.20000001029E+02 0.  0.
         12    1    1    2    0    0 -0.29914700363E+02 -0.23077761269E+02 -0.21357689278E+02  0.43400728730E+02  0.00000000000E+00 0. -1.
         11    1    3    3    0    0  0.32290882746E+01 -0.15454212761E+01  0.61848044543E+01  0.71461279309E+01  0.51100000000E-03 0. -1.
        -11    1    3    3    0    0  0.94399089145E+01  0.27608310441E+01  0.45696716418E+01  0.10845089559E+02  0.51100000000E-03 0.  1.
        -12    1    3    3    0    0  0.17245703174E+02  0.21862351501E+02  0.10603213182E+02  0.29796053780E+02  0.00000000000E+00 0.  1.
</event>
<event>
 7    1  0.2733256E-010  0.4778727E+02  0.7816164E-02  0.1312668E+00
        -11   -1    0    0    0    0  0.00000000000E+00  0.00000000000E+00  0.45593999997E+02  0.45594000000E+02  0.51100000000E-03 0.  1.
         11   -1    0    0    0    0 -0.00000000000E+00 -0.00000000000E+00 -0.45593999997E+02  0.45594000000E+02  0.51100000000E-03 0. -1.
    9900012    2    1    2    0    0 -0.87793725888E+01 -0.25954231029E+02  0.33658931668E+02  0.47787272213E+02  0.20000005328E+02 0.  0.
         12    1    1    2    0    0  0.87793725888E+01  0.25954231029E+02 -0.33658931668E+02  0.43400727787E+02  0.00000000000E+00 0. -1.
         11    1    3    3    0    0  0.24012950107E+00 -0.87080726854E+01  0.93269877886E+01  0.12762479913E+02  0.51100000000E-03 0. -1.
        -11    1    3    3    0    0  0.34462706962E+01 -0.10276731962E+02  0.11820446300E+02  0.16037797621E+02  0.51100000000E-03 0.  1.
         12    1    3    3    0    0 -0.12465772786E+02 -0.69694263814E+01  0.12511497580E+02  0.18986994679E+02  0.00000000000E+00 0. -1.
</event>
<event>
 7    1  0.2733256E-010  0.4778727E+02  0.7816164E-02  0.1312668E+00
        -11   -1    0    0    0    0  0.00000000000E+00  0.00000000000E+00  0.45593999997E+02  0.45594000000E+02  0.51100000000E-03 0.  1.
         11   -1    0    0    0    0 -0.00000000000E+00 -0.00000000000E+00 -0.45593999997E+02  0.45594000000E+02  0.51100000000E-03 0. -1.
    9900012    2    1    2    0    0 -0.42551690295E+02  0.74200636547E+01  0.42331887515E+01  0.47787267533E+02  0.19999983991E+02 0.  0.
         12    1    1    2    0    0  0.42551690295E+02 -0.74200636547E+01 -0.42331887515E+01  0.43400732467E+02  0.00000000000E+00 0. -1.
         11    1    3    3    0    0 -0.13091029057E+02 -0.10285489646E+01  0.44930168826E+01  0.13878766361E+02  0.51100000000E-03 0. -1.
        -11    1    3    3    0    0 -0.95704479638E+01  0.53387608830E+01  0.64157320849E+01  0.12698718850E+02  0.51100000000E-03 0.  1.
         12    1    3    3    0    0 -0.19890213275E+02  0.31098517363E+01 -0.66755602159E+01  0.21209782322E+02  0.00000000000E+00 0. -1.
</event>
<event>
 7    1  0.2733256E-010  0.4778727E+02  0.7816164E-02  0.1312668E+00
        -11   -1    0    0    0    0  0.00000000000E+00  0.00000000000E+00  0.45593999997E+02  0.45594000000E+02  0.51100000000E-03 0. -1.
         11   -1    0    0    0    0 -0.00000000000E+00 -0.00000000000E+00 -0.45593999997E+02  0.45594000000E+02  0.51100000000E-03 0.  1.
    9900012    2    1    2    0    0 -0.29846134891E+01  0.24714106469E+02 -0.35551769359E+02  0.47787270964E+02  0.19999999635E+02 0.  0.
         12    1    1    2    0    0  0.29846134891E+01 -0.24714106469E+02  0.35551769359E+02  0.43400729036E+02  0.00000000000E+00 0. -1.
         11    1    3    3    0    0 -0.10597003438E+01  0.18638864689E+01  0.16407191164E+01  0.26998142654E+01  0.51100000000E-03 0. -1.
        -11    1    3    3    0    0 -0.37832123561E+01  0.42070009681E+01 -0.38562361334E+01  0.68470512087E+01  0.51100000000E-03 0.  1.
        -12    1    3    3    0    0  0.18582992109E+01  0.18643219032E+02 -0.33336252342E+02  0.38240405490E+02  0.00000000000E+00 0.  1.
</event>
<event>
 7    1  0.2733256E-010  0.4778725E+02  0.7816164E-02  0.1312668E+00
        -11   -1    0    0    0    0  0.00000000000E+00  0.00000000000E+00  0.45593999997E+02  0.45594000000E+02  0.51100000000E-03 0. -1.
         11   -1    0    0    0    0 -0.00000000000E+00 -0.00000000000E+00 -0.45593999997E+02  0.45594000000E+02  0.51100000000E-03 0.  1.
    9900012    2    1    2    0    0  0.37655609304E+02 -0.50272609677E+01 -0.20985862115E+02  0.47787254919E+02  0.19999926477E+02 0.  0.
         12    1    1    2    0    0 -0.37655609304E+02  0.50272609677E+01  0.20985862115E+02  0.43400745081E+02  0.00000000000E+00 0. -1.
         11    1    3    3    0    0  0.56911319692E+01 -0.36559891141E+01  0.15881106075E+01  0.69481893365E+01  0.51100000000E-03 0. -1.
        -11    1    3    3    0    0  0.42537915301E+01 -0.44033180985E+01 -0.33727001159E+01  0.69899255355E+01  0.51100000000E-03 0.  1.
        -12    1    3    3    0    0  0.27710685804E+02  0.30320462450E+01 -0.19201272607E+02  0.33849140047E+02  0.00000000000E+00 0.  1.
</event>
<event>
 7    1  0.2733256E-010  0.4778727E+02  0.7816164E-02  0.1312668E+00
        -11   -1    0    0    0    0  0.00000000000E+00  0.00000000000E+00  0.45593999997E+02  0.45594000000E+02  0.51100000000E-03 0. -1.
         11   -1    0    0    0    0 -0.00000000000E+00 -0.00000000000E+00 -0.45593999997E+02  0.45594000000E+02  0.51100000000E-03 0.  1.
    9900012    2    1    2    0    0 -0.17665294567E+02 -0.29332821940E+02 -0.26667325399E+02  0.47787270524E+02  0.19999997628E+02 0.  0.
         12    1    1    2    0    0  0.17665294567E+02  0.29332821940E+02  0.26667325399E+02  0.43400729476E+02  0.00000000000E+00 0. -1.
         11    1    3    3    0    0 -0.51782698471E+01 -0.82488066303E+01 -0.38344846382E+01  0.10467118139E+02  0.51100000000E-03 0. -1.
        -11    1    3    3    0    0 -0.69485195446E+01 -0.17116987399E+02 -0.64330651744E+01  0.19561633604E+02  0.51100000000E-03 0.  1.
         12    1    3    3    0    0 -0.55385051751E+01 -0.39670279112E+01 -0.16399775586E+02  0.17758518781E+02  0.00000000000E+00 0. -1.
</event>
<event>
 7    1  0.2733256E-010  0.4778727E+02  0.7816164E-02  0.1312668E+00
        -11   -1    0    0    0    0  0.00000000000E+00  0.00000000000E+00  0.45593999997E+02  0.45594000000E+02  0.51100000000E-03 0. -1.
         11   -1    0    0    0    0 -0.00000000000E+00 -0.00000000000E+00 -0.45593999997E+02  0.45594000000E+02  0.51100000000E-03 0.  1.
    9900012    2    1    2    0    0  0.25116452071E+01 -0.37188610198E+02 -0.22233349792E+02  0.47787274971E+02  0.20000017903E+02 0.  0.
         12    1    1    2    0    0 -0.25116452071E+01  0.37188610198E+02  0.22233349792E+02  0.43400725029E+02  0.00000000000E+00 0. -1.
         11    1    3    3    0    0  0.13409201485E+01  0.65257309015E+00 -0.52231209087E-01  0.14921953099E+01  0.51100000000E-03 0. -1.
        -11    1    3    3    0    0 -0.40259065569E+01 -0.11570551213E+02 -0.12667972691E+01  0.12316263823E+02  0.51100000000E-03 0.  1.
         12    1    3    3    0    0  0.51966316155E+01 -0.26270632074E+02 -0.20914321314E+02  0.33978815838E+02  0.00000000000E+00 0. -1.
</event>
<event>
 7    1  0.2733256E-010  0.4778730E+02  0.7816164E-02  0.1312668E+00
        -11   -1    0    0    0    0  0.00000000000E+00  0.00000000000E+00  0.45593999997E+02  0.45594000000E+02  0.51100000000E-03 0. -1.
         11   -1    0    0    0    0 -0.00000000000E+00 -0.00000000000E+00 -0.45593999997E+02  0.45594000000E+02  0.51100000000E-03 0.  1.
    9900012    2    1    2    0    0 -0.18600696166E+02  0.17036402981E+02 -0.35318489754E+02  0.47787301355E+02  0.20000138197E+02 0.  0.
         12    1    1    2    0    0  0.18600696166E+02 -0.17036402981E+02  0.35318489754E+02  0.43400698645E+02  0.00000000000E+00 0. -1.
         11    1    3    3    0    0 -0.33776455337E+01 -0.86485163622E+00  0.27266659916E+00  0.34972567877E+01  0.51100000000E-03 0. -1.
        -11    1    3    3    0    0 -0.92816658536E+01  0.36022886391E+01 -0.85230859090E+01  0.13106059596E+02  0.51100000000E-03 0.  1.
         12    1    3    3    0    0 -0.59413847787E+01  0.14298965978E+02 -0.27068070444E+02  0.31183984971E+02  0.00000000000E+00 0. -1.
</event>
<event>
 7    1  0.2733256E-010  0.4778727E+02  0.7816164E-02  0.1312668E+00
        -11   -1    0    0    0    0  0.00000000000E+00  0.00000000000E+00  0.45593999997E+02  0.45594000000E+02  0.51100000000E-03 0.  1.
         11   -1    0    0    0    0 -0.00000000000E+00 -0.00000000000E+00 -0.45593999997E+02  0.45594000000E+02  0.51100000000E-03 0. -1.
    9900012    2    1    2    0    0  0.42556262469E+02 -0.32854784223E+01  0.78608859642E+01  0.47787269915E+02  0.19999994848E+02 0.  0.
         12    1    1    2    0    0 -0.42556262469E+02  0.32854784223E+01 -0.78608859642E+01  0.43400730085E+02  0.00000000000E+00 0. -1.
         11    1    3    3    0    0  0.53262463109E+01  0.28914577125E+01 -0.23231754286E+01  0.64904985788E+01  0.51100000000E-03 0. -1.
        -11    1    3    3    0    0  0.86666976234E+01  0.41134551485E+01  0.14288776977E+01  0.96991676288E+01  0.51100000000E-03 0.  1.
        -12    1    3    3    0    0  0.28563318535E+02 -0.10290391283E+02  0.87551836952E+01  0.31597603707E+02  0.00000000000E+00 0.  1.
</event>
<event>
 7    1  0.2733256E-010  0.4778727E+02  0.7816164E-02  0.1312668E+00
        -11   -1    0    0    0    0  0.00000000000E+00  0.00000000000E+00  0.45593999997E+02  0.45594000000E+02  0.51100000000E-03 0. -1.
         11   -1    0    0    0    0 -0.00000000000E+00 -0.00000000000E+00 -0.45593999997E+02  0.45594000000E+02  0.51100000000E-03 0.  1.
    9900012    2    1    2    0    0 -0.42447994576E+02 -0.42308519950E+01 -0.79931748026E+01  0.47787271947E+02  0.20000004113E+02 0.  0.
         12    1    1    2    0    0  0.42447994576E+02  0.42308519950E+01  0.79931748026E+01  0.43400728053E+02  0.00000000000E+00 0. -1.
         11    1    3    3    0    0 -0.16420131249E+01 -0.20937800119E+01  0.17845965750E+01  0.32038893610E+01  0.51100000000E-03 0. -1.
        -11    1    3    3    0    0 -0.10769604358E+01  0.29514637617E+00  0.26576007142E+01  0.28826718476E+01  0.51100000000E-03 0.  1.
        -12    1    3    3    0    0 -0.39729021015E+02 -0.24322183593E+01 -0.12435372092E+02  0.41700710738E+02  0.00000000000E+00 0.  1.
</event>
<event>
 7    1  0.2733256E-010  0.4778727E+02  0.7816164E-02  0.1312668E+00
        -11   -1    0    0    0    0  0.00000000000E+00  0.00000000000E+00  0.45593999997E+02  0.45594000000E+02  0.51100000000E-03 0. -1.
         11   -1    0    0    0    0 -0.00000000000E+00 -0.00000000000E+00 -0.45593999997E+02  0.45594000000E+02  0.51100000000E-03 0.  1.
    9900012    2    1    2    0    0  0.97111695765E+01  0.35667673486E+02 -0.22740567254E+02  0.47787272524E+02  0.20000006745E+02 0.  0.
         12    1    1    2    0    0 -0.97111695765E+01 -0.35667673486E+02  0.22740567254E+02  0.43400727476E+02  0.00000000000E+00 0. -1.
         11    1    3    3    0    0  0.48761826923E+01  0.19163677985E+02 -0.16471870012E+01  0.19842805669E+02  0.51100000000E-03 0. -1.
        -11    1    3    3    0    0  0.37472737208E+01  0.44564394886E+01 -0.42555786079E+01  0.72119250414E+01  0.51100000000E-03 0.  1.
         12    1    3    3    0    0  0.10877131633E+01  0.12047556012E+02 -0.16837801645E+02  0.20732541813E+02  0.00000000000E+00 0. -1.
</event>
<event>
 7    1  0.2733256E-010  0.4778727E+02  0.7816164E-02  0.1312668E+00
        -11   -1    0    0    0    0  0.00000000000E+00  0.00000000000E+00  0.45593999997E+02  0.45594000000E+02  0.51100000000E-03 0. -1.
         11   -1    0    0    0    0 -0.00000000000E+00 -0.00000000000E+00 -0.45593999997E+02  0.45594000000E+02  0.51100000000E-03 0.  1.
    9900012    2    1    2    0    0  0.92119892492E+00 -0.38512280970E+02 -0.19989465795E+02  0.47787272636E+02  0.20000007255E+02 0.  0.
         12    1    1    2    0    0 -0.92119892492E+00  0.38512280970E+02  0.19989465795E+02  0.43400727364E+02  0.00000000000E+00 0. -1.
         11    1    3    3    0    0  0.38640265495E+01 -0.17047030342E+01 -0.18700790363E+01  0.46188645220E+01  0.51100000000E-03 0. -1.
        -11    1    3    3    0    0 -0.19744250958E+01 -0.17720332076E+01  0.14530055118E+01  0.30248440334E+01  0.51100000000E-03 0.  1.
        -12    1    3    3    0    0 -0.96840252872E+00 -0.35035544728E+02 -0.19572392270E+02  0.40143564080E+02  0.00000000000E+00 0.  1.
</event>
<event>
 7    1  0.2733256E-010  0.4778727E+02  0.7816164E-02  0.1312668E+00
        -11   -1    0    0    0    0  0.00000000000E+00  0.00000000000E+00  0.45593999997E+02  0.45594000000E+02  0.51100000000E-03 0.  1.
         11   -1    0    0    0    0 -0.00000000000E+00 -0.00000000000E+00 -0.45593999997E+02  0.45594000000E+02  0.51100000000E-03 0. -1.
    9900012    2    1    2    0    0  0.16725318781E+02 -0.39425242756E+02  0.70382746433E+01  0.47787269999E+02  0.19999995232E+02 0.  0.
         12    1    1    2    0    0 -0.16725318781E+02  0.39425242756E+02 -0.70382746433E+01  0.43400730001E+02  0.00000000000E+00 0. -1.
         11    1    3    3    0    0  0.21250687637E+01 -0.42277943060E+01  0.72928422867E+01  0.86934291752E+01  0.51100000000E-03 0. -1.
        -11    1    3    3    0    0  0.69632509107E+01 -0.13845494941E+02  0.40361671527E+01  0.16014844331E+02  0.51100000000E-03 0.  1.
        -12    1    3    3    0    0  0.76369991067E+01 -0.21351953509E+02 -0.42907347960E+01  0.23078996492E+02  0.00000000000E+00 0.  1.
</event>
<event>
 7    1  0.2733256E-010  0.4778728E+02  0.7816164E-02  0.1312668E+00
        -11   -1    0    0    0    0  0.00000000000E+00  0.00000000000E+00  0.45593999997E+02  0.45594000000E+02  0.51100000000E-03 0.  1.
         11   -1    0    0    0    0 -0.00000000000E+00 -0.00000000000E+00 -0.45593999997E+02  0.45594000000E+02  0.51100000000E-03 0. -1.
    9900012    2    1    2    0    0  0.75896213767E+01  0.20337002233E+02  0.37582268618E+02  0.47787275041E+02  0.20000018224E+02 0.  0.
         12    1    1    2    0    0 -0.75896213767E+01 -0.20337002233E+02 -0.37582268618E+02  0.43400724959E+02  0.00000000000E+00 0. -1.
         11    1    3    3    0    0  0.12456908775E+00 -0.16732120104E+01  0.66795156827E+01  0.68870230075E+01  0.51100000000E-03 0. -1.
        -11    1    3    3    0    0 -0.29223286842E+01  0.78634191456E+01  0.55252344125E+01  0.10044977908E+02  0.51100000000E-03 0.  1.
        -12    1    3    3    0    0  0.10387380973E+02  0.14146795098E+02  0.25377518523E+02  0.30855274126E+02  0.00000000000E+00 0.  1.
</event>
<event>
 7    1  0.2733256E-010  0.4778727E+02  0.7816164E-02  0.1312668E+00
        -11   -1    0    0    0    0  0.00000000000E+00  0.00000000000E+00  0.45593999997E+02  0.45594000000E+02  0.51100000000E-03 0. -1.
         11   -1    0    0    0    0 -0.00000000000E+00 -0.00000000000E+00 -0.45593999997E+02  0.45594000000E+02  0.51100000000E-03 0.  1.
    9900012    2    1    2    0    0  0.36371604891E+02 -0.13670360202E+02 -0.19335226690E+02  0.47787269804E+02  0.19999994344E+02 0.  0.
         12    1    1    2    0    0 -0.36371604891E+02  0.13670360202E+02  0.19335226690E+02  0.43400730196E+02  0.00000000000E+00 0. -1.
         11    1    3    3    0    0  0.72995532679E+01 -0.17354490205E+01 -0.51777879999E+01  0.91161806721E+01  0.51100000000E-03 0.  1.
        -11    1    3    3    0    0  0.18852183022E+02  0.14024747454E+01 -0.50883162708E+01  0.19577096384E+02  0.51100000000E-03 0. -1.
         12    1    3    3    0    0  0.10219868601E+02 -0.13337385927E+02 -0.90691224194E+01  0.19093992748E+02  0.00000000000E+00 0. -1.
</event>
<event>
 7    1  0.2733256E-010  0.4778728E+02  0.7816164E-02  0.1312668E+00
        -11   -1    0    0    0    0  0.00000000000E+00  0.00000000000E+00  0.45593999997E+02  0.45594000000E+02  0.51100000000E-03 0.  1.
         11   -1    0    0    0    0 -0.00000000000E+00 -0.00000000000E+00 -0.45593999997E+02  0.45594000000E+02  0.51100000000E-03 0. -1.
    9900012    2    1    2    0    0 -0.28740197939E+02 -0.31068448530E+02  0.96112083720E+01  0.47787276527E+02  0.20000024998E+02 0.  0.
         12    1    1    2    0    0  0.28740197939E+02  0.31068448530E+02 -0.96112083720E+01  0.43400723473E+02  0.00000000000E+00 0. -1.
         11    1    3    3    0    0 -0.67282087196E+01 -0.63857091970E+00  0.73659991666E+01  0.99967249326E+01  0.51100000000E-03 0.  1.
        -11    1    3    3    0    0 -0.22001333591E+01 -0.51809508743E+01  0.22979062567E+00  0.56334396910E+01  0.51100000000E-03 0. -1.
        -12    1    3    3    0    0 -0.19811855860E+02 -0.25248926736E+02  0.20154185797E+01  0.32157111904E+02  0.00000000000E+00 0.  1.
</event>
<event>
 7    1  0.2733256E-010  0.4778727E+02  0.7816164E-02  0.1312668E+00
        -11   -1    0    0    0    0  0.00000000000E+00  0.00000000000E+00  0.45593999997E+02  0.45594000000E+02  0.51100000000E-03 0.  1.
         11   -1    0    0    0    0 -0.00000000000E+00 -0.00000000000E+00 -0.45593999997E+02  0.45594000000E+02  0.51100000000E-03 0. -1.
    9900012    2    1    2    0    0  0.37017264786E+02 -0.48020273253E+01  0.22142402571E+02  0.47787270165E+02  0.19999995988E+02 0.  0.
         12    1    1    2    0    0 -0.37017264786E+02  0.48020273253E+01 -0.22142402571E+02  0.43400729835E+02  0.00000000000E+00 0. -1.
         11    1    3    3    0    0 -0.10899619535E+01 -0.10778137549E+01  0.42638523607E+00  0.15910701370E+01  0.51100000000E-03 0. -1.
        -11    1    3    3    0    0  0.50283185684E+01  0.42520960043E+01  0.50990657886E+01  0.83285521090E+01  0.51100000000E-03 0.  1.
        -12    1    3    3    0    0  0.33078908171E+02 -0.79763095748E+01  0.16616951546E+02  0.37867647919E+02  0.00000000000E+00 0.  1.
</event>
<event>
 7    1  0.2733256E-010  0.4778727E+02  0.7816164E-02  0.1312668E+00
        -11   -1    0    0    0    0  0.00000000000E+00  0.00000000000E+00  0.45593999997E+02  0.45594000000E+02  0.51100000000E-03 0.  1.
         11   -1    0    0    0    0 -0.00000000000E+00 -0.00000000000E+00 -0.45593999997E+02  0.45594000000E+02  0.51100000000E-03 0. -1.
    9900012    2    1    2    0    0 -0.42544190163E+02  0.21330812932E+01  0.83105422816E+01  0.47787271141E+02  0.20000000442E+02 0.  0.
         12    1    1    2    0    0  0.42544190163E+02 -0.21330812932E+01 -0.83105422816E+01  0.43400728859E+02  0.00000000000E+00 0. -1.
         11    1    3    3    0    0 -0.24760314293E+02  0.16866828385E+01  0.83926157628E+01  0.26198359919E+02  0.51100000000E-03 0. -1.
        -11    1    3    3    0    0 -0.15963600766E+02 -0.11518296373E+01  0.43081227161E+01  0.16574775490E+02  0.51100000000E-03 0.  1.
         12    1    3    3    0    0 -0.18202751043E+01  0.15982280920E+01 -0.43901961973E+01  0.50141357321E+01  0.00000000000E+00 0. -1.
</event>
<event>
 7    1  0.2733256E-010  0.4778727E+02  0.7816164E-02  0.1312668E+00
        -11   -1    0    0    0    0  0.00000000000E+00  0.00000000000E+00  0.45593999997E+02  0.45594000000E+02  0.51100000000E-03 0.  1.
         11   -1    0    0    0    0 -0.00000000000E+00 -0.00000000000E+00 -0.45593999997E+02  0.45594000000E+02  0.51100000000E-03 0. -1.
    9900012    2    1    2    0    0 -0.83870567134E+01  0.55371446977E+01  0.42221091345E+02  0.47787271365E+02  0.20000001462E+02 0.  0.
         12    1    1    2    0    0  0.83870567134E+01 -0.55371446977E+01 -0.42221091345E+02  0.43400728635E+02  0.00000000000E+00 0. -1.
         11    1    3    3    0    0 -0.43428024818E+01 -0.15064842179E+01  0.84731418234E+01  0.96396867540E+01  0.51100000000E-03 0. -1.
        -11    1    3    3    0    0  0.43545580554E+01 -0.23257304542E+01  0.67620659840E+01  0.83723792698E+01  0.51100000000E-03 0.  1.
         12    1    3    3    0    0 -0.83988122869E+01  0.93693593697E+01  0.26985883537E+02  0.29775205341E+02  0.00000000000E+00 0. -1.
</event>
<event>
 7    1  0.2733256E-010  0.4778727E+02  0.7816164E-02  0.1312668E+00
        -11   -1    0    0    0    0  0.00000000000E+00  0.00000000000E+00  0.45593999997E+02  0.45594000000E+02  0.51100000000E-03 0. -1.
         11   -1    0    0    0    0 -0.00000000000E+00 -0.00000000000E+00 -0.45593999997E+02  0.45594000000E+02  0.51100000000E-03 0.  1.
    9900012    2    1    2    0    0  0.41781039933E+02  0.92045441269E+01  0.72968657327E+01  0.47787272126E+02  0.20000004931E+02 0.  0.
         12    1    1    2    0    0 -0.41781039933E+02 -0.92045441269E+01 -0.72968657327E+01  0.43400727874E+02  0.00000000000E+00 0. -1.
         11    1    3    3    0    0  0.23405687607E+02  0.86882741170E+01  0.60002726704E+01  0.25677141427E+02  0.51100000000E-03 0. -1.
        -11    1    3    3    0    0  0.98257469022E+01  0.62786204193E+01  0.17442917902E+01  0.11790204861E+02  0.51100000000E-03 0.  1.
         12    1    3    3    0    0  0.85496054242E+01 -0.57623504094E+01 -0.44769872791E+00  0.10319925838E+02  0.00000000000E+00 0. -1.
</event>
<event>
 7    1  0.2733256E-010  0.4778727E+02  0.7816164E-02  0.1312668E+00
        -11   -1    0    0    0    0  0.00000000000E+00  0.00000000000E+00  0.45593999997E+02  0.45594000000E+02  0.51100000000E-03 0.  1.
         11   -1    0    0    0    0 -0.00000000000E+00 -0.00000000000E+00 -0.45593999997E+02  0.45594000000E+02  0.51100000000E-03 0. -1.
    9900012    2    1    2    0    0  0.28376746929E+02 -0.12919182021E+01  0.32813327132E+02  0.47787271246E+02  0.20000000920E+02 0.  0.
         12    1    1    2    0    0 -0.28376746929E+02  0.12919182021E+01 -0.32813327132E+02  0.43400728754E+02  0.00000000000E+00 0. -1.
         11    1    3    3    0    0 -0.62474032347E+00 -0.21518409867E+01  0.19523190800E+01  0.29719135511E+01  0.51100000000E-03 0. -1.
        -11    1    3    3    0    0 -0.10434078507E+01  0.89497204360E+00 -0.42511159920E+00  0.14388867345E+01  0.51100000000E-03 0.  1.
        -12    1    3    3    0    0  0.30044895103E+02 -0.35049258953E-01  0.31286119651E+02  0.43376470961E+02  0.00000000000E+00 0.  1.
</event>
<event>
 7    1  0.2733256E-010  0.4778728E+02  0.7816164E-02  0.1312668E+00
        -11   -1    0    0    0    0  0.00000000000E+00  0.00000000000E+00  0.45593999997E+02  0.45594000000E+02  0.51100000000E-03 0. -1.
         11   -1    0    0    0    0 -0.00000000000E+00 -0.00000000000E+00 -0.45593999997E+02  0.45594000000E+02  0.51100000000E-03 0.  1.
    9900012    2    1    2    0    0  0.32377208700E+02  0.25399574337E+02 -0.13791324480E+02  0.47787278225E+02  0.20000032737E+02 0.  0.
         12    1    1    2    0    0 -0.32377208700E+02 -0.25399574337E+02  0.13791324480E+02  0.43400721775E+02  0.00000000000E+00 0. -1.
         11    1    3    3    0    0  0.53526565550E+01  0.13936380103E+02 -0.52366958388E+01  0.15820765030E+02  0.51100000000E-03 0. -1.
        -11    1    3    3    0    0  0.42647587747E+01  0.48224562274E+01  0.78301197351E+00  0.64851645687E+01  0.51100000000E-03 0.  1.
        -12    1    3    3    0    0  0.22759793370E+02  0.66407380066E+01 -0.93376406150E+01  0.25481348626E+02  0.00000000000E+00 0.  1.
</event>
<event>
 7    1  0.2733256E-010  0.4778727E+02  0.7816164E-02  0.1312668E+00
        -11   -1    0    0    0    0  0.00000000000E+00  0.00000000000E+00  0.45593999997E+02  0.45594000000E+02  0.51100000000E-03 0.  1.
         11   -1    0    0    0    0 -0.00000000000E+00 -0.00000000000E+00 -0.45593999997E+02  0.45594000000E+02  0.51100000000E-03 0. -1.
    9900012    2    1    2    0    0  0.18840119520E+02 -0.20455250195E+02 -0.33320500268E+02  0.47787273023E+02  0.20000009019E+02 0.  0.
         12    1    1    2    0    0 -0.18840119520E+02  0.20455250195E+02  0.33320500268E+02  0.43400726977E+02  0.00000000000E+00 0. -1.
         11    1    3    3    0    0  0.18538397665E+01 -0.33007421148E+01 -0.31912070421E+01  0.49513051850E+01  0.51100000000E-03 0. -1.
        -11    1    3    3    0    0  0.16547711249E+02 -0.88336890004E+01 -0.28841253745E+02  0.34404632344E+02  0.51100000000E-03 0.  1.
         12    1    3    3    0    0  0.43856850458E+00 -0.83208190800E+01 -0.12880394810E+01  0.84313354933E+01  0.00000000000E+00 0. -1.
</event>
<event>
 7    1  0.2733256E-010  0.4778727E+02  0.7816164E-02  0.1312668E+00
        -11   -1    0    0    0    0  0.00000000000E+00  0.00000000000E+00  0.45593999997E+02  0.45594000000E+02  0.51100000000E-03 0. -1.
         11   -1    0    0    0    0 -0.00000000000E+00 -0.00000000000E+00 -0.45593999997E+02  0.45594000000E+02  0.51100000000E-03 0.  1.
    9900012    2    1    2    0    0  0.32932817303E+02 -0.27552654453E+02 -0.63169639862E+01  0.47787271240E+02  0.20000000890E+02 0.  0.
         12    1    1    2    0    0 -0.32932817303E+02  0.27552654453E+02  0.63169639862E+01  0.43400728760E+02  0.00000000000E+00 0. -1.
         11    1    3    3    0    0 -0.43326150920E-01 -0.37716286310E+01 -0.87061627332E+00  0.38710505863E+01  0.51100000000E-03 0. -1.
        -11    1    3    3    0    0 -0.13416136936E+01  0.61072554509E+00 -0.16979177829E+00  0.14838269790E+01  0.51100000000E-03 0.  1.
         12    1    3    3    0    0  0.34317757148E+02 -0.24391751367E+02 -0.52765559345E+01  0.42432393674E+02  0.00000000000E+00 0. -1.
</event>
<event>
 7    1  0.2733256E-010  0.4778728E+02  0.7816164E-02  0.1312668E+00
        -11   -1    0    0    0    0  0.00000000000E+00  0.00000000000E+00  0.45593999997E+02  0.45594000000E+02  0.51100000000E-03 0.  1.
         11   -1    0    0    0    0 -0.00000000000E+00 -0.00000000000E+00 -0.45593999997E+02  0.45594000000E+02  0.51100000000E-03 0. -1.
    9900012    2    1    2    0    0  0.29856102561E+02 -0.23223715739E+02  0.21281328429E+02  0.47787276819E+02  0.20000026331E+02 0.  0.
         12    1    1    2    0    0 -0.29856102561E+02  0.23223715739E+02 -0.21281328429E+02  0.43400723181E+02  0.00000000000E+00 0. -1.
         11    1    3    3    0    0  0.25095209173E+01 -0.60940802609E+01  0.27343808973E+01  0.71352889650E+01  0.51100000000E-03 0. -1.
        -11    1    3    3    0    0  0.22440441251E+02 -0.11882095506E+02  0.21113701296E+02  0.33023415629E+02  0.51100000000E-03 0.  1.
        -12    1    3    3    0    0  0.49061403930E+01 -0.52475399729E+01 -0.25667537634E+01  0.76285722258E+01  0.00000000000E+00 0.  1.
</event>
<event>
 7    1  0.2733256E-010  0.4778727E+02  0.7816164E-02  0.1312668E+00
        -11   -1    0    0    0    0  0.00000000000E+00  0.00000000000E+00  0.45593999997E+02  0.45594000000E+02  0.51100000000E-03 0.  1.
         11   -1    0    0    0    0 -0.00000000000E+00 -0.00000000000E+00 -0.45593999997E+02  0.45594000000E+02  0.51100000000E-03 0. -1.
    9900012    2    1    2    0    0 -0.15871862830E+02 -0.15143920666E+02  0.37448218791E+02  0.47787268976E+02  0.19999990568E+02 0.  0.
         12    1    1    2    0    0  0.15871862830E+02  0.15143920666E+02 -0.37448218791E+02  0.43400731024E+02  0.00000000000E+00 0. -1.
         11    1    3    3    0    0 -0.72174951596E+01 -0.13548038285E+02  0.17470630952E+02  0.23256494230E+02  0.51100000000E-03 0. -1.
        -11    1    3    3    0    0  0.89763278541E+00 -0.42019197944E+01  0.52452231170E+01  0.67804306931E+01  0.51100000000E-03 0.  1.
        -12    1    3    3    0    0 -0.95520004557E+01  0.26060374126E+01  0.14732364722E+02  0.17750344053E+02  0.00000000000E+00 0.  1.
</event>
<event>
 7    1  0.2733256E-010  0.4778728E+02  0.7816164E-02  0.1312668E+00
        -11   -1    0    0    0    0  0.00000000000E+00  0.00000000000E+00  0.45593999997E+02  0.45594000000E+02  0.51100000000E-03 0. -1.
         11   -1    0    0    0    0 -0.00000000000E+00 -0.00000000000E+00 -0.45593999997E+02  0.45594000000E+02  0.51100000000E-03 0.  1.
    9900012    2    1    2    0    0  0.57863227799E+01  0.27394824089E+02 -0.33161196727E+02  0.47787275507E+02  0.20000020346E+02 0.  0.
         12    1    1    2    0    0 -0.57863227799E+01 -0.27394824089E+02  0.33161196727E+02  0.43400724493E+02  0.00000000000E+00 0. -1.
         11    1    3    3    0    0  0.46729207032E+01  0.14434756167E+01 -0.52241366849E+01  0.71562150694E+01  0.51100000000E-03 0. -1.
        -11    1    3    3    0    0  0.19081961969E+01  0.27214144475E+02 -0.28057571705E+02  0.39134105362E+02  0.51100000000E-03 0.  1.
         12    1    3    3    0    0 -0.79479412021E+00 -0.12627960026E+01  0.12051166322E+00  0.14969550757E+01  0.00000000000E+00 0. -1.
</event>
<event>
 7    1  0.2733256E-010  0.4778727E+02  0.7816164E-02  0.1312668E+00
        -11   -1    0    0    0    0  0.00000000000E+00  0.00000000000E+00  0.45593999997E+02  0.45594000000E+02  0.51100000000E-03 0. -1.
         11   -1    0    0    0    0 -0.00000000000E+00 -0.00000000000E+00 -0.45593999997E+02  0.45594000000E+02  0.51100000000E-03 0.  1.
    9900012    2    1    2    0    0 -0.22406089098E+02 -0.23777053979E+02 -0.28569950961E+02  0.47787271636E+02  0.20000002697E+02 0.  0.
         12    1    1    2    0    0  0.22406089098E+02  0.23777053979E+02  0.28569950961E+02  0.43400728364E+02  0.00000000000E+00 0. -1.
         11    1    3    3    0    0 -0.56042011266E+01 -0.95862613666E+01 -0.31158079115E+01  0.11533071423E+02  0.51100000000E-03 0. -1.
        -11    1    3    3    0    0 -0.10591957178E+02 -0.11011929401E+02 -0.75577856130E+01  0.17046180500E+02  0.51100000000E-03 0.  1.
        -12    1    3    3    0    0 -0.62099307937E+01 -0.31788632112E+01 -0.17896357437E+02  0.19208019712E+02  0.00000000000E+00 0.  1.
</event>
<event>
 7    1  0.2733256E-010  0.4778727E+02  0.7816164E-02  0.1312668E+00
        -11   -1    0    0    0    0  0.00000000000E+00  0.00000000000E+00  0.45593999997E+02  0.45594000000E+02  0.51100000000E-03 0. -1.
         11   -1    0    0    0    0 -0.00000000000E+00 -0.00000000000E+00 -0.45593999997E+02  0.45594000000E+02  0.51100000000E-03 0.  1.
    9900012    2    1    2    0    0 -0.22347757650E+02  0.25153860109E+02  0.27413212639E+02  0.47787272154E+02  0.20000005058E+02 0.  0.
         12    1    1    2    0    0  0.22347757650E+02 -0.25153860109E+02 -0.27413212639E+02  0.43400727846E+02  0.00000000000E+00 0. -1.
         11    1    3    3    0    0 -0.15079799456E+02  0.10771940322E+02  0.20149545228E+02  0.27375887622E+02  0.51100000000E-03 0. -1.
        -11    1    3    3    0    0 -0.42635964591E+01  0.28648481605E+00  0.34799026439E+01  0.55109029195E+01  0.51100000000E-03 0.  1.
        -12    1    3    3    0    0 -0.30043617346E+01  0.14095434972E+02  0.37837647676E+01  0.14900481613E+02  0.00000000000E+00 0.  1.
</event>
<event>
 7    1  0.2733256E-010  0.4778727E+02  0.7816164E-02  0.1312668E+00
        -11   -1    0    0    0    0  0.00000000000E+00  0.00000000000E+00  0.45593999997E+02  0.45594000000E+02  0.51100000000E-03 0.  1.
         11   -1    0    0    0    0 -0.00000000000E+00 -0.00000000000E+00 -0.45593999997E+02  0.45594000000E+02  0.51100000000E-03 0. -1.
    9900012    2    1    2    0    0  0.25846449431E+02 -0.24040549686E+02  0.25251466012E+02  0.47787268288E+02  0.19999987432E+02 0.  0.
         12    1    1    2    0    0 -0.25846449431E+02  0.24040549686E+02 -0.25251466012E+02  0.43400731712E+02  0.00000000000E+00 0. -1.
         11    1    3    3    0    0 -0.46435517635E+00 -0.62274553173E+00  0.18493061885E+01  0.20058343319E+01  0.51100000000E-03 0. -1.
        -11    1    3    3    0    0  0.21628495323E+02 -0.25499555909E+02  0.16788308220E+02  0.37414789251E+02  0.51100000000E-03 0.  1.
        -12    1    3    3    0    0  0.46823092845E+01  0.20817517547E+01  0.66138516027E+01  0.83666447054E+01  0.00000000000E+00 0.  1.
</event>
<event>
 7    1  0.2733256E-010  0.4778726E+02  0.7816164E-02  0.1312668E+00
        -11   -1    0    0    0    0  0.00000000000E+00  0.00000000000E+00  0.45593999997E+02  0.45594000000E+02  0.51100000000E-03 0.  1.
         11   -1    0    0    0    0 -0.00000000000E+00 -0.00000000000E+00 -0.45593999997E+02  0.45594000000E+02  0.51100000000E-03 0. -1.
    9900012    2    1    2    0    0  0.23610815116E+01 -0.27059138803E+02  0.33850439598E+02  0.47787263144E+02  0.19999963980E+02 0.  0.
         12    1    1    2    0    0 -0.23610815116E+01  0.27059138803E+02 -0.33850439598E+02  0.43400736856E+02  0.00000000000E+00 0. -1.
         11    1    3    3    0    0  0.35204800217E+01 -0.67590888509E+01  0.79403796044E+01  0.11005848000E+02  0.51100000000E-03 0. -1.
        -11    1    3    3    0    0  0.10024022177E+01 -0.22774315032E+02  0.23155658205E+02  0.32493980097E+02  0.51100000000E-03 0.  1.
         12    1    3    3    0    0 -0.21618007278E+01  0.24742650798E+01  0.27544017886E+01  0.42874350473E+01  0.00000000000E+00 0. -1.
</event>
<event>
 7    1  0.2733256E-010  0.4778727E+02  0.7816164E-02  0.1312668E+00
        -11   -1    0    0    0    0  0.00000000000E+00  0.00000000000E+00  0.45593999997E+02  0.45594000000E+02  0.51100000000E-03 0. -1.
         11   -1    0    0    0    0 -0.00000000000E+00 -0.00000000000E+00 -0.45593999997E+02  0.45594000000E+02  0.51100000000E-03 0.  1.
    9900012    2    1    2    0    0  0.33285748129E+02 -0.23975522106E+02 -0.14172383947E+02  0.47787272408E+02  0.20000006217E+02 0.  0.
         12    1    1    2    0    0 -0.33285748129E+02  0.23975522106E+02  0.14172383947E+02  0.43400727592E+02  0.00000000000E+00 0. -1.
         11    1    3    3    0    0 -0.32416295541E+00 -0.77792049906E+00 -0.25956748727E+01  0.27290603200E+01  0.51100000000E-03 0. -1.
        -11    1    3    3    0    0  0.32064578860E+02 -0.25159353751E+02 -0.12082507281E+02  0.42510202082E+02  0.51100000000E-03 0.  1.
        -12    1    3    3    0    0  0.15453322251E+01  0.19617521447E+01  0.50579820661E+00  0.25480100057E+01  0.00000000000E+00 0.  1.
</event>
<event>
 7    1  0.2733256E-010  0.4778727E+02  0.7816164E-02  0.1312668E+00
        -11   -1    0    0    0    0  0.00000000000E+00  0.00000000000E+00  0.45593999997E+02  0.45594000000E+02  0.51100000000E-03 0.  1.
         11   -1    0    0    0    0 -0.00000000000E+00 -0.00000000000E+00 -0.45593999997E+02  0.45594000000E+02  0.51100000000E-03 0. -1.
    9900012    2    1    2    0    0 -0.41521807892E+02  0.11481017489E+02  0.52677442089E+01  0.47787269335E+02  0.19999992206E+02 0.  0.
         12    1    1    2    0    0  0.41521807892E+02 -0.11481017489E+02 -0.52677442089E+01  0.43400730665E+02  0.00000000000E+00 0. -1.
         11    1    3    3    0    0  0.32442311435E+00 -0.17089094957E+01 -0.57840149487E+00  0.18330768047E+01  0.51100000000E-03 0. -1.
        -11    1    3    3    0    0 -0.18137043458E+02  0.45330619599E+00  0.57774825397E+01  0.19040407997E+02  0.51100000000E-03 0.  1.
         12    1    3    3    0    0 -0.23709187548E+02  0.12736620788E+02  0.68663164074E-01  0.26913784534E+02  0.00000000000E+00 0. -1.
</event>
<event>
 7    1  0.2733256E-010  0.4778727E+02  0.7816164E-02  0.1312668E+00
        -11   -1    0    0    0    0  0.00000000000E+00  0.00000000000E+00  0.45593999997E+02  0.45594000000E+02  0.51100000000E-03 0.  1.
         11   -1    0    0    0    0 -0.00000000000E+00 -0.00000000000E+00 -0.45593999997E+02  0.45594000000E+02  0.51100000000E-03 0. -1.
    9900012    2    1    2    0    0 -0.34005686524E+02 -0.22201434380E+02 -0.15307935860E+02  0.47787270688E+02  0.19999998374E+02 0.  0.
         12    1    1    2    0    0  0.34005686524E+02  0.22201434380E+02  0.15307935860E+02  0.43400729312E+02  0.00000000000E+00 0. -1.
         11    1    3    3    0    0 -0.30495961732E+01  0.20010931604E+01  0.82906393635E+00  0.37405558314E+01  0.51100000000E-03 0.  1.
        -11    1    3    3    0    0 -0.11000852304E+01 -0.56283370427E+01 -0.12880296740E+01  0.58777024493E+01  0.51100000000E-03 0. -1.
        -12    1    3    3    0    0 -0.29856005121E+02 -0.18574190498E+02 -0.14848970122E+02  0.38169012407E+02  0.00000000000E+00 0.  1.
</event>
<event>
 7    1  0.2733256E-010  0.4778727E+02  0.7816164E-02  0.1312668E+00
        -11   -1    0    0    0    0  0.00000000000E+00  0.00000000000E+00  0.45593999997E+02  0.45594000000E+02  0.51100000000E-03 0. -1.
         11   -1    0    0    0    0 -0.00000000000E+00 -0.00000000000E+00 -0.45593999997E+02  0.45594000000E+02  0.51100000000E-03 0.  1.
    9900012    2    1    2    0    0 -0.24680294675E+02 -0.33484700269E+02 -0.12380684741E+02  0.47787268992E+02  0.19999990640E+02 0.  0.
         12    1    1    2    0    0  0.24680294675E+02  0.33484700269E+02  0.12380684741E+02  0.43400731008E+02  0.00000000000E+00 0. -1.
         11    1    3    3    0    0 -0.30311971377E+01 -0.63875607332E+01  0.24962273053E+01  0.74980156861E+01  0.51100000000E-03 0. -1.
        -11    1    3    3    0    0  0.12421020936E+01 -0.44708570319E+01  0.40787123941E+00  0.46580832345E+01  0.51100000000E-03 0.  1.
        -12    1    3    3    0    0 -0.22891199631E+02 -0.22626282504E+02 -0.15284783286E+02  0.35631170071E+02  0.00000000000E+00 0.  1.
</event>
<event>
 7    1  0.2733256E-010  0.4778727E+02  0.7816164E-02  0.1312668E+00
        -11   -1    0    0    0    0  0.00000000000E+00  0.00000000000E+00  0.45593999997E+02  0.45594000000E+02  0.51100000000E-03 0.  1.
         11   -1    0    0    0    0 -0.00000000000E+00 -0.00000000000E+00 -0.45593999997E+02  0.45594000000E+02  0.51100000000E-03 0. -1.
    9900012    2    1    2    0    0 -0.84377245464E+00  0.21097090418E+02  0.37918652311E+02  0.47787269947E+02  0.19999994997E+02 0.  0.
         12    1    1    2    0    0  0.84377245464E+00 -0.21097090418E+02 -0.37918652311E+02  0.43400730053E+02  0.00000000000E+00 0. -1.
         11    1    3    3    0    0  0.27042984575E+01  0.47078018886E+01  0.31890279987E+01  0.62965489442E+01  0.51100000000E-03 0. -1.
        -11    1    3    3    0    0 -0.60409684515E+01  0.17439703638E+02  0.23188784521E+02  0.29637076284E+02  0.51100000000E-03 0.  1.
        -12    1    3    3    0    0  0.24928975394E+01 -0.10504151092E+01  0.11540839791E+02  0.11853644719E+02  0.00000000000E+00 0.  1.
</event>
<event>
 7    1  0.2733256E-010  0.4778727E+02  0.7816164E-02  0.1312668E+00
        -11   -1    0    0    0    0  0.00000000000E+00  0.00000000000E+00  0.45593999997E+02  0.45594000000E+02  0.51100000000E-03 0.  1.
         11   -1    0    0    0    0 -0.00000000000E+00 -0.00000000000E+00 -0.45593999997E+02  0.45594000000E+02  0.51100000000E-03 0. -1.
    9900012    2    1    2    0    0 -0.33671635340E+02 -0.79754000990E+01  0.26196132408E+02  0.47787269749E+02  0.19999994093E+02 0.  0.
         12    1    1    2    0    0  0.33671635340E+02  0.79754000990E+01 -0.26196132408E+02  0.43400730251E+02  0.00000000000E+00 0. -1.
         11    1    3    3    0    0 -0.11920541848E+02  0.40378667588E+01  0.12280273375E+02  0.17584333946E+02  0.51100000000E-03 0.  1.
        -11    1    3    3    0    0 -0.41075312372E+01 -0.73248843037E+00 -0.12396368279E+01  0.43525913995E+01  0.51100000000E-03 0. -1.
        -12    1    3    3    0    0 -0.17643562255E+02 -0.11280778427E+02  0.15155495861E+02  0.25850344403E+02  0.00000000000E+00 0.  1.
</event>
<event>
 7    1  0.2733256E-010  0.4778727E+02  0.7816164E-02  0.1312668E+00
        -11   -1    0    0    0    0  0.00000000000E+00  0.00000000000E+00  0.45593999997E+02  0.45594000000E+02  0.51100000000E-03 0.  1.
         11   -1    0    0    0    0 -0.00000000000E+00 -0.00000000000E+00 -0.45593999997E+02  0.45594000000E+02  0.51100000000E-03 0. -1.
    9900012    2    1    2    0    0 -0.40349421387E+02  0.17870680165E+01  0.15885645994E+02  0.47787272276E+02  0.20000005613E+02 0.  0.
         12    1    1    2    0    0  0.40349421387E+02 -0.17870680165E+01 -0.15885645994E+02  0.43400727724E+02  0.00000000000E+00 0. -1.
         11    1    3    3    0    0 -0.84831958488E+01 -0.45319395260E+01  0.68749542208E+01  0.11822355242E+02  0.51100000000E-03 0. -1.
        -11    1    3    3    0    0 -0.21158712909E+02 -0.94518522773E+00  0.90335247111E+01  0.23025834969E+02  0.51100000000E-03 0.  1.
         12    1    3    3    0    0 -0.10707512630E+02  0.72641927702E+01 -0.22832938225E-01  0.12939082064E+02  0.00000000000E+00 0. -1.
</event>
<event>
 7    1  0.2733256E-010  0.4778727E+02  0.7816164E-02  0.1312668E+00
        -11   -1    0    0    0    0  0.00000000000E+00  0.00000000000E+00  0.45593999997E+02  0.45594000000E+02  0.51100000000E-03 0. -1.
         11   -1    0    0    0    0 -0.00000000000E+00 -0.00000000000E+00 -0.45593999997E+02  0.45594000000E+02  0.51100000000E-03 0.  1.
    9900012    2    1    2    0    0  0.37666931351E+02 -0.10424233750E+02 -0.18872222601E+02  0.47787272442E+02  0.20000006371E+02 0.  0.
         12    1    1    2    0    0 -0.37666931351E+02  0.10424233750E+02  0.18872222601E+02  0.43400727558E+02  0.00000000000E+00 0. -1.
         11    1    3    3    0    0  0.21398935495E+02 -0.79018101687E+01 -0.88691925140E+01  0.24474795615E+02  0.51100000000E-03 0. -1.
        -11    1    3    3    0    0  0.12868442329E+02 -0.35572378577E+01 -0.13021722896E+02  0.18649826181E+02  0.51100000000E-03 0.  1.
         12    1    3    3    0    0  0.33995535274E+01  0.10348142764E+01  0.30186928091E+01  0.46626506462E+01  0.00000000000E+00 0. -1.
</event>
<event>
 7    1  0.2733256E-010  0.4778727E+02  0.7816164E-02  0.1312668E+00
        -11   -1    0    0    0    0  0.00000000000E+00  0.00000000000E+00  0.45593999997E+02  0.45594000000E+02  0.51100000000E-03 0.  1.
         11   -1    0    0    0    0 -0.00000000000E+00 -0.00000000000E+00 -0.45593999997E+02  0.45594000000E+02  0.51100000000E-03 0. -1.
    9900012    2    1    2    0    0 -0.14132577619E+01  0.31982892631E+02  0.29303939780E+02  0.47787267227E+02  0.19999982596E+02 0.  0.
         12    1    1    2    0    0  0.14132577619E+01 -0.31982892631E+02 -0.29303939780E+02  0.43400732773E+02  0.00000000000E+00 0. -1.
         11    1    3    3    0    0  0.29518949090E+01  0.55051377448E+01  0.32061192324E-01  0.62466993944E+01  0.51100000000E-03 0. -1.
        -11    1    3    3    0    0 -0.45946725878E+01  0.69260077207E+01  0.30991589829E+01  0.88704783297E+01  0.51100000000E-03 0.  1.
         12    1    3    3    0    0  0.22951991691E+00  0.19551747166E+02  0.26172719605E+02  0.32670089503E+02  0.00000000000E+00 0. -1.
</event>
<event>
 7    1  0.2733256E-010  0.4778729E+02  0.7816164E-02  0.1312668E+00
        -11   -1    0    0    0    0  0.00000000000E+00  0.00000000000E+00  0.45593999997E+02  0.45594000000E+02  0.51100000000E-03 0. -1.
         11   -1    0    0    0    0 -0.00000000000E+00 -0.00000000000E+00 -0.45593999997E+02  0.45594000000E+02  0.51100000000E-03 0.  1.
    9900012    2    1    2    0    0 -0.35693102912E+02  0.23273449192E+02 -0.82444419357E+01  0.47787287384E+02  0.20000074498E+02 0.  0.
         12    1    1    2    0    0  0.35693102912E+02 -0.23273449192E+02  0.82444419357E+01  0.43400712616E+02  0.00000000000E+00 0. -1.
         11    1    3    3    0    0 -0.51980489601E+01  0.18644017276E-01 -0.29426419602E+01  0.59732070580E+01  0.51100000000E-03 0. -1.
        -11    1    3    3    0    0 -0.29833254624E+00  0.58074000169E+01  0.20628675650E+01  0.61701150813E+01  0.51100000000E-03 0.  1.
         12    1    3    3    0    0 -0.30196721405E+02  0.17447405158E+02 -0.73646675405E+01  0.35643965245E+02  0.00000000000E+00 0. -1.
</event>
<event>
 7    1  0.2733256E-010  0.4778727E+02  0.7816164E-02  0.1312668E+00
        -11   -1    0    0    0    0  0.00000000000E+00  0.00000000000E+00  0.45593999997E+02  0.45594000000E+02  0.51100000000E-03 0.  1.
         11   -1    0    0    0    0 -0.00000000000E+00 -0.00000000000E+00 -0.45593999997E+02  0.45594000000E+02  0.51100000000E-03 0. -1.
    9900012    2    1    2    0    0 -0.44647365568E+01  0.57203102008E+01  0.42789803250E+02  0.47787273238E+02  0.20000009999E+02 0.  0.
         12    1    1    2    0    0  0.44647365568E+01 -0.57203102008E+01 -0.42789803250E+02  0.43400726762E+02  0.00000000000E+00 0. -1.
         11    1    3    3    0    0  0.28198987227E+01 -0.10153748622E+01  0.35440025119E+01  0.46414188544E+01  0.51100000000E-03 0. -1.
        -11    1    3    3    0    0 -0.10894704958E+01 -0.46582499576E+01  0.80925932049E+01  0.94008671765E+01  0.51100000000E-03 0.  1.
        -12    1    3    3    0    0 -0.61951647837E+01  0.11393935021E+02  0.31153207534E+02  0.33744987207E+02  0.00000000000E+00 0.  1.
</event>
<event>
 7    1  0.2733256E-010  0.4778727E+02  0.7816164E-02  0.1312668E+00
        -11   -1    0    0    0    0  0.00000000000E+00  0.00000000000E+00  0.45593999997E+02  0.45594000000E+02  0.51100000000E-03 0.  1.
         11   -1    0    0    0    0 -0.00000000000E+00 -0.00000000000E+00 -0.45593999997E+02  0.45594000000E+02  0.51100000000E-03 0. -1.
    9900012    2    1    2    0    0  0.36677273041E+02 -0.21996634416E+02  0.73857361731E+01  0.47787269796E+02  0.19999994310E+02 0.  0.
         12    1    1    2    0    0 -0.36677273041E+02  0.21996634416E+02 -0.73857361731E+01  0.43400730204E+02  0.00000000000E+00 0. -1.
         11    1    3    3    0    0  0.80487240385E+01 -0.68194859188E+01 -0.34623496009E+01  0.11102937083E+02  0.51100000000E-03 0. -1.
        -11    1    3    3    0    0  0.21201560317E+02 -0.66658704524E+01  0.19605212825E+01  0.22311065253E+02  0.51100000000E-03 0.  1.
         12    1    3    3    0    0  0.74269886858E+01 -0.85112780449E+01  0.88875644915E+01  0.14373267460E+02  0.00000000000E+00 0. -1.
</event>
<event>
 7    1  0.2733256E-010  0.4778727E+02  0.7816164E-02  0.1312668E+00
        -11   -1    0    0    0    0  0.00000000000E+00  0.00000000000E+00  0.45593999997E+02  0.45594000000E+02  0.51100000000E-03 0.  1.
         11   -1    0    0    0    0 -0.00000000000E+00 -0.00000000000E+00 -0.45593999997E+02  0.45594000000E+02  0.51100000000E-03 0. -1.
    9900012    2    1    2    0    0  0.16656289993E+02 -0.33530209454E+02  0.21952592137E+02  0.47787271390E+02  0.20000001576E+02 0.  0.
         12    1    1    2    0    0 -0.16656289993E+02  0.33530209454E+02 -0.21952592137E+02  0.43400728610E+02  0.00000000000E+00 0. -1.
         11    1    3    3    0    0  0.12009740315E+02 -0.79023770685E+01  0.11449131478E+02  0.18378357860E+02  0.51100000000E-03 0. -1.
        -11    1    3    3    0    0  0.67237542021E+01 -0.19261067509E+02  0.57480038957E+01  0.21195215054E+02  0.51100000000E-03 0.  1.
        -12    1    3    3    0    0 -0.20772045240E+01 -0.63667648762E+01  0.47554567636E+01  0.82136984760E+01  0.00000000000E+00 0.  1.
</event>
<event>
 7    1  0.2733256E-010  0.4778727E+02  0.7816164E-02  0.1312668E+00
        -11   -1    0    0    0    0  0.00000000000E+00  0.00000000000E+00  0.45593999997E+02  0.45594000000E+02  0.51100000000E-03 0. -1.
         11   -1    0    0    0    0 -0.00000000000E+00 -0.00000000000E+00 -0.45593999997E+02  0.45594000000E+02  0.51100000000E-03 0.  1.
    9900012    2    1    2    0    0  0.16903975851E+02  0.84300307754E+01 -0.39074463489E+02  0.47787268262E+02  0.19999987313E+02 0.  0.
         12    1    1    2    0    0 -0.16903975851E+02 -0.84300307754E+01  0.39074463489E+02  0.43400731738E+02  0.00000000000E+00 0. -1.
         11    1    3    3    0    0  0.74463930467E+01  0.17243511654E+01 -0.91562159510E+01  0.11927214560E+02  0.51100000000E-03 0. -1.
        -11    1    3    3    0    0  0.50764022464E+01 -0.47506058876E+01 -0.69996520293E+01  0.98657612408E+01  0.51100000000E-03 0.  1.
        -12    1    3    3    0    0  0.43811805579E+01  0.11456285498E+02 -0.22918595509E+02  0.25994292462E+02  0.00000000000E+00 0.  1.
</event>
<event>
 7    1  0.2733256E-010  0.4778727E+02  0.7816164E-02  0.1312668E+00
        -11   -1    0    0    0    0  0.00000000000E+00  0.00000000000E+00  0.45593999997E+02  0.45594000000E+02  0.51100000000E-03 0. -1.
         11   -1    0    0    0    0 -0.00000000000E+00 -0.00000000000E+00 -0.45593999997E+02  0.45594000000E+02  0.51100000000E-03 0.  1.
    9900012    2    1    2    0    0  0.13664819513E+02  0.94055290322E+01 -0.40105267373E+02  0.47787265677E+02  0.19999975530E+02 0.  0.
         12    1    1    2    0    0 -0.13664819513E+02 -0.94055290322E+01  0.40105267373E+02  0.43400734323E+02  0.00000000000E+00 0. -1.
         11    1    3    3    0    0 -0.97526481953E-01  0.43455468082E+01 -0.27375515660E+02  0.27718444156E+02  0.51100000000E-03 0. -1.
        -11    1    3    3    0    0  0.52226720975E+01  0.32092870780E+00 -0.70206148309E+01  0.87560454509E+01  0.51100000000E-03 0.  1.
         12    1    3    3    0    0  0.85396738971E+01  0.47390535161E+01 -0.57091368816E+01  0.11312776071E+02  0.00000000000E+00 0. -1.
</event>
<event>
 7    1  0.2733256E-010  0.4778727E+02  0.7816164E-02  0.1312668E+00
        -11   -1    0    0    0    0  0.00000000000E+00  0.00000000000E+00  0.45593999997E+02  0.45594000000E+02  0.51100000000E-03 0.  1.
         11   -1    0    0    0    0 -0.00000000000E+00 -0.00000000000E+00 -0.45593999997E+02  0.45594000000E+02  0.51100000000E-03 0. -1.
    9900012    2    1    2    0    0  0.87697142735E+00  0.77503724114E+01  0.42694098487E+02  0.47787269625E+02  0.19999993530E+02 0.  0.
         12    1    1    2    0    0 -0.87697142735E+00 -0.77503724114E+01 -0.42694098487E+02  0.43400730375E+02  0.00000000000E+00 0. -1.
         11    1    3    3    0    0  0.46396653436E+01 -0.54397137725E+00  0.29540042768E+02  0.29907131697E+02  0.51100000000E-03 0. -1.
        -11    1    3    3    0    0 -0.31219503041E+01 -0.55969204436E+00  0.42902009645E+01  0.53353213083E+01  0.51100000000E-03 0.  1.
         12    1    3    3    0    0 -0.64074361216E+00  0.88540358330E+01  0.88638547551E+01  0.12544816620E+02  0.00000000000E+00 0. -1.
</event>
<event>
 7    1  0.2733256E-010  0.4778727E+02  0.7816164E-02  0.1312668E+00
        -11   -1    0    0    0    0  0.00000000000E+00  0.00000000000E+00  0.45593999997E+02  0.45594000000E+02  0.51100000000E-03 0. -1.
         11   -1    0    0    0    0 -0.00000000000E+00 -0.00000000000E+00 -0.45593999997E+02  0.45594000000E+02  0.51100000000E-03 0.  1.
    9900012    2    1    2    0    0 -0.68390214749E+01 -0.91517244694E+01 -0.41870004614E+02  0.47787267726E+02  0.19999984870E+02 0.  0.
         12    1    1    2    0    0  0.68390214749E+01  0.91517244694E+01  0.41870004614E+02  0.43400732274E+02  0.00000000000E+00 0. -1.
         11    1    3    3    0    0  0.29582306269E+01 -0.56388908095E+01 -0.14689935284E+02  0.16010696953E+02  0.51100000000E-03 0. -1.
        -11    1    3    3    0    0 -0.32120516673E+01  0.10581907283E+01 -0.21941210588E+02  0.22200310039E+02  0.51100000000E-03 0.  1.
        -12    1    3    3    0    0 -0.65852004344E+01 -0.45710243882E+01 -0.52388587428E+01  0.95762607340E+01  0.00000000000E+00 0.  1.
</event>
<event>
 7    1  0.2733256E-010  0.4778727E+02  0.7816164E-02  0.1312668E+00
        -11   -1    0    0    0    0  0.00000000000E+00  0.00000000000E+00  0.45593999997E+02  0.45594000000E+02  0.51100000000E-03 0. -1.
         11   -1    0    0    0    0 -0.00000000000E+00 -0.00000000000E+00 -0.45593999997E+02  0.45594000000E+02  0.51100000000E-03 0.  1.
    9900012    2    1    2    0    0 -0.30611176130E+02  0.40732152737E+01 -0.30495705876E+02  0.47787271163E+02  0.20000000540E+02 0.  0.
         12    1    1    2    0    0  0.30611176130E+02 -0.40732152737E+01  0.30495705876E+02  0.43400728837E+02  0.00000000000E+00 0. -1.
         11    1    3    3    0    0 -0.67638945273E+01  0.60028584710E+01 -0.52491835786E+01  0.10456505511E+02  0.51100000000E-03 0.  1.
        -11    1    3    3    0    0 -0.60154745187E+01  0.44946035612E+01 -0.29525814653E+01  0.80687751504E+01  0.51100000000E-03 0. -1.
        -12    1    3    3    0    0 -0.17831807084E+02 -0.64242467584E+01 -0.22293940832E+02  0.29261990501E+02  0.00000000000E+00 0.  1.
</event>
<event>
 7    1  0.2733256E-010  0.4778727E+02  0.7816164E-02  0.1312668E+00
        -11   -1    0    0    0    0  0.00000000000E+00  0.00000000000E+00  0.45593999997E+02  0.45594000000E+02  0.51100000000E-03 0. -1.
         11   -1    0    0    0    0 -0.00000000000E+00 -0.00000000000E+00 -0.45593999997E+02  0.45594000000E+02  0.51100000000E-03 0.  1.
    9900012    2    1    2    0    0 -0.38607076125E+02 -0.19439391012E+02 -0.39021695979E+01  0.47787272156E+02  0.20000005069E+02 0.  0.
         12    1    1    2    0    0  0.38607076125E+02  0.19439391012E+02  0.39021695979E+01  0.43400727844E+02  0.00000000000E+00 0. -1.
         11    1    3    3    0    0 -0.20055366891E+02 -0.92252724248E+01 -0.13957584716E+01  0.22119483140E+02  0.51100000000E-03 0. -1.
        -11    1    3    3    0    0 -0.12655724861E+02 -0.52020179102E+01  0.53019308540E+01  0.14674427864E+02  0.51100000000E-03 0.  1.
         12    1    3    3    0    0 -0.58959843725E+01 -0.50121006771E+01 -0.78083419804E+01  0.10993361151E+02  0.00000000000E+00 0. -1.
</event>
<event>
 7    1  0.2733256E-010  0.4778727E+02  0.7816164E-02  0.1312668E+00
        -11   -1    0    0    0    0  0.00000000000E+00  0.00000000000E+00  0.45593999997E+02  0.45594000000E+02  0.51100000000E-03 0. -1.
         11   -1    0    0    0    0 -0.00000000000E+00 -0.00000000000E+00 -0.45593999997E+02  0.45594000000E+02  0.51100000000E-03 0.  1.
    9900012    2    1    2    0    0 -0.16032018458E+01  0.40875410564E+02 -0.14500136306E+02  0.47787269617E+02  0.19999993492E+02 0.  0.
         12    1    1    2    0    0  0.16032018458E+01 -0.40875410564E+02  0.14500136306E+02  0.43400730383E+02  0.00000000000E+00 0. -1.
         11    1    3    3    0    0 -0.33368321143E+01  0.19202609166E+01 -0.61504535691E+01  0.72560271439E+01  0.51100000000E-03 0. -1.
        -11    1    3    3    0    0 -0.16362638322E+01  0.62315764521E+01 -0.33343250292E+01  0.72544902005E+01  0.51100000000E-03 0.  1.
        -12    1    3    3    0    0  0.33698941006E+01  0.32723573195E+02 -0.50153577073E+01  0.33276752273E+02  0.00000000000E+00 0.  1.
</event>
<event>
 7    1  0.2733256E-010  0.4778726E+02  0.7816164E-02  0.1312668E+00
        -11   -1    0    0    0    0  0.00000000000E+00  0.00000000000E+00  0.45593999997E+02  0.45594000000E+02  0.51100000000E-03 0.  1.
         11   -1    0    0    0    0 -0.00000000000E+00 -0.00000000000E+00 -0.45593999997E+02  0.45594000000E+02  0.51100000000E-03 0. -1.
    9900012    2    1    2    0    0 -0.15976235929E+02  0.12956437931E+02  0.38216677344E+02  0.47787264689E+02  0.19999971023E+02 0.  0.
         12    1    1    2    0    0  0.15976235929E+02 -0.12956437931E+02 -0.38216677344E+02  0.43400735311E+02  0.00000000000E+00 0. -1.
         11    1    3    3    0    0 -0.30116630422E+01  0.65849004643E+01  0.16460919879E+02  0.17983128535E+02  0.51100000000E-03 0. -1.
        -11    1    3    3    0    0 -0.80950331265E+01  0.59009033023E+01  0.22708611300E+02  0.24819976804E+02  0.51100000000E-03 0.  1.
         12    1    3    3    0    0 -0.48695397606E+01  0.47063416476E+00 -0.95285383471E+00  0.49841593502E+01  0.00000000000E+00 0. -1.
</event>
<event>
 7    1  0.2733256E-010  0.4778727E+02  0.7816164E-02  0.1312668E+00
        -11   -1    0    0    0    0  0.00000000000E+00  0.00000000000E+00  0.45593999997E+02  0.45594000000E+02  0.51100000000E-03 0.  1.
         11   -1    0    0    0    0 -0.00000000000E+00 -0.00000000000E+00 -0.45593999997E+02  0.45594000000E+02  0.51100000000E-03 0. -1.
    9900012    2    1    2    0    0  0.32400576197E+02  0.15051394823E+02  0.24643079995E+02  0.47787271716E+02  0.20000003060E+02 0.  0.
         12    1    1    2    0    0 -0.32400576197E+02 -0.15051394823E+02 -0.24643079995E+02  0.43400728284E+02  0.00000000000E+00 0. -1.
         11    1    3    3    0    0  0.34192209726E+01  0.64673973952E+01  0.12341995464E+02  0.14347235045E+02  0.51100000000E-03 0. -1.
        -11    1    3    3    0    0  0.96673223229E+01  0.60723225057E+01  0.64062611482E+01  0.13090851908E+02  0.51100000000E-03 0.  1.
         12    1    3    3    0    0  0.19314032901E+02  0.25116749220E+01  0.58948233826E+01  0.20349184763E+02  0.00000000000E+00 0. -1.
</event>
<event>
 7    1  0.2733256E-010  0.4778726E+02  0.7816164E-02  0.1312668E+00
        -11   -1    0    0    0    0  0.00000000000E+00  0.00000000000E+00  0.45593999997E+02  0.45594000000E+02  0.51100000000E-03 0.  1.
         11   -1    0    0    0    0 -0.00000000000E+00 -0.00000000000E+00 -0.45593999997E+02  0.45594000000E+02  0.51100000000E-03 0. -1.
    9900012    2    1    2    0    0 -0.39982789949E+02  0.86774783874E+01  0.14481084928E+02  0.47787263325E+02  0.19999964803E+02 0.  0.
         12    1    1    2    0    0  0.39982789949E+02 -0.86774783874E+01 -0.14481084928E+02  0.43400736675E+02  0.00000000000E+00 0. -1.
         11    1    3    3    0    0 -0.21715304904E+02  0.93561073238E+01  0.48653175254E+01  0.24140474855E+02  0.51100000000E-03 0. -1.
        -11    1    3    3    0    0 -0.13085423518E+02  0.48909335763E+01  0.67798606711E+01  0.15527911993E+02  0.51100000000E-03 0.  1.
         12    1    3    3    0    0 -0.51820615271E+01 -0.55695625127E+01  0.28359067312E+01  0.81188764766E+01  0.00000000000E+00 0. -1.
</event>
<event>
 7    1  0.2733256E-010  0.4778727E+02  0.7816164E-02  0.1312668E+00
        -11   -1    0    0    0    0  0.00000000000E+00  0.00000000000E+00  0.45593999997E+02  0.45594000000E+02  0.51100000000E-03 0. -1.
         11   -1    0    0    0    0 -0.00000000000E+00 -0.00000000000E+00 -0.45593999997E+02  0.45594000000E+02  0.51100000000E-03 0.  1.
    9900012    2    1    2    0    0 -0.16813188819E+02  0.27731159016E+02 -0.28843075996E+02  0.47787268076E+02  0.19999986467E+02 0.  0.
         12    1    1    2    0    0  0.16813188819E+02 -0.27731159016E+02  0.28843075996E+02  0.43400731924E+02  0.00000000000E+00 0. -1.
         11    1    3    3    0    0 -0.93454765774E+01  0.14821301286E+01 -0.65565418082E+01  0.11511858361E+02  0.51100000000E-03 0. -1.
        -11    1    3    3    0    0 -0.34911214808E+01  0.20839170759E+01 -0.40725535431E+01  0.57546791566E+01  0.51100000000E-03 0.  1.
        -12    1    3    3    0    0 -0.39765907606E+01  0.24165111811E+02 -0.18213980645E+02  0.30520730559E+02  0.00000000000E+00 0.  1.
</event>
<event>
 7    1  0.2733256E-010  0.4778727E+02  0.7816164E-02  0.1312668E+00
        -11   -1    0    0    0    0  0.00000000000E+00  0.00000000000E+00  0.45593999997E+02  0.45594000000E+02  0.51100000000E-03 0. -1.
         11   -1    0    0    0    0 -0.00000000000E+00 -0.00000000000E+00 -0.45593999997E+02  0.45594000000E+02  0.51100000000E-03 0.  1.
    9900012    2    1    2    0    0  0.18046106298E+02 -0.22016657325E+01 -0.39409572131E+02  0.47787266595E+02  0.19999979714E+02 0.  0.
         12    1    1    2    0    0 -0.18046106298E+02  0.22016657325E+01  0.39409572131E+02  0.43400733405E+02  0.00000000000E+00 0. -1.
         11    1    3    3    0    0  0.30512185818E+01  0.17014201454E+01 -0.36228883597E+01  0.50329003242E+01  0.51100000000E-03 0.  1.
        -11    1    3    3    0    0  0.12597584424E+02 -0.51241580780E+01 -0.10132433995E+02  0.16959432428E+02  0.51100000000E-03 0. -1.
        -12    1    3    3    0    0  0.23973032914E+01  0.12210722002E+01 -0.25654249776E+02  0.25794933843E+02  0.00000000000E+00 0.  1.
</event>
<event>
 7    1  0.2733256E-010  0.4778727E+02  0.7816164E-02  0.1312668E+00
        -11   -1    0    0    0    0  0.00000000000E+00  0.00000000000E+00  0.45593999997E+02  0.45594000000E+02  0.51100000000E-03 0. -1.
         11   -1    0    0    0    0 -0.00000000000E+00 -0.00000000000E+00 -0.45593999997E+02  0.45594000000E+02  0.51100000000E-03 0.  1.
    9900012    2    1    2    0    0 -0.40226448001E+02 -0.74576098487E+01 -0.14485863143E+02  0.47787270808E+02  0.19999998921E+02 0.  0.
         12    1    1    2    0    0  0.40226448001E+02  0.74576098487E+01  0.14485863143E+02  0.43400729192E+02  0.00000000000E+00 0. -1.
         11    1    3    3    0    0 -0.15199230941E+02 -0.60059750678E+01 -0.56394276735E+01  0.17288478894E+02  0.51100000000E-03 0. -1.
        -11    1    3    3    0    0 -0.22411747449E+02  0.20486055347E+01 -0.11615339871E+02  0.25325862847E+02  0.51100000000E-03 0.  1.
         12    1    3    3    0    0 -0.26154696111E+01 -0.35002403155E+01  0.27689044014E+01  0.51729290674E+01  0.00000000000E+00 0. -1.
</event>
<event>
 7    1  0.2733256E-010  0.4778727E+02  0.7816164E-02  0.1312668E+00
        -11   -1    0    0    0    0  0.00000000000E+00  0.00000000000E+00  0.45593999997E+02  0.45594000000E+02  0.51100000000E-03 0.  1.
         11   -1    0    0    0    0 -0.00000000000E+00 -0.00000000000E+00 -0.45593999997E+02  0.45594000000E+02  0.51100000000E-03 0. -1.
    9900012    2    1    2    0    0 -0.32400492293E+01 -0.42049683966E+02 -0.10244481076E+02  0.47787271514E+02  0.20000002139E+02 0.  0.
         12    1    1    2    0    0  0.32400492293E+01  0.42049683966E+02  0.10244481076E+02  0.43400728486E+02  0.00000000000E+00 0. -1.
         11    1    3    3    0    0 -0.38571385915E+01 -0.11727505594E+02 -0.15407493296E+01  0.12441294721E+02  0.51100000000E-03 0.  1.
        -11    1    3    3    0    0 -0.55939774455E+01 -0.36547344897E+01 -0.32352364297E+01  0.74240435659E+01  0.51100000000E-03 0. -1.
         12    1    3    3    0    0  0.62110668077E+01 -0.26667443882E+02 -0.54684953171E+01  0.27921933227E+02  0.00000000000E+00 0. -1.
</event>
<event>
 7    1  0.2733256E-010  0.4778728E+02  0.7816164E-02  0.1312668E+00
        -11   -1    0    0    0    0  0.00000000000E+00  0.00000000000E+00  0.45593999997E+02  0.45594000000E+02  0.51100000000E-03 0. -1.
         11   -1    0    0    0    0 -0.00000000000E+00 -0.00000000000E+00 -0.45593999997E+02  0.45594000000E+02  0.51100000000E-03 0.  1.
    9900012    2    1    2    0    0 -0.34239376224E+02 -0.25640306687E+02  0.73390983970E+01  0.47787279079E+02  0.20000036632E+02 0.  0.
         12    1    1    2    0    0  0.34239376224E+02  0.25640306687E+02 -0.73390983970E+01  0.43400720921E+02  0.00000000000E+00 0. -1.
         11    1    3    3    0    0 -0.14468015914E+02 -0.61709939755E+01 -0.20112332630E+01  0.15857165908E+02  0.51100000000E-03 0. -1.
        -11    1    3    3    0    0 -0.18678642325E+02 -0.12785924090E+02  0.33500589295E+01  0.22882185845E+02  0.51100000000E-03 0.  1.
         12    1    3    3    0    0 -0.10927179848E+01 -0.66833886216E+01  0.60002727305E+01  0.90479273263E+01  0.00000000000E+00 0. -1.
</event>
<event>
 7    1  0.2733256E-010  0.4778727E+02  0.7816164E-02  0.1312668E+00
        -11   -1    0    0    0    0  0.00000000000E+00  0.00000000000E+00  0.45593999997E+02  0.45594000000E+02  0.51100000000E-03 0. -1.
         11   -1    0    0    0    0 -0.00000000000E+00 -0.00000000000E+00 -0.45593999997E+02  0.45594000000E+02  0.51100000000E-03 0.  1.
    9900012    2    1    2    0    0  0.35522440336E+02  0.17587462868E+02 -0.17676563659E+02  0.47787268205E+02  0.19999987053E+02 0.  0.
         12    1    1    2    0    0 -0.35522440336E+02 -0.17587462868E+02  0.17676563659E+02  0.43400731795E+02  0.00000000000E+00 0. -1.
         11    1    3    3    0    0  0.53198091986E+00  0.17784221385E-01 -0.48816834398E+00  0.72223858303E+00  0.51100000000E-03 0. -1.
        -11    1    3    3    0    0  0.33096471660E+02  0.20824472327E+02 -0.12501415753E+02  0.41052654971E+02  0.51100000000E-03 0.  1.
        -12    1    3    3    0    0  0.18939877563E+01 -0.32547936810E+01 -0.46869795626E+01  0.60123746512E+01  0.00000000000E+00 0.  1.
</event>
<event>
 7    1  0.2733256E-010  0.4778728E+02  0.7816164E-02  0.1312668E+00
        -11   -1    0    0    0    0  0.00000000000E+00  0.00000000000E+00  0.45593999997E+02  0.45594000000E+02  0.51100000000E-03 0.  1.
         11   -1    0    0    0    0 -0.00000000000E+00 -0.00000000000E+00 -0.45593999997E+02  0.45594000000E+02  0.51100000000E-03 0. -1.
    9900012    2    1    2    0    0  0.22202773471E+02 -0.27947979289E+02  0.24689473056E+02  0.47787276781E+02  0.20000026155E+02 0.  0.
         12    1    1    2    0    0 -0.22202773471E+02  0.27947979289E+02 -0.24689473056E+02  0.43400723219E+02  0.00000000000E+00 0. -1.
         11    1    3    3    0    0 -0.90250316983E+00 -0.35873701499E+01 -0.39092549510E+00  0.37197526219E+01  0.51100000000E-03 0. -1.
        -11    1    3    3    0    0  0.92490680900E+01 -0.13792184626E+02  0.47125864386E+01  0.17262041840E+02  0.51100000000E-03 0.  1.
        -12    1    3    3    0    0  0.13856208551E+02 -0.10568424514E+02  0.20367812113E+02  0.26805482319E+02  0.00000000000E+00 0.  1.
</event>
<event>
 7    1  0.2733256E-010  0.4778727E+02  0.7816164E-02  0.1312668E+00
        -11   -1    0    0    0    0  0.00000000000E+00  0.00000000000E+00  0.45593999997E+02  0.45594000000E+02  0.51100000000E-03 0.  1.
         11   -1    0    0    0    0 -0.00000000000E+00 -0.00000000000E+00 -0.45593999997E+02  0.45594000000E+02  0.51100000000E-03 0. -1.
    9900012    2    1    2    0    0  0.42147257250E+02  0.96530122622E+01 -0.37484930214E+01  0.47787272594E+02  0.20000007067E+02 0.  0.
         12    1    1    2    0    0 -0.42147257250E+02 -0.96530122622E+01  0.37484930214E+01  0.43400727406E+02  0.00000000000E+00 0. -1.
         11    1    3    3    0    0  0.16955818362E+02  0.13249241922E+01 -0.70695731696E+01  0.18418307889E+02  0.51100000000E-03 0. -1.
        -11    1    3    3    0    0  0.20584683471E+02  0.98572516426E+01 -0.10356064456E+01  0.22846598971E+02  0.51100000000E-03 0.  1.
        -12    1    3    3    0    0  0.46067554169E+01 -0.15291635725E+01  0.43566865938E+01  0.65223657349E+01  0.00000000000E+00 0.  1.
</event>
<event>
 7    1  0.2733256E-010  0.4778727E+02  0.7816164E-02  0.1312668E+00
        -11   -1    0    0    0    0  0.00000000000E+00  0.00000000000E+00  0.45593999997E+02  0.45594000000E+02  0.51100000000E-03 0.  1.
         11   -1    0    0    0    0 -0.00000000000E+00 -0.00000000000E+00 -0.45593999997E+02  0.45594000000E+02  0.51100000000E-03 0. -1.
    9900012    2    1    2    0    0  0.30075981215E+02  0.19224984369E+02  0.24687222371E+02  0.47787267076E+02  0.19999981904E+02 0.  0.
         12    1    1    2    0    0 -0.30075981215E+02 -0.19224984369E+02 -0.24687222371E+02  0.43400732924E+02  0.00000000000E+00 0. -1.
         11    1    3    3    0    0  0.13029874178E+02  0.14789086128E+02  0.11078485376E+02  0.22610341176E+02  0.51100000000E-03 0. -1.
        -11    1    3    3    0    0  0.16224160062E+02  0.66595547482E+01  0.83824203266E+01  0.19438055714E+02  0.51100000000E-03 0.  1.
         12    1    3    3    0    0  0.82194697443E+00 -0.22236565073E+01  0.52263166680E+01  0.57388701854E+01  0.00000000000E+00 0. -1.
</event>
<event>
 7    1  0.2733256E-010  0.4778727E+02  0.7816164E-02  0.1312668E+00
        -11   -1    0    0    0    0  0.00000000000E+00  0.00000000000E+00  0.45593999997E+02  0.45594000000E+02  0.51100000000E-03 0. -1.
         11   -1    0    0    0    0 -0.00000000000E+00 -0.00000000000E+00 -0.45593999997E+02  0.45594000000E+02  0.51100000000E-03 0.  1.
    9900012    2    1    2    0    0 -0.20838818927E+01  0.57287038129E+01 -0.42970485360E+02  0.47787271628E+02  0.20000002660E+02 0.  0.
         12    1    1    2    0    0  0.20838818927E+01 -0.57287038129E+01  0.42970485360E+02  0.43400728372E+02  0.00000000000E+00 0. -1.
         11    1    3    3    0    0 -0.32181272493E+01  0.11392329584E+02 -0.36776215793E+02  0.38634590261E+02  0.51100000000E-03 0. -1.
        -11    1    3    3    0    0  0.45974751106E+00 -0.18014777087E+01 -0.45239528721E+01  0.48910979912E+01  0.51100000000E-03 0.  1.
         12    1    3    3    0    0  0.67449784555E+00 -0.38621480628E+01 -0.16703166956E+01  0.42615833755E+01  0.00000000000E+00 0. -1.
</event>
<event>
 7    1  0.2733256E-010  0.4778727E+02  0.7816164E-02  0.1312668E+00
        -11   -1    0    0    0    0  0.00000000000E+00  0.00000000000E+00  0.45593999997E+02  0.45594000000E+02  0.51100000000E-03 0. -1.
         11   -1    0    0    0    0 -0.00000000000E+00 -0.00000000000E+00 -0.45593999997E+02  0.45594000000E+02  0.51100000000E-03 0.  1.
    9900012    2    1    2    0    0  0.35707225975E+02  0.21438967517E+01 -0.24576837391E+02  0.47787271708E+02  0.20000003026E+02 0.  0.
         12    1    1    2    0    0 -0.35707225975E+02 -0.21438967517E+01  0.24576837391E+02  0.43400728292E+02  0.00000000000E+00 0. -1.
         11    1    3    3    0    0  0.28116279362E+00 -0.22709883721E+01 -0.48796502292E+01  0.53895665246E+01  0.51100000000E-03 0. -1.
        -11    1    3    3    0    0  0.17126493486E+02 -0.21967418772E+01 -0.13686204588E+02  0.22033035430E+02  0.51100000000E-03 0.  1.
         12    1    3    3    0    0  0.18299569696E+02  0.66116270009E+01 -0.60109825735E+01  0.20364669753E+02  0.00000000000E+00 0. -1.
</event>
<event>
 7    1  0.2733256E-010  0.4778728E+02  0.7816164E-02  0.1312668E+00
        -11   -1    0    0    0    0  0.00000000000E+00  0.00000000000E+00  0.45593999997E+02  0.45594000000E+02  0.51100000000E-03 0.  1.
         11   -1    0    0    0    0 -0.00000000000E+00 -0.00000000000E+00 -0.45593999997E+02  0.45594000000E+02  0.51100000000E-03 0. -1.
    9900012    2    1    2    0    0 -0.12284451154E+02 -0.24273726357E+02  0.33815685838E+02  0.47787284106E+02  0.20000059553E+02 0.  0.
         12    1    1    2    0    0  0.12284451154E+02  0.24273726357E+02 -0.33815685838E+02  0.43400715894E+02  0.00000000000E+00 0. -1.
         11    1    3    3    0    0  0.65357849311E+00 -0.52557992765E+01  0.20202186430E+01  0.56684984351E+01  0.51100000000E-03 0. -1.
        -11    1    3    3    0    0 -0.76732676382E+01 -0.20481417566E+02  0.27678924640E+02  0.35277335092E+02  0.51100000000E-03 0.  1.
         12    1    3    3    0    0 -0.52647620091E+01  0.14634904848E+01  0.41165425551E+01  0.68414505786E+01  0.00000000000E+00 0. -1.
</event>
<event>
 7    1  0.2733256E-010  0.4778727E+02  0.7816164E-02  0.1312668E+00
        -11   -1    0    0    0    0  0.00000000000E+00  0.00000000000E+00  0.45593999997E+02  0.45594000000E+02  0.51100000000E-03 0.  1.
         11   -1    0    0    0    0 -0.00000000000E+00 -0.00000000000E+00 -0.45593999997E+02  0.45594000000E+02  0.51100000000E-03 0. -1.
    9900012    2    1    2    0    0 -0.32186232416E+02 -0.19839205704E+02 -0.21309043784E+02  0.47787274349E+02  0.20000015065E+02 0.  0.
         12    1    1    2    0    0  0.32186232416E+02  0.19839205704E+02  0.21309043784E+02  0.43400725651E+02  0.00000000000E+00 0. -1.
         11    1    3    3    0    0 -0.95351750522E+01 -0.80561222314E+01 -0.71433519450E+01  0.14382216309E+02  0.51100000000E-03 0. -1.
        -11    1    3    3    0    0 -0.16398718566E+02 -0.43434965490E+01 -0.16221832705E+02  0.23471936210E+02  0.51100000000E-03 0.  1.
         12    1    3    3    0    0 -0.62523387981E+01 -0.74395869232E+01  0.20561408658E+01  0.99331218302E+01  0.00000000000E+00 0. -1.
</event>
<event>
 7    1  0.2733256E-010  0.4778725E+02  0.7816164E-02  0.1312668E+00
        -11   -1    0    0    0    0  0.00000000000E+00  0.00000000000E+00  0.45593999997E+02  0.45594000000E+02  0.51100000000E-03 0. -1.
         11   -1    0    0    0    0 -0.00000000000E+00 -0.00000000000E+00 -0.45593999997E+02  0.45594000000E+02  0.51100000000E-03 0.  1.
    9900012    2    1    2    0    0 -0.10911937365E+01 -0.40199200421E+02 -0.16323554830E+02  0.47787252765E+02  0.19999916655E+02 0.  0.
         12    1    1    2    0    0  0.10911937365E+01  0.40199200421E+02  0.16323554830E+02  0.43400747235E+02  0.00000000000E+00 0. -1.
         11    1    3    3    0    0  0.54859950290E+00  0.23689763671E+00  0.12213329823E+00  0.60991696855E+00  0.51100000000E-03 0. -1.
        -11    1    3    3    0    0 -0.38156683469E+01 -0.37668536503E+02 -0.89628629554E+01  0.38907722624E+02  0.51100000000E-03 0.  1.
        -12    1    3    3    0    0  0.21758751075E+01 -0.27675615555E+01 -0.74828251728E+01  0.82696131720E+01  0.00000000000E+00 0.  1.
</event>
<event>
 7    1  0.2733256E-010  0.4778727E+02  0.7816164E-02  0.1312668E+00
        -11   -1    0    0    0    0  0.00000000000E+00  0.00000000000E+00  0.45593999997E+02  0.45594000000E+02  0.51100000000E-03 0.  1.
         11   -1    0    0    0    0 -0.00000000000E+00 -0.00000000000E+00 -0.45593999997E+02  0.45594000000E+02  0.51100000000E-03 0. -1.
    9900012    2    1    2    0    0 -0.71054557081E+01 -0.34739917976E+02  0.25025467775E+02  0.47787269140E+02  0.19999991316E+02 0.  0.
         12    1    1    2    0    0  0.71054557081E+01  0.34739917976E+02 -0.25025467775E+02  0.43400730860E+02  0.00000000000E+00 0. -1.
         11    1    3    3    0    0 -0.60685160270E+01 -0.51036629953E+01  0.55525373299E+01  0.96801308772E+01  0.51100000000E-03 0. -1.
        -11    1    3    3    0    0 -0.40291300904E+01 -0.19990410843E+02  0.59759956203E+01  0.21250010326E+02  0.51100000000E-03 0.  1.
         12    1    3    3    0    0  0.29921904093E+01 -0.96458441382E+01  0.13496934825E+02  0.16857127936E+02  0.00000000000E+00 0. -1.
</event>
<event>
 7    1  0.2733256E-010  0.4778727E+02  0.7816164E-02  0.1312668E+00
        -11   -1    0    0    0    0  0.00000000000E+00  0.00000000000E+00  0.45593999997E+02  0.45594000000E+02  0.51100000000E-03 0.  1.
         11   -1    0    0    0    0 -0.00000000000E+00 -0.00000000000E+00 -0.45593999997E+02  0.45594000000E+02  0.51100000000E-03 0. -1.
    9900012    2    1    2    0    0  0.34677741869E+01  0.11840616909E+02  0.41610062734E+02  0.47787274346E+02  0.20000015054E+02 0.  0.
         12    1    1    2    0    0 -0.34677741869E+01 -0.11840616909E+02 -0.41610062734E+02  0.43400725654E+02  0.00000000000E+00 0. -1.
         11    1    3    3    0    0  0.64725441134E+00 -0.35808194769E+01  0.71246993381E+01  0.80001592059E+01  0.51100000000E-03 0. -1.
        -11    1    3    3    0    0  0.23555349218E+01 -0.92167723252E+00  0.10214332969E+02  0.10522862346E+02  0.51100000000E-03 0.  1.
        -12    1    3    3    0    0  0.46498485378E+00  0.16343113618E+02  0.24271030426E+02  0.29264252794E+02  0.00000000000E+00 0.  1.
</event>
<event>
 7    1  0.2733256E-010  0.4778725E+02  0.7816164E-02  0.1312668E+00
        -11   -1    0    0    0    0  0.00000000000E+00  0.00000000000E+00  0.45593999997E+02  0.45594000000E+02  0.51100000000E-03 0.  1.
         11   -1    0    0    0    0 -0.00000000000E+00 -0.00000000000E+00 -0.45593999997E+02  0.45594000000E+02  0.51100000000E-03 0. -1.
    9900012    2    1    2    0    0 -0.25320382996E+02 -0.29193017547E+02 -0.19755275472E+02  0.47787251418E+02  0.19999910514E+02 0.  0.
         12    1    1    2    0    0  0.25320382996E+02  0.29193017547E+02  0.19755275472E+02  0.43400748582E+02  0.00000000000E+00 0. -1.
         11    1    3    3    0    0 -0.96746146968E+01 -0.39873264329E+01 -0.23567568490E+01  0.10726194326E+02  0.51100000000E-03 0.  1.
        -11    1    3    3    0    0 -0.16630347756E+02 -0.14959107594E+02 -0.12955639743E+02  0.25849409431E+02  0.51100000000E-03 0. -1.
        -12    1    3    3    0    0  0.98457945709E+00 -0.10246583520E+02 -0.44428788798E+01  0.11211647661E+02  0.00000000000E+00 0.  1.
</event>
<event>
 7    1  0.2733256E-010  0.4778727E+02  0.7816164E-02  0.1312668E+00
        -11   -1    0    0    0    0  0.00000000000E+00  0.00000000000E+00  0.45593999997E+02  0.45594000000E+02  0.51100000000E-03 0. -1.
         11   -1    0    0    0    0 -0.00000000000E+00 -0.00000000000E+00 -0.45593999997E+02  0.45594000000E+02  0.51100000000E-03 0.  1.
    9900012    2    1    2    0    0  0.16342102816E+02  0.14566528239E+02 -0.37474995806E+02  0.47787269821E+02  0.19999994424E+02 0.  0.
         12    1    1    2    0    0 -0.16342102816E+02 -0.14566528239E+02  0.37474995806E+02  0.43400730179E+02  0.00000000000E+00 0. -1.
         11    1    3    3    0    0  0.42608474606E+01  0.28815995789E+01 -0.36589978498E+01  0.63124244742E+01  0.51100000000E-03 0. -1.
        -11    1    3    3    0    0  0.34534237048E+01 -0.42924228377E+01 -0.51481472043E+01  0.75401889234E+01  0.51100000000E-03 0.  1.
        -12    1    3    3    0    0  0.86278316510E+01  0.15977351498E+02 -0.28667850752E+02  0.33934656424E+02  0.00000000000E+00 0.  1.
</event>
<event>
 7    1  0.2733256E-010  0.4778727E+02  0.7816164E-02  0.1312668E+00
        -11   -1    0    0    0    0  0.00000000000E+00  0.00000000000E+00  0.45593999997E+02  0.45594000000E+02  0.51100000000E-03 0. -1.
         11   -1    0    0    0    0 -0.00000000000E+00 -0.00000000000E+00 -0.45593999997E+02  0.45594000000E+02  0.51100000000E-03 0.  1.
    9900012    2    1    2    0    0  0.42686122851E+02  0.72114100644E+00  0.78101240181E+01  0.47787272292E+02  0.20000005688E+02 0.  0.
         12    1    1    2    0    0 -0.42686122851E+02 -0.72114100644E+00 -0.78101240181E+01  0.43400727708E+02  0.00000000000E+00 0. -1.
         11    1    3    3    0    0  0.60917819243E+01 -0.19643410550E+01 -0.19229013127E+01  0.66832621161E+01  0.51100000000E-03 0. -1.
        -11    1    3    3    0    0  0.27365313408E+02 -0.29559790529E+01  0.12042292078E+02  0.30043551535E+02  0.51100000000E-03 0.  1.
        -12    1    3    3    0    0  0.92290275185E+01  0.56414611142E+01 -0.23092667468E+01  0.11060458641E+02  0.00000000000E+00 0.  1.
</event>
<event>
 7    1  0.2733256E-010  0.4778727E+02  0.7816164E-02  0.1312668E+00
        -11   -1    0    0    0    0  0.00000000000E+00  0.00000000000E+00  0.45593999997E+02  0.45594000000E+02  0.51100000000E-03 0. -1.
         11   -1    0    0    0    0 -0.00000000000E+00 -0.00000000000E+00 -0.45593999997E+02  0.45594000000E+02  0.51100000000E-03 0.  1.
    9900012    2    1    2    0    0  0.13385871562E+02  0.15648010233E+02 -0.38204467152E+02  0.47787273138E+02  0.20000009548E+02 0.  0.
         12    1    1    2    0    0 -0.13385871562E+02 -0.15648010233E+02  0.38204467152E+02  0.43400726862E+02  0.00000000000E+00 0. -1.
         11    1    3    3    0    0  0.82359640856E+01 -0.42318597730E+00 -0.10780616337E+02  0.13573204473E+02  0.51100000000E-03 0. -1.
        -11    1    3    3    0    0  0.40470721643E+01 -0.18138858041E+00 -0.40916881143E+01  0.57579168808E+01  0.51100000000E-03 0.  1.
        -12    1    3    3    0    0  0.11028353120E+01  0.16252584791E+02 -0.23332162701E+02  0.28456151785E+02  0.00000000000E+00 0.  1.
</event>
<event>
 7    1  0.2733256E-010  0.4778728E+02  0.7816164E-02  0.1312668E+00
        -11   -1    0    0    0    0  0.00000000000E+00  0.00000000000E+00  0.45593999997E+02  0.45594000000E+02  0.51100000000E-03 0.  1.
         11   -1    0    0    0    0 -0.00000000000E+00 -0.00000000000E+00 -0.45593999997E+02  0.45594000000E+02  0.51100000000E-03 0. -1.
    9900012    2    1    2    0    0  0.50808503413E+01  0.86613442445E+01  0.42223076513E+02  0.47787284401E+02  0.20000060896E+02 0.  0.
         12    1    1    2    0    0 -0.50808503413E+01 -0.86613442445E+01 -0.42223076513E+02  0.43400715599E+02  0.00000000000E+00 0. -1.
         11    1    3    3    0    0  0.18231072282E+01  0.41853151497E+00 -0.83727492252E-01  0.18724046434E+01  0.51100000000E-03 0. -1.
        -11    1    3    3    0    0 -0.33131756656E+01  0.56367843791E+01  0.58320436095E+01  0.87614612966E+01  0.51100000000E-03 0.  1.
        -12    1    3    3    0    0  0.65709187786E+01  0.26060283504E+01  0.36474760396E+02  0.37153418460E+02  0.00000000000E+00 0.  1.
</event>
<event>
 7    1  0.2733256E-010  0.4778726E+02  0.7816164E-02  0.1312668E+00
        -11   -1    0    0    0    0  0.00000000000E+00  0.00000000000E+00  0.45593999997E+02  0.45594000000E+02  0.51100000000E-03 0. -1.
         11   -1    0    0    0    0 -0.00000000000E+00 -0.00000000000E+00 -0.45593999997E+02  0.45594000000E+02  0.51100000000E-03 0.  1.
    9900012    2    1    2    0    0 -0.31738362807E+02 -0.25685361573E+02 -0.14716062648E+02  0.47787262994E+02  0.19999963296E+02 0.  0.
         12    1    1    2    0    0  0.31738362807E+02  0.25685361573E+02  0.14716062648E+02  0.43400737006E+02  0.00000000000E+00 0. -1.
         11    1    3    3    0    0 -0.86811366471E+01 -0.22841091915E+01 -0.27324848899E+01  0.93832703370E+01  0.51100000000E-03 0. -1.
        -11    1    3    3    0    0 -0.23708227542E+02 -0.14989409767E+02 -0.91644220685E+01  0.29508457948E+02  0.51100000000E-03 0.  1.
         12    1    3    3    0    0  0.65100138182E+00 -0.84118426145E+01 -0.28191556892E+01  0.88955347096E+01  0.00000000000E+00 0. -1.
</event>
<event>
 7    1  0.2733256E-010  0.4778727E+02  0.7816164E-02  0.1312668E+00
        -11   -1    0    0    0    0  0.00000000000E+00  0.00000000000E+00  0.45593999997E+02  0.45594000000E+02  0.51100000000E-03 0.  1.
         11   -1    0    0    0    0 -0.00000000000E+00 -0.00000000000E+00 -0.45593999997E+02  0.45594000000E+02  0.51100000000E-03 0. -1.
    9900012    2    1    2    0    0 -0.27299996485E+02 -0.46328571821E+01  0.33419605932E+02  0.47787271499E+02  0.20000002072E+02 0.  0.
         12    1    1    2    0    0  0.27299996485E+02  0.46328571821E+01 -0.33419605932E+02  0.43400728501E+02  0.00000000000E+00 0. -1.
         11    1    3    3    0    0 -0.74859741185E+00 -0.47294374813E+01  0.86744342957E+01  0.99082686472E+01  0.51100000000E-03 0. -1.
        -11    1    3    3    0    0 -0.68622100697E+01 -0.10340354823E+01  0.13493465849E+02  0.15173423388E+02  0.51100000000E-03 0.  1.
        -12    1    3    3    0    0 -0.19689189004E+02  0.11306157816E+01  0.11251705788E+02  0.22705579464E+02  0.00000000000E+00 0.  1.
</event>
<event>
 7    1  0.2733256E-010  0.4778727E+02  0.7816164E-02  0.1312668E+00
        -11   -1    0    0    0    0  0.00000000000E+00  0.00000000000E+00  0.45593999997E+02  0.45594000000E+02  0.51100000000E-03 0. -1.
         11   -1    0    0    0    0 -0.00000000000E+00 -0.00000000000E+00 -0.45593999997E+02  0.45594000000E+02  0.51100000000E-03 0.  1.
    9900012    2    1    2    0    0  0.26264160384E+01 -0.15075954207E+01 -0.43294945980E+02  0.47787271290E+02  0.20000001120E+02 0.  0.
         12    1    1    2    0    0 -0.26264160384E+01  0.15075954207E+01  0.43294945980E+02  0.43400728710E+02  0.00000000000E+00 0. -1.
         11    1    3    3    0    0  0.33330322304E+01 -0.54844521721E+01 -0.97510764246E+01  0.11673551781E+02  0.51100000000E-03 0. -1.
        -11    1    3    3    0    0  0.43779876432E+01  0.50034266184E+01 -0.10022134885E+02  0.12026813445E+02  0.51100000000E-03 0.  1.
         12    1    3    3    0    0 -0.50846038353E+01 -0.10265698670E+01 -0.23521734670E+02  0.24086906064E+02  0.00000000000E+00 0. -1.
</event>
<event>
 7    1  0.2733256E-010  0.4778727E+02  0.7816164E-02  0.1312668E+00
        -11   -1    0    0    0    0  0.00000000000E+00  0.00000000000E+00  0.45593999997E+02  0.45594000000E+02  0.51100000000E-03 0.  1.
         11   -1    0    0    0    0 -0.00000000000E+00 -0.00000000000E+00 -0.45593999997E+02  0.45594000000E+02  0.51100000000E-03 0. -1.
    9900012    2    1    2    0    0  0.19915830932E+02 -0.25916952128E+02  0.28553362445E+02  0.47787271478E+02  0.20000001976E+02 0.  0.
         12    1    1    2    0    0 -0.19915830932E+02  0.25916952128E+02 -0.28553362445E+02  0.43400728522E+02  0.00000000000E+00 0. -1.
         11    1    3    3    0    0  0.27300383285E+01 -0.31903577523E+01 -0.42405841674E+00  0.42203456807E+01  0.51100000000E-03 0. -1.
        -11    1    3    3    0    0  0.80903603448E+00 -0.90745728210E+01  0.22629254392E+01  0.93873980949E+01  0.51100000000E-03 0.  1.
        -12    1    3    3    0    0  0.16376756569E+02 -0.13652021555E+02  0.26714495423E+02  0.34179527702E+02  0.00000000000E+00 0.  1.
</event>
<event>
 7    1  0.2733256E-010  0.4778727E+02  0.7816164E-02  0.1312668E+00
        -11   -1    0    0    0    0  0.00000000000E+00  0.00000000000E+00  0.45593999997E+02  0.45594000000E+02  0.51100000000E-03 0.  1.
         11   -1    0    0    0    0 -0.00000000000E+00 -0.00000000000E+00 -0.45593999997E+02  0.45594000000E+02  0.51100000000E-03 0. -1.
    9900012    2    1    2    0    0 -0.20963044032E+02 -0.35404132497E+02  0.13810194473E+02  0.47787270924E+02  0.19999999451E+02 0.  0.
         12    1    1    2    0    0  0.20963044032E+02  0.35404132497E+02 -0.13810194473E+02  0.43400729076E+02  0.00000000000E+00 0. -1.
         11    1    3    3    0    0 -0.14329839040E+02 -0.10018021558E+02  0.74668220771E+01  0.19012061304E+02  0.51100000000E-03 0. -1.
        -11    1    3    3    0    0 -0.72400156553E+01 -0.17080400039E+02  0.81351044855E+01  0.20256796820E+02  0.51100000000E-03 0.  1.
         12    1    3    3    0    0  0.60681066321E+00 -0.83057109006E+01 -0.17917320894E+01  0.85184127996E+01  0.00000000000E+00 0. -1.
</event>
<event>
 7    1  0.2733256E-010  0.4778727E+02  0.7816164E-02  0.1312668E+00
        -11   -1    0    0    0    0  0.00000000000E+00  0.00000000000E+00  0.45593999997E+02  0.45594000000E+02  0.51100000000E-03 0.  1.
         11   -1    0    0    0    0 -0.00000000000E+00 -0.00000000000E+00 -0.45593999997E+02  0.45594000000E+02  0.51100000000E-03 0. -1.
    9900012    2    1    2    0    0 -0.16500451514E+02 -0.39362564475E+02  0.78706370984E+01  0.47787270622E+02  0.19999998074E+02 0.  0.
         12    1    1    2    0    0  0.16500451514E+02  0.39362564475E+02 -0.78706370984E+01  0.43400729378E+02  0.00000000000E+00 0. -1.
         11    1    3    3    0    0 -0.12505578846E+01  0.74608009787E+00 -0.14160832382E+01  0.20312120848E+01  0.51100000000E-03 0. -1.
        -11    1    3    3    0    0 -0.10667848495E+02 -0.12422171257E+02  0.62609465022E+01  0.17530338890E+02  0.51100000000E-03 0.  1.
        -12    1    3    3    0    0 -0.45820451349E+01 -0.27686473316E+02  0.30257738343E+01  0.28225719647E+02  0.00000000000E+00 0.  1.
</event>
<event>
 7    1  0.2733256E-010  0.4778727E+02  0.7816164E-02  0.1312668E+00
        -11   -1    0    0    0    0  0.00000000000E+00  0.00000000000E+00  0.45593999997E+02  0.45594000000E+02  0.51100000000E-03 0.  1.
         11   -1    0    0    0    0 -0.00000000000E+00 -0.00000000000E+00 -0.45593999997E+02  0.45594000000E+02  0.51100000000E-03 0. -1.
    9900012    2    1    2    0    0  0.32301441758E+02 -0.23874911922E+02  0.16438637771E+02  0.47787269929E+02  0.19999994916E+02 0.  0.
         12    1    1    2    0    0 -0.32301441758E+02  0.23874911922E+02 -0.16438637771E+02  0.43400730071E+02  0.00000000000E+00 0. -1.
         11    1    3    3    0    0  0.80708453834E+01 -0.61724564639E+00 -0.18701371815E+01  0.83076441142E+01  0.51100000000E-03 0. -1.
        -11    1    3    3    0    0  0.42828862156E+01 -0.22186401734E+01 -0.60825079328E+00  0.48616301632E+01  0.51100000000E-03 0.  1.
        -12    1    3    3    0    0  0.19947710159E+02 -0.21039026102E+02  0.18917025746E+02  0.34617995652E+02  0.00000000000E+00 0.  1.
</event>
<event>
 7    1  0.2733256E-010  0.4778727E+02  0.7816164E-02  0.1312668E+00
        -11   -1    0    0    0    0  0.00000000000E+00  0.00000000000E+00  0.45593999997E+02  0.45594000000E+02  0.51100000000E-03 0.  1.
         11   -1    0    0    0    0 -0.00000000000E+00 -0.00000000000E+00 -0.45593999997E+02  0.45594000000E+02  0.51100000000E-03 0. -1.
    9900012    2    1    2    0    0 -0.49171202990E+01 -0.39113653798E+02  0.18153990278E+02  0.47787270185E+02  0.19999996081E+02 0.  0.
         12    1    1    2    0    0  0.49171202990E+01  0.39113653798E+02 -0.18153990278E+02  0.43400729815E+02  0.00000000000E+00 0. -1.
         11    1    3    3    0    0  0.14906268902E+01 -0.73644460553E+01  0.91123400358E+01  0.11810663632E+02  0.51100000000E-03 0. -1.
        -11    1    3    3    0    0  0.22197088293E+01 -0.53706380396E+00 -0.22346438519E+00  0.22946636810E+01  0.51100000000E-03 0.  1.
        -12    1    3    3    0    0 -0.86274560185E+01 -0.31212143939E+02  0.92651146278E+01  0.33681942872E+02  0.00000000000E+00 0.  1.
</event>
<event>
 7    1  0.2733256E-010  0.4778727E+02  0.7816164E-02  0.1312668E+00
        -11   -1    0    0    0    0  0.00000000000E+00  0.00000000000E+00  0.45593999997E+02  0.45594000000E+02  0.51100000000E-03 0.  1.
         11   -1    0    0    0    0 -0.00000000000E+00 -0.00000000000E+00 -0.45593999997E+02  0.45594000000E+02  0.51100000000E-03 0. -1.
    9900012    2    1    2    0    0 -0.33371136486E+02  0.27627704675E+02 -0.25884928753E+01  0.47787272917E+02  0.20000008537E+02 0.  0.
         12    1    1    2    0    0  0.33371136486E+02 -0.27627704675E+02  0.25884928753E+01  0.43400727083E+02  0.00000000000E+00 0. -1.
         11    1    3    3    0    0 -0.19825758608E+02  0.99052141380E+01 -0.33713132768E+01  0.22417397819E+02  0.51100000000E-03 0.  1.
        -11    1    3    3    0    0 -0.10251287716E+02  0.43603342324E+01 -0.20290264264E+01  0.11323354757E+02  0.51100000000E-03 0. -1.
        -12    1    3    3    0    0 -0.32940901622E+01  0.13362156305E+02  0.28118468279E+01  0.14046520341E+02  0.00000000000E+00 0.  1.
</event>
<event>
 7    1  0.2733256E-010  0.4778727E+02  0.7816164E-02  0.1312668E+00
        -11   -1    0    0    0    0  0.00000000000E+00  0.00000000000E+00  0.45593999997E+02  0.45594000000E+02  0.51100000000E-03 0.  1.
         11   -1    0    0    0    0 -0.00000000000E+00 -0.00000000000E+00 -0.45593999997E+02  0.45594000000E+02  0.51100000000E-03 0. -1.
    9900012    2    1    2    0    0  0.24764748463E+02  0.13331323957E+02  0.33054592738E+02  0.47787273440E+02  0.20000010922E+02 0.  0.
         12    1    1    2    0    0 -0.24764748463E+02 -0.13331323957E+02 -0.33054592738E+02  0.43400726560E+02  0.00000000000E+00 0. -1.
         11    1    3    3    0    0  0.73593245608E+01  0.25427264749E+01  0.19823409618E+01  0.80345996706E+01  0.51100000000E-03 0. -1.
        -11    1    3    3    0    0  0.55568376968E+01  0.11346810328E+02  0.12939422903E+02  0.18084723252E+02  0.51100000000E-03 0.  1.
        -12    1    3    3    0    0  0.11848586205E+02 -0.55821284553E+00  0.18132828873E+02  0.21667950517E+02  0.00000000000E+00 0.  1.
</event>
<event>
 7    1  0.2733256E-010  0.4778728E+02  0.7816164E-02  0.1312668E+00
        -11   -1    0    0    0    0  0.00000000000E+00  0.00000000000E+00  0.45593999997E+02  0.45594000000E+02  0.51100000000E-03 0.  1.
         11   -1    0    0    0    0 -0.00000000000E+00 -0.00000000000E+00 -0.45593999997E+02  0.45594000000E+02  0.51100000000E-03 0. -1.
    9900012    2    1    2    0    0  0.16015800057E+02  0.35175754232E+02  0.19742930004E+02  0.47787276245E+02  0.20000023713E+02 0.  0.
         12    1    1    2    0    0 -0.16015800057E+02 -0.35175754232E+02 -0.19742930004E+02  0.43400723755E+02  0.00000000000E+00 0. -1.
         11    1    3    3    0    0 -0.22898400584E+01  0.11303286408E+02  0.30435494840E+01  0.11927734271E+02  0.51100000000E-03 0.  1.
        -11    1    3    3    0    0  0.16311208293E+02  0.21513159437E+02  0.18062640208E+02  0.32482772611E+02  0.51100000000E-03 0. -1.
         12    1    3    3    0    0  0.19944318223E+01  0.23593083872E+01 -0.13632596876E+01  0.33767693637E+01  0.00000000000E+00 0. -1.
</event>
<event>
 7    1  0.2733256E-010  0.4778728E+02  0.7816164E-02  0.1312668E+00
        -11   -1    0    0    0    0  0.00000000000E+00  0.00000000000E+00  0.45593999997E+02  0.45594000000E+02  0.51100000000E-03 0. -1.
         11   -1    0    0    0    0 -0.00000000000E+00 -0.00000000000E+00 -0.45593999997E+02  0.45594000000E+02  0.51100000000E-03 0.  1.
    9900012    2    1    2    0    0  0.35086486057E+02  0.21222326319E+02  0.14218790262E+02  0.47787278408E+02  0.20000033575E+02 0.  0.
         12    1    1    2    0    0 -0.35086486057E+02 -0.21222326319E+02 -0.14218790262E+02  0.43400721592E+02  0.00000000000E+00 0. -1.
         11    1    3    3    0    0  0.15053926136E+02  0.10933543726E+02  0.11635132916E+02  0.21944005759E+02  0.51100000000E-03 0. -1.
        -11    1    3    3    0    0  0.20308061496E+02  0.93372283365E+01  0.52832389799E+01  0.22967668778E+02  0.51100000000E-03 0.  1.
        -12    1    3    3    0    0 -0.27550157585E+00  0.95155425631E+00 -0.26995816342E+01  0.28756038707E+01  0.00000000000E+00 0.  1.
</event>
<event>
 7    1  0.2733256E-010  0.4778727E+02  0.7816164E-02  0.1312668E+00
        -11   -1    0    0    0    0  0.00000000000E+00  0.00000000000E+00  0.45593999997E+02  0.45594000000E+02  0.51100000000E-03 0.  1.
         11   -1    0    0    0    0 -0.00000000000E+00 -0.00000000000E+00 -0.45593999997E+02  0.45594000000E+02  0.51100000000E-03 0. -1.
    9900012    2    1    2    0    0 -0.25698650366E+01 -0.11741380532E+02  0.41703223351E+02  0.47787273498E+02  0.20000011185E+02 0.  0.
         12    1    1    2    0    0  0.25698650366E+01  0.11741380532E+02 -0.41703223351E+02  0.43400726502E+02  0.00000000000E+00 0. -1.
         11    1    3    3    0    0 -0.57942101827E+01 -0.87452038579E+01  0.10891147856E+02  0.15121791033E+02  0.51100000000E-03 0.  1.
        -11    1    3    3    0    0 -0.34019879673E+01 -0.18811349857E+01  0.81761315080E+01  0.90532490113E+01  0.51100000000E-03 0. -1.
        -12    1    3    3    0    0  0.66263331134E+01 -0.11150416886E+01  0.22635943987E+02  0.23612233454E+02  0.00000000000E+00 0.  1.
</event>
<event>
 7    1  0.2733256E-010  0.4778727E+02  0.7816164E-02  0.1312668E+00
        -11   -1    0    0    0    0  0.00000000000E+00  0.00000000000E+00  0.45593999997E+02  0.45594000000E+02  0.51100000000E-03 0.  1.
         11   -1    0    0    0    0 -0.00000000000E+00 -0.00000000000E+00 -0.45593999997E+02  0.45594000000E+02  0.51100000000E-03 0. -1.
    9900012    2    1    2    0    0  0.56856788397E+01  0.40740623642E+02  0.13838292828E+02  0.47787266054E+02  0.19999977247E+02 0.  0.
         12    1    1    2    0    0 -0.56856788397E+01 -0.40740623642E+02 -0.13838292828E+02  0.43400733946E+02  0.00000000000E+00 0. -1.
         11    1    3    3    0    0  0.20108176491E+01  0.32938603423E-01  0.80834200488E+00  0.21674615631E+01  0.51100000000E-03 0. -1.
        -11    1    3    3    0    0 -0.57306949882E+01  0.14120812041E+02  0.70507080585E+01  0.16791387141E+02  0.51100000000E-03 0.  1.
         12    1    3    3    0    0  0.94055561788E+01  0.26586872998E+02  0.59792427652E+01  0.28828417350E+02  0.00000000000E+00 0. -1.
</event>
<event>
 7    1  0.2733256E-010  0.4778727E+02  0.7816164E-02  0.1312668E+00
        -11   -1    0    0    0    0  0.00000000000E+00  0.00000000000E+00  0.45593999997E+02  0.45594000000E+02  0.51100000000E-03 0.  1.
         11   -1    0    0    0    0 -0.00000000000E+00 -0.00000000000E+00 -0.45593999997E+02  0.45594000000E+02  0.51100000000E-03 0. -1.
    9900012    2    1    2    0    0 -0.83806949605E-01  0.30373836305E+02  0.31000749132E+02  0.47787269566E+02  0.19999993258E+02 0.  0.
         12    1    1    2    0    0  0.83806949605E-01 -0.30373836305E+02 -0.31000749132E+02  0.43400730434E+02  0.00000000000E+00 0. -1.
         11    1    3    3    0    0  0.38088618179E+01  0.13575697698E+02  0.18298663548E+02  0.23100824319E+02  0.51100000000E-03 0. -1.
        -11    1    3    3    0    0  0.20251060089E+01  0.14311975511E+02  0.10626673043E+02  0.17940453662E+02  0.51100000000E-03 0.  1.
        -12    1    3    3    0    0 -0.59177747764E+01  0.24861630967E+01  0.20754125408E+01  0.67459915848E+01  0.00000000000E+00 0.  1.
</event>
<event>
 7    1  0.2733256E-010  0.4778727E+02  0.7816164E-02  0.1312668E+00
        -11   -1    0    0    0    0  0.00000000000E+00  0.00000000000E+00  0.45593999997E+02  0.45594000000E+02  0.51100000000E-03 0. -1.
         11   -1    0    0    0    0 -0.00000000000E+00 -0.00000000000E+00 -0.45593999997E+02  0.45594000000E+02  0.51100000000E-03 0.  1.
    9900012    2    1    2    0    0 -0.66824097958E+01  0.39862206761E+02 -0.15810538427E+02  0.47787271274E+02  0.20000001049E+02 0.  0.
         12    1    1    2    0    0  0.66824097958E+01 -0.39862206761E+02  0.15810538427E+02  0.43400728726E+02  0.00000000000E+00 0. -1.
         11    1    3    3    0    0 -0.10573527307E+00  0.24824245736E+01 -0.49446939748E+01  0.55338603594E+01  0.51100000000E-03 0. -1.
        -11    1    3    3    0    0 -0.32726926238E+01  0.21057621401E+02 -0.13737338186E+02  0.25354455166E+02  0.51100000000E-03 0.  1.
         12    1    3    3    0    0 -0.33039818990E+01  0.16322160786E+02  0.28714937338E+01  0.16898955749E+02  0.00000000000E+00 0. -1.
</event>
<event>
 7    1  0.2733256E-010  0.4778729E+02  0.7816164E-02  0.1312668E+00
        -11   -1    0    0    0    0  0.00000000000E+00  0.00000000000E+00  0.45593999997E+02  0.45594000000E+02  0.51100000000E-03 0.  1.
         11   -1    0    0    0    0 -0.00000000000E+00 -0.00000000000E+00 -0.45593999997E+02  0.45594000000E+02  0.51100000000E-03 0. -1.
    9900012    2    1    2    0    0 -0.15913029012E+02  0.23279728517E+02  0.32991686034E+02  0.47787290334E+02  0.20000087948E+02 0.  0.
         12    1    1    2    0    0  0.15913029012E+02 -0.23279728517E+02 -0.32991686034E+02  0.43400709666E+02  0.00000000000E+00 0. -1.
         11    1    3    3    0    0 -0.75606512149E+00 -0.11852894808E+01  0.29629202262E+01  0.32795490771E+01  0.51100000000E-03 0. -1.
        -11    1    3    3    0    0 -0.93363257474E+00 -0.22645707363E+01  0.33682990085E+01  0.41647795712E+01  0.51100000000E-03 0.  1.
        -12    1    3    3    0    0 -0.14223331316E+02  0.26729588734E+02  0.26660466799E+02  0.40342961686E+02  0.00000000000E+00 0.  1.
</event>
<event>
 7    1  0.2733256E-010  0.4778727E+02  0.7816164E-02  0.1312668E+00
        -11   -1    0    0    0    0  0.00000000000E+00  0.00000000000E+00  0.45593999997E+02  0.45594000000E+02  0.51100000000E-03 0.  1.
         11   -1    0    0    0    0 -0.00000000000E+00 -0.00000000000E+00 -0.45593999997E+02  0.45594000000E+02  0.51100000000E-03 0. -1.
    9900012    2    1    2    0    0 -0.14840438169E+02  0.17235784217E+02  0.36963661322E+02  0.47787272806E+02  0.20000008034E+02 0.  0.
         12    1    1    2    0    0  0.14840438169E+02 -0.17235784217E+02 -0.36963661322E+02  0.43400727194E+02  0.00000000000E+00 0. -1.
         11    1    3    3    0    0  0.33130859940E+01  0.73903331668E+01  0.69124091330E+01  0.10647768001E+02  0.51100000000E-03 0. -1.
        -11    1    3    3    0    0 -0.23779466738E+01  0.24151143145E+01  0.15499684678E+01  0.37269035469E+01  0.51100000000E-03 0.  1.
        -12    1    3    3    0    0 -0.15775577490E+02  0.74303367356E+01  0.28501283721E+02  0.33412601259E+02  0.00000000000E+00 0.  1.
</event>
<event>
 7    1  0.2733256E-010  0.4778727E+02  0.7816164E-02  0.1312668E+00
        -11   -1    0    0    0    0  0.00000000000E+00  0.00000000000E+00  0.45593999997E+02  0.45594000000E+02  0.51100000000E-03 0. -1.
         11   -1    0    0    0    0 -0.00000000000E+00 -0.00000000000E+00 -0.45593999997E+02  0.45594000000E+02  0.51100000000E-03 0.  1.
    9900012    2    1    2    0    0  0.28729972869E+02  0.16181320418E+02 -0.28220149643E+02  0.47787270543E+02  0.19999997712E+02 0.  0.
         12    1    1    2    0    0 -0.28729972869E+02 -0.16181320418E+02  0.28220149643E+02  0.43400729457E+02  0.00000000000E+00 0. -1.
         11    1    3    3    0    0  0.13448950232E+02  0.66493193098E+00 -0.89593646503E+01  0.16173639417E+02  0.51100000000E-03 0. -1.
        -11    1    3    3    0    0  0.67570942933E+01 -0.46044043166E+00 -0.70296272023E+01  0.97614541716E+01  0.51100000000E-03 0.  1.
        -12    1    3    3    0    0  0.85239283441E+01  0.15976828919E+02 -0.12231157791E+02  0.21852176954E+02  0.00000000000E+00 0.  1.
</event>
<event>
 7    1  0.2733256E-010  0.4778729E+02  0.7816164E-02  0.1312668E+00
        -11   -1    0    0    0    0  0.00000000000E+00  0.00000000000E+00  0.45593999997E+02  0.45594000000E+02  0.51100000000E-03 0. -1.
         11   -1    0    0    0    0 -0.00000000000E+00 -0.00000000000E+00 -0.45593999997E+02  0.45594000000E+02  0.51100000000E-03 0.  1.
    9900012    2    1    2    0    0 -0.34173292603E+02  0.12765925315E+02 -0.23512531645E+02  0.47787286632E+02  0.20000071069E+02 0.  0.
         12    1    1    2    0    0  0.34173292603E+02 -0.12765925315E+02  0.23512531645E+02  0.43400713368E+02  0.00000000000E+00 0. -1.
         11    1    3    3    0    0 -0.15149052054E+02  0.68111256677E+00 -0.56454060104E+01  0.16181109410E+02  0.51100000000E-03 0. -1.
        -11    1    3    3    0    0 -0.11426975073E+02  0.50778140382E+01 -0.19903287641E+01  0.12661807279E+02  0.51100000000E-03 0.  1.
        -12    1    3    3    0    0 -0.75972654761E+01  0.70069987102E+01 -0.15876796871E+02  0.18944369942E+02  0.00000000000E+00 0.  1.
</event>
<event>
 7    1  0.2733256E-010  0.4778727E+02  0.7816164E-02  0.1312668E+00
        -11   -1    0    0    0    0  0.00000000000E+00  0.00000000000E+00  0.45593999997E+02  0.45594000000E+02  0.51100000000E-03 0.  1.
         11   -1    0    0    0    0 -0.00000000000E+00 -0.00000000000E+00 -0.45593999997E+02  0.45594000000E+02  0.51100000000E-03 0. -1.
    9900012    2    1    2    0    0  0.16699118811E+02 -0.29729818538E+02  0.26849586843E+02  0.47787274280E+02  0.20000014752E+02 0.  0.
         12    1    1    2    0    0 -0.16699118811E+02  0.29729818538E+02 -0.26849586843E+02  0.43400725720E+02  0.00000000000E+00 0. -1.
         11    1    3    3    0    0  0.66464177346E-02 -0.11234907292E+02  0.68694266567E+01  0.13168606946E+02  0.51100000000E-03 0. -1.
        -11    1    3    3    0    0  0.34004434859E+01 -0.91837065925E+01  0.14484746663E+02  0.17484603766E+02  0.51100000000E-03 0.  1.
        -12    1    3    3    0    0  0.13292028908E+02 -0.93112046533E+01  0.54954135229E+01  0.17134063569E+02  0.00000000000E+00 0.  1.
</event>
<event>
 7    1  0.2733256E-010  0.4778728E+02  0.7816164E-02  0.1312668E+00
        -11   -1    0    0    0    0  0.00000000000E+00  0.00000000000E+00  0.45593999997E+02  0.45594000000E+02  0.51100000000E-03 0. -1.
         11   -1    0    0    0    0 -0.00000000000E+00 -0.00000000000E+00 -0.45593999997E+02  0.45594000000E+02  0.51100000000E-03 0.  1.
    9900012    2    1    2    0    0 -0.45236166534E+01  0.90773415516E+01 -0.42199072039E+02  0.47787275142E+02  0.20000018683E+02 0.  0.
         12    1    1    2    0    0  0.45236166534E+01 -0.90773415516E+01  0.42199072039E+02  0.43400724858E+02  0.00000000000E+00 0. -1.
         11    1    3    3    0    0 -0.64307749550E+00 -0.27157761732E+01 -0.22482287339E+01  0.35837859295E+01  0.51100000000E-03 0. -1.
        -11    1    3    3    0    0  0.47437366601E+01  0.62828713868E+00 -0.11125965248E+02  0.12111353566E+02  0.51100000000E-03 0.  1.
         12    1    3    3    0    0 -0.86242758181E+01  0.11164830586E+02 -0.28824878056E+02  0.32092135647E+02  0.00000000000E+00 0. -1.
</event>
<event>
 7    1  0.2733256E-010  0.4778728E+02  0.7816164E-02  0.1312668E+00
        -11   -1    0    0    0    0  0.00000000000E+00  0.00000000000E+00  0.45593999997E+02  0.45594000000E+02  0.51100000000E-03 0. -1.
         11   -1    0    0    0    0 -0.00000000000E+00 -0.00000000000E+00 -0.45593999997E+02  0.45594000000E+02  0.51100000000E-03 0.  1.
    9900012    2    1    2    0    0  0.18032949134E+02 -0.32187531690E+02 -0.22856037087E+02  0.47787275558E+02  0.20000020579E+02 0.  0.
         12    1    1    2    0    0 -0.18032949134E+02  0.32187531690E+02  0.22856037087E+02  0.43400724442E+02  0.00000000000E+00 0. -1.
         11    1    3    3    0    0  0.64604647376E+01 -0.42366680951E+00 -0.35731428947E+01  0.73948934135E+01  0.51100000000E-03 0. -1.
        -11    1    3    3    0    0  0.78403345354E+00 -0.84802696131E+01 -0.99243954973E+01  0.13077587982E+02  0.51100000000E-03 0.  1.
        -12    1    3    3    0    0  0.10788450943E+02 -0.23283595268E+02 -0.93584986949E+01  0.27314794163E+02  0.00000000000E+00 0.  1.
</event>
<event>
 7    1  0.2733256E-010  0.4778729E+02  0.7816164E-02  0.1312668E+00
        -11   -1    0    0    0    0  0.00000000000E+00  0.00000000000E+00  0.45593999997E+02  0.45594000000E+02  0.51100000000E-03 0.  1.
         11   -1    0    0    0    0 -0.00000000000E+00 -0.00000000000E+00 -0.45593999997E+02  0.45594000000E+02  0.51100000000E-03 0. -1.
    9900012    2    1    2    0    0  0.31237383253E+02  0.23591350933E+02  0.18742890791E+02  0.47787286797E+02  0.20000071822E+02 0.  0.
         12    1    1    2    0    0 -0.31237383253E+02 -0.23591350933E+02 -0.18742890791E+02  0.43400713203E+02  0.00000000000E+00 0. -1.
         11    1    3    3    0    0  0.19821538426E+00  0.44704607591E+01  0.52062258042E+01  0.68650634464E+01  0.51100000000E-03 0. -1.
        -11    1    3    3    0    0  0.94742650929E+01  0.13169462060E+02  0.49782106661E+01  0.16969944364E+02  0.51100000000E-03 0.  1.
         12    1    3    3    0    0  0.21564902775E+02  0.59514281135E+01  0.85584543212E+01  0.23952278987E+02  0.00000000000E+00 0. -1.
</event>
<event>
 7    1  0.2733256E-010  0.4778727E+02  0.7816164E-02  0.1312668E+00
        -11   -1    0    0    0    0  0.00000000000E+00  0.00000000000E+00  0.45593999997E+02  0.45594000000E+02  0.51100000000E-03 0.  1.
         11   -1    0    0    0    0 -0.00000000000E+00 -0.00000000000E+00 -0.45593999997E+02  0.45594000000E+02  0.51100000000E-03 0. -1.
    9900012    2    1    2    0    0 -0.23423163785E+02  0.23331615558E+02  0.28117865189E+02  0.47787271561E+02  0.20000002356E+02 0.  0.
         12    1    1    2    0    0  0.23423163785E+02 -0.23331615558E+02 -0.28117865189E+02  0.43400728439E+02  0.00000000000E+00 0. -1.
         11    1    3    3    0    0 -0.93212022290E+00  0.29871589051E+01  0.87256449853E+01  0.92697813946E+01  0.51100000000E-03 0. -1.
        -11    1    3    3    0    0 -0.10811177659E+02  0.16066733606E+01  0.87799798441E+01  0.14019665045E+02  0.51100000000E-03 0.  1.
         12    1    3    3    0    0 -0.11679865903E+02  0.18737783292E+02  0.10612240360E+02  0.24497825121E+02  0.00000000000E+00 0. -1.
</event>
<event>
 7    1  0.2733256E-010  0.4778727E+02  0.7816164E-02  0.1312668E+00
        -11   -1    0    0    0    0  0.00000000000E+00  0.00000000000E+00  0.45593999997E+02  0.45594000000E+02  0.51100000000E-03 0.  1.
         11   -1    0    0    0    0 -0.00000000000E+00 -0.00000000000E+00 -0.45593999997E+02  0.45594000000E+02  0.51100000000E-03 0. -1.
    9900012    2    1    2    0    0 -0.37303342671E+02  0.66054659555E+01  0.21176677377E+02  0.47787271669E+02  0.20000002849E+02 0.  0.
         12    1    1    2    0    0  0.37303342671E+02 -0.66054659555E+01 -0.21176677377E+02  0.43400728331E+02  0.00000000000E+00 0. -1.
         11    1    3    3    0    0  0.81938229177E-02 -0.21471469891E+00  0.47498565480E+01  0.47547141900E+01  0.51100000000E-03 0. -1.
        -11    1    3    3    0    0 -0.12494743534E+02 -0.33769966066E+01  0.54641035702E+01  0.14049169020E+02  0.51100000000E-03 0.  1.
         12    1    3    3    0    0 -0.24816792959E+02  0.10197177261E+02  0.10962717259E+02  0.28983388459E+02  0.00000000000E+00 0. -1.
</event>
<event>
 7    1  0.2733256E-010  0.4778727E+02  0.7816164E-02  0.1312668E+00
        -11   -1    0    0    0    0  0.00000000000E+00  0.00000000000E+00  0.45593999997E+02  0.45594000000E+02  0.51100000000E-03 0.  1.
         11   -1    0    0    0    0 -0.00000000000E+00 -0.00000000000E+00 -0.45593999997E+02  0.45594000000E+02  0.51100000000E-03 0. -1.
    9900012    2    1    2    0    0  0.24896692761E+02 -0.27676338089E+02  0.22311394560E+02  0.47787270425E+02  0.19999997176E+02 0.  0.
         12    1    1    2    0    0 -0.24896692761E+02  0.27676338089E+02 -0.22311394560E+02  0.43400729575E+02  0.00000000000E+00 0. -1.
         11    1    3    3    0    0  0.20711500202E+02 -0.13342711262E+02  0.79991311230E+01  0.25903287116E+02  0.51100000000E-03 0. -1.
        -11    1    3    3    0    0  0.12693025114E+01 -0.10021646579E+02  0.51318204836E+01  0.11330494727E+02  0.51100000000E-03 0.  1.
        -12    1    3    3    0    0  0.29158900476E+01 -0.43119802475E+01  0.91804429535E+01  0.10553488582E+02  0.00000000000E+00 0.  1.
</event>
<event>
 7    1  0.2733256E-010  0.4778727E+02  0.7816164E-02  0.1312668E+00
        -11   -1    0    0    0    0  0.00000000000E+00  0.00000000000E+00  0.45593999997E+02  0.45594000000E+02  0.51100000000E-03 0.  1.
         11   -1    0    0    0    0 -0.00000000000E+00 -0.00000000000E+00 -0.45593999997E+02  0.45594000000E+02  0.51100000000E-03 0. -1.
    9900012    2    1    2    0    0  0.18616659738E+02  0.39176587581E+02  0.14961330918E+01  0.47787269033E+02  0.19999990828E+02 0.  0.
         12    1    1    2    0    0 -0.18616659738E+02 -0.39176587581E+02 -0.14961330918E+01  0.43400730967E+02  0.00000000000E+00 0. -1.
         11    1    3    3    0    0  0.39835863288E+01  0.16727240775E+01  0.40441321630E+01  0.59179363879E+01  0.51100000000E-03 0. -1.
        -11    1    3    3    0    0 -0.17541725343E+01  0.40035285761E+01  0.73164879426E+00  0.44317798410E+01  0.51100000000E-03 0.  1.
        -12    1    3    3    0    0  0.16387245943E+02  0.33500334927E+02 -0.32796478654E+01  0.37437552804E+02  0.00000000000E+00 0.  1.
</event>
<event>
 7    1  0.2733256E-010  0.4778727E+02  0.7816164E-02  0.1312668E+00
        -11   -1    0    0    0    0  0.00000000000E+00  0.00000000000E+00  0.45593999997E+02  0.45594000000E+02  0.51100000000E-03 0. -1.
         11   -1    0    0    0    0 -0.00000000000E+00 -0.00000000000E+00 -0.45593999997E+02  0.45594000000E+02  0.51100000000E-03 0.  1.
    9900012    2    1    2    0    0  0.31059656390E+02 -0.28657416333E+02  0.98829825520E+01  0.47787272931E+02  0.20000008601E+02 0.  0.
         12    1    1    2    0    0 -0.31059656390E+02  0.28657416333E+02 -0.98829825520E+01  0.43400727069E+02  0.00000000000E+00 0. -1.
         11    1    3    3    0    0  0.93307623217E+01 -0.44446850965E+01 -0.18699744847E+01  0.10503102206E+02  0.51100000000E-03 0. -1.
        -11    1    3    3    0    0  0.13630205712E+02 -0.19035771804E+02  0.18530117274E+01  0.23485671561E+02  0.51100000000E-03 0.  1.
        -12    1    3    3    0    0  0.80986883565E+01 -0.51769594330E+01  0.98999453092E+01  0.13798499164E+02  0.00000000000E+00 0.  1.
</event>
<event>
 7    1  0.2733256E-010  0.4778727E+02  0.7816164E-02  0.1312668E+00
        -11   -1    0    0    0    0  0.00000000000E+00  0.00000000000E+00  0.45593999997E+02  0.45594000000E+02  0.51100000000E-03 0. -1.
         11   -1    0    0    0    0 -0.00000000000E+00 -0.00000000000E+00 -0.45593999997E+02  0.45594000000E+02  0.51100000000E-03 0.  1.
    9900012    2    1    2    0    0 -0.13651000506E+02  0.17803865997E+02 -0.37152337322E+02  0.47787266968E+02  0.19999981415E+02 0.  0.
         12    1    1    2    0    0  0.13651000506E+02 -0.17803865997E+02  0.37152337322E+02  0.43400733032E+02  0.00000000000E+00 0. -1.
         11    1    3    3    0    0 -0.19236941750E+01 -0.13979016419E+01 -0.51310094928E+01  0.56552618822E+01  0.51100000000E-03 0. -1.
        -11    1    3    3    0    0 -0.91932898075E+01  0.10522171744E+02 -0.29660637526E+02  0.32786980563E+02  0.51100000000E-03 0.  1.
         12    1    3    3    0    0 -0.25340165231E+01  0.86795958949E+01 -0.23606903024E+01  0.93450245234E+01  0.00000000000E+00 0. -1.
</event>
<event>
 7    1  0.2733256E-010  0.4778727E+02  0.7816164E-02  0.1312668E+00
        -11   -1    0    0    0    0  0.00000000000E+00  0.00000000000E+00  0.45593999997E+02  0.45594000000E+02  0.51100000000E-03 0. -1.
         11   -1    0    0    0    0 -0.00000000000E+00 -0.00000000000E+00 -0.45593999997E+02  0.45594000000E+02  0.51100000000E-03 0.  1.
    9900012    2    1    2    0    0  0.18691494835E+02 -0.38440316304E+02  0.75228360440E+01  0.47787274674E+02  0.20000016546E+02 0.  0.
         12    1    1    2    0    0 -0.18691494835E+02  0.38440316304E+02 -0.75228360440E+01  0.43400725326E+02  0.00000000000E+00 0. -1.
         11    1    3    3    0    0  0.40386471616E+01 -0.24123660227E+01 -0.82275147831E+00  0.47756780649E+01  0.51100000000E-03 0. -1.
        -11    1    3    3    0    0  0.62663962761E+01 -0.17073554542E+02 -0.43572354744E+01  0.18701857882E+02  0.51100000000E-03 0.  1.
        -12    1    3    3    0    0  0.83864513969E+01 -0.18954395739E+02  0.12702822997E+02  0.24309738727E+02  0.00000000000E+00 0.  1.
</event>
<event>
 7    1  0.2733256E-010  0.4778727E+02  0.7816164E-02  0.1312668E+00
        -11   -1    0    0    0    0  0.00000000000E+00  0.00000000000E+00  0.45593999997E+02  0.45594000000E+02  0.51100000000E-03 0.  1.
         11   -1    0    0    0    0 -0.00000000000E+00 -0.00000000000E+00 -0.45593999997E+02  0.45594000000E+02  0.51100000000E-03 0. -1.
    9900012    2    1    2    0    0  0.30530450410E+01  0.31611723309E+01  0.43177646126E+02  0.47787271670E+02  0.20000002854E+02 0.  0.
         12    1    1    2    0    0 -0.30530450410E+01 -0.31611723309E+01 -0.43177646126E+02  0.43400728330E+02  0.00000000000E+00 0. -1.
         11    1    3    3    0    0 -0.55868258247E+01  0.21628307095E+01  0.85090929740E+01  0.10406494269E+02  0.51100000000E-03 0. -1.
        -11    1    3    3    0    0  0.25328507188E+01 -0.47515200603E+01  0.10537421128E+02  0.11833406945E+02  0.51100000000E-03 0.  1.
         12    1    3    3    0    0  0.61070201468E+01  0.57498616818E+01  0.24131132025E+02  0.25547370456E+02  0.00000000000E+00 0. -1.
</event>
<event>
 7    1  0.2733256E-010  0.4778727E+02  0.7816164E-02  0.1312668E+00
        -11   -1    0    0    0    0  0.00000000000E+00  0.00000000000E+00  0.45593999997E+02  0.45594000000E+02  0.51100000000E-03 0.  1.
         11   -1    0    0    0    0 -0.00000000000E+00 -0.00000000000E+00 -0.45593999997E+02  0.45594000000E+02  0.51100000000E-03 0. -1.
    9900012    2    1    2    0    0  0.37530095349E+02  0.19783843917E+02  0.91495890314E+01  0.47787268250E+02  0.19999987257E+02 0.  0.
         12    1    1    2    0    0 -0.37530095349E+02 -0.19783843917E+02 -0.91495890314E+01  0.43400731750E+02  0.00000000000E+00 0. -1.
         11    1    3    3    0    0 -0.72915018922E-02  0.16605968726E+01 -0.39988208437E+00  0.17080811110E+01  0.51100000000E-03 0. -1.
        -11    1    3    3    0    0  0.30296004429E+02  0.10169630528E+02  0.40298553027E+00  0.31959844603E+02  0.51100000000E-03 0.  1.
        -12    1    3    3    0    0  0.72413824214E+01  0.79536165172E+01  0.91464855855E+01  0.14119342536E+02  0.00000000000E+00 0.  1.
</event>
<event>
 7    1  0.2733256E-010  0.4778728E+02  0.7816164E-02  0.1312668E+00
        -11   -1    0    0    0    0  0.00000000000E+00  0.00000000000E+00  0.45593999997E+02  0.45594000000E+02  0.51100000000E-03 0.  1.
         11   -1    0    0    0    0 -0.00000000000E+00 -0.00000000000E+00 -0.45593999997E+02  0.45594000000E+02  0.51100000000E-03 0. -1.
    9900012    2    1    2    0    0  0.23181996390E+02  0.46192232645E+01  0.36398903526E+02  0.47787281595E+02  0.20000048103E+02 0.  0.
         12    1    1    2    0    0 -0.23181996390E+02 -0.46192232645E+01 -0.36398903526E+02  0.43400718405E+02  0.00000000000E+00 0. -1.
         11    1    3    3    0    0  0.12946495229E+02  0.68483471034E+01  0.14027743081E+02  0.20280265604E+02  0.51100000000E-03 0. -1.
        -11    1    3    3    0    0  0.96381260552E+01 -0.20931305308E+01  0.69307566328E+01  0.12054462122E+02  0.51100000000E-03 0.  1.
         12    1    3    3    0    0  0.59737510633E+00 -0.13599330818E+00  0.15440403812E+02  0.15452553869E+02  0.00000000000E+00 0. -1.
</event>
<event>
 7    1  0.2733256E-010  0.4778727E+02  0.7816164E-02  0.1312668E+00
        -11   -1    0    0    0    0  0.00000000000E+00  0.00000000000E+00  0.45593999997E+02  0.45594000000E+02  0.51100000000E-03 0. -1.
         11   -1    0    0    0    0 -0.00000000000E+00 -0.00000000000E+00 -0.45593999997E+02  0.45594000000E+02  0.51100000000E-03 0.  1.
    9900012    2    1    2    0    0  0.19278821323E+02 -0.37909908767E+02  0.86480867401E+01  0.47787267995E+02  0.19999986095E+02 0.  0.
         12    1    1    2    0    0 -0.19278821323E+02  0.37909908767E+02 -0.86480867401E+01  0.43400732005E+02  0.00000000000E+00 0. -1.
         11    1    3    3    0    0  0.31210659445E+01 -0.56508725489E+01 -0.24931164722E+01  0.69201909799E+01  0.51100000000E-03 0. -1.
        -11    1    3    3    0    0  0.15626528608E+02 -0.16485447692E+02  0.24413387168E+01  0.22845536040E+02  0.51100000000E-03 0.  1.
        -12    1    3    3    0    0  0.53122677024E+00 -0.15773588526E+02  0.86998644954E+01  0.18021540975E+02  0.00000000000E+00 0.  1.
</event>
<event>
 7    1  0.2733256E-010  0.4778727E+02  0.7816164E-02  0.1312668E+00
        -11   -1    0    0    0    0  0.00000000000E+00  0.00000000000E+00  0.45593999997E+02  0.45594000000E+02  0.51100000000E-03 0.  1.
         11   -1    0    0    0    0 -0.00000000000E+00 -0.00000000000E+00 -0.45593999997E+02  0.45594000000E+02  0.51100000000E-03 0. -1.
    9900012    2    1    2    0    0  0.41142787095E+02  0.42050773917E+01 -0.13160996861E+02  0.47787269082E+02  0.19999991055E+02 0.  0.
         12    1    1    2    0    0 -0.41142787095E+02 -0.42050773917E+01  0.13160996861E+02  0.43400730918E+02  0.00000000000E+00 0. -1.
         11    1    3    3    0    0  0.45745521338E+01  0.57439034084E+01  0.42502195329E+00  0.73552428588E+01  0.51100000000E-03 0. -1.
        -11    1    3    3    0    0  0.24406651459E+01 -0.28974656592E+01 -0.35802172867E+00  0.38053033282E+01  0.51100000000E-03 0.  1.
        -12    1    3    3    0    0  0.34127569815E+02  0.13586396424E+01 -0.13227997085E+02  0.36626722895E+02  0.00000000000E+00 0.  1.
</event>
<event>
 7    1  0.2733256E-010  0.4778727E+02  0.7816164E-02  0.1312668E+00
        -11   -1    0    0    0    0  0.00000000000E+00  0.00000000000E+00  0.45593999997E+02  0.45594000000E+02  0.51100000000E-03 0.  1.
         11   -1    0    0    0    0 -0.00000000000E+00 -0.00000000000E+00 -0.45593999997E+02  0.45594000000E+02  0.51100000000E-03 0. -1.
    9900012    2    1    2    0    0 -0.10103955647E+02  0.96599758062E+01  0.41087934102E+02  0.47787269810E+02  0.19999994370E+02 0.  0.
         12    1    1    2    0    0  0.10103955647E+02 -0.96599758062E+01 -0.41087934102E+02  0.43400730190E+02  0.00000000000E+00 0. -1.
         11    1    3    3    0    0  0.41784142699E+00  0.75769703884E+01  0.72955667808E+01  0.10526650305E+02  0.51100000000E-03 0.  1.
        -11    1    3    3    0    0 -0.53898269205E+01  0.40205358745E+01  0.62599458886E+01  0.91870488048E+01  0.51100000000E-03 0. -1.
        -12    1    3    3    0    0 -0.51319701538E+01 -0.19375304567E+01  0.27532421432E+02  0.28073570700E+02  0.00000000000E+00 0.  1.
</event>
<event>
 7    1  0.2733256E-010  0.4778727E+02  0.7816164E-02  0.1312668E+00
        -11   -1    0    0    0    0  0.00000000000E+00  0.00000000000E+00  0.45593999997E+02  0.45594000000E+02  0.51100000000E-03 0.  1.
         11   -1    0    0    0    0 -0.00000000000E+00 -0.00000000000E+00 -0.45593999997E+02  0.45594000000E+02  0.51100000000E-03 0. -1.
    9900012    2    1    2    0    0  0.37058884980E+02 -0.67079235597E+01  0.21570038373E+02  0.47787265561E+02  0.19999974997E+02 0.  0.
         12    1    1    2    0    0 -0.37058884980E+02  0.67079235597E+01 -0.21570038373E+02  0.43400734439E+02  0.00000000000E+00 0. -1.
         11    1    3    3    0    0  0.54885459532E+01 -0.33399886610E+01  0.68532945241E+01  0.93940037807E+01  0.51100000000E-03 0.  1.
        -11    1    3    3    0    0  0.31317955636E+02 -0.58439279635E+00  0.16161488575E+02  0.35246979635E+02  0.51100000000E-03 0. -1.
         12    1    3    3    0    0  0.25238339158E+00 -0.27835421024E+01 -0.14447447268E+01  0.31462821453E+01  0.00000000000E+00 0. -1.
</event>
<event>
 7    1  0.2733256E-010  0.4778728E+02  0.7816164E-02  0.1312668E+00
        -11   -1    0    0    0    0  0.00000000000E+00  0.00000000000E+00  0.45593999997E+02  0.45594000000E+02  0.51100000000E-03 0.  1.
         11   -1    0    0    0    0 -0.00000000000E+00 -0.00000000000E+00 -0.45593999997E+02  0.45594000000E+02  0.51100000000E-03 0. -1.
    9900012    2    1    2    0    0  0.24126296533E+02  0.23115642820E+02 -0.27698586646E+02  0.47787276163E+02  0.20000023338E+02 0.  0.
         12    1    1    2    0    0 -0.24126296533E+02 -0.23115642820E+02  0.27698586646E+02  0.43400723837E+02  0.00000000000E+00 0. -1.
         11    1    3    3    0    0  0.14514718222E+02  0.12405823880E+02 -0.93039061880E+01  0.21240154939E+02  0.51100000000E-03 0.  1.
        -11    1    3    3    0    0  0.42203193325E+01  0.84130665272E+01 -0.26966336108E+01  0.97909456516E+01  0.51100000000E-03 0. -1.
         12    1    3    3    0    0  0.53912589786E+01  0.22967524128E+01 -0.15698046847E+02  0.16756175573E+02  0.00000000000E+00 0. -1.
</event>
<event>
 7    1  0.2733256E-010  0.4778727E+02  0.7816164E-02  0.1312668E+00
        -11   -1    0    0    0    0  0.00000000000E+00  0.00000000000E+00  0.45593999997E+02  0.45594000000E+02  0.51100000000E-03 0. -1.
         11   -1    0    0    0    0 -0.00000000000E+00 -0.00000000000E+00 -0.45593999997E+02  0.45594000000E+02  0.51100000000E-03 0.  1.
    9900012    2    1    2    0    0  0.18806125216E+02  0.18612420704E+01 -0.39070301583E+02  0.47787273814E+02  0.20000012628E+02 0.  0.
         12    1    1    2    0    0 -0.18806125216E+02 -0.18612420704E+01  0.39070301583E+02  0.43400726186E+02  0.00000000000E+00 0. -1.
         11    1    3    3    0    0  0.66421226679E+01 -0.32815137727E+01 -0.21255381717E+02  0.22509495294E+02  0.51100000000E-03 0. -1.
        -11    1    3    3    0    0  0.13501756582E+02  0.32231027152E+01 -0.18217765895E+02  0.22903554666E+02  0.51100000000E-03 0.  1.
        -12    1    3    3    0    0 -0.13377540339E+01  0.19196531278E+01  0.40284602847E+00  0.23742238540E+01  0.00000000000E+00 0.  1.
</event>
<event>
 7    1  0.2733256E-010  0.4778727E+02  0.7816164E-02  0.1312668E+00
        -11   -1    0    0    0    0  0.00000000000E+00  0.00000000000E+00  0.45593999997E+02  0.45594000000E+02  0.51100000000E-03 0.  1.
         11   -1    0    0    0    0 -0.00000000000E+00 -0.00000000000E+00 -0.45593999997E+02  0.45594000000E+02  0.51100000000E-03 0. -1.
    9900012    2    1    2    0    0 -0.22774853028E+02  0.29192277945E+02  0.22643767175E+02  0.47787271735E+02  0.20000003147E+02 0.  0.
         12    1    1    2    0    0  0.22774853028E+02 -0.29192277945E+02 -0.22643767175E+02  0.43400728265E+02  0.00000000000E+00 0. -1.
         11    1    3    3    0    0  0.14300917760E+01  0.12164561834E+01  0.33301885730E+01  0.38229679997E+01  0.51100000000E-03 0. -1.
        -11    1    3    3    0    0  0.81845035516E+00  0.50135888450E+01  0.49393281153E+01  0.70854002415E+01  0.51100000000E-03 0.  1.
         12    1    3    3    0    0 -0.25023395159E+02  0.22962232916E+02  0.14374250487E+02  0.36878903493E+02  0.00000000000E+00 0. -1.
</event>
<event>
 7    1  0.2733256E-010  0.4778727E+02  0.7816164E-02  0.1312668E+00
        -11   -1    0    0    0    0  0.00000000000E+00  0.00000000000E+00  0.45593999997E+02  0.45594000000E+02  0.51100000000E-03 0. -1.
         11   -1    0    0    0    0 -0.00000000000E+00 -0.00000000000E+00 -0.45593999997E+02  0.45594000000E+02  0.51100000000E-03 0.  1.
    9900012    2    1    2    0    0 -0.13594046502E+02  0.36428419525E+02 -0.19282004212E+02  0.47787268027E+02  0.19999986240E+02 0.  0.
         12    1    1    2    0    0  0.13594046502E+02 -0.36428419525E+02  0.19282004212E+02  0.43400731973E+02  0.00000000000E+00 0. -1.
         11    1    3    3    0    0 -0.38006367871E+01  0.11930276007E+02  0.72586191263E+00  0.12542057302E+02  0.51100000000E-03 0. -1.
        -11    1    3    3    0    0  0.26384771508E+01  0.70062041866E+01 -0.41301736800E+01  0.85502510880E+01  0.51100000000E-03 0.  1.
        -12    1    3    3    0    0 -0.12431886866E+02  0.17491939331E+02 -0.15877692445E+02  0.26694959636E+02  0.00000000000E+00 0.  1.
</event>
<event>
 7    1  0.2733256E-010  0.4778728E+02  0.7816164E-02  0.1312668E+00
        -11   -1    0    0    0    0  0.00000000000E+00  0.00000000000E+00  0.45593999997E+02  0.45594000000E+02  0.51100000000E-03 0.  1.
         11   -1    0    0    0    0 -0.00000000000E+00 -0.00000000000E+00 -0.45593999997E+02  0.45594000000E+02  0.51100000000E-03 0. -1.
    9900012    2    1    2    0    0  0.49231528641E-01  0.35091878741E+02  0.25537823397E+02  0.47787276491E+02  0.20000024832E+02 0.  0.
         12    1    1    2    0    0 -0.49231528641E-01 -0.35091878741E+02 -0.25537823397E+02  0.43400723509E+02  0.00000000000E+00 0. -1.
         11    1    3    3    0    0  0.38311880373E-01  0.32353090248E+01  0.78698878391E+01  0.85090438444E+01  0.51100000000E-03 0. -1.
        -11    1    3    3    0    0  0.62271621556E+01  0.12031135336E+02  0.11020531726E+02  0.17463616056E+02  0.51100000000E-03 0.  1.
         12    1    3    3    0    0 -0.62162425074E+01  0.19825434380E+02  0.66474038316E+01  0.21814616590E+02  0.00000000000E+00 0. -1.
</event>
<event>
 7    1  0.2733256E-010  0.4778727E+02  0.7816164E-02  0.1312668E+00
        -11   -1    0    0    0    0  0.00000000000E+00  0.00000000000E+00  0.45593999997E+02  0.45594000000E+02  0.51100000000E-03 0. -1.
         11   -1    0    0    0    0 -0.00000000000E+00 -0.00000000000E+00 -0.45593999997E+02  0.45594000000E+02  0.51100000000E-03 0.  1.
    9900012    2    1    2    0    0  0.33603664516E+02 -0.11257997447E+02  0.25053431903E+02  0.47787271601E+02  0.20000002537E+02 0.  0.
         12    1    1    2    0    0 -0.33603664516E+02  0.11257997447E+02 -0.25053431903E+02  0.43400728399E+02  0.00000000000E+00 0. -1.
         11    1    3    3    0    0  0.86760282469E+01 -0.13482159291E+01  0.17126022488E+01  0.89456223404E+01  0.51100000000E-03 0. -1.
        -11    1    3    3    0    0  0.19811769774E+02 -0.86262943020E+01  0.87251296427E+01  0.23303370197E+02  0.51100000000E-03 0.  1.
         12    1    3    3    0    0  0.51158664951E+01 -0.12834872161E+01  0.14615700012E+02  0.15538279064E+02  0.00000000000E+00 0. -1.
</event>
<event>
 7    1  0.2733256E-010  0.4778727E+02  0.7816164E-02  0.1312668E+00
        -11   -1    0    0    0    0  0.00000000000E+00  0.00000000000E+00  0.45593999997E+02  0.45594000000E+02  0.51100000000E-03 0.  1.
         11   -1    0    0    0    0 -0.00000000000E+00 -0.00000000000E+00 -0.45593999997E+02  0.45594000000E+02  0.51100000000E-03 0. -1.
    9900012    2    1    2    0    0  0.37755187008E+02 -0.22273619895E+01  0.21288690633E+02  0.47787266869E+02  0.19999980962E+02 0.  0.
         12    1    1    2    0    0 -0.37755187008E+02  0.22273619895E+01 -0.21288690633E+02  0.43400733131E+02  0.00000000000E+00 0. -1.
         11    1    3    3    0    0  0.21622740795E+02 -0.23937086181E+01  0.13716419149E+02  0.25717949276E+02  0.51100000000E-03 0.  1.
        -11    1    3    3    0    0  0.13758147126E+02  0.31008226613E+01  0.10255755303E+02  0.17437953739E+02  0.51100000000E-03 0. -1.
         12    1    3    3    0    0  0.23742990871E+01 -0.29344760326E+01 -0.26834838186E+01  0.46313638537E+01  0.00000000000E+00 0. -1.
</event>
<event>
 7    1  0.2733256E-010  0.4778727E+02  0.7816164E-02  0.1312668E+00
        -11   -1    0    0    0    0  0.00000000000E+00  0.00000000000E+00  0.45593999997E+02  0.45594000000E+02  0.51100000000E-03 0.  1.
         11   -1    0    0    0    0 -0.00000000000E+00 -0.00000000000E+00 -0.45593999997E+02  0.45594000000E+02  0.51100000000E-03 0. -1.
    9900012    2    1    2    0    0  0.36565180786E+02 -0.20454266660E+02  0.11324034825E+02  0.47787271489E+02  0.20000002028E+02 0.  0.
         12    1    1    2    0    0 -0.36565180786E+02  0.20454266660E+02 -0.11324034825E+02  0.43400728511E+02  0.00000000000E+00 0. -1.
         11    1    3    3    0    0  0.18190763114E+02  0.52829377539E+00  0.22194236868E+01  0.18333270268E+02  0.51100000000E-03 0. -1.
        -11    1    3    3    0    0  0.15684358741E+01 -0.28551563543E+01  0.15390643466E+01  0.36028638918E+01  0.51100000000E-03 0.  1.
         12    1    3    3    0    0  0.16805981799E+02 -0.18127404081E+02  0.75655467917E+01  0.25851137329E+02  0.00000000000E+00 0. -1.
</event>
<event>
 7    1  0.2733256E-010  0.4778727E+02  0.7816164E-02  0.1312668E+00
        -11   -1    0    0    0    0  0.00000000000E+00  0.00000000000E+00  0.45593999997E+02  0.45594000000E+02  0.51100000000E-03 0.  1.
         11   -1    0    0    0    0 -0.00000000000E+00 -0.00000000000E+00 -0.45593999997E+02  0.45594000000E+02  0.51100000000E-03 0. -1.
    9900012    2    1    2    0    0  0.37216121520E+02 -0.21252579878E+02  0.68492043787E+01  0.47787268980E+02  0.19999990586E+02 0.  0.
         12    1    1    2    0    0 -0.37216121520E+02  0.21252579878E+02 -0.68492043787E+01  0.43400731020E+02  0.00000000000E+00 0. -1.
         11    1    3    3    0    0  0.69669802874E+01 -0.78790485059E+01  0.44528276295E+01  0.11421291251E+02  0.51100000000E-03 0. -1.
        -11    1    3    3    0    0  0.86343363998E+01 -0.44526724327E+01  0.76909806041E+01  0.12390691658E+02  0.51100000000E-03 0.  1.
        -12    1    3    3    0    0  0.21614804833E+02 -0.89208589399E+01 -0.52946038549E+01  0.23975286070E+02  0.00000000000E+00 0.  1.
</event>
<event>
 7    1  0.2733256E-010  0.4778727E+02  0.7816164E-02  0.1312668E+00
        -11   -1    0    0    0    0  0.00000000000E+00  0.00000000000E+00  0.45593999997E+02  0.45594000000E+02  0.51100000000E-03 0.  1.
         11   -1    0    0    0    0 -0.00000000000E+00 -0.00000000000E+00 -0.45593999997E+02  0.45594000000E+02  0.51100000000E-03 0. -1.
    9900012    2    1    2    0    0 -0.35809139666E+02 -0.22836933112E+02  0.89332554269E+01  0.47787273622E+02  0.20000011753E+02 0.  0.
         12    1    1    2    0    0  0.35809139666E+02  0.22836933112E+02 -0.89332554269E+01  0.43400726378E+02  0.00000000000E+00 0. -1.
         11    1    3    3    0    0 -0.59433608327E+01 -0.30952917062E+01  0.52786630117E+01  0.85304543951E+01  0.51100000000E-03 0. -1.
        -11    1    3    3    0    0 -0.17185282502E+02 -0.20041622847E+02  0.26309007904E+01  0.26531532565E+02  0.51100000000E-03 0.  1.
         12    1    3    3    0    0 -0.12680496332E+02  0.29998144143E+00  0.10236916247E+01  0.12725286662E+02  0.00000000000E+00 0. -1.
</event>
<event>
 7    1  0.2733256E-010  0.4778726E+02  0.7816164E-02  0.1312668E+00
        -11   -1    0    0    0    0  0.00000000000E+00  0.00000000000E+00  0.45593999997E+02  0.45594000000E+02  0.51100000000E-03 0.  1.
         11   -1    0    0    0    0 -0.00000000000E+00 -0.00000000000E+00 -0.45593999997E+02  0.45594000000E+02  0.51100000000E-03 0. -1.
    9900012    2    1    2    0    0 -0.24636293988E+02 -0.37218516951E+01  0.35536251886E+02  0.47787258536E+02  0.19999942968E+02 0.  0.
         12    1    1    2    0    0  0.24636293988E+02  0.37218516951E+01 -0.35536251886E+02  0.43400741464E+02  0.00000000000E+00 0. -1.
         11    1    3    3    0    0 -0.56798417167E+01 -0.15935957714E+01  0.54871448887E-01  0.58994203568E+01  0.51100000000E-03 0. -1.
        -11    1    3    3    0    0 -0.13605835487E+02  0.20904248726E+01  0.15269493464E+02  0.20558357579E+02  0.51100000000E-03 0.  1.
        -12    1    3    3    0    0 -0.53506167846E+01 -0.42186807963E+01  0.20211886973E+02  0.21329480600E+02  0.00000000000E+00 0.  1.
</event>
<event>
 7    1  0.2733256E-010  0.4778727E+02  0.7816164E-02  0.1312668E+00
        -11   -1    0    0    0    0  0.00000000000E+00  0.00000000000E+00  0.45593999997E+02  0.45594000000E+02  0.51100000000E-03 0. -1.
         11   -1    0    0    0    0 -0.00000000000E+00 -0.00000000000E+00 -0.45593999997E+02  0.45594000000E+02  0.51100000000E-03 0.  1.
    9900012    2    1    2    0    0  0.42339406063E+01 -0.10390009786E+02 -0.41925471488E+02  0.47787265952E+02  0.19999976782E+02 0.  0.
         12    1    1    2    0    0 -0.42339406063E+01  0.10390009786E+02  0.41925471488E+02  0.43400734048E+02  0.00000000000E+00 0. -1.
         11    1    3    3    0    0  0.41106030396E+01 -0.68053418874E+01 -0.98988059430E+01  0.12696302411E+02  0.51100000000E-03 0. -1.
        -11    1    3    3    0    0  0.55905681458E+01 -0.61235521096E+01 -0.19484706836E+02  0.21175602551E+02  0.51100000000E-03 0.  1.
         12    1    3    3    0    0 -0.54672305792E+01  0.25388842112E+01 -0.12541958709E+02  0.13915360990E+02  0.00000000000E+00 0. -1.
</event>
<event>
 7    1  0.2733256E-010  0.4778728E+02  0.7816164E-02  0.1312668E+00
        -11   -1    0    0    0    0  0.00000000000E+00  0.00000000000E+00  0.45593999997E+02  0.45594000000E+02  0.51100000000E-03 0.  1.
         11   -1    0    0    0    0 -0.00000000000E+00 -0.00000000000E+00 -0.45593999997E+02  0.45594000000E+02  0.51100000000E-03 0. -1.
    9900012    2    1    2    0    0 -0.51997421300E+01 -0.94970290963E+01  0.42028459629E+02  0.47787282280E+02  0.20000051227E+02 0.  0.
         12    1    1    2    0    0  0.51997421300E+01  0.94970290963E+01 -0.42028459629E+02  0.43400717720E+02  0.00000000000E+00 0. -1.
         11    1    3    3    0    0 -0.51648520907E+01 -0.30729645048E+01  0.32003010333E+01  0.68088717811E+01  0.51100000000E-03 0. -1.
        -11    1    3    3    0    0  0.17099996928E+01 -0.69108084648E+01  0.11072655731E+02  0.13163854975E+02  0.51100000000E-03 0.  1.
         12    1    3    3    0    0 -0.17448897322E+01  0.48674387330E+00  0.27755502864E+02  0.27814555524E+02  0.00000000000E+00 0. -1.
</event>
<event>
 7    1  0.2733256E-010  0.4778727E+02  0.7816164E-02  0.1312668E+00
        -11   -1    0    0    0    0  0.00000000000E+00  0.00000000000E+00  0.45593999997E+02  0.45594000000E+02  0.51100000000E-03 0.  1.
         11   -1    0    0    0    0 -0.00000000000E+00 -0.00000000000E+00 -0.45593999997E+02  0.45594000000E+02  0.51100000000E-03 0. -1.
    9900012    2    1    2    0    0 -0.29992948410E+02  0.23315301929E+02  0.20986732622E+02  0.47787271844E+02  0.20000003644E+02 0.  0.
         12    1    1    2    0    0  0.29992948410E+02 -0.23315301929E+02 -0.20986732622E+02  0.43400728156E+02  0.00000000000E+00 0. -1.
         11    1    3    3    0    0 -0.29931593558E+01  0.22120367964E+01 -0.16967538752E+01  0.40903647383E+01  0.51100000000E-03 0. -1.
        -11    1    3    3    0    0 -0.17490823150E+01  0.49146765705E+01  0.96983332424E+01  0.11012311414E+02  0.51100000000E-03 0.  1.
        -12    1    3    3    0    0 -0.25250706739E+02  0.16188588562E+02  0.12985153255E+02  0.32684595691E+02  0.00000000000E+00 0.  1.
</event>
<event>
 7    1  0.2733256E-010  0.4778727E+02  0.7816164E-02  0.1312668E+00
        -11   -1    0    0    0    0  0.00000000000E+00  0.00000000000E+00  0.45593999997E+02  0.45594000000E+02  0.51100000000E-03 0.  1.
         11   -1    0    0    0    0 -0.00000000000E+00 -0.00000000000E+00 -0.45593999997E+02  0.45594000000E+02  0.51100000000E-03 0. -1.
    9900012    2    1    2    0    0 -0.15543759482E+02 -0.21523003103E+02  0.34333292964E+02  0.47787272735E+02  0.20000007706E+02 0.  0.
         12    1    1    2    0    0  0.15543759482E+02  0.21523003103E+02 -0.34333292964E+02  0.43400727265E+02  0.00000000000E+00 0. -1.
         11    1    3    3    0    0 -0.31355670792E+01  0.10763609198E+01  0.61460833739E+00  0.33716579612E+01  0.51100000000E-03 0. -1.
        -11    1    3    3    0    0  0.18205374474E+01  0.36284735742E+00  0.27881492227E+01  0.33495956698E+01  0.51100000000E-03 0.  1.
        -12    1    3    3    0    0 -0.14228729850E+02 -0.22962211380E+02  0.30930535404E+02  0.41066019103E+02  0.00000000000E+00 0.  1.
</event>
<event>
 7    1  0.2733256E-010  0.4778727E+02  0.7816164E-02  0.1312668E+00
        -11   -1    0    0    0    0  0.00000000000E+00  0.00000000000E+00  0.45593999997E+02  0.45594000000E+02  0.51100000000E-03 0. -1.
         11   -1    0    0    0    0 -0.00000000000E+00 -0.00000000000E+00 -0.45593999997E+02  0.45594000000E+02  0.51100000000E-03 0.  1.
    9900012    2    1    2    0    0 -0.64178099633E+01  0.41630341628E+02 -0.10457063104E+02  0.47787265012E+02  0.19999972494E+02 0.  0.
         12    1    1    2    0    0  0.64178099633E+01 -0.41630341628E+02  0.10457063104E+02  0.43400734988E+02  0.00000000000E+00 0. -1.
         11    1    3    3    0    0 -0.71452346026E-02  0.15323231702E+02 -0.31867379430E+00  0.15326546712E+02  0.51100000000E-03 0. -1.
        -11    1    3    3    0    0 -0.46227553114E+01  0.27767902641E+02 -0.78826809269E+01  0.29232908555E+02  0.51100000000E-03 0.  1.
        -12    1    3    3    0    0 -0.17879094174E+01 -0.14607927152E+01 -0.22557083831E+01  0.32278097452E+01  0.00000000000E+00 0.  1.
</event>
<event>
 7    1  0.2733256E-010  0.4778727E+02  0.7816164E-02  0.1312668E+00
        -11   -1    0    0    0    0  0.00000000000E+00  0.00000000000E+00  0.45593999997E+02  0.45594000000E+02  0.51100000000E-03 0.  1.
         11   -1    0    0    0    0 -0.00000000000E+00 -0.00000000000E+00 -0.45593999997E+02  0.45594000000E+02  0.51100000000E-03 0. -1.
    9900012    2    1    2    0    0  0.18105543855E+02 -0.19157052401E+02  0.34479264007E+02  0.47787273953E+02  0.20000013260E+02 0.  0.
         12    1    1    2    0    0 -0.18105543855E+02  0.19157052401E+02 -0.34479264007E+02  0.43400726047E+02  0.00000000000E+00 0. -1.
         11    1    3    3    0    0 -0.39056024564E+01 -0.31948615069E+01  0.49806407150E+01  0.70899684618E+01  0.51100000000E-03 0. -1.
        -11    1    3    3    0    0 -0.22638477987E+00 -0.14760978773E+01  0.17389396171E+01  0.22921662821E+01  0.51100000000E-03 0.  1.
        -12    1    3    3    0    0  0.22237531091E+02 -0.14486093017E+02  0.27759683675E+02  0.38405139209E+02  0.00000000000E+00 0.  1.
</event>
<event>
 7    1  0.2733256E-010  0.4778726E+02  0.7816164E-02  0.1312668E+00
        -11   -1    0    0    0    0  0.00000000000E+00  0.00000000000E+00  0.45593999997E+02  0.45594000000E+02  0.51100000000E-03 0.  1.
         11   -1    0    0    0    0 -0.00000000000E+00 -0.00000000000E+00 -0.45593999997E+02  0.45594000000E+02  0.51100000000E-03 0. -1.
    9900012    2    1    2    0    0  0.13665530784E+02  0.37100808676E+02  0.17899926941E+02  0.47787261291E+02  0.19999955528E+02 0.  0.
         12    1    1    2    0    0 -0.13665530784E+02 -0.37100808676E+02 -0.17899926941E+02  0.43400738709E+02  0.00000000000E+00 0. -1.
         11    1    3    3    0    0  0.13836659641E+02  0.14642301749E+02  0.63355011891E+01  0.21118445163E+02  0.51100000000E-03 0. -1.
        -11    1    3    3    0    0  0.66521207556E+00  0.33607853705E+01  0.57408473067E+01  0.66854104939E+01  0.51100000000E-03 0.  1.
         12    1    3    3    0    0 -0.83634093247E+00  0.19097721556E+02  0.58235784455E+01  0.19983405633E+02  0.00000000000E+00 0. -1.
</event>
<event>
 7    1  0.2733256E-010  0.4778727E+02  0.7816164E-02  0.1312668E+00
        -11   -1    0    0    0    0  0.00000000000E+00  0.00000000000E+00  0.45593999997E+02  0.45594000000E+02  0.51100000000E-03 0. -1.
         11   -1    0    0    0    0 -0.00000000000E+00 -0.00000000000E+00 -0.45593999997E+02  0.45594000000E+02  0.51100000000E-03 0.  1.
    9900012    2    1    2    0    0 -0.12739346761E+02  0.38001568107E+02 -0.16649722495E+02  0.47787269665E+02  0.19999993708E+02 0.  0.
         12    1    1    2    0    0  0.12739346761E+02 -0.38001568107E+02  0.16649722495E+02  0.43400730335E+02  0.00000000000E+00 0. -1.
         11    1    3    3    0    0 -0.81101133041E+01  0.11656808968E+02 -0.10708220798E+02  0.17785418917E+02  0.51100000000E-03 0. -1.
        -11    1    3    3    0    0 -0.50574054269E+01  0.12181497096E+02 -0.83760690427E+01  0.15624492121E+02  0.51100000000E-03 0.  1.
         12    1    3    3    0    0  0.42817196971E+00  0.14163262043E+02  0.24345673461E+01  0.14377358627E+02  0.00000000000E+00 0. -1.
</event>
<event>
 7    1  0.2733256E-010  0.4778727E+02  0.7816164E-02  0.1312668E+00
        -11   -1    0    0    0    0  0.00000000000E+00  0.00000000000E+00  0.45593999997E+02  0.45594000000E+02  0.51100000000E-03 0.  1.
         11   -1    0    0    0    0 -0.00000000000E+00 -0.00000000000E+00 -0.45593999997E+02  0.45594000000E+02  0.51100000000E-03 0. -1.
    9900012    2    1    2    0    0 -0.36136633072E+02 -0.22329833950E+02  0.88963677793E+01  0.47787273121E+02  0.20000009466E+02 0.  0.
         12    1    1    2    0    0  0.36136633072E+02  0.22329833950E+02 -0.88963677793E+01  0.43400726879E+02  0.00000000000E+00 0. -1.
         11    1    3    3    0    0  0.51332927054E+00 -0.46771488849E+00 -0.16845815243E+01  0.18221084847E+01  0.51100000000E-03 0. -1.
        -11    1    3    3    0    0 -0.14578665670E+02 -0.12870934536E+02 -0.98963141793E+00  0.19472488777E+02  0.51100000000E-03 0.  1.
         12    1    3    3    0    0 -0.22071296672E+02 -0.89911845257E+01  0.11570580722E+02  0.26492675859E+02  0.00000000000E+00 0. -1.
</event>
<event>
 7    1  0.2733256E-010  0.4778727E+02  0.7816164E-02  0.1312668E+00
        -11   -1    0    0    0    0  0.00000000000E+00  0.00000000000E+00  0.45593999997E+02  0.45594000000E+02  0.51100000000E-03 0.  1.
         11   -1    0    0    0    0 -0.00000000000E+00 -0.00000000000E+00 -0.45593999997E+02  0.45594000000E+02  0.51100000000E-03 0. -1.
    9900012    2    1    2    0    0 -0.20806173157E+02  0.14305184782E+02  0.35299974896E+02  0.47787269813E+02  0.19999994384E+02 0.  0.
         12    1    1    2    0    0  0.20806173157E+02 -0.14305184782E+02 -0.35299974896E+02  0.43400730187E+02  0.00000000000E+00 0. -1.
         11    1    3    3    0    0 -0.53543237032E+01  0.32227760077E+01  0.84217121126E+00  0.63058956639E+01  0.51100000000E-03 0. -1.
        -11    1    3    3    0    0 -0.57054194103E+01  0.11618737199E+02  0.23320264678E+02  0.26671738032E+02  0.51100000000E-03 0.  1.
         12    1    3    3    0    0 -0.97464300438E+01 -0.53632842400E+00  0.11137539007E+02  0.14809636116E+02  0.00000000000E+00 0. -1.
</event>
<event>
 7    1  0.2733256E-010  0.4778728E+02  0.7816164E-02  0.1312668E+00
        -11   -1    0    0    0    0  0.00000000000E+00  0.00000000000E+00  0.45593999997E+02  0.45594000000E+02  0.51100000000E-03 0.  1.
         11   -1    0    0    0    0 -0.00000000000E+00 -0.00000000000E+00 -0.45593999997E+02  0.45594000000E+02  0.51100000000E-03 0. -1.
    9900012    2    1    2    0    0  0.18922138064E+02 -0.37902475421E+02  0.94327972372E+01  0.47787278627E+02  0.20000034572E+02 0.  0.
         12    1    1    2    0    0 -0.18922138064E+02  0.37902475421E+02 -0.94327972372E+01  0.43400721373E+02  0.00000000000E+00 0. -1.
         11    1    3    3    0    0  0.48382265626E+01 -0.57665593407E+01 -0.42527435441E+01  0.86456619650E+01  0.51100000000E-03 0.  1.
        -11    1    3    3    0    0  0.17997143373E+01 -0.87438968583E+01  0.82738380265E+01  0.12171733645E+02  0.51100000000E-03 0. -1.
        -12    1    3    3    0    0  0.12284197164E+02 -0.23392019222E+02  0.54117027548E+01  0.26969883017E+02  0.00000000000E+00 0.  1.
</event>
<event>
 7    1  0.2733256E-010  0.4778727E+02  0.7816164E-02  0.1312668E+00
        -11   -1    0    0    0    0  0.00000000000E+00  0.00000000000E+00  0.45593999997E+02  0.45594000000E+02  0.51100000000E-03 0. -1.
         11   -1    0    0    0    0 -0.00000000000E+00 -0.00000000000E+00 -0.45593999997E+02  0.45594000000E+02  0.51100000000E-03 0.  1.
    9900012    2    1    2    0    0 -0.31262893527E+02  0.25031007013E+02 -0.16724337037E+02  0.47787271053E+02  0.20000000041E+02 0.  0.
         12    1    1    2    0    0  0.31262893527E+02 -0.25031007013E+02  0.16724337037E+02  0.43400728947E+02  0.00000000000E+00 0. -1.
         11    1    3    3    0    0 -0.89964091256E+01  0.36877384237E+01  0.32578610044E+00  0.97283569364E+01  0.51100000000E-03 0. -1.
        -11    1    3    3    0    0 -0.14090390106E+02  0.44277526652E+01 -0.44071560843E+01  0.15413212255E+02  0.51100000000E-03 0.  1.
         12    1    3    3    0    0 -0.81760942946E+01  0.16915515925E+02 -0.12642967053E+02  0.22645701862E+02  0.00000000000E+00 0. -1.
</event>
<event>
 7    1  0.2733256E-010  0.4778727E+02  0.7816164E-02  0.1312668E+00
        -11   -1    0    0    0    0  0.00000000000E+00  0.00000000000E+00  0.45593999997E+02  0.45594000000E+02  0.51100000000E-03 0. -1.
         11   -1    0    0    0    0 -0.00000000000E+00 -0.00000000000E+00 -0.45593999997E+02  0.45594000000E+02  0.51100000000E-03 0.  1.
    9900012    2    1    2    0    0 -0.24499141765E+02 -0.33248996691E+02 -0.13338655155E+02  0.47787269021E+02  0.19999990775E+02 0.  0.
         12    1    1    2    0    0  0.24499141765E+02  0.33248996691E+02  0.13338655155E+02  0.43400730979E+02  0.00000000000E+00 0. -1.
         11    1    3    3    0    0  0.64168142702E+00 -0.25978593713E+01 -0.13215804511E+01  0.29844938460E+01  0.51100000000E-03 0. -1.
        -11    1    3    3    0    0 -0.87473739527E+01 -0.14785049670E+02 -0.13633777366E+02  0.21931578382E+02  0.51100000000E-03 0.  1.
         12    1    3    3    0    0 -0.16393449239E+02 -0.15866087650E+02  0.16167026620E+01  0.22871196793E+02  0.00000000000E+00 0. -1.
</event>
<event>
 7    1  0.2733256E-010  0.4778727E+02  0.7816164E-02  0.1312668E+00
        -11   -1    0    0    0    0  0.00000000000E+00  0.00000000000E+00  0.45593999997E+02  0.45594000000E+02  0.51100000000E-03 0. -1.
         11   -1    0    0    0    0 -0.00000000000E+00 -0.00000000000E+00 -0.45593999997E+02  0.45594000000E+02  0.51100000000E-03 0.  1.
    9900012    2    1    2    0    0 -0.37833278026E+02 -0.16780533644E+02 -0.13064464806E+02  0.47787268713E+02  0.19999989370E+02 0.  0.
         12    1    1    2    0    0  0.37833278026E+02  0.16780533644E+02  0.13064464806E+02  0.43400731287E+02  0.00000000000E+00 0. -1.
         11    1    3    3    0    0 -0.14864093969E+02 -0.29779998064E+00 -0.10704259323E+02  0.18319692744E+02  0.51100000000E-03 0. -1.
        -11    1    3    3    0    0 -0.12558481555E+02 -0.81744328310E+01 -0.51765956114E+01  0.15853515492E+02  0.51100000000E-03 0.  1.
         12    1    3    3    0    0 -0.10410702502E+02 -0.83083008322E+01  0.28163901276E+01  0.13614060476E+02  0.00000000000E+00 0. -1.
</event>
<event>
 7    1  0.2733256E-010  0.4778727E+02  0.7816164E-02  0.1312668E+00
        -11   -1    0    0    0    0  0.00000000000E+00  0.00000000000E+00  0.45593999997E+02  0.45594000000E+02  0.51100000000E-03 0. -1.
         11   -1    0    0    0    0 -0.00000000000E+00 -0.00000000000E+00 -0.45593999997E+02  0.45594000000E+02  0.51100000000E-03 0.  1.
    9900012    2    1    2    0    0 -0.20031702851E+02  0.30290674086E+02 -0.23766130830E+02  0.47787273850E+02  0.20000012793E+02 0.  0.
         12    1    1    2    0    0  0.20031702851E+02 -0.30290674086E+02  0.23766130830E+02  0.43400726150E+02  0.00000000000E+00 0. -1.
         11    1    3    3    0    0  0.19797909500E+01  0.57393489028E+01 -0.31066291884E+01  0.68198858648E+01  0.51100000000E-03 0. -1.
        -11    1    3    3    0    0 -0.12615877285E+02  0.93283312477E+01 -0.16154359007E+02  0.22519801037E+02  0.51100000000E-03 0.  1.
         12    1    3    3    0    0 -0.93956165154E+01  0.15222993936E+02 -0.45051426346E+01  0.18447586949E+02  0.00000000000E+00 0. -1.
</event>
<event>
 7    1  0.2733256E-010  0.4778727E+02  0.7816164E-02  0.1312668E+00
        -11   -1    0    0    0    0  0.00000000000E+00  0.00000000000E+00  0.45593999997E+02  0.45594000000E+02  0.51100000000E-03 0. -1.
         11   -1    0    0    0    0 -0.00000000000E+00 -0.00000000000E+00 -0.45593999997E+02  0.45594000000E+02  0.51100000000E-03 0.  1.
    9900012    2    1    2    0    0  0.25810187542E+02 -0.34427137551E+02  0.56771074159E+01  0.47787272708E+02  0.20000007584E+02 0.  0.
         12    1    1    2    0    0 -0.25810187542E+02  0.34427137551E+02 -0.56771074159E+01  0.43400727292E+02  0.00000000000E+00 0. -1.
         11    1    3    3    0    0  0.13959325484E+01 -0.57116289990E+01 -0.33559137685E+01  0.67700436472E+01  0.51100000000E-03 0. -1.
        -11    1    3    3    0    0  0.55128356650E+01 -0.14897451607E+02  0.74640540675E+01  0.17550997830E+02  0.51100000000E-03 0.  1.
        -12    1    3    3    0    0  0.18901419328E+02 -0.13818056945E+02  0.15689671169E+01  0.23466231231E+02  0.00000000000E+00 0.  1.
</event>
<event>
 7    1  0.2733256E-010  0.4778724E+02  0.7816164E-02  0.1312668E+00
        -11   -1    0    0    0    0  0.00000000000E+00  0.00000000000E+00  0.45593999997E+02  0.45594000000E+02  0.51100000000E-03 0.  1.
         11   -1    0    0    0    0 -0.00000000000E+00 -0.00000000000E+00 -0.45593999997E+02  0.45594000000E+02  0.51100000000E-03 0. -1.
    9900012    2    1    2    0    0 -0.27162245956E+02  0.33494395893E+02  0.48952604857E+01  0.47787242670E+02  0.19999870629E+02 0.  0.
         12    1    1    2    0    0  0.27162245956E+02 -0.33494395893E+02 -0.48952604857E+01  0.43400757330E+02  0.00000000000E+00 0. -1.
         11    1    3    3    0    0 -0.40051289437E+01 -0.11732805807E+01  0.54138514718E+00  0.42084133964E+01  0.51100000000E-03 0.  1.
        -11    1    3    3    0    0  0.55577996730E+00  0.27245885094E+01  0.25219265402E+01  0.37539829052E+01  0.51100000000E-03 0. -1.
        -12    1    3    3    0    0 -0.23712896979E+02  0.31943087964E+02  0.18319487983E+01  0.39824846368E+02  0.00000000000E+00 0.  1.
</event>
<event>
 7    1  0.2733256E-010  0.4778727E+02  0.7816164E-02  0.1312668E+00
        -11   -1    0    0    0    0  0.00000000000E+00  0.00000000000E+00  0.45593999997E+02  0.45594000000E+02  0.51100000000E-03 0.  1.
         11   -1    0    0    0    0 -0.00000000000E+00 -0.00000000000E+00 -0.45593999997E+02  0.45594000000E+02  0.51100000000E-03 0. -1.
    9900012    2    1    2    0    0 -0.19620289622E+02  0.29020687906E+02  0.25621615532E+02  0.47787271045E+02  0.20000000002E+02 0.  0.
         12    1    1    2    0    0  0.19620289622E+02 -0.29020687906E+02 -0.25621615532E+02  0.43400728955E+02  0.00000000000E+00 0. -1.
         11    1    3    3    0    0  0.13006835500E-01 -0.54876829281E+00 -0.14020335637E+01  0.15056607160E+01  0.51100000000E-03 0. -1.
        -11    1    3    3    0    0 -0.25860320530E+01  0.13814701157E+02  0.73889714338E+01  0.15878615460E+02  0.51100000000E-03 0.  1.
        -12    1    3    3    0    0 -0.17047264404E+02  0.15754755042E+02  0.19634677662E+02  0.30402994869E+02  0.00000000000E+00 0.  1.
</event>
<event>
 7    1  0.2733256E-010  0.4778727E+02  0.7816164E-02  0.1312668E+00
        -11   -1    0    0    0    0  0.00000000000E+00  0.00000000000E+00  0.45593999997E+02  0.45594000000E+02  0.51100000000E-03 0.  1.
         11   -1    0    0    0    0 -0.00000000000E+00 -0.00000000000E+00 -0.45593999997E+02  0.45594000000E+02  0.51100000000E-03 0. -1.
    9900012    2    1    2    0    0 -0.88570939232E+01  0.29951636068E+02  0.30134277516E+02  0.47787270774E+02  0.19999998767E+02 0.  0.
         12    1    1    2    0    0  0.88570939232E+01 -0.29951636068E+02 -0.30134277516E+02  0.43400729226E+02  0.00000000000E+00 0. -1.
         11    1    3    3    0    0 -0.39290505230E+01  0.75430772124E+00  0.85132622929E+01  0.94064899554E+01  0.51100000000E-03 0. -1.
        -11    1    3    3    0    0  0.33090803040E+01  0.88335222550E+01  0.90456215929E+01  0.13069215667E+02  0.51100000000E-03 0.  1.
         12    1    3    3    0    0 -0.82371237041E+01  0.20363806092E+02  0.12575393630E+02  0.25311565152E+02  0.00000000000E+00 0. -1.
</event>
<event>
 7    1  0.2733256E-010  0.4778728E+02  0.7816164E-02  0.1312668E+00
        -11   -1    0    0    0    0  0.00000000000E+00  0.00000000000E+00  0.45593999997E+02  0.45594000000E+02  0.51100000000E-03 0. -1.
         11   -1    0    0    0    0 -0.00000000000E+00 -0.00000000000E+00 -0.45593999997E+02  0.45594000000E+02  0.51100000000E-03 0.  1.
    9900012    2    1    2    0    0 -0.12490644160E+02  0.30350037999E+02 -0.28398619422E+02  0.47787279002E+02  0.20000036282E+02 0.  0.
         12    1    1    2    0    0  0.12490644160E+02 -0.30350037999E+02  0.28398619422E+02  0.43400720998E+02  0.00000000000E+00 0. -1.
         11    1    3    3    0    0 -0.17537887083E+01 -0.27949754484E+00 -0.15013272110E+01  0.23254843294E+01  0.51100000000E-03 0. -1.
        -11    1    3    3    0    0 -0.97503707285E+00  0.19760994729E+02 -0.74556967712E+01  0.21143202799E+02  0.51100000000E-03 0.  1.
        -12    1    3    3    0    0 -0.97618183786E+01  0.10868540815E+02 -0.19441595440E+02  0.24318591874E+02  0.00000000000E+00 0.  1.
</event>
<event>
 7    1  0.2733256E-010  0.4778727E+02  0.7816164E-02  0.1312668E+00
        -11   -1    0    0    0    0  0.00000000000E+00  0.00000000000E+00  0.45593999997E+02  0.45594000000E+02  0.51100000000E-03 0. -1.
         11   -1    0    0    0    0 -0.00000000000E+00 -0.00000000000E+00 -0.45593999997E+02  0.45594000000E+02  0.51100000000E-03 0.  1.
    9900012    2    1    2    0    0  0.27675214929E+02 -0.26284512755E+02 -0.20659865763E+02  0.47787272063E+02  0.20000004643E+02 0.  0.
         12    1    1    2    0    0 -0.27675214929E+02  0.26284512755E+02  0.20659865763E+02  0.43400727937E+02  0.00000000000E+00 0. -1.
         11    1    3    3    0    0  0.61920388124E+01 -0.91385194575E+01 -0.12559853237E+02  0.16721357484E+02  0.51100000000E-03 0. -1.
        -11    1    3    3    0    0  0.11161839780E+02 -0.42024261253E+01 -0.82642481066E+01  0.14510163667E+02  0.51100000000E-03 0.  1.
        -12    1    3    3    0    0  0.10321336337E+02 -0.12943567172E+02  0.16423558071E+00  0.16555750911E+02  0.00000000000E+00 0.  1.
</event>
<event>
 7    1  0.2733256E-010  0.4778727E+02  0.7816164E-02  0.1312668E+00
        -11   -1    0    0    0    0  0.00000000000E+00  0.00000000000E+00  0.45593999997E+02  0.45594000000E+02  0.51100000000E-03 0. -1.
         11   -1    0    0    0    0 -0.00000000000E+00 -0.00000000000E+00 -0.45593999997E+02  0.45594000000E+02  0.51100000000E-03 0.  1.
    9900012    2    1    2    0    0 -0.43028557703E+02 -0.24553783836E+01  0.51125131199E+01  0.47787268999E+02  0.19999990674E+02 0.  0.
         12    1    1    2    0    0  0.43028557703E+02  0.24553783836E+01 -0.51125131199E+01  0.43400731001E+02  0.00000000000E+00 0. -1.
         11    1    3    3    0    0 -0.14499561960E+02 -0.44217514824E+00 -0.29692764278E+01  0.14807073265E+02  0.51100000000E-03 0.  1.
        -11    1    3    3    0    0 -0.23075617153E+02  0.31325205707E+01  0.20872954626E+01  0.23380624344E+02  0.51100000000E-03 0. -1.
        -12    1    3    3    0    0 -0.54533785900E+01 -0.51457238061E+01  0.59944940852E+01  0.95995713900E+01  0.00000000000E+00 0.  1.
</event>
<event>
 7    1  0.2733256E-010  0.4778727E+02  0.7816164E-02  0.1312668E+00
        -11   -1    0    0    0    0  0.00000000000E+00  0.00000000000E+00  0.45593999997E+02  0.45594000000E+02  0.51100000000E-03 0. -1.
         11   -1    0    0    0    0 -0.00000000000E+00 -0.00000000000E+00 -0.45593999997E+02  0.45594000000E+02  0.51100000000E-03 0.  1.
    9900012    2    1    2    0    0  0.10528293082E+02 -0.42102682907E+02 -0.37737823924E+00  0.47787271003E+02  0.19999999810E+02 0.  0.
         12    1    1    2    0    0 -0.10528293082E+02  0.42102682907E+02  0.37737823924E+00  0.43400728997E+02  0.00000000000E+00 0. -1.
         11    1    3    3    0    0  0.14415694088E+02 -0.26699289122E+02 -0.35290252445E+00  0.30344502239E+02  0.51100000000E-03 0. -1.
        -11    1    3    3    0    0 -0.19005740928E+00 -0.12984811166E+02 -0.52214978201E+00  0.12996695098E+02  0.51100000000E-03 0.  1.
         12    1    3    3    0    0 -0.36973435974E+01 -0.24185826193E+01  0.49767406722E+00  0.44460736656E+01  0.00000000000E+00 0. -1.
</event>
<event>
 7    1  0.2733256E-010  0.4778727E+02  0.7816164E-02  0.1312668E+00
        -11   -1    0    0    0    0  0.00000000000E+00  0.00000000000E+00  0.45593999997E+02  0.45594000000E+02  0.51100000000E-03 0. -1.
         11   -1    0    0    0    0 -0.00000000000E+00 -0.00000000000E+00 -0.45593999997E+02  0.45594000000E+02  0.51100000000E-03 0.  1.
    9900012    2    1    2    0    0  0.32834385581E+02  0.13163665618E+02 -0.25144471897E+02  0.47787269177E+02  0.19999991486E+02 0.  0.
         12    1    1    2    0    0 -0.32834385581E+02 -0.13163665618E+02  0.25144471897E+02  0.43400730823E+02  0.00000000000E+00 0. -1.
         11    1    3    3    0    0  0.11204344595E+02  0.10093719266E+02 -0.96122752263E+01  0.17883409678E+02  0.51100000000E-03 0. -1.
        -11    1    3    3    0    0  0.73115473821E+01  0.35023223948E+01 -0.13053225635E+02  0.15365926168E+02  0.51100000000E-03 0.  1.
         12    1    3    3    0    0  0.14318493604E+02 -0.43237604253E+00 -0.24789710360E+01  0.14537933331E+02  0.00000000000E+00 0. -1.
</event>
<event>
 7    1  0.2733256E-010  0.4778727E+02  0.7816164E-02  0.1312668E+00
        -11   -1    0    0    0    0  0.00000000000E+00  0.00000000000E+00  0.45593999997E+02  0.45594000000E+02  0.51100000000E-03 0.  1.
         11   -1    0    0    0    0 -0.00000000000E+00 -0.00000000000E+00 -0.45593999997E+02  0.45594000000E+02  0.51100000000E-03 0. -1.
    9900012    2    1    2    0    0  0.32794150696E+02  0.28262124630E+02  0.30690876579E+01  0.47787270657E+02  0.19999998233E+02 0.  0.
         12    1    1    2    0    0 -0.32794150696E+02 -0.28262124630E+02 -0.30690876579E+01  0.43400729343E+02  0.00000000000E+00 0. -1.
         11    1    3    3    0    0  0.16578787714E+02  0.41485645417E+01  0.15201950050E+01  0.17157441037E+02  0.51100000000E-03 0. -1.
        -11    1    3    3    0    0  0.86668253308E+01  0.53188964458E+01 -0.99251802473E+00  0.10217123519E+02  0.51100000000E-03 0.  1.
         12    1    3    3    0    0  0.75485376508E+01  0.18794663643E+02  0.25414106776E+01  0.20412706101E+02  0.00000000000E+00 0. -1.
</event>
<event>
 7    1  0.2733256E-010  0.4778727E+02  0.7816164E-02  0.1312668E+00
        -11   -1    0    0    0    0  0.00000000000E+00  0.00000000000E+00  0.45593999997E+02  0.45594000000E+02  0.51100000000E-03 0.  1.
         11   -1    0    0    0    0 -0.00000000000E+00 -0.00000000000E+00 -0.45593999997E+02  0.45594000000E+02  0.51100000000E-03 0. -1.
    9900012    2    1    2    0    0 -0.31751445474E+02  0.43378220989E+01  0.29268619142E+02  0.47787273546E+02  0.20000011405E+02 0.  0.
         12    1    1    2    0    0  0.31751445474E+02 -0.43378220989E+01 -0.29268619142E+02  0.43400726454E+02  0.00000000000E+00 0. -1.
         11    1    3    3    0    0 -0.13128738644E+01  0.44886877043E+01  0.57867956411E+01  0.74403601488E+01  0.51100000000E-03 0. -1.
        -11    1    3    3    0    0 -0.12865792199E+02  0.42473042125E+01  0.15398158922E+02  0.20510277922E+02  0.51100000000E-03 0.  1.
         12    1    3    3    0    0 -0.17572779410E+02 -0.43981698179E+01  0.80836645791E+01  0.19836635475E+02  0.00000000000E+00 0. -1.
</event>
<event>
 7    1  0.2733256E-010  0.4778726E+02  0.7816164E-02  0.1312668E+00
        -11   -1    0    0    0    0  0.00000000000E+00  0.00000000000E+00  0.45593999997E+02  0.45594000000E+02  0.51100000000E-03 0.  1.
         11   -1    0    0    0    0 -0.00000000000E+00 -0.00000000000E+00 -0.45593999997E+02  0.45594000000E+02  0.51100000000E-03 0. -1.
    9900012    2    1    2    0    0 -0.26085349086E+02 -0.34536474853E+02  0.32265081204E+01  0.47787263983E+02  0.19999967802E+02 0.  0.
         12    1    1    2    0    0  0.26085349086E+02  0.34536474853E+02 -0.32265081204E+01  0.43400736017E+02  0.00000000000E+00 0. -1.
         11    1    3    3    0    0 -0.47581161123E+00 -0.20239354597E+01  0.78299860151E+00  0.22216657051E+01  0.51100000000E-03 0. -1.
        -11    1    3    3    0    0 -0.16783797633E+02 -0.11476250174E+02  0.83826350762E+01  0.21992470350E+02  0.51100000000E-03 0.  1.
         12    1    3    3    0    0 -0.88257398423E+01 -0.21036289219E+02 -0.59391255574E+01  0.23573127927E+02  0.00000000000E+00 0. -1.
</event>
<event>
 7    1  0.2733256E-010  0.4778727E+02  0.7816164E-02  0.1312668E+00
        -11   -1    0    0    0    0  0.00000000000E+00  0.00000000000E+00  0.45593999997E+02  0.45594000000E+02  0.51100000000E-03 0. -1.
         11   -1    0    0    0    0 -0.00000000000E+00 -0.00000000000E+00 -0.45593999997E+02  0.45594000000E+02  0.51100000000E-03 0.  1.
    9900012    2    1    2    0    0  0.30458653054E+02  0.10031899881E+02 -0.29244736981E+02  0.47787271870E+02  0.20000003763E+02 0.  0.
         12    1    1    2    0    0 -0.30458653054E+02 -0.10031899881E+02  0.29244736981E+02  0.43400728130E+02  0.00000000000E+00 0. -1.
         11    1    3    3    0    0  0.10724308988E+02 -0.20825140520E+01 -0.58252709892E+01  0.12380688608E+02  0.51100000000E-03 0. -1.
        -11    1    3    3    0    0 -0.28278041510E+00  0.38496873616E+00 -0.69221011200E+01  0.69385625217E+01  0.51100000000E-03 0.  1.
        -12    1    3    3    0    0  0.20017124482E+02  0.11729445197E+02 -0.16497364872E+02  0.28468020740E+02  0.00000000000E+00 0.  1.
</event>
<event>
 7    1  0.2733256E-010  0.4778727E+02  0.7816164E-02  0.1312668E+00
        -11   -1    0    0    0    0  0.00000000000E+00  0.00000000000E+00  0.45593999997E+02  0.45594000000E+02  0.51100000000E-03 0. -1.
         11   -1    0    0    0    0 -0.00000000000E+00 -0.00000000000E+00 -0.45593999997E+02  0.45594000000E+02  0.51100000000E-03 0.  1.
    9900012    2    1    2    0    0 -0.66831222181E+01 -0.42864364557E+02 -0.12671435496E+01  0.47787268160E+02  0.19999986850E+02 0.  0.
         12    1    1    2    0    0  0.66831222181E+01  0.42864364557E+02  0.12671435496E+01  0.43400731840E+02  0.00000000000E+00 0. -1.
         11    1    3    3    0    0 -0.22399339148E+01  0.15871268648E+01  0.54071908041E+00  0.27979730186E+01  0.51100000000E-03 0. -1.
        -11    1    3    3    0    0 -0.20157811455E+01 -0.64214426156E+01  0.87746583491E+00  0.67873592393E+01  0.51100000000E-03 0.  1.
         12    1    3    3    0    0 -0.24274071578E+01 -0.38030048806E+02 -0.26853284649E+01  0.38201935902E+02  0.00000000000E+00 0. -1.
</event>
<event>
 7    1  0.2733256E-010  0.4778727E+02  0.7816164E-02  0.1312668E+00
        -11   -1    0    0    0    0  0.00000000000E+00  0.00000000000E+00  0.45593999997E+02  0.45594000000E+02  0.51100000000E-03 0.  1.
         11   -1    0    0    0    0 -0.00000000000E+00 -0.00000000000E+00 -0.45593999997E+02  0.45594000000E+02  0.51100000000E-03 0. -1.
    9900012    2    1    2    0    0  0.15679028570E+02 -0.88033213122E+01  0.39500544037E+02  0.47787269796E+02  0.19999994310E+02 0.  0.
         12    1    1    2    0    0 -0.15679028570E+02  0.88033213122E+01 -0.39500544037E+02  0.43400730204E+02  0.00000000000E+00 0. -1.
         11    1    3    3    0    0  0.81518449812E+01 -0.82188273935E+01  0.12766792016E+02  0.17233475533E+02  0.51100000000E-03 0. -1.
        -11    1    3    3    0    0  0.96810881370E+01 -0.41753310506E+01  0.17814826172E+02  0.20700842705E+02  0.51100000000E-03 0.  1.
         12    1    3    3    0    0 -0.21539045482E+01  0.35908371319E+01  0.89189258490E+01  0.98529515583E+01  0.00000000000E+00 0. -1.
</event>
<event>
 7    1  0.2733256E-010  0.4778727E+02  0.7816164E-02  0.1312668E+00
        -11   -1    0    0    0    0  0.00000000000E+00  0.00000000000E+00  0.45593999997E+02  0.45594000000E+02  0.51100000000E-03 0.  1.
         11   -1    0    0    0    0 -0.00000000000E+00 -0.00000000000E+00 -0.45593999997E+02  0.45594000000E+02  0.51100000000E-03 0. -1.
    9900012    2    1    2    0    0 -0.25909574013E+02 -0.13373268891E+02  0.32147677297E+02  0.47787268417E+02  0.19999988020E+02 0.  0.
         12    1    1    2    0    0  0.25909574013E+02  0.13373268891E+02 -0.32147677297E+02  0.43400731583E+02  0.00000000000E+00 0. -1.
         11    1    3    3    0    0 -0.28389090742E+01  0.30592018889E+00  0.12733200776E+01  0.31263934772E+01  0.51100000000E-03 0. -1.
        -11    1    3    3    0    0 -0.72618152791E+00 -0.41253723638E+01  0.15144219225E+02  0.15712842294E+02  0.51100000000E-03 0.  1.
         12    1    3    3    0    0 -0.22344483411E+02 -0.95538167163E+01  0.15730137994E+02  0.28948032646E+02  0.00000000000E+00 0. -1.
</event>
<event>
 7    1  0.2733256E-010  0.4778723E+02  0.7816164E-02  0.1312668E+00
        -11   -1    0    0    0    0  0.00000000000E+00  0.00000000000E+00  0.45593999997E+02  0.45594000000E+02  0.51100000000E-03 0.  1.
         11   -1    0    0    0    0 -0.00000000000E+00 -0.00000000000E+00 -0.45593999997E+02  0.45594000000E+02  0.51100000000E-03 0. -1.
    9900012    2    1    2    0    0 -0.38173435971E+02  0.41023940332E+01  0.20238221807E+02  0.47787234194E+02  0.19999831983E+02 0.  0.
         12    1    1    2    0    0  0.38173435971E+02 -0.41023940332E+01 -0.20238221807E+02  0.43400765806E+02  0.00000000000E+00 0. -1.
         11    1    3    3    0    0 -0.86826927394E+01 -0.53153312338E+00 -0.63367635188E+00  0.87219967122E+01  0.51100000000E-03 0. -1.
        -11    1    3    3    0    0 -0.36857581879E+01  0.40424797342E+01  0.92747107042E+01  0.10767855624E+02  0.51100000000E-03 0.  1.
        -12    1    3    3    0    0 -0.25804985044E+02  0.59144742240E+00  0.11597187454E+02  0.28297381858E+02  0.00000000000E+00 0.  1.
</event>
<event>
 7    1  0.2733256E-010  0.4778727E+02  0.7816164E-02  0.1312668E+00
        -11   -1    0    0    0    0  0.00000000000E+00  0.00000000000E+00  0.45593999997E+02  0.45594000000E+02  0.51100000000E-03 0.  1.
         11   -1    0    0    0    0 -0.00000000000E+00 -0.00000000000E+00 -0.45593999997E+02  0.45594000000E+02  0.51100000000E-03 0. -1.
    9900012    2    1    2    0    0  0.24303283226E+02 -0.20999551237E+02  0.29188915725E+02  0.47787268107E+02  0.19999986605E+02 0.  0.
         12    1    1    2    0    0 -0.24303283226E+02  0.20999551237E+02 -0.29188915725E+02  0.43400731893E+02  0.00000000000E+00 0. -1.
         11    1    3    3    0    0  0.66346100043E+01 -0.80053204379E+01  0.13643467064E+00  0.10398164256E+02  0.51100000000E-03 0. -1.
        -11    1    3    3    0    0  0.24964344104E+01  0.11283413106E+01  0.43685404938E+01  0.51564993150E+01  0.51100000000E-03 0.  1.
        -12    1    3    3    0    0  0.15172238811E+02 -0.14122572109E+02  0.24683940560E+02  0.32232604535E+02  0.00000000000E+00 0.  1.
</event>
<event>
 7    1  0.2733256E-010  0.4778727E+02  0.7816164E-02  0.1312668E+00
        -11   -1    0    0    0    0  0.00000000000E+00  0.00000000000E+00  0.45593999997E+02  0.45594000000E+02  0.51100000000E-03 0.  1.
         11   -1    0    0    0    0 -0.00000000000E+00 -0.00000000000E+00 -0.45593999997E+02  0.45594000000E+02  0.51100000000E-03 0. -1.
    9900012    2    1    2    0    0  0.20955284707E+02 -0.53280049495E+01  0.37631256519E+02  0.47787273496E+02  0.20000011178E+02 0.  0.
         12    1    1    2    0    0 -0.20955284707E+02  0.53280049495E+01 -0.37631256519E+02  0.43400726504E+02  0.00000000000E+00 0. -1.
         11    1    3    3    0    0  0.17053464599E+02 -0.87968421935E+01  0.21011357584E+02  0.28454915835E+02  0.51100000000E-03 0. -1.
        -11    1    3    3    0    0  0.35692609480E+01 -0.80852022813E+00  0.13605179190E+02  0.14088798022E+02  0.51100000000E-03 0.  1.
        -12    1    3    3    0    0  0.33255915960E+00  0.42773574720E+01  0.30147197458E+01  0.52435596386E+01  0.00000000000E+00 0.  1.
</event>
<event>
 7    1  0.2733256E-010  0.4778727E+02  0.7816164E-02  0.1312668E+00
        -11   -1    0    0    0    0  0.00000000000E+00  0.00000000000E+00  0.45593999997E+02  0.45594000000E+02  0.51100000000E-03 0.  1.
         11   -1    0    0    0    0 -0.00000000000E+00 -0.00000000000E+00 -0.45593999997E+02  0.45594000000E+02  0.51100000000E-03 0. -1.
    9900012    2    1    2    0    0  0.11760697341E+02  0.41657001493E+01  0.41568692688E+02  0.47787271072E+02  0.20000000125E+02 0.  0.
         12    1    1    2    0    0 -0.11760697341E+02 -0.41657001493E+01 -0.41568692688E+02  0.43400728928E+02  0.00000000000E+00 0. -1.
         11    1    3    3    0    0 -0.84024258466E+00  0.33250284918E+01  0.81401976906E+01  0.88331557653E+01  0.51100000000E-03 0. -1.
        -11    1    3    3    0    0  0.94659409294E+01  0.31046733521E+01  0.33637261737E+02  0.35081453957E+02  0.51100000000E-03 0.  1.
        -12    1    3    3    0    0  0.31349989959E+01 -0.22640016946E+01 -0.20876673897E+00  0.38726613496E+01  0.00000000000E+00 0.  1.
</event>
<event>
 7    1  0.2733256E-010  0.4778727E+02  0.7816164E-02  0.1312668E+00
        -11   -1    0    0    0    0  0.00000000000E+00  0.00000000000E+00  0.45593999997E+02  0.45594000000E+02  0.51100000000E-03 0.  1.
         11   -1    0    0    0    0 -0.00000000000E+00 -0.00000000000E+00 -0.45593999997E+02  0.45594000000E+02  0.51100000000E-03 0. -1.
    9900012    2    1    2    0    0 -0.10214495414E+02  0.68474939026E+01  0.41622097402E+02  0.47787273261E+02  0.20000010108E+02 0.  0.
         12    1    1    2    0    0  0.10214495414E+02 -0.68474939026E+01 -0.41622097402E+02  0.43400726739E+02  0.00000000000E+00 0. -1.
         11    1    3    3    0    0 -0.50368243568E+01 -0.19774061539E+01  0.43650893375E+01  0.69522471104E+01  0.51100000000E-03 0. -1.
        -11    1    3    3    0    0 -0.10401796842E+01  0.94224127040E+00 -0.89071780926E+00  0.16622788166E+01  0.51100000000E-03 0.  1.
        -12    1    3    3    0    0 -0.41374913728E+01  0.78826587861E+01  0.38147725874E+02  0.39172747334E+02  0.00000000000E+00 0.  1.
</event>
<event>
 7    1  0.2733256E-010  0.4778727E+02  0.7816164E-02  0.1312668E+00
        -11   -1    0    0    0    0  0.00000000000E+00  0.00000000000E+00  0.45593999997E+02  0.45594000000E+02  0.51100000000E-03 0. -1.
         11   -1    0    0    0    0 -0.00000000000E+00 -0.00000000000E+00 -0.45593999997E+02  0.45594000000E+02  0.51100000000E-03 0.  1.
    9900012    2    1    2    0    0 -0.93862142356E+01 -0.11864510619E+02 -0.40678686517E+02  0.47787272280E+02  0.20000005633E+02 0.  0.
         12    1    1    2    0    0  0.93862142356E+01  0.11864510619E+02  0.40678686517E+02  0.43400727720E+02  0.00000000000E+00 0. -1.
         11    1    3    3    0    0  0.15782322480E+01 -0.60578671688E+01 -0.52697651528E+01  0.81828477128E+01  0.51100000000E-03 0. -1.
        -11    1    3    3    0    0 -0.31296896813E+01  0.13054892854E+01 -0.89826826205E+00  0.35080116744E+01  0.51100000000E-03 0.  1.
        -12    1    3    3    0    0 -0.78347568023E+01 -0.71121327358E+01 -0.34510653102E+02  0.36096412893E+02  0.00000000000E+00 0.  1.
</event>
<event>
 7    1  0.2733256E-010  0.4778727E+02  0.7816164E-02  0.1312668E+00
        -11   -1    0    0    0    0  0.00000000000E+00  0.00000000000E+00  0.45593999997E+02  0.45594000000E+02  0.51100000000E-03 0. -1.
         11   -1    0    0    0    0 -0.00000000000E+00 -0.00000000000E+00 -0.45593999997E+02  0.45594000000E+02  0.51100000000E-03 0.  1.
    9900012    2    1    2    0    0 -0.35271193617E+02 -0.68916514038E+01  0.24332518708E+02  0.47787269304E+02  0.19999992065E+02 0.  0.
         12    1    1    2    0    0  0.35271193617E+02  0.68916514038E+01 -0.24332518708E+02  0.43400730696E+02  0.00000000000E+00 0. -1.
         11    1    3    3    0    0 -0.14697736971E+02 -0.13748529129E+01  0.19291557341E+02  0.24291518633E+02  0.51100000000E-03 0. -1.
        -11    1    3    3    0    0 -0.20267717371E+01  0.26051124444E-01  0.35414935715E+01  0.40805219413E+01  0.51100000000E-03 0.  1.
        -12    1    3    3    0    0 -0.18546684909E+02 -0.55428496153E+01  0.14994677963E+01  0.19415228730E+02  0.00000000000E+00 0.  1.
</event>
<event>
 7    1  0.2733256E-010  0.4778727E+02  0.7816164E-02  0.1312668E+00
        -11   -1    0    0    0    0  0.00000000000E+00  0.00000000000E+00  0.45593999997E+02  0.45594000000E+02  0.51100000000E-03 0. -1.
         11   -1    0    0    0    0 -0.00000000000E+00 -0.00000000000E+00 -0.45593999997E+02  0.45594000000E+02  0.51100000000E-03 0.  1.
    9900012    2    1    2    0    0  0.33373434323E+02 -0.11130009793E+01 -0.27723607889E+02  0.47787270466E+02  0.19999997363E+02 0.  0.
         12    1    1    2    0    0 -0.33373434323E+02  0.11130009793E+01  0.27723607889E+02  0.43400729534E+02  0.00000000000E+00 0. -1.
         11    1    3    3    0    0  0.30920204085E+01  0.29638435297E+01 -0.20827957564E+01  0.47626670153E+01  0.51100000000E-03 0. -1.
        -11    1    3    3    0    0  0.28311792600E+02 -0.16157706753E+01 -0.15316605637E+02  0.32229904182E+02  0.51100000000E-03 0.  1.
         12    1    3    3    0    0  0.19696213149E+01 -0.24610738337E+01 -0.10324206495E+02  0.10794699268E+02  0.00000000000E+00 0. -1.
</event>
<event>
 7    1  0.2733256E-010  0.4778727E+02  0.7816164E-02  0.1312668E+00
        -11   -1    0    0    0    0  0.00000000000E+00  0.00000000000E+00  0.45593999997E+02  0.45594000000E+02  0.51100000000E-03 0.  1.
         11   -1    0    0    0    0 -0.00000000000E+00 -0.00000000000E+00 -0.45593999997E+02  0.45594000000E+02  0.51100000000E-03 0. -1.
    9900012    2    1    2    0    0  0.60917034685E+01 -0.16388199507E+02  0.39723312417E+02  0.47787268628E+02  0.19999988983E+02 0.  0.
         12    1    1    2    0    0 -0.60917034685E+01  0.16388199507E+02 -0.39723312417E+02  0.43400731372E+02  0.00000000000E+00 0. -1.
         11    1    3    3    0    0  0.64364458515E+01 -0.31187985272E+00  0.24515173625E+01  0.68945661126E+01  0.51100000000E-03 0. -1.
        -11    1    3    3    0    0  0.37919279476E+00 -0.27467926230E+01  0.11951848108E+02  0.12269284020E+02  0.51100000000E-03 0.  1.
         12    1    3    3    0    0 -0.72393517782E+00 -0.13329527031E+02  0.25319946946E+02  0.28623418496E+02  0.00000000000E+00 0. -1.
</event>
<event>
 7    1  0.2733256E-010  0.4778727E+02  0.7816164E-02  0.1312668E+00
        -11   -1    0    0    0    0  0.00000000000E+00  0.00000000000E+00  0.45593999997E+02  0.45594000000E+02  0.51100000000E-03 0. -1.
         11   -1    0    0    0    0 -0.00000000000E+00 -0.00000000000E+00 -0.45593999997E+02  0.45594000000E+02  0.51100000000E-03 0.  1.
    9900012    2    1    2    0    0 -0.48205450871E+01 -0.13919462534E+02 -0.40824431596E+02  0.47787270660E+02  0.19999998246E+02 0.  0.
         12    1    1    2    0    0  0.48205450871E+01  0.13919462534E+02  0.40824431596E+02  0.43400729340E+02  0.00000000000E+00 0. -1.
         11    1    3    3    0    0  0.14282767902E+01 -0.12672687064E+02 -0.19018128392E+02  0.22898169791E+02  0.51100000000E-03 0. -1.
        -11    1    3    3    0    0 -0.44056890643E+01 -0.40468481130E+01 -0.20390864477E+02  0.21250280708E+02  0.51100000000E-03 0.  1.
         12    1    3    3    0    0 -0.18431328130E+01  0.28000726430E+01 -0.14154387269E+01  0.36388201607E+01  0.00000000000E+00 0. -1.
</event>
<event>
 7    1  0.2733256E-010  0.4778727E+02  0.7816164E-02  0.1312668E+00
        -11   -1    0    0    0    0  0.00000000000E+00  0.00000000000E+00  0.45593999997E+02  0.45594000000E+02  0.51100000000E-03 0. -1.
         11   -1    0    0    0    0 -0.00000000000E+00 -0.00000000000E+00 -0.45593999997E+02  0.45594000000E+02  0.51100000000E-03 0.  1.
    9900012    2    1    2    0    0  0.16573149579E+02 -0.40110596479E+02  0.30663752451E+00  0.47787271165E+02  0.20000000548E+02 0.  0.
         12    1    1    2    0    0 -0.16573149579E+02  0.40110596479E+02 -0.30663752451E+00  0.43400728835E+02  0.00000000000E+00 0. -1.
         11    1    3    3    0    0  0.85434819348E+01 -0.58908949632E+01  0.38443144223E+01  0.11066728544E+02  0.51100000000E-03 0. -1.
        -11    1    3    3    0    0  0.40359541716E+01 -0.15516227395E+02 -0.66257988724E+01  0.17347721741E+02  0.51100000000E-03 0.  1.
        -12    1    3    3    0    0  0.39937134728E+01 -0.18703474121E+02  0.30881219746E+01  0.19372820879E+02  0.00000000000E+00 0.  1.
</event>
<event>
 7    1  0.2733256E-010  0.4778727E+02  0.7816164E-02  0.1312668E+00
        -11   -1    0    0    0    0  0.00000000000E+00  0.00000000000E+00  0.45593999997E+02  0.45594000000E+02  0.51100000000E-03 0. -1.
         11   -1    0    0    0    0 -0.00000000000E+00 -0.00000000000E+00 -0.45593999997E+02  0.45594000000E+02  0.51100000000E-03 0.  1.
    9900012    2    1    2    0    0 -0.21982803640E+01 -0.47931192698E+01 -0.43079191297E+02  0.47787272452E+02  0.20000006418E+02 0.  0.
         12    1    1    2    0    0  0.21982803640E+01  0.47931192698E+01  0.43079191297E+02  0.43400727548E+02  0.00000000000E+00 0. -1.
         11    1    3    3    0    0 -0.32253506096E+01 -0.43304942624E+01 -0.85251957402E+01  0.10091334391E+02  0.51100000000E-03 0. -1.
        -11    1    3    3    0    0 -0.34212481729E+01 -0.60979851390E+01 -0.23473996421E+02  0.24493241313E+02  0.51100000000E-03 0.  1.
         12    1    3    3    0    0  0.44483184185E+01  0.56353601316E+01 -0.11079999136E+02  0.13202696748E+02  0.00000000000E+00 0. -1.
</event>
<event>
 7    1  0.2733256E-010  0.4778727E+02  0.7816164E-02  0.1312668E+00
        -11   -1    0    0    0    0  0.00000000000E+00  0.00000000000E+00  0.45593999997E+02  0.45594000000E+02  0.51100000000E-03 0. -1.
         11   -1    0    0    0    0 -0.00000000000E+00 -0.00000000000E+00 -0.45593999997E+02  0.45594000000E+02  0.51100000000E-03 0.  1.
    9900012    2    1    2    0    0 -0.23835566664E+01  0.42879053240E+02  0.62712616944E+01  0.47787271062E+02  0.20000000080E+02 0.  0.
         12    1    1    2    0    0  0.23835566664E+01 -0.42879053240E+02 -0.62712616944E+01  0.43400728938E+02  0.00000000000E+00 0. -1.
         11    1    3    3    0    0  0.39658458381E+01  0.14847025836E+02  0.71576147845E+01  0.16952685895E+02  0.51100000000E-03 0. -1.
        -11    1    3    3    0    0 -0.54617120965E+01  0.19218311278E+02  0.44828998993E+01  0.20476087985E+02  0.51100000000E-03 0.  1.
        -12    1    3    3    0    0 -0.88769040796E+00  0.88137161259E+01 -0.53692529894E+01  0.10358497182E+02  0.00000000000E+00 0.  1.
</event>
<event>
 7    1  0.2733256E-010  0.4778727E+02  0.7816164E-02  0.1312668E+00
        -11   -1    0    0    0    0  0.00000000000E+00  0.00000000000E+00  0.45593999997E+02  0.45594000000E+02  0.51100000000E-03 0.  1.
         11   -1    0    0    0    0 -0.00000000000E+00 -0.00000000000E+00 -0.45593999997E+02  0.45594000000E+02  0.51100000000E-03 0. -1.
    9900012    2    1    2    0    0 -0.10472599448E+02  0.29881608823E+01  0.42012124422E+02  0.47787273703E+02  0.20000012120E+02 0.  0.
         12    1    1    2    0    0  0.10472599448E+02 -0.29881608823E+01 -0.42012124422E+02  0.43400726297E+02  0.00000000000E+00 0. -1.
         11    1    3    3    0    0 -0.53042420197E+01 -0.43669882915E-01  0.71298271563E+00  0.53521243518E+01  0.51100000000E-03 0. -1.
        -11    1    3    3    0    0  0.83731303050E-01 -0.22558751247E+01  0.80165060990E+01  0.83282863667E+01  0.51100000000E-03 0.  1.
        -12    1    3    3    0    0 -0.52520887312E+01  0.52877058899E+01  0.33282635608E+02  0.34106862984E+02  0.00000000000E+00 0.  1.
</event>
<event>
 7    1  0.2733256E-010  0.4778727E+02  0.7816164E-02  0.1312668E+00
        -11   -1    0    0    0    0  0.00000000000E+00  0.00000000000E+00  0.45593999997E+02  0.45594000000E+02  0.51100000000E-03 0.  1.
         11   -1    0    0    0    0 -0.00000000000E+00 -0.00000000000E+00 -0.45593999997E+02  0.45594000000E+02  0.51100000000E-03 0. -1.
    9900012    2    1    2    0    0 -0.26122940077E+02 -0.10977735963E+01  0.34641163572E+02  0.47787270527E+02  0.19999997641E+02 0.  0.
         12    1    1    2    0    0  0.26122940077E+02  0.10977735963E+01 -0.34641163572E+02  0.43400729473E+02  0.00000000000E+00 0. -1.
         11    1    3    3    0    0 -0.35565791905E+01  0.32147915525E+01  0.57449128439E+01  0.74825239130E+01  0.51100000000E-03 0.  1.
        -11    1    3    3    0    0 -0.22250955442E+02 -0.16857762847E+01  0.16824725201E+02  0.27946703529E+02  0.51100000000E-03 0. -1.
         12    1    3    3    0    0 -0.31540544402E+00 -0.26267888642E+01  0.12071525528E+02  0.12358043086E+02  0.00000000000E+00 0. -1.
</event>
<event>
 7    1  0.2733256E-010  0.4778727E+02  0.7816164E-02  0.1312668E+00
        -11   -1    0    0    0    0  0.00000000000E+00  0.00000000000E+00  0.45593999997E+02  0.45594000000E+02  0.51100000000E-03 0.  1.
         11   -1    0    0    0    0 -0.00000000000E+00 -0.00000000000E+00 -0.45593999997E+02  0.45594000000E+02  0.51100000000E-03 0. -1.
    9900012    2    1    2    0    0 -0.11090879956E+02  0.34855669870E+02  0.23360171703E+02  0.47787274635E+02  0.20000016370E+02 0.  0.
         12    1    1    2    0    0  0.11090879956E+02 -0.34855669870E+02 -0.23360171703E+02  0.43400725365E+02  0.00000000000E+00 0. -1.
         11    1    3    3    0    0 -0.35568338839E+01  0.12293142471E+02  0.77198115218E+01  0.14945497960E+02  0.51100000000E-03 0. -1.
        -11    1    3    3    0    0 -0.10928344258E+02  0.22832729329E+02  0.14844854987E+02  0.29345049952E+02  0.51100000000E-03 0.  1.
         12    1    3    3    0    0  0.33942981862E+01 -0.27020193018E+00  0.79550519403E+00  0.34967267227E+01  0.00000000000E+00 0. -1.
</event>
<event>
 7    1  0.2733256E-010  0.4778727E+02  0.7816164E-02  0.1312668E+00
        -11   -1    0    0    0    0  0.00000000000E+00  0.00000000000E+00  0.45593999997E+02  0.45594000000E+02  0.51100000000E-03 0. -1.
         11   -1    0    0    0    0 -0.00000000000E+00 -0.00000000000E+00 -0.45593999997E+02  0.45594000000E+02  0.51100000000E-03 0.  1.
    9900012    2    1    2    0    0  0.24663585888E+02 -0.12619717037E+02 -0.33407684280E+02  0.47787273095E+02  0.20000009349E+02 0.  0.
         12    1    1    2    0    0 -0.24663585888E+02  0.12619717037E+02  0.33407684280E+02  0.43400726905E+02  0.00000000000E+00 0. -1.
         11    1    3    3    0    0 -0.55302184982E+00  0.13968875730E+01 -0.31254988113E+00  0.15345408914E+01  0.51100000000E-03 0. -1.
        -11    1    3    3    0    0  0.80523465464E+01 -0.59531083934E+01 -0.26068013114E+01  0.10347714617E+02  0.51100000000E-03 0.  1.
        -12    1    3    3    0    0  0.17164261191E+02 -0.80634962170E+01 -0.30488333087E+02  0.35905017587E+02  0.00000000000E+00 0.  1.
</event>
<event>
 7    1  0.2733256E-010  0.4778727E+02  0.7816164E-02  0.1312668E+00
        -11   -1    0    0    0    0  0.00000000000E+00  0.00000000000E+00  0.45593999997E+02  0.45594000000E+02  0.51100000000E-03 0. -1.
         11   -1    0    0    0    0 -0.00000000000E+00 -0.00000000000E+00 -0.45593999997E+02  0.45594000000E+02  0.51100000000E-03 0.  1.
    9900012    2    1    2    0    0  0.29445435272E+02 -0.30777539975E+02 -0.83266258393E+01  0.47787270477E+02  0.19999997412E+02 0.  0.
         12    1    1    2    0    0 -0.29445435272E+02  0.30777539975E+02  0.83266258393E+01  0.43400729523E+02  0.00000000000E+00 0. -1.
         11    1    3    3    0    0  0.12475974739E+02 -0.71408821136E+01  0.44715282873E+01  0.15054458095E+02  0.51100000000E-03 0. -1.
        -11    1    3    3    0    0  0.11944067503E+02 -0.19645682616E+02 -0.68691949427E+01  0.23995821165E+02  0.51100000000E-03 0.  1.
        -12    1    3    3    0    0  0.50253930312E+01 -0.39909752450E+01 -0.59289591839E+01  0.87369912171E+01  0.00000000000E+00 0.  1.
</event>
<event>
 7    1  0.2733256E-010  0.4778727E+02  0.7816164E-02  0.1312668E+00
        -11   -1    0    0    0    0  0.00000000000E+00  0.00000000000E+00  0.45593999997E+02  0.45594000000E+02  0.51100000000E-03 0.  1.
         11   -1    0    0    0    0 -0.00000000000E+00 -0.00000000000E+00 -0.45593999997E+02  0.45594000000E+02  0.51100000000E-03 0. -1.
    9900012    2    1    2    0    0 -0.11093031283E+00 -0.14084641939E+02  0.41051601816E+02  0.47787268950E+02  0.19999990449E+02 0.  0.
         12    1    1    2    0    0  0.11093031283E+00  0.14084641939E+02 -0.41051601816E+02  0.43400731050E+02  0.00000000000E+00 0. -1.
         11    1    3    3    0    0 -0.25005273159E+01  0.26859892417E+00  0.10199889684E+02  0.10505357303E+02  0.51100000000E-03 0. -1.
        -11    1    3    3    0    0  0.60477040487E+01 -0.61390759740E+01  0.25268708262E+02  0.26697763868E+02  0.51100000000E-03 0.  1.
         12    1    3    3    0    0 -0.36581070456E+01 -0.82141648892E+01  0.55830038699E+01  0.10584147778E+02  0.00000000000E+00 0. -1.
</event>
<event>
 7    1  0.2733256E-010  0.4778727E+02  0.7816164E-02  0.1312668E+00
        -11   -1    0    0    0    0  0.00000000000E+00  0.00000000000E+00  0.45593999997E+02  0.45594000000E+02  0.51100000000E-03 0.  1.
         11   -1    0    0    0    0 -0.00000000000E+00 -0.00000000000E+00 -0.45593999997E+02  0.45594000000E+02  0.51100000000E-03 0. -1.
    9900012    2    1    2    0    0  0.18785778000E+02 -0.21065605858E+02  0.32969049809E+02  0.47787269009E+02  0.19999990720E+02 0.  0.
         12    1    1    2    0    0 -0.18785778000E+02  0.21065605858E+02 -0.32969049809E+02  0.43400730991E+02  0.00000000000E+00 0. -1.
         11    1    3    3    0    0  0.17516433039E+01  0.90026790291E-01 -0.64661391503E-02  0.17539672629E+01  0.51100000000E-03 0. -1.
        -11    1    3    3    0    0  0.13958468375E+02 -0.24107376103E+02  0.28601046045E+02  0.39925233338E+02  0.51100000000E-03 0.  1.
        -12    1    3    3    0    0  0.30756663213E+01  0.29517434554E+01  0.43744699037E+01  0.61080684087E+01  0.00000000000E+00 0.  1.
</event>
<event>
 7    1  0.2733256E-010  0.4778730E+02  0.7816164E-02  0.1312668E+00
        -11   -1    0    0    0    0  0.00000000000E+00  0.00000000000E+00  0.45593999997E+02  0.45594000000E+02  0.51100000000E-03 0.  1.
         11   -1    0    0    0    0 -0.00000000000E+00 -0.00000000000E+00 -0.45593999997E+02  0.45594000000E+02  0.51100000000E-03 0. -1.
    9900012    2    1    2    0    0  0.11035760166E+02  0.36083487500E+02  0.21443281902E+02  0.47787304022E+02  0.20000150359E+02 0.  0.
         12    1    1    2    0    0 -0.11035760166E+02 -0.36083487500E+02 -0.21443281902E+02  0.43400695978E+02  0.00000000000E+00 0. -1.
         11    1    3    3    0    0  0.95943658358E+00  0.46395370388E+01 -0.15792442227E+01  0.49939798827E+01  0.51100000000E-03 0. -1.
        -11    1    3    3    0    0  0.94839521054E+01  0.11519706609E+02  0.45060641764E+01  0.15586968997E+02  0.51100000000E-03 0.  1.
        -12    1    3    3    0    0  0.59237147666E+00  0.19924243852E+02  0.18516461948E+02  0.27206355142E+02  0.00000000000E+00 0.  1.
</event>
<event>
 7    1  0.2733256E-010  0.4778729E+02  0.7816164E-02  0.1312668E+00
        -11   -1    0    0    0    0  0.00000000000E+00  0.00000000000E+00  0.45593999997E+02  0.45594000000E+02  0.51100000000E-03 0.  1.
         11   -1    0    0    0    0 -0.00000000000E+00 -0.00000000000E+00 -0.45593999997E+02  0.45594000000E+02  0.51100000000E-03 0. -1.
    9900012    2    1    2    0    0  0.50026311879E+01  0.18633590413E+02  0.38876531415E+02  0.47787289115E+02  0.20000082391E+02 0.  0.
         12    1    1    2    0    0 -0.50026311879E+01 -0.18633590413E+02 -0.38876531415E+02  0.43400710885E+02  0.00000000000E+00 0. -1.
         11    1    3    3    0    0  0.63381114551E+00  0.17957785215E+01  0.49414561253E+01  0.52957082591E+01  0.51100000000E-03 0. -1.
        -11    1    3    3    0    0  0.89310308444E+01  0.18457875925E+02  0.29496482444E+02  0.35923515592E+02  0.51100000000E-03 0.  1.
         12    1    3    3    0    0 -0.45622108020E+01 -0.16200640331E+01  0.44385928448E+01  0.65680652643E+01  0.00000000000E+00 0. -1.
</event>
<event>
 7    1  0.2733256E-010  0.4778727E+02  0.7816164E-02  0.1312668E+00
        -11   -1    0    0    0    0  0.00000000000E+00  0.00000000000E+00  0.45593999997E+02  0.45594000000E+02  0.51100000000E-03 0.  1.
         11   -1    0    0    0    0 -0.00000000000E+00 -0.00000000000E+00 -0.45593999997E+02  0.45594000000E+02  0.51100000000E-03 0. -1.
    9900012    2    1    2    0    0  0.39322137970E+02  0.18203288363E+02 -0.24562596549E+01  0.47787268977E+02  0.19999990576E+02 0.  0.
         12    1    1    2    0    0 -0.39322137970E+02 -0.18203288363E+02  0.24562596549E+01  0.43400731023E+02  0.00000000000E+00 0. -1.
         11    1    3    3    0    0 -0.10464323591E+01  0.74241769155E+00  0.21556152031E+01  0.25085617146E+01  0.51100000000E-03 0. -1.
        -11    1    3    3    0    0  0.58912819165E+01  0.48786661920E+01  0.21809689579E+01  0.79539431912E+01  0.51100000000E-03 0.  1.
        -12    1    3    3    0    0  0.34477288413E+02  0.12582204480E+02 -0.67928438160E+01  0.37324764072E+02  0.00000000000E+00 0.  1.
</event>
<event>
 7    1  0.2733256E-010  0.4778726E+02  0.7816164E-02  0.1312668E+00
        -11   -1    0    0    0    0  0.00000000000E+00  0.00000000000E+00  0.45593999997E+02  0.45594000000E+02  0.51100000000E-03 0.  1.
         11   -1    0    0    0    0 -0.00000000000E+00 -0.00000000000E+00 -0.45593999997E+02  0.45594000000E+02  0.51100000000E-03 0. -1.
    9900012    2    1    2    0    0 -0.27101093071E+02  0.33505682948E+02  0.51501494295E+01  0.47787261820E+02  0.19999957941E+02 0.  0.
         12    1    1    2    0    0  0.27101093071E+02 -0.33505682948E+02 -0.51501494295E+01  0.43400738180E+02  0.00000000000E+00 0. -1.
         11    1    3    3    0    0 -0.69640153282E+01  0.39296119839E+01 -0.12900071952E+01  0.80995974381E+01  0.51100000000E-03 0. -1.
        -11    1    3    3    0    0 -0.20200514992E+02  0.16907340336E+02  0.27118235223E+01  0.26481558683E+02  0.51100000000E-03 0.  1.
         12    1    3    3    0    0  0.63437249165E-01  0.12668730628E+02  0.37283331025E+01  0.13206105699E+02  0.00000000000E+00 0. -1.
</event>
<event>
 7    1  0.2733256E-010  0.4778727E+02  0.7816164E-02  0.1312668E+00
        -11   -1    0    0    0    0  0.00000000000E+00  0.00000000000E+00  0.45593999997E+02  0.45594000000E+02  0.51100000000E-03 0.  1.
         11   -1    0    0    0    0 -0.00000000000E+00 -0.00000000000E+00 -0.45593999997E+02  0.45594000000E+02  0.51100000000E-03 0. -1.
    9900012    2    1    2    0    0  0.40137197139E+01 -0.38946928957E+02  0.18725647924E+02  0.47787272918E+02  0.20000008541E+02 0.  0.
         12    1    1    2    0    0 -0.40137197139E+01  0.38946928957E+02 -0.18725647924E+02  0.43400727082E+02  0.00000000000E+00 0. -1.
         11    1    3    3    0    0  0.49243565931E+01 -0.13639065891E+02  0.95198319420E+01  0.17346486869E+02  0.51100000000E-03 0. -1.
        -11    1    3    3    0    0  0.77537326177E+00 -0.13198209284E+02  0.12049361063E+02  0.17888013704E+02  0.51100000000E-03 0.  1.
         12    1    3    3    0    0 -0.16860101410E+01 -0.12109653781E+02 -0.28435450809E+01  0.12552772344E+02  0.00000000000E+00 0. -1.
</event>
<event>
 7    1  0.2733256E-010  0.4778727E+02  0.7816164E-02  0.1312668E+00
        -11   -1    0    0    0    0  0.00000000000E+00  0.00000000000E+00  0.45593999997E+02  0.45594000000E+02  0.51100000000E-03 0. -1.
         11   -1    0    0    0    0 -0.00000000000E+00 -0.00000000000E+00 -0.45593999997E+02  0.45594000000E+02  0.51100000000E-03 0.  1.
    9900012    2    1    2    0    0 -0.38059540016E+01 -0.10880919010E+02 -0.41841889375E+02  0.47787269697E+02  0.19999993854E+02 0.  0.
         12    1    1    2    0    0  0.38059540016E+01  0.10880919010E+02  0.41841889375E+02  0.43400730303E+02  0.00000000000E+00 0. -1.
         11    1    3    3    0    0 -0.59271283326E+01 -0.30618375674E+01 -0.93954874881E+01  0.11523058837E+02  0.51100000000E-03 0. -1.
        -11    1    3    3    0    0  0.13939592897E+00  0.15579705401E+01 -0.22121083772E+02  0.22176317344E+02  0.51100000000E-03 0.  1.
        -12    1    3    3    0    0  0.19817784021E+01 -0.93770519827E+01 -0.10325318115E+02  0.14087893515E+02  0.00000000000E+00 0.  1.
</event>
<event>
 7    1  0.2733256E-010  0.4778728E+02  0.7816164E-02  0.1312668E+00
        -11   -1    0    0    0    0  0.00000000000E+00  0.00000000000E+00  0.45593999997E+02  0.45594000000E+02  0.51100000000E-03 0. -1.
         11   -1    0    0    0    0 -0.00000000000E+00 -0.00000000000E+00 -0.45593999997E+02  0.45594000000E+02  0.51100000000E-03 0.  1.
    9900012    2    1    2    0    0  0.24752826712E+02  0.11997020965E+02 -0.33570699366E+02  0.47787276524E+02  0.20000024985E+02 0.  0.
         12    1    1    2    0    0 -0.24752826712E+02 -0.11997020965E+02  0.33570699366E+02  0.43400723476E+02  0.00000000000E+00 0. -1.
         11    1    3    3    0    0  0.10069880718E+02  0.10821855046E+02 -0.89187546862E+01  0.17264391959E+02  0.51100000000E-03 0. -1.
        -11    1    3    3    0    0  0.13202289607E+02  0.18973817409E+01 -0.12565342223E+02  0.18324528201E+02  0.51100000000E-03 0.  1.
         12    1    3    3    0    0  0.14806563867E+01 -0.72221582177E+00 -0.12086602457E+02  0.12198356364E+02  0.00000000000E+00 0. -1.
</event>
<event>
 7    1  0.2733256E-010  0.4778727E+02  0.7816164E-02  0.1312668E+00
        -11   -1    0    0    0    0  0.00000000000E+00  0.00000000000E+00  0.45593999997E+02  0.45594000000E+02  0.51100000000E-03 0.  1.
         11   -1    0    0    0    0 -0.00000000000E+00 -0.00000000000E+00 -0.45593999997E+02  0.45594000000E+02  0.51100000000E-03 0. -1.
    9900012    2    1    2    0    0  0.10917957631E+02 -0.31630648065E+02  0.27639167333E+02  0.47787271127E+02  0.20000000375E+02 0.  0.
         12    1    1    2    0    0 -0.10917957631E+02  0.31630648065E+02 -0.27639167333E+02  0.43400728873E+02  0.00000000000E+00 0. -1.
         11    1    3    3    0    0  0.18139924075E+01 -0.20727205860E+02  0.24466385302E+02  0.32117154937E+02  0.51100000000E-03 0. -1.
        -11    1    3    3    0    0  0.50630017013E+01 -0.53203818405E+01  0.45530763429E+01  0.86412356525E+01  0.51100000000E-03 0.  1.
         12    1    3    3    0    0  0.40409635221E+01 -0.55830603649E+01 -0.13802943118E+01  0.70288805376E+01  0.00000000000E+00 0. -1.
</event>
<event>
 7    1  0.2733256E-010  0.4778727E+02  0.7816164E-02  0.1312668E+00
        -11   -1    0    0    0    0  0.00000000000E+00  0.00000000000E+00  0.45593999997E+02  0.45594000000E+02  0.51100000000E-03 0.  1.
         11   -1    0    0    0    0 -0.00000000000E+00 -0.00000000000E+00 -0.45593999997E+02  0.45594000000E+02  0.51100000000E-03 0. -1.
    9900012    2    1    2    0    0 -0.33272071019E+01 -0.30053208800E+02  0.31134509047E+02  0.47787270515E+02  0.19999997586E+02 0.  0.
         12    1    1    2    0    0  0.33272071019E+01  0.30053208800E+02 -0.31134509047E+02  0.43400729485E+02  0.00000000000E+00 0. -1.
         11    1    3    3    0    0  0.15000565088E+01 -0.63246787684E+01  0.54914135441E+01  0.85092510850E+01  0.51100000000E-03 0. -1.
        -11    1    3    3    0    0 -0.84833956894E+01 -0.19185904324E+02  0.26033631188E+02  0.33433768561E+02  0.51100000000E-03 0.  1.
        -12    1    3    3    0    0  0.36561320787E+01 -0.45426257076E+01 -0.39053568494E+00  0.58442508688E+01  0.00000000000E+00 0.  1.
</event>
<event>
 7    1  0.2733256E-010  0.4778729E+02  0.7816164E-02  0.1312668E+00
        -11   -1    0    0    0    0  0.00000000000E+00  0.00000000000E+00  0.45593999997E+02  0.45594000000E+02  0.51100000000E-03 0. -1.
         11   -1    0    0    0    0 -0.00000000000E+00 -0.00000000000E+00 -0.45593999997E+02  0.45594000000E+02  0.51100000000E-03 0.  1.
    9900012    2    1    2    0    0  0.17011225938E+02 -0.39524883062E+02 -0.56589307390E+01  0.47787289336E+02  0.20000083399E+02 0.  0.
         12    1    1    2    0    0 -0.17011225938E+02  0.39524883062E+02  0.56589307390E+01  0.43400710664E+02  0.00000000000E+00 0. -1.
         11    1    3    3    0    0  0.80952255089E+01 -0.16170987183E+02  0.93266896031E-01  0.18084308156E+02  0.51100000000E-03 0. -1.
        -11    1    3    3    0    0  0.28113297183E+00 -0.19375802488E+02 -0.56887369210E+01  0.20195605606E+02  0.51100000000E-03 0.  1.
         12    1    3    3    0    0  0.86348674575E+01 -0.39780933921E+01 -0.63460714049E-01  0.95073755741E+01  0.00000000000E+00 0. -1.
</event>
<event>
 7    1  0.2733256E-010  0.4778727E+02  0.7816164E-02  0.1312668E+00
        -11   -1    0    0    0    0  0.00000000000E+00  0.00000000000E+00  0.45593999997E+02  0.45594000000E+02  0.51100000000E-03 0. -1.
         11   -1    0    0    0    0 -0.00000000000E+00 -0.00000000000E+00 -0.45593999997E+02  0.45594000000E+02  0.51100000000E-03 0.  1.
    9900012    2    1    2    0    0 -0.19412253326E+01  0.33486595897E+01 -0.43227783258E+02  0.47787272792E+02  0.20000007966E+02 0.  0.
         12    1    1    2    0    0  0.19412253326E+01 -0.33486595897E+01  0.43227783258E+02  0.43400727208E+02  0.00000000000E+00 0. -1.
         11    1    3    3    0    0 -0.10535344802E+01  0.27892335042E+01 -0.48827529441E+01  0.57211043529E+01  0.51100000000E-03 0. -1.
        -11    1    3    3    0    0 -0.60893381494E+01 -0.31033270089E+01 -0.33165788163E+02  0.33862666498E+02  0.51100000000E-03 0.  1.
        -12    1    3    3    0    0  0.52016472970E+01  0.36627530943E+01 -0.51792421502E+01  0.82035019403E+01  0.00000000000E+00 0.  1.
</event>
<event>
 7    1  0.2733256E-010  0.4778726E+02  0.7816164E-02  0.1312668E+00
        -11   -1    0    0    0    0  0.00000000000E+00  0.00000000000E+00  0.45593999997E+02  0.45594000000E+02  0.51100000000E-03 0.  1.
         11   -1    0    0    0    0 -0.00000000000E+00 -0.00000000000E+00 -0.45593999997E+02  0.45594000000E+02  0.51100000000E-03 0. -1.
    9900012    2    1    2    0    0 -0.59510053033E+01 -0.14578467977E+02  0.40443518546E+02  0.47787258243E+02  0.19999941634E+02 0.  0.
         12    1    1    2    0    0  0.59510053033E+01  0.14578467977E+02 -0.40443518546E+02  0.43400741757E+02  0.00000000000E+00 0. -1.
         11    1    3    3    0    0  0.30840575278E+01  0.12954038481E+01  0.28149271526E+01  0.43718756958E+01  0.51100000000E-03 0. -1.
        -11    1    3    3    0    0 -0.74650959796E+00 -0.11832911825E+01  0.15639554233E+02  0.15702009791E+02  0.51100000000E-03 0.  1.
        -12    1    3    3    0    0 -0.82885532331E+01 -0.14690580642E+02  0.21989037160E+02  0.27713372756E+02  0.00000000000E+00 0.  1.
</event>
<event>
 7    1  0.2733256E-010  0.4778727E+02  0.7816164E-02  0.1312668E+00
        -11   -1    0    0    0    0  0.00000000000E+00  0.00000000000E+00  0.45593999997E+02  0.45594000000E+02  0.51100000000E-03 0.  1.
         11   -1    0    0    0    0 -0.00000000000E+00 -0.00000000000E+00 -0.45593999997E+02  0.45594000000E+02  0.51100000000E-03 0. -1.
    9900012    2    1    2    0    0 -0.31735434168E+02  0.22394525865E+02  0.19364160057E+02  0.47787271144E+02  0.20000000452E+02 0.  0.
         12    1    1    2    0    0  0.31735434168E+02 -0.22394525865E+02 -0.19364160057E+02  0.43400728856E+02  0.00000000000E+00 0. -1.
         11    1    3    3    0    0 -0.27063824135E+01  0.45259850881E+01 -0.33033532716E+01  0.62226352845E+01  0.51100000000E-03 0. -1.
        -11    1    3    3    0    0 -0.35734803139E+01  0.26757591801E+01  0.62403530698E+01  0.76727736471E+01  0.51100000000E-03 0.  1.
         12    1    3    3    0    0 -0.25455571441E+02  0.15192781597E+02  0.16427160259E+02  0.33891862212E+02  0.00000000000E+00 0. -1.
</event>
<event>
 7    1  0.2733256E-010  0.4778727E+02  0.7816164E-02  0.1312668E+00
        -11   -1    0    0    0    0  0.00000000000E+00  0.00000000000E+00  0.45593999997E+02  0.45594000000E+02  0.51100000000E-03 0. -1.
         11   -1    0    0    0    0 -0.00000000000E+00 -0.00000000000E+00 -0.45593999997E+02  0.45594000000E+02  0.51100000000E-03 0.  1.
    9900012    2    1    2    0    0 -0.30281486457E+02 -0.10323889725E+02 -0.29326983004E+02  0.47787273586E+02  0.20000011589E+02 0.  0.
         12    1    1    2    0    0  0.30281486457E+02  0.10323889725E+02  0.29326983004E+02  0.43400726414E+02  0.00000000000E+00 0. -1.
         11    1    3    3    0    0 -0.23887724844E+01 -0.67705675891E+01 -0.43230515558E+01  0.83806679015E+01  0.51100000000E-03 0. -1.
        -11    1    3    3    0    0 -0.10354921307E+02 -0.67361992238E+01 -0.12901239534E+02  0.17861768026E+02  0.51100000000E-03 0.  1.
         12    1    3    3    0    0 -0.17537792666E+02  0.31828770875E+01 -0.12102691914E+02  0.21544837659E+02  0.00000000000E+00 0. -1.
</event>
<event>
 7    1  0.2733256E-010  0.4778727E+02  0.7816164E-02  0.1312668E+00
        -11   -1    0    0    0    0  0.00000000000E+00  0.00000000000E+00  0.45593999997E+02  0.45594000000E+02  0.51100000000E-03 0.  1.
         11   -1    0    0    0    0 -0.00000000000E+00 -0.00000000000E+00 -0.45593999997E+02  0.45594000000E+02  0.51100000000E-03 0. -1.
    9900012    2    1    2    0    0  0.18597084434E+02  0.26651588327E+02  0.28765683517E+02  0.47787271227E+02  0.20000000832E+02 0.  0.
         12    1    1    2    0    0 -0.18597084434E+02 -0.26651588327E+02 -0.28765683517E+02  0.43400728773E+02  0.00000000000E+00 0. -1.
         11    1    3    3    0    0  0.35265241123E+01  0.57167747896E+01  0.80588690651E+01  0.10491103716E+02  0.51100000000E-03 0. -1.
        -11    1    3    3    0    0  0.79763101062E+01  0.15606715734E+02  0.22215038380E+02  0.28296625760E+02  0.51100000000E-03 0.  1.
         12    1    3    3    0    0  0.70942502153E+01  0.53280978033E+01 -0.15082239271E+01  0.89995417513E+01  0.00000000000E+00 0. -1.
</event>
<event>
 7    1  0.2733256E-010  0.4778727E+02  0.7816164E-02  0.1312668E+00
        -11   -1    0    0    0    0  0.00000000000E+00  0.00000000000E+00  0.45593999997E+02  0.45594000000E+02  0.51100000000E-03 0.  1.
         11   -1    0    0    0    0 -0.00000000000E+00 -0.00000000000E+00 -0.45593999997E+02  0.45594000000E+02  0.51100000000E-03 0. -1.
    9900012    2    1    2    0    0 -0.18892122756E+02  0.14211981964E+02  0.36396848437E+02  0.47787270631E+02  0.19999998116E+02 0.  0.
         12    1    1    2    0    0  0.18892122756E+02 -0.14211981964E+02 -0.36396848437E+02  0.43400729369E+02  0.00000000000E+00 0. -1.
         11    1    3    3    0    0 -0.92400583430E+01  0.15531307036E+02  0.17374489975E+02  0.25069365341E+02  0.51100000000E-03 0. -1.
        -11    1    3    3    0    0 -0.43766299935E+01 -0.13163648150E+00  0.15860638838E+02  0.16453938218E+02  0.51100000000E-03 0.  1.
        -12    1    3    3    0    0 -0.52754344197E+01 -0.11876885909E+01  0.31617196247E+01  0.62639670729E+01  0.00000000000E+00 0.  1.
</event>
<event>
 7    1  0.2733256E-010  0.4778728E+02  0.7816164E-02  0.1312668E+00
        -11   -1    0    0    0    0  0.00000000000E+00  0.00000000000E+00  0.45593999997E+02  0.45594000000E+02  0.51100000000E-03 0.  1.
         11   -1    0    0    0    0 -0.00000000000E+00 -0.00000000000E+00 -0.45593999997E+02  0.45594000000E+02  0.51100000000E-03 0. -1.
    9900012    2    1    2    0    0  0.10372449722E+02 -0.19315514595E+02  0.37455917113E+02  0.47787279452E+02  0.20000038331E+02 0.  0.
         12    1    1    2    0    0 -0.10372449722E+02  0.19315514595E+02 -0.37455917113E+02  0.43400720548E+02  0.00000000000E+00 0. -1.
         11    1    3    3    0    0  0.10144401012E+01 -0.66354075037E+00 -0.29773463606E+00  0.12482072027E+01  0.51100000000E-03 0. -1.
        -11    1    3    3    0    0  0.48725170707E+01  0.61510881837E+00  0.13268512889E+01  0.50872700014E+01  0.51100000000E-03 0.  1.
         12    1    3    3    0    0  0.44854925506E+01 -0.19267082663E+02  0.36426800460E+02  0.41451802247E+02  0.00000000000E+00 0. -1.
</event>
<event>
 7    1  0.2733256E-010  0.4778727E+02  0.7816164E-02  0.1312668E+00
        -11   -1    0    0    0    0  0.00000000000E+00  0.00000000000E+00  0.45593999997E+02  0.45594000000E+02  0.51100000000E-03 0.  1.
         11   -1    0    0    0    0 -0.00000000000E+00 -0.00000000000E+00 -0.45593999997E+02  0.45594000000E+02  0.51100000000E-03 0. -1.
    9900012    2    1    2    0    0 -0.19042641548E+02  0.14198956609E+02  0.36323418044E+02  0.47787271155E+02  0.20000000504E+02 0.  0.
         12    1    1    2    0    0  0.19042641548E+02 -0.14198956609E+02 -0.36323418044E+02  0.43400728845E+02  0.00000000000E+00 0. -1.
         11    1    3    3    0    0 -0.64797654855E+01 -0.19035364750E+01  0.18049778674E+02  0.19271879055E+02  0.51100000000E-03 0. -1.
        -11    1    3    3    0    0 -0.64985577562E+01  0.26608116342E+01  0.45235915873E+01  0.83530864100E+01  0.51100000000E-03 0.  1.
         12    1    3    3    0    0 -0.60643183061E+01  0.13441681450E+02  0.13750047782E+02  0.20162305690E+02  0.00000000000E+00 0. -1.
</event>
<event>
 7    1  0.2733256E-010  0.4778727E+02  0.7816164E-02  0.1312668E+00
        -11   -1    0    0    0    0  0.00000000000E+00  0.00000000000E+00  0.45593999997E+02  0.45594000000E+02  0.51100000000E-03 0.  1.
         11   -1    0    0    0    0 -0.00000000000E+00 -0.00000000000E+00 -0.45593999997E+02  0.45594000000E+02  0.51100000000E-03 0. -1.
    9900012    2    1    2    0    0 -0.46363466160E+01 -0.32450050107E+02  0.28445063234E+02  0.47787273229E+02  0.20000009959E+02 0.  0.
         12    1    1    2    0    0  0.46363466160E+01  0.32450050107E+02 -0.28445063234E+02  0.43400726771E+02  0.00000000000E+00 0. -1.
         11    1    3    3    0    0 -0.29850719753E+00 -0.69637942197E+01  0.31656442970E+01  0.76553798441E+01  0.51100000000E-03 0. -1.
        -11    1    3    3    0    0  0.58054677677E+00 -0.89542305440E+01  0.20275901436E+02  0.22172673688E+02  0.51100000000E-03 0.  1.
        -12    1    3    3    0    0 -0.49183861952E+01 -0.16532025344E+02  0.50035175011E+01  0.17959219697E+02  0.00000000000E+00 0.  1.
</event>
<event>
 7    1  0.2733256E-010  0.4778726E+02  0.7816164E-02  0.1312668E+00
        -11   -1    0    0    0    0  0.00000000000E+00  0.00000000000E+00  0.45593999997E+02  0.45594000000E+02  0.51100000000E-03 0. -1.
         11   -1    0    0    0    0 -0.00000000000E+00 -0.00000000000E+00 -0.45593999997E+02  0.45594000000E+02  0.51100000000E-03 0.  1.
    9900012    2    1    2    0    0  0.15542740224E+02 -0.36266485948E+02 -0.18077307238E+02  0.47787264825E+02  0.19999971644E+02 0.  0.
         12    1    1    2    0    0 -0.15542740224E+02  0.36266485948E+02  0.18077307238E+02  0.43400735175E+02  0.00000000000E+00 0. -1.
         11    1    3    3    0    0 -0.10302348728E+01 -0.14873736227E+01 -0.42473113173E+00  0.18585104202E+01  0.51100000000E-03 0. -1.
        -11    1    3    3    0    0  0.17276700500E+02 -0.18415398227E+02 -0.14902722134E+02  0.29320682108E+02  0.51100000000E-03 0.  1.
        -12    1    3    3    0    0 -0.70372540305E+00 -0.16363714099E+02 -0.27498539725E+01  0.16608072297E+02  0.00000000000E+00 0.  1.
</event>
<event>
 7    1  0.2733256E-010  0.4778727E+02  0.7816164E-02  0.1312668E+00
        -11   -1    0    0    0    0  0.00000000000E+00  0.00000000000E+00  0.45593999997E+02  0.45594000000E+02  0.51100000000E-03 0.  1.
         11   -1    0    0    0    0 -0.00000000000E+00 -0.00000000000E+00 -0.45593999997E+02  0.45594000000E+02  0.51100000000E-03 0. -1.
    9900012    2    1    2    0    0 -0.39954973526E+02  0.12025737790E+02  0.11941742745E+02  0.47787268455E+02  0.19999988194E+02 0.  0.
         12    1    1    2    0    0  0.39954973526E+02 -0.12025737790E+02 -0.11941742745E+02  0.43400731545E+02  0.00000000000E+00 0. -1.
         11    1    3    3    0    0 -0.64865835005E+01  0.20706817410E+01 -0.39224775731E+01  0.78580734887E+01  0.51100000000E-03 0. -1.
        -11    1    3    3    0    0 -0.10491816159E+02  0.25361351398E+01 -0.42703386909E+00  0.10802432409E+02  0.51100000000E-03 0.  1.
        -12    1    3    3    0    0 -0.22976573867E+02  0.74189209094E+01  0.16291254187E+02  0.29126762558E+02  0.00000000000E+00 0.  1.
</event>
<event>
 7    1  0.2733256E-010  0.4778726E+02  0.7816164E-02  0.1312668E+00
        -11   -1    0    0    0    0  0.00000000000E+00  0.00000000000E+00  0.45593999997E+02  0.45594000000E+02  0.51100000000E-03 0.  1.
         11   -1    0    0    0    0 -0.00000000000E+00 -0.00000000000E+00 -0.45593999997E+02  0.45594000000E+02  0.51100000000E-03 0. -1.
    9900012    2    1    2    0    0 -0.21801406525E+02 -0.32952180076E+02  0.17957646115E+02  0.47787256317E+02  0.19999932852E+02 0.  0.
         12    1    1    2    0    0  0.21801406525E+02  0.32952180076E+02 -0.17957646115E+02  0.43400743683E+02  0.00000000000E+00 0. -1.
         11    1    3    3    0    0  0.20173274345E+00  0.11856495255E+01 -0.10410507363E-02  0.12026895867E+01  0.51100000000E-03 0. -1.
        -11    1    3    3    0    0 -0.27615204319E+01 -0.16868970115E+02  0.80815336441E+01  0.18907652793E+02  0.51100000000E-03 0.  1.
        -12    1    3    3    0    0 -0.19241618836E+02 -0.17268859487E+02  0.98771535220E+01  0.27676913938E+02  0.00000000000E+00 0.  1.
</event>
<event>
 7    1  0.2733256E-010  0.4778727E+02  0.7816164E-02  0.1312668E+00
        -11   -1    0    0    0    0  0.00000000000E+00  0.00000000000E+00  0.45593999997E+02  0.45594000000E+02  0.51100000000E-03 0.  1.
         11   -1    0    0    0    0 -0.00000000000E+00 -0.00000000000E+00 -0.45593999997E+02  0.45594000000E+02  0.51100000000E-03 0. -1.
    9900012    2    1    2    0    0  0.40197946993E+02 -0.15599998624E+02 -0.49384407029E+01  0.47787273093E+02  0.20000009339E+02 0.  0.
         12    1    1    2    0    0 -0.40197946993E+02  0.15599998624E+02  0.49384407029E+01  0.43400726907E+02  0.00000000000E+00 0. -1.
         11    1    3    3    0    0  0.45094678656E+01  0.21021413676E+01  0.14847820879E+01  0.51921938397E+01  0.51100000000E-03 0. -1.
        -11    1    3    3    0    0  0.15618236463E+02 -0.87045404238E+01  0.38963271878E+01  0.18299718578E+02  0.51100000000E-03 0.  1.
         12    1    3    3    0    0  0.20070242664E+02 -0.89975995682E+01 -0.10319549979E+02  0.24295360675E+02  0.00000000000E+00 0. -1.
</event>
<event>
 7    1  0.2733256E-010  0.4778727E+02  0.7816164E-02  0.1312668E+00
        -11   -1    0    0    0    0  0.00000000000E+00  0.00000000000E+00  0.45593999997E+02  0.45594000000E+02  0.51100000000E-03 0.  1.
         11   -1    0    0    0    0 -0.00000000000E+00 -0.00000000000E+00 -0.45593999997E+02  0.45594000000E+02  0.51100000000E-03 0. -1.
    9900012    2    1    2    0    0  0.56293491604E+01  0.33080874110E+02  0.27524344872E+02  0.47787270000E+02  0.19999995239E+02 0.  0.
         12    1    1    2    0    0 -0.56293491604E+01 -0.33080874110E+02 -0.27524344872E+02  0.43400730000E+02  0.00000000000E+00 0. -1.
         11    1    3    3    0    0 -0.16138197265E+01  0.11247953348E+02  0.10715139029E+02  0.15618420961E+02  0.51100000000E-03 0. -1.
        -11    1    3    3    0    0 -0.16769632331E+01  0.15251388536E+02  0.13911450437E+02  0.20710999770E+02  0.51100000000E-03 0.  1.
         12    1    3    3    0    0  0.89201321201E+01  0.65815322263E+01  0.28977554061E+01  0.11457849269E+02  0.00000000000E+00 0. -1.
</event>
<event>
 7    1  0.2733256E-010  0.4778727E+02  0.7816164E-02  0.1312668E+00
        -11   -1    0    0    0    0  0.00000000000E+00  0.00000000000E+00  0.45593999997E+02  0.45594000000E+02  0.51100000000E-03 0.  1.
         11   -1    0    0    0    0 -0.00000000000E+00 -0.00000000000E+00 -0.45593999997E+02  0.45594000000E+02  0.51100000000E-03 0. -1.
    9900012    2    1    2    0    0 -0.15302237195E+02 -0.10783847517E+02  0.39155757072E+02  0.47787272560E+02  0.20000006909E+02 0.  0.
         12    1    1    2    0    0  0.15302237195E+02  0.10783847517E+02 -0.39155757072E+02  0.43400727440E+02  0.00000000000E+00 0. -1.
         11    1    3    3    0    0  0.75940269954E+00  0.67116226671E+00  0.41634396454E+01  0.42850182252E+01  0.51100000000E-03 0. -1.
        -11    1    3    3    0    0 -0.11181477074E+02 -0.35925626298E+01  0.31488263538E+02  0.33607181922E+02  0.51100000000E-03 0.  1.
         12    1    3    3    0    0 -0.48801628210E+01 -0.78624471535E+01  0.35040538887E+01  0.98950724128E+01  0.00000000000E+00 0. -1.
</event>
<event>
 7    1  0.2733256E-010  0.4778723E+02  0.7816164E-02  0.1312668E+00
        -11   -1    0    0    0    0  0.00000000000E+00  0.00000000000E+00  0.45593999997E+02  0.45594000000E+02  0.51100000000E-03 0.  1.
         11   -1    0    0    0    0 -0.00000000000E+00 -0.00000000000E+00 -0.45593999997E+02  0.45594000000E+02  0.51100000000E-03 0. -1.
    9900012    2    1    2    0    0  0.16528520584E+00  0.41748295201E+02  0.11860845755E+02  0.47787226580E+02  0.19999797270E+02 0.  0.
         12    1    1    2    0    0 -0.16528520584E+00 -0.41748295201E+02 -0.11860845755E+02  0.43400773420E+02  0.00000000000E+00 0. -1.
         11    1    3    3    0    0  0.19803864573E+01  0.96546457287E+01  0.85373605164E+01  0.13039196276E+02  0.51100000000E-03 0. -1.
        -11    1    3    3    0    0 -0.94654796765E+00 -0.45565534177E+00  0.18818856855E+01  0.21552421766E+01  0.51100000000E-03 0.  1.
         12    1    3    3    0    0 -0.86855328376E+00  0.32549304814E+02  0.14415995526E+01  0.32592788128E+02  0.00000000000E+00 0. -1.
</event>
<event>
 7    1  0.2733256E-010  0.4778727E+02  0.7816164E-02  0.1312668E+00
        -11   -1    0    0    0    0  0.00000000000E+00  0.00000000000E+00  0.45593999997E+02  0.45594000000E+02  0.51100000000E-03 0.  1.
         11   -1    0    0    0    0 -0.00000000000E+00 -0.00000000000E+00 -0.45593999997E+02  0.45594000000E+02  0.51100000000E-03 0. -1.
    9900012    2    1    2    0    0  0.14108057993E+02  0.29345723362E+02  0.28695197399E+02  0.47787272659E+02  0.20000007360E+02 0.  0.
         12    1    1    2    0    0 -0.14108057993E+02 -0.29345723362E+02 -0.28695197399E+02  0.43400727341E+02  0.00000000000E+00 0. -1.
         11    1    3    3    0    0 -0.32336915425E+00  0.15222893617E+02  0.44255230779E+01  0.15856428111E+02  0.51100000000E-03 0. -1.
        -11    1    3    3    0    0  0.37296071292E+01  0.68264937781E+01  0.84562791400E+01  0.11489980148E+02  0.51100000000E-03 0.  1.
         12    1    3    3    0    0  0.10701820018E+02  0.72963359675E+01  0.15813395181E+02  0.20440864400E+02  0.00000000000E+00 0. -1.
</event>
<event>
 7    1  0.2733256E-010  0.4778727E+02  0.7816164E-02  0.1312668E+00
        -11   -1    0    0    0    0  0.00000000000E+00  0.00000000000E+00  0.45593999997E+02  0.45594000000E+02  0.51100000000E-03 0.  1.
         11   -1    0    0    0    0 -0.00000000000E+00 -0.00000000000E+00 -0.45593999997E+02  0.45594000000E+02  0.51100000000E-03 0. -1.
    9900012    2    1    2    0    0  0.24426414468E+02  0.23854853513E+02  0.26794019003E+02  0.47787271731E+02  0.20000003132E+02 0.  0.
         12    1    1    2    0    0 -0.24426414468E+02 -0.23854853513E+02 -0.26794019003E+02  0.43400728269E+02  0.00000000000E+00 0. -1.
         11    1    3    3    0    0  0.64251740873E+01  0.99120648140E+01  0.25009092947E+01  0.12074205501E+02  0.51100000000E-03 0. -1.
        -11    1    3    3    0    0  0.55265310787E+01  0.10640192246E+02  0.62239919290E+01  0.13509045584E+02  0.51100000000E-03 0.  1.
         12    1    3    3    0    0  0.12474709302E+02  0.33025964527E+01  0.18069117780E+02  0.22204020646E+02  0.00000000000E+00 0. -1.
</event>
<event>
 7    1  0.2733256E-010  0.4778727E+02  0.7816164E-02  0.1312668E+00
        -11   -1    0    0    0    0  0.00000000000E+00  0.00000000000E+00  0.45593999997E+02  0.45594000000E+02  0.51100000000E-03 0.  1.
         11   -1    0    0    0    0 -0.00000000000E+00 -0.00000000000E+00 -0.45593999997E+02  0.45594000000E+02  0.51100000000E-03 0. -1.
    9900012    2    1    2    0    0 -0.24746499034E+01 -0.39848094626E+01  0.43146503625E+02  0.47787269895E+02  0.19999994757E+02 0.  0.
         12    1    1    2    0    0  0.24746499034E+01  0.39848094626E+01 -0.43146503625E+02  0.43400730105E+02  0.00000000000E+00 0. -1.
         11    1    3    3    0    0  0.12789445134E+01  0.37041231198E+01  0.21443213677E+01  0.44670282677E+01  0.51100000000E-03 0. -1.
        -11    1    3    3    0    0 -0.48274268741E+01  0.12415335149E+01  0.14313131724E+02  0.15156226302E+02  0.51100000000E-03 0.  1.
        -12    1    3    3    0    0  0.10738324573E+01 -0.89304660973E+01  0.26689050534E+02  0.28164015325E+02  0.00000000000E+00 0.  1.
</event>
<event>
 7    1  0.2733256E-010  0.4778728E+02  0.7816164E-02  0.1312668E+00
        -11   -1    0    0    0    0  0.00000000000E+00  0.00000000000E+00  0.45593999997E+02  0.45594000000E+02  0.51100000000E-03 0.  1.
         11   -1    0    0    0    0 -0.00000000000E+00 -0.00000000000E+00 -0.45593999997E+02  0.45594000000E+02  0.51100000000E-03 0. -1.
    9900012    2    1    2    0    0 -0.13921081784E+02  0.19696312165E+02  0.36081590136E+02  0.47787281369E+02  0.20000047072E+02 0.  0.
         12    1    1    2    0    0  0.13921081784E+02 -0.19696312165E+02 -0.36081590136E+02  0.43400718631E+02  0.00000000000E+00 0. -1.
         11    1    3    3    0    0  0.29675645333E+01 -0.49928388360E+00  0.52328403894E+01  0.60364180155E+01  0.51100000000E-03 0. -1.
        -11    1    3    3    0    0 -0.14454829096E+01  0.56480105754E+01  0.25031529507E+01  0.63447000920E+01  0.51100000000E-03 0.  1.
        -12    1    3    3    0    0 -0.15443163407E+02  0.14547585473E+02  0.28345596796E+02  0.35406163261E+02  0.00000000000E+00 0.  1.
</event>
<event>
 7    1  0.2733256E-010  0.4778727E+02  0.7816164E-02  0.1312668E+00
        -11   -1    0    0    0    0  0.00000000000E+00  0.00000000000E+00  0.45593999997E+02  0.45594000000E+02  0.51100000000E-03 0.  1.
         11   -1    0    0    0    0 -0.00000000000E+00 -0.00000000000E+00 -0.45593999997E+02  0.45594000000E+02  0.51100000000E-03 0. -1.
    9900012    2    1    2    0    0  0.13081130780E+02 -0.17404704992E+01  0.41345834177E+02  0.47787271621E+02  0.20000002627E+02 0.  0.
         12    1    1    2    0    0 -0.13081130780E+02  0.17404704992E+01 -0.41345834177E+02  0.43400728379E+02  0.00000000000E+00 0. -1.
         11    1    3    3    0    0  0.14277563557E+02 -0.61426433469E+00  0.17580340321E+02  0.22656003793E+02  0.51100000000E-03 0. -1.
        -11    1    3    3    0    0  0.31136973613E+01 -0.17785872077E+01  0.13716893214E+02  0.14177857505E+02  0.51100000000E-03 0.  1.
        -12    1    3    3    0    0 -0.43101301386E+01  0.65238104318E+00  0.10048600642E+02  0.10953410323E+02  0.00000000000E+00 0.  1.
</event>
<event>
 7    1  0.2733256E-010  0.4778727E+02  0.7816164E-02  0.1312668E+00
        -11   -1    0    0    0    0  0.00000000000E+00  0.00000000000E+00  0.45593999997E+02  0.45594000000E+02  0.51100000000E-03 0. -1.
         11   -1    0    0    0    0 -0.00000000000E+00 -0.00000000000E+00 -0.45593999997E+02  0.45594000000E+02  0.51100000000E-03 0.  1.
    9900012    2    1    2    0    0  0.28404921034E+02  0.11386121744E+02 -0.30775638165E+02  0.47787271760E+02  0.20000003263E+02 0.  0.
         12    1    1    2    0    0 -0.28404921034E+02 -0.11386121744E+02  0.30775638165E+02  0.43400728240E+02  0.00000000000E+00 0. -1.
         11    1    3    3    0    0  0.19966428444E+02  0.42988590741E+01 -0.14996690500E+02  0.25338492069E+02  0.51100000000E-03 0. -1.
        -11    1    3    3    0    0  0.11206059908E+02  0.64930596626E+01 -0.11510615159E+02  0.17327142409E+02  0.51100000000E-03 0.  1.
         12    1    3    3    0    0 -0.27675673178E+01  0.59420300695E+00 -0.42683325055E+01  0.51216372821E+01  0.00000000000E+00 0. -1.
</event>
<event>
 7    1  0.2733256E-010  0.4778728E+02  0.7816164E-02  0.1312668E+00
        -11   -1    0    0    0    0  0.00000000000E+00  0.00000000000E+00  0.45593999997E+02  0.45594000000E+02  0.51100000000E-03 0.  1.
         11   -1    0    0    0    0 -0.00000000000E+00 -0.00000000000E+00 -0.45593999997E+02  0.45594000000E+02  0.51100000000E-03 0. -1.
    9900012    2    1    2    0    0  0.17748411475E+02  0.35159752012E+02  0.18232077739E+02  0.47787275005E+02  0.20000018057E+02 0.  0.
         12    1    1    2    0    0 -0.17748411475E+02 -0.35159752012E+02 -0.18232077739E+02  0.43400724995E+02  0.00000000000E+00 0. -1.
         11    1    3    3    0    0 -0.38612352041E+01  0.27873204668E+01  0.38237128574E+01  0.61072966985E+01  0.51100000000E-03 0. -1.
        -11    1    3    3    0    0  0.30453425521E+01  0.36544154212E+01  0.30333760886E+01  0.56418289664E+01  0.51100000000E-03 0.  1.
         12    1    3    3    0    0  0.18564304127E+02  0.28718016124E+02  0.11374988793E+02  0.36038149340E+02  0.00000000000E+00 0. -1.
</event>
<event>
 7    1  0.2733256E-010  0.4778727E+02  0.7816164E-02  0.1312668E+00
        -11   -1    0    0    0    0  0.00000000000E+00  0.00000000000E+00  0.45593999997E+02  0.45594000000E+02  0.51100000000E-03 0.  1.
         11   -1    0    0    0    0 -0.00000000000E+00 -0.00000000000E+00 -0.45593999997E+02  0.45594000000E+02  0.51100000000E-03 0. -1.
    9900012    2    1    2    0    0 -0.83135621252E+01  0.29856828596E+02  0.30382194963E+02  0.47787270746E+02  0.19999998641E+02 0.  0.
         12    1    1    2    0    0  0.83135621252E+01 -0.29856828596E+02 -0.30382194963E+02  0.43400729254E+02  0.00000000000E+00 0. -1.
         11    1    3    3    0    0  0.22768959183E+01  0.22147878307E+01  0.64755855236E+00  0.32417391162E+01  0.51100000000E-03 0. -1.
        -11    1    3    3    0    0  0.11387319515E+01  0.12239636441E+02  0.53401623620E+01  0.13402341026E+02  0.51100000000E-03 0.  1.
        -12    1    3    3    0    0 -0.11729189995E+02  0.15402404324E+02  0.24394474048E+02  0.31143190604E+02  0.00000000000E+00 0.  1.
</event>
<event>
 7    1  0.2733256E-010  0.4778727E+02  0.7816164E-02  0.1312668E+00
        -11   -1    0    0    0    0  0.00000000000E+00  0.00000000000E+00  0.45593999997E+02  0.45594000000E+02  0.51100000000E-03 0.  1.
         11   -1    0    0    0    0 -0.00000000000E+00 -0.00000000000E+00 -0.45593999997E+02  0.45594000000E+02  0.51100000000E-03 0. -1.
    9900012    2    1    2    0    0  0.13595871205E+02  0.23626236357E+02  0.33772421804E+02  0.47787271519E+02  0.20000002162E+02 0.  0.
         12    1    1    2    0    0 -0.13595871205E+02 -0.23626236357E+02 -0.33772421804E+02  0.43400728481E+02  0.00000000000E+00 0. -1.
         11    1    3    3    0    0  0.55533181947E+01  0.13979420294E+02  0.65883311146E+01  0.16421621171E+02  0.51100000000E-03 0. -1.
        -11    1    3    3    0    0 -0.21043677018E-01  0.67521487530E+01  0.88782815767E+01  0.11154184849E+02  0.51100000000E-03 0.  1.
        -12    1    3    3    0    0  0.80635966872E+01  0.28946673094E+01  0.18305809113E+02  0.20211465500E+02  0.00000000000E+00 0.  1.
</event>
<event>
 7    1  0.2733256E-010  0.4778728E+02  0.7816164E-02  0.1312668E+00
        -11   -1    0    0    0    0  0.00000000000E+00  0.00000000000E+00  0.45593999997E+02  0.45594000000E+02  0.51100000000E-03 0.  1.
         11   -1    0    0    0    0 -0.00000000000E+00 -0.00000000000E+00 -0.45593999997E+02  0.45594000000E+02  0.51100000000E-03 0. -1.
    9900012    2    1    2    0    0 -0.24281298431E+02 -0.12088218595E+02  0.33880910972E+02  0.47787278686E+02  0.20000034841E+02 0.  0.
         12    1    1    2    0    0  0.24281298431E+02  0.12088218595E+02 -0.33880910972E+02  0.43400721314E+02  0.00000000000E+00 0. -1.
         11    1    3    3    0    0 -0.57549278253E+01  0.12077920351E+01  0.85155736452E+01  0.10348572396E+02  0.51100000000E-03 0. -1.
        -11    1    3    3    0    0 -0.82418297611E+01  0.58688444093E+00  0.15443904559E+02  0.17515318423E+02  0.51100000000E-03 0.  1.
         12    1    3    3    0    0 -0.10284540845E+02 -0.13882895071E+02  0.99214327670E+01  0.19923387867E+02  0.00000000000E+00 0. -1.
</event>
<event>
 7    1  0.2733256E-010  0.4778727E+02  0.7816164E-02  0.1312668E+00
        -11   -1    0    0    0    0  0.00000000000E+00  0.00000000000E+00  0.45593999997E+02  0.45594000000E+02  0.51100000000E-03 0.  1.
         11   -1    0    0    0    0 -0.00000000000E+00 -0.00000000000E+00 -0.45593999997E+02  0.45594000000E+02  0.51100000000E-03 0. -1.
    9900012    2    1    2    0    0  0.94405225933E-01 -0.22320164255E+02  0.37221292793E+02  0.47787270952E+02  0.19999999578E+02 0.  0.
         12    1    1    2    0    0 -0.94405225933E-01  0.22320164255E+02 -0.37221292793E+02  0.43400729048E+02  0.00000000000E+00 0. -1.
         11    1    3    3    0    0  0.28765082607E+01  0.34755617585E+00  0.58753510522E+01  0.65509423229E+01  0.51100000000E-03 0. -1.
        -11    1    3    3    0    0  0.38248106748E+01 -0.16536733992E+02  0.15395411994E+02  0.22915310570E+02  0.51100000000E-03 0.  1.
         12    1    3    3    0    0 -0.66069137096E+01 -0.61309864386E+01  0.15950529748E+02  0.18321018059E+02  0.00000000000E+00 0. -1.
</event>
<event>
 7    1  0.2733256E-010  0.4778727E+02  0.7816164E-02  0.1312668E+00
        -11   -1    0    0    0    0  0.00000000000E+00  0.00000000000E+00  0.45593999997E+02  0.45594000000E+02  0.51100000000E-03 0. -1.
         11   -1    0    0    0    0 -0.00000000000E+00 -0.00000000000E+00 -0.45593999997E+02  0.45594000000E+02  0.51100000000E-03 0.  1.
    9900012    2    1    2    0    0  0.14240526234E+02 -0.30412027116E+02 -0.27494344710E+02  0.47787274526E+02  0.20000015872E+02 0.  0.
         12    1    1    2    0    0 -0.14240526234E+02  0.30412027116E+02  0.27494344710E+02  0.43400725474E+02  0.00000000000E+00 0. -1.
         11    1    3    3    0    0  0.65605445389E+01 -0.11532947298E+02 -0.18778921415E+01  0.13400600628E+02  0.51100000000E-03 0. -1.
        -11    1    3    3    0    0 -0.21704127090E+01 -0.36639150687E+01 -0.22562936395E+01  0.48193180230E+01  0.51100000000E-03 0.  1.
         12    1    3    3    0    0  0.98503944041E+01 -0.15215164749E+02 -0.23360158929E+02  0.29567355875E+02  0.00000000000E+00 0. -1.
</event>
<event>
 7    1  0.2733256E-010  0.4778727E+02  0.7816164E-02  0.1312668E+00
        -11   -1    0    0    0    0  0.00000000000E+00  0.00000000000E+00  0.45593999997E+02  0.45594000000E+02  0.51100000000E-03 0.  1.
         11   -1    0    0    0    0 -0.00000000000E+00 -0.00000000000E+00 -0.45593999997E+02  0.45594000000E+02  0.51100000000E-03 0. -1.
    9900012    2    1    2    0    0 -0.14637305839E+02  0.35682127957E+02 -0.19903726328E+02  0.47787270749E+02  0.19999998652E+02 0.  0.
         12    1    1    2    0    0  0.14637305839E+02 -0.35682127957E+02  0.19903726328E+02  0.43400729251E+02  0.00000000000E+00 0. -1.
         11    1    3    3    0    0  0.20972352444E+01  0.57383233577E+01 -0.28455705811E+01  0.67397346254E+01  0.51100000000E-03 0. -1.
        -11    1    3    3    0    0 -0.66596177436E+01  0.17732444078E+02 -0.17445602509E+01  0.19021923462E+02  0.51100000000E-03 0.  1.
        -12    1    3    3    0    0 -0.10074923340E+02  0.12211360522E+02 -0.15313595496E+02  0.22025612662E+02  0.00000000000E+00 0.  1.
</event>
<event>
 7    1  0.2733256E-010  0.4778727E+02  0.7816164E-02  0.1312668E+00
        -11   -1    0    0    0    0  0.00000000000E+00  0.00000000000E+00  0.45593999997E+02  0.45594000000E+02  0.51100000000E-03 0.  1.
         11   -1    0    0    0    0 -0.00000000000E+00 -0.00000000000E+00 -0.45593999997E+02  0.45594000000E+02  0.51100000000E-03 0. -1.
    9900012    2    1    2    0    0 -0.33708749751E+02 -0.15084611943E+00  0.27337169180E+02  0.47787269786E+02  0.19999994264E+02 0.  0.
         12    1    1    2    0    0  0.33708749751E+02  0.15084611943E+00 -0.27337169180E+02  0.43400730214E+02  0.00000000000E+00 0. -1.
         11    1    3    3    0    0 -0.45684492620E+01  0.39780703195E+01  0.40939286235E+00  0.60715216300E+01  0.51100000000E-03 0. -1.
        -11    1    3    3    0    0  0.77987237398E+00  0.12166659832E+01  0.15587874011E+01  0.21256282500E+01  0.51100000000E-03 0.  1.
        -12    1    3    3    0    0 -0.29920172863E+02 -0.53455824222E+01  0.25368988916E+02  0.39590119906E+02  0.00000000000E+00 0.  1.
</event>
<event>
 7    1  0.2733256E-010  0.4778726E+02  0.7816164E-02  0.1312668E+00
        -11   -1    0    0    0    0  0.00000000000E+00  0.00000000000E+00  0.45593999997E+02  0.45594000000E+02  0.51100000000E-03 0.  1.
         11   -1    0    0    0    0 -0.00000000000E+00 -0.00000000000E+00 -0.45593999997E+02  0.45594000000E+02  0.51100000000E-03 0. -1.
    9900012    2    1    2    0    0 -0.38771501235E+02 -0.19021242889E+02  0.43112431377E+01  0.47787264909E+02  0.19999972025E+02 0.  0.
         12    1    1    2    0    0  0.38771501235E+02  0.19021242889E+02 -0.43112431377E+01  0.43400735091E+02  0.00000000000E+00 0. -1.
         11    1    3    3    0    0 -0.45350121578E+01 -0.41156109967E+00  0.19058517995E+01  0.49363943474E+01  0.51100000000E-03 0. -1.
        -11    1    3    3    0    0 -0.20467933014E+02 -0.20185559429E+02  0.34488459518E+01  0.28953197233E+02  0.51100000000E-03 0.  1.
        -12    1    3    3    0    0 -0.13768556064E+02  0.15758776402E+01 -0.10434546137E+01  0.13897673329E+02  0.00000000000E+00 0.  1.
</event>
<event>
 7    1  0.2733256E-010  0.4778727E+02  0.7816164E-02  0.1312668E+00
        -11   -1    0    0    0    0  0.00000000000E+00  0.00000000000E+00  0.45593999997E+02  0.45594000000E+02  0.51100000000E-03 0. -1.
         11   -1    0    0    0    0 -0.00000000000E+00 -0.00000000000E+00 -0.45593999997E+02  0.45594000000E+02  0.51100000000E-03 0.  1.
    9900012    2    1    2    0    0 -0.43038002147E+02  0.55402879770E+01  0.81180943587E+00  0.47787268966E+02  0.19999990524E+02 0.  0.
         12    1    1    2    0    0  0.43038002147E+02 -0.55402879770E+01 -0.81180943587E+00  0.43400731034E+02  0.00000000000E+00 0. -1.
         11    1    3    3    0    0 -0.36107389889E+01  0.13683976361E+01 -0.12484283866E+00  0.38633578829E+01  0.51100000000E-03 0. -1.
        -11    1    3    3    0    0 -0.23499395853E+02  0.10500687387E+02 -0.40925151503E+01  0.26062131946E+02  0.51100000000E-03 0.  1.
         12    1    3    3    0    0 -0.15927867306E+02 -0.63287970462E+01  0.50291674249E+01  0.17861779137E+02  0.00000000000E+00 0. -1.
</event>
<event>
 7    1  0.2733256E-010  0.4778728E+02  0.7816164E-02  0.1312668E+00
        -11   -1    0    0    0    0  0.00000000000E+00  0.00000000000E+00  0.45593999997E+02  0.45594000000E+02  0.51100000000E-03 0.  1.
         11   -1    0    0    0    0 -0.00000000000E+00 -0.00000000000E+00 -0.45593999997E+02  0.45594000000E+02  0.51100000000E-03 0. -1.
    9900012    2    1    2    0    0  0.32210832705E+02  0.19348252665E+02  0.21719343617E+02  0.47787279823E+02  0.20000040023E+02 0.  0.
         12    1    1    2    0    0 -0.32210832705E+02 -0.19348252665E+02 -0.21719343617E+02  0.43400720177E+02  0.00000000000E+00 0. -1.
         11    1    3    3    0    0  0.90959899644E+00 -0.20502708377E+00  0.23469207242E+01  0.25253600904E+01  0.51100000000E-03 0. -1.
        -11    1    3    3    0    0  0.15927762300E+02  0.18809045503E+02  0.73138734568E+01  0.25709269726E+02  0.51100000000E-03 0.  1.
        -12    1    3    3    0    0  0.15373471409E+02  0.74423424552E+00  0.12058549436E+02  0.19552650007E+02  0.00000000000E+00 0.  1.
</event>
<event>
 7    1  0.2733256E-010  0.4778727E+02  0.7816164E-02  0.1312668E+00
        -11   -1    0    0    0    0  0.00000000000E+00  0.00000000000E+00  0.45593999997E+02  0.45594000000E+02  0.51100000000E-03 0.  1.
         11   -1    0    0    0    0 -0.00000000000E+00 -0.00000000000E+00 -0.45593999997E+02  0.45594000000E+02  0.51100000000E-03 0. -1.
    9900012    2    1    2    0    0 -0.15465246620E+02 -0.21899291545E+02  0.34130203045E+02  0.47787267482E+02  0.19999983758E+02 0.  0.
         12    1    1    2    0    0  0.15465246620E+02  0.21899291545E+02 -0.34130203045E+02  0.43400732518E+02  0.00000000000E+00 0. -1.
         11    1    3    3    0    0 -0.77077476263E+01 -0.82919086230E+01  0.78914729879E+01  0.13800016966E+02  0.51100000000E-03 0. -1.
        -11    1    3    3    0    0 -0.74710368515E+01 -0.15994374836E+02  0.26188246687E+02  0.31582600951E+02  0.51100000000E-03 0.  1.
         12    1    3    3    0    0 -0.28646214213E+00  0.23869919143E+01  0.50483369933E-01  0.24046495646E+01  0.00000000000E+00 0. -1.
</event>
<event>
 7    1  0.2733256E-010  0.4778727E+02  0.7816164E-02  0.1312668E+00
        -11   -1    0    0    0    0  0.00000000000E+00  0.00000000000E+00  0.45593999997E+02  0.45594000000E+02  0.51100000000E-03 0.  1.
         11   -1    0    0    0    0 -0.00000000000E+00 -0.00000000000E+00 -0.45593999997E+02  0.45594000000E+02  0.51100000000E-03 0. -1.
    9900012    2    1    2    0    0 -0.36676699819E+02 -0.32920437049E+00  0.23202040678E+02  0.47787269859E+02  0.19999994594E+02 0.  0.
         12    1    1    2    0    0  0.36676699819E+02  0.32920437049E+00 -0.23202040678E+02  0.43400730141E+02  0.00000000000E+00 0. -1.
         11    1    3    3    0    0 -0.36517156877E+01 -0.95724961658E+00  0.30372837445E+01  0.48452499520E+01  0.51100000000E-03 0. -1.
        -11    1    3    3    0    0 -0.34613307484E+02 -0.20121855207E-01  0.21518322148E+02  0.40756835601E+02  0.51100000000E-03 0.  1.
         12    1    3    3    0    0  0.15883233521E+01  0.64816710129E+00 -0.13535652143E+01  0.21851843060E+01  0.00000000000E+00 0. -1.
</event>
<event>
 7    1  0.2733256E-010  0.4778727E+02  0.7816164E-02  0.1312668E+00
        -11   -1    0    0    0    0  0.00000000000E+00  0.00000000000E+00  0.45593999997E+02  0.45594000000E+02  0.51100000000E-03 0.  1.
         11   -1    0    0    0    0 -0.00000000000E+00 -0.00000000000E+00 -0.45593999997E+02  0.45594000000E+02  0.51100000000E-03 0. -1.
    9900012    2    1    2    0    0  0.29745528287E+02  0.20478476034E+02  0.24071953093E+02  0.47787270059E+02  0.19999995505E+02 0.  0.
         12    1    1    2    0    0 -0.29745528287E+02 -0.20478476034E+02 -0.24071953093E+02  0.43400729941E+02  0.00000000000E+00 0. -1.
         11    1    3    3    0    0  0.86651888868E+01  0.11477776787E+02  0.47045181091E+01  0.15131336666E+02  0.51100000000E-03 0. -1.
        -11    1    3    3    0    0  0.20510662779E+02  0.10138473696E+02  0.13316635401E+02  0.26472791979E+02  0.51100000000E-03 0.  1.
         12    1    3    3    0    0  0.56967662126E+00 -0.11377744479E+01  0.60507995825E+01  0.61831414131E+01  0.00000000000E+00 0. -1.
</event>
<event>
 7    1  0.2733256E-010  0.4778727E+02  0.7816164E-02  0.1312668E+00
        -11   -1    0    0    0    0  0.00000000000E+00  0.00000000000E+00  0.45593999997E+02  0.45594000000E+02  0.51100000000E-03 0.  1.
         11   -1    0    0    0    0 -0.00000000000E+00 -0.00000000000E+00 -0.45593999997E+02  0.45594000000E+02  0.51100000000E-03 0. -1.
    9900012    2    1    2    0    0 -0.20521779463E+02 -0.38236653795E+02  0.66187928153E+00  0.47787271781E+02  0.20000003358E+02 0.  0.
         12    1    1    2    0    0  0.20521779463E+02  0.38236653795E+02 -0.66187928153E+00  0.43400728219E+02  0.00000000000E+00 0. -1.
         11    1    3    3    0    0  0.19043337537E+01 -0.12165228483E+02  0.21443545782E+01  0.12498701049E+02  0.51100000000E-03 0. -1.
        -11    1    3    3    0    0 -0.21625177287E+01 -0.17291441883E+01 -0.23087406657E+01  0.36050944889E+01  0.51100000000E-03 0.  1.
        -12    1    3    3    0    0 -0.20263595488E+02 -0.24342281124E+02  0.82626536905E+00  0.31683476243E+02  0.00000000000E+00 0.  1.
</event>
<event>
 7    1  0.2733256E-010  0.4778727E+02  0.7816164E-02  0.1312668E+00
        -11   -1    0    0    0    0  0.00000000000E+00  0.00000000000E+00  0.45593999997E+02  0.45594000000E+02  0.51100000000E-03 0.  1.
         11   -1    0    0    0    0 -0.00000000000E+00 -0.00000000000E+00 -0.45593999997E+02  0.45594000000E+02  0.51100000000E-03 0. -1.
    9900012    2    1    2    0    0 -0.33251720409E+02  0.15840535448E+02  0.22956999766E+02  0.47787270609E+02  0.19999998014E+02 0.  0.
         12    1    1    2    0    0  0.33251720409E+02 -0.15840535448E+02 -0.22956999766E+02  0.43400729391E+02  0.00000000000E+00 0. -1.
         11    1    3    3    0    0 -0.16625537490E+02  0.10943263022E+02  0.93118707289E+01  0.21974404181E+02  0.51100000000E-03 0. -1.
        -11    1    3    3    0    0 -0.14512682819E+02  0.49312012066E+01  0.16329510526E+02  0.22396151951E+02  0.51100000000E-03 0.  1.
         12    1    3    3    0    0 -0.21135001004E+01 -0.33928780512E-01 -0.26843814890E+01  0.34167144767E+01  0.00000000000E+00 0. -1.
</event>
<event>
 7    1  0.2733256E-010  0.4778727E+02  0.7816164E-02  0.1312668E+00
        -11   -1    0    0    0    0  0.00000000000E+00  0.00000000000E+00  0.45593999997E+02  0.45594000000E+02  0.51100000000E-03 0.  1.
         11   -1    0    0    0    0 -0.00000000000E+00 -0.00000000000E+00 -0.45593999997E+02  0.45594000000E+02  0.51100000000E-03 0. -1.
    9900012    2    1    2    0    0  0.89908418955E+01 -0.37994861750E+02  0.18952018202E+02  0.47787265544E+02  0.19999974920E+02 0.  0.
         12    1    1    2    0    0 -0.89908418955E+01  0.37994861750E+02 -0.18952018202E+02  0.43400734456E+02  0.00000000000E+00 0. -1.
         11    1    3    3    0    0  0.19212731418E+01 -0.18252331045E+01  0.84202967523E+00  0.27806079562E+01  0.51100000000E-03 0. -1.
        -11    1    3    3    0    0 -0.61383322975E+01 -0.10009748051E+02  0.69749437060E+01  0.13657379668E+02  0.51100000000E-03 0.  1.
        -12    1    3    3    0    0  0.13207901051E+02 -0.26159880595E+02  0.11135044821E+02  0.31349277919E+02  0.00000000000E+00 0.  1.
</event>
<event>
 7    1  0.2733256E-010  0.4778727E+02  0.7816164E-02  0.1312668E+00
        -11   -1    0    0    0    0  0.00000000000E+00  0.00000000000E+00  0.45593999997E+02  0.45594000000E+02  0.51100000000E-03 0.  1.
         11   -1    0    0    0    0 -0.00000000000E+00 -0.00000000000E+00 -0.45593999997E+02  0.45594000000E+02  0.51100000000E-03 0. -1.
    9900012    2    1    2    0    0  0.38032863477E+02  0.17123844933E+02  0.11995759088E+02  0.47787274134E+02  0.20000014087E+02 0.  0.
         12    1    1    2    0    0 -0.38032863477E+02 -0.17123844933E+02 -0.11995759088E+02  0.43400725866E+02  0.00000000000E+00 0. -1.
         11    1    3    3    0    0  0.10109178842E+02  0.44523284494E+00  0.55774147357E+01  0.11554275596E+02  0.51100000000E-03 0. -1.
        -11    1    3    3    0    0  0.15072088183E+02  0.84279011644E+01  0.10771649757E+02  0.20352537901E+02  0.51100000000E-03 0.  1.
         12    1    3    3    0    0  0.12851596452E+02  0.82507109238E+01 -0.43533054050E+01  0.15880460637E+02  0.00000000000E+00 0. -1.
</event>
<event>
 7    1  0.2733256E-010  0.4778727E+02  0.7816164E-02  0.1312668E+00
        -11   -1    0    0    0    0  0.00000000000E+00  0.00000000000E+00  0.45593999997E+02  0.45594000000E+02  0.51100000000E-03 0.  1.
         11   -1    0    0    0    0 -0.00000000000E+00 -0.00000000000E+00 -0.45593999997E+02  0.45594000000E+02  0.51100000000E-03 0. -1.
    9900012    2    1    2    0    0 -0.33734106309E+01 -0.42238207000E+01  0.43062778378E+02  0.47787269105E+02  0.19999991157E+02 0.  0.
         12    1    1    2    0    0  0.33734106309E+01  0.42238207000E+01 -0.43062778378E+02  0.43400730895E+02  0.00000000000E+00 0. -1.
         11    1    3    3    0    0  0.76422217056E+00 -0.29404315321E+01  0.22043819104E+02  0.22252193916E+02  0.51100000000E-03 0.  1.
        -11    1    3    3    0    0  0.34670291296E+01 -0.44307107990E+01  0.50052650307E+01  0.75302169596E+01  0.51100000000E-03 0. -1.
        -12    1    3    3    0    0 -0.76046619311E+01  0.31473216311E+01  0.16013694243E+02  0.18004858229E+02  0.00000000000E+00 0.  1.
</event>
<event>
 7    1  0.2733256E-010  0.4778727E+02  0.7816164E-02  0.1312668E+00
        -11   -1    0    0    0    0  0.00000000000E+00  0.00000000000E+00  0.45593999997E+02  0.45594000000E+02  0.51100000000E-03 0.  1.
         11   -1    0    0    0    0 -0.00000000000E+00 -0.00000000000E+00 -0.45593999997E+02  0.45594000000E+02  0.51100000000E-03 0. -1.
    9900012    2    1    2    0    0  0.22616439023E+02 -0.11331734653E+02  0.35266297415E+02  0.47787271231E+02  0.20000000849E+02 0.  0.
         12    1    1    2    0    0 -0.22616439023E+02  0.11331734653E+02 -0.35266297415E+02  0.43400728769E+02  0.00000000000E+00 0. -1.
         11    1    3    3    0    0  0.22075457448E+01 -0.61061490967E+01  0.10688055118E+02  0.12505712194E+02  0.51100000000E-03 0. -1.
        -11    1    3    3    0    0  0.17710889597E+02 -0.96160464649E+01  0.19265318670E+02  0.27880037010E+02  0.51100000000E-03 0.  1.
        -12    1    3    3    0    0  0.26980036816E+01  0.43904609086E+01  0.53129236267E+01  0.74015220272E+01  0.00000000000E+00 0.  1.
</event>
<event>
 7    1  0.2733256E-010  0.4778727E+02  0.7816164E-02  0.1312668E+00
        -11   -1    0    0    0    0  0.00000000000E+00  0.00000000000E+00  0.45593999997E+02  0.45594000000E+02  0.51100000000E-03 0.  1.
         11   -1    0    0    0    0 -0.00000000000E+00 -0.00000000000E+00 -0.45593999997E+02  0.45594000000E+02  0.51100000000E-03 0. -1.
    9900012    2    1    2    0    0 -0.29542475075E+02 -0.15703430135E+02  0.27645392403E+02  0.47787271058E+02  0.20000000062E+02 0.  0.
         12    1    1    2    0    0  0.29542475075E+02  0.15703430135E+02 -0.27645392403E+02  0.43400728942E+02  0.00000000000E+00 0. -1.
         11    1    3    3    0    0  0.15957115094E+01 -0.10337053239E+01 -0.11141037456E+01  0.22036490952E+01  0.51100000000E-03 0. -1.
        -11    1    3    3    0    0  0.35699120806E+00  0.32438007759E+00  0.34501666836E+00  0.59304461884E+00  0.51100000000E-03 0.  1.
        -12    1    3    3    0    0 -0.31495177792E+02 -0.14994104889E+02  0.28414479481E+02  0.44990577344E+02  0.00000000000E+00 0.  1.
</event>
<event>
 7    1  0.2733256E-010  0.4778727E+02  0.7816164E-02  0.1312668E+00
        -11   -1    0    0    0    0  0.00000000000E+00  0.00000000000E+00  0.45593999997E+02  0.45594000000E+02  0.51100000000E-03 0.  1.
         11   -1    0    0    0    0 -0.00000000000E+00 -0.00000000000E+00 -0.45593999997E+02  0.45594000000E+02  0.51100000000E-03 0. -1.
    9900012    2    1    2    0    0 -0.32480075577E+02  0.13751721718E+02  0.25289485480E+02  0.47787271486E+02  0.20000002013E+02 0.  0.
         12    1    1    2    0    0  0.32480075577E+02 -0.13751721718E+02 -0.25289485480E+02  0.43400728514E+02  0.00000000000E+00 0. -1.
         11    1    3    3    0    0 -0.45438340036E+01 -0.77850222318E+00  0.11958702634E+01  0.47626252332E+01  0.51100000000E-03 0. -1.
        -11    1    3    3    0    0 -0.25991376098E+02  0.60412363365E+01  0.20286192614E+02  0.33519811738E+02  0.51100000000E-03 0.  1.
         12    1    3    3    0    0 -0.19448654756E+01  0.84889876049E+01  0.38074226023E+01  0.95048345144E+01  0.00000000000E+00 0. -1.
</event>
<event>
 7    1  0.2733256E-010  0.4778729E+02  0.7816164E-02  0.1312668E+00
        -11   -1    0    0    0    0  0.00000000000E+00  0.00000000000E+00  0.45593999997E+02  0.45594000000E+02  0.51100000000E-03 0.  1.
         11   -1    0    0    0    0 -0.00000000000E+00 -0.00000000000E+00 -0.45593999997E+02  0.45594000000E+02  0.51100000000E-03 0. -1.
    9900012    2    1    2    0    0  0.68977793625E+01  0.96479230809E+01  0.41748771100E+02  0.47787289542E+02  0.20000084339E+02 0.  0.
         12    1    1    2    0    0 -0.68977793625E+01 -0.96479230809E+01 -0.41748771100E+02  0.43400710458E+02  0.00000000000E+00 0. -1.
         11    1    3    3    0    0  0.45765918144E+01 -0.13090903063E+01  0.63428303012E+01  0.79303471902E+01  0.51100000000E-03 0. -1.
        -11    1    3    3    0    0 -0.18683389687E+00  0.14402139869E+01 -0.12417387870E+01  0.19107691408E+01  0.51100000000E-03 0.  1.
        -12    1    3    3    0    0  0.25080214449E+01  0.95167994002E+01  0.36647679585E+02  0.37946173211E+02  0.00000000000E+00 0.  1.
</event>
<event>
 7    1  0.2733256E-010  0.4778729E+02  0.7816164E-02  0.1312668E+00
        -11   -1    0    0    0    0  0.00000000000E+00  0.00000000000E+00  0.45593999997E+02  0.45594000000E+02  0.51100000000E-03 0. -1.
         11   -1    0    0    0    0 -0.00000000000E+00 -0.00000000000E+00 -0.45593999997E+02  0.45594000000E+02  0.51100000000E-03 0.  1.
    9900012    2    1    2    0    0 -0.21647368248E+02 -0.36011159873E+02 -0.10872433901E+02  0.47787285647E+02  0.20000066578E+02 0.  0.
         12    1    1    2    0    0  0.21647368248E+02  0.36011159873E+02  0.10872433901E+02  0.43400714353E+02  0.00000000000E+00 0. -1.
         11    1    3    3    0    0 -0.82873099358E+01 -0.54617776371E+01  0.79570172243E+00  0.99570910622E+01  0.51100000000E-03 0. -1.
        -11    1    3    3    0    0  0.19855565741E+01 -0.82589590120E+00  0.54646450089E+00  0.22188201055E+01  0.51100000000E-03 0.  1.
        -12    1    3    3    0    0 -0.15345614886E+02 -0.29723486334E+02 -0.12214600124E+02  0.35611374479E+02  0.00000000000E+00 0.  1.
</event>
<event>
 7    1  0.2733256E-010  0.4778724E+02  0.7816164E-02  0.1312668E+00
        -11   -1    0    0    0    0  0.00000000000E+00  0.00000000000E+00  0.45593999997E+02  0.45594000000E+02  0.51100000000E-03 0. -1.
         11   -1    0    0    0    0 -0.00000000000E+00 -0.00000000000E+00 -0.45593999997E+02  0.45594000000E+02  0.51100000000E-03 0.  1.
    9900012    2    1    2    0    0  0.21772717824E+02 -0.33763588907E+02 -0.16419335147E+02  0.47787242587E+02  0.19999870252E+02 0.  0.
         12    1    1    2    0    0 -0.21772717824E+02  0.33763588907E+02  0.16419335147E+02  0.43400757413E+02  0.00000000000E+00 0. -1.
         11    1    3    3    0    0  0.29507519871E+01 -0.46389060363E+01  0.85502958500E+00  0.55639430583E+01  0.51100000000E-03 0. -1.
        -11    1    3    3    0    0  0.19275552594E+02 -0.29685626323E+02 -0.19129150184E+02  0.40233166977E+02  0.51100000000E-03 0.  1.
        -12    1    3    3    0    0 -0.45358675681E+00  0.56094345216E+00  0.18547854517E+01  0.19901325520E+01  0.00000000000E+00 0.  1.
</event>
<event>
 7    1  0.2733256E-010  0.4778727E+02  0.7816164E-02  0.1312668E+00
        -11   -1    0    0    0    0  0.00000000000E+00  0.00000000000E+00  0.45593999997E+02  0.45594000000E+02  0.51100000000E-03 0. -1.
         11   -1    0    0    0    0 -0.00000000000E+00 -0.00000000000E+00 -0.45593999997E+02  0.45594000000E+02  0.51100000000E-03 0.  1.
    9900012    2    1    2    0    0 -0.40296339355E+02  0.57308802283E+01 -0.15066026003E+02  0.47787273126E+02  0.20000009492E+02 0.  0.
         12    1    1    2    0    0  0.40296339355E+02 -0.57308802283E+01  0.15066026003E+02  0.43400726874E+02  0.00000000000E+00 0. -1.
         11    1    3    3    0    0 -0.68506056812E+01  0.19826984925E+01  0.39043784562E+01  0.81305635046E+01  0.51100000000E-03 0. -1.
        -11    1    3    3    0    0 -0.98054889399E+01 -0.39101208386E-01 -0.12808735728E+01  0.98888715042E+01  0.51100000000E-03 0.  1.
        -12    1    3    3    0    0 -0.23640244734E+02  0.37872829442E+01 -0.17689530887E+02  0.29767838118E+02  0.00000000000E+00 0.  1.
</event>
<event>
 7    1  0.2733256E-010  0.4778727E+02  0.7816164E-02  0.1312668E+00
        -11   -1    0    0    0    0  0.00000000000E+00  0.00000000000E+00  0.45593999997E+02  0.45594000000E+02  0.51100000000E-03 0.  1.
         11   -1    0    0    0    0 -0.00000000000E+00 -0.00000000000E+00 -0.45593999997E+02  0.45594000000E+02  0.51100000000E-03 0. -1.
    9900012    2    1    2    0    0 -0.13565457991E+02  0.35877595658E+02 -0.20307627733E+02  0.47787271148E+02  0.20000000473E+02 0.  0.
         12    1    1    2    0    0  0.13565457991E+02 -0.35877595658E+02  0.20307627733E+02  0.43400728852E+02  0.00000000000E+00 0. -1.
         11    1    3    3    0    0 -0.73700027086E+01  0.12604788751E+02 -0.12932730865E+02  0.19505208721E+02  0.51100000000E-03 0. -1.
        -11    1    3    3    0    0 -0.38557651157E+01  0.17824304922E+00 -0.23904995929E+01  0.45401744214E+01  0.51100000000E-03 0.  1.
        -12    1    3    3    0    0 -0.23396901670E+01  0.23094563858E+02 -0.49843972751E+01  0.23741888005E+02  0.00000000000E+00 0.  1.
</event>
<event>
 7    1  0.2733256E-010  0.4778727E+02  0.7816164E-02  0.1312668E+00
        -11   -1    0    0    0    0  0.00000000000E+00  0.00000000000E+00  0.45593999997E+02  0.45594000000E+02  0.51100000000E-03 0.  1.
         11   -1    0    0    0    0 -0.00000000000E+00 -0.00000000000E+00 -0.45593999997E+02  0.45594000000E+02  0.51100000000E-03 0. -1.
    9900012    2    1    2    0    0 -0.76252910955E+01 -0.30732446392E+02  0.29681561812E+02  0.47787269164E+02  0.19999991424E+02 0.  0.
         12    1    1    2    0    0  0.76252910955E+01  0.30732446392E+02 -0.29681561812E+02  0.43400730836E+02  0.00000000000E+00 0. -1.
         11    1    3    3    0    0  0.44158627343E+01 -0.39104381422E+01  0.71907837379E+01  0.93004699440E+01  0.51100000000E-03 0. -1.
        -11    1    3    3    0    0 -0.99491395640E-01 -0.31606783714E+01  0.72585996416E+01  0.79175157293E+01  0.51100000000E-03 0.  1.
        -12    1    3    3    0    0 -0.11941662434E+02 -0.23661329879E+02  0.15232178432E+02  0.30569283490E+02  0.00000000000E+00 0.  1.
</event>
<event>
 7    1  0.2733256E-010  0.4778727E+02  0.7816164E-02  0.1312668E+00
        -11   -1    0    0    0    0  0.00000000000E+00  0.00000000000E+00  0.45593999997E+02  0.45594000000E+02  0.51100000000E-03 0.  1.
         11   -1    0    0    0    0 -0.00000000000E+00 -0.00000000000E+00 -0.45593999997E+02  0.45594000000E+02  0.51100000000E-03 0. -1.
    9900012    2    1    2    0    0  0.12079224583E+02  0.34323855247E+02  0.23655623804E+02  0.47787271399E+02  0.20000001616E+02 0.  0.
         12    1    1    2    0    0 -0.12079224583E+02 -0.34323855247E+02 -0.23655623804E+02  0.43400728601E+02  0.00000000000E+00 0. -1.
         11    1    3    3    0    0  0.11726310523E+01  0.43129482353E+01 -0.60492871972E+00  0.45102688481E+01  0.51100000000E-03 0. -1.
        -11    1    3    3    0    0  0.13520160323E+02  0.29111523259E+02  0.24669624070E+02  0.40482908414E+02  0.51100000000E-03 0.  1.
        -12    1    3    3    0    0 -0.26135667927E+01  0.89938375252E+00 -0.40907154656E+00  0.27940941366E+01  0.00000000000E+00 0.  1.
</event>
<event>
 7    1  0.2733256E-010  0.4778726E+02  0.7816164E-02  0.1312668E+00
        -11   -1    0    0    0    0  0.00000000000E+00  0.00000000000E+00  0.45593999997E+02  0.45594000000E+02  0.51100000000E-03 0. -1.
         11   -1    0    0    0    0 -0.00000000000E+00 -0.00000000000E+00 -0.45593999997E+02  0.45594000000E+02  0.51100000000E-03 0.  1.
    9900012    2    1    2    0    0  0.26631302856E+02 -0.27971781706E+02 -0.19798413213E+02  0.47787262341E+02  0.19999960317E+02 0.  0.
         12    1    1    2    0    0 -0.26631302856E+02  0.27971781706E+02  0.19798413213E+02  0.43400737659E+02  0.00000000000E+00 0. -1.
         11    1    3    3    0    0  0.27138790638E+01 -0.14886985370E+02 -0.49758875727E+01  0.15929435972E+02  0.51100000000E-03 0. -1.
        -11    1    3    3    0    0  0.48382934565E+01 -0.32182000847E+01 -0.90042120368E-01  0.58115405187E+01  0.51100000000E-03 0.  1.
         12    1    3    3    0    0  0.19079130335E+02 -0.98665962517E+01 -0.14732483520E+02  0.26046285851E+02  0.00000000000E+00 0. -1.
</event>
<event>
 7    1  0.2733256E-010  0.4778727E+02  0.7816164E-02  0.1312668E+00
        -11   -1    0    0    0    0  0.00000000000E+00  0.00000000000E+00  0.45593999997E+02  0.45594000000E+02  0.51100000000E-03 0. -1.
         11   -1    0    0    0    0 -0.00000000000E+00 -0.00000000000E+00 -0.45593999997E+02  0.45594000000E+02  0.51100000000E-03 0.  1.
    9900012    2    1    2    0    0 -0.10984088042E+02 -0.40164074232E+02 -0.12240116178E+02  0.47787268519E+02  0.19999988484E+02 0.  0.
         12    1    1    2    0    0  0.10984088042E+02  0.40164074232E+02  0.12240116178E+02  0.43400731481E+02  0.00000000000E+00 0. -1.
         11    1    3    3    0    0 -0.49042618561E+01 -0.17650396719E+02  0.51366141320E+00  0.18326269042E+02  0.51100000000E-03 0. -1.
        -11    1    3    3    0    0 -0.79862972347E+01 -0.63909702611E+01 -0.37358739958E+01  0.10889545407E+02  0.51100000000E-03 0.  1.
        -12    1    3    3    0    0  0.19064710487E+01 -0.16122707252E+02 -0.90179035957E+01  0.18571454069E+02  0.00000000000E+00 0.  1.
</event>
<event>
 7    1  0.2733256E-010  0.4778728E+02  0.7816164E-02  0.1312668E+00
        -11   -1    0    0    0    0  0.00000000000E+00  0.00000000000E+00  0.45593999997E+02  0.45594000000E+02  0.51100000000E-03 0. -1.
         11   -1    0    0    0    0 -0.00000000000E+00 -0.00000000000E+00 -0.45593999997E+02  0.45594000000E+02  0.51100000000E-03 0.  1.
    9900012    2    1    2    0    0 -0.40503064933E+02 -0.79652756117E+01  0.13404427459E+02  0.47787279268E+02  0.20000037494E+02 0.  0.
         12    1    1    2    0    0  0.40503064933E+02  0.79652756117E+01 -0.13404427459E+02  0.43400720732E+02  0.00000000000E+00 0. -1.
         11    1    3    3    0    0 -0.13186770589E+02 -0.65774750441E+01  0.97164258679E+01  0.17651148077E+02  0.51100000000E-03 0. -1.
        -11    1    3    3    0    0 -0.22624663503E+02 -0.34203517431E+01  0.71365992651E+01  0.23968839229E+02  0.51100000000E-03 0.  1.
         12    1    3    3    0    0 -0.46916308416E+01  0.20325511754E+01 -0.34485976736E+01  0.61672919623E+01  0.00000000000E+00 0. -1.
</event>
<event>
 7    1  0.2733256E-010  0.4778726E+02  0.7816164E-02  0.1312668E+00
        -11   -1    0    0    0    0  0.00000000000E+00  0.00000000000E+00  0.45593999997E+02  0.45594000000E+02  0.51100000000E-03 0.  1.
         11   -1    0    0    0    0 -0.00000000000E+00 -0.00000000000E+00 -0.45593999997E+02  0.45594000000E+02  0.51100000000E-03 0. -1.
    9900012    2    1    2    0    0  0.66523407019E+01  0.25357421729E+02  0.34588606499E+02  0.47787260684E+02  0.19999952764E+02 0.  0.
         12    1    1    2    0    0 -0.66523407019E+01 -0.25357421729E+02 -0.34588606499E+02  0.43400739316E+02  0.00000000000E+00 0. -1.
         11    1    3    3    0    0 -0.39660672006E+01  0.62480588281E+01  0.30231275726E+01  0.79941996936E+01  0.51100000000E-03 0. -1.
        -11    1    3    3    0    0  0.10038921142E+01 -0.13152740812E+01  0.22601338272E+01  0.28010623812E+01  0.51100000000E-03 0.  1.
        -12    1    3    3    0    0  0.96145157883E+01  0.20424636983E+02  0.29305345100E+02  0.36991998609E+02  0.00000000000E+00 0.  1.
</event>
<event>
 7    1  0.2733256E-010  0.4778728E+02  0.7816164E-02  0.1312668E+00
        -11   -1    0    0    0    0  0.00000000000E+00  0.00000000000E+00  0.45593999997E+02  0.45594000000E+02  0.51100000000E-03 0.  1.
         11   -1    0    0    0    0 -0.00000000000E+00 -0.00000000000E+00 -0.45593999997E+02  0.45594000000E+02  0.51100000000E-03 0. -1.
    9900012    2    1    2    0    0  0.14521882775E+01 -0.25585898771E+02  0.35026786481E+02  0.47787276067E+02  0.20000022900E+02 0.  0.
         12    1    1    2    0    0 -0.14521882775E+01  0.25585898771E+02 -0.35026786481E+02  0.43400723933E+02  0.00000000000E+00 0. -1.
         11    1    3    3    0    0  0.17382586460E+01 -0.44930565789E+01  0.11824732381E+01  0.49605789744E+01  0.51100000000E-03 0. -1.
        -11    1    3    3    0    0  0.37913099724E+01 -0.70069157289E+01  0.27157453113E+01  0.84170168228E+01  0.51100000000E-03 0.  1.
        -12    1    3    3    0    0 -0.40773803410E+01 -0.14085926463E+02  0.31128567932E+02  0.34409680270E+02  0.00000000000E+00 0.  1.
</event>
<event>
 7    1  0.2733256E-010  0.4778727E+02  0.7816164E-02  0.1312668E+00
        -11   -1    0    0    0    0  0.00000000000E+00  0.00000000000E+00  0.45593999997E+02  0.45594000000E+02  0.51100000000E-03 0.  1.
         11   -1    0    0    0    0 -0.00000000000E+00 -0.00000000000E+00 -0.45593999997E+02  0.45594000000E+02  0.51100000000E-03 0. -1.
    9900012    2    1    2    0    0  0.35890693863E+02 -0.15668587218E+02 -0.18707659095E+02  0.47787273736E+02  0.20000012273E+02 0.  0.
         12    1    1    2    0    0 -0.35890693863E+02  0.15668587218E+02  0.18707659095E+02  0.43400726264E+02  0.00000000000E+00 0. -1.
         11    1    3    3    0    0  0.14540207776E+02 -0.12489634701E+02 -0.92096557816E+01  0.21265614898E+02  0.51100000000E-03 0. -1.
        -11    1    3    3    0    0  0.16275940417E+02 -0.57047771844E+01 -0.23611537933E+01  0.17407635298E+02  0.51100000000E-03 0.  1.
        -12    1    3    3    0    0  0.50745456707E+01  0.25258246668E+01 -0.71368495203E+01  0.91140235400E+01  0.00000000000E+00 0.  1.
</event>
<event>
 7    1  0.2733256E-010  0.4778727E+02  0.7816164E-02  0.1312668E+00
        -11   -1    0    0    0    0  0.00000000000E+00  0.00000000000E+00  0.45593999997E+02  0.45594000000E+02  0.51100000000E-03 0. -1.
         11   -1    0    0    0    0 -0.00000000000E+00 -0.00000000000E+00 -0.45593999997E+02  0.45594000000E+02  0.51100000000E-03 0.  1.
    9900012    2    1    2    0    0  0.41138292752E+02  0.11369734131E+02 -0.78735687093E+01  0.47787273405E+02  0.20000010762E+02 0.  0.
         12    1    1    2    0    0 -0.41138292752E+02 -0.11369734131E+02  0.78735687093E+01  0.43400726595E+02  0.00000000000E+00 0. -1.
         11    1    3    3    0    0 -0.70948301091E+00 -0.19657881140E+01  0.49394820174E+00  0.21474808821E+01  0.51100000000E-03 0. -1.
        -11    1    3    3    0    0  0.14657690175E+02  0.22493595684E+01  0.87821961844E+00  0.14855260674E+02  0.51100000000E-03 0.  1.
        -12    1    3    3    0    0  0.27190085588E+02  0.11086162676E+02 -0.92457365295E+01  0.30784531849E+02  0.00000000000E+00 0.  1.
</event>
<event>
 7    1  0.2733256E-010  0.4778727E+02  0.7816164E-02  0.1312668E+00
        -11   -1    0    0    0    0  0.00000000000E+00  0.00000000000E+00  0.45593999997E+02  0.45594000000E+02  0.51100000000E-03 0. -1.
         11   -1    0    0    0    0 -0.00000000000E+00 -0.00000000000E+00 -0.45593999997E+02  0.45594000000E+02  0.51100000000E-03 0.  1.
    9900012    2    1    2    0    0  0.12977832973E+02  0.16584310979E+02 -0.37949440232E+02  0.47787268056E+02  0.19999986375E+02 0.  0.
         12    1    1    2    0    0 -0.12977832973E+02 -0.16584310979E+02  0.37949440232E+02  0.43400731944E+02  0.00000000000E+00 0. -1.
         11    1    3    3    0    0  0.81150633168E+01  0.76275690145E+01 -0.20415629311E+02  0.23255794592E+02  0.51100000000E-03 0. -1.
        -11    1    3    3    0    0  0.63612915038E+01  0.10852668986E+02 -0.85051683347E+01  0.15185003865E+02  0.51100000000E-03 0.  1.
         12    1    3    3    0    0 -0.14985218476E+01 -0.18959270218E+01 -0.90286425870E+01  0.93464695989E+01  0.00000000000E+00 0. -1.
</event>
<event>
 7    1  0.2733256E-010  0.4778727E+02  0.7816164E-02  0.1312668E+00
        -11   -1    0    0    0    0  0.00000000000E+00  0.00000000000E+00  0.45593999997E+02  0.45594000000E+02  0.51100000000E-03 0. -1.
         11   -1    0    0    0    0 -0.00000000000E+00 -0.00000000000E+00 -0.45593999997E+02  0.45594000000E+02  0.51100000000E-03 0.  1.
    9900012    2    1    2    0    0 -0.10757678314E+02  0.42026434847E+02 -0.12939047091E+01  0.47787273531E+02  0.20000011338E+02 0.  0.
         12    1    1    2    0    0  0.10757678314E+02 -0.42026434847E+02  0.12939047091E+01  0.43400726469E+02  0.00000000000E+00 0. -1.
         11    1    3    3    0    0  0.21045341952E+01  0.19411090215E+01  0.25772910253E+01  0.38521938817E+01  0.51100000000E-03 0. -1.
        -11    1    3    3    0    0 -0.37700812455E+00  0.69774405582E+01 -0.49031332623E+01  0.85362478829E+01  0.51100000000E-03 0.  1.
         12    1    3    3    0    0 -0.12485204385E+02  0.33107885267E+02  0.10319375279E+01  0.35398831767E+02  0.00000000000E+00 0. -1.
</event>
<event>
 7    1  0.2733256E-010  0.4778727E+02  0.7816164E-02  0.1312668E+00
        -11   -1    0    0    0    0  0.00000000000E+00  0.00000000000E+00  0.45593999997E+02  0.45594000000E+02  0.51100000000E-03 0.  1.
         11   -1    0    0    0    0 -0.00000000000E+00 -0.00000000000E+00 -0.45593999997E+02  0.45594000000E+02  0.51100000000E-03 0. -1.
    9900012    2    1    2    0    0 -0.30009929963E+02 -0.24784040933E+01  0.31255152910E+02  0.47787274584E+02  0.20000016139E+02 0.  0.
         12    1    1    2    0    0  0.30009929963E+02  0.24784040933E+01 -0.31255152910E+02  0.43400725416E+02  0.00000000000E+00 0. -1.
         11    1    3    3    0    0 -0.14526249313E+02 -0.62636459339E+01  0.22402461022E+02  0.27424723145E+02  0.51100000000E-03 0. -1.
        -11    1    3    3    0    0 -0.12674617780E+02  0.17237508085E+01  0.10461689691E+02  0.16524654434E+02  0.51100000000E-03 0.  1.
         12    1    3    3    0    0 -0.28090628701E+01  0.20614910321E+01 -0.16089978041E+01  0.38378970045E+01  0.00000000000E+00 0. -1.
</event>
<event>
 7    1  0.2733256E-010  0.4778727E+02  0.7816164E-02  0.1312668E+00
        -11   -1    0    0    0    0  0.00000000000E+00  0.00000000000E+00  0.45593999997E+02  0.45594000000E+02  0.51100000000E-03 0.  1.
         11   -1    0    0    0    0 -0.00000000000E+00 -0.00000000000E+00 -0.45593999997E+02  0.45594000000E+02  0.51100000000E-03 0. -1.
    9900012    2    1    2    0    0  0.28628044383E+02  0.26312749529E+02  0.19279450765E+02  0.47787274952E+02  0.20000017814E+02 0.  0.
         12    1    1    2    0    0 -0.28628044383E+02 -0.26312749529E+02 -0.19279450765E+02  0.43400725048E+02  0.00000000000E+00 0. -1.
         11    1    3    3    0    0  0.63429013217E+01  0.35032697032E+01 -0.92428319497E+00  0.73047652581E+01  0.51100000000E-03 0. -1.
        -11    1    3    3    0    0  0.56642520463E+01  0.34246023432E-01  0.78973430762E+01  0.97186908562E+01  0.51100000000E-03 0.  1.
        -12    1    3    3    0    0  0.16620891015E+02  0.22775233802E+02  0.12306390883E+02  0.30763818837E+02  0.00000000000E+00 0.  1.
</event>
<event>
 7    1  0.2733256E-010  0.4778728E+02  0.7816164E-02  0.1312668E+00
        -11   -1    0    0    0    0  0.00000000000E+00  0.00000000000E+00  0.45593999997E+02  0.45594000000E+02  0.51100000000E-03 0.  1.
         11   -1    0    0    0    0 -0.00000000000E+00 -0.00000000000E+00 -0.45593999997E+02  0.45594000000E+02  0.51100000000E-03 0. -1.
    9900012    2    1    2    0    0 -0.39898021765E+01 -0.40766019061E+02  0.14346988651E+02  0.47787275180E+02  0.20000018857E+02 0.  0.
         12    1    1    2    0    0  0.39898021765E+01  0.40766019061E+02 -0.14346988651E+02  0.43400724820E+02  0.00000000000E+00 0. -1.
         11    1    3    3    0    0  0.34187775400E+01 -0.36996127979E+01 -0.98875799023E+00  0.51334995225E+01  0.51100000000E-03 0. -1.
        -11    1    3    3    0    0 -0.27548008583E+01 -0.34381449791E+00  0.84132882866E+00  0.29008568797E+01  0.51100000000E-03 0.  1.
        -12    1    3    3    0    0 -0.46537788583E+01 -0.36722591765E+02  0.14494417813E+02  0.39752918778E+02  0.00000000000E+00 0.  1.
</event>
<event>
 7    1  0.2733256E-010  0.4778727E+02  0.7816164E-02  0.1312668E+00
        -11   -1    0    0    0    0  0.00000000000E+00  0.00000000000E+00  0.45593999997E+02  0.45594000000E+02  0.51100000000E-03 0. -1.
         11   -1    0    0    0    0 -0.00000000000E+00 -0.00000000000E+00 -0.45593999997E+02  0.45594000000E+02  0.51100000000E-03 0.  1.
    9900012    2    1    2    0    0 -0.86657647383E+01  0.40834653613E+02 -0.11876814827E+02  0.47787272534E+02  0.20000006790E+02 0.  0.
         12    1    1    2    0    0  0.86657647383E+01 -0.40834653613E+02  0.11876814827E+02  0.43400727466E+02  0.00000000000E+00 0. -1.
         11    1    3    3    0    0 -0.61537019546E+01  0.62759518937E+01 -0.37879277593E+01  0.95709987404E+01  0.51100000000E-03 0.  1.
        -11    1    3    3    0    0 -0.63021685070E+01  0.12031912897E+02  0.10267137132E+01  0.13621248003E+02  0.51100000000E-03 0. -1.
        -12    1    3    3    0    0  0.37901057233E+01  0.22526788822E+02 -0.91156007806E+01  0.24595025790E+02  0.00000000000E+00 0.  1.
</event>
<event>
 7    1  0.2733256E-010  0.4778727E+02  0.7816164E-02  0.1312668E+00
        -11   -1    0    0    0    0  0.00000000000E+00  0.00000000000E+00  0.45593999997E+02  0.45594000000E+02  0.51100000000E-03 0. -1.
         11   -1    0    0    0    0 -0.00000000000E+00 -0.00000000000E+00 -0.45593999997E+02  0.45594000000E+02  0.51100000000E-03 0.  1.
    9900012    2    1    2    0    0  0.19610850045E+02  0.30682337690E+02 -0.23614232531E+02  0.47787271162E+02  0.20000000537E+02 0.  0.
         12    1    1    2    0    0 -0.19610850045E+02 -0.30682337690E+02  0.23614232531E+02  0.43400728838E+02  0.00000000000E+00 0. -1.
         11    1    3    3    0    0  0.40308469847E+01  0.64462278005E+00 -0.12239342453E+01  0.42616054769E+01  0.51100000000E-03 0. -1.
        -11    1    3    3    0    0  0.91096861963E+01  0.19467894792E+02 -0.22521439628E+02  0.31131986018E+02  0.51100000000E-03 0.  1.
        -12    1    3    3    0    0  0.64703168637E+01  0.10569820118E+02  0.13114134261E+00  0.12393679668E+02  0.00000000000E+00 0.  1.
</event>
<event>
 7    1  0.2733256E-010  0.4778727E+02  0.7816164E-02  0.1312668E+00
        -11   -1    0    0    0    0  0.00000000000E+00  0.00000000000E+00  0.45593999997E+02  0.45594000000E+02  0.51100000000E-03 0.  1.
         11   -1    0    0    0    0 -0.00000000000E+00 -0.00000000000E+00 -0.45593999997E+02  0.45594000000E+02  0.51100000000E-03 0. -1.
    9900012    2    1    2    0    0 -0.35083620256E+02 -0.11744636167E+02  0.22689784626E+02  0.47787271719E+02  0.20000003076E+02 0.  0.
         12    1    1    2    0    0  0.35083620256E+02  0.11744636167E+02 -0.22689784626E+02  0.43400728281E+02  0.00000000000E+00 0. -1.
         11    1    3    3    0    0 -0.83862416263E+01  0.20873464361E+01  0.40687972467E+01  0.95520246573E+01  0.51100000000E-03 0. -1.
        -11    1    3    3    0    0 -0.47728341138E+01  0.44199405182E-01  0.96772292003E+01  0.10790304181E+02  0.51100000000E-03 0.  1.
        -12    1    3    3    0    0 -0.21924544516E+02 -0.13876182009E+02  0.89437581786E+01  0.27444942881E+02  0.00000000000E+00 0.  1.
</event>
<event>
 7    1  0.2733256E-010  0.4778727E+02  0.7816164E-02  0.1312668E+00
        -11   -1    0    0    0    0  0.00000000000E+00  0.00000000000E+00  0.45593999997E+02  0.45594000000E+02  0.51100000000E-03 0. -1.
         11   -1    0    0    0    0 -0.00000000000E+00 -0.00000000000E+00 -0.45593999997E+02  0.45594000000E+02  0.51100000000E-03 0.  1.
    9900012    2    1    2    0    0 -0.39470836704E+02 -0.16655223569E+02 -0.69483888367E+01  0.47787268097E+02  0.19999986561E+02 0.  0.
         12    1    1    2    0    0  0.39470836704E+02  0.16655223569E+02  0.69483888367E+01  0.43400731903E+02  0.00000000000E+00 0. -1.
         11    1    3    3    0    0 -0.21797077095E+02 -0.14566452837E+02 -0.55431309233E+01  0.26795903023E+02  0.51100000000E-03 0. -1.
        -11    1    3    3    0    0 -0.14948359844E+02 -0.41626271055E+01 -0.47261903830E+01  0.16220906333E+02  0.51100000000E-03 0.  1.
        -12    1    3    3    0    0 -0.27253997653E+01  0.20738563729E+01  0.33209324696E+01  0.47704587415E+01  0.00000000000E+00 0.  1.
</event>
<event>
 7    1  0.2733256E-010  0.4778729E+02  0.7816164E-02  0.1312668E+00
        -11   -1    0    0    0    0  0.00000000000E+00  0.00000000000E+00  0.45593999997E+02  0.45594000000E+02  0.51100000000E-03 0.  1.
         11   -1    0    0    0    0 -0.00000000000E+00 -0.00000000000E+00 -0.45593999997E+02  0.45594000000E+02  0.51100000000E-03 0. -1.
    9900012    2    1    2    0    0  0.13073377525E+02  0.37522087923E+02  0.17458566943E+02  0.47787287544E+02  0.20000075226E+02 0.  0.
         12    1    1    2    0    0 -0.13073377525E+02 -0.37522087923E+02 -0.17458566943E+02  0.43400712456E+02  0.00000000000E+00 0. -1.
         11    1    3    3    0    0 -0.10123598516E+01 -0.26379062438E+00 -0.11697033023E+01  0.15692877490E+01  0.51100000000E-03 0. -1.
        -11    1    3    3    0    0  0.11882740024E+01  0.19251752443E+02  0.11870449921E+02  0.22648389542E+02  0.51100000000E-03 0.  1.
         12    1    3    3    0    0  0.12897463375E+02  0.18534126104E+02  0.67578203233E+01  0.23569610253E+02  0.00000000000E+00 0. -1.
</event>
<event>
 7    1  0.2733256E-010  0.4778727E+02  0.7816164E-02  0.1312668E+00
        -11   -1    0    0    0    0  0.00000000000E+00  0.00000000000E+00  0.45593999997E+02  0.45594000000E+02  0.51100000000E-03 0.  1.
         11   -1    0    0    0    0 -0.00000000000E+00 -0.00000000000E+00 -0.45593999997E+02  0.45594000000E+02  0.51100000000E-03 0. -1.
    9900012    2    1    2    0    0  0.23073541395E+02 -0.90634530043E+01  0.35624272319E+02  0.47787271076E+02  0.20000000143E+02 0.  0.
         12    1    1    2    0    0 -0.23073541395E+02  0.90634530043E+01 -0.35624272319E+02  0.43400728924E+02  0.00000000000E+00 0. -1.
         11    1    3    3    0    0  0.40850936630E+00 -0.55846679086E+01  0.10373185297E+02  0.11788060443E+02  0.51100000000E-03 0. -1.
        -11    1    3    3    0    0  0.69643961720E+01  0.82440612203E+00  0.15524889268E+02  0.17035393935E+02  0.51100000000E-03 0.  1.
         12    1    3    3    0    0  0.15700635857E+02 -0.43031912178E+01  0.97261977550E+01  0.18963816697E+02  0.00000000000E+00 0. -1.
</event>
<event>
 7    1  0.2733256E-010  0.4778727E+02  0.7816164E-02  0.1312668E+00
        -11   -1    0    0    0    0  0.00000000000E+00  0.00000000000E+00  0.45593999997E+02  0.45594000000E+02  0.51100000000E-03 0.  1.
         11   -1    0    0    0    0 -0.00000000000E+00 -0.00000000000E+00 -0.45593999997E+02  0.45594000000E+02  0.51100000000E-03 0. -1.
    9900012    2    1    2    0    0  0.30139682679E+02 -0.22906480965E+01  0.31144435722E+02  0.47787269394E+02  0.19999992477E+02 0.  0.
         12    1    1    2    0    0 -0.30139682679E+02  0.22906480965E+01 -0.31144435722E+02  0.43400730606E+02  0.00000000000E+00 0. -1.
         11    1    3    3    0    0 -0.20080295358E+01  0.97358369271E+00  0.21296648965E+01  0.30847237568E+01  0.51100000000E-03 0. -1.
        -11    1    3    3    0    0  0.90848817581E+01 -0.37749062760E+01  0.38504204923E+01  0.10564598060E+02  0.51100000000E-03 0.  1.
        -12    1    3    3    0    0  0.23062830457E+02  0.51067448680E+00  0.25164350333E+02  0.34137947577E+02  0.00000000000E+00 0.  1.
</event>
<event>
 7    1  0.2733256E-010  0.4778727E+02  0.7816164E-02  0.1312668E+00
        -11   -1    0    0    0    0  0.00000000000E+00  0.00000000000E+00  0.45593999997E+02  0.45594000000E+02  0.51100000000E-03 0.  1.
         11   -1    0    0    0    0 -0.00000000000E+00 -0.00000000000E+00 -0.45593999997E+02  0.45594000000E+02  0.51100000000E-03 0. -1.
    9900012    2    1    2    0    0 -0.15560984258E+02 -0.20090430805E+02  0.35183142560E+02  0.47787272340E+02  0.20000005908E+02 0.  0.
         12    1    1    2    0    0  0.15560984258E+02  0.20090430805E+02 -0.35183142560E+02  0.43400727660E+02  0.00000000000E+00 0. -1.
         11    1    3    3    0    0 -0.60422390185E+01 -0.12870291528E+02  0.60754935085E+01  0.15461716528E+02  0.51100000000E-03 0. -1.
        -11    1    3    3    0    0  0.64673650632E+00 -0.48195137832E+00  0.45182963201E-01  0.80782857151E+00  0.51100000000E-03 0.  1.
        -12    1    3    3    0    0 -0.10165481746E+02 -0.67381878987E+01  0.29062466088E+02  0.31517727241E+02  0.00000000000E+00 0.  1.
</event>
<event>
 7    1  0.2733256E-010  0.4778727E+02  0.7816164E-02  0.1312668E+00
        -11   -1    0    0    0    0  0.00000000000E+00  0.00000000000E+00  0.45593999997E+02  0.45594000000E+02  0.51100000000E-03 0.  1.
         11   -1    0    0    0    0 -0.00000000000E+00 -0.00000000000E+00 -0.45593999997E+02  0.45594000000E+02  0.51100000000E-03 0. -1.
    9900012    2    1    2    0    0 -0.52090840283E+01  0.33020729049E+02  0.27678881568E+02  0.47787267423E+02  0.19999983490E+02 0.  0.
         12    1    1    2    0    0  0.52090840283E+01 -0.33020729049E+02 -0.27678881568E+02  0.43400732577E+02  0.00000000000E+00 0. -1.
         11    1    3    3    0    0 -0.78082815714E+01  0.53264630561E+01  0.75743656194E+01  0.12112451634E+02  0.51100000000E-03 0.  1.
        -11    1    3    3    0    0 -0.95442054641E+00  0.42314012786E+00  0.32633661221E+01  0.34262990026E+01  0.51100000000E-03 0. -1.
         12    1    3    3    0    0  0.35536180895E+01  0.27271125865E+02  0.16841149826E+02  0.32248516787E+02  0.00000000000E+00 0. -1.
</event>
<event>
 7    1  0.2733256E-010  0.4778728E+02  0.7816164E-02  0.1312668E+00
        -11   -1    0    0    0    0  0.00000000000E+00  0.00000000000E+00  0.45593999997E+02  0.45594000000E+02  0.51100000000E-03 0.  1.
         11   -1    0    0    0    0 -0.00000000000E+00 -0.00000000000E+00 -0.45593999997E+02  0.45594000000E+02  0.51100000000E-03 0. -1.
    9900012    2    1    2    0    0 -0.10781998692E+02 -0.41421600292E+02  0.71848441036E+01  0.47787280521E+02  0.20000043208E+02 0.  0.
         12    1    1    2    0    0  0.10781998692E+02  0.41421600292E+02 -0.71848441036E+01  0.43400719479E+02  0.00000000000E+00 0. -1.
         11    1    3    3    0    0  0.31192202396E+01 -0.62466721240E+01  0.20828860948E+00  0.69852581867E+01  0.51100000000E-03 0. -1.
        -11    1    3    3    0    0  0.17833561548E+01 -0.12474743098E+02  0.25616413314E+01  0.12859299402E+02  0.51100000000E-03 0.  1.
         12    1    3    3    0    0 -0.15684575086E+02 -0.22700185069E+02  0.44149141627E+01  0.27942722932E+02  0.00000000000E+00 0. -1.
</event>
<event>
 7    1  0.2733256E-010  0.4778727E+02  0.7816164E-02  0.1312668E+00
        -11   -1    0    0    0    0  0.00000000000E+00  0.00000000000E+00  0.45593999997E+02  0.45594000000E+02  0.51100000000E-03 0.  1.
         11   -1    0    0    0    0 -0.00000000000E+00 -0.00000000000E+00 -0.45593999997E+02  0.45594000000E+02  0.51100000000E-03 0. -1.
    9900012    2    1    2    0    0  0.30782904000E+02 -0.25529254947E+02  0.16861000910E+02  0.47787269723E+02  0.19999993977E+02 0.  0.
         12    1    1    2    0    0 -0.30782904000E+02  0.25529254947E+02 -0.16861000910E+02  0.43400730277E+02  0.00000000000E+00 0. -1.
         11    1    3    3    0    0  0.24534629189E+01 -0.23684088830E+01 -0.30516015443E+01  0.45761461054E+01  0.51100000000E-03 0. -1.
        -11    1    3    3    0    0  0.60742118121E+01 -0.39768895264E+01 -0.73815643650E+00  0.72977102319E+01  0.51100000000E-03 0.  1.
        -12    1    3    3    0    0  0.22255229269E+02 -0.19183956538E+02  0.20650758891E+02  0.35913413386E+02  0.00000000000E+00 0.  1.
</event>
<event>
 7    1  0.2733256E-010  0.4778727E+02  0.7816164E-02  0.1312668E+00
        -11   -1    0    0    0    0  0.00000000000E+00  0.00000000000E+00  0.45593999997E+02  0.45594000000E+02  0.51100000000E-03 0.  1.
         11   -1    0    0    0    0 -0.00000000000E+00 -0.00000000000E+00 -0.45593999997E+02  0.45594000000E+02  0.51100000000E-03 0. -1.
    9900012    2    1    2    0    0  0.11758773840E+02 -0.25353390308E+02  0.33204827468E+02  0.47787265795E+02  0.19999976064E+02 0.  0.
         12    1    1    2    0    0 -0.11758773840E+02  0.25353390308E+02 -0.33204827468E+02  0.43400734205E+02  0.00000000000E+00 0. -1.
         11    1    3    3    0    0  0.59245788782E+01 -0.12401299294E+02  0.43733706323E+01  0.14422871767E+02  0.51100000000E-03 0. -1.
        -11    1    3    3    0    0 -0.62383478792E-01  0.13340760132E+01  0.22892229470E+01  0.26503193146E+01  0.51100000000E-03 0.  1.
        -12    1    3    3    0    0  0.58965784408E+01 -0.14286167028E+02  0.26542233889E+02  0.30714074713E+02  0.00000000000E+00 0.  1.
</event>
<event>
 7    1  0.2733256E-010  0.4778726E+02  0.7816164E-02  0.1312668E+00
        -11   -1    0    0    0    0  0.00000000000E+00  0.00000000000E+00  0.45593999997E+02  0.45594000000E+02  0.51100000000E-03 0. -1.
         11   -1    0    0    0    0 -0.00000000000E+00 -0.00000000000E+00 -0.45593999997E+02  0.45594000000E+02  0.51100000000E-03 0.  1.
    9900012    2    1    2    0    0 -0.34155325821E+01  0.26697702945E+02 -0.34046888538E+02  0.47787264701E+02  0.19999971078E+02 0.  0.
         12    1    1    2    0    0  0.34155325821E+01 -0.26697702945E+02  0.34046888538E+02  0.43400735299E+02  0.00000000000E+00 0. -1.
         11    1    3    3    0    0  0.11539984485E+01  0.97744858330E+00 -0.97198307289E+01  0.98367793415E+01  0.51100000000E-03 0. -1.
        -11    1    3    3    0    0 -0.88138851117E+01  0.13542460088E+02 -0.14861585436E+02  0.21953348673E+02  0.51100000000E-03 0.  1.
        -12    1    3    3    0    0  0.42443540811E+01  0.12177794273E+02 -0.94654723730E+01  0.15997136687E+02  0.00000000000E+00 0.  1.
</event>
<event>
 7    1  0.2733256E-010  0.4778728E+02  0.7816164E-02  0.1312668E+00
        -11   -1    0    0    0    0  0.00000000000E+00  0.00000000000E+00  0.45593999997E+02  0.45594000000E+02  0.51100000000E-03 0. -1.
         11   -1    0    0    0    0 -0.00000000000E+00 -0.00000000000E+00 -0.45593999997E+02  0.45594000000E+02  0.51100000000E-03 0.  1.
    9900012    2    1    2    0    0 -0.26453995803E+02 -0.27026271035E+02 -0.21292948033E+02  0.47787275860E+02  0.20000021955E+02 0.  0.
         12    1    1    2    0    0  0.26453995803E+02  0.27026271035E+02  0.21292948033E+02  0.43400724140E+02  0.00000000000E+00 0. -1.
         11    1    3    3    0    0  0.26482258971E+01 -0.48937984902E+01 -0.27155967586E+01  0.61916742551E+01  0.51100000000E-03 0. -1.
        -11    1    3    3    0    0 -0.47791234976E+01 -0.30572528506E+01 -0.59028649817E+01  0.81872236840E+01  0.51100000000E-03 0.  1.
        -12    1    3    3    0    0 -0.24323098202E+02 -0.19075219694E+02 -0.12674486293E+02  0.33408377921E+02  0.00000000000E+00 0.  1.
</event>
<event>
 7    1  0.2733256E-010  0.4778726E+02  0.7816164E-02  0.1312668E+00
        -11   -1    0    0    0    0  0.00000000000E+00  0.00000000000E+00  0.45593999997E+02  0.45594000000E+02  0.51100000000E-03 0. -1.
         11   -1    0    0    0    0 -0.00000000000E+00 -0.00000000000E+00 -0.45593999997E+02  0.45594000000E+02  0.51100000000E-03 0.  1.
    9900012    2    1    2    0    0 -0.41988882861E+02  0.92062832645E+01 -0.59834670805E+01  0.47787264824E+02  0.19999971640E+02 0.  0.
         12    1    1    2    0    0  0.41988882861E+02 -0.92062832645E+01  0.59834670805E+01  0.43400735176E+02  0.00000000000E+00 0. -1.
         11    1    3    3    0    0 -0.11048691072E+02  0.73254043631E+01  0.10626836624E+01  0.13299038323E+02  0.51100000000E-03 0. -1.
        -11    1    3    3    0    0 -0.22521899350E+02 -0.33626404389E+01 -0.83658452385E+00  0.22786907973E+02  0.51100000000E-03 0.  1.
         12    1    3    3    0    0 -0.84182924396E+01  0.52435193403E+01 -0.62095662190E+01  0.11701318528E+02  0.00000000000E+00 0. -1.
</event>
<event>
 7    1  0.2733256E-010  0.4778727E+02  0.7816164E-02  0.1312668E+00
        -11   -1    0    0    0    0  0.00000000000E+00  0.00000000000E+00  0.45593999997E+02  0.45594000000E+02  0.51100000000E-03 0. -1.
         11   -1    0    0    0    0 -0.00000000000E+00 -0.00000000000E+00 -0.45593999997E+02  0.45594000000E+02  0.51100000000E-03 0.  1.
    9900012    2    1    2    0    0 -0.29820362445E+02  0.29112148390E+02 -0.12118248630E+02  0.47787272471E+02  0.20000006503E+02 0.  0.
         12    1    1    2    0    0  0.29820362445E+02 -0.29112148390E+02  0.12118248630E+02  0.43400727529E+02  0.00000000000E+00 0. -1.
         11    1    3    3    0    0 -0.15813213643E+01  0.22241851352E+01 -0.45986161664E+01  0.53474150465E+01  0.51100000000E-03 0. -1.
        -11    1    3    3    0    0 -0.18175758323E+02  0.25837488803E+02 -0.66676389777E+01  0.32286087221E+02  0.51100000000E-03 0.  1.
         12    1    3    3    0    0 -0.10063282758E+02  0.10504744519E+01 -0.85199348560E+00  0.10153770203E+02  0.00000000000E+00 0. -1.
</event>
<event>
 7    1  0.2733256E-010  0.4778727E+02  0.7816164E-02  0.1312668E+00
        -11   -1    0    0    0    0  0.00000000000E+00  0.00000000000E+00  0.45593999997E+02  0.45594000000E+02  0.51100000000E-03 0.  1.
         11   -1    0    0    0    0 -0.00000000000E+00 -0.00000000000E+00 -0.45593999997E+02  0.45594000000E+02  0.51100000000E-03 0. -1.
    9900012    2    1    2    0    0  0.26524977945E+02 -0.16115512782E+02  0.30337086289E+02  0.47787274065E+02  0.20000013771E+02 0.  0.
         12    1    1    2    0    0 -0.26524977945E+02  0.16115512782E+02 -0.30337086289E+02  0.43400725935E+02  0.00000000000E+00 0. -1.
         11    1    3    3    0    0  0.61969826303E+01 -0.11817824772E+02  0.11808770019E+02  0.17818827843E+02  0.51100000000E-03 0. -1.
        -11    1    3    3    0    0  0.63711967547E+00  0.89785525622E+00  0.59091315283E+01  0.60108153541E+01  0.51100000000E-03 0.  1.
        -12    1    3    3    0    0  0.19690875639E+02 -0.51955432660E+01  0.12619184742E+02  0.23957630868E+02  0.00000000000E+00 0.  1.
</event>
<event>
 7    1  0.2733256E-010  0.4778727E+02  0.7816164E-02  0.1312668E+00
        -11   -1    0    0    0    0  0.00000000000E+00  0.00000000000E+00  0.45593999997E+02  0.45594000000E+02  0.51100000000E-03 0.  1.
         11   -1    0    0    0    0 -0.00000000000E+00 -0.00000000000E+00 -0.45593999997E+02  0.45594000000E+02  0.51100000000E-03 0. -1.
    9900012    2    1    2    0    0  0.19510520503E+02  0.14130389519E+02  0.36101174764E+02  0.47787272615E+02  0.20000007160E+02 0.  0.
         12    1    1    2    0    0 -0.19510520503E+02 -0.14130389519E+02 -0.36101174764E+02  0.43400727385E+02  0.00000000000E+00 0. -1.
         11    1    3    3    0    0  0.75051787823E+01  0.15750948499E+01  0.50052640952E+01  0.91575816275E+01  0.51100000000E-03 0. -1.
        -11    1    3    3    0    0  0.61562184291E+01  0.46787531282E+01  0.26846956045E+02  0.27938303551E+02  0.51100000000E-03 0.  1.
        -12    1    3    3    0    0  0.58491232913E+01  0.78765415408E+01  0.42489546238E+01  0.10691387436E+02  0.00000000000E+00 0.  1.
</event>
<event>
 7    1  0.2733256E-010  0.4778727E+02  0.7816164E-02  0.1312668E+00
        -11   -1    0    0    0    0  0.00000000000E+00  0.00000000000E+00  0.45593999997E+02  0.45594000000E+02  0.51100000000E-03 0.  1.
         11   -1    0    0    0    0 -0.00000000000E+00 -0.00000000000E+00 -0.45593999997E+02  0.45594000000E+02  0.51100000000E-03 0. -1.
    9900012    2    1    2    0    0  0.40713709638E+02 -0.60778076606E+01  0.13750548520E+02  0.47787268635E+02  0.19999989013E+02 0.  0.
         12    1    1    2    0    0 -0.40713709638E+02  0.60778076606E+01 -0.13750548520E+02  0.43400731365E+02  0.00000000000E+00 0. -1.
         11    1    3    3    0    0  0.33038561027E+01  0.15298955775E+01  0.27779969642E+01  0.45796629810E+01  0.51100000000E-03 0.  1.
        -11    1    3    3    0    0  0.14013113950E+02 -0.95055131253E+01 -0.79105376341E+00  0.16951339436E+02  0.51100000000E-03 0. -1.
         12    1    3    3    0    0  0.23396739585E+02  0.18978098872E+01  0.11763605319E+02  0.26256266218E+02  0.00000000000E+00 0. -1.
</event>
<event>
 7    1  0.2733256E-010  0.4778727E+02  0.7816164E-02  0.1312668E+00
        -11   -1    0    0    0    0  0.00000000000E+00  0.00000000000E+00  0.45593999997E+02  0.45594000000E+02  0.51100000000E-03 0.  1.
         11   -1    0    0    0    0 -0.00000000000E+00 -0.00000000000E+00 -0.45593999997E+02  0.45594000000E+02  0.51100000000E-03 0. -1.
    9900012    2    1    2    0    0 -0.61388383508E+01  0.29058318365E+02  0.31647311401E+02  0.47787268192E+02  0.19999986996E+02 0.  0.
         12    1    1    2    0    0  0.61388383508E+01 -0.29058318365E+02 -0.31647311401E+02  0.43400731808E+02  0.00000000000E+00 0. -1.
         11    1    3    3    0    0 -0.19668189668E+01  0.14420400017E+02  0.15094700913E+02  0.20968221418E+02  0.51100000000E-03 0.  1.
        -11    1    3    3    0    0  0.31948472303E+01  0.78063216572E+01  0.12702178404E+01  0.85298980219E+01  0.51100000000E-03 0. -1.
         12    1    3    3    0    0 -0.73668666142E+01  0.68315966906E+01  0.15282392648E+02  0.18289148753E+02  0.00000000000E+00 0. -1.
</event>
<event>
 7    1  0.2733256E-010  0.4778727E+02  0.7816164E-02  0.1312668E+00
        -11   -1    0    0    0    0  0.00000000000E+00  0.00000000000E+00  0.45593999997E+02  0.45594000000E+02  0.51100000000E-03 0. -1.
         11   -1    0    0    0    0 -0.00000000000E+00 -0.00000000000E+00 -0.45593999997E+02  0.45594000000E+02  0.51100000000E-03 0.  1.
    9900012    2    1    2    0    0 -0.42301579860E+02  0.38085662889E+01  0.89271910333E+01  0.47787267569E+02  0.19999984154E+02 0.  0.
         12    1    1    2    0    0  0.42301579860E+02 -0.38085662889E+01 -0.89271910333E+01  0.43400732431E+02  0.00000000000E+00 0. -1.
         11    1    3    3    0    0 -0.19584548142E+02 -0.65240086264E+00  0.86042798147E+01  0.21401256604E+02  0.51100000000E-03 0. -1.
        -11    1    3    3    0    0 -0.66325441260E+01 -0.12107296227E+01  0.53483112502E+01  0.86058666787E+01  0.51100000000E-03 0.  1.
        -12    1    3    3    0    0 -0.16084487591E+02  0.56716967743E+01 -0.50254000316E+01  0.17780144287E+02  0.00000000000E+00 0.  1.
</event>
<event>
 7    1  0.2733256E-010  0.4778727E+02  0.7816164E-02  0.1312668E+00
        -11   -1    0    0    0    0  0.00000000000E+00  0.00000000000E+00  0.45593999997E+02  0.45594000000E+02  0.51100000000E-03 0.  1.
         11   -1    0    0    0    0 -0.00000000000E+00 -0.00000000000E+00 -0.45593999997E+02  0.45594000000E+02  0.51100000000E-03 0. -1.
    9900012    2    1    2    0    0 -0.26198059339E+02 -0.26814756415E+02  0.21869009031E+02  0.47787273846E+02  0.20000012772E+02 0.  0.
         12    1    1    2    0    0  0.26198059339E+02  0.26814756415E+02 -0.21869009031E+02  0.43400726154E+02  0.00000000000E+00 0. -1.
         11    1    3    3    0    0 -0.15769400610E+02 -0.14784973145E+02  0.63578207659E+01  0.22532006384E+02  0.51100000000E-03 0. -1.
        -11    1    3    3    0    0 -0.36338008105E+01  0.41442940466E+00 -0.69445191057E+00  0.37227038264E+01  0.51100000000E-03 0.  1.
         12    1    3    3    0    0 -0.67948579180E+01 -0.12444212675E+02  0.16205640176E+02  0.21532563636E+02  0.00000000000E+00 0. -1.
</event>
<event>
 7    1  0.2733256E-010  0.4778727E+02  0.7816164E-02  0.1312668E+00
        -11   -1    0    0    0    0  0.00000000000E+00  0.00000000000E+00  0.45593999997E+02  0.45594000000E+02  0.51100000000E-03 0.  1.
         11   -1    0    0    0    0 -0.00000000000E+00 -0.00000000000E+00 -0.45593999997E+02  0.45594000000E+02  0.51100000000E-03 0. -1.
    9900012    2    1    2    0    0 -0.18946902525E+02 -0.85696918919E+01  0.38094600995E+02  0.47787270059E+02  0.19999995507E+02 0.  0.
         12    1    1    2    0    0  0.18946902525E+02  0.85696918919E+01 -0.38094600995E+02  0.43400729941E+02  0.00000000000E+00 0. -1.
         11    1    3    3    0    0  0.11129094489E+01  0.42833759728E+00  0.97040301281E+00  0.15374403426E+01  0.51100000000E-03 0. -1.
        -11    1    3    3    0    0  0.37359708207E+00 -0.46358746482E+01  0.13875979289E+01  0.48534870770E+01  0.51100000000E-03 0.  1.
        -12    1    3    3    0    0 -0.20433409056E+02 -0.43621548410E+01  0.35736600054E+02  0.41396342639E+02  0.00000000000E+00 0.  1.
</event>
<event>
 7    1  0.2733256E-010  0.4778727E+02  0.7816164E-02  0.1312668E+00
        -11   -1    0    0    0    0  0.00000000000E+00  0.00000000000E+00  0.45593999997E+02  0.45594000000E+02  0.51100000000E-03 0. -1.
         11   -1    0    0    0    0 -0.00000000000E+00 -0.00000000000E+00 -0.45593999997E+02  0.45594000000E+02  0.51100000000E-03 0.  1.
    9900012    2    1    2    0    0  0.12591690598E+02 -0.17052173389E+02 -0.37872104675E+02  0.47787267266E+02  0.19999982771E+02 0.  0.
         12    1    1    2    0    0 -0.12591690598E+02  0.17052173389E+02  0.37872104675E+02  0.43400732734E+02  0.00000000000E+00 0. -1.
         11    1    3    3    0    0  0.13604666601E+02 -0.12931472004E+02 -0.15541764623E+02  0.24369168418E+02  0.51100000000E-03 0. -1.
        -11    1    3    3    0    0  0.18305494234E+01 -0.31376435507E+01 -0.81624807989E+01  0.89343053057E+01  0.51100000000E-03 0.  1.
        -12    1    3    3    0    0 -0.28435254270E+01 -0.98305783365E+00 -0.14167859253E+02  0.14483793542E+02  0.00000000000E+00 0.  1.
</event>
<event>
 7    1  0.2733256E-010  0.4778729E+02  0.7816164E-02  0.1312668E+00
        -11   -1    0    0    0    0  0.00000000000E+00  0.00000000000E+00  0.45593999997E+02  0.45594000000E+02  0.51100000000E-03 0.  1.
         11   -1    0    0    0    0 -0.00000000000E+00 -0.00000000000E+00 -0.45593999997E+02  0.45594000000E+02  0.51100000000E-03 0. -1.
    9900012    2    1    2    0    0  0.23547868024E+02 -0.35385560818E+02 -0.87739394397E+01  0.47787285534E+02  0.20000066064E+02 0.  0.
         12    1    1    2    0    0 -0.23547868024E+02  0.35385560818E+02  0.87739394397E+01  0.43400714466E+02  0.00000000000E+00 0. -1.
         11    1    3    3    0    0 -0.98760204581E+00  0.12194454123E+01 -0.11263276311E+01  0.19315846106E+01  0.51100000000E-03 0. -1.
        -11    1    3    3    0    0  0.35793402115E+01 -0.12853936001E+02 -0.33069096345E+00  0.13347085968E+02  0.51100000000E-03 0.  1.
         12    1    3    3    0    0  0.20956129858E+02 -0.23751070229E+02 -0.73169208452E+01  0.32508614955E+02  0.00000000000E+00 0. -1.
</event>
<event>
 7    1  0.2733256E-010  0.4778727E+02  0.7816164E-02  0.1312668E+00
        -11   -1    0    0    0    0  0.00000000000E+00  0.00000000000E+00  0.45593999997E+02  0.45594000000E+02  0.51100000000E-03 0.  1.
         11   -1    0    0    0    0 -0.00000000000E+00 -0.00000000000E+00 -0.45593999997E+02  0.45594000000E+02  0.51100000000E-03 0. -1.
    9900012    2    1    2    0    0  0.31229412790E+02 -0.27112634542E+02  0.13162527164E+02  0.47787270785E+02  0.19999998819E+02 0.  0.
         12    1    1    2    0    0 -0.31229412790E+02  0.27112634542E+02 -0.13162527164E+02  0.43400729215E+02  0.00000000000E+00 0. -1.
         11    1    3    3    0    0  0.75210873361E+01 -0.13190986935E+02  0.43612766837E+01  0.15798405793E+02  0.51100000000E-03 0. -1.
        -11    1    3    3    0    0  0.59639886760E+01 -0.94153024079E+01 -0.10578193571E+01  0.11195358968E+02  0.51100000000E-03 0.  1.
        -12    1    3    3    0    0  0.17744336778E+02 -0.45063451994E+01  0.98590698369E+01  0.20793506024E+02  0.00000000000E+00 0.  1.
</event>
<event>
 7    1  0.2733256E-010  0.4778727E+02  0.7816164E-02  0.1312668E+00
        -11   -1    0    0    0    0  0.00000000000E+00  0.00000000000E+00  0.45593999997E+02  0.45594000000E+02  0.51100000000E-03 0.  1.
         11   -1    0    0    0    0 -0.00000000000E+00 -0.00000000000E+00 -0.45593999997E+02  0.45594000000E+02  0.51100000000E-03 0. -1.
    9900012    2    1    2    0    0 -0.78998087497E+01  0.12315225130E+02  0.40860143814E+02  0.47787273038E+02  0.20000009091E+02 0.  0.
         12    1    1    2    0    0  0.78998087497E+01 -0.12315225130E+02 -0.40860143814E+02  0.43400726962E+02  0.00000000000E+00 0. -1.
         11    1    3    3    0    0  0.33578385296E+01  0.46298142714E+01  0.61612276385E+01  0.84066037169E+01  0.51100000000E-03 0. -1.
        -11    1    3    3    0    0 -0.31746937346E+00  0.76721433593E+01  0.14726936787E+02  0.16608589281E+02  0.51100000000E-03 0.  1.
        -12    1    3    3    0    0 -0.10940177906E+02  0.13267499242E-01  0.19971979389E+02  0.22772080040E+02  0.00000000000E+00 0.  1.
</event>
<event>
 7    1  0.2733256E-010  0.4778727E+02  0.7816164E-02  0.1312668E+00
        -11   -1    0    0    0    0  0.00000000000E+00  0.00000000000E+00  0.45593999997E+02  0.45594000000E+02  0.51100000000E-03 0. -1.
         11   -1    0    0    0    0 -0.00000000000E+00 -0.00000000000E+00 -0.45593999997E+02  0.45594000000E+02  0.51100000000E-03 0.  1.
    9900012    2    1    2    0    0  0.73597550056E+01  0.42770603810E+02  0.36408134078E+00  0.47787273056E+02  0.20000009171E+02 0.  0.
         12    1    1    2    0    0 -0.73597550056E+01 -0.42770603810E+02 -0.36408134078E+00  0.43400726944E+02  0.00000000000E+00 0. -1.
         11    1    3    3    0    0  0.44907051584E+01  0.13057354816E+01  0.29065910439E+01  0.55063281526E+01  0.51100000000E-03 0. -1.
        -11    1    3    3    0    0 -0.18433063031E+01  0.84880046684E+01 -0.22303117709E+01  0.89676246707E+01  0.51100000000E-03 0.  1.
        -12    1    3    3    0    0  0.47123561503E+01  0.32976863660E+02 -0.31219793225E+00  0.33313320233E+02  0.00000000000E+00 0.  1.
</event>
<event>
 7    1  0.2733256E-010  0.4778727E+02  0.7816164E-02  0.1312668E+00
        -11   -1    0    0    0    0  0.00000000000E+00  0.00000000000E+00  0.45593999997E+02  0.45594000000E+02  0.51100000000E-03 0.  1.
         11   -1    0    0    0    0 -0.00000000000E+00 -0.00000000000E+00 -0.45593999997E+02  0.45594000000E+02  0.51100000000E-03 0. -1.
    9900012    2    1    2    0    0 -0.31619038595E+02 -0.11297449015E+01  0.29708303565E+02  0.47787271597E+02  0.20000002520E+02 0.  0.
         12    1    1    2    0    0  0.31619038595E+02  0.11297449015E+01 -0.29708303565E+02  0.43400728403E+02  0.00000000000E+00 0. -1.
         11    1    3    3    0    0 -0.14022072773E+02  0.71565230204E+01  0.82336499807E+01  0.17765903829E+02  0.51100000000E-03 0. -1.
        -11    1    3    3    0    0  0.64313036293E+00  0.30291567917E+00  0.26590527275E+00  0.75899963611E+00  0.51100000000E-03 0.  1.
        -12    1    3    3    0    0 -0.18240096185E+02 -0.85891836011E+01  0.21208748312E+02  0.29262368132E+02  0.00000000000E+00 0.  1.
</event>
<event>
 7    1  0.2733256E-010  0.4778727E+02  0.7816164E-02  0.1312668E+00
        -11   -1    0    0    0    0  0.00000000000E+00  0.00000000000E+00  0.45593999997E+02  0.45594000000E+02  0.51100000000E-03 0.  1.
         11   -1    0    0    0    0 -0.00000000000E+00 -0.00000000000E+00 -0.45593999997E+02  0.45594000000E+02  0.51100000000E-03 0. -1.
    9900012    2    1    2    0    0 -0.35360213703E+02 -0.38689729701E+01  0.24865832333E+02  0.47787270944E+02  0.19999999544E+02 0.  0.
         12    1    1    2    0    0  0.35360213703E+02  0.38689729701E+01 -0.24865832333E+02  0.43400729056E+02  0.00000000000E+00 0. -1.
         11    1    3    3    0    0 -0.45175542088E+01  0.36216973391E+01 -0.32409022747E+00  0.57991397967E+01  0.51100000000E-03 0. -1.
        -11    1    3    3    0    0 -0.19242175251E+02 -0.24161347295E+01  0.88516995465E+01  0.21317870451E+02  0.51100000000E-03 0.  1.
         12    1    3    3    0    0 -0.11600484242E+02 -0.50745355797E+01  0.16338223014E+02  0.20670260697E+02  0.00000000000E+00 0. -1.
</event>
<event>
 7    1  0.2733256E-010  0.4778729E+02  0.7816164E-02  0.1312668E+00
        -11   -1    0    0    0    0  0.00000000000E+00  0.00000000000E+00  0.45593999997E+02  0.45594000000E+02  0.51100000000E-03 0. -1.
         11   -1    0    0    0    0 -0.00000000000E+00 -0.00000000000E+00 -0.45593999997E+02  0.45594000000E+02  0.51100000000E-03 0.  1.
    9900012    2    1    2    0    0 -0.44711483103E+01  0.42647280569E+02 -0.66962357798E+01  0.47787294006E+02  0.20000104692E+02 0.  0.
         12    1    1    2    0    0  0.44711483103E+01 -0.42647280569E+02  0.66962357798E+01  0.43400705994E+02  0.00000000000E+00 0. -1.
         11    1    3    3    0    0  0.35196272768E+01  0.21705337922E+02 -0.46457422599E+01  0.22474260653E+02  0.51100000000E-03 0. -1.
        -11    1    3    3    0    0  0.50799704006E+00  0.17137737090E+00 -0.28074900559E+01  0.28582218023E+01  0.51100000000E-03 0.  1.
         12    1    3    3    0    0 -0.84987726272E+01  0.20770565276E+02  0.75699653596E+00  0.22454811551E+02  0.00000000000E+00 0. -1.
</event>
<event>
 7    1  0.2733256E-010  0.4778727E+02  0.7816164E-02  0.1312668E+00
        -11   -1    0    0    0    0  0.00000000000E+00  0.00000000000E+00  0.45593999997E+02  0.45594000000E+02  0.51100000000E-03 0. -1.
         11   -1    0    0    0    0 -0.00000000000E+00 -0.00000000000E+00 -0.45593999997E+02  0.45594000000E+02  0.51100000000E-03 0.  1.
    9900012    2    1    2    0    0 -0.17778385288E+02  0.19246529489E+02 -0.34599469683E+02  0.47787272090E+02  0.20000004765E+02 0.  0.
         12    1    1    2    0    0  0.17778385288E+02 -0.19246529489E+02  0.34599469683E+02  0.43400727910E+02  0.00000000000E+00 0. -1.
         11    1    3    3    0    0  0.10655649765E+01  0.10937408082E+01 -0.72501796463E+01  0.74092376692E+01  0.51100000000E-03 0. -1.
        -11    1    3    3    0    0 -0.70126719084E+01  0.10870717122E+02 -0.21939031061E+02  0.25469023189E+02  0.51100000000E-03 0.  1.
         12    1    3    3    0    0 -0.11831278356E+02  0.72820715584E+01 -0.54102589761E+01  0.14909011232E+02  0.00000000000E+00 0. -1.
</event>
<event>
 7    1  0.2733256E-010  0.4778727E+02  0.7816164E-02  0.1312668E+00
        -11   -1    0    0    0    0  0.00000000000E+00  0.00000000000E+00  0.45593999997E+02  0.45594000000E+02  0.51100000000E-03 0.  1.
         11   -1    0    0    0    0 -0.00000000000E+00 -0.00000000000E+00 -0.45593999997E+02  0.45594000000E+02  0.51100000000E-03 0. -1.
    9900012    2    1    2    0    0  0.34903870029E+01 -0.11644826545E+02  0.41663398867E+02  0.47787267381E+02  0.19999983298E+02 0.  0.
         12    1    1    2    0    0 -0.34903870029E+01  0.11644826545E+02 -0.41663398867E+02  0.43400732619E+02  0.00000000000E+00 0. -1.
         11    1    3    3    0    0  0.52413809617E+01 -0.76943811931E+01  0.31640684854E+02  0.32981942250E+02  0.51100000000E-03 0. -1.
        -11    1    3    3    0    0  0.32691873404E+01  0.13392570809E+01  0.24996995787E+01  0.43277816073E+01  0.51100000000E-03 0.  1.
        -12    1    3    3    0    0 -0.50201812992E+01 -0.52897024330E+01  0.75230144346E+01  0.10477543524E+02  0.00000000000E+00 0.  1.
</event>
<event>
 7    1  0.2733256E-010  0.4778727E+02  0.7816164E-02  0.1312668E+00
        -11   -1    0    0    0    0  0.00000000000E+00  0.00000000000E+00  0.45593999997E+02  0.45594000000E+02  0.51100000000E-03 0.  1.
         11   -1    0    0    0    0 -0.00000000000E+00 -0.00000000000E+00 -0.45593999997E+02  0.45594000000E+02  0.51100000000E-03 0. -1.
    9900012    2    1    2    0    0  0.75131443853E+01  0.24802703364E+01  0.42673458469E+02  0.47787272619E+02  0.20000007179E+02 0.  0.
         12    1    1    2    0    0 -0.75131443853E+01 -0.24802703364E+01 -0.42673458469E+02  0.43400727381E+02  0.00000000000E+00 0. -1.
         11    1    3    3    0    0 -0.17651342363E+01 -0.38680857522E+01  0.35000526322E+01  0.55071004120E+01  0.51100000000E-03 0. -1.
        -11    1    3    3    0    0  0.11601386510E+01 -0.27107251854E+01  0.14185379131E+02  0.14488579436E+02  0.51100000000E-03 0.  1.
        -12    1    3    3    0    0  0.81181399706E+01  0.90590812739E+01  0.24988026706E+02  0.27791592771E+02  0.00000000000E+00 0.  1.
</event>
<event>
 7    1  0.2733256E-010  0.4778727E+02  0.7816164E-02  0.1312668E+00
        -11   -1    0    0    0    0  0.00000000000E+00  0.00000000000E+00  0.45593999997E+02  0.45594000000E+02  0.51100000000E-03 0.  1.
         11   -1    0    0    0    0 -0.00000000000E+00 -0.00000000000E+00 -0.45593999997E+02  0.45594000000E+02  0.51100000000E-03 0. -1.
    9900012    2    1    2    0    0 -0.52525490008E+01 -0.57337217036E+01  0.42698463065E+02  0.47787267475E+02  0.19999983726E+02 0.  0.
         12    1    1    2    0    0  0.52525490008E+01  0.57337217036E+01 -0.42698463065E+02  0.43400732525E+02  0.00000000000E+00 0. -1.
         11    1    3    3    0    0 -0.52608184415E+01 -0.59703501431E+01  0.30690140753E+02  0.31704984328E+02  0.51100000000E-03 0.  1.
        -11    1    3    3    0    0 -0.24029632783E+01  0.17642455347E+01  0.12781881330E+02  0.13124910873E+02  0.51100000000E-03 0. -1.
        -12    1    3    3    0    0  0.24112327190E+01 -0.15276170952E+01 -0.77355901828E+00  0.29573722744E+01  0.00000000000E+00 0.  1.
</event>
<event>
 7    1  0.2733256E-010  0.4778727E+02  0.7816164E-02  0.1312668E+00
        -11   -1    0    0    0    0  0.00000000000E+00  0.00000000000E+00  0.45593999997E+02  0.45594000000E+02  0.51100000000E-03 0. -1.
         11   -1    0    0    0    0 -0.00000000000E+00 -0.00000000000E+00 -0.45593999997E+02  0.45594000000E+02  0.51100000000E-03 0.  1.
    9900012    2    1    2    0    0  0.32880855257E+02  0.11761312377E+02 -0.25770997941E+02  0.47787269060E+02  0.19999990951E+02 0.  0.
         12    1    1    2    0    0 -0.32880855257E+02 -0.11761312377E+02  0.25770997941E+02  0.43400730940E+02  0.00000000000E+00 0. -1.
         11    1    3    3    0    0  0.16432099801E+02  0.25349348739E+01 -0.75038648952E+01  0.18241375697E+02  0.51100000000E-03 0. -1.
        -11    1    3    3    0    0  0.17303730274E+02  0.38719230596E+01 -0.13000651283E+02  0.21986991691E+02  0.51100000000E-03 0.  1.
         12    1    3    3    0    0 -0.85497481803E+00  0.53544544440E+01 -0.52664817628E+01  0.75589016722E+01  0.00000000000E+00 0. -1.
</event>
<event>
 7    1  0.2733256E-010  0.4778727E+02  0.7816164E-02  0.1312668E+00
        -11   -1    0    0    0    0  0.00000000000E+00  0.00000000000E+00  0.45593999997E+02  0.45594000000E+02  0.51100000000E-03 0. -1.
         11   -1    0    0    0    0 -0.00000000000E+00 -0.00000000000E+00 -0.45593999997E+02  0.45594000000E+02  0.51100000000E-03 0.  1.
    9900012    2    1    2    0    0 -0.36679968528E+02  0.19819071188E+02 -0.12058513101E+02  0.47787269451E+02  0.19999992733E+02 0.  0.
         12    1    1    2    0    0  0.36679968528E+02 -0.19819071188E+02  0.12058513101E+02  0.43400730549E+02  0.00000000000E+00 0. -1.
         11    1    3    3    0    0 -0.42699844460E+01  0.58273431557E+01 -0.51576638132E+01  0.88764965890E+01  0.51100000000E-03 0. -1.
        -11    1    3    3    0    0 -0.15409750798E+02  0.11043130026E+02 -0.99166921295E+01  0.21395137847E+02  0.51100000000E-03 0.  1.
         12    1    3    3    0    0 -0.17000233284E+02  0.29485980064E+01  0.30158428418E+01  0.17515635015E+02  0.00000000000E+00 0. -1.
</event>
<event>
 7    1  0.2733256E-010  0.4778727E+02  0.7816164E-02  0.1312668E+00
        -11   -1    0    0    0    0  0.00000000000E+00  0.00000000000E+00  0.45593999997E+02  0.45594000000E+02  0.51100000000E-03 0.  1.
         11   -1    0    0    0    0 -0.00000000000E+00 -0.00000000000E+00 -0.45593999997E+02  0.45594000000E+02  0.51100000000E-03 0. -1.
    9900012    2    1    2    0    0 -0.27797151606E+02  0.32593647877E+02  0.69710991865E+01  0.47787265638E+02  0.19999975351E+02 0.  0.
         12    1    1    2    0    0  0.27797151606E+02 -0.32593647877E+02 -0.69710991865E+01  0.43400734362E+02  0.00000000000E+00 0. -1.
         11    1    3    3    0    0  0.40610674059E+00  0.78934385155E+00 -0.24182861342E+01  0.25760618178E+01  0.51100000000E-03 0. -1.
        -11    1    3    3    0    0 -0.28133318966E+00 -0.34786804749E+00  0.19270672730E+01  0.19783197613E+01  0.51100000000E-03 0.  1.
        -12    1    3    3    0    0 -0.27921925156E+02  0.32152172072E+02  0.74623180477E+01  0.43232884059E+02  0.00000000000E+00 0.  1.
</event>
<event>
 7    1  0.2733256E-010  0.4778728E+02  0.7816164E-02  0.1312668E+00
        -11   -1    0    0    0    0  0.00000000000E+00  0.00000000000E+00  0.45593999997E+02  0.45594000000E+02  0.51100000000E-03 0.  1.
         11   -1    0    0    0    0 -0.00000000000E+00 -0.00000000000E+00 -0.45593999997E+02  0.45594000000E+02  0.51100000000E-03 0. -1.
    9900012    2    1    2    0    0 -0.77610144424E+01 -0.30100868254E+02  0.30287409199E+02  0.47787276840E+02  0.20000026423E+02 0.  0.
         12    1    1    2    0    0  0.77610144424E+01  0.30100868254E+02 -0.30287409199E+02  0.43400723160E+02  0.00000000000E+00 0. -1.
         11    1    3    3    0    0  0.29100343501E+01 -0.96338334168E+00  0.23256801595E+01  0.38477520511E+01  0.51100000000E-03 0. -1.
        -11    1    3    3    0    0 -0.34024205349E+01 -0.97866016247E+00  0.77604089591E+01  0.85298410702E+01  0.51100000000E-03 0.  1.
         12    1    3    3    0    0 -0.72686282575E+01 -0.28158824750E+02  0.20201320081E+02  0.35409683718E+02  0.00000000000E+00 0. -1.
</event>
<event>
 7    1  0.2733256E-010  0.4778729E+02  0.7816164E-02  0.1312668E+00
        -11   -1    0    0    0    0  0.00000000000E+00  0.00000000000E+00  0.45593999997E+02  0.45594000000E+02  0.51100000000E-03 0.  1.
         11   -1    0    0    0    0 -0.00000000000E+00 -0.00000000000E+00 -0.45593999997E+02  0.45594000000E+02  0.51100000000E-03 0. -1.
    9900012    2    1    2    0    0  0.32281019470E+02 -0.21234024310E+01  0.28931799174E+02  0.47787285037E+02  0.20000063796E+02 0.  0.
         12    1    1    2    0    0 -0.32281019470E+02  0.21234024310E+01 -0.28931799174E+02  0.43400714963E+02  0.00000000000E+00 0. -1.
         11    1    3    3    0    0  0.18014344911E+02 -0.94632170413E+00  0.98618916060E+01  0.20558916646E+02  0.51100000000E-03 0. -1.
        -11    1    3    3    0    0  0.15299677054E+02 -0.17787938183E+01  0.10654939260E+02  0.18728906970E+02  0.51100000000E-03 0.  1.
         12    1    3    3    0    0 -0.10330024959E+01  0.60171309146E+00  0.84149683085E+01  0.84994614202E+01  0.00000000000E+00 0. -1.
</event>
<event>
 7    1  0.2733256E-010  0.4778727E+02  0.7816164E-02  0.1312668E+00
        -11   -1    0    0    0    0  0.00000000000E+00  0.00000000000E+00  0.45593999997E+02  0.45594000000E+02  0.51100000000E-03 0.  1.
         11   -1    0    0    0    0 -0.00000000000E+00 -0.00000000000E+00 -0.45593999997E+02  0.45594000000E+02  0.51100000000E-03 0. -1.
    9900012    2    1    2    0    0  0.10992696136E+02  0.33982303181E+02  0.24657402153E+02  0.47787265228E+02  0.19999973479E+02 0.  0.
         12    1    1    2    0    0 -0.10992696136E+02 -0.33982303181E+02 -0.24657402153E+02  0.43400734772E+02  0.00000000000E+00 0. -1.
         11    1    3    3    0    0  0.35310292405E+01  0.17146025359E+02  0.72374803682E+01  0.18942953187E+02  0.51100000000E-03 0. -1.
        -11    1    3    3    0    0 -0.34296361517E+01  0.31786160255E+01  0.82207026140E+00  0.47478209472E+01  0.51100000000E-03 0.  1.
         12    1    3    3    0    0  0.10891303047E+02  0.13657661797E+02  0.16597851524E+02  0.24096491094E+02  0.00000000000E+00 0. -1.
</event>
<event>
 7    1  0.2733256E-010  0.4778727E+02  0.7816164E-02  0.1312668E+00
        -11   -1    0    0    0    0  0.00000000000E+00  0.00000000000E+00  0.45593999997E+02  0.45594000000E+02  0.51100000000E-03 0.  1.
         11   -1    0    0    0    0 -0.00000000000E+00 -0.00000000000E+00 -0.45593999997E+02  0.45594000000E+02  0.51100000000E-03 0. -1.
    9900012    2    1    2    0    0 -0.14559880108E+02  0.72851792232E+01  0.40231324345E+02  0.47787269550E+02  0.19999993186E+02 0.  0.
         12    1    1    2    0    0  0.14559880108E+02 -0.72851792232E+01 -0.40231324345E+02  0.43400730450E+02  0.00000000000E+00 0. -1.
         11    1    3    3    0    0  0.11769313034E+01 -0.10506677748E+01 -0.84029307298E+00  0.17875018253E+01  0.51100000000E-03 0. -1.
        -11    1    3    3    0    0 -0.60179007558E+01 -0.21718748402E+01  0.13089864960E+02  0.14569719791E+02  0.51100000000E-03 0.  1.
         12    1    3    3    0    0 -0.97189106559E+01  0.10507721838E+02  0.27981752457E+02  0.31430047934E+02  0.00000000000E+00 0. -1.
</event>
<event>
 7    1  0.2733256E-010  0.4778728E+02  0.7816164E-02  0.1312668E+00
        -11   -1    0    0    0    0  0.00000000000E+00  0.00000000000E+00  0.45593999997E+02  0.45594000000E+02  0.51100000000E-03 0. -1.
         11   -1    0    0    0    0 -0.00000000000E+00 -0.00000000000E+00 -0.45593999997E+02  0.45594000000E+02  0.51100000000E-03 0.  1.
    9900012    2    1    2    0    0  0.25824970135E+02 -0.34646538867E+02  0.40386615447E+01  0.47787279672E+02  0.20000039334E+02 0.  0.
         12    1    1    2    0    0 -0.25824970135E+02  0.34646538867E+02 -0.40386615447E+01  0.43400720328E+02  0.00000000000E+00 0. -1.
         11    1    3    3    0    0  0.74966486623E+01 -0.11398209153E+02 -0.17593049053E+01  0.13755510426E+02  0.51100000000E-03 0. -1.
        -11    1    3    3    0    0 -0.23982060192E+01 -0.48048925827E+01 -0.10101259090E+01  0.54643150947E+01  0.51100000000E-03 0.  1.
         12    1    3    3    0    0  0.20726527492E+02 -0.18443437132E+02  0.68080923590E+01  0.28567454151E+02  0.00000000000E+00 0. -1.
</event>
<event>
 7    1  0.2733256E-010  0.4778727E+02  0.7816164E-02  0.1312668E+00
        -11   -1    0    0    0    0  0.00000000000E+00  0.00000000000E+00  0.45593999997E+02  0.45594000000E+02  0.51100000000E-03 0.  1.
         11   -1    0    0    0    0 -0.00000000000E+00 -0.00000000000E+00 -0.45593999997E+02  0.45594000000E+02  0.51100000000E-03 0. -1.
    9900012    2    1    2    0    0  0.19806535523E+02 -0.96072306977E+00  0.38605718047E+02  0.47787270695E+02  0.19999998409E+02 0.  0.
         12    1    1    2    0    0 -0.19806535523E+02  0.96072306977E+00 -0.38605718047E+02  0.43400729305E+02  0.00000000000E+00 0. -1.
         11    1    3    3    0    0  0.43064128098E+01 -0.16969339959E+01  0.32131002058E+01  0.56346064165E+01  0.51100000000E-03 0. -1.
        -11    1    3    3    0    0  0.16442003694E+02 -0.10376133783E+01  0.17081385927E+02  0.23731621783E+02  0.51100000000E-03 0.  1.
        -12    1    3    3    0    0 -0.94188098025E+00  0.17738243045E+01  0.18311231914E+02  0.18421042496E+02  0.00000000000E+00 0.  1.
</event>
<event>
 7    1  0.2733256E-010  0.4778727E+02  0.7816164E-02  0.1312668E+00
        -11   -1    0    0    0    0  0.00000000000E+00  0.00000000000E+00  0.45593999997E+02  0.45594000000E+02  0.51100000000E-03 0. -1.
         11   -1    0    0    0    0 -0.00000000000E+00 -0.00000000000E+00 -0.45593999997E+02  0.45594000000E+02  0.51100000000E-03 0.  1.
    9900012    2    1    2    0    0  0.26335149587E+02 -0.12887033052E+02 -0.32000112593E+02  0.47787274999E+02  0.20000018031E+02 0.  0.
         12    1    1    2    0    0 -0.26335149587E+02  0.12887033052E+02  0.32000112593E+02  0.43400725001E+02  0.00000000000E+00 0. -1.
         11    1    3    3    0    0 -0.11161582980E+01 -0.30499687611E+01 -0.18534542784E+01  0.37394400401E+01  0.51100000000E-03 0. -1.
        -11    1    3    3    0    0  0.58813706124E+01  0.78141477910E+00 -0.61146488527E+00  0.59644797682E+01  0.51100000000E-03 0.  1.
        -12    1    3    3    0    0  0.21569937273E+02 -0.10618479070E+02 -0.29535193429E+02  0.38083355191E+02  0.00000000000E+00 0.  1.
</event>
<event>
 7    1  0.2733256E-010  0.4778727E+02  0.7816164E-02  0.1312668E+00
        -11   -1    0    0    0    0  0.00000000000E+00  0.00000000000E+00  0.45593999997E+02  0.45594000000E+02  0.51100000000E-03 0.  1.
         11   -1    0    0    0    0 -0.00000000000E+00 -0.00000000000E+00 -0.45593999997E+02  0.45594000000E+02  0.51100000000E-03 0. -1.
    9900012    2    1    2    0    0  0.24486090053E+02 -0.35833186455E+02  0.19323933479E+00  0.47787271906E+02  0.20000003929E+02 0.  0.
         12    1    1    2    0    0 -0.24486090053E+02  0.35833186455E+02 -0.19323933479E+00  0.43400728094E+02  0.00000000000E+00 0. -1.
         11    1    3    3    0    0  0.16202248033E+02 -0.24647102576E+02  0.83318445852E+01  0.30649831014E+02  0.51100000000E-03 0. -1.
        -11    1    3    3    0    0  0.63458191905E+01 -0.71634867520E+01 -0.24000154227E+01  0.98663588996E+01  0.51100000000E-03 0.  1.
         12    1    3    3    0    0  0.19380228298E+01 -0.40225971275E+01 -0.57385898277E+01  0.72710819930E+01  0.00000000000E+00 0. -1.
</event>
<event>
 7    1  0.2733256E-010  0.4778727E+02  0.7816164E-02  0.1312668E+00
        -11   -1    0    0    0    0  0.00000000000E+00  0.00000000000E+00  0.45593999997E+02  0.45594000000E+02  0.51100000000E-03 0.  1.
         11   -1    0    0    0    0 -0.00000000000E+00 -0.00000000000E+00 -0.45593999997E+02  0.45594000000E+02  0.51100000000E-03 0. -1.
    9900012    2    1    2    0    0  0.76424514071E+01  0.22937269683E+02  0.36042999444E+02  0.47787271746E+02  0.20000003201E+02 0.  0.
         12    1    1    2    0    0 -0.76424514071E+01 -0.22937269683E+02 -0.36042999444E+02  0.43400728254E+02  0.00000000000E+00 0. -1.
         11    1    3    3    0    0 -0.28548739570E+00 -0.11673088003E+01  0.43617433540E+00  0.12784213704E+01  0.51100000000E-03 0. -1.
        -11    1    3    3    0    0 -0.70084885283E+00  0.27667930964E+01  0.16061741008E+02  0.16313364387E+02  0.51100000000E-03 0.  1.
         12    1    3    3    0    0  0.86287876556E+01  0.21337785387E+02  0.19545084101E+02  0.30195485990E+02  0.00000000000E+00 0. -1.
</event>
<event>
 7    1  0.2733256E-010  0.4778726E+02  0.7816164E-02  0.1312668E+00
        -11   -1    0    0    0    0  0.00000000000E+00  0.00000000000E+00  0.45593999997E+02  0.45594000000E+02  0.51100000000E-03 0.  1.
         11   -1    0    0    0    0 -0.00000000000E+00 -0.00000000000E+00 -0.45593999997E+02  0.45594000000E+02  0.51100000000E-03 0. -1.
    9900012    2    1    2    0    0 -0.12722071035E+02 -0.39083734996E+02  0.13936813657E+02  0.47787260288E+02  0.19999950956E+02 0.  0.
         12    1    1    2    0    0  0.12722071035E+02  0.39083734996E+02 -0.13936813657E+02  0.43400739712E+02  0.00000000000E+00 0. -1.
         11    1    3    3    0    0 -0.15173691002E+01 -0.27278715179E+01 -0.72162761792E+00  0.32038162689E+01  0.51100000000E-03 0. -1.
        -11    1    3    3    0    0 -0.61866494873E+01 -0.31278306858E+02  0.45484368173E+01  0.32207070490E+02  0.51100000000E-03 0.  1.
         12    1    3    3    0    0 -0.50180524476E+01 -0.50775566195E+01  0.10110004458E+02  0.12376373529E+02  0.00000000000E+00 0. -1.
</event>
<event>
 7    1  0.2733256E-010  0.4778727E+02  0.7816164E-02  0.1312668E+00
        -11   -1    0    0    0    0  0.00000000000E+00  0.00000000000E+00  0.45593999997E+02  0.45594000000E+02  0.51100000000E-03 0. -1.
         11   -1    0    0    0    0 -0.00000000000E+00 -0.00000000000E+00 -0.45593999997E+02  0.45594000000E+02  0.51100000000E-03 0.  1.
    9900012    2    1    2    0    0  0.65218239442E+01  0.42016093324E+02 -0.87027049051E+01  0.47787270070E+02  0.19999995557E+02 0.  0.
         12    1    1    2    0    0 -0.65218239442E+01 -0.42016093324E+02  0.87027049051E+01  0.43400729930E+02  0.00000000000E+00 0. -1.
         11    1    3    3    0    0  0.17965240745E+01  0.83981936030E+01 -0.65576216015E+01  0.10805533577E+02  0.51100000000E-03 0. -1.
        -11    1    3    3    0    0 -0.50573871063E+01  0.15089340898E+02 -0.19041320637E+01  0.16027822442E+02  0.51100000000E-03 0.  1.
         12    1    3    3    0    0  0.97826869761E+01  0.18528558824E+02 -0.24095123992E+00  0.20953914051E+02  0.00000000000E+00 0. -1.
</event>
<event>
 7    1  0.2733256E-010  0.4778728E+02  0.7816164E-02  0.1312668E+00
        -11   -1    0    0    0    0  0.00000000000E+00  0.00000000000E+00  0.45593999997E+02  0.45594000000E+02  0.51100000000E-03 0.  1.
         11   -1    0    0    0    0 -0.00000000000E+00 -0.00000000000E+00 -0.45593999997E+02  0.45594000000E+02  0.51100000000E-03 0. -1.
    9900012    2    1    2    0    0  0.22558527862E+02 -0.31670089392E+02  0.19280575384E+02  0.47787281936E+02  0.20000049658E+02 0.  0.
         12    1    1    2    0    0 -0.22558527862E+02  0.31670089392E+02 -0.19280575384E+02  0.43400718064E+02  0.00000000000E+00 0. -1.
         11    1    3    3    0    0 -0.15059117729E+01 -0.25897305446E+01 -0.87438403800E+00  0.31207406602E+01  0.51100000000E-03 0. -1.
        -11    1    3    3    0    0  0.15448291939E-01 -0.75825099260E+00 -0.14861490316E+01  0.16684790748E+01  0.51100000000E-03 0.  1.
        -12    1    3    3    0    0  0.24048991343E+02 -0.28322107854E+02  0.21641108453E+02  0.42998062201E+02  0.00000000000E+00 0.  1.
</event>
<event>
 7    1  0.2733256E-010  0.4778727E+02  0.7816164E-02  0.1312668E+00
        -11   -1    0    0    0    0  0.00000000000E+00  0.00000000000E+00  0.45593999997E+02  0.45594000000E+02  0.51100000000E-03 0. -1.
         11   -1    0    0    0    0 -0.00000000000E+00 -0.00000000000E+00 -0.45593999997E+02  0.45594000000E+02  0.51100000000E-03 0.  1.
    9900012    2    1    2    0    0 -0.30542386611E+01 -0.40639021551E+02 -0.14925310033E+02  0.47787270444E+02  0.19999997263E+02 0.  0.
         12    1    1    2    0    0  0.30542386611E+01  0.40639021551E+02  0.14925310033E+02  0.43400729556E+02  0.00000000000E+00 0. -1.
         11    1    3    3    0    0  0.66431908308E+01 -0.72445579782E+01 -0.39385499824E+01  0.10589040605E+02  0.51100000000E-03 0. -1.
        -11    1    3    3    0    0 -0.32961833708E+00 -0.65257319568E+01 -0.47222386241E+01  0.80618461723E+01  0.51100000000E-03 0.  1.
         12    1    3    3    0    0 -0.93678111548E+01 -0.26868731616E+02 -0.62645214265E+01  0.29136383667E+02  0.00000000000E+00 0. -1.
</event>
<event>
 7    1  0.2733256E-010  0.4778727E+02  0.7816164E-02  0.1312668E+00
        -11   -1    0    0    0    0  0.00000000000E+00  0.00000000000E+00  0.45593999997E+02  0.45594000000E+02  0.51100000000E-03 0.  1.
         11   -1    0    0    0    0 -0.00000000000E+00 -0.00000000000E+00 -0.45593999997E+02  0.45594000000E+02  0.51100000000E-03 0. -1.
    9900012    2    1    2    0    0  0.16020423538E+02 -0.45543116075E+01  0.40077773051E+02  0.47787267089E+02  0.19999981964E+02 0.  0.
         12    1    1    2    0    0 -0.16020423538E+02  0.45543116075E+01 -0.40077773051E+02  0.43400732911E+02  0.00000000000E+00 0. -1.
         11    1    3    3    0    0 -0.18457582399E+01 -0.85961729640E-02  0.68104620516E+01  0.70561527046E+01  0.51100000000E-03 0. -1.
        -11    1    3    3    0    0  0.36060226392E+01  0.57368116329E+00  0.20776469721E+02  0.21094885723E+02  0.51100000000E-03 0.  1.
         12    1    3    3    0    0  0.14260159138E+02 -0.51193965979E+01  0.12490841278E+02  0.19636228661E+02  0.00000000000E+00 0. -1.
</event>
<event>
 7    1  0.2733256E-010  0.4778727E+02  0.7816164E-02  0.1312668E+00
        -11   -1    0    0    0    0  0.00000000000E+00  0.00000000000E+00  0.45593999997E+02  0.45594000000E+02  0.51100000000E-03 0.  1.
         11   -1    0    0    0    0 -0.00000000000E+00 -0.00000000000E+00 -0.45593999997E+02  0.45594000000E+02  0.51100000000E-03 0. -1.
    9900012    2    1    2    0    0 -0.43103897011E+02 -0.48158651703E+01  0.15762610557E+01  0.47787273119E+02  0.20000009458E+02 0.  0.
         12    1    1    2    0    0  0.43103897011E+02  0.48158651703E+01 -0.15762610557E+01  0.43400726881E+02  0.00000000000E+00 0. -1.
         11    1    3    3    0    0 -0.12742558819E+02  0.35230281905E+01  0.26533915789E+01  0.13484250815E+02  0.51100000000E-03 0. -1.
        -11    1    3    3    0    0 -0.12207786666E+02  0.30364327764E+01 -0.25264912154E+01  0.12830944526E+02  0.51100000000E-03 0.  1.
        -12    1    3    3    0    0 -0.18153551525E+02 -0.11375326137E+02  0.14493606922E+01  0.21472077779E+02  0.00000000000E+00 0.  1.
</event>
<event>
 7    1  0.2733256E-010  0.4778728E+02  0.7816164E-02  0.1312668E+00
        -11   -1    0    0    0    0  0.00000000000E+00  0.00000000000E+00  0.45593999997E+02  0.45594000000E+02  0.51100000000E-03 0.  1.
         11   -1    0    0    0    0 -0.00000000000E+00 -0.00000000000E+00 -0.45593999997E+02  0.45594000000E+02  0.51100000000E-03 0. -1.
    9900012    2    1    2    0    0 -0.34869655621E+02 -0.25345818826E+02  0.50318303826E+01  0.47787277286E+02  0.20000028456E+02 0.  0.
         12    1    1    2    0    0  0.34869655621E+02  0.25345818826E+02 -0.50318303826E+01  0.43400722714E+02  0.00000000000E+00 0. -1.
         11    1    3    3    0    0 -0.23510884208E+01 -0.22401107151E+01 -0.39521655507E+01  0.51152053311E+01  0.51100000000E-03 0. -1.
        -11    1    3    3    0    0 -0.19451327652E+02 -0.12163134556E+02 -0.92002210652E+00  0.22959582544E+02  0.51100000000E-03 0.  1.
        -12    1    3    3    0    0 -0.13067239548E+02 -0.10942573555E+02  0.99040180398E+01  0.19712489410E+02  0.00000000000E+00 0.  1.
</event>
<event>
 7    1  0.2733256E-010  0.4778727E+02  0.7816164E-02  0.1312668E+00
        -11   -1    0    0    0    0  0.00000000000E+00  0.00000000000E+00  0.45593999997E+02  0.45594000000E+02  0.51100000000E-03 0.  1.
         11   -1    0    0    0    0 -0.00000000000E+00 -0.00000000000E+00 -0.45593999997E+02  0.45594000000E+02  0.51100000000E-03 0. -1.
    9900012    2    1    2    0    0 -0.11251383446E+02 -0.93289717767E+00  0.41906552892E+02  0.47787273026E+02  0.20000009035E+02 0.  0.
         12    1    1    2    0    0  0.11251383446E+02  0.93289717767E+00 -0.41906552892E+02  0.43400726974E+02  0.00000000000E+00 0. -1.
         11    1    3    3    0    0 -0.88227144058E+01 -0.26040929909E+01  0.73286067051E+01  0.11761380289E+02  0.51100000000E-03 0. -1.
        -11    1    3    3    0    0 -0.51691741485E+01  0.33067480178E+01  0.15285101864E+02  0.16470861638E+02  0.51100000000E-03 0.  1.
        -12    1    3    3    0    0  0.27405051085E+01 -0.16355522045E+01  0.19292844322E+02  0.19555031100E+02  0.00000000000E+00 0.  1.
</event>
<event>
 7    1  0.2733256E-010  0.4778727E+02  0.7816164E-02  0.1312668E+00
        -11   -1    0    0    0    0  0.00000000000E+00  0.00000000000E+00  0.45593999997E+02  0.45594000000E+02  0.51100000000E-03 0.  1.
         11   -1    0    0    0    0 -0.00000000000E+00 -0.00000000000E+00 -0.45593999997E+02  0.45594000000E+02  0.51100000000E-03 0. -1.
    9900012    2    1    2    0    0 -0.39574536674E+02 -0.30050383323E+01  0.17562718260E+02  0.47787270963E+02  0.19999999627E+02 0.  0.
         12    1    1    2    0    0  0.39574536674E+02  0.30050383323E+01 -0.17562718260E+02  0.43400729037E+02  0.00000000000E+00 0. -1.
         11    1    3    3    0    0  0.54884714892E+00 -0.21254168759E+00  0.16492000397E+01  0.17510762959E+01  0.51100000000E-03 0. -1.
        -11    1    3    3    0    0 -0.28050294544E+02  0.50356547376E+01  0.79323993168E+01  0.29582085826E+02  0.51100000000E-03 0.  1.
        -12    1    3    3    0    0 -0.12073089279E+02 -0.78281513823E+01  0.79811189034E+01  0.16454108841E+02  0.00000000000E+00 0.  1.
</event>
<event>
 7    1  0.2733256E-010  0.4778728E+02  0.7816164E-02  0.1312668E+00
        -11   -1    0    0    0    0  0.00000000000E+00  0.00000000000E+00  0.45593999997E+02  0.45594000000E+02  0.51100000000E-03 0.  1.
         11   -1    0    0    0    0 -0.00000000000E+00 -0.00000000000E+00 -0.45593999997E+02  0.45594000000E+02  0.51100000000E-03 0. -1.
    9900012    2    1    2    0    0  0.31116294356E+02  0.29556284651E+02  0.64672368400E+01  0.47787275476E+02  0.20000020207E+02 0.  0.
         12    1    1    2    0    0 -0.31116294356E+02 -0.29556284651E+02 -0.64672368400E+01  0.43400724524E+02  0.00000000000E+00 0. -1.
         11    1    3    3    0    0  0.74299678256E+00  0.23708341321E+00 -0.23958396229E+01  0.25195834028E+01  0.51100000000E-03 0. -1.
        -11    1    3    3    0    0  0.68731314583E+01  0.15512431983E+02  0.14903576390E+01  0.17032223819E+02  0.51100000000E-03 0.  1.
        -12    1    3    3    0    0  0.23500166115E+02  0.13806769255E+02  0.73727188239E+01  0.28235468254E+02  0.00000000000E+00 0.  1.
</event>
<event>
 7    1  0.2733256E-010  0.4778727E+02  0.7816164E-02  0.1312668E+00
        -11   -1    0    0    0    0  0.00000000000E+00  0.00000000000E+00  0.45593999997E+02  0.45594000000E+02  0.51100000000E-03 0.  1.
         11   -1    0    0    0    0 -0.00000000000E+00 -0.00000000000E+00 -0.45593999997E+02  0.45594000000E+02  0.51100000000E-03 0. -1.
    9900012    2    1    2    0    0 -0.34058292865E+02 -0.56256922940E+01  0.26306043115E+02  0.47787266930E+02  0.19999981239E+02 0.  0.
         12    1    1    2    0    0  0.34058292865E+02  0.56256922940E+01 -0.26306043115E+02  0.43400733070E+02  0.00000000000E+00 0. -1.
         11    1    3    3    0    0 -0.88815631309E+01 -0.54606668601E+01 -0.65818649207E-01  0.10426187154E+02  0.51100000000E-03 0. -1.
        -11    1    3    3    0    0 -0.96341731428E+01 -0.28819216328E+01  0.64456427838E+01  0.11944416085E+02  0.51100000000E-03 0.  1.
        -12    1    3    3    0    0 -0.15542556591E+02  0.27168961989E+01  0.19926218980E+02  0.25416663692E+02  0.00000000000E+00 0.  1.
</event>
<event>
 7    1  0.2733256E-010  0.4778726E+02  0.7816164E-02  0.1312668E+00
        -11   -1    0    0    0    0  0.00000000000E+00  0.00000000000E+00  0.45593999997E+02  0.45594000000E+02  0.51100000000E-03 0. -1.
         11   -1    0    0    0    0 -0.00000000000E+00 -0.00000000000E+00 -0.45593999997E+02  0.45594000000E+02  0.51100000000E-03 0.  1.
    9900012    2    1    2    0    0 -0.10708839557E+02  0.64639884388E+01 -0.41559133088E+02  0.47787263437E+02  0.19999965316E+02 0.  0.
         12    1    1    2    0    0  0.10708839557E+02 -0.64639884388E+01  0.41559133088E+02  0.43400736563E+02  0.00000000000E+00 0. -1.
         11    1    3    3    0    0 -0.73108998122E+01  0.32882640166E+00 -0.12719437711E+02  0.14674518010E+02  0.51100000000E-03 0. -1.
        -11    1    3    3    0    0 -0.76996805369E+01  0.29653303600E+01 -0.76224894241E+01  0.11233014279E+02  0.51100000000E-03 0.  1.
        -12    1    3    3    0    0  0.43017407921E+01  0.31698316771E+01 -0.21217205952E+02  0.21879731148E+02  0.00000000000E+00 0.  1.
</event>
<event>
 7    1  0.2733734E-010  0.4778723E+02  0.7816164E-02  0.1312668E+00
        -11   -1    0    0    0    0  0.00000000000E+00  0.00000000000E+00  0.45593999997E+02  0.45594000000E+02  0.51100000000E-03 0. -1.
         11   -1    0    0    0    0 -0.00000000000E+00 -0.00000000000E+00 -0.45593999997E+02  0.45594000000E+02  0.51100000000E-03 0.  1.
    9900012    2    1    2    0    0  0.42033426366E+02 -0.79379380046E+01  0.73353505720E+01  0.47787226276E+02  0.19999795881E+02 0.  0.
         12    1    1    2    0    0 -0.42033426366E+02  0.79379380046E+01 -0.73353505720E+01  0.43400773724E+02  0.00000000000E+00 0. -1.
         11    1    3    3    0    0  0.22517210249E+00  0.23057508469E+01 -0.12016136837E+01  0.26098017453E+01  0.51100000000E-03 0. -1.
        -11    1    3    3    0    0  0.18767568213E+02 -0.18908818104E+01 -0.97620152188E+00  0.18887827305E+02  0.51100000000E-03 0.  1.
        -12    1    3    3    0    0  0.23040686051E+02 -0.83528070411E+01  0.95131657775E+01  0.26289597225E+02  0.00000000000E+00 0.  1.
</event>
<event>
 7    1  0.2733256E-010  0.4778727E+02  0.7816164E-02  0.1312668E+00
        -11   -1    0    0    0    0  0.00000000000E+00  0.00000000000E+00  0.45593999997E+02  0.45594000000E+02  0.51100000000E-03 0.  1.
         11   -1    0    0    0    0 -0.00000000000E+00 -0.00000000000E+00 -0.45593999997E+02  0.45594000000E+02  0.51100000000E-03 0. -1.
    9900012    2    1    2    0    0  0.16618062944E+02  0.17475474871E+02  0.36084221000E+02  0.47787271399E+02  0.20000001615E+02 0.  0.
         12    1    1    2    0    0 -0.16618062944E+02 -0.17475474871E+02 -0.36084221000E+02  0.43400728601E+02  0.00000000000E+00 0. -1.
         11    1    3    3    0    0  0.18784564365E+01  0.14926296315E+01 -0.90326096479E+00  0.25636736205E+01  0.51100000000E-03 0. -1.
        -11    1    3    3    0    0 -0.22025736198E+01  0.37265016148E+01  0.28234286032E+01  0.51681615855E+01  0.51100000000E-03 0.  1.
         12    1    3    3    0    0  0.16942180127E+02  0.12256343625E+02  0.34164053361E+02  0.40055436193E+02  0.00000000000E+00 0. -1.
</event>
<event>
 7    1  0.2733256E-010  0.4778727E+02  0.7816164E-02  0.1312668E+00
        -11   -1    0    0    0    0  0.00000000000E+00  0.00000000000E+00  0.45593999997E+02  0.45594000000E+02  0.51100000000E-03 0. -1.
         11   -1    0    0    0    0 -0.00000000000E+00 -0.00000000000E+00 -0.45593999997E+02  0.45594000000E+02  0.51100000000E-03 0.  1.
    9900012    2    1    2    0    0 -0.33755384507E+02  0.27224551672E+02 -0.17381150821E+01  0.47787271423E+02  0.20000001727E+02 0.  0.
         12    1    1    2    0    0  0.33755384507E+02 -0.27224551672E+02  0.17381150821E+01  0.43400728577E+02  0.00000000000E+00 0. -1.
         11    1    3    3    0    0 -0.59548742816E+01  0.93675853041E+01  0.38085278376E+01  0.11735291504E+02  0.51100000000E-03 0. -1.
        -11    1    3    3    0    0  0.17076536217E+00  0.17600388993E+01 -0.32476638967E+01  0.36978667882E+01  0.51100000000E-03 0.  1.
        -12    1    3    3    0    0 -0.27971275587E+02  0.16096927469E+02 -0.22989790229E+01  0.32354113131E+02  0.00000000000E+00 0.  1.
</event>
<event>
 7    1  0.2733256E-010  0.4778726E+02  0.7816164E-02  0.1312668E+00
        -11   -1    0    0    0    0  0.00000000000E+00  0.00000000000E+00  0.45593999997E+02  0.45594000000E+02  0.51100000000E-03 0. -1.
         11   -1    0    0    0    0 -0.00000000000E+00 -0.00000000000E+00 -0.45593999997E+02  0.45594000000E+02  0.51100000000E-03 0.  1.
    9900012    2    1    2    0    0  0.18625655515E+02  0.35859515048E+02 -0.15836794543E+02  0.47787263551E+02  0.19999965835E+02 0.  0.
         12    1    1    2    0    0 -0.18625655515E+02 -0.35859515048E+02  0.15836794543E+02  0.43400736449E+02  0.00000000000E+00 0. -1.
         11    1    3    3    0    0  0.78008821709E+01  0.33586910680E+01 -0.14211427323E+00  0.84943960975E+01  0.51100000000E-03 0. -1.
        -11    1    3    3    0    0  0.87455398688E+01  0.12005932121E+02 -0.10047927167E+02  0.17932866874E+02  0.51100000000E-03 0.  1.
         12    1    3    3    0    0  0.20792334758E+01  0.20494891859E+02 -0.56467531030E+01  0.21360000580E+02  0.00000000000E+00 0. -1.
</event>
<event>
 7    1  0.2733256E-010  0.4778727E+02  0.7816164E-02  0.1312668E+00
        -11   -1    0    0    0    0  0.00000000000E+00  0.00000000000E+00  0.45593999997E+02  0.45594000000E+02  0.51100000000E-03 0. -1.
         11   -1    0    0    0    0 -0.00000000000E+00 -0.00000000000E+00 -0.45593999997E+02  0.45594000000E+02  0.51100000000E-03 0.  1.
    9900012    2    1    2    0    0 -0.34919465941E+02 -0.10826574938E+02  0.23388879057E+02  0.47787268554E+02  0.19999988646E+02 0.  0.
         12    1    1    2    0    0  0.34919465941E+02  0.10826574938E+02 -0.23388879057E+02  0.43400731446E+02  0.00000000000E+00 0. -1.
         11    1    3    3    0    0 -0.18858735294E+01  0.20969947574E+01  0.35402550685E+01  0.45262912183E+01  0.51100000000E-03 0. -1.
        -11    1    3    3    0    0 -0.18789578983E+01 -0.17624335920E+01  0.75142243094E+01  0.79435648284E+01  0.51100000000E-03 0.  1.
        -12    1    3    3    0    0 -0.31154634513E+02 -0.11161136103E+02  0.12334399679E+02  0.35317412507E+02  0.00000000000E+00 0.  1.
</event>
<event>
 7    1  0.2733256E-010  0.4778728E+02  0.7816164E-02  0.1312668E+00
        -11   -1    0    0    0    0  0.00000000000E+00  0.00000000000E+00  0.45593999997E+02  0.45594000000E+02  0.51100000000E-03 0.  1.
         11   -1    0    0    0    0 -0.00000000000E+00 -0.00000000000E+00 -0.45593999997E+02  0.45594000000E+02  0.51100000000E-03 0. -1.
    9900012    2    1    2    0    0  0.39670431297E+02  0.11836111863E+02  0.13030203660E+02  0.47787275689E+02  0.20000021175E+02 0.  0.
         12    1    1    2    0    0 -0.39670431297E+02 -0.11836111863E+02 -0.13030203660E+02  0.43400724311E+02  0.00000000000E+00 0. -1.
         11    1    3    3    0    0  0.14975696163E+01  0.41778222839E+01  0.27279109266E+00  0.44464962648E+01  0.51100000000E-03 0. -1.
        -11    1    3    3    0    0  0.13642305088E+02  0.96795175465E+01  0.38483781674E+01  0.17164368990E+02  0.51100000000E-03 0.  1.
        -12    1    3    3    0    0  0.24530556593E+02 -0.20212279676E+01  0.89090343999E+01  0.26176410434E+02  0.00000000000E+00 0.  1.
</event>
<event>
 7    1  0.2733256E-010  0.4778727E+02  0.7816164E-02  0.1312668E+00
        -11   -1    0    0    0    0  0.00000000000E+00  0.00000000000E+00  0.45593999997E+02  0.45594000000E+02  0.51100000000E-03 0.  1.
         11   -1    0    0    0    0 -0.00000000000E+00 -0.00000000000E+00 -0.45593999997E+02  0.45594000000E+02  0.51100000000E-03 0. -1.
    9900012    2    1    2    0    0 -0.18278221935E+02  0.43623587804E+01  0.39121600273E+02  0.47787272136E+02  0.20000004976E+02 0.  0.
         12    1    1    2    0    0  0.18278221935E+02 -0.43623587804E+01 -0.39121600273E+02  0.43400727864E+02  0.00000000000E+00 0. -1.
         11    1    3    3    0    0 -0.14488689377E+01  0.81740302132E+01  0.15165349010E+02  0.17288776764E+02  0.51100000000E-03 0. -1.
        -11    1    3    3    0    0  0.25809499066E+00 -0.14344112835E+01  0.31449520802E+01  0.34662476256E+01  0.51100000000E-03 0.  1.
        -12    1    3    3    0    0 -0.17087447988E+02 -0.23772601492E+01  0.20811299183E+02  0.27032247746E+02  0.00000000000E+00 0.  1.
</event>
<event>
 7    1  0.2733256E-010  0.4778727E+02  0.7816164E-02  0.1312668E+00
        -11   -1    0    0    0    0  0.00000000000E+00  0.00000000000E+00  0.45593999997E+02  0.45594000000E+02  0.51100000000E-03 0.  1.
         11   -1    0    0    0    0 -0.00000000000E+00 -0.00000000000E+00 -0.45593999997E+02  0.45594000000E+02  0.51100000000E-03 0. -1.
    9900012    2    1    2    0    0 -0.34091120125E+02  0.28377366906E+01  0.26708910112E+02  0.47787273045E+02  0.20000009120E+02 0.  0.
         12    1    1    2    0    0  0.34091120125E+02 -0.28377366906E+01 -0.26708910112E+02  0.43400726955E+02  0.00000000000E+00 0. -1.
         11    1    3    3    0    0 -0.81840405334E+01 -0.29734793835E+01  0.45866944835E+01  0.98416393777E+01  0.51100000000E-03 0. -1.
        -11    1    3    3    0    0 -0.17090740397E+02 -0.16765983059E+01  0.61836924910E+01  0.18252190068E+02  0.51100000000E-03 0.  1.
        -12    1    3    3    0    0 -0.88163391939E+01  0.74878143799E+01  0.15938523137E+02  0.19693443599E+02  0.00000000000E+00 0.  1.
</event>
<event>
 7    1  0.2733256E-010  0.4778727E+02  0.7816164E-02  0.1312668E+00
        -11   -1    0    0    0    0  0.00000000000E+00  0.00000000000E+00  0.45593999997E+02  0.45594000000E+02  0.51100000000E-03 0. -1.
         11   -1    0    0    0    0 -0.00000000000E+00 -0.00000000000E+00 -0.45593999997E+02  0.45594000000E+02  0.51100000000E-03 0.  1.
    9900012    2    1    2    0    0  0.29125471566E+02  0.68903708351E+01 -0.31430132377E+02  0.47787268146E+02  0.19999986786E+02 0.  0.
         12    1    1    2    0    0 -0.29125471566E+02 -0.68903708351E+01  0.31430132377E+02  0.43400731854E+02  0.00000000000E+00 0. -1.
         11    1    3    3    0    0  0.42517613831E+01 -0.52328390885E+01 -0.29534989394E+01  0.73609263025E+01  0.51100000000E-03 0. -1.
        -11    1    3    3    0    0  0.11650857498E+02  0.15473795982E+01 -0.11163628619E+02  0.16209980514E+02  0.51100000000E-03 0.  1.
         12    1    3    3    0    0  0.13222852685E+02  0.10575830325E+02 -0.17313004819E+02  0.24216361330E+02  0.00000000000E+00 0. -1.
</event>
<event>
 7    1  0.2733256E-010  0.4778728E+02  0.7816164E-02  0.1312668E+00
        -11   -1    0    0    0    0  0.00000000000E+00  0.00000000000E+00  0.45593999997E+02  0.45594000000E+02  0.51100000000E-03 0.  1.
         11   -1    0    0    0    0 -0.00000000000E+00 -0.00000000000E+00 -0.45593999997E+02  0.45594000000E+02  0.51100000000E-03 0. -1.
    9900012    2    1    2    0    0 -0.24537183123E+02  0.24864082074E+02  0.25755121805E+02  0.47787283045E+02  0.20000054714E+02 0.  0.
         12    1    1    2    0    0  0.24537183123E+02 -0.24864082074E+02 -0.25755121805E+02  0.43400716955E+02  0.00000000000E+00 0. -1.
         11    1    3    3    0    0 -0.57159477526E-01  0.50925883629E+01  0.28470804086E+01  0.58346885567E+01  0.51100000000E-03 0. -1.
        -11    1    3    3    0    0 -0.16419552536E+02  0.20062817563E+02  0.21676609178E+02  0.33793397873E+02  0.51100000000E-03 0.  1.
         12    1    3    3    0    0 -0.80604711093E+01 -0.29132385176E+00  0.12314322185E+01  0.81591966149E+01  0.00000000000E+00 0. -1.
</event>
<event>
 7    1  0.2733256E-010  0.4778729E+02  0.7816164E-02  0.1312668E+00
        -11   -1    0    0    0    0  0.00000000000E+00  0.00000000000E+00  0.45593999997E+02  0.45594000000E+02  0.51100000000E-03 0. -1.
         11   -1    0    0    0    0 -0.00000000000E+00 -0.00000000000E+00 -0.45593999997E+02  0.45594000000E+02  0.51100000000E-03 0.  1.
    9900012    2    1    2    0    0  0.42504680375E+02 -0.85943484041E+01  0.17638229486E+01  0.47787288604E+02  0.20000080060E+02 0.  0.
         12    1    1    2    0    0 -0.42504680375E+02  0.85943484041E+01 -0.17638229486E+01  0.43400711396E+02  0.00000000000E+00 0. -1.
         11    1    3    3    0    0  0.23658453757E+02 -0.19094191397E+01 -0.26674793445E+01  0.23884801902E+02  0.51100000000E-03 0. -1.
        -11    1    3    3    0    0  0.19990306453E+02 -0.66598747080E+01  0.19384074475E+01  0.21159482671E+02  0.51100000000E-03 0.  1.
         12    1    3    3    0    0 -0.11440798345E+01 -0.25054556440E-01  0.24928948456E+01  0.27430040302E+01  0.00000000000E+00 0. -1.
</event>
<event>
 7    1  0.2733256E-010  0.4778727E+02  0.7816164E-02  0.1312668E+00
        -11   -1    0    0    0    0  0.00000000000E+00  0.00000000000E+00  0.45593999997E+02  0.45594000000E+02  0.51100000000E-03 0.  1.
         11   -1    0    0    0    0 -0.00000000000E+00 -0.00000000000E+00 -0.45593999997E+02  0.45594000000E+02  0.51100000000E-03 0. -1.
    9900012    2    1    2    0    0  0.18369461344E+02 -0.88295397078E+01  0.38317428171E+02  0.47787272090E+02  0.20000004766E+02 0.  0.
         12    1    1    2    0    0 -0.18369461344E+02  0.88295397078E+01 -0.38317428171E+02  0.43400727910E+02  0.00000000000E+00 0. -1.
         11    1    3    3    0    0  0.23353703171E+00 -0.62133863748E+00  0.13793503830E+02  0.13809465935E+02  0.51100000000E-03 0. -1.
        -11    1    3    3    0    0  0.43580764806E+01 -0.85730682575E+01  0.11770536077E+02  0.15199863478E+02  0.51100000000E-03 0.  1.
         12    1    3    3    0    0  0.13777847832E+02  0.36486718723E+00  0.12753388264E+02  0.18777942676E+02  0.00000000000E+00 0. -1.
</event>
<event>
 7    1  0.2733256E-010  0.4778727E+02  0.7816164E-02  0.1312668E+00
        -11   -1    0    0    0    0  0.00000000000E+00  0.00000000000E+00  0.45593999997E+02  0.45594000000E+02  0.51100000000E-03 0.  1.
         11   -1    0    0    0    0 -0.00000000000E+00 -0.00000000000E+00 -0.45593999997E+02  0.45594000000E+02  0.51100000000E-03 0. -1.
    9900012    2    1    2    0    0 -0.15581896023E+02 -0.24609902136E+02  0.32174216340E+02  0.47787274616E+02  0.20000016282E+02 0.  0.
         12    1    1    2    0    0  0.15581896023E+02  0.24609902136E+02 -0.32174216340E+02  0.43400725384E+02  0.00000000000E+00 0. -1.
         11    1    3    3    0    0 -0.29446943004E+01 -0.10312491735E+02  0.65224828226E+01  0.12552350088E+02  0.51100000000E-03 0. -1.
        -11    1    3    3    0    0 -0.26627863244E+01 -0.12439585299E+02  0.84764598230E+01  0.15286729042E+02  0.51100000000E-03 0.  1.
         12    1    3    3    0    0 -0.99744153983E+01 -0.18578251024E+01  0.17175273694E+02  0.19948195485E+02  0.00000000000E+00 0. -1.
</event>
<event>
 7    1  0.2733256E-010  0.4778727E+02  0.7816164E-02  0.1312668E+00
        -11   -1    0    0    0    0  0.00000000000E+00  0.00000000000E+00  0.45593999997E+02  0.45594000000E+02  0.51100000000E-03 0.  1.
         11   -1    0    0    0    0 -0.00000000000E+00 -0.00000000000E+00 -0.45593999997E+02  0.45594000000E+02  0.51100000000E-03 0. -1.
    9900012    2    1    2    0    0  0.13230548004E+02  0.27661587828E+02  0.30715023124E+02  0.47787268588E+02  0.19999988798E+02 0.  0.
         12    1    1    2    0    0 -0.13230548004E+02 -0.27661587828E+02 -0.30715023124E+02  0.43400731412E+02  0.00000000000E+00 0. -1.
         11    1    3    3    0    0  0.38327004526E+01  0.83423428590E+01  0.42870257573E+01  0.10132268613E+02  0.51100000000E-03 0. -1.
        -11    1    3    3    0    0  0.68522724121E+01  0.84420637093E+01  0.23676714283E+01  0.11127800552E+02  0.51100000000E-03 0.  1.
         12    1    3    3    0    0  0.25455751392E+01  0.10877181259E+02  0.24060325938E+02  0.26527199422E+02  0.00000000000E+00 0. -1.
</event>
<event>
 7    1  0.2733256E-010  0.4778727E+02  0.7816164E-02  0.1312668E+00
        -11   -1    0    0    0    0  0.00000000000E+00  0.00000000000E+00  0.45593999997E+02  0.45594000000E+02  0.51100000000E-03 0.  1.
         11   -1    0    0    0    0 -0.00000000000E+00 -0.00000000000E+00 -0.45593999997E+02  0.45594000000E+02  0.51100000000E-03 0. -1.
    9900012    2    1    2    0    0  0.33450914851E+02  0.84963837516E+00  0.27639420716E+02  0.47787272273E+02  0.20000005601E+02 0.  0.
         12    1    1    2    0    0 -0.33450914851E+02 -0.84963837516E+00 -0.27639420716E+02  0.43400727727E+02  0.00000000000E+00 0. -1.
         11    1    3    3    0    0  0.89855243276E+00 -0.12900984034E+01 -0.23582320569E+01  0.28342563505E+01  0.51100000000E-03 0. -1.
        -11    1    3    3    0    0  0.27450915056E+01 -0.56509968610E+00  0.58858819651E+01  0.65190851964E+01  0.51100000000E-03 0.  1.
        -12    1    3    3    0    0  0.29807270912E+02  0.27048364647E+01  0.24111770808E+02  0.38433930726E+02  0.00000000000E+00 0.  1.
</event>
<event>
 7    1  0.2733256E-010  0.4778727E+02  0.7816164E-02  0.1312668E+00
        -11   -1    0    0    0    0  0.00000000000E+00  0.00000000000E+00  0.45593999997E+02  0.45594000000E+02  0.51100000000E-03 0.  1.
         11   -1    0    0    0    0 -0.00000000000E+00 -0.00000000000E+00 -0.45593999997E+02  0.45594000000E+02  0.51100000000E-03 0. -1.
    9900012    2    1    2    0    0  0.41415637736E+02 -0.12886957130E+02  0.15148054617E+01  0.47787270182E+02  0.19999996068E+02 0.  0.
         12    1    1    2    0    0 -0.41415637736E+02  0.12886957130E+02 -0.15148054617E+01  0.43400729818E+02  0.00000000000E+00 0. -1.
         11    1    3    3    0    0  0.25856662363E+02 -0.80321617694E+01 -0.50938459371E+01  0.27550496873E+02  0.51100000000E-03 0. -1.
        -11    1    3    3    0    0  0.49223265479E+01 -0.59700925733E+01  0.14235070212E+00  0.77389642693E+01  0.51100000000E-03 0.  1.
         12    1    3    3    0    0  0.10636648825E+02  0.11152972127E+01  0.64663006967E+01  0.12497809040E+02  0.00000000000E+00 0. -1.
</event>
<event>
 7    1  0.2733256E-010  0.4778728E+02  0.7816164E-02  0.1312668E+00
        -11   -1    0    0    0    0  0.00000000000E+00  0.00000000000E+00  0.45593999997E+02  0.45594000000E+02  0.51100000000E-03 0.  1.
         11   -1    0    0    0    0 -0.00000000000E+00 -0.00000000000E+00 -0.45593999997E+02  0.45594000000E+02  0.51100000000E-03 0. -1.
    9900012    2    1    2    0    0 -0.83375469553E+01 -0.20059037732E+02  0.37573161531E+02  0.47787283976E+02  0.20000058958E+02 0.  0.
         12    1    1    2    0    0  0.83375469553E+01  0.20059037732E+02 -0.37573161531E+02  0.43400716024E+02  0.00000000000E+00 0. -1.
         11    1    3    3    0    0  0.51285889721E+01 -0.38133343536E+01  0.39494442340E+01  0.75127926735E+01  0.51100000000E-03 0. -1.
        -11    1    3    3    0    0 -0.28895619339E+01 -0.13272015667E+01  0.20381755825E+01  0.37769289290E+01  0.51100000000E-03 0.  1.
        -12    1    3    3    0    0 -0.10576573994E+02 -0.14918501812E+02  0.31585541715E+02  0.36497562373E+02  0.00000000000E+00 0.  1.
</event>
<event>
 7    1  0.2733256E-010  0.4778728E+02  0.7816164E-02  0.1312668E+00
        -11   -1    0    0    0    0  0.00000000000E+00  0.00000000000E+00  0.45593999997E+02  0.45594000000E+02  0.51100000000E-03 0. -1.
         11   -1    0    0    0    0 -0.00000000000E+00 -0.00000000000E+00 -0.45593999997E+02  0.45594000000E+02  0.51100000000E-03 0.  1.
    9900012    2    1    2    0    0 -0.23571388924E+02  0.29224318895E+02 -0.21770424253E+02  0.47787279236E+02  0.20000037349E+02 0.  0.
         12    1    1    2    0    0  0.23571388924E+02 -0.29224318895E+02  0.21770424253E+02  0.43400720764E+02  0.00000000000E+00 0. -1.
         11    1    3    3    0    0 -0.41482683675E+01  0.30863598505E+00  0.12314250763E+01  0.43381787192E+01  0.51100000000E-03 0. -1.
        -11    1    3    3    0    0  0.10916814666E+01 -0.32333472627E+00 -0.59564541361E+00  0.12849542753E+01  0.51100000000E-03 0.  1.
        -12    1    3    3    0    0 -0.20514802023E+02  0.29239017636E+02 -0.22406203916E+02  0.42164146242E+02  0.00000000000E+00 0.  1.
</event>
<event>
 7    1  0.2733256E-010  0.4778728E+02  0.7816164E-02  0.1312668E+00
        -11   -1    0    0    0    0  0.00000000000E+00  0.00000000000E+00  0.45593999997E+02  0.45594000000E+02  0.51100000000E-03 0.  1.
         11   -1    0    0    0    0 -0.00000000000E+00 -0.00000000000E+00 -0.45593999997E+02  0.45594000000E+02  0.51100000000E-03 0. -1.
    9900012    2    1    2    0    0  0.32361706108E+02 -0.20453413501E+02 -0.20445066197E+02  0.47787275606E+02  0.20000020800E+02 0.  0.
         12    1    1    2    0    0 -0.32361706108E+02  0.20453413501E+02  0.20445066197E+02  0.43400724394E+02  0.00000000000E+00 0. -1.
         11    1    3    3    0    0  0.71162264274E+01 -0.21832756317E+01 -0.89638439252E+00  0.74973912990E+01  0.51100000000E-03 0. -1.
        -11    1    3    3    0    0  0.17720650574E+02 -0.50633394088E+01 -0.46535754143E+01  0.19008277858E+02  0.51100000000E-03 0.  1.
         12    1    3    3    0    0  0.75248291064E+01 -0.13206798461E+02 -0.14895106391E+02  0.21281606449E+02  0.00000000000E+00 0. -1.
</event>
<event>
 7    1  0.2733256E-010  0.4778727E+02  0.7816164E-02  0.1312668E+00
        -11   -1    0    0    0    0  0.00000000000E+00  0.00000000000E+00  0.45593999997E+02  0.45594000000E+02  0.51100000000E-03 0.  1.
         11   -1    0    0    0    0 -0.00000000000E+00 -0.00000000000E+00 -0.45593999997E+02  0.45594000000E+02  0.51100000000E-03 0. -1.
    9900012    2    1    2    0    0 -0.68460603951E+01 -0.96995781906E+01  0.41745333678E+02  0.47787271390E+02  0.20000001576E+02 0.  0.
         12    1    1    2    0    0  0.68460603951E+01  0.96995781906E+01 -0.41745333678E+02  0.43400728610E+02  0.00000000000E+00 0. -1.
         11    1    3    3    0    0 -0.85166094533E+01  0.33662902224E+01  0.19566463638E+02  0.21603496153E+02  0.51100000000E-03 0. -1.
        -11    1    3    3    0    0 -0.11428211698E+01 -0.77414757695E+01  0.11220454806E+02  0.13679732952E+02  0.51100000000E-03 0.  1.
        -12    1    3    3    0    0  0.28133702281E+01 -0.53243926435E+01  0.10958415233E+02  0.12504042286E+02  0.00000000000E+00 0.  1.
</event>
<event>
 7    1  0.2733256E-010  0.4778727E+02  0.7816164E-02  0.1312668E+00
        -11   -1    0    0    0    0  0.00000000000E+00  0.00000000000E+00  0.45593999997E+02  0.45594000000E+02  0.51100000000E-03 0.  1.
         11   -1    0    0    0    0 -0.00000000000E+00 -0.00000000000E+00 -0.45593999997E+02  0.45594000000E+02  0.51100000000E-03 0. -1.
    9900012    2    1    2    0    0 -0.48651068068E+01  0.23614174768E+02  0.36087732628E+02  0.47787274656E+02  0.20000016465E+02 0.  0.
         12    1    1    2    0    0  0.48651068068E+01 -0.23614174768E+02 -0.36087732628E+02  0.43400725344E+02  0.00000000000E+00 0. -1.
         11    1    3    3    0    0 -0.46924328177E+01  0.18359375345E+02  0.12397263050E+02  0.22644595828E+02  0.51100000000E-03 0. -1.
        -11    1    3    3    0    0  0.32573255090E-01  0.59387707393E+01  0.11606914154E+02  0.13038041086E+02  0.51100000000E-03 0.  1.
         12    1    3    3    0    0 -0.20524724422E+00 -0.68397131659E+00  0.12083555424E+02  0.12104637742E+02  0.00000000000E+00 0. -1.
</event>
<event>
 7    1  0.2733256E-010  0.4778727E+02  0.7816164E-02  0.1312668E+00
        -11   -1    0    0    0    0  0.00000000000E+00  0.00000000000E+00  0.45593999997E+02  0.45594000000E+02  0.51100000000E-03 0. -1.
         11   -1    0    0    0    0 -0.00000000000E+00 -0.00000000000E+00 -0.45593999997E+02  0.45594000000E+02  0.51100000000E-03 0.  1.
    9900012    2    1    2    0    0  0.26230399549E+02 -0.21989415428E+02 -0.26684360861E+02  0.47787269984E+02  0.19999995163E+02 0.  0.
         12    1    1    2    0    0 -0.26230399549E+02  0.21989415428E+02  0.26684360861E+02  0.43400730016E+02  0.00000000000E+00 0. -1.
         11    1    3    3    0    0  0.43125635910E+01 -0.19268249914E+01  0.16531518821E+01  0.50043751539E+01  0.51100000000E-03 0. -1.
        -11    1    3    3    0    0  0.40562749192E+01 -0.29545996209E+01  0.19596530223E+00  0.50220939658E+01  0.51100000000E-03 0.  1.
        -12    1    3    3    0    0  0.17861561039E+02 -0.17107990816E+02 -0.28533478046E+02  0.37760800864E+02  0.00000000000E+00 0.  1.
</event>
<event>
 7    1  0.2733256E-010  0.4778727E+02  0.7816164E-02  0.1312668E+00
        -11   -1    0    0    0    0  0.00000000000E+00  0.00000000000E+00  0.45593999997E+02  0.45594000000E+02  0.51100000000E-03 0.  1.
         11   -1    0    0    0    0 -0.00000000000E+00 -0.00000000000E+00 -0.45593999997E+02  0.45594000000E+02  0.51100000000E-03 0. -1.
    9900012    2    1    2    0    0 -0.27086573187E+02 -0.33507304365E+02  0.52155268483E+01  0.47787267136E+02  0.19999982182E+02 0.  0.
         12    1    1    2    0    0  0.27086573187E+02  0.33507304365E+02 -0.52155268483E+01  0.43400732864E+02  0.00000000000E+00 0. -1.
         11    1    3    3    0    0 -0.36999621701E+01 -0.22538914291E+00 -0.15561425043E+01  0.40202114472E+01  0.51100000000E-03 0. -1.
        -11    1    3    3    0    0 -0.14770517555E+02 -0.18612768782E+02 -0.33115030161E+01  0.23991027553E+02  0.51100000000E-03 0.  1.
        -12    1    3    3    0    0 -0.86160934619E+01 -0.14669146440E+02  0.10083172369E+02  0.19776028136E+02  0.00000000000E+00 0.  1.
</event>
<event>
 7    1  0.2733256E-010  0.4778727E+02  0.7816164E-02  0.1312668E+00
        -11   -1    0    0    0    0  0.00000000000E+00  0.00000000000E+00  0.45593999997E+02  0.45594000000E+02  0.51100000000E-03 0. -1.
         11   -1    0    0    0    0 -0.00000000000E+00 -0.00000000000E+00 -0.45593999997E+02  0.45594000000E+02  0.51100000000E-03 0.  1.
    9900012    2    1    2    0    0  0.23777903466E+02  0.20456353614E+02 -0.29996201083E+02  0.47787272174E+02  0.20000005149E+02 0.  0.
         12    1    1    2    0    0 -0.23777903466E+02 -0.20456353614E+02  0.29996201083E+02  0.43400727826E+02  0.00000000000E+00 0. -1.
         11    1    3    3    0    0  0.60549496865E+01  0.72481299046E+01 -0.43891098899E+01  0.10414513369E+02  0.51100000000E-03 0. -1.
        -11    1    3    3    0    0  0.72778243160E+01  0.58259581408E+01 -0.66971580572E+00  0.93464985184E+01  0.51100000000E-03 0.  1.
         12    1    3    3    0    0  0.10445129463E+02  0.73822655687E+01 -0.24937375388E+02  0.28026260287E+02  0.00000000000E+00 0. -1.
</event>
<event>
 7    1  0.2733256E-010  0.4778727E+02  0.7816164E-02  0.1312668E+00
        -11   -1    0    0    0    0  0.00000000000E+00  0.00000000000E+00  0.45593999997E+02  0.45594000000E+02  0.51100000000E-03 0.  1.
         11   -1    0    0    0    0 -0.00000000000E+00 -0.00000000000E+00 -0.45593999997E+02  0.45594000000E+02  0.51100000000E-03 0. -1.
    9900012    2    1    2    0    0 -0.10440037602E+02  0.40087298362E+02  0.12947489827E+02  0.47787269961E+02  0.19999995059E+02 0.  0.
         12    1    1    2    0    0  0.10440037602E+02 -0.40087298362E+02 -0.12947489827E+02  0.43400730039E+02  0.00000000000E+00 0. -1.
         11    1    3    3    0    0 -0.11210295012E+00 -0.10992957524E+01  0.15191741979E+01  0.18785389875E+01  0.51100000000E-03 0. -1.
        -11    1    3    3    0    0 -0.88024057598E+01  0.16830839671E+02  0.99955177520E+01  0.21463221720E+02  0.51100000000E-03 0.  1.
         12    1    3    3    0    0 -0.15255288922E+01  0.24355754443E+02  0.14327978772E+01  0.24445509254E+02  0.00000000000E+00 0. -1.
</event>
<event>
 7    1  0.2733256E-010  0.4778727E+02  0.7816164E-02  0.1312668E+00
        -11   -1    0    0    0    0  0.00000000000E+00  0.00000000000E+00  0.45593999997E+02  0.45594000000E+02  0.51100000000E-03 0.  1.
         11   -1    0    0    0    0 -0.00000000000E+00 -0.00000000000E+00 -0.45593999997E+02  0.45594000000E+02  0.51100000000E-03 0. -1.
    9900012    2    1    2    0    0  0.23679418300E+02 -0.24027899925E+01  0.36292357789E+02  0.47787268616E+02  0.19999988927E+02 0.  0.
         12    1    1    2    0    0 -0.23679418300E+02  0.24027899925E+01 -0.36292357789E+02  0.43400731384E+02  0.00000000000E+00 0. -1.
         11    1    3    3    0    0  0.45035310341E+01 -0.60807051150E+01  0.80209650105E+01  0.11026905569E+02  0.51100000000E-03 0. -1.
        -11    1    3    3    0    0  0.91923270155E+01  0.26843971911E+00  0.23396205943E+02  0.25138683113E+02  0.51100000000E-03 0.  1.
        -12    1    3    3    0    0  0.99835602504E+01  0.34094754034E+01  0.48751868354E+01  0.11621679934E+02  0.00000000000E+00 0.  1.
</event>
<event>
 7    1  0.2733256E-010  0.4778727E+02  0.7816164E-02  0.1312668E+00
        -11   -1    0    0    0    0  0.00000000000E+00  0.00000000000E+00  0.45593999997E+02  0.45594000000E+02  0.51100000000E-03 0.  1.
         11   -1    0    0    0    0 -0.00000000000E+00 -0.00000000000E+00 -0.45593999997E+02  0.45594000000E+02  0.51100000000E-03 0. -1.
    9900012    2    1    2    0    0 -0.18819173549E+02 -0.15684125590E+02  0.35825551827E+02  0.47787271293E+02  0.20000001133E+02 0.  0.
         12    1    1    2    0    0  0.18819173549E+02  0.15684125590E+02 -0.35825551827E+02  0.43400728707E+02  0.00000000000E+00 0. -1.
         11    1    3    3    0    0 -0.68539855502E+01 -0.57364652546E+01  0.31448265521E+01  0.94749187777E+01  0.51100000000E-03 0. -1.
        -11    1    3    3    0    0 -0.26652145491E+01 -0.38655012664E+01  0.23304841391E+02  0.23773117195E+02  0.51100000000E-03 0.  1.
        -12    1    3    3    0    0 -0.92999734496E+01 -0.60821590686E+01  0.93758838842E+01  0.14539235321E+02  0.00000000000E+00 0.  1.
</event>
<event>
 7    1  0.2733256E-010  0.4778727E+02  0.7816164E-02  0.1312668E+00
        -11   -1    0    0    0    0  0.00000000000E+00  0.00000000000E+00  0.45593999997E+02  0.45594000000E+02  0.51100000000E-03 0.  1.
         11   -1    0    0    0    0 -0.00000000000E+00 -0.00000000000E+00 -0.45593999997E+02  0.45594000000E+02  0.51100000000E-03 0. -1.
    9900012    2    1    2    0    0  0.19120408601E+02  0.38419002590E+02  0.64817773437E+01  0.47787271635E+02  0.20000002691E+02 0.  0.
         12    1    1    2    0    0 -0.19120408601E+02 -0.38419002590E+02 -0.64817773437E+01  0.43400728365E+02  0.00000000000E+00 0. -1.
         11    1    3    3    0    0  0.14893825966E+01 -0.15233149725E+01 -0.88142253174E-01  0.21322566315E+01  0.51100000000E-03 0. -1.
        -11    1    3    3    0    0  0.62069993278E+01  0.52053545634E+01  0.38992090823E+01  0.89903497437E+01  0.51100000000E-03 0.  1.
        -12    1    3    3    0    0  0.11424026676E+02  0.34736963000E+02  0.26707105146E+01  0.36664665260E+02  0.00000000000E+00 0.  1.
</event>
<event>
 7    1  0.2733256E-010  0.4778727E+02  0.7816164E-02  0.1312668E+00
        -11   -1    0    0    0    0  0.00000000000E+00  0.00000000000E+00  0.45593999997E+02  0.45594000000E+02  0.51100000000E-03 0.  1.
         11   -1    0    0    0    0 -0.00000000000E+00 -0.00000000000E+00 -0.45593999997E+02  0.45594000000E+02  0.51100000000E-03 0. -1.
    9900012    2    1    2    0    0  0.42680673237E+02  0.30771890514E+01 -0.72467062528E+01  0.47787265997E+02  0.19999976988E+02 0.  0.
         12    1    1    2    0    0 -0.42680673237E+02 -0.30771890514E+01  0.72467062528E+01  0.43400734003E+02  0.00000000000E+00 0. -1.
         11    1    3    3    0    0  0.19316367667E+02  0.38256646241E+01 -0.71604722932E+01  0.20953045922E+02  0.51100000000E-03 0. -1.
        -11    1    3    3    0    0  0.11555535225E+02  0.46496009708E+01 -0.43098786897E+01  0.13180449086E+02  0.51100000000E-03 0.  1.
        -12    1    3    3    0    0  0.11808770345E+02 -0.53980765434E+01  0.42236447301E+01  0.13653770990E+02  0.00000000000E+00 0.  1.
</event>
<event>
 7    1  0.2733256E-010  0.4778727E+02  0.7816164E-02  0.1312668E+00
        -11   -1    0    0    0    0  0.00000000000E+00  0.00000000000E+00  0.45593999997E+02  0.45594000000E+02  0.51100000000E-03 0.  1.
         11   -1    0    0    0    0 -0.00000000000E+00 -0.00000000000E+00 -0.45593999997E+02  0.45594000000E+02  0.51100000000E-03 0. -1.
    9900012    2    1    2    0    0  0.38032440169E+02 -0.10982999754E+02  0.17791303108E+02  0.47787271260E+02  0.20000000985E+02 0.  0.
         12    1    1    2    0    0 -0.38032440169E+02  0.10982999754E+02 -0.17791303108E+02  0.43400728740E+02  0.00000000000E+00 0. -1.
         11    1    3    3    0    0  0.24217957038E+02 -0.37992637165E+01  0.27536013062E+01  0.24668323175E+02  0.51100000000E-03 0. -1.
        -11    1    3    3    0    0 -0.39503667625E+00 -0.19504747521E+01  0.34487514487E+00  0.20197388101E+01  0.51100000000E-03 0.  1.
        -12    1    3    3    0    0  0.14209519808E+02 -0.52332612851E+01  0.14692826657E+02  0.21099209275E+02  0.00000000000E+00 0.  1.
</event>
<event>
 7    1  0.2733256E-010  0.4778728E+02  0.7816164E-02  0.1312668E+00
        -11   -1    0    0    0    0  0.00000000000E+00  0.00000000000E+00  0.45593999997E+02  0.45594000000E+02  0.51100000000E-03 0. -1.
         11   -1    0    0    0    0 -0.00000000000E+00 -0.00000000000E+00 -0.45593999997E+02  0.45594000000E+02  0.51100000000E-03 0.  1.
    9900012    2    1    2    0    0  0.33587667832E+02 -0.17340542285E+02 -0.21325971608E+02  0.47787275327E+02  0.20000019525E+02 0.  0.
         12    1    1    2    0    0 -0.33587667832E+02  0.17340542285E+02  0.21325971608E+02  0.43400724673E+02  0.00000000000E+00 0. -1.
         11    1    3    3    0    0  0.23118303833E+01 -0.19467400739E+01 -0.70110674600E+01  0.76347510651E+01  0.51100000000E-03 0. -1.
        -11    1    3    3    0    0  0.15874300328E+02 -0.23467697301E+01 -0.11567387762E+02  0.19781435716E+02  0.51100000000E-03 0.  1.
         12    1    3    3    0    0  0.15401537121E+02 -0.13047032481E+02 -0.27475163852E+01  0.20371088546E+02  0.00000000000E+00 0. -1.
</event>
<event>
 7    1  0.2733256E-010  0.4778727E+02  0.7816164E-02  0.1312668E+00
        -11   -1    0    0    0    0  0.00000000000E+00  0.00000000000E+00  0.45593999997E+02  0.45594000000E+02  0.51100000000E-03 0.  1.
         11   -1    0    0    0    0 -0.00000000000E+00 -0.00000000000E+00 -0.45593999997E+02  0.45594000000E+02  0.51100000000E-03 0. -1.
    9900012    2    1    2    0    0  0.57271434311E+01  0.17642159489E+02  0.39237449504E+02  0.47787269512E+02  0.19999993015E+02 0.  0.
         12    1    1    2    0    0 -0.57271434311E+01 -0.17642159489E+02 -0.39237449504E+02  0.43400730488E+02  0.00000000000E+00 0. -1.
         11    1    3    3    0    0  0.25810379284E+00  0.16523078003E+01  0.15774031421E+00  0.16797681098E+01  0.51100000000E-03 0. -1.
        -11    1    3    3    0    0 -0.13120982661E+01  0.56168734464E+01  0.30485269030E+02  0.31026158275E+02  0.51100000000E-03 0.  1.
        -12    1    3    3    0    0  0.67811379044E+01  0.10372978242E+02  0.85944401589E+01  0.15081343128E+02  0.00000000000E+00 0.  1.
</event>
<event>
 7    1  0.2733256E-010  0.4778728E+02  0.7816164E-02  0.1312668E+00
        -11   -1    0    0    0    0  0.00000000000E+00  0.00000000000E+00  0.45593999997E+02  0.45594000000E+02  0.51100000000E-03 0. -1.
         11   -1    0    0    0    0 -0.00000000000E+00 -0.00000000000E+00 -0.45593999997E+02  0.45594000000E+02  0.51100000000E-03 0.  1.
    9900012    2    1    2    0    0 -0.65825385114E+01 -0.42828226391E+02 -0.24567623945E+01  0.47787280300E+02  0.20000042199E+02 0.  0.
         12    1    1    2    0    0  0.65825385114E+01  0.42828226391E+02  0.24567623945E+01  0.43400719700E+02  0.00000000000E+00 0. -1.
         11    1    3    3    0    0 -0.12508876359E+02 -0.26528895796E+02 -0.48852728213E+01  0.29734158651E+02  0.51100000000E-03 0. -1.
        -11    1    3    3    0    0  0.77731642754E+00 -0.68623152848E+00  0.11721526368E+01  0.15649525885E+01  0.51100000000E-03 0.  1.
         12    1    3    3    0    0  0.51490214205E+01 -0.15613099067E+02  0.12563577899E+01  0.16488169060E+02  0.00000000000E+00 0. -1.
</event>
<event>
 7    1  0.2733256E-010  0.4778728E+02  0.7816164E-02  0.1312668E+00
        -11   -1    0    0    0    0  0.00000000000E+00  0.00000000000E+00  0.45593999997E+02  0.45594000000E+02  0.51100000000E-03 0.  1.
         11   -1    0    0    0    0 -0.00000000000E+00 -0.00000000000E+00 -0.45593999997E+02  0.45594000000E+02  0.51100000000E-03 0. -1.
    9900012    2    1    2    0    0  0.27231404254E+02 -0.31652345378E+02 -0.11840704955E+02  0.47787278354E+02  0.20000033327E+02 0.  0.
         12    1    1    2    0    0 -0.27231404254E+02  0.31652345378E+02  0.11840704955E+02  0.43400721646E+02  0.00000000000E+00 0. -1.
         11    1    3    3    0    0  0.15730977307E+02 -0.17540786936E+02  0.26980525075E+01  0.23715445199E+02  0.51100000000E-03 0. -1.
        -11    1    3    3    0    0  0.76581071191E+01 -0.48236119839E+01 -0.57724274069E+01  0.10734745253E+02  0.51100000000E-03 0.  1.
         12    1    3    3    0    0  0.38423198274E+01 -0.92879464574E+01 -0.87663300560E+01  0.13337087902E+02  0.00000000000E+00 0. -1.
</event>
<event>
 7    1  0.2733256E-010  0.4778725E+02  0.7816164E-02  0.1312668E+00
        -11   -1    0    0    0    0  0.00000000000E+00  0.00000000000E+00  0.45593999997E+02  0.45594000000E+02  0.51100000000E-03 0.  1.
         11   -1    0    0    0    0 -0.00000000000E+00 -0.00000000000E+00 -0.45593999997E+02  0.45594000000E+02  0.51100000000E-03 0. -1.
    9900012    2    1    2    0    0  0.67724607844E+01  0.20919018593E+02  0.37418620549E+02  0.47787254294E+02  0.19999923630E+02 0.  0.
         12    1    1    2    0    0 -0.67724607844E+01 -0.20919018593E+02 -0.37418620549E+02  0.43400745706E+02  0.00000000000E+00 0. -1.
         11    1    3    3    0    0 -0.30672454791E+01  0.16921223598E+01  0.38188945692E+01  0.51822030934E+01  0.51100000000E-03 0.  1.
        -11    1    3    3    0    0  0.54032949924E+01  0.12475317013E+02  0.31423495381E+02  0.34238358512E+02  0.51100000000E-03 0. -1.
         12    1    3    3    0    0  0.44364112710E+01  0.67515792206E+01  0.21762305993E+01  0.83666926895E+01  0.00000000000E+00 0. -1.
</event>
<event>
 7    1  0.2733256E-010  0.4778727E+02  0.7816164E-02  0.1312668E+00
        -11   -1    0    0    0    0  0.00000000000E+00  0.00000000000E+00  0.45593999997E+02  0.45594000000E+02  0.51100000000E-03 0.  1.
         11   -1    0    0    0    0 -0.00000000000E+00 -0.00000000000E+00 -0.45593999997E+02  0.45594000000E+02  0.51100000000E-03 0. -1.
    9900012    2    1    2    0    0  0.14468104542E+02 -0.32796493950E+02  0.24468086249E+02  0.47787270638E+02  0.19999998145E+02 0.  0.
         12    1    1    2    0    0 -0.14468104542E+02  0.32796493950E+02 -0.24468086249E+02  0.43400729362E+02  0.00000000000E+00 0. -1.
         11    1    3    3    0    0  0.60441983309E+01 -0.77249790437E+01  0.21389695263E+01  0.10039064976E+02  0.51100000000E-03 0. -1.
        -11    1    3    3    0    0  0.78965028424E+01 -0.24617580331E+02  0.14019743922E+02  0.29409747336E+02  0.51100000000E-03 0.  1.
         12    1    3    3    0    0  0.52740336873E+00 -0.45393457608E+00  0.83093728004E+01  0.83384583257E+01  0.00000000000E+00 0. -1.
</event>
<event>
 7    1  0.2733256E-010  0.4778727E+02  0.7816164E-02  0.1312668E+00
        -11   -1    0    0    0    0  0.00000000000E+00  0.00000000000E+00  0.45593999997E+02  0.45594000000E+02  0.51100000000E-03 0. -1.
         11   -1    0    0    0    0 -0.00000000000E+00 -0.00000000000E+00 -0.45593999997E+02  0.45594000000E+02  0.51100000000E-03 0.  1.
    9900012    2    1    2    0    0  0.63311563351E+01 -0.33707193022E+02 -0.26596339194E+02  0.47787266591E+02  0.19999979694E+02 0.  0.
         12    1    1    2    0    0 -0.63311563351E+01  0.33707193022E+02  0.26596339194E+02  0.43400733409E+02  0.00000000000E+00 0. -1.
         11    1    3    3    0    0  0.68295750887E+01 -0.13605162927E+02 -0.10476797356E+02  0.18479903605E+02  0.51100000000E-03 0. -1.
        -11    1    3    3    0    0  0.43190356824E+01 -0.18827668714E+02 -0.11322648814E+02  0.22390568435E+02  0.51100000000E-03 0.  1.
        -12    1    3    3    0    0 -0.48174544359E+01 -0.12743613815E+01 -0.47968930248E+01  0.69167945512E+01  0.00000000000E+00 0.  1.
</event>
<event>
 7    1  0.2733256E-010  0.4778726E+02  0.7816164E-02  0.1312668E+00
        -11   -1    0    0    0    0  0.00000000000E+00  0.00000000000E+00  0.45593999997E+02  0.45594000000E+02  0.51100000000E-03 0.  1.
         11   -1    0    0    0    0 -0.00000000000E+00 -0.00000000000E+00 -0.45593999997E+02  0.45594000000E+02  0.51100000000E-03 0. -1.
    9900012    2    1    2    0    0  0.13808073272E+02 -0.94985486248E+01  0.40034217356E+02  0.47787264144E+02  0.19999968540E+02 0.  0.
         12    1    1    2    0    0 -0.13808073272E+02  0.94985486248E+01 -0.40034217356E+02  0.43400735856E+02  0.00000000000E+00 0. -1.
         11    1    3    3    0    0  0.16166996464E+02 -0.60097429142E+01  0.26646277824E+02  0.31741343807E+02  0.51100000000E-03 0.  1.
        -11    1    3    3    0    0  0.19310561352E+00  0.10615517453E+01  0.94449139882E+01  0.95063443232E+01  0.51100000000E-03 0. -1.
        -12    1    3    3    0    0 -0.25520288053E+01 -0.45503574559E+01  0.39430255444E+01  0.65395760140E+01  0.00000000000E+00 0.  1.
</event>
<event>
 7    1  0.2733256E-010  0.4778728E+02  0.7816164E-02  0.1312668E+00
        -11   -1    0    0    0    0  0.00000000000E+00  0.00000000000E+00  0.45593999997E+02  0.45594000000E+02  0.51100000000E-03 0. -1.
         11   -1    0    0    0    0 -0.00000000000E+00 -0.00000000000E+00 -0.45593999997E+02  0.45594000000E+02  0.51100000000E-03 0.  1.
    9900012    2    1    2    0    0  0.36679793539E+02 -0.18074020114E+02 -0.14544597568E+02  0.47787276786E+02  0.20000026176E+02 0.  0.
         12    1    1    2    0    0 -0.36679793539E+02  0.18074020114E+02  0.14544597568E+02  0.43400723214E+02  0.00000000000E+00 0. -1.
         11    1    3    3    0    0 -0.56265723406E+00  0.15467226439E+01 -0.15080924000E+01  0.22323254799E+01  0.51100000000E-03 0. -1.
        -11    1    3    3    0    0  0.13918772720E+02 -0.17751764515E+01 -0.65231910551E+01  0.15473703734E+02  0.51100000000E-03 0.  1.
        -12    1    3    3    0    0  0.23323678053E+02 -0.17845566306E+02 -0.65133141125E+01  0.30081247571E+02  0.00000000000E+00 0.  1.
</event>
<event>
 7    1  0.2733256E-010  0.4778727E+02  0.7816164E-02  0.1312668E+00
        -11   -1    0    0    0    0  0.00000000000E+00  0.00000000000E+00  0.45593999997E+02  0.45594000000E+02  0.51100000000E-03 0.  1.
         11   -1    0    0    0    0 -0.00000000000E+00 -0.00000000000E+00 -0.45593999997E+02  0.45594000000E+02  0.51100000000E-03 0. -1.
    9900012    2    1    2    0    0 -0.52556857898E+01  0.37304865133E+02  0.21548743231E+02  0.47787268087E+02  0.19999986517E+02 0.  0.
         12    1    1    2    0    0  0.52556857898E+01 -0.37304865133E+02 -0.21548743231E+02  0.43400731913E+02  0.00000000000E+00 0. -1.
         11    1    3    3    0    0 -0.56610237732E+01  0.87274655268E+01  0.15007977227E+01  0.10510387183E+02  0.51100000000E-03 0. -1.
        -11    1    3    3    0    0 -0.66146090229E+00  0.58874238718E+01 -0.13434516756E+01  0.60748788496E+01  0.51100000000E-03 0.  1.
        -12    1    3    3    0    0  0.10667988856E+01  0.22689975735E+02  0.21391397184E+02  0.31202002054E+02  0.00000000000E+00 0.  1.
</event>
<event>
 7    1  0.2733256E-010  0.4778727E+02  0.7816164E-02  0.1312668E+00
        -11   -1    0    0    0    0  0.00000000000E+00  0.00000000000E+00  0.45593999997E+02  0.45594000000E+02  0.51100000000E-03 0.  1.
         11   -1    0    0    0    0 -0.00000000000E+00 -0.00000000000E+00 -0.45593999997E+02  0.45594000000E+02  0.51100000000E-03 0. -1.
    9900012    2    1    2    0    0 -0.16129495504E+02  0.39913920183E+02 -0.55083473475E+01  0.47787267977E+02  0.19999986015E+02 0.  0.
         12    1    1    2    0    0  0.16129495504E+02 -0.39913920183E+02  0.55083473475E+01  0.43400732023E+02  0.00000000000E+00 0. -1.
         11    1    3    3    0    0  0.31208035731E+01  0.27586926265E+01 -0.29290649672E+01  0.50920744096E+01  0.51100000000E-03 0. -1.
        -11    1    3    3    0    0  0.50550066188E+00 -0.98815491209E-02  0.11813946757E+00  0.51921648576E+00  0.51100000000E-03 0.  1.
        -12    1    3    3    0    0 -0.19755799739E+02  0.37165109106E+02 -0.26974218479E+01  0.42175977082E+02  0.00000000000E+00 0.  1.
</event>
<event>
 7    1  0.2733256E-010  0.4778727E+02  0.7816164E-02  0.1312668E+00
        -11   -1    0    0    0    0  0.00000000000E+00  0.00000000000E+00  0.45593999997E+02  0.45594000000E+02  0.51100000000E-03 0. -1.
         11   -1    0    0    0    0 -0.00000000000E+00 -0.00000000000E+00 -0.45593999997E+02  0.45594000000E+02  0.51100000000E-03 0.  1.
    9900012    2    1    2    0    0 -0.15225963901E+02  0.98247560204E+01 -0.39436880473E+02  0.47787270179E+02  0.19999996053E+02 0.  0.
         12    1    1    2    0    0  0.15225963901E+02 -0.98247560204E+01  0.39436880473E+02  0.43400729821E+02  0.00000000000E+00 0. -1.
         11    1    3    3    0    0  0.33433871675E+01  0.39400551066E+00 -0.12728420718E+02  0.13166099359E+02  0.51100000000E-03 0. -1.
        -11    1    3    3    0    0 -0.41783921945E+01  0.57855922677E+01 -0.97504166751E+01  0.12083156244E+02  0.51100000000E-03 0.  1.
        -12    1    3    3    0    0 -0.14390958874E+02  0.36451582421E+01 -0.16958043080E+02  0.22538014576E+02  0.00000000000E+00 0.  1.
</event>
<event>
 7    1  0.2733256E-010  0.4778727E+02  0.7816164E-02  0.1312668E+00
        -11   -1    0    0    0    0  0.00000000000E+00  0.00000000000E+00  0.45593999997E+02  0.45594000000E+02  0.51100000000E-03 0.  1.
         11   -1    0    0    0    0 -0.00000000000E+00 -0.00000000000E+00 -0.45593999997E+02  0.45594000000E+02  0.51100000000E-03 0. -1.
    9900012    2    1    2    0    0  0.31034004645E+02 -0.32070537069E+01 -0.30169993079E+02  0.47787272815E+02  0.20000008073E+02 0.  0.
         12    1    1    2    0    0 -0.31034004645E+02  0.32070537069E+01  0.30169993079E+02  0.43400727185E+02  0.00000000000E+00 0. -1.
         11    1    3    3    0    0  0.17424009889E+02 -0.19794537619E+01 -0.25627413022E+02  0.31052836525E+02  0.51100000000E-03 0. -1.
        -11    1    3    3    0    0  0.10330188391E+01 -0.56064369648E+00 -0.39551516850E+01  0.41260967499E+01  0.51100000000E-03 0.  1.
        -12    1    3    3    0    0  0.12576975917E+02 -0.66695624855E+00 -0.58742837164E+00  0.12608339540E+02  0.00000000000E+00 0.  1.
</event>
<event>
 7    1  0.2733256E-010  0.4778727E+02  0.7816164E-02  0.1312668E+00
        -11   -1    0    0    0    0  0.00000000000E+00  0.00000000000E+00  0.45593999997E+02  0.45594000000E+02  0.51100000000E-03 0.  1.
         11   -1    0    0    0    0 -0.00000000000E+00 -0.00000000000E+00 -0.45593999997E+02  0.45594000000E+02  0.51100000000E-03 0. -1.
    9900012    2    1    2    0    0 -0.24724948707E+02  0.37997646400E+01  0.35466350757E+02  0.47787270330E+02  0.19999996743E+02 0.  0.
         12    1    1    2    0    0  0.24724948707E+02 -0.37997646400E+01 -0.35466350757E+02  0.43400729670E+02  0.00000000000E+00 0. -1.
         11    1    3    3    0    0 -0.67433688587E+01 -0.45857529374E+01  0.16472127855E+02  0.18380238026E+02  0.51100000000E-03 0.  1.
        -11    1    3    3    0    0 -0.23287861192E+01 -0.24749185366E+01  0.28703590367E+01  0.44483061735E+01  0.51100000000E-03 0. -1.
        -12    1    3    3    0    0 -0.15652793729E+02  0.10860436114E+02  0.16123863865E+02  0.24958726131E+02  0.00000000000E+00 0.  1.
</event>
<event>
 7    1  0.2733256E-010  0.4778727E+02  0.7816164E-02  0.1312668E+00
        -11   -1    0    0    0    0  0.00000000000E+00  0.00000000000E+00  0.45593999997E+02  0.45594000000E+02  0.51100000000E-03 0.  1.
         11   -1    0    0    0    0 -0.00000000000E+00 -0.00000000000E+00 -0.45593999997E+02  0.45594000000E+02  0.51100000000E-03 0. -1.
    9900012    2    1    2    0    0 -0.15897694132E+01 -0.80727870124E+01  0.42613680510E+02  0.47787273928E+02  0.20000013148E+02 0.  0.
         12    1    1    2    0    0  0.15897694132E+01  0.80727870124E+01 -0.42613680510E+02  0.43400726072E+02  0.00000000000E+00 0. -1.
         11    1    3    3    0    0 -0.67452805867E+00 -0.57104735921E+01  0.17554854373E+02  0.18472612405E+02  0.51100000000E-03 0. -1.
        -11    1    3    3    0    0 -0.78633249509E+00 -0.43180644595E+01  0.26513183604E+02  0.26874019136E+02  0.51100000000E-03 0.  1.
         12    1    3    3    0    0 -0.12890885941E+00  0.19557510391E+01 -0.14543574664E+01  0.24406423870E+01  0.00000000000E+00 0. -1.
</event>
<event>
 7    1  0.2733256E-010  0.4778728E+02  0.7816164E-02  0.1312668E+00
        -11   -1    0    0    0    0  0.00000000000E+00  0.00000000000E+00  0.45593999997E+02  0.45594000000E+02  0.51100000000E-03 0. -1.
         11   -1    0    0    0    0 -0.00000000000E+00 -0.00000000000E+00 -0.45593999997E+02  0.45594000000E+02  0.51100000000E-03 0.  1.
    9900012    2    1    2    0    0  0.13670811532E+02  0.21281930090E+02 -0.35267708526E+02  0.47787275341E+02  0.20000019587E+02 0.  0.
         12    1    1    2    0    0 -0.13670811532E+02 -0.21281930090E+02  0.35267708526E+02  0.43400724659E+02  0.00000000000E+00 0. -1.
         11    1    3    3    0    0  0.82897415656E+01  0.60540156860E+01 -0.62568782704E+01  0.12021624146E+02  0.51100000000E-03 0. -1.
        -11    1    3    3    0    0  0.88101704103E+01  0.55326039435E+01 -0.11939273924E+02  0.15835879235E+02  0.51100000000E-03 0.  1.
        -12    1    3    3    0    0 -0.34291004441E+01  0.96953104602E+01 -0.17071556332E+02  0.19929771959E+02  0.00000000000E+00 0.  1.
</event>
<event>
 7    1  0.2733256E-010  0.4778727E+02  0.7816164E-02  0.1312668E+00
        -11   -1    0    0    0    0  0.00000000000E+00  0.00000000000E+00  0.45593999997E+02  0.45594000000E+02  0.51100000000E-03 0.  1.
         11   -1    0    0    0    0 -0.00000000000E+00 -0.00000000000E+00 -0.45593999997E+02  0.45594000000E+02  0.51100000000E-03 0. -1.
    9900012    2    1    2    0    0  0.10942253745E+02  0.97284048250E+01  0.40856437538E+02  0.47787271138E+02  0.20000000428E+02 0.  0.
         12    1    1    2    0    0 -0.10942253745E+02 -0.97284048250E+01 -0.40856437538E+02  0.43400728862E+02  0.00000000000E+00 0. -1.
         11    1    3    3    0    0  0.18221344999E+00 -0.57731670860E+00 -0.99178597143E+00  0.11619535264E+01  0.51100000000E-03 0. -1.
        -11    1    3    3    0    0  0.51433407782E+01 -0.27580023871E+01  0.17275835157E+02  0.18234994164E+02  0.51100000000E-03 0.  1.
        -12    1    3    3    0    0  0.56166995166E+01  0.13063723921E+02  0.24572388352E+02  0.28390323447E+02  0.00000000000E+00 0.  1.
</event>
<event>
 7    1  0.2733256E-010  0.4778727E+02  0.7816164E-02  0.1312668E+00
        -11   -1    0    0    0    0  0.00000000000E+00  0.00000000000E+00  0.45593999997E+02  0.45594000000E+02  0.51100000000E-03 0. -1.
         11   -1    0    0    0    0 -0.00000000000E+00 -0.00000000000E+00 -0.45593999997E+02  0.45594000000E+02  0.51100000000E-03 0.  1.
    9900012    2    1    2    0    0  0.40909805940E+02 -0.13356898570E+02 -0.56217970227E+01  0.47787267711E+02  0.19999984801E+02 0.  0.
         12    1    1    2    0    0 -0.40909805940E+02  0.13356898570E+02  0.56217970227E+01  0.43400732289E+02  0.00000000000E+00 0. -1.
         11    1    3    3    0    0  0.54066970417E+01 -0.62256643545E+01 -0.68333317061E+00  0.82739479113E+01  0.51100000000E-03 0. -1.
        -11    1    3    3    0    0  0.29776817204E+02 -0.10004296058E+02  0.19195054100E-01  0.31412499918E+02  0.51100000000E-03 0.  1.
         12    1    3    3    0    0  0.57262916944E+01  0.28730618424E+01 -0.49576589062E+01  0.81008198813E+01  0.00000000000E+00 0. -1.
</event>
<event>
 7    1  0.2733256E-010  0.4778727E+02  0.7816164E-02  0.1312668E+00
        -11   -1    0    0    0    0  0.00000000000E+00  0.00000000000E+00  0.45593999997E+02  0.45594000000E+02  0.51100000000E-03 0. -1.
         11   -1    0    0    0    0 -0.00000000000E+00 -0.00000000000E+00 -0.45593999997E+02  0.45594000000E+02  0.51100000000E-03 0.  1.
    9900012    2    1    2    0    0  0.27041507663E+02  0.10047677294E+02 -0.32425676414E+02  0.47787269055E+02  0.19999990927E+02 0.  0.
         12    1    1    2    0    0 -0.27041507663E+02 -0.10047677294E+02  0.32425676414E+02  0.43400730945E+02  0.00000000000E+00 0. -1.
         11    1    3    3    0    0  0.15699974853E+02  0.84264505972E+01 -0.20389009022E+02  0.27077776297E+02  0.51100000000E-03 0. -1.
        -11    1    3    3    0    0  0.23688183197E+01  0.62980820709E+01 -0.45588234460E+01  0.81277308935E+01  0.51100000000E-03 0.  1.
         12    1    3    3    0    0  0.89727144906E+01 -0.46768553740E+01 -0.74778439457E+01  0.12581761864E+02  0.00000000000E+00 0. -1.
</event>
<event>
 7    1  0.2733256E-010  0.4778726E+02  0.7816164E-02  0.1312668E+00
        -11   -1    0    0    0    0  0.00000000000E+00  0.00000000000E+00  0.45593999997E+02  0.45594000000E+02  0.51100000000E-03 0.  1.
         11   -1    0    0    0    0 -0.00000000000E+00 -0.00000000000E+00 -0.45593999997E+02  0.45594000000E+02  0.51100000000E-03 0. -1.
    9900012    2    1    2    0    0  0.29614579293E+02  0.22444049590E+02  0.22424667314E+02  0.47787258384E+02  0.19999942274E+02 0.  0.
         12    1    1    2    0    0 -0.29614579293E+02 -0.22444049590E+02 -0.22424667314E+02  0.43400741616E+02  0.00000000000E+00 0. -1.
         11    1    3    3    0    0  0.80609446366E+01  0.56167855912E+01  0.14115661611E+02  0.17198226996E+02  0.51100000000E-03 0. -1.
        -11    1    3    3    0    0  0.73385490243E+01  0.10777880647E+02  0.76687614210E+01  0.15127025981E+02  0.51100000000E-03 0.  1.
         12    1    3    3    0    0  0.14215085632E+02  0.60493833516E+01  0.64024428189E+00  0.15462005407E+02  0.00000000000E+00 0. -1.
</event>
<event>
 7    1  0.2733256E-010  0.4778727E+02  0.7816164E-02  0.1312668E+00
        -11   -1    0    0    0    0  0.00000000000E+00  0.00000000000E+00  0.45593999997E+02  0.45594000000E+02  0.51100000000E-03 0.  1.
         11   -1    0    0    0    0 -0.00000000000E+00 -0.00000000000E+00 -0.45593999997E+02  0.45594000000E+02  0.51100000000E-03 0. -1.
    9900012    2    1    2    0    0 -0.14652205725E+02  0.30919297471E+02  0.26700808949E+02  0.47787270890E+02  0.19999999296E+02 0.  0.
         12    1    1    2    0    0  0.14652205725E+02 -0.30919297471E+02 -0.26700808949E+02  0.43400729110E+02  0.00000000000E+00 0. -1.
         11    1    3    3    0    0 -0.22317270489E+00  0.57090759604E+01  0.12953883843E+02  0.14157911614E+02  0.51100000000E-03 0. -1.
        -11    1    3    3    0    0 -0.78773444680E+01  0.16417316311E+02  0.13488383458E+02  0.22660920530E+02  0.51100000000E-03 0.  1.
        -12    1    3    3    0    0 -0.65516885523E+01  0.87929052000E+01  0.25854164828E+00  0.10968438746E+02  0.00000000000E+00 0.  1.
</event>
<event>
 7    1  0.2733256E-010  0.4778727E+02  0.7816164E-02  0.1312668E+00
        -11   -1    0    0    0    0  0.00000000000E+00  0.00000000000E+00  0.45593999997E+02  0.45594000000E+02  0.51100000000E-03 0.  1.
         11   -1    0    0    0    0 -0.00000000000E+00 -0.00000000000E+00 -0.45593999997E+02  0.45594000000E+02  0.51100000000E-03 0. -1.
    9900012    2    1    2    0    0 -0.36577263959E+02 -0.87943830779E+01  0.21642227853E+02  0.47787269144E+02  0.19999991333E+02 0.  0.
         12    1    1    2    0    0  0.36577263959E+02  0.87943830779E+01 -0.21642227853E+02  0.43400730856E+02  0.00000000000E+00 0. -1.
         11    1    3    3    0    0 -0.30944760521E+01 -0.29697253226E+01 -0.27264757628E+01  0.50821964616E+01  0.51100000000E-03 0. -1.
        -11    1    3    3    0    0 -0.13361277970E+02 -0.60718069450E+01  0.76914409022E+01  0.16569515744E+02  0.51100000000E-03 0.  1.
        -12    1    3    3    0    0 -0.20121509937E+02  0.24714918974E+00  0.16677262713E+02  0.26135556938E+02  0.00000000000E+00 0.  1.
</event>
<event>
 7    1  0.2733256E-010  0.4778728E+02  0.7816164E-02  0.1312668E+00
        -11   -1    0    0    0    0  0.00000000000E+00  0.00000000000E+00  0.45593999997E+02  0.45594000000E+02  0.51100000000E-03 0. -1.
         11   -1    0    0    0    0 -0.00000000000E+00 -0.00000000000E+00 -0.45593999997E+02  0.45594000000E+02  0.51100000000E-03 0.  1.
    9900012    2    1    2    0    0  0.79270089747E+01  0.21729150958E+02 -0.36723682500E+02  0.47787281929E+02  0.20000049629E+02 0.  0.
         12    1    1    2    0    0 -0.79270089747E+01 -0.21729150958E+02  0.36723682500E+02  0.43400718071E+02  0.00000000000E+00 0. -1.
         11    1    3    3    0    0 -0.39199302847E+00  0.73334104447E+01 -0.11854324326E+01  0.74389392791E+01  0.51100000000E-03 0. -1.
        -11    1    3    3    0    0 -0.13743499984E+01  0.62327887357E+01 -0.13317489282E+02  0.14767938732E+02  0.51100000000E-03 0.  1.
        -12    1    3    3    0    0  0.96933520016E+01  0.81629517780E+01 -0.22220760786E+02  0.25580403919E+02  0.00000000000E+00 0.  1.
</event>
<event>
 7    1  0.2733256E-010  0.4778727E+02  0.7816164E-02  0.1312668E+00
        -11   -1    0    0    0    0  0.00000000000E+00  0.00000000000E+00  0.45593999997E+02  0.45594000000E+02  0.51100000000E-03 0. -1.
         11   -1    0    0    0    0 -0.00000000000E+00 -0.00000000000E+00 -0.45593999997E+02  0.45594000000E+02  0.51100000000E-03 0.  1.
    9900012    2    1    2    0    0 -0.42096003802E+02  0.88976835837E+01 -0.56904199161E+01  0.47787272033E+02  0.20000004506E+02 0.  0.
         12    1    1    2    0    0  0.42096003802E+02 -0.88976835837E+01  0.56904199161E+01  0.43400727967E+02  0.00000000000E+00 0. -1.
         11    1    3    3    0    0 -0.33870546470E+02 -0.78831570410E+00 -0.30260203583E+01  0.34014587448E+02  0.51100000000E-03 0.  1.
        -11    1    3    3    0    0 -0.11465934547E+01  0.13487584267E+01 -0.22026391190E+01  0.28258530029E+01  0.51100000000E-03 0. -1.
        -12    1    3    3    0    0 -0.70788638779E+01  0.83372408611E+01 -0.46176043883E+00  0.10946831582E+02  0.00000000000E+00 0.  1.
</event>
<event>
 7    1  0.2733256E-010  0.4778729E+02  0.7816164E-02  0.1312668E+00
        -11   -1    0    0    0    0  0.00000000000E+00  0.00000000000E+00  0.45593999997E+02  0.45594000000E+02  0.51100000000E-03 0. -1.
         11   -1    0    0    0    0 -0.00000000000E+00 -0.00000000000E+00 -0.45593999997E+02  0.45594000000E+02  0.51100000000E-03 0.  1.
    9900012    2    1    2    0    0 -0.80733649745E+01 -0.42562187649E+02  0.26272961596E+01  0.47787288893E+02  0.20000081379E+02 0.  0.
         12    1    1    2    0    0  0.80733649745E+01  0.42562187649E+02 -0.26272961596E+01  0.43400711107E+02  0.00000000000E+00 0. -1.
         11    1    3    3    0    0 -0.86797452856E+01 -0.16732554413E+02  0.36560916519E+01  0.19201129181E+02  0.51100000000E-03 0. -1.
        -11    1    3    3    0    0  0.11154239103E+01 -0.11628671368E+01  0.31731900733E+01  0.35588714475E+01  0.51100000000E-03 0.  1.
         12    1    3    3    0    0 -0.50904359920E+00 -0.24666766099E+02 -0.42019855655E+01  0.25027288265E+02  0.00000000000E+00 0. -1.
</event>
<event>
 7    1  0.2733256E-010  0.4778727E+02  0.7816164E-02  0.1312668E+00
        -11   -1    0    0    0    0  0.00000000000E+00  0.00000000000E+00  0.45593999997E+02  0.45594000000E+02  0.51100000000E-03 0.  1.
         11   -1    0    0    0    0 -0.00000000000E+00 -0.00000000000E+00 -0.45593999997E+02  0.45594000000E+02  0.51100000000E-03 0. -1.
    9900012    2    1    2    0    0  0.33818665245E+02 -0.25368823352E+02  0.98155004478E+01  0.47787269981E+02  0.19999995150E+02 0.  0.
         12    1    1    2    0    0 -0.33818665245E+02  0.25368823352E+02 -0.98155004478E+01  0.43400730019E+02  0.00000000000E+00 0. -1.
         11    1    3    3    0    0  0.10777353371E+02 -0.44724498918E+01 -0.35986862736E+01  0.12210843414E+02  0.51100000000E-03 0. -1.
        -11    1    3    3    0    0 -0.11543190011E+01 -0.11389216158E+01  0.12759682808E+01  0.20634170975E+01  0.51100000000E-03 0.  1.
        -12    1    3    3    0    0  0.24195630875E+02 -0.19757451844E+02  0.12138218441E+02  0.33513009469E+02  0.00000000000E+00 0.  1.
</event>
<event>
 7    1  0.2733256E-010  0.4778727E+02  0.7816164E-02  0.1312668E+00
        -11   -1    0    0    0    0  0.00000000000E+00  0.00000000000E+00  0.45593999997E+02  0.45594000000E+02  0.51100000000E-03 0. -1.
         11   -1    0    0    0    0 -0.00000000000E+00 -0.00000000000E+00 -0.45593999997E+02  0.45594000000E+02  0.51100000000E-03 0.  1.
    9900012    2    1    2    0    0  0.40535971029E+02 -0.15492518384E+02 -0.66352049117E+00  0.47787270368E+02  0.19999996918E+02 0.  0.
         12    1    1    2    0    0 -0.40535971029E+02  0.15492518384E+02  0.66352049117E+00  0.43400729632E+02  0.00000000000E+00 0. -1.
         11    1    3    3    0    0  0.34176014879E+02 -0.18393134270E+02 -0.33552409838E+01  0.38955936949E+02  0.51100000000E-03 0. -1.
        -11    1    3    3    0    0  0.33451942446E+01 -0.95717245622E+00  0.71990290723E+00  0.35531344053E+01  0.51100000000E-03 0.  1.
         12    1    3    3    0    0  0.30147619053E+01  0.38577883423E+01  0.19718175854E+01  0.52781990138E+01  0.00000000000E+00 0. -1.
</event>
<event>
 7    1  0.2884815E-010  0.4778728E+02  0.7816164E-02  0.1312668E+00
        -11   -1    0    0    0    0  0.00000000000E+00  0.00000000000E+00  0.45593999997E+02  0.45594000000E+02  0.51100000000E-03 0. -1.
         11   -1    0    0    0    0 -0.00000000000E+00 -0.00000000000E+00 -0.45593999997E+02  0.45594000000E+02  0.51100000000E-03 0.  1.
    9900012    2    1    2    0    0  0.35771363034E+01  0.18354754624E+02 -0.39165417701E+02  0.47787275753E+02  0.20000021470E+02 0.  0.
         12    1    1    2    0    0 -0.35771363034E+01 -0.18354754624E+02  0.39165417701E+02  0.43400724247E+02  0.00000000000E+00 0. -1.
         11    1    3    3    0    0  0.23440793580E+01  0.16831933143E+01  0.13991426383E+01  0.32070934120E+01  0.51100000000E-03 0. -1.
        -11    1    3    3    0    0  0.22867151660E+01  0.42333598909E+01 -0.19589513049E+02  0.20171748163E+02  0.51100000000E-03 0.  1.
        -12    1    3    3    0    0 -0.10536582206E+01  0.12438201419E+02 -0.20975047291E+02  0.24408434178E+02  0.00000000000E+00 0.  1.
</event>
<event>
 7    1  0.2733256E-010  0.4778727E+02  0.7816164E-02  0.1312668E+00
        -11   -1    0    0    0    0  0.00000000000E+00  0.00000000000E+00  0.45593999997E+02  0.45594000000E+02  0.51100000000E-03 0. -1.
         11   -1    0    0    0    0 -0.00000000000E+00 -0.00000000000E+00 -0.45593999997E+02  0.45594000000E+02  0.51100000000E-03 0.  1.
    9900012    2    1    2    0    0 -0.29168255190E+02  0.28930964871E+02 -0.13994121604E+02  0.47787270989E+02  0.19999999748E+02 0.  0.
         12    1    1    2    0    0  0.29168255190E+02 -0.28930964871E+02  0.13994121604E+02  0.43400729011E+02  0.00000000000E+00 0. -1.
         11    1    3    3    0    0 -0.11812816842E+02  0.14071728951E+02 -0.30426264734E+01  0.18622936759E+02  0.51100000000E-03 0. -1.
        -11    1    3    3    0    0 -0.19741610789E+02  0.13864309635E+02 -0.11141192821E+02  0.26572099201E+02  0.51100000000E-03 0.  1.
         12    1    3    3    0    0  0.23861724413E+01  0.99492628554E+00  0.18969769033E+00  0.25922350293E+01  0.00000000000E+00 0. -1.
</event>
<event>
 7    1  0.2733256E-010  0.4778727E+02  0.7816164E-02  0.1312668E+00
        -11   -1    0    0    0    0  0.00000000000E+00  0.00000000000E+00  0.45593999997E+02  0.45594000000E+02  0.51100000000E-03 0. -1.
         11   -1    0    0    0    0 -0.00000000000E+00 -0.00000000000E+00 -0.45593999997E+02  0.45594000000E+02  0.51100000000E-03 0.  1.
    9900012    2    1    2    0    0 -0.56041144739E+01 -0.14291999214E+02 -0.40595023294E+02  0.47787271241E+02  0.20000000895E+02 0.  0.
         12    1    1    2    0    0  0.56041144739E+01  0.14291999214E+02  0.40595023294E+02  0.43400728759E+02  0.00000000000E+00 0. -1.
         11    1    3    3    0    0 -0.42410913186E+01 -0.56512887296E+01 -0.36352161595E+01  0.79459874569E+01  0.51100000000E-03 0. -1.
        -11    1    3    3    0    0 -0.26432453573E+01 -0.10408247075E+02 -0.19636412236E+02  0.22380952593E+02  0.51100000000E-03 0.  1.
         12    1    3    3    0    0  0.12802222020E+01  0.17675365906E+01 -0.17323394899E+02  0.17460331191E+02  0.00000000000E+00 0. -1.
</event>
<event>
 7    1  0.2733256E-010  0.4778727E+02  0.7816164E-02  0.1312668E+00
        -11   -1    0    0    0    0  0.00000000000E+00  0.00000000000E+00  0.45593999997E+02  0.45594000000E+02  0.51100000000E-03 0.  1.
         11   -1    0    0    0    0 -0.00000000000E+00 -0.00000000000E+00 -0.45593999997E+02  0.45594000000E+02  0.51100000000E-03 0. -1.
    9900012    2    1    2    0    0  0.36354832982E+01 -0.42496843670E+02 -0.80264928013E+01  0.47787273653E+02  0.20000011894E+02 0.  0.
         12    1    1    2    0    0 -0.36354832982E+01  0.42496843670E+02  0.80264928013E+01  0.43400726347E+02  0.00000000000E+00 0. -1.
         11    1    3    3    0    0 -0.25831532868E+01 -0.19404844742E+02 -0.56791869579E+01  0.20383175541E+02  0.51100000000E-03 0. -1.
        -11    1    3    3    0    0  0.21253080325E+01 -0.22773020432E+02 -0.35033044121E+01  0.23138723731E+02  0.51100000000E-03 0.  1.
         12    1    3    3    0    0  0.40933285525E+01 -0.31897849573E+00  0.11559985687E+01  0.42653743810E+01  0.00000000000E+00 0. -1.
</event>
<event>
 7    1  0.2733256E-010  0.4778727E+02  0.7816164E-02  0.1312668E+00
        -11   -1    0    0    0    0  0.00000000000E+00  0.00000000000E+00  0.45593999997E+02  0.45594000000E+02  0.51100000000E-03 0.  1.
         11   -1    0    0    0    0 -0.00000000000E+00 -0.00000000000E+00 -0.45593999997E+02  0.45594000000E+02  0.51100000000E-03 0. -1.
    9900012    2    1    2    0    0  0.35059973472E+02  0.23080568976E+02  0.11032188623E+02  0.47787267404E+02  0.19999983401E+02 0.  0.
         12    1    1    2    0    0 -0.35059973472E+02 -0.23080568976E+02 -0.11032188623E+02  0.43400732596E+02  0.00000000000E+00 0. -1.
         11    1    3    3    0    0  0.62074447835E+01  0.64487642567E+01 -0.28119828653E-01  0.89509620804E+01  0.51100000000E-03 0. -1.
        -11    1    3    3    0    0  0.20980549881E+02  0.12336208224E+02  0.15474146469E+02  0.28841198239E+02  0.51100000000E-03 0.  1.
         12    1    3    3    0    0  0.78719788070E+01  0.42955964944E+01 -0.44138380173E+01  0.99951070842E+01  0.00000000000E+00 0. -1.
</event>
<event>
 7    1  0.2733256E-010  0.4778726E+02  0.7816164E-02  0.1312668E+00
        -11   -1    0    0    0    0  0.00000000000E+00  0.00000000000E+00  0.45593999997E+02  0.45594000000E+02  0.51100000000E-03 0.  1.
         11   -1    0    0    0    0 -0.00000000000E+00 -0.00000000000E+00 -0.45593999997E+02  0.45594000000E+02  0.51100000000E-03 0. -1.
    9900012    2    1    2    0    0  0.26385699351E+02  0.26962319294E+02 -0.21458147825E+02  0.47787263831E+02  0.19999967109E+02 0.  0.
         12    1    1    2    0    0 -0.26385699351E+02 -0.26962319294E+02  0.21458147825E+02  0.43400736169E+02  0.00000000000E+00 0. -1.
         11    1    3    3    0    0  0.11959793023E+02  0.11291449437E+02 -0.79393875725E+01  0.18263826401E+02  0.51100000000E-03 0. -1.
        -11    1    3    3    0    0  0.94336193590E+01  0.18307164184E+02 -0.10347940754E+02  0.23048325596E+02  0.51100000000E-03 0.  1.
         12    1    3    3    0    0  0.49922869691E+01 -0.26362943266E+01 -0.31708194984E+01  0.64751118330E+01  0.00000000000E+00 0. -1.
</event>
<event>
 7    1  0.2733256E-010  0.4778727E+02  0.7816164E-02  0.1312668E+00
        -11   -1    0    0    0    0  0.00000000000E+00  0.00000000000E+00  0.45593999997E+02  0.45594000000E+02  0.51100000000E-03 0.  1.
         11   -1    0    0    0    0 -0.00000000000E+00 -0.00000000000E+00 -0.45593999997E+02  0.45594000000E+02  0.51100000000E-03 0. -1.
    9900012    2    1    2    0    0  0.39274561776E+02 -0.17529412600E+02  0.58182216565E+01  0.47787271757E+02  0.20000003249E+02 0.  0.
         12    1    1    2    0    0 -0.39274561776E+02  0.17529412600E+02 -0.58182216565E+01  0.43400728243E+02  0.00000000000E+00 0. -1.
         11    1    3    3    0    0  0.27697429191E+01 -0.12016355301E+01  0.53002579149E+01  0.60998473760E+01  0.51100000000E-03 0. -1.
        -11    1    3    3    0    0  0.13366889526E+02 -0.16904429271E+01  0.40800480188E+01  0.14077575252E+02  0.51100000000E-03 0.  1.
        -12    1    3    3    0    0  0.23137929331E+02 -0.14637334143E+02 -0.35620842772E+01  0.27609849129E+02  0.00000000000E+00 0.  1.
</event>
<event>
 7    1  0.2733256E-010  0.4778732E+02  0.7816164E-02  0.1312668E+00
        -11   -1    0    0    0    0  0.00000000000E+00  0.00000000000E+00  0.45593999997E+02  0.45594000000E+02  0.51100000000E-03 0.  1.
         11   -1    0    0    0    0 -0.00000000000E+00 -0.00000000000E+00 -0.45593999997E+02  0.45594000000E+02  0.51100000000E-03 0. -1.
    9900012    2    1    2    0    0  0.19875465770E+02  0.31492267986E+02  0.22289496893E+02  0.47787323113E+02  0.20000237400E+02 0.  0.
         12    1    1    2    0    0 -0.19875465770E+02 -0.31492267986E+02 -0.22289496893E+02  0.43400676887E+02  0.00000000000E+00 0. -1.
         11    1    3    3    0    0  0.77323834090E+00 -0.13583544083E+01 -0.14081890208E+01  0.21038110205E+01  0.51100000000E-03 0. -1.
        -11    1    3    3    0    0  0.19639613622E+01  0.86033905811E+01  0.24083300743E+01  0.91474328492E+01  0.51100000000E-03 0.  1.
        -12    1    3    3    0    0  0.17138266067E+02  0.24247231814E+02  0.21289355840E+02  0.36536079243E+02  0.00000000000E+00 0.  1.
</event>
<event>
 7    1  0.2733256E-010  0.4778727E+02  0.7816164E-02  0.1312668E+00
        -11   -1    0    0    0    0  0.00000000000E+00  0.00000000000E+00  0.45593999997E+02  0.45594000000E+02  0.51100000000E-03 0.  1.
         11   -1    0    0    0    0 -0.00000000000E+00 -0.00000000000E+00 -0.45593999997E+02  0.45594000000E+02  0.51100000000E-03 0. -1.
    9900012    2    1    2    0    0 -0.11677709130E+02 -0.18048054762E+02  0.37703081985E+02  0.47787267721E+02  0.19999984845E+02 0.  0.
         12    1    1    2    0    0  0.11677709130E+02  0.18048054762E+02 -0.37703081985E+02  0.43400732279E+02  0.00000000000E+00 0. -1.
         11    1    3    3    0    0 -0.81510493874E+01 -0.45035288721E+01  0.30438831009E+01  0.97972752850E+01  0.51100000000E-03 0. -1.
        -11    1    3    3    0    0 -0.17460865656E+01 -0.29924510940E+01  0.30408577523E+01  0.46098153949E+01  0.51100000000E-03 0.  1.
         12    1    3    3    0    0 -0.17805731774E+01 -0.10552074795E+02  0.31618341132E+02  0.33380177041E+02  0.00000000000E+00 0. -1.
</event>
<event>
 7    1  0.2733256E-010  0.4778727E+02  0.7816164E-02  0.1312668E+00
        -11   -1    0    0    0    0  0.00000000000E+00  0.00000000000E+00  0.45593999997E+02  0.45594000000E+02  0.51100000000E-03 0.  1.
         11   -1    0    0    0    0 -0.00000000000E+00 -0.00000000000E+00 -0.45593999997E+02  0.45594000000E+02  0.51100000000E-03 0. -1.
    9900012    2    1    2    0    0  0.31110917366E+02 -0.25095067802E+02 -0.16910693671E+02  0.47787272267E+02  0.20000005572E+02 0.  0.
         12    1    1    2    0    0 -0.31110917366E+02  0.25095067802E+02  0.16910693671E+02  0.43400727733E+02  0.00000000000E+00 0. -1.
         11    1    3    3    0    0  0.26461306940E+01 -0.19508241357E+01  0.27432580085E+01  0.42817271306E+01  0.51100000000E-03 0. -1.
        -11    1    3    3    0    0  0.15779889023E+02 -0.78429503421E+01 -0.36685987946E+01  0.17999316238E+02  0.51100000000E-03 0.  1.
        -12    1    3    3    0    0  0.12684897649E+02 -0.15301293324E+02 -0.15985352885E+02  0.25506228898E+02  0.00000000000E+00 0.  1.
</event>
<event>
 7    1  0.2733256E-010  0.4778727E+02  0.7816164E-02  0.1312668E+00
        -11   -1    0    0    0    0  0.00000000000E+00  0.00000000000E+00  0.45593999997E+02  0.45594000000E+02  0.51100000000E-03 0.  1.
         11   -1    0    0    0    0 -0.00000000000E+00 -0.00000000000E+00 -0.45593999997E+02  0.45594000000E+02  0.51100000000E-03 0. -1.
    9900012    2    1    2    0    0 -0.39319262987E+02  0.17912400770E+02  0.40944719670E+01  0.47787271390E+02  0.20000001575E+02 0.  0.
         12    1    1    2    0    0  0.39319262987E+02 -0.17912400770E+02 -0.40944719670E+01  0.43400728610E+02  0.00000000000E+00 0. -1.
         11    1    3    3    0    0 -0.96258277846E+01 -0.15055203370E+00 -0.29054598759E+00  0.96313884610E+01  0.51100000000E-03 0. -1.
        -11    1    3    3    0    0  0.10038394764E+01  0.44727375963E+00  0.24793943419E+01  0.27120368866E+01  0.51100000000E-03 0.  1.
        -12    1    3    3    0    0 -0.30697274679E+02  0.17615679044E+02  0.19056236126E+01  0.35443846042E+02  0.00000000000E+00 0.  1.
</event>
<event>
 7    1  0.2733256E-010  0.4778728E+02  0.7816164E-02  0.1312668E+00
        -11   -1    0    0    0    0  0.00000000000E+00  0.00000000000E+00  0.45593999997E+02  0.45594000000E+02  0.51100000000E-03 0.  1.
         11   -1    0    0    0    0 -0.00000000000E+00 -0.00000000000E+00 -0.45593999997E+02  0.45594000000E+02  0.51100000000E-03 0. -1.
    9900012    2    1    2    0    0 -0.12136585937E+02  0.15390808366E+02  0.38722718210E+02  0.47787278740E+02  0.20000035085E+02 0.  0.
         12    1    1    2    0    0  0.12136585937E+02 -0.15390808366E+02 -0.38722718210E+02  0.43400721260E+02  0.00000000000E+00 0. -1.
         11    1    3    3    0    0 -0.54091154366E+01  0.13459684284E+02  0.16783483635E+02  0.22183483811E+02  0.51100000000E-03 0. -1.
        -11    1    3    3    0    0  0.24455302268E+01  0.18758491718E+01  0.10487738799E+02  0.10931243917E+02  0.51100000000E-03 0.  1.
         12    1    3    3    0    0 -0.91730007275E+01  0.55274910438E-01  0.11451495776E+02  0.14672551011E+02  0.00000000000E+00 0. -1.
</event>
<event>
 7    1  0.2733256E-010  0.4778727E+02  0.7816164E-02  0.1312668E+00
        -11   -1    0    0    0    0  0.00000000000E+00  0.00000000000E+00  0.45593999997E+02  0.45594000000E+02  0.51100000000E-03 0.  1.
         11   -1    0    0    0    0 -0.00000000000E+00 -0.00000000000E+00 -0.45593999997E+02  0.45594000000E+02  0.51100000000E-03 0. -1.
    9900012    2    1    2    0    0 -0.19384357750E+02  0.36492447674E+02  0.13272953421E+02  0.47787270108E+02  0.19999995731E+02 0.  0.
         12    1    1    2    0    0  0.19384357750E+02 -0.36492447674E+02 -0.13272953421E+02  0.43400729892E+02  0.00000000000E+00 0. -1.
         11    1    3    3    0    0 -0.11714491520E+02  0.10805247313E+02  0.63192297733E+01  0.17143959468E+02  0.51100000000E-03 0. -1.
        -11    1    3    3    0    0 -0.48629730421E+01  0.12326828363E+02  0.10065986102E+02  0.16641012011E+02  0.51100000000E-03 0.  1.
         12    1    3    3    0    0 -0.28068931876E+01  0.13360371999E+02 -0.31122624535E+01  0.14002298629E+02  0.00000000000E+00 0. -1.
</event>
<event>
 7    1  0.2733256E-010  0.4778727E+02  0.7816164E-02  0.1312668E+00
        -11   -1    0    0    0    0  0.00000000000E+00  0.00000000000E+00  0.45593999997E+02  0.45594000000E+02  0.51100000000E-03 0.  1.
         11   -1    0    0    0    0 -0.00000000000E+00 -0.00000000000E+00 -0.45593999997E+02  0.45594000000E+02  0.51100000000E-03 0. -1.
    9900012    2    1    2    0    0  0.30455772745E+02 -0.29298454851E+02  0.98827941404E+01  0.47787272239E+02  0.20000005446E+02 0.  0.
         12    1    1    2    0    0 -0.30455772745E+02  0.29298454851E+02 -0.98827941404E+01  0.43400727761E+02  0.00000000000E+00 0. -1.
         11    1    3    3    0    0  0.86284423649E+01 -0.73593268237E+01 -0.33770713415E+01  0.11832764683E+02  0.51100000000E-03 0. -1.
        -11    1    3    3    0    0  0.96075080653E+01 -0.10854246274E+02 -0.45108615776E+00  0.14502494695E+02  0.51100000000E-03 0.  1.
        -12    1    3    3    0    0  0.12219822315E+02 -0.11084881754E+02  0.13710951640E+02  0.21452012860E+02  0.00000000000E+00 0.  1.
</event>
<event>
 7    1  0.2733256E-010  0.4778728E+02  0.7816164E-02  0.1312668E+00
        -11   -1    0    0    0    0  0.00000000000E+00  0.00000000000E+00  0.45593999997E+02  0.45594000000E+02  0.51100000000E-03 0.  1.
         11   -1    0    0    0    0 -0.00000000000E+00 -0.00000000000E+00 -0.45593999997E+02  0.45594000000E+02  0.51100000000E-03 0. -1.
    9900012    2    1    2    0    0  0.15956030420E+02  0.30040563523E+02  0.26955376171E+02  0.47787278024E+02  0.20000031822E+02 0.  0.
         12    1    1    2    0    0 -0.15956030420E+02 -0.30040563523E+02 -0.26955376171E+02  0.43400721976E+02  0.00000000000E+00 0. -1.
         11    1    3    3    0    0  0.33905888300E+01  0.92157832933E+01  0.35911971153E+00  0.98262770952E+01  0.51100000000E-03 0. -1.
        -11    1    3    3    0    0  0.73952709853E+01  0.15177474950E+02  0.98478875518E+01  0.19545502508E+02  0.51100000000E-03 0.  1.
         12    1    3    3    0    0  0.51701706046E+01  0.56473052795E+01  0.16748368908E+02  0.18415498421E+02  0.00000000000E+00 0. -1.
</event>
<event>
 7    1  0.2733256E-010  0.4778727E+02  0.7816164E-02  0.1312668E+00
        -11   -1    0    0    0    0  0.00000000000E+00  0.00000000000E+00  0.45593999997E+02  0.45594000000E+02  0.51100000000E-03 0.  1.
         11   -1    0    0    0    0 -0.00000000000E+00 -0.00000000000E+00 -0.45593999997E+02  0.45594000000E+02  0.51100000000E-03 0. -1.
    9900012    2    1    2    0    0  0.21479872069E+02 -0.32720407689E+02 -0.18751355182E+02  0.47787270691E+02  0.19999998387E+02 0.  0.
         12    1    1    2    0    0 -0.21479872069E+02  0.32720407689E+02  0.18751355182E+02  0.43400729309E+02  0.00000000000E+00 0. -1.
         11    1    3    3    0    0  0.37442359936E+01 -0.83383010467E+01 -0.29392996253E+01  0.96013566786E+01  0.51100000000E-03 0. -1.
        -11    1    3    3    0    0  0.44611096822E+01 -0.83997127529E+01  0.31888900412E+01  0.10031235910E+02  0.51100000000E-03 0.  1.
         12    1    3    3    0    0  0.13274526393E+02 -0.15982393889E+02 -0.19000945598E+02  0.28154678102E+02  0.00000000000E+00 0. -1.
</event>
<event>
 7    1  0.2733256E-010  0.4778727E+02  0.7816164E-02  0.1312668E+00
        -11   -1    0    0    0    0  0.00000000000E+00  0.00000000000E+00  0.45593999997E+02  0.45594000000E+02  0.51100000000E-03 0.  1.
         11   -1    0    0    0    0 -0.00000000000E+00 -0.00000000000E+00 -0.45593999997E+02  0.45594000000E+02  0.51100000000E-03 0. -1.
    9900012    2    1    2    0    0  0.32508135753E+02 -0.79879048214E+01  0.27623142158E+02  0.47787268482E+02  0.19999988318E+02 0.  0.
         12    1    1    2    0    0 -0.32508135753E+02  0.79879048214E+01 -0.27623142158E+02  0.43400731518E+02  0.00000000000E+00 0. -1.
         11    1    3    3    0    0  0.37629228599E+01  0.11045896463E+01 -0.21024588609E+01  0.44497236160E+01  0.51100000000E-03 0. -1.
        -11    1    3    3    0    0 -0.24819470572E+00 -0.15604463270E+01  0.14457489643E+01  0.21416777722E+01  0.51100000000E-03 0.  1.
        -12    1    3    3    0    0  0.28993407599E+02 -0.75320481408E+01  0.28279852055E+02  0.41195867094E+02  0.00000000000E+00 0.  1.
</event>
<event>
 7    1  0.2733256E-010  0.4778727E+02  0.7816164E-02  0.1312668E+00
        -11   -1    0    0    0    0  0.00000000000E+00  0.00000000000E+00  0.45593999997E+02  0.45594000000E+02  0.51100000000E-03 0. -1.
         11   -1    0    0    0    0 -0.00000000000E+00 -0.00000000000E+00 -0.45593999997E+02  0.45594000000E+02  0.51100000000E-03 0.  1.
    9900012    2    1    2    0    0 -0.37586057351E+02  0.68944891041E+01 -0.20576136272E+02  0.47787273381E+02  0.20000010653E+02 0.  0.
         12    1    1    2    0    0  0.37586057351E+02 -0.68944891041E+01  0.20576136272E+02  0.43400726619E+02  0.00000000000E+00 0. -1.
         11    1    3    3    0    0 -0.70391338234E+01 -0.32179314374E+01 -0.10677245241E+02  0.13187420290E+02  0.51100000000E-03 0. -1.
        -11    1    3    3    0    0 -0.21568791483E+01 -0.14566646982E+00 -0.28922625091E+01  0.36108903422E+01  0.51100000000E-03 0.  1.
        -12    1    3    3    0    0 -0.28390044379E+02  0.10258087011E+02 -0.70066285221E+01  0.30988962749E+02  0.00000000000E+00 0.  1.
</event>
<event>
 7    1  0.2733256E-010  0.4778727E+02  0.7816164E-02  0.1312668E+00
        -11   -1    0    0    0    0  0.00000000000E+00  0.00000000000E+00  0.45593999997E+02  0.45594000000E+02  0.51100000000E-03 0.  1.
         11   -1    0    0    0    0 -0.00000000000E+00 -0.00000000000E+00 -0.45593999997E+02  0.45594000000E+02  0.51100000000E-03 0. -1.
    9900012    2    1    2    0    0  0.23836940552E+02  0.32947374605E+02  0.15162273267E+02  0.47787265457E+02  0.19999974527E+02 0.  0.
         12    1    1    2    0    0 -0.23836940552E+02 -0.32947374605E+02 -0.15162273267E+02  0.43400734543E+02  0.00000000000E+00 0. -1.
         11    1    3    3    0    0 -0.69781195342E+00  0.63555232271E+01  0.66888672583E+01  0.92531379798E+01  0.51100000000E-03 0. -1.
        -11    1    3    3    0    0  0.47532987562E+01  0.23582713624E+01  0.45823190790E+01  0.70109158665E+01  0.51100000000E-03 0.  1.
        -12    1    3    3    0    0  0.19781453749E+02  0.24233580015E+02  0.38910869293E+01  0.31523211611E+02  0.00000000000E+00 0.  1.
</event>
<event>
 7    1  0.2733256E-010  0.4778727E+02  0.7816164E-02  0.1312668E+00
        -11   -1    0    0    0    0  0.00000000000E+00  0.00000000000E+00  0.45593999997E+02  0.45594000000E+02  0.51100000000E-03 0. -1.
         11   -1    0    0    0    0 -0.00000000000E+00 -0.00000000000E+00 -0.45593999997E+02  0.45594000000E+02  0.51100000000E-03 0.  1.
    9900012    2    1    2    0    0  0.18345812173E+02  0.35997570622E+02 -0.15850218621E+02  0.47787270221E+02  0.19999996247E+02 0.  0.
         12    1    1    2    0    0 -0.18345812173E+02 -0.35997570622E+02  0.15850218621E+02  0.43400729779E+02  0.00000000000E+00 0. -1.
         11    1    3    3    0    0  0.11304708739E+01 -0.11378557848E+01 -0.18594993606E+01  0.24556910060E+01  0.51100000000E-03 0. -1.
        -11    1    3    3    0    0  0.52244331881E+01  0.65556929430E+01 -0.86644583502E+01  0.12055896933E+02  0.51100000000E-03 0.  1.
        -12    1    3    3    0    0  0.11990908111E+02  0.30579733464E+02 -0.53262609106E+01  0.33275682282E+02  0.00000000000E+00 0.  1.
</event>
<event>
 7    1  0.2733256E-010  0.4778728E+02  0.7816164E-02  0.1312668E+00
        -11   -1    0    0    0    0  0.00000000000E+00  0.00000000000E+00  0.45593999997E+02  0.45594000000E+02  0.51100000000E-03 0. -1.
         11   -1    0    0    0    0 -0.00000000000E+00 -0.00000000000E+00 -0.45593999997E+02  0.45594000000E+02  0.51100000000E-03 0.  1.
    9900012    2    1    2    0    0 -0.28791528004E+02 -0.18201485299E+02 -0.26895662043E+02  0.47787276634E+02  0.20000025487E+02 0.  0.
         12    1    1    2    0    0  0.28791528004E+02  0.18201485299E+02  0.26895662043E+02  0.43400723366E+02  0.00000000000E+00 0. -1.
         11    1    3    3    0    0 -0.12155717886E+02 -0.49498119395E+01 -0.46801693859E+01  0.13934349691E+02  0.51100000000E-03 0. -1.
        -11    1    3    3    0    0 -0.13176703655E+02 -0.16051859356E+01 -0.13235087159E+02  0.18744857254E+02  0.51100000000E-03 0.  1.
         12    1    3    3    0    0 -0.34591064635E+01 -0.11646487424E+02 -0.89804054978E+01  0.15108069690E+02  0.00000000000E+00 0. -1.
</event>
<event>
 7    1  0.2733256E-010  0.4778727E+02  0.7816164E-02  0.1312668E+00
        -11   -1    0    0    0    0  0.00000000000E+00  0.00000000000E+00  0.45593999997E+02  0.45594000000E+02  0.51100000000E-03 0. -1.
         11   -1    0    0    0    0 -0.00000000000E+00 -0.00000000000E+00 -0.45593999997E+02  0.45594000000E+02  0.51100000000E-03 0.  1.
    9900012    2    1    2    0    0 -0.42933842927E+02  0.18893846039E+01 -0.60612502033E+01  0.47787269630E+02  0.19999993550E+02 0.  0.
         12    1    1    2    0    0  0.42933842927E+02 -0.18893846039E+01  0.60612502033E+01  0.43400730370E+02  0.00000000000E+00 0. -1.
         11    1    3    3    0    0 -0.14095315275E+02  0.23908708038E+01  0.34092376408E+01  0.14697519432E+02  0.51100000000E-03 0. -1.
        -11    1    3    3    0    0 -0.25270466342E+02  0.31412480567E+01 -0.42955185317E+01  0.25824704997E+02  0.51100000000E-03 0.  1.
        -12    1    3    3    0    0 -0.35680613096E+01 -0.36427342566E+01 -0.51749693124E+01  0.72650451999E+01  0.00000000000E+00 0.  1.
</event>
<event>
 7    1  0.2733256E-010  0.4778727E+02  0.7816164E-02  0.1312668E+00
        -11   -1    0    0    0    0  0.00000000000E+00  0.00000000000E+00  0.45593999997E+02  0.45594000000E+02  0.51100000000E-03 0.  1.
         11   -1    0    0    0    0 -0.00000000000E+00 -0.00000000000E+00 -0.45593999997E+02  0.45594000000E+02  0.51100000000E-03 0. -1.
    9900012    2    1    2    0    0  0.53533160522E+01  0.81735144391E+01  0.42286633810E+02  0.47787265789E+02  0.19999976040E+02 0.  0.
         12    1    1    2    0    0 -0.53533160522E+01 -0.81735144391E+01 -0.42286633810E+02  0.43400734211E+02  0.00000000000E+00 0. -1.
         11    1    3    3    0    0  0.74763745605E+00  0.74671798549E+01  0.11223235067E+02  0.13501064491E+02  0.51100000000E-03 0. -1.
        -11    1    3    3    0    0  0.70659700325E+01  0.52729286475E+01  0.23635721430E+02  0.25226554200E+02  0.51100000000E-03 0.  1.
         12    1    3    3    0    0 -0.24602914363E+01 -0.45665940633E+01  0.74276773123E+01  0.90596470983E+01  0.00000000000E+00 0. -1.
</event>
<event>
 7    1  0.2733256E-010  0.4778727E+02  0.7816164E-02  0.1312668E+00
        -11   -1    0    0    0    0  0.00000000000E+00  0.00000000000E+00  0.45593999997E+02  0.45594000000E+02  0.51100000000E-03 0. -1.
         11   -1    0    0    0    0 -0.00000000000E+00 -0.00000000000E+00 -0.45593999997E+02  0.45594000000E+02  0.51100000000E-03 0.  1.
    9900012    2    1    2    0    0  0.26169181840E+02  0.34567366599E+02  0.19733453080E+01  0.47787274160E+02  0.20000014206E+02 0.  0.
         12    1    1    2    0    0 -0.26169181840E+02 -0.34567366599E+02 -0.19733453080E+01  0.43400725840E+02  0.00000000000E+00 0. -1.
         11    1    3    3    0    0  0.22759836150E+02  0.21053467541E+02  0.39218710309E+01  0.31251235331E+02  0.51100000000E-03 0. -1.
        -11    1    3    3    0    0  0.51811803484E+01  0.44870586234E+01 -0.25602345812E+01  0.73166335336E+01  0.51100000000E-03 0.  1.
        -12    1    3    3    0    0 -0.17718346584E+01  0.90268404339E+01  0.61170885833E+00  0.92194052955E+01  0.00000000000E+00 0.  1.
</event>
<event>
 7    1  0.2733256E-010  0.4778727E+02  0.7816164E-02  0.1312668E+00
        -11   -1    0    0    0    0  0.00000000000E+00  0.00000000000E+00  0.45593999997E+02  0.45594000000E+02  0.51100000000E-03 0. -1.
         11   -1    0    0    0    0 -0.00000000000E+00 -0.00000000000E+00 -0.45593999997E+02  0.45594000000E+02  0.51100000000E-03 0.  1.
    9900012    2    1    2    0    0 -0.17787603254E+02 -0.23074678073E+02 -0.32168057546E+02  0.47787268163E+02  0.19999986863E+02 0.  0.
         12    1    1    2    0    0  0.17787603254E+02  0.23074678073E+02  0.32168057546E+02  0.43400731837E+02  0.00000000000E+00 0. -1.
         11    1    3    3    0    0  0.13187274529E+01 -0.11210588793E+02 -0.83270510276E+01  0.14026978372E+02  0.51100000000E-03 0. -1.
        -11    1    3    3    0    0 -0.54206241820E+01 -0.80005036603E+01 -0.10304931709E+02  0.14127379203E+02  0.51100000000E-03 0.  1.
        -12    1    3    3    0    0 -0.13685706525E+02 -0.38635856200E+01 -0.13536074809E+02  0.19632910588E+02  0.00000000000E+00 0.  1.
</event>
<event>
 7    1  0.2733256E-010  0.4778727E+02  0.7816164E-02  0.1312668E+00
        -11   -1    0    0    0    0  0.00000000000E+00  0.00000000000E+00  0.45593999997E+02  0.45594000000E+02  0.51100000000E-03 0.  1.
         11   -1    0    0    0    0 -0.00000000000E+00 -0.00000000000E+00 -0.45593999997E+02  0.45594000000E+02  0.51100000000E-03 0. -1.
    9900012    2    1    2    0    0 -0.88312093957E+01 -0.36004698881E+02  0.22567559180E+02  0.47787270418E+02  0.19999997144E+02 0.  0.
         12    1    1    2    0    0  0.88312093957E+01  0.36004698881E+02 -0.22567559180E+02  0.43400729582E+02  0.00000000000E+00 0. -1.
         11    1    3    3    0    0 -0.80363650230E+01 -0.23544843612E+02  0.12117106733E+02  0.27672497165E+02  0.51100000000E-03 0. -1.
        -11    1    3    3    0    0 -0.59950729971E+01 -0.62983523062E+01  0.31814822969E+01  0.92591561106E+01  0.51100000000E-03 0.  1.
         12    1    3    3    0    0  0.52002286244E+01 -0.61615029625E+01  0.72689701499E+01  0.10855617142E+02  0.00000000000E+00 0. -1.
</event>
<event>
 7    1  0.2733256E-010  0.4778727E+02  0.7816164E-02  0.1312668E+00
        -11   -1    0    0    0    0  0.00000000000E+00  0.00000000000E+00  0.45593999997E+02  0.45594000000E+02  0.51100000000E-03 0.  1.
         11   -1    0    0    0    0 -0.00000000000E+00 -0.00000000000E+00 -0.45593999997E+02  0.45594000000E+02  0.51100000000E-03 0. -1.
    9900012    2    1    2    0    0  0.84741742297E+01  0.32361179499E+02  0.27650780697E+02  0.47787271428E+02  0.20000001749E+02 0.  0.
         12    1    1    2    0    0 -0.84741742297E+01 -0.32361179499E+02 -0.27650780697E+02  0.43400728572E+02  0.00000000000E+00 0. -1.
         11    1    3    3    0    0  0.97050502472E+00  0.10276382406E+02  0.16318308485E+01  0.10450300835E+02  0.51100000000E-03 0.  1.
        -11    1    3    3    0    0  0.48069540274E+01  0.22422921474E+02  0.25932518960E+02  0.34617766455E+02  0.51100000000E-03 0. -1.
         12    1    3    3    0    0  0.26967151777E+01 -0.33812438124E+00  0.86430888370E-01  0.27192041382E+01  0.00000000000E+00 0. -1.
</event>
<event>
 7    1  0.2733256E-010  0.4778727E+02  0.7816164E-02  0.1312668E+00
        -11   -1    0    0    0    0  0.00000000000E+00  0.00000000000E+00  0.45593999997E+02  0.45594000000E+02  0.51100000000E-03 0.  1.
         11   -1    0    0    0    0 -0.00000000000E+00 -0.00000000000E+00 -0.45593999997E+02  0.45594000000E+02  0.51100000000E-03 0. -1.
    9900012    2    1    2    0    0  0.91920113620E+01 -0.40889574230E+02  0.11277096465E+02  0.47787271224E+02  0.20000000821E+02 0.  0.
         12    1    1    2    0    0 -0.91920113620E+01  0.40889574230E+02 -0.11277096465E+02  0.43400728776E+02  0.00000000000E+00 0. -1.
         11    1    3    3    0    0 -0.15531908643E+01 -0.11168378444E+02  0.40783790223E+01  0.11990757050E+02  0.51100000000E-03 0. -1.
        -11    1    3    3    0    0  0.29048254015E+00 -0.21312097688E+02  0.68041264538E+01  0.22373779856E+02  0.51100000000E-03 0.  1.
         12    1    3    3    0    0  0.10454719686E+02 -0.84090980971E+01  0.39459098937E+00  0.13422734318E+02  0.00000000000E+00 0. -1.
</event>
<event>
 7    1  0.2733256E-010  0.4778727E+02  0.7816164E-02  0.1312668E+00
        -11   -1    0    0    0    0  0.00000000000E+00  0.00000000000E+00  0.45593999997E+02  0.45594000000E+02  0.51100000000E-03 0. -1.
         11   -1    0    0    0    0 -0.00000000000E+00 -0.00000000000E+00 -0.45593999997E+02  0.45594000000E+02  0.51100000000E-03 0.  1.
    9900012    2    1    2    0    0  0.48921342318E+01 -0.37370729312E+02 -0.21520196409E+02  0.47787271433E+02  0.20000001774E+02 0.  0.
         12    1    1    2    0    0 -0.48921342318E+01  0.37370729312E+02  0.21520196409E+02  0.43400728567E+02  0.00000000000E+00 0. -1.
         11    1    3    3    0    0  0.66794641329E+01 -0.49844147490E+01 -0.16229842793E+01  0.84908014772E+01  0.51100000000E-03 0. -1.
        -11    1    3    3    0    0  0.21612716529E+01 -0.12818872255E+02 -0.34980226949E+01  0.13462196852E+02  0.51100000000E-03 0.  1.
         12    1    3    3    0    0 -0.39486015540E+01 -0.19567442307E+02 -0.16399189435E+02  0.25834273104E+02  0.00000000000E+00 0. -1.
</event>
<event>
 7    1  0.2733256E-010  0.4778727E+02  0.7816164E-02  0.1312668E+00
        -11   -1    0    0    0    0  0.00000000000E+00  0.00000000000E+00  0.45593999997E+02  0.45594000000E+02  0.51100000000E-03 0.  1.
         11   -1    0    0    0    0 -0.00000000000E+00 -0.00000000000E+00 -0.45593999997E+02  0.45594000000E+02  0.51100000000E-03 0. -1.
    9900012    2    1    2    0    0 -0.90642065316E+01 -0.25994232994E+02  0.33552397420E+02  0.47787270034E+02  0.19999995393E+02 0.  0.
         12    1    1    2    0    0  0.90642065316E+01  0.25994232994E+02 -0.33552397420E+02  0.43400729966E+02  0.00000000000E+00 0. -1.
         11    1    3    3    0    0  0.30796999858E+01 -0.48832443495E+01  0.15179460066E+02  0.16240278185E+02  0.51100000000E-03 0. -1.
        -11    1    3    3    0    0 -0.34090218183E+01 -0.99115825450E+01  0.12133832357E+02  0.16034050837E+02  0.51100000000E-03 0.  1.
         12    1    3    3    0    0 -0.87348846992E+01 -0.11199406099E+02  0.62391049968E+01  0.15512941012E+02  0.00000000000E+00 0. -1.
</event>
<event>
 7    1  0.2752634E-010  0.4778727E+02  0.7816164E-02  0.1312668E+00
        -11   -1    0    0    0    0  0.00000000000E+00  0.00000000000E+00  0.45593999997E+02  0.45594000000E+02  0.51100000000E-03 0. -1.
         11   -1    0    0    0    0 -0.00000000000E+00 -0.00000000000E+00 -0.45593999997E+02  0.45594000000E+02  0.51100000000E-03 0.  1.
    9900012    2    1    2    0    0 -0.17193351571E+02  0.39834106871E+02 -0.11207726441E+01  0.47787267981E+02  0.19999986034E+02 0.  0.
         12    1    1    2    0    0  0.17193351571E+02 -0.39834106871E+02  0.11207726441E+01  0.43400732019E+02  0.00000000000E+00 0. -1.
         11    1    3    3    0    0 -0.30871583219E+01 -0.19550051812E+00 -0.13041503226E+01  0.33570188087E+01  0.51100000000E-03 0. -1.
        -11    1    3    3    0    0  0.90172092616E+00  0.10079381278E+02  0.36353721456E+01  0.10752811654E+02  0.51100000000E-03 0.  1.
        -12    1    3    3    0    0 -0.15007914175E+02  0.29950226111E+02 -0.34519944671E+01  0.33677437518E+02  0.00000000000E+00 0.  1.
</event>
<event>
 7    1  0.2733256E-010  0.4778726E+02  0.7816164E-02  0.1312668E+00
        -11   -1    0    0    0    0  0.00000000000E+00  0.00000000000E+00  0.45593999997E+02  0.45594000000E+02  0.51100000000E-03 0. -1.
         11   -1    0    0    0    0 -0.00000000000E+00 -0.00000000000E+00 -0.45593999997E+02  0.45594000000E+02  0.51100000000E-03 0.  1.
    9900012    2    1    2    0    0  0.21802394234E+02  0.34647708758E+02 -0.14415829552E+02  0.47787259705E+02  0.19999948299E+02 0.  0.
         12    1    1    2    0    0 -0.21802394234E+02 -0.34647708758E+02  0.14415829552E+02  0.43400740295E+02  0.00000000000E+00 0. -1.
         11    1    3    3    0    0  0.67625715469E+01  0.21363069908E+01 -0.23602480519E+01  0.74744198848E+01  0.51100000000E-03 0. -1.
        -11    1    3    3    0    0  0.88934592339E+01  0.13451398457E+02 -0.12305994958E+02  0.20284754121E+02  0.51100000000E-03 0.  1.
         12    1    3    3    0    0  0.61463634531E+01  0.19060003310E+02  0.25041345800E+00  0.20028085699E+02  0.00000000000E+00 0. -1.
</event>
<event>
 7    1  0.2733256E-010  0.4778727E+02  0.7816164E-02  0.1312668E+00
        -11   -1    0    0    0    0  0.00000000000E+00  0.00000000000E+00  0.45593999997E+02  0.45594000000E+02  0.51100000000E-03 0.  1.
         11   -1    0    0    0    0 -0.00000000000E+00 -0.00000000000E+00 -0.45593999997E+02  0.45594000000E+02  0.51100000000E-03 0. -1.
    9900012    2    1    2    0    0  0.24672310724E+02  0.29353979882E+02  0.20328416658E+02  0.47787267573E+02  0.19999984174E+02 0.  0.
         12    1    1    2    0    0 -0.24672310724E+02 -0.29353979882E+02 -0.20328416658E+02  0.43400732427E+02  0.00000000000E+00 0. -1.
         11    1    3    3    0    0  0.16540741265E+02  0.15644934191E+02  0.10937241669E+02  0.25258332151E+02  0.51100000000E-03 0. -1.
        -11    1    3    3    0    0  0.96577571572E+01  0.54854248417E+01  0.18355061170E+01  0.11257497145E+02  0.51100000000E-03 0.  1.
         12    1    3    3    0    0 -0.15261876980E+01  0.82236208486E+01  0.75556688720E+01  0.11271438278E+02  0.00000000000E+00 0. -1.
</event>
<event>
 7    1  0.2733256E-010  0.4778727E+02  0.7816164E-02  0.1312668E+00
        -11   -1    0    0    0    0  0.00000000000E+00  0.00000000000E+00  0.45593999997E+02  0.45594000000E+02  0.51100000000E-03 0.  1.
         11   -1    0    0    0    0 -0.00000000000E+00 -0.00000000000E+00 -0.45593999997E+02  0.45594000000E+02  0.51100000000E-03 0. -1.
    9900012    2    1    2    0    0 -0.38500715615E+02 -0.86887973433E+00  0.20014085364E+02  0.47787266506E+02  0.19999979308E+02 0.  0.
         12    1    1    2    0    0  0.38500715615E+02  0.86887973433E+00 -0.20014085364E+02  0.43400733494E+02  0.00000000000E+00 0. -1.
         11    1    3    3    0    0 -0.37786959500E+02  0.27730126011E+00  0.13431131644E+02  0.40103946211E+02  0.51100000000E-03 0. -1.
        -11    1    3    3    0    0 -0.21984514982E+01 -0.21551839264E+00  0.35929117328E+01  0.42176595581E+01  0.51100000000E-03 0.  1.
         12    1    3    3    0    0  0.14846953830E+01 -0.93066260179E+00  0.29900419871E+01  0.34656607368E+01  0.00000000000E+00 0. -1.
</event>
<event>
 7    1  0.2733256E-010  0.4778727E+02  0.7816164E-02  0.1312668E+00
        -11   -1    0    0    0    0  0.00000000000E+00  0.00000000000E+00  0.45593999997E+02  0.45594000000E+02  0.51100000000E-03 0.  1.
         11   -1    0    0    0    0 -0.00000000000E+00 -0.00000000000E+00 -0.45593999997E+02  0.45594000000E+02  0.51100000000E-03 0. -1.
    9900012    2    1    2    0    0  0.24146831266E+02  0.35384418892E+02  0.69639601842E+01  0.47787270720E+02  0.19999998522E+02 0.  0.
         12    1    1    2    0    0 -0.24146831266E+02 -0.35384418892E+02 -0.69639601842E+01  0.43400729280E+02  0.00000000000E+00 0. -1.
         11    1    3    3    0    0  0.93628624306E+01  0.19966264468E+02 -0.10965679422E+00  0.22052821465E+02  0.51100000000E-03 0. -1.
        -11    1    3    3    0    0 -0.82724019896E+00  0.64623779623E+01  0.34626596348E+01  0.73781208503E+01  0.51100000000E-03 0.  1.
        -12    1    3    3    0    0  0.15611209035E+02  0.89557764619E+01  0.36109573436E+01  0.18356328405E+02  0.00000000000E+00 0.  1.
</event>
<event>
 7    1  0.2733256E-010  0.4778727E+02  0.7816164E-02  0.1312668E+00
        -11   -1    0    0    0    0  0.00000000000E+00  0.00000000000E+00  0.45593999997E+02  0.45594000000E+02  0.51100000000E-03 0.  1.
         11   -1    0    0    0    0 -0.00000000000E+00 -0.00000000000E+00 -0.45593999997E+02  0.45594000000E+02  0.51100000000E-03 0. -1.
    9900012    2    1    2    0    0 -0.42461231478E+02 -0.80437923554E+01  0.39955427801E+01  0.47787272631E+02  0.20000007232E+02 0.  0.
         12    1    1    2    0    0  0.42461231478E+02  0.80437923554E+01 -0.39955427801E+01  0.43400727369E+02  0.00000000000E+00 0. -1.
         11    1    3    3    0    0 -0.18071214199E+02 -0.59701253678E+01  0.41742265508E+00  0.19036423547E+02  0.51100000000E-03 0. -1.
        -11    1    3    3    0    0 -0.18294199309E+02 -0.14763589504E+01  0.91165367317E+01  0.20493135591E+02  0.51100000000E-03 0.  1.
        -12    1    3    3    0    0 -0.60958179697E+01 -0.59730803718E+00 -0.55384166066E+01  0.82577134922E+01  0.00000000000E+00 0.  1.
</event>
<event>
 7    1  0.2733256E-010  0.4778727E+02  0.7816164E-02  0.1312668E+00
        -11   -1    0    0    0    0  0.00000000000E+00  0.00000000000E+00  0.45593999997E+02  0.45594000000E+02  0.51100000000E-03 0. -1.
         11   -1    0    0    0    0 -0.00000000000E+00 -0.00000000000E+00 -0.45593999997E+02  0.45594000000E+02  0.51100000000E-03 0.  1.
    9900012    2    1    2    0    0  0.34940947824E+02 -0.11491381570E+02 -0.23036964534E+02  0.47787269359E+02  0.19999992317E+02 0.  0.
         12    1    1    2    0    0 -0.34940947824E+02  0.11491381570E+02  0.23036964534E+02  0.43400730641E+02  0.00000000000E+00 0. -1.
         11    1    3    3    0    0  0.72386476081E+01 -0.10640624837E+02 -0.11121951706E+02  0.17009371715E+02  0.51100000000E-03 0. -1.
        -11    1    3    3    0    0  0.91858587326E+01 -0.25561615904E+01 -0.59972053458E+01  0.11264121579E+02  0.51100000000E-03 0.  1.
         12    1    3    3    0    0  0.18516441483E+02  0.17054048578E+01 -0.59178074822E+01  0.19513776065E+02  0.00000000000E+00 0. -1.
</event>
<event>
 7    1  0.2733256E-010  0.4778727E+02  0.7816164E-02  0.1312668E+00
        -11   -1    0    0    0    0  0.00000000000E+00  0.00000000000E+00  0.45593999997E+02  0.45594000000E+02  0.51100000000E-03 0.  1.
         11   -1    0    0    0    0 -0.00000000000E+00 -0.00000000000E+00 -0.45593999997E+02  0.45594000000E+02  0.51100000000E-03 0. -1.
    9900012    2    1    2    0    0 -0.34696351126E+02  0.19131249457E+02  0.17713891019E+02  0.47787269334E+02  0.19999992203E+02 0.  0.
         12    1    1    2    0    0  0.34696351126E+02 -0.19131249457E+02 -0.17713891019E+02  0.43400730666E+02  0.00000000000E+00 0. -1.
         11    1    3    3    0    0 -0.86771163349E+01  0.25459273035E+00  0.30238770616E+00  0.86861155837E+01  0.51100000000E-03 0. -1.
        -11    1    3    3    0    0  0.10982484553E+01  0.17850495598E+01  0.36683948086E+01  0.42248872568E+01  0.51100000000E-03 0.  1.
        -12    1    3    3    0    0 -0.27117483247E+02  0.17091607167E+02  0.13743108505E+02  0.34876266494E+02  0.00000000000E+00 0.  1.
</event>
<event>
 7    1  0.2733256E-010  0.4778722E+02  0.7816164E-02  0.1312668E+00
        -11   -1    0    0    0    0  0.00000000000E+00  0.00000000000E+00  0.45593999997E+02  0.45594000000E+02  0.51100000000E-03 0.  1.
         11   -1    0    0    0    0 -0.00000000000E+00 -0.00000000000E+00 -0.45593999997E+02  0.45594000000E+02  0.51100000000E-03 0. -1.
    9900012    2    1    2    0    0 -0.19229202459E+01  0.70149854992E+01  0.42786911016E+02  0.47787223530E+02  0.19999783364E+02 0.  0.
         12    1    1    2    0    0  0.19229202459E+01 -0.70149854992E+01 -0.42786911016E+02  0.43400776470E+02  0.00000000000E+00 0. -1.
         11    1    3    3    0    0 -0.22439457505E+01  0.73143039771E+01  0.13218904479E+02  0.15273302560E+02  0.51100000000E-03 0. -1.
        -11    1    3    3    0    0 -0.38165230879E+01  0.51788858343E+01  0.17272865707E+02  0.18431999266E+02  0.51100000000E-03 0.  1.
         12    1    3    3    0    0  0.41375485925E+01 -0.54782043122E+01  0.12295140831E+02  0.14081921704E+02  0.00000000000E+00 0. -1.
</event>
<event>
 7    1  0.2733256E-010  0.4778727E+02  0.7816164E-02  0.1312668E+00
        -11   -1    0    0    0    0  0.00000000000E+00  0.00000000000E+00  0.45593999997E+02  0.45594000000E+02  0.51100000000E-03 0. -1.
         11   -1    0    0    0    0 -0.00000000000E+00 -0.00000000000E+00 -0.45593999997E+02  0.45594000000E+02  0.51100000000E-03 0.  1.
    9900012    2    1    2    0    0 -0.18540548765E+02 -0.11617993120E+02 -0.37481916485E+02  0.47787265259E+02  0.19999973624E+02 0.  0.
         12    1    1    2    0    0  0.18540548765E+02  0.11617993120E+02  0.37481916485E+02  0.43400734741E+02  0.00000000000E+00 0. -1.
         11    1    3    3    0    0 -0.16020165539E+02 -0.67895569995E+01 -0.21630387120E+02  0.27759997035E+02  0.51100000000E-03 0. -1.
        -11    1    3    3    0    0 -0.66700032745E+01 -0.26302124032E+01 -0.11885560815E+02  0.13880688640E+02  0.51100000000E-03 0.  1.
         12    1    3    3    0    0  0.41496200484E+01 -0.21982237171E+01 -0.39659685504E+01  0.61465795854E+01  0.00000000000E+00 0. -1.
</event>
<event>
 7    1  0.2733256E-010  0.4778727E+02  0.7816164E-02  0.1312668E+00
        -11   -1    0    0    0    0  0.00000000000E+00  0.00000000000E+00  0.45593999997E+02  0.45594000000E+02  0.51100000000E-03 0.  1.
         11   -1    0    0    0    0 -0.00000000000E+00 -0.00000000000E+00 -0.45593999997E+02  0.45594000000E+02  0.51100000000E-03 0. -1.
    9900012    2    1    2    0    0  0.24076568571E+02 -0.32989956714E+02  0.14683486895E+02  0.47787272062E+02  0.20000004641E+02 0.  0.
         12    1    1    2    0    0 -0.24076568571E+02  0.32989956714E+02 -0.14683486895E+02  0.43400727938E+02  0.00000000000E+00 0. -1.
         11    1    3    3    0    0  0.13859595459E+02 -0.17904978297E+02  0.13076958348E+02  0.26147341624E+02  0.51100000000E-03 0. -1.
        -11    1    3    3    0    0  0.11968231837E+02 -0.84983805954E+01  0.19944150344E+01  0.14813464742E+02  0.51100000000E-03 0.  1.
         12    1    3    3    0    0 -0.17512587254E+01 -0.65865978209E+01 -0.38788648798E+00  0.68264656965E+01  0.00000000000E+00 0. -1.
</event>
<event>
 7    1  0.2733256E-010  0.4778727E+02  0.7816164E-02  0.1312668E+00
        -11   -1    0    0    0    0  0.00000000000E+00  0.00000000000E+00  0.45593999997E+02  0.45594000000E+02  0.51100000000E-03 0.  1.
         11   -1    0    0    0    0 -0.00000000000E+00 -0.00000000000E+00 -0.45593999997E+02  0.45594000000E+02  0.51100000000E-03 0. -1.
    9900012    2    1    2    0    0  0.16187009073E+02 -0.33078149330E+02  0.22966067395E+02  0.47787268700E+02  0.19999989309E+02 0.  0.
         12    1    1    2    0    0 -0.16187009073E+02  0.33078149330E+02 -0.22966067395E+02  0.43400731300E+02  0.00000000000E+00 0. -1.
         11    1    3    3    0    0  0.72671381137E+01 -0.91429508021E+01  0.12228418584E+02  0.16909732909E+02  0.51100000000E-03 0.  1.
        -11    1    3    3    0    0  0.49825173146E+01 -0.20551874273E+01 -0.13723859833E+01  0.55617189519E+01  0.51100000000E-03 0. -1.
        -12    1    3    3    0    0  0.39373536445E+01 -0.21880011101E+02  0.12110034795E+02  0.25315816839E+02  0.00000000000E+00 0.  1.
</event>
<event>
 7    1  0.2733256E-010  0.4778727E+02  0.7816164E-02  0.1312668E+00
        -11   -1    0    0    0    0  0.00000000000E+00  0.00000000000E+00  0.45593999997E+02  0.45594000000E+02  0.51100000000E-03 0. -1.
         11   -1    0    0    0    0 -0.00000000000E+00 -0.00000000000E+00 -0.45593999997E+02  0.45594000000E+02  0.51100000000E-03 0.  1.
    9900012    2    1    2    0    0 -0.16222475745E+02 -0.31819376812E+02 -0.24657283311E+02  0.47787273275E+02  0.20000010170E+02 0.  0.
         12    1    1    2    0    0  0.16222475745E+02  0.31819376812E+02  0.24657283311E+02  0.43400726725E+02  0.00000000000E+00 0. -1.
         11    1    3    3    0    0 -0.79353273355E+01 -0.13128793994E+02 -0.10584081723E+02  0.18637527675E+02  0.51100000000E-03 0. -1.
        -11    1    3    3    0    0 -0.10524224689E+02 -0.20063886210E+02 -0.11253895324E+02  0.25297608492E+02  0.51100000000E-03 0.  1.
         12    1    3    3    0    0  0.22370762801E+01  0.13733033925E+01 -0.28193062639E+01  0.38521371083E+01  0.00000000000E+00 0. -1.
</event>
<event>
 7    1  0.2733256E-010  0.4778727E+02  0.7816164E-02  0.1312668E+00
        -11   -1    0    0    0    0  0.00000000000E+00  0.00000000000E+00  0.45593999997E+02  0.45594000000E+02  0.51100000000E-03 0. -1.
         11   -1    0    0    0    0 -0.00000000000E+00 -0.00000000000E+00 -0.45593999997E+02  0.45594000000E+02  0.51100000000E-03 0.  1.
    9900012    2    1    2    0    0 -0.32706761980E+02 -0.20167934558E+02 -0.20177843420E+02  0.47787271566E+02  0.20000002376E+02 0.  0.
         12    1    1    2    0    0  0.32706761980E+02  0.20167934558E+02  0.20177843420E+02  0.43400728434E+02  0.00000000000E+00 0. -1.
         11    1    3    3    0    0 -0.10084460933E+02 -0.34889965175E+01 -0.10749393763E+02  0.15146580985E+02  0.51100000000E-03 0. -1.
        -11    1    3    3    0    0 -0.13831040900E+02 -0.18027977461E+01 -0.48156423581E+01  0.14755954177E+02  0.51100000000E-03 0.  1.
        -12    1    3    3    0    0 -0.87912601471E+01 -0.14876140295E+02 -0.46128072986E+01  0.17884736403E+02  0.00000000000E+00 0.  1.
</event>
<event>
 7    1  0.2733256E-010  0.4778728E+02  0.7816164E-02  0.1312668E+00
        -11   -1    0    0    0    0  0.00000000000E+00  0.00000000000E+00  0.45593999997E+02  0.45594000000E+02  0.51100000000E-03 0. -1.
         11   -1    0    0    0    0 -0.00000000000E+00 -0.00000000000E+00 -0.45593999997E+02  0.45594000000E+02  0.51100000000E-03 0.  1.
    9900012    2    1    2    0    0  0.28446612074E+02  0.11300959580E+02 -0.30768512569E+02  0.47787276600E+02  0.20000025331E+02 0.  0.
         12    1    1    2    0    0 -0.28446612074E+02 -0.11300959580E+02  0.30768512569E+02  0.43400723400E+02  0.00000000000E+00 0. -1.
         11    1    3    3    0    0  0.58874038062E+01 -0.75928041453E+00 -0.59482762964E+00  0.59658905869E+01  0.51100000000E-03 0. -1.
        -11    1    3    3    0    0  0.12689309186E+02  0.35711297291E+01 -0.62585994777E+01  0.14592518728E+02  0.51100000000E-03 0.  1.
         12    1    3    3    0    0  0.98698990824E+01  0.84891102650E+01 -0.23915085461E+02  0.27228867285E+02  0.00000000000E+00 0. -1.
</event>
<event>
 7    1  0.2733256E-010  0.4778727E+02  0.7816164E-02  0.1312668E+00
        -11   -1    0    0    0    0  0.00000000000E+00  0.00000000000E+00  0.45593999997E+02  0.45594000000E+02  0.51100000000E-03 0.  1.
         11   -1    0    0    0    0 -0.00000000000E+00 -0.00000000000E+00 -0.45593999997E+02  0.45594000000E+02  0.51100000000E-03 0. -1.
    9900012    2    1    2    0    0  0.31526223771E+02  0.21010390770E+02  0.21172710037E+02  0.47787274708E+02  0.20000016705E+02 0.  0.
         12    1    1    2    0    0 -0.31526223771E+02 -0.21010390770E+02 -0.21172710037E+02  0.43400725292E+02  0.00000000000E+00 0. -1.
         11    1    3    3    0    0  0.16757586683E+01  0.55712696689E+01  0.36088881977E+01  0.68462608132E+01  0.51100000000E-03 0. -1.
        -11    1    3    3    0    0  0.72066753554E+01 -0.19602158343E+01  0.10292212923E+00  0.74692174303E+01  0.51100000000E-03 0.  1.
         12    1    3    3    0    0  0.22643789747E+02  0.17399336935E+02  0.17460899710E+02  0.33471796465E+02  0.00000000000E+00 0. -1.
</event>
<event>
 7    1  0.2733256E-010  0.4778727E+02  0.7816164E-02  0.1312668E+00
        -11   -1    0    0    0    0  0.00000000000E+00  0.00000000000E+00  0.45593999997E+02  0.45594000000E+02  0.51100000000E-03 0.  1.
         11   -1    0    0    0    0 -0.00000000000E+00 -0.00000000000E+00 -0.45593999997E+02  0.45594000000E+02  0.51100000000E-03 0. -1.
    9900012    2    1    2    0    0  0.14378165693E+02 -0.11995229966E+02  0.39153621519E+02  0.47787271104E+02  0.20000000270E+02 0.  0.
         12    1    1    2    0    0 -0.14378165693E+02  0.11995229966E+02 -0.39153621519E+02  0.43400728896E+02  0.00000000000E+00 0. -1.
         11    1    3    3    0    0 -0.21751405934E+01 -0.30421482023E+01  0.28855408649E+01  0.47235842990E+01  0.51100000000E-03 0. -1.
        -11    1    3    3    0    0  0.20716207562E+01  0.16851210805E+01  0.14931966313E+02  0.15168878134E+02  0.51100000000E-03 0.  1.
        -12    1    3    3    0    0  0.14481685531E+02 -0.10638202844E+02  0.21336114341E+02  0.27894808670E+02  0.00000000000E+00 0.  1.
</event>
<event>
 7    1  0.2733256E-010  0.4778727E+02  0.7816164E-02  0.1312668E+00
        -11   -1    0    0    0    0  0.00000000000E+00  0.00000000000E+00  0.45593999997E+02  0.45594000000E+02  0.51100000000E-03 0.  1.
         11   -1    0    0    0    0 -0.00000000000E+00 -0.00000000000E+00 -0.45593999997E+02  0.45594000000E+02  0.51100000000E-03 0. -1.
    9900012    2    1    2    0    0 -0.61608866493E+01  0.36057319375E+02  0.23356717167E+02  0.47787273720E+02  0.20000012199E+02 0.  0.
         12    1    1    2    0    0  0.61608866493E+01 -0.36057319375E+02 -0.23356717167E+02  0.43400726280E+02  0.00000000000E+00 0. -1.
         11    1    3    3    0    0 -0.51289388034E+01  0.20183899970E+02  0.44372011187E+01  0.21292829433E+02  0.51100000000E-03 0. -1.
        -11    1    3    3    0    0 -0.78803821742E+00  0.35481040820E+01 -0.31528176932E+00  0.36482118447E+01  0.51100000000E-03 0.  1.
        -12    1    3    3    0    0 -0.24390962844E+00  0.12325315323E+02  0.19234797817E+02  0.22846232442E+02  0.00000000000E+00 0.  1.
</event>
<event>
 7    1  0.2733256E-010  0.4778727E+02  0.7816164E-02  0.1312668E+00
        -11   -1    0    0    0    0  0.00000000000E+00  0.00000000000E+00  0.45593999997E+02  0.45594000000E+02  0.51100000000E-03 0. -1.
         11   -1    0    0    0    0 -0.00000000000E+00 -0.00000000000E+00 -0.45593999997E+02  0.45594000000E+02  0.51100000000E-03 0.  1.
    9900012    2    1    2    0    0  0.11888653740E+02  0.16097994088E+02 -0.38511526170E+02  0.47787272479E+02  0.20000006539E+02 0.  0.
         12    1    1    2    0    0 -0.11888653740E+02 -0.16097994088E+02  0.38511526170E+02  0.43400727521E+02  0.00000000000E+00 0. -1.
         11    1    3    3    0    0 -0.81595414349E+00 -0.28072737853E+01 -0.12975978492E+02  0.13301224957E+02  0.51100000000E-03 0. -1.
        -11    1    3    3    0    0  0.10679465489E+02  0.14775025175E+02 -0.22569647062E+02  0.29012778578E+02  0.51100000000E-03 0.  1.
         12    1    3    3    0    0  0.20251423946E+01  0.41302426983E+01 -0.29659006169E+01  0.54732689441E+01  0.00000000000E+00 0. -1.
</event>
<event>
 7    1  0.2733256E-010  0.4778727E+02  0.7816164E-02  0.1312668E+00
        -11   -1    0    0    0    0  0.00000000000E+00  0.00000000000E+00  0.45593999997E+02  0.45594000000E+02  0.51100000000E-03 0.  1.
         11   -1    0    0    0    0 -0.00000000000E+00 -0.00000000000E+00 -0.45593999997E+02  0.45594000000E+02  0.51100000000E-03 0. -1.
    9900012    2    1    2    0    0 -0.38069804422E+01  0.34971523712E+02  0.25418941796E+02  0.47787272208E+02  0.20000005306E+02 0.  0.
         12    1    1    2    0    0  0.38069804422E+01 -0.34971523712E+02 -0.25418941796E+02  0.43400727792E+02  0.00000000000E+00 0. -1.
         11    1    3    3    0    0  0.31610894532E+01  0.43624996013E+01 -0.67128078016E+00  0.54290429589E+01  0.51100000000E-03 0. -1.
        -11    1    3    3    0    0 -0.75661246246E-01  0.17274059766E+02  0.19244009404E+02  0.25859829150E+02  0.51100000000E-03 0.  1.
        -12    1    3    3    0    0 -0.68924086491E+01  0.13334964344E+02  0.68462131717E+01  0.16498400099E+02  0.00000000000E+00 0.  1.
</event>
<event>
 7    1  0.2733256E-010  0.4778728E+02  0.7816164E-02  0.1312668E+00
        -11   -1    0    0    0    0  0.00000000000E+00  0.00000000000E+00  0.45593999997E+02  0.45594000000E+02  0.51100000000E-03 0.  1.
         11   -1    0    0    0    0 -0.00000000000E+00 -0.00000000000E+00 -0.45593999997E+02  0.45594000000E+02  0.51100000000E-03 0. -1.
    9900012    2    1    2    0    0 -0.37015580962E+02  0.22095315096E+02  0.50265823963E+01  0.47787277498E+02  0.20000029423E+02 0.  0.
         12    1    1    2    0    0  0.37015580962E+02 -0.22095315096E+02 -0.50265823963E+01  0.43400722502E+02  0.00000000000E+00 0. -1.
         11    1    3    3    0    0 -0.34090525211E+01  0.41414740632E+01 -0.34427650023E+01  0.63738589277E+01  0.51100000000E-03 0. -1.
        -11    1    3    3    0    0 -0.20872366423E+01 -0.75572645751E+00  0.38841963807E+01  0.44737748115E+01  0.51100000000E-03 0.  1.
        -12    1    3    3    0    0 -0.31519291798E+02  0.18709567491E+02  0.45851510180E+01  0.36939643759E+02  0.00000000000E+00 0.  1.
</event>
<event>
 7    1  0.2733256E-010  0.4778727E+02  0.7816164E-02  0.1312668E+00
        -11   -1    0    0    0    0  0.00000000000E+00  0.00000000000E+00  0.45593999997E+02  0.45594000000E+02  0.51100000000E-03 0.  1.
         11   -1    0    0    0    0 -0.00000000000E+00 -0.00000000000E+00 -0.45593999997E+02  0.45594000000E+02  0.51100000000E-03 0. -1.
    9900012    2    1    2    0    0  0.16227474482E+01 -0.17585153337E+02  0.39645331972E+02  0.47787271039E+02  0.19999999976E+02 0.  0.
         12    1    1    2    0    0 -0.16227474482E+01  0.17585153337E+02 -0.39645331972E+02  0.43400728961E+02  0.00000000000E+00 0. -1.
         11    1    3    3    0    0  0.89788038209E+01 -0.10882828151E+02  0.29132765136E+02  0.32369319909E+02  0.51100000000E-03 0. -1.
        -11    1    3    3    0    0 -0.30078342049E+01 -0.59276333663E+01  0.48093256434E+01  0.82044815397E+01  0.51100000000E-03 0.  1.
        -12    1    3    3    0    0 -0.43482221677E+01 -0.77469181919E+00  0.57032411927E+01  0.72134695908E+01  0.00000000000E+00 0.  1.
</event>
<event>
 7    1  0.2733256E-010  0.4778727E+02  0.7816164E-02  0.1312668E+00
        -11   -1    0    0    0    0  0.00000000000E+00  0.00000000000E+00  0.45593999997E+02  0.45594000000E+02  0.51100000000E-03 0. -1.
         11   -1    0    0    0    0 -0.00000000000E+00 -0.00000000000E+00 -0.45593999997E+02  0.45594000000E+02  0.51100000000E-03 0.  1.
    9900012    2    1    2    0    0 -0.39217322980E+02  0.55322176231E+01 -0.17748787698E+02  0.47787270533E+02  0.19999997666E+02 0.  0.
         12    1    1    2    0    0  0.39217322980E+02 -0.55322176231E+01  0.17748787698E+02  0.43400729467E+02  0.00000000000E+00 0. -1.
         11    1    3    3    0    0  0.69905082584E+00 -0.18747924102E+01 -0.15416681325E+01  0.25259175620E+01  0.51100000000E-03 0. -1.
        -11    1    3    3    0    0 -0.83248267380E+01  0.42209585802E-01 -0.85454394883E+01  0.11930174273E+02  0.51100000000E-03 0.  1.
        -12    1    3    3    0    0 -0.31591547068E+02  0.73648004475E+01 -0.76616800773E+01  0.33331178698E+02  0.00000000000E+00 0.  1.
</event>
<event>
 7    1  0.2733256E-010  0.4778727E+02  0.7816164E-02  0.1312668E+00
        -11   -1    0    0    0    0  0.00000000000E+00  0.00000000000E+00  0.45593999997E+02  0.45594000000E+02  0.51100000000E-03 0.  1.
         11   -1    0    0    0    0 -0.00000000000E+00 -0.00000000000E+00 -0.45593999997E+02  0.45594000000E+02  0.51100000000E-03 0. -1.
    9900012    2    1    2    0    0  0.41921075411E+02  0.75693870909E+01  0.83036979455E+01  0.47787267470E+02  0.19999983705E+02 0.  0.
         12    1    1    2    0    0 -0.41921075411E+02 -0.75693870909E+01 -0.83036979455E+01  0.43400732530E+02  0.00000000000E+00 0. -1.
         11    1    3    3    0    0  0.11895819102E+02  0.49849107752E+01 -0.16265804741E+00  0.12899081574E+02  0.51100000000E-03 0. -1.
        -11    1    3    3    0    0  0.25362115481E+02 -0.16414036753E+01  0.14404078341E+01  0.25455959669E+02  0.51100000000E-03 0.  1.
         12    1    3    3    0    0  0.46631408282E+01  0.42258799909E+01  0.70259481588E+01  0.94322262278E+01  0.00000000000E+00 0. -1.
</event>
<event>
 7    1  0.2733256E-010  0.4778727E+02  0.7816164E-02  0.1312668E+00
        -11   -1    0    0    0    0  0.00000000000E+00  0.00000000000E+00  0.45593999997E+02  0.45594000000E+02  0.51100000000E-03 0.  1.
         11   -1    0    0    0    0 -0.00000000000E+00 -0.00000000000E+00 -0.45593999997E+02  0.45594000000E+02  0.51100000000E-03 0. -1.
    9900012    2    1    2    0    0  0.16487479921E+02 -0.28846604990E+01  0.40043293291E+02  0.47787267312E+02  0.19999982981E+02 0.  0.
         12    1    1    2    0    0 -0.16487479921E+02  0.28846604990E+01 -0.40043293291E+02  0.43400732688E+02  0.00000000000E+00 0. -1.
         11    1    3    3    0    0  0.93602810506E+00  0.52254553283E+01  0.71170271266E+01  0.88788291673E+01  0.51100000000E-03 0. -1.
        -11    1    3    3    0    0  0.97441902571E+01  0.10044189584E+01  0.17809668805E+02  0.20325904763E+02  0.51100000000E-03 0.  1.
        -12    1    3    3    0    0  0.58072615586E+01 -0.91145347856E+01  0.15116597359E+02  0.18582533381E+02  0.00000000000E+00 0.  1.
</event>
<event>
 7    1  0.2733256E-010  0.4778722E+02  0.7816164E-02  0.1312668E+00
        -11   -1    0    0    0    0  0.00000000000E+00  0.00000000000E+00  0.45593999997E+02  0.45594000000E+02  0.51100000000E-03 0. -1.
         11   -1    0    0    0    0 -0.00000000000E+00 -0.00000000000E+00 -0.45593999997E+02  0.45594000000E+02  0.51100000000E-03 0.  1.
    9900012    2    1    2    0    0  0.67316959992E+00  0.27552573574E+02 -0.33526554249E+02  0.47787224572E+02  0.19999788114E+02 0.  0.
         12    1    1    2    0    0 -0.67316959992E+00 -0.27552573574E+02  0.33526554249E+02  0.43400775428E+02  0.00000000000E+00 0. -1.
         11    1    3    3    0    0 -0.15908105237E+00 -0.11105092945E+01 -0.20767126679E+01  0.23603545158E+01  0.51100000000E-03 0. -1.
        -11    1    3    3    0    0  0.43380128438E+01  0.15127327778E+02 -0.26057180841E+02  0.30440615545E+02  0.51100000000E-03 0.  1.
         12    1    3    3    0    0 -0.35057621915E+01  0.13535755090E+02 -0.53926607409E+01  0.14986254511E+02  0.00000000000E+00 0. -1.
</event>
<event>
 7    1  0.2733256E-010  0.4778727E+02  0.7816164E-02  0.1312668E+00
        -11   -1    0    0    0    0  0.00000000000E+00  0.00000000000E+00  0.45593999997E+02  0.45594000000E+02  0.51100000000E-03 0.  1.
         11   -1    0    0    0    0 -0.00000000000E+00 -0.00000000000E+00 -0.45593999997E+02  0.45594000000E+02  0.51100000000E-03 0. -1.
    9900012    2    1    2    0    0  0.47126109575E+00 -0.28405528020E+02  0.32810469425E+02  0.47787274049E+02  0.20000013701E+02 0.  0.
         12    1    1    2    0    0 -0.47126109575E+00  0.28405528020E+02 -0.32810469425E+02  0.43400725951E+02  0.00000000000E+00 0. -1.
         11    1    3    3    0    0  0.18074111993E+01  0.11232288671E+01  0.21312290013E+01  0.30117296772E+01  0.51100000000E-03 0. -1.
        -11    1    3    3    0    0 -0.16740056816E+01 -0.51321875489E+01  0.14571109387E+02  0.15538946975E+02  0.51100000000E-03 0.  1.
         12    1    3    3    0    0  0.33785557807E+00 -0.24396569338E+02  0.16108131037E+02  0.29236597397E+02  0.00000000000E+00 0. -1.
</event>
<event>
 7    1  0.2733256E-010  0.4778727E+02  0.7816164E-02  0.1312668E+00
        -11   -1    0    0    0    0  0.00000000000E+00  0.00000000000E+00  0.45593999997E+02  0.45594000000E+02  0.51100000000E-03 0.  1.
         11   -1    0    0    0    0 -0.00000000000E+00 -0.00000000000E+00 -0.45593999997E+02  0.45594000000E+02  0.51100000000E-03 0. -1.
    9900012    2    1    2    0    0 -0.17188979902E+02 -0.13412223066E+02  0.37526986194E+02  0.47787269010E+02  0.19999990726E+02 0.  0.
         12    1    1    2    0    0  0.17188979902E+02  0.13412223066E+02 -0.37526986194E+02  0.43400730990E+02  0.00000000000E+00 0. -1.
         11    1    3    3    0    0 -0.14076184497E+01 -0.39962363521E+00  0.72482589553E+01  0.73944808400E+01  0.51100000000E-03 0.  1.
        -11    1    3    3    0    0 -0.11494401019E+02 -0.15789530509E+02  0.16063245660E+02  0.25287514506E+02  0.51100000000E-03 0. -1.
         12    1    3    3    0    0 -0.42869604336E+01  0.27769310781E+01  0.14215481578E+02  0.15105273664E+02  0.00000000000E+00 0. -1.
</event>
<event>
 7    1  0.2733256E-010  0.4778727E+02  0.7816164E-02  0.1312668E+00
        -11   -1    0    0    0    0  0.00000000000E+00  0.00000000000E+00  0.45593999997E+02  0.45594000000E+02  0.51100000000E-03 0.  1.
         11   -1    0    0    0    0 -0.00000000000E+00 -0.00000000000E+00 -0.45593999997E+02  0.45594000000E+02  0.51100000000E-03 0. -1.
    9900012    2    1    2    0    0 -0.37711862778E+02  0.20727226489E+02  0.56410103863E+01  0.47787268321E+02  0.19999987581E+02 0.  0.
         12    1    1    2    0    0  0.37711862778E+02 -0.20727226489E+02 -0.56410103863E+01  0.43400731679E+02  0.00000000000E+00 0. -1.
         11    1    3    3    0    0 -0.51397594496E+01 -0.39273181306E+01 -0.13784679273E+00  0.64699271170E+01  0.51100000000E-03 0. -1.
        -11    1    3    3    0    0 -0.59191146964E+01  0.37596042577E+01  0.37846541416E+00  0.70223770402E+01  0.51100000000E-03 0.  1.
         12    1    3    3    0    0 -0.26652988632E+02  0.20894940362E+02  0.54003917649E+01  0.34294964163E+02  0.00000000000E+00 0. -1.
</event>
<event>
 7    1  0.2733256E-010  0.4778727E+02  0.7816164E-02  0.1312668E+00
        -11   -1    0    0    0    0  0.00000000000E+00  0.00000000000E+00  0.45593999997E+02  0.45594000000E+02  0.51100000000E-03 0.  1.
         11   -1    0    0    0    0 -0.00000000000E+00 -0.00000000000E+00 -0.45593999997E+02  0.45594000000E+02  0.51100000000E-03 0. -1.
    9900012    2    1    2    0    0 -0.41598207945E+02  0.39953313585E+01 -0.11715358265E+02  0.47787271939E+02  0.20000004080E+02 0.  0.
         12    1    1    2    0    0  0.41598207945E+02 -0.39953313585E+01  0.11715358265E+02  0.43400728061E+02  0.00000000000E+00 0. -1.
         11    1    3    3    0    0 -0.17799659952E+02 -0.38932280872E+01 -0.54458026273E+01  0.19016884231E+02  0.51100000000E-03 0. -1.
        -11    1    3    3    0    0 -0.22468172629E+02  0.39632499788E+01 -0.81394426787E+01  0.24223473307E+02  0.51100000000E-03 0.  1.
        -12    1    3    3    0    0 -0.13303753637E+01  0.39253094669E+01  0.18698870409E+01  0.45469144004E+01  0.00000000000E+00 0.  1.
</event>
<event>
 7    1  0.2733256E-010  0.4778726E+02  0.7816164E-02  0.1312668E+00
        -11   -1    0    0    0    0  0.00000000000E+00  0.00000000000E+00  0.45593999997E+02  0.45594000000E+02  0.51100000000E-03 0.  1.
         11   -1    0    0    0    0 -0.00000000000E+00 -0.00000000000E+00 -0.45593999997E+02  0.45594000000E+02  0.51100000000E-03 0. -1.
    9900012    2    1    2    0    0  0.41478781267E+01 -0.43588096465E+01  0.42981620758E+02  0.47787264552E+02  0.19999970396E+02 0.  0.
         12    1    1    2    0    0 -0.41478781267E+01  0.43588096465E+01 -0.42981620758E+02  0.43400735448E+02  0.00000000000E+00 0. -1.
         11    1    3    3    0    0  0.83239297282E+01 -0.27667941841E+01  0.65496388662E+01  0.10947178893E+02  0.51100000000E-03 0. -1.
        -11    1    3    3    0    0  0.11844015282E+00  0.62214002111E+00  0.46509649242E+01  0.46938855187E+01  0.51100000000E-03 0.  1.
        -12    1    3    3    0    0 -0.42944917544E+01 -0.22141554835E+01  0.31781016968E+02  0.32146200140E+02  0.00000000000E+00 0.  1.
</event>
<event>
 7    1  0.2733256E-010  0.4778724E+02  0.7816164E-02  0.1312668E+00
        -11   -1    0    0    0    0  0.00000000000E+00  0.00000000000E+00  0.45593999997E+02  0.45594000000E+02  0.51100000000E-03 0.  1.
         11   -1    0    0    0    0 -0.00000000000E+00 -0.00000000000E+00 -0.45593999997E+02  0.45594000000E+02  0.51100000000E-03 0. -1.
    9900012    2    1    2    0    0 -0.11624343417E+02 -0.18109510120E+02  0.37690136809E+02  0.47787238148E+02  0.19999850011E+02 0.  0.
         12    1    1    2    0    0  0.11624343417E+02  0.18109510120E+02 -0.37690136809E+02  0.43400761852E+02  0.00000000000E+00 0. -1.
         11    1    3    3    0    0  0.12387820995E+01 -0.30093407169E+00  0.26513341601E+00  0.13020900103E+01  0.51100000000E-03 0. -1.
        -11    1    3    3    0    0 -0.14485863209E+02 -0.81835073542E+01  0.16683092765E+02  0.23561315965E+02  0.51100000000E-03 0.  1.
        -12    1    3    3    0    0  0.16227376923E+01 -0.96250686942E+01  0.20741910627E+02  0.22923832172E+02  0.00000000000E+00 0.  1.
</event>
<event>
 7    1  0.2733256E-010  0.4778727E+02  0.7816164E-02  0.1312668E+00
        -11   -1    0    0    0    0  0.00000000000E+00  0.00000000000E+00  0.45593999997E+02  0.45594000000E+02  0.51100000000E-03 0.  1.
         11   -1    0    0    0    0 -0.00000000000E+00 -0.00000000000E+00 -0.45593999997E+02  0.45594000000E+02  0.51100000000E-03 0. -1.
    9900012    2    1    2    0    0 -0.39329798289E+01 -0.41227432034E+02  0.12978984719E+02  0.47787268131E+02  0.19999986715E+02 0.  0.
         12    1    1    2    0    0  0.39329798289E+01  0.41227432034E+02 -0.12978984719E+02  0.43400731869E+02  0.00000000000E+00 0. -1.
         11    1    3    3    0    0  0.37569167177E+01 -0.10088018575E+02 -0.17409383211E+01  0.10904742477E+02  0.51100000000E-03 0. -1.
        -11    1    3    3    0    0  0.39469385530E+00 -0.18708226301E+02  0.58601557078E+01  0.19608542520E+02  0.51100000000E-03 0.  1.
        -12    1    3    3    0    0 -0.80845904019E+01 -0.12431187158E+02  0.88597673318E+01  0.17273983133E+02  0.00000000000E+00 0.  1.
</event>
<event>
 7    1  0.2733256E-010  0.4778727E+02  0.7816164E-02  0.1312668E+00
        -11   -1    0    0    0    0  0.00000000000E+00  0.00000000000E+00  0.45593999997E+02  0.45594000000E+02  0.51100000000E-03 0. -1.
         11   -1    0    0    0    0 -0.00000000000E+00 -0.00000000000E+00 -0.45593999997E+02  0.45594000000E+02  0.51100000000E-03 0.  1.
    9900012    2    1    2    0    0  0.47208708928E+00  0.74703204093E+01 -0.42750376316E+02  0.47787271568E+02  0.20000002388E+02 0.  0.
         12    1    1    2    0    0 -0.47208708928E+00 -0.74703204093E+01  0.42750376316E+02  0.43400728432E+02  0.00000000000E+00 0. -1.
         11    1    3    3    0    0 -0.38497121832E+01  0.37187879989E+01 -0.75677616583E+01  0.92693411228E+01  0.51100000000E-03 0. -1.
        -11    1    3    3    0    0 -0.31050139972E+01  0.66870281646E+01 -0.13050243082E+02  0.14988872618E+02  0.51100000000E-03 0.  1.
         12    1    3    3    0    0  0.74268132697E+01 -0.29354957542E+01 -0.22132371576E+02  0.23529057828E+02  0.00000000000E+00 0. -1.
</event>
<event>
 7    1  0.2733256E-010  0.4778728E+02  0.7816164E-02  0.1312668E+00
        -11   -1    0    0    0    0  0.00000000000E+00  0.00000000000E+00  0.45593999997E+02  0.45594000000E+02  0.51100000000E-03 0.  1.
         11   -1    0    0    0    0 -0.00000000000E+00 -0.00000000000E+00 -0.45593999997E+02  0.45594000000E+02  0.51100000000E-03 0. -1.
    9900012    2    1    2    0    0  0.33099135375E+02  0.18148274598E+02  0.21417515902E+02  0.47787278568E+02  0.20000034302E+02 0.  0.
         12    1    1    2    0    0 -0.33099135375E+02 -0.18148274598E+02 -0.21417515902E+02  0.43400721432E+02  0.00000000000E+00 0. -1.
         11    1    3    3    0    0  0.17867739399E+02  0.13176287966E+01  0.15743373307E+02  0.23850493920E+02  0.51100000000E-03 0. -1.
        -11    1    3    3    0    0  0.53976323091E+01  0.29722967018E+01  0.25015235367E+01  0.66503084510E+01  0.51100000000E-03 0.  1.
         12    1    3    3    0    0  0.98337636664E+01  0.13858349100E+02  0.31726190580E+01  0.17286476197E+02  0.00000000000E+00 0. -1.
</event>
<event>
 7    1  0.2733256E-010  0.4778727E+02  0.7816164E-02  0.1312668E+00
        -11   -1    0    0    0    0  0.00000000000E+00  0.00000000000E+00  0.45593999997E+02  0.45594000000E+02  0.51100000000E-03 0.  1.
         11   -1    0    0    0    0 -0.00000000000E+00 -0.00000000000E+00 -0.45593999997E+02  0.45594000000E+02  0.51100000000E-03 0. -1.
    9900012    2    1    2    0    0  0.24238846396E+02  0.35953362581E+01  0.35821434666E+02  0.47787270755E+02  0.19999998682E+02 0.  0.
         12    1    1    2    0    0 -0.24238846396E+02 -0.35953362581E+01 -0.35821434666E+02  0.43400729245E+02  0.00000000000E+00 0. -1.
         11    1    3    3    0    0  0.65299489227E+00 -0.12199184135E+01 -0.66638250594E+00  0.15357959403E+01  0.51100000000E-03 0. -1.
        -11    1    3    3    0    0  0.24821193038E+02  0.58802172137E+01  0.36605195390E+02  0.44616240408E+02  0.51100000000E-03 0.  1.
         12    1    3    3    0    0 -0.12353415338E+01 -0.10649625421E+01 -0.11737821797E+00  0.16352344074E+01  0.00000000000E+00 0. -1.
</event>
<event>
 7    1  0.2733256E-010  0.4778727E+02  0.7816164E-02  0.1312668E+00
        -11   -1    0    0    0    0  0.00000000000E+00  0.00000000000E+00  0.45593999997E+02  0.45594000000E+02  0.51100000000E-03 0. -1.
         11   -1    0    0    0    0 -0.00000000000E+00 -0.00000000000E+00 -0.45593999997E+02  0.45594000000E+02  0.51100000000E-03 0.  1.
    9900012    2    1    2    0    0 -0.37276127061E+02 -0.87191898228E+01 -0.20447227875E+02  0.47787273651E+02  0.20000011883E+02 0.  0.
         12    1    1    2    0    0  0.37276127061E+02  0.87191898228E+01  0.20447227875E+02  0.43400726349E+02  0.00000000000E+00 0. -1.
         11    1    3    3    0    0 -0.57935571273E+01  0.36347047554E+01 -0.28187484900E+01  0.73974134775E+01  0.51100000000E-03 0. -1.
        -11    1    3    3    0    0 -0.15269095943E+02 -0.17268547279E+01 -0.13749401292E+02  0.20619732159E+02  0.51100000000E-03 0.  1.
        -12    1    3    3    0    0 -0.16213473991E+02 -0.10627039850E+02 -0.38790780938E+01  0.19770128014E+02  0.00000000000E+00 0.  1.
</event>
<event>
 7    1  0.2733256E-010  0.4778728E+02  0.7816164E-02  0.1312668E+00
        -11   -1    0    0    0    0  0.00000000000E+00  0.00000000000E+00  0.45593999997E+02  0.45594000000E+02  0.51100000000E-03 0.  1.
         11   -1    0    0    0    0 -0.00000000000E+00 -0.00000000000E+00 -0.45593999997E+02  0.45594000000E+02  0.51100000000E-03 0. -1.
    9900012    2    1    2    0    0 -0.10472848819E+02  0.50615278183E+01  0.41812954724E+02  0.47787276400E+02  0.20000024419E+02 0.  0.
         12    1    1    2    0    0  0.10472848819E+02 -0.50615278183E+01 -0.41812954724E+02  0.43400723600E+02  0.00000000000E+00 0. -1.
         11    1    3    3    0    0 -0.19333656564E+01  0.20775842283E+01  0.62386344893E+01  0.68538178805E+01  0.51100000000E-03 0. -1.
        -11    1    3    3    0    0  0.19193253206E+01  0.19087478809E+01  0.27613063080E+02  0.27745420903E+02  0.51100000000E-03 0.  1.
         12    1    3    3    0    0 -0.10458808483E+02  0.10751957091E+01  0.79612571544E+01  0.13188037617E+02  0.00000000000E+00 0. -1.
</event>
<event>
 7    1  0.2733256E-010  0.4778723E+02  0.7816164E-02  0.1312668E+00
        -11   -1    0    0    0    0  0.00000000000E+00  0.00000000000E+00  0.45593999997E+02  0.45594000000E+02  0.51100000000E-03 0.  1.
         11   -1    0    0    0    0 -0.00000000000E+00 -0.00000000000E+00 -0.45593999997E+02  0.45594000000E+02  0.51100000000E-03 0. -1.
    9900012    2    1    2    0    0  0.40349283000E+02 -0.10665918720E+02 -0.11907992370E+02  0.47787231078E+02  0.19999817776E+02 0.  0.
         12    1    1    2    0    0 -0.40349283000E+02  0.10665918720E+02  0.11907992370E+02  0.43400768922E+02  0.00000000000E+00 0. -1.
         11    1    3    3    0    0  0.55731675439E+01 -0.70327114908E+01 -0.86659348455E+00  0.90149992742E+01  0.51100000000E-03 0. -1.
        -11    1    3    3    0    0  0.24760700889E+02 -0.82873824135E+01 -0.82092437678E+01  0.27370873192E+02  0.51100000000E-03 0.  1.
         12    1    3    3    0    0  0.10015414567E+02  0.46541751842E+01 -0.28321551179E+01  0.11401358612E+02  0.00000000000E+00 0. -1.
</event>
<event>
 7    1  0.2733256E-010  0.4778727E+02  0.7816164E-02  0.1312668E+00
        -11   -1    0    0    0    0  0.00000000000E+00  0.00000000000E+00  0.45593999997E+02  0.45594000000E+02  0.51100000000E-03 0.  1.
         11   -1    0    0    0    0 -0.00000000000E+00 -0.00000000000E+00 -0.45593999997E+02  0.45594000000E+02  0.51100000000E-03 0. -1.
    9900012    2    1    2    0    0  0.38752154333E+02 -0.59507957409E+01  0.18614020317E+02  0.47787272037E+02  0.20000004524E+02 0.  0.
         12    1    1    2    0    0 -0.38752154333E+02  0.59507957409E+01 -0.18614020317E+02  0.43400727963E+02  0.00000000000E+00 0. -1.
         11    1    3    3    0    0  0.89751759928E+01 -0.37748677880E+01  0.45167604660E+00  0.97471751000E+01  0.51100000000E-03 0. -1.
        -11    1    3    3    0    0  0.27192205894E+02 -0.68535487805E+01  0.14581409563E+02  0.31607035567E+02  0.51100000000E-03 0.  1.
        -12    1    3    3    0    0  0.25847724464E+01  0.46776208275E+01  0.35809347069E+01  0.64330613693E+01  0.00000000000E+00 0.  1.
</event>
<event>
 7    1  0.2733256E-010  0.4778727E+02  0.7816164E-02  0.1312668E+00
        -11   -1    0    0    0    0  0.00000000000E+00  0.00000000000E+00  0.45593999997E+02  0.45594000000E+02  0.51100000000E-03 0. -1.
         11   -1    0    0    0    0 -0.00000000000E+00 -0.00000000000E+00 -0.45593999997E+02  0.45594000000E+02  0.51100000000E-03 0.  1.
    9900012    2    1    2    0    0 -0.65037255035E+01 -0.36600929833E+02 -0.22398598758E+02  0.47787265716E+02  0.19999975705E+02 0.  0.
         12    1    1    2    0    0  0.65037255035E+01  0.36600929833E+02  0.22398598758E+02  0.43400734284E+02  0.00000000000E+00 0. -1.
         11    1    3    3    0    0 -0.16017126399E+01 -0.80409532677E+01  0.10780726846E+01  0.82695014245E+01  0.51100000000E-03 0. -1.
        -11    1    3    3    0    0  0.24743647486E+01 -0.81371643118E+01 -0.15245292004E+01  0.86406083982E+01  0.51100000000E-03 0.  1.
        -12    1    3    3    0    0 -0.73763776122E+01 -0.20422812254E+02 -0.21952142242E+02  0.30877155893E+02  0.00000000000E+00 0.  1.
</event>
<event>
 7    1  0.2733256E-010  0.4778730E+02  0.7816164E-02  0.1312668E+00
        -11   -1    0    0    0    0  0.00000000000E+00  0.00000000000E+00  0.45593999997E+02  0.45594000000E+02  0.51100000000E-03 0. -1.
         11   -1    0    0    0    0 -0.00000000000E+00 -0.00000000000E+00 -0.45593999997E+02  0.45594000000E+02  0.51100000000E-03 0.  1.
    9900012    2    1    2    0    0 -0.28832899672E+02 -0.24187185676E+02 -0.21616308435E+02  0.47787299029E+02  0.20000127592E+02 0.  0.
         12    1    1    2    0    0  0.28832899672E+02  0.24187185676E+02  0.21616308435E+02  0.43400700971E+02  0.00000000000E+00 0. -1.
         11    1    3    3    0    0 -0.32284984862E+01 -0.65679549684E+00 -0.29069738592E+01  0.43937546676E+01  0.51100000000E-03 0. -1.
        -11    1    3    3    0    0 -0.44816869950E+00 -0.10429574718E+02 -0.25344852556E+01  0.10742462462E+02  0.51100000000E-03 0.  1.
        -12    1    3    3    0    0 -0.25156232486E+02 -0.13100815461E+02 -0.16174849320E+02  0.32651081899E+02  0.00000000000E+00 0.  1.
</event>
<event>
 7    1  0.2733256E-010  0.4778727E+02  0.7816164E-02  0.1312668E+00
        -11   -1    0    0    0    0  0.00000000000E+00  0.00000000000E+00  0.45593999997E+02  0.45594000000E+02  0.51100000000E-03 0.  1.
         11   -1    0    0    0    0 -0.00000000000E+00 -0.00000000000E+00 -0.45593999997E+02  0.45594000000E+02  0.51100000000E-03 0. -1.
    9900012    2    1    2    0    0  0.18558795366E+02 -0.38599075441E+02  0.70218063372E+01  0.47787271036E+02  0.19999999961E+02 0.  0.
         12    1    1    2    0    0 -0.18558795366E+02  0.38599075441E+02 -0.70218063372E+01  0.43400728964E+02  0.00000000000E+00 0. -1.
         11    1    3    3    0    0  0.11002260053E+02 -0.34227622312E+02  0.47456890076E+01  0.36264327097E+02  0.51100000000E-03 0. -1.
        -11    1    3    3    0    0  0.69091516375E+01 -0.62426025241E+01  0.17555016730E+01  0.94756661512E+01  0.51100000000E-03 0.  1.
         12    1    3    3    0    0  0.64738367559E+00  0.18711493941E+01  0.52061565652E+00  0.20472777878E+01  0.00000000000E+00 0. -1.
</event>
<event>
 7    1  0.2733256E-010  0.4778727E+02  0.7816164E-02  0.1312668E+00
        -11   -1    0    0    0    0  0.00000000000E+00  0.00000000000E+00  0.45593999997E+02  0.45594000000E+02  0.51100000000E-03 0.  1.
         11   -1    0    0    0    0 -0.00000000000E+00 -0.00000000000E+00 -0.45593999997E+02  0.45594000000E+02  0.51100000000E-03 0. -1.
    9900012    2    1    2    0    0 -0.31830398263E+02 -0.17530948169E+02  0.23730046528E+02  0.47787268376E+02  0.19999987833E+02 0.  0.
         12    1    1    2    0    0  0.31830398263E+02  0.17530948169E+02 -0.23730046528E+02  0.43400731624E+02  0.00000000000E+00 0. -1.
         11    1    3    3    0    0 -0.47014922761E+01 -0.39699337976E+01  0.20574880082E+01  0.64882710443E+01  0.51100000000E-03 0.  1.
        -11    1    3    3    0    0 -0.42254244665E+01 -0.11320251680E+02  0.86144032783E+01  0.14839482947E+02  0.51100000000E-03 0. -1.
         12    1    3    3    0    0 -0.22903481520E+02 -0.22407626918E+01  0.13058155241E+02  0.26459514385E+02  0.00000000000E+00 0. -1.
</event>
<event>
 7    1  0.2733256E-010  0.4778727E+02  0.7816164E-02  0.1312668E+00
        -11   -1    0    0    0    0  0.00000000000E+00  0.00000000000E+00  0.45593999997E+02  0.45594000000E+02  0.51100000000E-03 0.  1.
         11   -1    0    0    0    0 -0.00000000000E+00 -0.00000000000E+00 -0.45593999997E+02  0.45594000000E+02  0.51100000000E-03 0. -1.
    9900012    2    1    2    0    0  0.82670975099E+01 -0.14088798747E+02  0.40209252920E+02  0.47787272220E+02  0.20000005362E+02 0.  0.
         12    1    1    2    0    0 -0.82670975099E+01  0.14088798747E+02 -0.40209252920E+02  0.43400727780E+02  0.00000000000E+00 0. -1.
         11    1    3    3    0    0 -0.19538009114E+01 -0.31774954576E+01  0.35239222690E+01  0.51314563043E+01  0.51100000000E-03 0. -1.
        -11    1    3    3    0    0  0.57946542836E+01 -0.12041407759E+02  0.13391986936E+02  0.18918742914E+02  0.51100000000E-03 0.  1.
        -12    1    3    3    0    0  0.44262441377E+01  0.11301044690E+01  0.23293343715E+02  0.23737073002E+02  0.00000000000E+00 0.  1.
</event>
<event>
 7    1  0.2733256E-010  0.4778727E+02  0.7816164E-02  0.1312668E+00
        -11   -1    0    0    0    0  0.00000000000E+00  0.00000000000E+00  0.45593999997E+02  0.45594000000E+02  0.51100000000E-03 0.  1.
         11   -1    0    0    0    0 -0.00000000000E+00 -0.00000000000E+00 -0.45593999997E+02  0.45594000000E+02  0.51100000000E-03 0. -1.
    9900012    2    1    2    0    0 -0.31361604304E+02  0.16003135126E+01  0.29958502924E+02  0.47787272757E+02  0.20000007806E+02 0.  0.
         12    1    1    2    0    0  0.31361604304E+02 -0.16003135126E+01 -0.29958502924E+02  0.43400727243E+02  0.00000000000E+00 0. -1.
         11    1    3    3    0    0 -0.28772752773E+00  0.41733257716E+00  0.56419097074E+01  0.56646358239E+01  0.51100000000E-03 0. -1.
        -11    1    3    3    0    0 -0.71319578274E+01 -0.28064449013E+01 -0.14070434874E+00  0.76655563015E+01  0.51100000000E-03 0.  1.
        -12    1    3    3    0    0 -0.23941918949E+02  0.39894258367E+01  0.24457297565E+02  0.34457080631E+02  0.00000000000E+00 0.  1.
</event>
<event>
 7    1  0.2733256E-010  0.4778727E+02  0.7816164E-02  0.1312668E+00
        -11   -1    0    0    0    0  0.00000000000E+00  0.00000000000E+00  0.45593999997E+02  0.45594000000E+02  0.51100000000E-03 0.  1.
         11   -1    0    0    0    0 -0.00000000000E+00 -0.00000000000E+00 -0.45593999997E+02  0.45594000000E+02  0.51100000000E-03 0. -1.
    9900012    2    1    2    0    0  0.97237015277E+01 -0.32998949212E+02  0.26460199682E+02  0.47787272037E+02  0.20000004524E+02 0.  0.
         12    1    1    2    0    0 -0.97237015277E+01  0.32998949212E+02 -0.26460199682E+02  0.43400727963E+02  0.00000000000E+00 0. -1.
         11    1    3    3    0    0  0.38818087193E+01 -0.23919143641E+01  0.59679535003E+01  0.75104036177E+01  0.51100000000E-03 0. -1.
        -11    1    3    3    0    0  0.10205786488E+02 -0.17702613041E+02  0.85116501115E+01  0.22135690055E+02  0.51100000000E-03 0.  1.
        -12    1    3    3    0    0 -0.43638936800E+01 -0.12904421807E+02  0.11980596070E+02  0.18141178364E+02  0.00000000000E+00 0.  1.
</event>
<event>
 7    1  0.2733256E-010  0.4778727E+02  0.7816164E-02  0.1312668E+00
        -11   -1    0    0    0    0  0.00000000000E+00  0.00000000000E+00  0.45593999997E+02  0.45594000000E+02  0.51100000000E-03 0.  1.
         11   -1    0    0    0    0 -0.00000000000E+00 -0.00000000000E+00 -0.45593999997E+02  0.45594000000E+02  0.51100000000E-03 0. -1.
    9900012    2    1    2    0    0  0.21626184014E+02  0.71737619797E+01  0.36938713425E+02  0.47787271372E+02  0.20000001495E+02 0.  0.
         12    1    1    2    0    0 -0.21626184014E+02 -0.71737619797E+01 -0.36938713425E+02  0.43400728628E+02  0.00000000000E+00 0. -1.
         11    1    3    3    0    0  0.11635540647E+01 -0.26747691747E+01  0.56168131423E+01  0.63290471902E+01  0.51100000000E-03 0. -1.
        -11    1    3    3    0    0  0.27363112428E+01 -0.13704537559E+01  0.13769371756E+02  0.14105358610E+02  0.51100000000E-03 0.  1.
         12    1    3    3    0    0  0.17726318707E+02  0.11218984910E+02  0.17552528526E+02  0.27352865572E+02  0.00000000000E+00 0. -1.
</event>
<event>
 7    1  0.2733256E-010  0.4778727E+02  0.7816164E-02  0.1312668E+00
        -11   -1    0    0    0    0  0.00000000000E+00  0.00000000000E+00  0.45593999997E+02  0.45594000000E+02  0.51100000000E-03 0. -1.
         11   -1    0    0    0    0 -0.00000000000E+00 -0.00000000000E+00 -0.45593999997E+02  0.45594000000E+02  0.51100000000E-03 0.  1.
    9900012    2    1    2    0    0 -0.37654820814E+02  0.23754782721E+01 -0.21449828861E+02  0.47787267452E+02  0.19999983618E+02 0.  0.
         12    1    1    2    0    0  0.37654820814E+02 -0.23754782721E+01  0.21449828861E+02  0.43400732548E+02  0.00000000000E+00 0. -1.
         11    1    3    3    0    0 -0.20086518425E+02  0.57926130732E+01 -0.12875700454E+02  0.24552112966E+02  0.51100000000E-03 0. -1.
        -11    1    3    3    0    0 -0.15269461315E+02 -0.32744978662E+01 -0.11584831508E+02  0.19444462103E+02  0.51100000000E-03 0.  1.
         12    1    3    3    0    0 -0.22988410739E+01 -0.14263693491E+00  0.30107031009E+01  0.37906923827E+01  0.00000000000E+00 0. -1.
</event>
<event>
 7    1  0.2733256E-010  0.4778727E+02  0.7816164E-02  0.1312668E+00
        -11   -1    0    0    0    0  0.00000000000E+00  0.00000000000E+00  0.45593999997E+02  0.45594000000E+02  0.51100000000E-03 0. -1.
         11   -1    0    0    0    0 -0.00000000000E+00 -0.00000000000E+00 -0.45593999997E+02  0.45594000000E+02  0.51100000000E-03 0.  1.
    9900012    2    1    2    0    0  0.42359239960E+01  0.28251295814E+02 -0.32673300460E+02  0.47787270395E+02  0.19999997039E+02 0.  0.
         12    1    1    2    0    0 -0.42359239960E+01 -0.28251295814E+02  0.32673300460E+02  0.43400729605E+02  0.00000000000E+00 0. -1.
         11    1    3    3    0    0  0.65078837121E+01  0.15032879340E+02 -0.19525656945E+02  0.25487080866E+02  0.51100000000E-03 0.  1.
        -11    1    3    3    0    0  0.37252229569E-01 -0.37598834351E+00 -0.73206846326E+01  0.73304282763E+01  0.51100000000E-03 0. -1.
         12    1    3    3    0    0 -0.23092119456E+01  0.13594404817E+02 -0.58269588827E+01  0.14969761253E+02  0.00000000000E+00 0. -1.
</event>
<event>
 7    1  0.2733256E-010  0.4778728E+02  0.7816164E-02  0.1312668E+00
        -11   -1    0    0    0    0  0.00000000000E+00  0.00000000000E+00  0.45593999997E+02  0.45594000000E+02  0.51100000000E-03 0.  1.
         11   -1    0    0    0    0 -0.00000000000E+00 -0.00000000000E+00 -0.45593999997E+02  0.45594000000E+02  0.51100000000E-03 0. -1.
    9900012    2    1    2    0    0  0.42700458726E+02  0.37108242733E+01  0.68208034193E+01  0.47787277062E+02  0.20000027438E+02 0.  0.
         12    1    1    2    0    0 -0.42700458726E+02 -0.37108242733E+01 -0.68208034193E+01  0.43400722938E+02  0.00000000000E+00 0. -1.
         11    1    3    3    0    0  0.13167494949E+02 -0.15277843600E+01 -0.20726321031E+00  0.13257450984E+02  0.51100000000E-03 0. -1.
        -11    1    3    3    0    0  0.10797489246E+02 -0.55149567125E+01  0.36734974097E+01  0.12668666269E+02  0.51100000000E-03 0.  1.
         12    1    3    3    0    0  0.18735474531E+02  0.10753565346E+02  0.33545692199E+01  0.21861159809E+02  0.00000000000E+00 0. -1.
</event>
<event>
 7    1  0.2733256E-010  0.4778727E+02  0.7816164E-02  0.1312668E+00
        -11   -1    0    0    0    0  0.00000000000E+00  0.00000000000E+00  0.45593999997E+02  0.45594000000E+02  0.51100000000E-03 0. -1.
         11   -1    0    0    0    0 -0.00000000000E+00 -0.00000000000E+00 -0.45593999997E+02  0.45594000000E+02  0.51100000000E-03 0.  1.
    9900012    2    1    2    0    0  0.41761788463E+02 -0.10247153579E+02 -0.58798010510E+01  0.47787271982E+02  0.20000004273E+02 0.  0.
         12    1    1    2    0    0 -0.41761788463E+02  0.10247153579E+02  0.58798010510E+01  0.43400728018E+02  0.00000000000E+00 0. -1.
         11    1    3    3    0    0  0.70051762864E+01 -0.27473427630E+01  0.45924067507E+01  0.88153608597E+01  0.51100000000E-03 0.  1.
        -11    1    3    3    0    0  0.93056338227E+01  0.28592897682E+01 -0.52742657034E+00  0.97492839670E+01  0.51100000000E-03 0. -1.
         12    1    3    3    0    0  0.25450978354E+02 -0.10359100584E+02 -0.99447812314E+01  0.29222627155E+02  0.00000000000E+00 0. -1.
</event>
<event>
 7    1  0.2733256E-010  0.4778727E+02  0.7816164E-02  0.1312668E+00
        -11   -1    0    0    0    0  0.00000000000E+00  0.00000000000E+00  0.45593999997E+02  0.45594000000E+02  0.51100000000E-03 0.  1.
         11   -1    0    0    0    0 -0.00000000000E+00 -0.00000000000E+00 -0.45593999997E+02  0.45594000000E+02  0.51100000000E-03 0. -1.
    9900012    2    1    2    0    0  0.10051380071E+02 -0.41235760287E+02  0.90666978064E+01  0.47787272161E+02  0.20000005092E+02 0.  0.
         12    1    1    2    0    0 -0.10051380071E+02  0.41235760287E+02 -0.90666978064E+01  0.43400727839E+02  0.00000000000E+00 0. -1.
         11    1    3    3    0    0  0.42109552432E+01 -0.39181431065E+01  0.30671398337E+01  0.65185379100E+01  0.51100000000E-03 0. -1.
        -11    1    3    3    0    0 -0.35388670918E+01 -0.88256016327E+01 -0.29675557540E+01  0.99609844838E+01  0.51100000000E-03 0.  1.
        -12    1    3    3    0    0  0.93792919196E+01 -0.28492015548E+02  0.89671137267E+01  0.31307749767E+02  0.00000000000E+00 0.  1.
</event>
<event>
 7    1  0.2733256E-010  0.4778726E+02  0.7816164E-02  0.1312668E+00
        -11   -1    0    0    0    0  0.00000000000E+00  0.00000000000E+00  0.45593999997E+02  0.45594000000E+02  0.51100000000E-03 0.  1.
         11   -1    0    0    0    0 -0.00000000000E+00 -0.00000000000E+00 -0.45593999997E+02  0.45594000000E+02  0.51100000000E-03 0. -1.
    9900012    2    1    2    0    0  0.25027672918E+02  0.16295253763E+02  0.31491337342E+02  0.47787262282E+02  0.19999960048E+02 0.  0.
         12    1    1    2    0    0 -0.25027672918E+02 -0.16295253763E+02 -0.31491337342E+02  0.43400737718E+02  0.00000000000E+00 0. -1.
         11    1    3    3    0    0  0.31308131074E+01  0.85246833228E+01  0.84397690378E+01  0.12397657768E+02  0.51100000000E-03 0. -1.
        -11    1    3    3    0    0  0.16664394181E+02  0.97220844738E+01  0.22704124882E+02  0.29794265335E+02  0.51100000000E-03 0.  1.
         12    1    3    3    0    0  0.52324656298E+01 -0.19515140336E+01  0.34744342212E+00  0.55953391785E+01  0.00000000000E+00 0. -1.
</event>
<event>
 7    1  0.2733256E-010  0.4778727E+02  0.7816164E-02  0.1312668E+00
        -11   -1    0    0    0    0  0.00000000000E+00  0.00000000000E+00  0.45593999997E+02  0.45594000000E+02  0.51100000000E-03 0.  1.
         11   -1    0    0    0    0 -0.00000000000E+00 -0.00000000000E+00 -0.45593999997E+02  0.45594000000E+02  0.51100000000E-03 0. -1.
    9900012    2    1    2    0    0 -0.84310553183E+01  0.11808624072E+02  0.40903510001E+02  0.47787269285E+02  0.19999991976E+02 0.  0.
         12    1    1    2    0    0  0.84310553183E+01 -0.11808624072E+02 -0.40903510001E+02  0.43400730715E+02  0.00000000000E+00 0. -1.
         11    1    3    3    0    0  0.13481490457E+01  0.60594072806E+01  0.17686733648E+01  0.64546206840E+01  0.51100000000E-03 0. -1.
        -11    1    3    3    0    0 -0.19404735760E+01 -0.12393212314E+01  0.35562387324E+01  0.42365303017E+01  0.51100000000E-03 0.  1.
         12    1    3    3    0    0 -0.78387307880E+01  0.69885380224E+01  0.35578597904E+02  0.37096118299E+02  0.00000000000E+00 0. -1.
</event>
<event>
 7    1  0.2733256E-010  0.4778727E+02  0.7816164E-02  0.1312668E+00
        -11   -1    0    0    0    0  0.00000000000E+00  0.00000000000E+00  0.45593999997E+02  0.45594000000E+02  0.51100000000E-03 0.  1.
         11   -1    0    0    0    0 -0.00000000000E+00 -0.00000000000E+00 -0.45593999997E+02  0.45594000000E+02  0.51100000000E-03 0. -1.
    9900012    2    1    2    0    0  0.32226520560E+02  0.81336136142E+01  0.27909123118E+02  0.47787269003E+02  0.19999990691E+02 0.  0.
         12    1    1    2    0    0 -0.32226520560E+02 -0.81336136142E+01 -0.27909123118E+02  0.43400730997E+02  0.00000000000E+00 0. -1.
         11    1    3    3    0    0 -0.70264709623E+00 -0.12900718960E+00  0.19645915946E+01  0.20904488015E+01  0.51100000000E-03 0. -1.
        -11    1    3    3    0    0  0.22098402614E+02  0.13147629536E+02  0.18471139973E+02  0.31660425971E+02  0.51100000000E-03 0.  1.
        -12    1    3    3    0    0  0.10830765043E+02 -0.48850087318E+01  0.74733915507E+01  0.14036394230E+02  0.00000000000E+00 0.  1.
</event>
<event>
 7    1  0.2733256E-010  0.4778727E+02  0.7816164E-02  0.1312668E+00
        -11   -1    0    0    0    0  0.00000000000E+00  0.00000000000E+00  0.45593999997E+02  0.45594000000E+02  0.51100000000E-03 0.  1.
         11   -1    0    0    0    0 -0.00000000000E+00 -0.00000000000E+00 -0.45593999997E+02  0.45594000000E+02  0.51100000000E-03 0. -1.
    9900012    2    1    2    0    0  0.84311229216E+01 -0.39867064964E+02  0.14938422366E+02  0.47787272295E+02  0.20000005701E+02 0.  0.
         12    1    1    2    0    0 -0.84311229216E+01  0.39867064964E+02 -0.14938422366E+02  0.43400727705E+02  0.00000000000E+00 0. -1.
         11    1    3    3    0    0  0.13908274161E+01 -0.24719670437E+02  0.70093526792E+01  0.25731838890E+02  0.51100000000E-03 0. -1.
        -11    1    3    3    0    0 -0.32913326656E+01 -0.41257551298E+01  0.34237629114E+01  0.62910157241E+01  0.51100000000E-03 0.  1.
         12    1    3    3    0    0  0.10331628171E+02 -0.11021639397E+02  0.45053067755E+01  0.15764417681E+02  0.00000000000E+00 0. -1.
</event>
<event>
 7    1  0.2733256E-010  0.4778727E+02  0.7816164E-02  0.1312668E+00
        -11   -1    0    0    0    0  0.00000000000E+00  0.00000000000E+00  0.45593999997E+02  0.45594000000E+02  0.51100000000E-03 0.  1.
         11   -1    0    0    0    0 -0.00000000000E+00 -0.00000000000E+00 -0.45593999997E+02  0.45594000000E+02  0.51100000000E-03 0. -1.
    9900012    2    1    2    0    0 -0.27122685512E+02 -0.14254804423E+02  0.30737333855E+02  0.47787271768E+02  0.20000003301E+02 0.  0.
         12    1    1    2    0    0  0.27122685512E+02  0.14254804423E+02 -0.30737333855E+02  0.43400728232E+02  0.00000000000E+00 0. -1.
         11    1    3    3    0    0  0.12436492159E+01 -0.48585074561E+01  0.53424944171E+01  0.73276193222E+01  0.51100000000E-03 0. -1.
        -11    1    3    3    0    0 -0.11534876020E+02 -0.60876008540E+01  0.16813757385E+02  0.21279442817E+02  0.51100000000E-03 0.  1.
        -12    1    3    3    0    0 -0.16831458708E+02 -0.33086961131E+01  0.85810820528E+01  0.19180209629E+02  0.00000000000E+00 0.  1.
</event>
<event>
 7    1  0.2733256E-010  0.4778727E+02  0.7816164E-02  0.1312668E+00
        -11   -1    0    0    0    0  0.00000000000E+00  0.00000000000E+00  0.45593999997E+02  0.45594000000E+02  0.51100000000E-03 0. -1.
         11   -1    0    0    0    0 -0.00000000000E+00 -0.00000000000E+00 -0.45593999997E+02  0.45594000000E+02  0.51100000000E-03 0.  1.
    9900012    2    1    2    0    0  0.77084823728E+01 -0.30207828775E+02 -0.30194197561E+02  0.47787272055E+02  0.20000004607E+02 0.  0.
         12    1    1    2    0    0 -0.77084823728E+01  0.30207828775E+02  0.30194197561E+02  0.43400727945E+02  0.00000000000E+00 0. -1.
         11    1    3    3    0    0  0.30104019385E+01 -0.80561981982E+00 -0.17401929604E+01  0.35692877337E+01  0.51100000000E-03 0. -1.
        -11    1    3    3    0    0  0.10447911349E+02 -0.22860979026E+02 -0.21357479446E+02  0.32983710254E+02  0.51100000000E-03 0.  1.
         12    1    3    3    0    0 -0.57498309151E+01 -0.65412299297E+01 -0.70965251546E+01  0.11234274067E+02  0.00000000000E+00 0. -1.
</event>
<event>
 7    1  0.2733256E-010  0.4778727E+02  0.7816164E-02  0.1312668E+00
        -11   -1    0    0    0    0  0.00000000000E+00  0.00000000000E+00  0.45593999997E+02  0.45594000000E+02  0.51100000000E-03 0.  1.
         11   -1    0    0    0    0 -0.00000000000E+00 -0.00000000000E+00 -0.45593999997E+02  0.45594000000E+02  0.51100000000E-03 0. -1.
    9900012    2    1    2    0    0 -0.13872973576E+02  0.40416052808E+02  0.75964971367E+01  0.47787268564E+02  0.19999988690E+02 0.  0.
         12    1    1    2    0    0  0.13872973576E+02 -0.40416052808E+02 -0.75964971367E+01  0.43400731436E+02  0.00000000000E+00 0. -1.
         11    1    3    3    0    0 -0.14809952615E+02  0.26719009872E+02  0.33180017394E+01  0.30728640074E+02  0.51100000000E-03 0. -1.
        -11    1    3    3    0    0 -0.95072516346E+00  0.12364403472E+02  0.23696292248E+00  0.12403165050E+02  0.51100000000E-03 0.  1.
        -12    1    3    3    0    0  0.18877042024E+01  0.13326394641E+01  0.40415324748E+01  0.46554634401E+01  0.00000000000E+00 0.  1.
</event>
<event>
 7    1  0.2733256E-010  0.4778727E+02  0.7816164E-02  0.1312668E+00
        -11   -1    0    0    0    0  0.00000000000E+00  0.00000000000E+00  0.45593999997E+02  0.45594000000E+02  0.51100000000E-03 0.  1.
         11   -1    0    0    0    0 -0.00000000000E+00 -0.00000000000E+00 -0.45593999997E+02  0.45594000000E+02  0.51100000000E-03 0. -1.
    9900012    2    1    2    0    0  0.39535689586E+02  0.16860213105E+02  0.60237524169E+01  0.47787272700E+02  0.20000007549E+02 0.  0.
         12    1    1    2    0    0 -0.39535689586E+02 -0.16860213105E+02 -0.60237524169E+01  0.43400727300E+02  0.00000000000E+00 0. -1.
         11    1    3    3    0    0  0.13997949597E+02  0.95498408597E+01 -0.16010892435E+01  0.17020738539E+02  0.51100000000E-03 0. -1.
        -11    1    3    3    0    0  0.14508525849E+02  0.10911449961E+02  0.37730328011E+01  0.18541651473E+02  0.51100000000E-03 0.  1.
         12    1    3    3    0    0  0.11029214140E+02 -0.36010777162E+01  0.38518088593E+01  0.12224882688E+02  0.00000000000E+00 0. -1.
</event>
<event>
 7    1  0.2733256E-010  0.4778727E+02  0.7816164E-02  0.1312668E+00
        -11   -1    0    0    0    0  0.00000000000E+00  0.00000000000E+00  0.45593999997E+02  0.45594000000E+02  0.51100000000E-03 0. -1.
         11   -1    0    0    0    0 -0.00000000000E+00 -0.00000000000E+00 -0.45593999997E+02  0.45594000000E+02  0.51100000000E-03 0.  1.
    9900012    2    1    2    0    0  0.40839954787E+02 -0.17165731559E+01 -0.14586795775E+02  0.47787272571E+02  0.20000006958E+02 0.  0.
         12    1    1    2    0    0 -0.40839954787E+02  0.17165731559E+01  0.14586795775E+02  0.43400727429E+02  0.00000000000E+00 0. -1.
         11    1    3    3    0    0  0.26822250322E+01  0.25791627026E+01 -0.22817297701E+01  0.43649401342E+01  0.51100000000E-03 0. -1.
        -11    1    3    3    0    0  0.22993998514E+02  0.12457394399E+01 -0.14374110975E+02  0.27145734490E+02  0.51100000000E-03 0.  1.
         12    1    3    3    0    0  0.15163731241E+02 -0.55414752984E+01  0.20690449693E+01  0.16276597947E+02  0.00000000000E+00 0. -1.
</event>
<event>
 7    1  0.2733256E-010  0.4778727E+02  0.7816164E-02  0.1312668E+00
        -11   -1    0    0    0    0  0.00000000000E+00  0.00000000000E+00  0.45593999997E+02  0.45594000000E+02  0.51100000000E-03 0.  1.
         11   -1    0    0    0    0 -0.00000000000E+00 -0.00000000000E+00 -0.45593999997E+02  0.45594000000E+02  0.51100000000E-03 0. -1.
    9900012    2    1    2    0    0  0.22341360544E+02  0.12376660490E+02  0.35089957331E+02  0.47787271650E+02  0.20000002759E+02 0.  0.
         12    1    1    2    0    0 -0.22341360544E+02 -0.12376660490E+02 -0.35089957331E+02  0.43400728350E+02  0.00000000000E+00 0. -1.
         11    1    3    3    0    0  0.10639359997E+02  0.59952582115E+01  0.45284155622E+01  0.13024809017E+02  0.51100000000E-03 0. -1.
        -11    1    3    3    0    0  0.52166570309E+01  0.79670582208E+01  0.14267776738E+02  0.17153920269E+02  0.51100000000E-03 0.  1.
        -12    1    3    3    0    0  0.64853435159E+01 -0.15856559424E+01  0.16293765031E+02  0.17608542363E+02  0.00000000000E+00 0.  1.
</event>
<event>
 7    1  0.2733256E-010  0.4778726E+02  0.7816164E-02  0.1312668E+00
        -11   -1    0    0    0    0  0.00000000000E+00  0.00000000000E+00  0.45593999997E+02  0.45594000000E+02  0.51100000000E-03 0.  1.
         11   -1    0    0    0    0 -0.00000000000E+00 -0.00000000000E+00 -0.45593999997E+02  0.45594000000E+02  0.51100000000E-03 0. -1.
    9900012    2    1    2    0    0  0.33475524935E+02 -0.26843514625E+02 -0.65145179616E+01  0.47787262779E+02  0.19999962312E+02 0.  0.
         12    1    1    2    0    0 -0.33475524935E+02  0.26843514625E+02  0.65145179616E+01  0.43400737221E+02  0.00000000000E+00 0. -1.
         11    1    3    3    0    0  0.57552993424E+01  0.24591292560E+00 -0.32461829188E+01  0.66122346821E+01  0.51100000000E-03 0. -1.
        -11    1    3    3    0    0  0.15984581578E+02 -0.13541038141E+02 -0.83379953534E+01  0.22547477219E+02  0.51100000000E-03 0.  1.
        -12    1    3    3    0    0  0.11735644014E+02 -0.13548389410E+02  0.50696603106E+01  0.18627550878E+02  0.00000000000E+00 0.  1.
</event>
<event>
 7    1  0.2733256E-010  0.4778727E+02  0.7816164E-02  0.1312668E+00
        -11   -1    0    0    0    0  0.00000000000E+00  0.00000000000E+00  0.45593999997E+02  0.45594000000E+02  0.51100000000E-03 0. -1.
         11   -1    0    0    0    0 -0.00000000000E+00 -0.00000000000E+00 -0.45593999997E+02  0.45594000000E+02  0.51100000000E-03 0.  1.
    9900012    2    1    2    0    0  0.24087816159E+02  0.22802705071E+01 -0.36030555872E+02  0.47787268700E+02  0.19999989310E+02 0.  0.
         12    1    1    2    0    0 -0.24087816159E+02 -0.22802705071E+01  0.36030555872E+02  0.43400731300E+02  0.00000000000E+00 0. -1.
         11    1    3    3    0    0  0.25194253400E+01  0.53738863037E+01 -0.10124204293E+02  0.11735658093E+02  0.51100000000E-03 0. -1.
        -11    1    3    3    0    0  0.16487684794E+02  0.20520580094E+01 -0.22726046709E+02  0.28151871896E+02  0.51100000000E-03 0.  1.
        -12    1    3    3    0    0  0.50807060252E+01 -0.51456738061E+01 -0.31803048697E+01  0.78997387107E+01  0.00000000000E+00 0.  1.
</event>
<event>
 7    1  0.2733256E-010  0.4778730E+02  0.7816164E-02  0.1312668E+00
        -11   -1    0    0    0    0  0.00000000000E+00  0.00000000000E+00  0.45593999997E+02  0.45594000000E+02  0.51100000000E-03 0.  1.
         11   -1    0    0    0    0 -0.00000000000E+00 -0.00000000000E+00 -0.45593999997E+02  0.45594000000E+02  0.51100000000E-03 0. -1.
    9900012    2    1    2    0    0 -0.12234779492E+02 -0.26682561855E+02  0.31968290374E+02  0.47787302703E+02  0.20000144345E+02 0.  0.
         12    1    1    2    0    0  0.12234779492E+02  0.26682561855E+02 -0.31968290374E+02  0.43400697297E+02  0.00000000000E+00 0. -1.
         11    1    3    3    0    0 -0.13081638199E+01 -0.52128658765E+01  0.10704315547E+02  0.11977797578E+02  0.51100000000E-03 0. -1.
        -11    1    3    3    0    0 -0.10565247584E+01 -0.15375780944E+02  0.57750344228E+01  0.16458490425E+02  0.51100000000E-03 0.  1.
         12    1    3    3    0    0 -0.98700909135E+01 -0.60939150347E+01  0.15488940405E+02  0.19351014701E+02  0.00000000000E+00 0. -1.
</event>
<event>
 7    1  0.2733256E-010  0.4778727E+02  0.7816164E-02  0.1312668E+00
        -11   -1    0    0    0    0  0.00000000000E+00  0.00000000000E+00  0.45593999997E+02  0.45594000000E+02  0.51100000000E-03 0.  1.
         11   -1    0    0    0    0 -0.00000000000E+00 -0.00000000000E+00 -0.45593999997E+02  0.45594000000E+02  0.51100000000E-03 0. -1.
    9900012    2    1    2    0    0  0.39796930068E+02  0.12557858976E+02 -0.11921747594E+02  0.47787268086E+02  0.19999986513E+02 0.  0.
         12    1    1    2    0    0 -0.39796930068E+02 -0.12557858976E+02  0.11921747594E+02  0.43400731914E+02  0.00000000000E+00 0. -1.
         11    1    3    3    0    0  0.28281016555E+02  0.14644798220E+02 -0.92747210144E+01  0.33170867678E+02  0.51100000000E-03 0.  1.
        -11    1    3    3    0    0  0.71084000239E+01 -0.10918136420E+01  0.26405475760E+01  0.76611944036E+01  0.51100000000E-03 0. -1.
        -12    1    3    3    0    0  0.44075134890E+01 -0.99512560231E+00 -0.52875741560E+01  0.69552060052E+01  0.00000000000E+00 0.  1.
</event>
<event>
 7    1  0.2733256E-010  0.4778725E+02  0.7816164E-02  0.1312668E+00
        -11   -1    0    0    0    0  0.00000000000E+00  0.00000000000E+00  0.45593999997E+02  0.45594000000E+02  0.51100000000E-03 0. -1.
         11   -1    0    0    0    0 -0.00000000000E+00 -0.00000000000E+00 -0.45593999997E+02  0.45594000000E+02  0.51100000000E-03 0.  1.
    9900012    2    1    2    0    0  0.29562081543E+01 -0.29254421023E+02 -0.31922788267E+02  0.47787254307E+02  0.19999923685E+02 0.  0.
         12    1    1    2    0    0 -0.29562081543E+01  0.29254421023E+02  0.31922788267E+02  0.43400745693E+02  0.00000000000E+00 0. -1.
         11    1    3    3    0    0  0.64812206444E+00 -0.62059389434E+01 -0.17206532229E+02  0.18302964022E+02  0.51100000000E-03 0. -1.
        -11    1    3    3    0    0  0.37229881375E+01 -0.12258131165E+02 -0.13372693470E+02  0.18518945738E+02  0.51100000000E-03 0.  1.
         12    1    3    3    0    0 -0.14149020477E+01 -0.10790350915E+02 -0.13435625676E+01  0.10965344547E+02  0.00000000000E+00 0. -1.
</event>
<event>
 7    1  0.2733256E-010  0.4778727E+02  0.7816164E-02  0.1312668E+00
        -11   -1    0    0    0    0  0.00000000000E+00  0.00000000000E+00  0.45593999997E+02  0.45594000000E+02  0.51100000000E-03 0.  1.
         11   -1    0    0    0    0 -0.00000000000E+00 -0.00000000000E+00 -0.45593999997E+02  0.45594000000E+02  0.51100000000E-03 0. -1.
    9900012    2    1    2    0    0 -0.91190954265E+01  0.40916345867E+02  0.11239130608E+02  0.47787270544E+02  0.19999997717E+02 0.  0.
         12    1    1    2    0    0  0.91190954265E+01 -0.40916345867E+02 -0.11239130608E+02  0.43400729456E+02  0.00000000000E+00 0. -1.
         11    1    3    3    0    0 -0.53258890961E+01  0.19800618272E+02  0.11043667973E+02  0.23289314743E+02  0.51100000000E-03 0. -1.
        -11    1    3    3    0    0 -0.50353688907E+01  0.18499227076E+02  0.41302281360E+01  0.19612116841E+02  0.51100000000E-03 0.  1.
         12    1    3    3    0    0  0.12421625603E+01  0.26165005192E+01 -0.39347655013E+01  0.48858389600E+01  0.00000000000E+00 0. -1.
</event>
<event>
 7    1  0.2733256E-010  0.4778727E+02  0.7816164E-02  0.1312668E+00
        -11   -1    0    0    0    0  0.00000000000E+00  0.00000000000E+00  0.45593999997E+02  0.45594000000E+02  0.51100000000E-03 0.  1.
         11   -1    0    0    0    0 -0.00000000000E+00 -0.00000000000E+00 -0.45593999997E+02  0.45594000000E+02  0.51100000000E-03 0. -1.
    9900012    2    1    2    0    0  0.10570766172E+02 -0.82784719208E+01  0.41271648448E+02  0.47787272351E+02  0.20000005959E+02 0.  0.
         12    1    1    2    0    0 -0.10570766172E+02  0.82784719208E+01 -0.41271648448E+02  0.43400727649E+02  0.00000000000E+00 0. -1.
         11    1    3    3    0    0  0.34394028583E+01 -0.63170868671E+01  0.97045042526E+01  0.12079423892E+02  0.51100000000E-03 0. -1.
        -11    1    3    3    0    0  0.88495909984E+01 -0.65848424667E+01  0.16446898983E+02  0.19803431460E+02  0.51100000000E-03 0.  1.
         12    1    3    3    0    0 -0.17182276847E+01  0.46234574131E+01  0.15120245212E+02  0.15904417000E+02  0.00000000000E+00 0. -1.
</event>
<event>
 7    1  0.2733256E-010  0.4778727E+02  0.7816164E-02  0.1312668E+00
        -11   -1    0    0    0    0  0.00000000000E+00  0.00000000000E+00  0.45593999997E+02  0.45594000000E+02  0.51100000000E-03 0.  1.
         11   -1    0    0    0    0 -0.00000000000E+00 -0.00000000000E+00 -0.45593999997E+02  0.45594000000E+02  0.51100000000E-03 0. -1.
    9900012    2    1    2    0    0 -0.52187956194E+01 -0.28757453522E+02  0.32084213680E+02  0.47787265810E+02  0.19999976134E+02 0.  0.
         12    1    1    2    0    0  0.52187956194E+01  0.28757453522E+02 -0.32084213680E+02  0.43400734190E+02  0.00000000000E+00 0. -1.
         11    1    3    3    0    0 -0.78535544555E+01 -0.20017099610E+02  0.20660371934E+02  0.29819684155E+02  0.51100000000E-03 0. -1.
        -11    1    3    3    0    0  0.10442961341E+01 -0.74161170162E+01  0.13241765570E+02  0.15212945201E+02  0.51100000000E-03 0.  1.
         12    1    3    3    0    0  0.15904627020E+01 -0.13242368962E+01 -0.18179238246E+01  0.27546364543E+01  0.00000000000E+00 0. -1.
</event>
<event>
 7    1  0.2733256E-010  0.4778726E+02  0.7816164E-02  0.1312668E+00
        -11   -1    0    0    0    0  0.00000000000E+00  0.00000000000E+00  0.45593999997E+02  0.45594000000E+02  0.51100000000E-03 0. -1.
         11   -1    0    0    0    0 -0.00000000000E+00 -0.00000000000E+00 -0.45593999997E+02  0.45594000000E+02  0.51100000000E-03 0.  1.
    9900012    2    1    2    0    0 -0.33530327774E+02  0.13593252889E+02 -0.23970073923E+02  0.47787264423E+02  0.19999969810E+02 0.  0.
         12    1    1    2    0    0  0.33530327774E+02 -0.13593252889E+02  0.23970073923E+02  0.43400735577E+02  0.00000000000E+00 0. -1.
         11    1    3    3    0    0 -0.89335336146E+01  0.87512575781E+01 -0.64909753072E+01  0.14089900381E+02  0.51100000000E-03 0. -1.
        -11    1    3    3    0    0 -0.46428686329E+01  0.52728314675E+01 -0.10338800491E+02  0.12499991067E+02  0.51100000000E-03 0.  1.
        -12    1    3    3    0    0 -0.19953925527E+02 -0.43083615619E+00 -0.71402981246E+01  0.21197372975E+02  0.00000000000E+00 0.  1.
</event>
<event>
 7    1  0.2733256E-010  0.4778727E+02  0.7816164E-02  0.1312668E+00
        -11   -1    0    0    0    0  0.00000000000E+00  0.00000000000E+00  0.45593999997E+02  0.45594000000E+02  0.51100000000E-03 0.  1.
         11   -1    0    0    0    0 -0.00000000000E+00 -0.00000000000E+00 -0.45593999997E+02  0.45594000000E+02  0.51100000000E-03 0. -1.
    9900012    2    1    2    0    0 -0.23290471652E+02  0.80003913919E+01  0.35737529934E+02  0.47787269845E+02  0.19999994532E+02 0.  0.
         12    1    1    2    0    0  0.23290471652E+02 -0.80003913919E+01 -0.35737529934E+02  0.43400730155E+02  0.00000000000E+00 0. -1.
         11    1    3    3    0    0 -0.78563947120E+01 -0.39117318350E+01  0.40791432850E+01  0.96780160167E+01  0.51100000000E-03 0. -1.
        -11    1    3    3    0    0 -0.53053334742E+01  0.63767724323E+00  0.44050781608E+01  0.69251649368E+01  0.51100000000E-03 0.  1.
        -12    1    3    3    0    0 -0.10128743465E+02  0.11274445984E+02  0.27253308488E+02  0.31184088892E+02  0.00000000000E+00 0.  1.
</event>
<event>
 7    1  0.2733256E-010  0.4778727E+02  0.7816164E-02  0.1312668E+00
        -11   -1    0    0    0    0  0.00000000000E+00  0.00000000000E+00  0.45593999997E+02  0.45594000000E+02  0.51100000000E-03 0. -1.
         11   -1    0    0    0    0 -0.00000000000E+00 -0.00000000000E+00 -0.45593999997E+02  0.45594000000E+02  0.51100000000E-03 0.  1.
    9900012    2    1    2    0    0 -0.21033782972E+02  0.37749350387E+02 -0.40236433460E+01  0.47787272051E+02  0.20000004589E+02 0.  0.
         12    1    1    2    0    0  0.21033782972E+02 -0.37749350387E+02  0.40236433460E+01  0.43400727949E+02  0.00000000000E+00 0. -1.
         11    1    3    3    0    0  0.19250122110E+01  0.66748584307E+01 -0.75217209962E+00  0.69875009990E+01  0.51100000000E-03 0. -1.
        -11    1    3    3    0    0  0.11433268199E+01  0.55134267260E+00 -0.13609886550E+01  0.18610387798E+01  0.51100000000E-03 0.  1.
        -12    1    3    3    0    0 -0.24102122003E+02  0.30523149284E+02 -0.19104825914E+01  0.38938732272E+02  0.00000000000E+00 0.  1.
</event>
<event>
 7    1  0.2733256E-010  0.4778727E+02  0.7816164E-02  0.1312668E+00
        -11   -1    0    0    0    0  0.00000000000E+00  0.00000000000E+00  0.45593999997E+02  0.45594000000E+02  0.51100000000E-03 0.  1.
         11   -1    0    0    0    0 -0.00000000000E+00 -0.00000000000E+00 -0.45593999997E+02  0.45594000000E+02  0.51100000000E-03 0. -1.
    9900012    2    1    2    0    0  0.32434695742E+02 -0.28559849720E+02  0.39936053435E+01  0.47787269735E+02  0.19999994029E+02 0.  0.
         12    1    1    2    0    0 -0.32434695742E+02  0.28559849720E+02 -0.39936053435E+01  0.43400730265E+02  0.00000000000E+00 0. -1.
         11    1    3    3    0    0  0.13816455412E+02 -0.11718260777E+02 -0.63831729673E+01  0.19208252736E+02  0.51100000000E-03 0. -1.
        -11    1    3    3    0    0  0.53990799059E+01 -0.16123874315E+01 -0.51726527427E+00  0.56583938255E+01  0.51100000000E-03 0.  1.
        -12    1    3    3    0    0  0.13219160424E+02 -0.15229201512E+02  0.10894043585E+02  0.22920623173E+02  0.00000000000E+00 0.  1.
</event>
<event>
 7    1  0.2733256E-010  0.4778727E+02  0.7816164E-02  0.1312668E+00
        -11   -1    0    0    0    0  0.00000000000E+00  0.00000000000E+00  0.45593999997E+02  0.45594000000E+02  0.51100000000E-03 0.  1.
         11   -1    0    0    0    0 -0.00000000000E+00 -0.00000000000E+00 -0.45593999997E+02  0.45594000000E+02  0.51100000000E-03 0. -1.
    9900012    2    1    2    0    0  0.33072305406E+02 -0.20545799415E+01  0.28028996618E+02  0.47787270341E+02  0.19999996791E+02 0.  0.
         12    1    1    2    0    0 -0.33072305406E+02  0.20545799415E+01 -0.28028996618E+02  0.43400729659E+02  0.00000000000E+00 0. -1.
         11    1    3    3    0    0  0.79609668797E+01 -0.10140617962E+01  0.14117131497E+02  0.16238802817E+02  0.51100000000E-03 0. -1.
        -11    1    3    3    0    0  0.10486239290E+02  0.30135075865E+01  0.12054021441E+02  0.16258593899E+02  0.51100000000E-03 0.  1.
        -12    1    3    3    0    0  0.14625099236E+02 -0.40540257319E+01  0.18578436799E+01  0.15289873624E+02  0.00000000000E+00 0.  1.
</event>
<event>
 7    1  0.2733256E-010  0.4778729E+02  0.7816164E-02  0.1312668E+00
        -11   -1    0    0    0    0  0.00000000000E+00  0.00000000000E+00  0.45593999997E+02  0.45594000000E+02  0.51100000000E-03 0. -1.
         11   -1    0    0    0    0 -0.00000000000E+00 -0.00000000000E+00 -0.45593999997E+02  0.45594000000E+02  0.51100000000E-03 0.  1.
    9900012    2    1    2    0    0 -0.25549631419E+02 -0.34594977146E+02  0.58331441630E+01  0.47787289404E+02  0.20000083710E+02 0.  0.
         12    1    1    2    0    0  0.25549631419E+02  0.34594977146E+02 -0.58331441630E+01  0.43400710596E+02  0.00000000000E+00 0. -1.
         11    1    3    3    0    0 -0.86677389026E+01 -0.13965659365E+02 -0.41148089157E+01  0.16944054764E+02  0.51100000000E-03 0. -1.
        -11    1    3    3    0    0 -0.12010294833E+02 -0.19162233241E+02  0.39149858031E+01  0.22951372047E+02  0.51100000000E-03 0.  1.
         12    1    3    3    0    0 -0.48715976838E+01 -0.14670845405E+01  0.60329672756E+01  0.78918625932E+01  0.00000000000E+00 0. -1.
</event>
<event>
 7    1  0.2733256E-010  0.4778727E+02  0.7816164E-02  0.1312668E+00
        -11   -1    0    0    0    0  0.00000000000E+00  0.00000000000E+00  0.45593999997E+02  0.45594000000E+02  0.51100000000E-03 0.  1.
         11   -1    0    0    0    0 -0.00000000000E+00 -0.00000000000E+00 -0.45593999997E+02  0.45594000000E+02  0.51100000000E-03 0. -1.
    9900012    2    1    2    0    0  0.31919235863E+02  0.20270297865E+02  0.21304946085E+02  0.47787270499E+02  0.19999997511E+02 0.  0.
         12    1    1    2    0    0 -0.31919235863E+02 -0.20270297865E+02 -0.21304946085E+02  0.43400729501E+02  0.00000000000E+00 0. -1.
         11    1    3    3    0    0  0.70720962809E+01  0.60268839083E+01 -0.18682816682E+00  0.92936957383E+01  0.51100000000E-03 0. -1.
        -11    1    3    3    0    0  0.23587518113E+02  0.11196885099E+02  0.12562392381E+02  0.28975074620E+02  0.51100000000E-03 0.  1.
         12    1    3    3    0    0  0.12596214687E+01  0.30465288577E+01  0.89293818705E+01  0.95185001400E+01  0.00000000000E+00 0. -1.
</event>
<event>
 7    1  0.2733256E-010  0.4778727E+02  0.7816164E-02  0.1312668E+00
        -11   -1    0    0    0    0  0.00000000000E+00  0.00000000000E+00  0.45593999997E+02  0.45594000000E+02  0.51100000000E-03 0.  1.
         11   -1    0    0    0    0 -0.00000000000E+00 -0.00000000000E+00 -0.45593999997E+02  0.45594000000E+02  0.51100000000E-03 0. -1.
    9900012    2    1    2    0    0  0.27774129598E+02  0.10009102569E+02  0.31812557191E+02  0.47787271847E+02  0.20000003660E+02 0.  0.
         12    1    1    2    0    0 -0.27774129598E+02 -0.10009102569E+02 -0.31812557191E+02  0.43400728153E+02  0.00000000000E+00 0. -1.
         11    1    3    3    0    0  0.40951117955E+01  0.25780823782E+01 -0.20423976912E+00  0.48433628308E+01  0.51100000000E-03 0. -1.
        -11    1    3    3    0    0  0.45866729714E+01  0.14420803367E+01 -0.42584385878E+00  0.48268527942E+01  0.51100000000E-03 0.  1.
        -12    1    3    3    0    0  0.19092344831E+02  0.59889398538E+01  0.32442640819E+02  0.38117056222E+02  0.00000000000E+00 0.  1.
</event>
<event>
 7    1  0.2733256E-010  0.4778727E+02  0.7816164E-02  0.1312668E+00
        -11   -1    0    0    0    0  0.00000000000E+00  0.00000000000E+00  0.45593999997E+02  0.45594000000E+02  0.51100000000E-03 0.  1.
         11   -1    0    0    0    0 -0.00000000000E+00 -0.00000000000E+00 -0.45593999997E+02  0.45594000000E+02  0.51100000000E-03 0. -1.
    9900012    2    1    2    0    0 -0.18405142465E+02 -0.10397087644E+02  0.37904808801E+02  0.47787271540E+02  0.20000002261E+02 0.  0.
         12    1    1    2    0    0  0.18405142465E+02  0.10397087644E+02 -0.37904808801E+02  0.43400728460E+02  0.00000000000E+00 0. -1.
         11    1    3    3    0    0 -0.36473798995E+00 -0.65148326321E+01  0.18698093274E+01  0.67876553542E+01  0.51100000000E-03 0.  1.
        -11    1    3    3    0    0 -0.91282702914E+01 -0.35266800064E+00  0.11693536333E+02  0.14838749457E+02  0.51100000000E-03 0. -1.
        -12    1    3    3    0    0 -0.89121341832E+01 -0.35295870110E+01  0.24341463141E+02  0.26160866729E+02  0.00000000000E+00 0.  1.
</event>
<event>
 7    1  0.2733256E-010  0.4778727E+02  0.7816164E-02  0.1312668E+00
        -11   -1    0    0    0    0  0.00000000000E+00  0.00000000000E+00  0.45593999997E+02  0.45594000000E+02  0.51100000000E-03 0. -1.
         11   -1    0    0    0    0 -0.00000000000E+00 -0.00000000000E+00 -0.45593999997E+02  0.45594000000E+02  0.51100000000E-03 0.  1.
    9900012    2    1    2    0    0 -0.18178383809E+02 -0.34648872819E+02  0.18778320506E+02  0.47787270207E+02  0.19999996180E+02 0.  0.
         12    1    1    2    0    0  0.18178383809E+02  0.34648872819E+02 -0.18778320506E+02  0.43400729793E+02  0.00000000000E+00 0. -1.
         11    1    3    3    0    0 -0.70126123268E+01 -0.13091976837E+02  0.30820420637E+01  0.15168242241E+02  0.51100000000E-03 0.  1.
        -11    1    3    3    0    0 -0.11055545258E+02 -0.23837687194E+02  0.13992261859E+02  0.29769847226E+02  0.51100000000E-03 0. -1.
         12    1    3    3    0    0 -0.11022622461E+00  0.22807912110E+01  0.17040165835E+01  0.28491807394E+01  0.00000000000E+00 0. -1.
</event>
<event>
 7    1  0.2733256E-010  0.4778727E+02  0.7816164E-02  0.1312668E+00
        -11   -1    0    0    0    0  0.00000000000E+00  0.00000000000E+00  0.45593999997E+02  0.45594000000E+02  0.51100000000E-03 0.  1.
         11   -1    0    0    0    0 -0.00000000000E+00 -0.00000000000E+00 -0.45593999997E+02  0.45594000000E+02  0.51100000000E-03 0. -1.
    9900012    2    1    2    0    0  0.33115050332E+01  0.31510481651E+02  0.29660524452E+02  0.47787271547E+02  0.20000002293E+02 0.  0.
         12    1    1    2    0    0 -0.33115050332E+01 -0.31510481651E+02 -0.29660524452E+02  0.43400728453E+02  0.00000000000E+00 0. -1.
         11    1    3    3    0    0  0.27770562684E+01  0.17668569363E+01 -0.68729844900E+00  0.33624699806E+01  0.51100000000E-03 0. -1.
        -11    1    3    3    0    0  0.90884038071E+00  0.13814206455E+01 -0.11678659523E+01  0.20244073160E+01  0.51100000000E-03 0.  1.
        -12    1    3    3    0    0 -0.37439161595E+00  0.28362204069E+02  0.31515688853E+02  0.42400394251E+02  0.00000000000E+00 0.  1.
</event>
<event>
 7    1  0.2733256E-010  0.4778728E+02  0.7816164E-02  0.1312668E+00
        -11   -1    0    0    0    0  0.00000000000E+00  0.00000000000E+00  0.45593999997E+02  0.45594000000E+02  0.51100000000E-03 0. -1.
         11   -1    0    0    0    0 -0.00000000000E+00 -0.00000000000E+00 -0.45593999997E+02  0.45594000000E+02  0.51100000000E-03 0.  1.
    9900012    2    1    2    0    0  0.28018365987E+02  0.21440902853E+02 -0.25276106698E+02  0.47787277454E+02  0.20000029223E+02 0.  0.
         12    1    1    2    0    0 -0.28018365987E+02 -0.21440902853E+02  0.25276106698E+02  0.43400722546E+02  0.00000000000E+00 0. -1.
         11    1    3    3    0    0  0.69783633422E+00  0.20100515272E+01 -0.23883209329E+01  0.31986496887E+01  0.51100000000E-03 0. -1.
        -11    1    3    3    0    0  0.12598893478E+01  0.54371386427E+00 -0.97161809557E+01  0.98125999898E+01  0.51100000000E-03 0.  1.
        -12    1    3    3    0    0  0.26060640305E+02  0.18887137461E+02 -0.13171604809E+02  0.34776027775E+02  0.00000000000E+00 0.  1.
</event>
<event>
 7    1  0.2733256E-010  0.4778728E+02  0.7816164E-02  0.1312668E+00
        -11   -1    0    0    0    0  0.00000000000E+00  0.00000000000E+00  0.45593999997E+02  0.45594000000E+02  0.51100000000E-03 0. -1.
         11   -1    0    0    0    0 -0.00000000000E+00 -0.00000000000E+00 -0.45593999997E+02  0.45594000000E+02  0.51100000000E-03 0.  1.
    9900012    2    1    2    0    0 -0.29230571370E+02 -0.25218476608E+02 -0.19829896590E+02  0.47787278073E+02  0.20000032047E+02 0.  0.
         12    1    1    2    0    0  0.29230571370E+02  0.25218476608E+02  0.19829896590E+02  0.43400721927E+02  0.00000000000E+00 0. -1.
         11    1    3    3    0    0 -0.13404085966E+02 -0.96289504408E+01 -0.95606993879E+01  0.19073363108E+02  0.51100000000E-03 0. -1.
        -11    1    3    3    0    0 -0.17293983202E+02 -0.87131792895E+01 -0.97032715411E+01  0.21659982160E+02  0.51100000000E-03 0.  1.
         12    1    3    3    0    0  0.14674977991E+01 -0.68763468772E+01 -0.56592566092E+00  0.70539328052E+01  0.00000000000E+00 0. -1.
</event>
<event>
 7    1  0.2733256E-010  0.4778727E+02  0.7816164E-02  0.1312668E+00
        -11   -1    0    0    0    0  0.00000000000E+00  0.00000000000E+00  0.45593999997E+02  0.45594000000E+02  0.51100000000E-03 0. -1.
         11   -1    0    0    0    0 -0.00000000000E+00 -0.00000000000E+00 -0.45593999997E+02  0.45594000000E+02  0.51100000000E-03 0.  1.
    9900012    2    1    2    0    0 -0.20582671103E+02 -0.31475463896E+02 -0.21662690361E+02  0.47787270388E+02  0.19999997005E+02 0.  0.
         12    1    1    2    0    0  0.20582671103E+02  0.31475463896E+02  0.21662690361E+02  0.43400729612E+02  0.00000000000E+00 0. -1.
         11    1    3    3    0    0 -0.12882655625E+01 -0.11745148681E+02 -0.54211419219E+01  0.12999881757E+02  0.51100000000E-03 0. -1.
        -11    1    3    3    0    0 -0.12786081358E+02 -0.17290515631E+02 -0.17498039109E+02  0.27724126320E+02  0.51100000000E-03 0.  1.
        -12    1    3    3    0    0 -0.65083241823E+01 -0.24397995841E+01  0.12564906694E+01  0.70632623110E+01  0.00000000000E+00 0.  1.
</event>
<event>
 7    1  0.2733256E-010  0.4778727E+02  0.7816164E-02  0.1312668E+00
        -11   -1    0    0    0    0  0.00000000000E+00  0.00000000000E+00  0.45593999997E+02  0.45594000000E+02  0.51100000000E-03 0. -1.
         11   -1    0    0    0    0 -0.00000000000E+00 -0.00000000000E+00 -0.45593999997E+02  0.45594000000E+02  0.51100000000E-03 0.  1.
    9900012    2    1    2    0    0 -0.43291226706E+02 -0.28773823704E+01 -0.11016743276E+01  0.47787270451E+02  0.19999997296E+02 0.  0.
         12    1    1    2    0    0  0.43291226706E+02  0.28773823704E+01  0.11016743276E+01  0.43400729549E+02  0.00000000000E+00 0. -1.
         11    1    3    3    0    0 -0.77865213438E+01 -0.15652971415E+01 -0.30763274818E+01  0.85172683892E+01  0.51100000000E-03 0. -1.
        -11    1    3    3    0    0 -0.24728075117E+02 -0.27378724199E+01 -0.62339810576E+01  0.25648316991E+02  0.51100000000E-03 0.  1.
         12    1    3    3    0    0 -0.10776630245E+02  0.14257871911E+01  0.82086342118E+01  0.13621685071E+02  0.00000000000E+00 0. -1.
</event>
<event>
 7    1  0.2733256E-010  0.4778727E+02  0.7816164E-02  0.1312668E+00
        -11   -1    0    0    0    0  0.00000000000E+00  0.00000000000E+00  0.45593999997E+02  0.45594000000E+02  0.51100000000E-03 0.  1.
         11   -1    0    0    0    0 -0.00000000000E+00 -0.00000000000E+00 -0.45593999997E+02  0.45594000000E+02  0.51100000000E-03 0. -1.
    9900012    2    1    2    0    0 -0.87627365450E+01  0.92748558310E+01  0.41482710327E+02  0.47787265461E+02  0.19999974541E+02 0.  0.
         12    1    1    2    0    0  0.87627365450E+01 -0.92748558310E+01 -0.41482710327E+02  0.43400734539E+02  0.00000000000E+00 0. -1.
         11    1    3    3    0    0 -0.52806838853E+01 -0.13140923005E+01  0.11748159252E+02  0.12947266389E+02  0.51100000000E-03 0.  1.
        -11    1    3    3    0    0  0.41559849052E+01 -0.82144189939E+00  0.93162921877E+01  0.10234269769E+02  0.51100000000E-03 0. -1.
        -12    1    3    3    0    0 -0.76380375649E+01  0.11410390031E+02  0.20418258888E+02  0.24605729302E+02  0.00000000000E+00 0.  1.
</event>
<event>
 7    1  0.2733256E-010  0.4778727E+02  0.7816164E-02  0.1312668E+00
        -11   -1    0    0    0    0  0.00000000000E+00  0.00000000000E+00  0.45593999997E+02  0.45594000000E+02  0.51100000000E-03 0. -1.
         11   -1    0    0    0    0 -0.00000000000E+00 -0.00000000000E+00 -0.45593999997E+02  0.45594000000E+02  0.51100000000E-03 0.  1.
    9900012    2    1    2    0    0 -0.18721973718E+02  0.28453458801E+02 -0.26898174987E+02  0.47787269185E+02  0.19999991523E+02 0.  0.
         12    1    1    2    0    0  0.18721973718E+02 -0.28453458801E+02  0.26898174987E+02  0.43400730815E+02  0.00000000000E+00 0. -1.
         11    1    3    3    0    0 -0.21190432699E+01  0.44480403529E+01 -0.23890629994E+00  0.49327967566E+01  0.51100000000E-03 0. -1.
        -11    1    3    3    0    0 -0.11205769598E+02  0.36792104041E+01 -0.14007468778E+02  0.18311609523E+02  0.51100000000E-03 0.  1.
        -12    1    3    3    0    0 -0.53971608493E+01  0.20326208044E+02 -0.12651799909E+02  0.24542862906E+02  0.00000000000E+00 0.  1.
</event>
<event>
 7    1  0.2733256E-010  0.4778727E+02  0.7816164E-02  0.1312668E+00
        -11   -1    0    0    0    0  0.00000000000E+00  0.00000000000E+00  0.45593999997E+02  0.45594000000E+02  0.51100000000E-03 0.  1.
         11   -1    0    0    0    0 -0.00000000000E+00 -0.00000000000E+00 -0.45593999997E+02  0.45594000000E+02  0.51100000000E-03 0. -1.
    9900012    2    1    2    0    0 -0.40652949859E+02 -0.25715459644E+00  0.15195220241E+02  0.47787272138E+02  0.20000004988E+02 0.  0.
         12    1    1    2    0    0  0.40652949859E+02  0.25715459644E+00 -0.15195220241E+02  0.43400727862E+02  0.00000000000E+00 0. -1.
         11    1    3    3    0    0 -0.17875579592E+01  0.13413912970E+01  0.37790582751E+00  0.22666069674E+01  0.51100000000E-03 0. -1.
        -11    1    3    3    0    0 -0.21200893501E+02 -0.73063027275E+01  0.11235377060E+01  0.22452667592E+02  0.51100000000E-03 0.  1.
         12    1    3    3    0    0 -0.17664498399E+02  0.57077568341E+01  0.13693776707E+02  0.23067997579E+02  0.00000000000E+00 0. -1.
</event>
<event>
 7    1  0.2733256E-010  0.4778728E+02  0.7816164E-02  0.1312668E+00
        -11   -1    0    0    0    0  0.00000000000E+00  0.00000000000E+00  0.45593999997E+02  0.45594000000E+02  0.51100000000E-03 0.  1.
         11   -1    0    0    0    0 -0.00000000000E+00 -0.00000000000E+00 -0.45593999997E+02  0.45594000000E+02  0.51100000000E-03 0. -1.
    9900012    2    1    2    0    0  0.19049954457E+02  0.77746458632E+01  0.38213570058E+02  0.47787276277E+02  0.20000023857E+02 0.  0.
         12    1    1    2    0    0 -0.19049954457E+02 -0.77746458632E+01 -0.38213570058E+02  0.43400723723E+02  0.00000000000E+00 0. -1.
         11    1    3    3    0    0  0.29372850464E+01 -0.60984357712E+01  0.85387703318E+01  0.10896291174E+02  0.51100000000E-03 0. -1.
        -11    1    3    3    0    0  0.29806915202E+01  0.47227938706E+00  0.56751922601E+01  0.64277038830E+01  0.51100000000E-03 0.  1.
         12    1    3    3    0    0  0.13131977890E+02  0.13400802247E+02  0.23999607466E+02  0.30463281220E+02  0.00000000000E+00 0. -1.
</event>
<event>
 7    1  0.2733256E-010  0.4778727E+02  0.7816164E-02  0.1312668E+00
        -11   -1    0    0    0    0  0.00000000000E+00  0.00000000000E+00  0.45593999997E+02  0.45594000000E+02  0.51100000000E-03 0.  1.
         11   -1    0    0    0    0 -0.00000000000E+00 -0.00000000000E+00 -0.45593999997E+02  0.45594000000E+02  0.51100000000E-03 0. -1.
    9900012    2    1    2    0    0 -0.12986600344E+02 -0.29615097018E+02  0.28946804348E+02  0.47787271413E+02  0.20000001682E+02 0.  0.
         12    1    1    2    0    0  0.12986600344E+02  0.29615097018E+02 -0.28946804348E+02  0.43400728587E+02  0.00000000000E+00 0. -1.
         11    1    3    3    0    0 -0.21592486391E+00 -0.46854438644E+01 -0.48250220442E+00  0.47151687554E+01  0.51100000000E-03 0. -1.
        -11    1    3    3    0    0  0.22476618049E+00 -0.15199687738E+02  0.13575306574E+02  0.20380627469E+02  0.51100000000E-03 0.  1.
        -12    1    3    3    0    0 -0.12995441661E+02 -0.97299654152E+01  0.15853999979E+02  0.22691475189E+02  0.00000000000E+00 0.  1.
</event>
<event>
 7    1  0.2733256E-010  0.4778727E+02  0.7816164E-02  0.1312668E+00
        -11   -1    0    0    0    0  0.00000000000E+00  0.00000000000E+00  0.45593999997E+02  0.45594000000E+02  0.51100000000E-03 0. -1.
         11   -1    0    0    0    0 -0.00000000000E+00 -0.00000000000E+00 -0.45593999997E+02  0.45594000000E+02  0.51100000000E-03 0.  1.
    9900012    2    1    2    0    0  0.16765353870E+02  0.39343072561E+02  0.73938170063E+01  0.47787274443E+02  0.20000015497E+02 0.  0.
         12    1    1    2    0    0 -0.16765353870E+02 -0.39343072561E+02 -0.73938170063E+01  0.43400725557E+02  0.00000000000E+00 0. -1.
         11    1    3    3    0    0 -0.44749913901E+00  0.11011862759E+02  0.63204890687E+01  0.12704721927E+02  0.51100000000E-03 0. -1.
        -11    1    3    3    0    0  0.63088581596E+01  0.18632313319E+02  0.43019526790E+01  0.20136325087E+02  0.51100000000E-03 0.  1.
        -12    1    3    3    0    0  0.10903994849E+02  0.96988964820E+01 -0.32286247413E+01  0.14946227429E+02  0.00000000000E+00 0.  1.
</event>
<event>
 7    1  0.2733256E-010  0.4778727E+02  0.7816164E-02  0.1312668E+00
        -11   -1    0    0    0    0  0.00000000000E+00  0.00000000000E+00  0.45593999997E+02  0.45594000000E+02  0.51100000000E-03 0.  1.
         11   -1    0    0    0    0 -0.00000000000E+00 -0.00000000000E+00 -0.45593999997E+02  0.45594000000E+02  0.51100000000E-03 0. -1.
    9900012    2    1    2    0    0  0.17528834828E+02  0.30244869113E+00  0.39702291229E+02  0.47787268964E+02  0.19999990515E+02 0.  0.
         12    1    1    2    0    0 -0.17528834828E+02 -0.30244869113E+00 -0.39702291229E+02  0.43400731036E+02  0.00000000000E+00 0. -1.
         11    1    3    3    0    0 -0.22362900304E+01 -0.18569262644E+01  0.38682252280E+01  0.48386294472E+01  0.51100000000E-03 0. -1.
        -11    1    3    3    0    0  0.97829360165E+01 -0.53196935723E+01  0.15307312143E+02  0.18929310133E+02  0.51100000000E-03 0.  1.
        -12    1    3    3    0    0  0.99821888419E+01  0.74790685278E+01  0.20526753858E+02  0.24019329384E+02  0.00000000000E+00 0.  1.
</event>
<event>
 7    1  0.2733256E-010  0.4778728E+02  0.7816164E-02  0.1312668E+00
        -11   -1    0    0    0    0  0.00000000000E+00  0.00000000000E+00  0.45593999997E+02  0.45594000000E+02  0.51100000000E-03 0. -1.
         11   -1    0    0    0    0 -0.00000000000E+00 -0.00000000000E+00 -0.45593999997E+02  0.45594000000E+02  0.51100000000E-03 0.  1.
    9900012    2    1    2    0    0 -0.38263904434E+02 -0.20275692852E+02 -0.28970101462E+01  0.47787276838E+02  0.20000026416E+02 0.  0.
         12    1    1    2    0    0  0.38263904434E+02  0.20275692852E+02  0.28970101462E+01  0.43400723162E+02  0.00000000000E+00 0. -1.
         11    1    3    3    0    0 -0.33980981807E+01  0.93053142632E+00 -0.90921046148E+00  0.36386293993E+01  0.51100000000E-03 0. -1.
        -11    1    3    3    0    0 -0.24313081660E+02 -0.19010521088E+02 -0.78957224363E+01  0.31856997424E+02  0.51100000000E-03 0.  1.
        -12    1    3    3    0    0 -0.10552724593E+02 -0.21957031907E+01  0.59079227515E+01  0.12291650015E+02  0.00000000000E+00 0.  1.
</event>
<event>
 7    1  0.2733256E-010  0.4778727E+02  0.7816164E-02  0.1312668E+00
        -11   -1    0    0    0    0  0.00000000000E+00  0.00000000000E+00  0.45593999997E+02  0.45594000000E+02  0.51100000000E-03 0.  1.
         11   -1    0    0    0    0 -0.00000000000E+00 -0.00000000000E+00 -0.45593999997E+02  0.45594000000E+02  0.51100000000E-03 0. -1.
    9900012    2    1    2    0    0 -0.47715006655E+01  0.33840139534E+02  0.26752592490E+02  0.47787268817E+02  0.19999989843E+02 0.  0.
         12    1    1    2    0    0  0.47715006655E+01 -0.33840139534E+02 -0.26752592490E+02  0.43400731183E+02  0.00000000000E+00 0. -1.
         11    1    3    3    0    0  0.55241996682E+01  0.16293078513E+02  0.87435359242E+01  0.19298461341E+02  0.51100000000E-03 0. -1.
        -11    1    3    3    0    0  0.15276329217E+01  0.21185387893E+01  0.25858238362E+01  0.36753712899E+01  0.51100000000E-03 0.  1.
        -12    1    3    3    0    0 -0.11823333255E+02  0.15428522232E+02  0.15423232730E+02  0.24813436186E+02  0.00000000000E+00 0.  1.
</event>
<event>
 7    1  0.2733256E-010  0.4778727E+02  0.7816164E-02  0.1312668E+00
        -11   -1    0    0    0    0  0.00000000000E+00  0.00000000000E+00  0.45593999997E+02  0.45594000000E+02  0.51100000000E-03 0. -1.
         11   -1    0    0    0    0 -0.00000000000E+00 -0.00000000000E+00 -0.45593999997E+02  0.45594000000E+02  0.51100000000E-03 0.  1.
    9900012    2    1    2    0    0  0.34353239664E+02 -0.22454939466E+02  0.14115746401E+02  0.47787266385E+02  0.19999978755E+02 0.  0.
         12    1    1    2    0    0 -0.34353239664E+02  0.22454939466E+02 -0.14115746401E+02  0.43400733615E+02  0.00000000000E+00 0. -1.
         11    1    3    3    0    0  0.14491603787E+02 -0.16970930897E+02  0.14984714564E+02  0.26880490074E+02  0.51100000000E-03 0. -1.
        -11    1    3    3    0    0  0.36143555851E+01 -0.24340146365E+01 -0.15384659059E+00  0.43602365281E+01  0.51100000000E-03 0.  1.
         12    1    3    3    0    0  0.16247280293E+02 -0.30499939330E+01 -0.71512157276E+00  0.16546539782E+02  0.00000000000E+00 0. -1.
</event>
<event>
 7    1  0.2733256E-010  0.4778727E+02  0.7816164E-02  0.1312668E+00
        -11   -1    0    0    0    0  0.00000000000E+00  0.00000000000E+00  0.45593999997E+02  0.45594000000E+02  0.51100000000E-03 0.  1.
         11   -1    0    0    0    0 -0.00000000000E+00 -0.00000000000E+00 -0.45593999997E+02  0.45594000000E+02  0.51100000000E-03 0. -1.
    9900012    2    1    2    0    0  0.18431383982E+02 -0.27557616726E+02  0.28008662373E+02  0.47787270478E+02  0.19999997416E+02 0.  0.
         12    1    1    2    0    0 -0.18431383982E+02  0.27557616726E+02 -0.28008662373E+02  0.43400729522E+02  0.00000000000E+00 0. -1.
         11    1    3    3    0    0  0.37945003471E+01 -0.10124017867E+02  0.17442810235E+02  0.20521832272E+02  0.51100000000E-03 0. -1.
        -11    1    3    3    0    0  0.48187851953E+01 -0.10774985244E+02  0.98626144852E+01  0.15381552669E+02  0.51100000000E-03 0.  1.
         12    1    3    3    0    0  0.98180984398E+01 -0.66586136156E+01  0.70323765321E+00  0.11883885537E+02  0.00000000000E+00 0. -1.
</event>
<event>
 7    1  0.2733256E-010  0.4778731E+02  0.7816164E-02  0.1312668E+00
        -11   -1    0    0    0    0  0.00000000000E+00  0.00000000000E+00  0.45593999997E+02  0.45594000000E+02  0.51100000000E-03 0. -1.
         11   -1    0    0    0    0 -0.00000000000E+00 -0.00000000000E+00 -0.45593999997E+02  0.45594000000E+02  0.51100000000E-03 0.  1.
    9900012    2    1    2    0    0  0.14020176079E+02 -0.69572134679E+01 -0.40480261780E+02  0.47787311638E+02  0.20000185081E+02 0.  0.
         12    1    1    2    0    0 -0.14020176079E+02  0.69572134679E+01  0.40480261780E+02  0.43400688362E+02  0.00000000000E+00 0. -1.
         11    1    3    3    0    0 -0.12407937713E+01 -0.57031248882E+01 -0.13505496385E+02  0.14712703203E+02  0.51100000000E-03 0. -1.
        -11    1    3    3    0    0  0.91858472494E+01 -0.28784842293E+01 -0.24488195119E+02  0.26312300576E+02  0.51100000000E-03 0.  1.
        -12    1    3    3    0    0  0.60751226008E+01  0.16243956496E+01 -0.24865702758E+01  0.67623078588E+01  0.00000000000E+00 0.  1.
</event>
<event>
 7    1  0.2733256E-010  0.4778727E+02  0.7816164E-02  0.1312668E+00
        -11   -1    0    0    0    0  0.00000000000E+00  0.00000000000E+00  0.45593999997E+02  0.45594000000E+02  0.51100000000E-03 0.  1.
         11   -1    0    0    0    0 -0.00000000000E+00 -0.00000000000E+00 -0.45593999997E+02  0.45594000000E+02  0.51100000000E-03 0. -1.
    9900012    2    1    2    0    0 -0.25156663858E+02  0.14154831469E+02  0.32409974045E+02  0.47787269500E+02  0.19999992957E+02 0.  0.
         12    1    1    2    0    0  0.25156663858E+02 -0.14154831469E+02 -0.32409974045E+02  0.43400730500E+02  0.00000000000E+00 0. -1.
         11    1    3    3    0    0 -0.12546805622E+02  0.61589370577E+01  0.45342376615E+01  0.14694017436E+02  0.51100000000E-03 0. -1.
        -11    1    3    3    0    0 -0.11611933090E+02  0.71602443411E+01  0.15496453620E+02  0.20645729926E+02  0.51100000000E-03 0.  1.
         12    1    3    3    0    0 -0.99792514667E+00  0.83565006990E+00  0.12379282763E+02  0.12447522138E+02  0.00000000000E+00 0. -1.
</event>
<event>
 7    1  0.2733256E-010  0.4778727E+02  0.7816164E-02  0.1312668E+00
        -11   -1    0    0    0    0  0.00000000000E+00  0.00000000000E+00  0.45593999997E+02  0.45594000000E+02  0.51100000000E-03 0. -1.
         11   -1    0    0    0    0 -0.00000000000E+00 -0.00000000000E+00 -0.45593999997E+02  0.45594000000E+02  0.51100000000E-03 0.  1.
    9900012    2    1    2    0    0 -0.11531628263E+02 -0.30432271988E+02 -0.28714491803E+02  0.47787266501E+02  0.19999979285E+02 0.  0.
         12    1    1    2    0    0  0.11531628263E+02  0.30432271988E+02  0.28714491803E+02  0.43400733499E+02  0.00000000000E+00 0. -1.
         11    1    3    3    0    0 -0.41064495458E+01  0.74242297121E-01  0.64686731939E+00  0.41577490762E+01  0.51100000000E-03 0. -1.
        -11    1    3    3    0    0 -0.31892922668E+01 -0.11365267047E+02 -0.63651143831E+01  0.13411023883E+02  0.51100000000E-03 0.  1.
         12    1    3    3    0    0 -0.42358864506E+01 -0.19141247238E+02 -0.22996244739E+02  0.30218493542E+02  0.00000000000E+00 0. -1.
</event>
<event>
 7    1  0.2733256E-010  0.4778727E+02  0.7816164E-02  0.1312668E+00
        -11   -1    0    0    0    0  0.00000000000E+00  0.00000000000E+00  0.45593999997E+02  0.45594000000E+02  0.51100000000E-03 0. -1.
         11   -1    0    0    0    0 -0.00000000000E+00 -0.00000000000E+00 -0.45593999997E+02  0.45594000000E+02  0.51100000000E-03 0.  1.
    9900012    2    1    2    0    0 -0.67269549380E+01 -0.42364386175E+02 -0.66053057669E+01  0.47787271861E+02  0.20000003722E+02 0.  0.
         12    1    1    2    0    0  0.67269549380E+01  0.42364386175E+02  0.66053057669E+01  0.43400728139E+02  0.00000000000E+00 0. -1.
         11    1    3    3    0    0 -0.43080868024E+01 -0.45485158662E+01 -0.14426310314E+01  0.64288251677E+01  0.51100000000E-03 0. -1.
        -11    1    3    3    0    0 -0.76041686644E+01 -0.91626024583E+01 -0.18982123673E+01  0.12057357726E+02  0.51100000000E-03 0.  1.
        -12    1    3    3    0    0  0.51853005289E+01 -0.28653267851E+02 -0.32644623682E+01  0.29301088967E+02  0.00000000000E+00 0.  1.
</event>
<event>
 7    1  0.2733256E-010  0.4778727E+02  0.7816164E-02  0.1312668E+00
        -11   -1    0    0    0    0  0.00000000000E+00  0.00000000000E+00  0.45593999997E+02  0.45594000000E+02  0.51100000000E-03 0.  1.
         11   -1    0    0    0    0 -0.00000000000E+00 -0.00000000000E+00 -0.45593999997E+02  0.45594000000E+02  0.51100000000E-03 0. -1.
    9900012    2    1    2    0    0  0.35800093840E+02 -0.19993196032E+02  0.14221420801E+02  0.47787269406E+02  0.19999992528E+02 0.  0.
         12    1    1    2    0    0 -0.35800093840E+02  0.19993196032E+02 -0.14221420801E+02  0.43400730594E+02  0.00000000000E+00 0. -1.
         11    1    3    3    0    0  0.15408413262E+02 -0.55007787141E+01  0.41304684947E+01  0.16874197342E+02  0.51100000000E-03 0.  1.
        -11    1    3    3    0    0  0.12725353530E+02 -0.58854568515E+01  0.12897191928E+02  0.19050217445E+02  0.51100000000E-03 0. -1.
         12    1    3    3    0    0  0.76663270488E+01 -0.86069604661E+01 -0.28062396214E+01  0.11862854618E+02  0.00000000000E+00 0. -1.
</event>
<event>
 7    1  0.2733256E-010  0.4778727E+02  0.7816164E-02  0.1312668E+00
        -11   -1    0    0    0    0  0.00000000000E+00  0.00000000000E+00  0.45593999997E+02  0.45594000000E+02  0.51100000000E-03 0.  1.
         11   -1    0    0    0    0 -0.00000000000E+00 -0.00000000000E+00 -0.45593999997E+02  0.45594000000E+02  0.51100000000E-03 0. -1.
    9900012    2    1    2    0    0 -0.42261813431E+02  0.65845371904E+00  0.98553904317E+01  0.47787272399E+02  0.20000006176E+02 0.  0.
         12    1    1    2    0    0  0.42261813431E+02 -0.65845371904E+00 -0.98553904317E+01  0.43400727601E+02  0.00000000000E+00 0. -1.
         11    1    3    3    0    0 -0.15876555175E+02 -0.21823248134E+01  0.24627144610E+01  0.16213960299E+02  0.51100000000E-03 0. -1.
        -11    1    3    3    0    0 -0.12331727280E+02 -0.44009763373E+01 -0.19064809415E+01  0.13231581926E+02  0.51100000000E-03 0.  1.
        -12    1    3    3    0    0 -0.14053530976E+02  0.72417548697E+01  0.92991569122E+01  0.18341730174E+02  0.00000000000E+00 0.  1.
</event>
<event>
 7    1  0.2733256E-010  0.4778726E+02  0.7816164E-02  0.1312668E+00
        -11   -1    0    0    0    0  0.00000000000E+00  0.00000000000E+00  0.45593999997E+02  0.45594000000E+02  0.51100000000E-03 0. -1.
         11   -1    0    0    0    0 -0.00000000000E+00 -0.00000000000E+00 -0.45593999997E+02  0.45594000000E+02  0.51100000000E-03 0.  1.
    9900012    2    1    2    0    0  0.74381050764E+01  0.13541547984E+02 -0.40557674548E+02  0.47787263904E+02  0.19999967444E+02 0.  0.
         12    1    1    2    0    0 -0.74381050764E+01 -0.13541547984E+02  0.40557674548E+02  0.43400736096E+02  0.00000000000E+00 0. -1.
         11    1    3    3    0    0 -0.29692081745E+01  0.11095665908E+00 -0.16290848117E+02  0.16559596649E+02  0.51100000000E-03 0. -1.
        -11    1    3    3    0    0 -0.18901245804E+01  0.23700097220E+01 -0.27878779293E+01  0.41184682373E+01  0.51100000000E-03 0.  1.
        -12    1    3    3    0    0  0.12297437831E+02  0.11060581603E+02 -0.21478948502E+02  0.27109199017E+02  0.00000000000E+00 0.  1.
</event>
<event>
 7    1  0.2733256E-010  0.4778727E+02  0.7816164E-02  0.1312668E+00
        -11   -1    0    0    0    0  0.00000000000E+00  0.00000000000E+00  0.45593999997E+02  0.45594000000E+02  0.51100000000E-03 0.  1.
         11   -1    0    0    0    0 -0.00000000000E+00 -0.00000000000E+00 -0.45593999997E+02  0.45594000000E+02  0.51100000000E-03 0. -1.
    9900012    2    1    2    0    0  0.30474504094E+02  0.82602862705E+01  0.29777433270E+02  0.47787271190E+02  0.20000000666E+02 0.  0.
         12    1    1    2    0    0 -0.30474504094E+02 -0.82602862705E+01 -0.29777433270E+02  0.43400728810E+02  0.00000000000E+00 0. -1.
         11    1    3    3    0    0  0.13870376569E+02  0.10751678805E+02  0.14069970306E+02  0.22493332523E+02  0.51100000000E-03 0. -1.
        -11    1    3    3    0    0  0.98244085086E+01  0.14653135546E+01  0.14154294030E+02  0.17291911002E+02  0.51100000000E-03 0.  1.
         12    1    3    3    0    0  0.67797190168E+01 -0.39567060894E+01  0.15531689337E+01  0.80020276657E+01  0.00000000000E+00 0. -1.
</event>
<event>
 7    1  0.2733256E-010  0.4778727E+02  0.7816164E-02  0.1312668E+00
        -11   -1    0    0    0    0  0.00000000000E+00  0.00000000000E+00  0.45593999997E+02  0.45594000000E+02  0.51100000000E-03 0.  1.
         11   -1    0    0    0    0 -0.00000000000E+00 -0.00000000000E+00 -0.45593999997E+02  0.45594000000E+02  0.51100000000E-03 0. -1.
    9900012    2    1    2    0    0 -0.23964291324E+02  0.46535931073E+01  0.35884259367E+02  0.47787271230E+02  0.20000000844E+02 0.  0.
         12    1    1    2    0    0  0.23964291324E+02 -0.46535931073E+01 -0.35884259367E+02  0.43400728770E+02  0.00000000000E+00 0. -1.
         11    1    3    3    0    0 -0.92588936882E+00 -0.62665581297E+00  0.14425288921E+01  0.18250639706E+01  0.51100000000E-03 0. -1.
        -11    1    3    3    0    0 -0.17350322399E+02  0.96892399311E+01  0.33150352205E+02  0.38650496884E+02  0.51100000000E-03 0.  1.
        -12    1    3    3    0    0 -0.56880795562E+01 -0.44089910109E+01  0.12913782697E+01  0.73117103749E+01  0.00000000000E+00 0.  1.
</event>
<event>
 7    1  0.2733256E-010  0.4778727E+02  0.7816164E-02  0.1312668E+00
        -11   -1    0    0    0    0  0.00000000000E+00  0.00000000000E+00  0.45593999997E+02  0.45594000000E+02  0.51100000000E-03 0. -1.
         11   -1    0    0    0    0 -0.00000000000E+00 -0.00000000000E+00 -0.45593999997E+02  0.45594000000E+02  0.51100000000E-03 0.  1.
    9900012    2    1    2    0    0 -0.12242763120E+02 -0.21724484278E+02 -0.35521606429E+02  0.47787274324E+02  0.20000014951E+02 0.  0.
         12    1    1    2    0    0  0.12242763120E+02  0.21724484278E+02  0.35521606429E+02  0.43400725676E+02  0.00000000000E+00 0. -1.
         11    1    3    3    0    0 -0.19923629862E+00 -0.40575973924E-01  0.10150822485E+01  0.10352457412E+01  0.51100000000E-03 0. -1.
        -11    1    3    3    0    0 -0.10134983881E+02 -0.37244421694E+01 -0.17063220420E+02  0.20192643688E+02  0.51100000000E-03 0.  1.
        -12    1    3    3    0    0 -0.19085429400E+01 -0.17959466135E+02 -0.19473468257E+02  0.26559384894E+02  0.00000000000E+00 0.  1.
</event>
<event>
 7    1  0.2733256E-010  0.4778727E+02  0.7816164E-02  0.1312668E+00
        -11   -1    0    0    0    0  0.00000000000E+00  0.00000000000E+00  0.45593999997E+02  0.45594000000E+02  0.51100000000E-03 0.  1.
         11   -1    0    0    0    0 -0.00000000000E+00 -0.00000000000E+00 -0.45593999997E+02  0.45594000000E+02  0.51100000000E-03 0. -1.
    9900012    2    1    2    0    0 -0.40502685423E+02  0.11272662374E+02  0.10774182114E+02  0.47787269088E+02  0.19999991078E+02 0.  0.
         12    1    1    2    0    0  0.40502685423E+02 -0.11272662374E+02 -0.10774182114E+02  0.43400730912E+02  0.00000000000E+00 0. -1.
         11    1    3    3    0    0 -0.19475978771E+02 -0.31366852284E+01  0.40389785159E+01  0.20136183626E+02  0.51100000000E-03 0. -1.
        -11    1    3    3    0    0 -0.61635666835E+01  0.11072962900E+01  0.42092283786E+01  0.75454133843E+01  0.51100000000E-03 0.  1.
        -12    1    3    3    0    0 -0.14863139969E+02  0.13302051313E+02  0.25259752197E+01  0.20105672077E+02  0.00000000000E+00 0.  1.
</event>
<event>
 7    1  0.2733256E-010  0.4778727E+02  0.7816164E-02  0.1312668E+00
        -11   -1    0    0    0    0  0.00000000000E+00  0.00000000000E+00  0.45593999997E+02  0.45594000000E+02  0.51100000000E-03 0. -1.
         11   -1    0    0    0    0 -0.00000000000E+00 -0.00000000000E+00 -0.45593999997E+02  0.45594000000E+02  0.51100000000E-03 0.  1.
    9900012    2    1    2    0    0 -0.35134071452E+02  0.16761342548E+01 -0.25424610317E+02  0.47787271750E+02  0.20000003218E+02 0.  0.
         12    1    1    2    0    0  0.35134071452E+02 -0.16761342548E+01  0.25424610317E+02  0.43400728250E+02  0.00000000000E+00 0. -1.
         11    1    3    3    0    0 -0.10600764731E+02 -0.41003449561E+01 -0.47031216925E+01  0.12300747764E+02  0.51100000000E-03 0. -1.
        -11    1    3    3    0    0 -0.15210795766E+02 -0.13161822323E+01 -0.53876114738E+01  0.16190336660E+02  0.51100000000E-03 0.  1.
        -12    1    3    3    0    0 -0.93225109549E+01  0.70926614432E+01 -0.15333877151E+02  0.19296187326E+02  0.00000000000E+00 0.  1.
</event>
<event>
 7    1  0.2733256E-010  0.4778726E+02  0.7816164E-02  0.1312668E+00
        -11   -1    0    0    0    0  0.00000000000E+00  0.00000000000E+00  0.45593999997E+02  0.45594000000E+02  0.51100000000E-03 0. -1.
         11   -1    0    0    0    0 -0.00000000000E+00 -0.00000000000E+00 -0.45593999997E+02  0.45594000000E+02  0.51100000000E-03 0.  1.
    9900012    2    1    2    0    0 -0.10491943257E+02  0.34877958336E+02 -0.23602352865E+02  0.47787263696E+02  0.19999966494E+02 0.  0.
         12    1    1    2    0    0  0.10491943257E+02 -0.34877958336E+02  0.23602352865E+02  0.43400736304E+02  0.00000000000E+00 0. -1.
         11    1    3    3    0    0 -0.46084964973E+01  0.17957786630E+01 -0.55055765763E+01  0.74009752513E+01  0.51100000000E-03 0. -1.
        -11    1    3    3    0    0 -0.24251249877E+01 -0.37636427952E+00 -0.15187809973E+01  0.28861007009E+01  0.51100000000E-03 0.  1.
        -12    1    3    3    0    0 -0.34583217716E+01  0.33458543953E+02 -0.16577995292E+02  0.37500187743E+02  0.00000000000E+00 0.  1.
</event>
<event>
 7    1  0.2733256E-010  0.4778728E+02  0.7816164E-02  0.1312668E+00
        -11   -1    0    0    0    0  0.00000000000E+00  0.00000000000E+00  0.45593999997E+02  0.45594000000E+02  0.51100000000E-03 0.  1.
         11   -1    0    0    0    0 -0.00000000000E+00 -0.00000000000E+00 -0.45593999997E+02  0.45594000000E+02  0.51100000000E-03 0. -1.
    9900012    2    1    2    0    0  0.40142515472E+02 -0.10965598400E+02  0.12327074892E+02  0.47787277977E+02  0.20000031610E+02 0.  0.
         12    1    1    2    0    0 -0.40142515472E+02  0.10965598400E+02 -0.12327074892E+02  0.43400722023E+02  0.00000000000E+00 0. -1.
         11    1    3    3    0    0  0.76123015350E+01 -0.63296262297E+01  0.16899783159E+01  0.10043272865E+02  0.51100000000E-03 0. -1.
        -11    1    3    3    0    0  0.20364915723E+02 -0.92058976649E+01  0.10631007401E+02  0.24748669921E+02  0.51100000000E-03 0.  1.
         12    1    3    3    0    0  0.12165298214E+02  0.45699254949E+01  0.60891751873E-02  0.12995335192E+02  0.00000000000E+00 0. -1.
</event>
<event>
 7    1  0.2733256E-010  0.4778727E+02  0.7816164E-02  0.1312668E+00
        -11   -1    0    0    0    0  0.00000000000E+00  0.00000000000E+00  0.45593999997E+02  0.45594000000E+02  0.51100000000E-03 0.  1.
         11   -1    0    0    0    0 -0.00000000000E+00 -0.00000000000E+00 -0.45593999997E+02  0.45594000000E+02  0.51100000000E-03 0. -1.
    9900012    2    1    2    0    0 -0.90232524546E+01  0.28301563880E+01  0.42357933169E+02  0.47787269909E+02  0.19999994825E+02 0.  0.
         12    1    1    2    0    0  0.90232524546E+01 -0.28301563880E+01 -0.42357933169E+02  0.43400730091E+02  0.00000000000E+00 0. -1.
         11    1    3    3    0    0  0.11663226088E+01 -0.20235067692E+01  0.11683666282E+01  0.26115070193E+01  0.51100000000E-03 0. -1.
        -11    1    3    3    0    0  0.11981930471E+01  0.64600062402E+01  0.20205263279E+02  0.21246647068E+02  0.51100000000E-03 0.  1.
        -12    1    3    3    0    0 -0.11387768110E+02 -0.16063430830E+01  0.20984303262E+02  0.23929115822E+02  0.00000000000E+00 0.  1.
</event>
<event>
 7    1  0.2733256E-010  0.4778727E+02  0.7816164E-02  0.1312668E+00
        -11   -1    0    0    0    0  0.00000000000E+00  0.00000000000E+00  0.45593999997E+02  0.45594000000E+02  0.51100000000E-03 0.  1.
         11   -1    0    0    0    0 -0.00000000000E+00 -0.00000000000E+00 -0.45593999997E+02  0.45594000000E+02  0.51100000000E-03 0. -1.
    9900012    2    1    2    0    0 -0.28012577612E+02 -0.26508486934E+02  0.19905244331E+02  0.47787272634E+02  0.20000007248E+02 0.  0.
         12    1    1    2    0    0  0.28012577612E+02  0.26508486934E+02 -0.19905244331E+02  0.43400727366E+02  0.00000000000E+00 0. -1.
         11    1    3    3    0    0 -0.24655566857E+01 -0.42648199850E+01  0.51308255994E+00  0.49528691937E+01  0.51100000000E-03 0. -1.
        -11    1    3    3    0    0 -0.10732827046E+02 -0.18792648130E+02  0.16816227368E+02  0.27406982746E+02  0.51100000000E-03 0.  1.
         12    1    3    3    0    0 -0.14814193881E+02 -0.34510188194E+01  0.25759344038E+01  0.15427420694E+02  0.00000000000E+00 0. -1.
</event>
<event>
 7    1  0.2733256E-010  0.4778727E+02  0.7816164E-02  0.1312668E+00
        -11   -1    0    0    0    0  0.00000000000E+00  0.00000000000E+00  0.45593999997E+02  0.45594000000E+02  0.51100000000E-03 0. -1.
         11   -1    0    0    0    0 -0.00000000000E+00 -0.00000000000E+00 -0.45593999997E+02  0.45594000000E+02  0.51100000000E-03 0.  1.
    9900012    2    1    2    0    0  0.28937979974E+02 -0.31544176320E+02 -0.71541240161E+01  0.47787271490E+02  0.20000002033E+02 0.  0.
         12    1    1    2    0    0 -0.28937979974E+02  0.31544176320E+02  0.71541240161E+01  0.43400728510E+02  0.00000000000E+00 0. -1.
         11    1    3    3    0    0  0.91118877320E+01 -0.50421263284E+01 -0.72876048379E+01  0.12710575144E+02  0.51100000000E-03 0. -1.
        -11    1    3    3    0    0  0.55100054962E+01 -0.52062070345E+01  0.48319211549E+01  0.89895614221E+01  0.51100000000E-03 0.  1.
        -12    1    3    3    0    0  0.14316086746E+02 -0.21295842958E+02 -0.46984403330E+01  0.26087134924E+02  0.00000000000E+00 0.  1.
</event>
<event>
 7    1  0.2733256E-010  0.4778727E+02  0.7816164E-02  0.1312668E+00
        -11   -1    0    0    0    0  0.00000000000E+00  0.00000000000E+00  0.45593999997E+02  0.45594000000E+02  0.51100000000E-03 0.  1.
         11   -1    0    0    0    0 -0.00000000000E+00 -0.00000000000E+00 -0.45593999997E+02  0.45594000000E+02  0.51100000000E-03 0. -1.
    9900012    2    1    2    0    0 -0.23394307631E+02 -0.19087080841E+02  0.31177128133E+02  0.47787267251E+02  0.19999982703E+02 0.  0.
         12    1    1    2    0    0  0.23394307631E+02  0.19087080841E+02 -0.31177128133E+02  0.43400732749E+02  0.00000000000E+00 0. -1.
         11    1    3    3    0    0 -0.13112820563E+02 -0.74588954629E+01  0.27130711495E+02  0.31042820283E+02  0.51100000000E-03 0. -1.
        -11    1    3    3    0    0 -0.15006075242E+00 -0.56842789904E+00  0.13940303494E+01  0.15129274213E+01  0.51100000000E-03 0.  1.
        -12    1    3    3    0    0 -0.10131426316E+02 -0.11059757479E+02  0.26523862893E+01  0.15231519547E+02  0.00000000000E+00 0.  1.
</event>
<event>
 7    1  0.2733256E-010  0.4778727E+02  0.7816164E-02  0.1312668E+00
        -11   -1    0    0    0    0  0.00000000000E+00  0.00000000000E+00  0.45593999997E+02  0.45594000000E+02  0.51100000000E-03 0. -1.
         11   -1    0    0    0    0 -0.00000000000E+00 -0.00000000000E+00 -0.45593999997E+02  0.45594000000E+02  0.51100000000E-03 0.  1.
    9900012    2    1    2    0    0  0.90071126305E+01  0.30051452417E+02 -0.29990089840E+02  0.47787270065E+02  0.19999995535E+02 0.  0.
         12    1    1    2    0    0 -0.90071126305E+01 -0.30051452417E+02  0.29990089840E+02  0.43400729935E+02  0.00000000000E+00 0. -1.
         11    1    3    3    0    0 -0.29547203408E+01  0.20944728870E+01 -0.22352526512E+01  0.42560008978E+01  0.51100000000E-03 0. -1.
        -11    1    3    3    0    0  0.36755711748E+01  0.23297572370E+02 -0.16424445117E+02  0.28741069908E+02  0.51100000000E-03 0.  1.
         12    1    3    3    0    0  0.82862617965E+01  0.46594071599E+01 -0.11330392072E+02  0.14790199260E+02  0.00000000000E+00 0. -1.
</event>
<event>
 7    1  0.2733256E-010  0.4778727E+02  0.7816164E-02  0.1312668E+00
        -11   -1    0    0    0    0  0.00000000000E+00  0.00000000000E+00  0.45593999997E+02  0.45594000000E+02  0.51100000000E-03 0.  1.
         11   -1    0    0    0    0 -0.00000000000E+00 -0.00000000000E+00 -0.45593999997E+02  0.45594000000E+02  0.51100000000E-03 0. -1.
    9900012    2    1    2    0    0 -0.87844412954E+01 -0.88953168227E+01  0.41561159757E+02  0.47787273386E+02  0.20000010676E+02 0.  0.
         12    1    1    2    0    0  0.87844412954E+01  0.88953168227E+01 -0.41561159757E+02  0.43400726614E+02  0.00000000000E+00 0. -1.
         11    1    3    3    0    0 -0.32709266402E+01  0.32979434418E+01  0.15723476362E+02  0.16395215802E+02  0.51100000000E-03 0. -1.
        -11    1    3    3    0    0  0.35938917688E+01 -0.21190144921E+01  0.48985819147E+01  0.64344685484E+01  0.51100000000E-03 0.  1.
        -12    1    3    3    0    0 -0.91074064240E+01 -0.10074245772E+02  0.20939101481E+02  0.24957589036E+02  0.00000000000E+00 0.  1.
</event>
<event>
 7    1  0.2733256E-010  0.4778727E+02  0.7816164E-02  0.1312668E+00
        -11   -1    0    0    0    0  0.00000000000E+00  0.00000000000E+00  0.45593999997E+02  0.45594000000E+02  0.51100000000E-03 0. -1.
         11   -1    0    0    0    0 -0.00000000000E+00 -0.00000000000E+00 -0.45593999997E+02  0.45594000000E+02  0.51100000000E-03 0.  1.
    9900012    2    1    2    0    0 -0.33278491848E+02 -0.16813992587E+02 -0.22213845599E+02  0.47787270712E+02  0.19999998485E+02 0.  0.
         12    1    1    2    0    0  0.33278491848E+02  0.16813992587E+02  0.22213845599E+02  0.43400729288E+02  0.00000000000E+00 0. -1.
         11    1    3    3    0    0 -0.15970938408E+02 -0.22781329528E+00 -0.48912016723E+01  0.16704688760E+02  0.51100000000E-03 0. -1.
        -11    1    3    3    0    0 -0.44579542644E+01 -0.17098241543E+01 -0.80230987517E+01  0.93363252248E+01  0.51100000000E-03 0.  1.
         12    1    3    3    0    0 -0.12849599176E+02 -0.14876355138E+02 -0.92995451751E+01  0.21746256727E+02  0.00000000000E+00 0. -1.
</event>
<event>
 7    1  0.2733256E-010  0.4778727E+02  0.7816164E-02  0.1312668E+00
        -11   -1    0    0    0    0  0.00000000000E+00  0.00000000000E+00  0.45593999997E+02  0.45594000000E+02  0.51100000000E-03 0.  1.
         11   -1    0    0    0    0 -0.00000000000E+00 -0.00000000000E+00 -0.45593999997E+02  0.45594000000E+02  0.51100000000E-03 0. -1.
    9900012    2    1    2    0    0 -0.19878686365E+02  0.74156663825E+01  0.37861178357E+02  0.47787272978E+02  0.20000008815E+02 0.  0.
         12    1    1    2    0    0  0.19878686365E+02 -0.74156663825E+01 -0.37861178357E+02  0.43400727022E+02  0.00000000000E+00 0. -1.
         11    1    3    3    0    0 -0.16560519654E+02  0.52965977552E+01  0.13517715682E+02  0.22023473762E+02  0.51100000000E-03 0. -1.
        -11    1    3    3    0    0 -0.52057739618E+01  0.37322525167E+00  0.11006256454E+02  0.12181012315E+02  0.51100000000E-03 0.  1.
        -12    1    3    3    0    0  0.18876072508E+01  0.17458433756E+01  0.13337206221E+02  0.13582786901E+02  0.00000000000E+00 0.  1.
</event>
<event>
 7    1  0.2733256E-010  0.4778727E+02  0.7816164E-02  0.1312668E+00
        -11   -1    0    0    0    0  0.00000000000E+00  0.00000000000E+00  0.45593999997E+02  0.45594000000E+02  0.51100000000E-03 0. -1.
         11   -1    0    0    0    0 -0.00000000000E+00 -0.00000000000E+00 -0.45593999997E+02  0.45594000000E+02  0.51100000000E-03 0.  1.
    9900012    2    1    2    0    0 -0.30375031287E+02  0.26879761103E+02 -0.15442134630E+02  0.47787267234E+02  0.19999982626E+02 0.  0.
         12    1    1    2    0    0  0.30375031287E+02 -0.26879761103E+02  0.15442134630E+02  0.43400732766E+02  0.00000000000E+00 0. -1.
         11    1    3    3    0    0 -0.42755098894E+01  0.69619879585E+00  0.17617971618E+01  0.46763882514E+01  0.51100000000E-03 0. -1.
        -11    1    3    3    0    0  0.58495759238E-01  0.60668763157E+01 -0.40116496180E+00  0.60804065302E+01  0.51100000000E-03 0.  1.
        -12    1    3    3    0    0 -0.26158017157E+02  0.20116685992E+02 -0.16802766830E+02  0.37030472452E+02  0.00000000000E+00 0.  1.
</event>
<event>
 7    1  0.2733256E-010  0.4778727E+02  0.7816164E-02  0.1312668E+00
        -11   -1    0    0    0    0  0.00000000000E+00  0.00000000000E+00  0.45593999997E+02  0.45594000000E+02  0.51100000000E-03 0. -1.
         11   -1    0    0    0    0 -0.00000000000E+00 -0.00000000000E+00 -0.45593999997E+02  0.45594000000E+02  0.51100000000E-03 0.  1.
    9900012    2    1    2    0    0 -0.28924798886E+02 -0.22631605423E+02 -0.23125517600E+02  0.47787272830E+02  0.20000008140E+02 0.  0.
         12    1    1    2    0    0  0.28924798886E+02  0.22631605423E+02  0.23125517600E+02  0.43400727170E+02  0.00000000000E+00 0. -1.
         11    1    3    3    0    0 -0.16472937440E+02 -0.21211880495E+02 -0.98526914164E+01  0.28607290513E+02  0.51100000000E-03 0.  1.
        -11    1    3    3    0    0 -0.38652460635E+01 -0.30807369198E+01 -0.62195917810E+01  0.79444565128E+01  0.51100000000E-03 0. -1.
         12    1    3    3    0    0 -0.85866153822E+01  0.16610119922E+01 -0.70532344028E+01  0.11235525804E+02  0.00000000000E+00 0. -1.
</event>
<event>
 7    1  0.2733256E-010  0.4778727E+02  0.7816164E-02  0.1312668E+00
        -11   -1    0    0    0    0  0.00000000000E+00  0.00000000000E+00  0.45593999997E+02  0.45594000000E+02  0.51100000000E-03 0.  1.
         11   -1    0    0    0    0 -0.00000000000E+00 -0.00000000000E+00 -0.45593999997E+02  0.45594000000E+02  0.51100000000E-03 0. -1.
    9900012    2    1    2    0    0  0.11058506137E+02  0.58547582460E+01  0.41557848624E+02  0.47787268044E+02  0.19999986318E+02 0.  0.
         12    1    1    2    0    0 -0.11058506137E+02 -0.58547582460E+01 -0.41557848624E+02  0.43400731956E+02  0.00000000000E+00 0. -1.
         11    1    3    3    0    0  0.31903179411E+01 -0.39918512158E+01  0.55384169709E+01  0.75357194414E+01  0.51100000000E-03 0. -1.
        -11    1    3    3    0    0  0.83134996520E+01  0.29120535190E+01  0.29260848300E+02  0.30558003463E+02  0.51100000000E-03 0.  1.
        -12    1    3    3    0    0 -0.44531145630E+00  0.69345559428E+01  0.67585833530E+01  0.96935451388E+01  0.00000000000E+00 0.  1.
</event>
<event>
 7    1  0.2733256E-010  0.4778727E+02  0.7816164E-02  0.1312668E+00
        -11   -1    0    0    0    0  0.00000000000E+00  0.00000000000E+00  0.45593999997E+02  0.45594000000E+02  0.51100000000E-03 0.  1.
         11   -1    0    0    0    0 -0.00000000000E+00 -0.00000000000E+00 -0.45593999997E+02  0.45594000000E+02  0.51100000000E-03 0. -1.
    9900012    2    1    2    0    0 -0.40689405185E+02  0.58226564153E+01  0.13931697483E+02  0.47787271702E+02  0.20000002996E+02 0.  0.
         12    1    1    2    0    0  0.40689405185E+02 -0.58226564153E+01 -0.13931697483E+02  0.43400728298E+02  0.00000000000E+00 0. -1.
         11    1    3    3    0    0 -0.33949871387E+02  0.99985943310E+01  0.58529566723E+01  0.35872311856E+02  0.51100000000E-03 0. -1.
        -11    1    3    3    0    0 -0.43649645322E+01 -0.10989386779E+01  0.26017319470E+01  0.51989990354E+01  0.51100000000E-03 0.  1.
         12    1    3    3    0    0 -0.23745692659E+01 -0.30769992378E+01  0.54770088642E+01  0.67159608104E+01  0.00000000000E+00 0. -1.
</event>
<event>
 7    1  0.2733256E-010  0.4778727E+02  0.7816164E-02  0.1312668E+00
        -11   -1    0    0    0    0  0.00000000000E+00  0.00000000000E+00  0.45593999997E+02  0.45594000000E+02  0.51100000000E-03 0.  1.
         11   -1    0    0    0    0 -0.00000000000E+00 -0.00000000000E+00 -0.45593999997E+02  0.45594000000E+02  0.51100000000E-03 0. -1.
    9900012    2    1    2    0    0  0.31945087131E+02 -0.17355079514E+02  0.23705186283E+02  0.47787271510E+02  0.20000002122E+02 0.  0.
         12    1    1    2    0    0 -0.31945087131E+02  0.17355079514E+02 -0.23705186283E+02  0.43400728490E+02  0.00000000000E+00 0. -1.
         11    1    3    3    0    0  0.96545472408E+01 -0.46235864932E+01  0.15954907862E+02  0.19213196497E+02  0.51100000000E-03 0. -1.
        -11    1    3    3    0    0  0.13484909596E+02 -0.24889602579E+01  0.59475962455E+01  0.14946959936E+02  0.51100000000E-03 0.  1.
         12    1    3    3    0    0  0.88056302948E+01 -0.10242532763E+02  0.18026821755E+01  0.13627115077E+02  0.00000000000E+00 0. -1.
</event>
<event>
 7    1  0.2733256E-010  0.4778726E+02  0.7816164E-02  0.1312668E+00
        -11   -1    0    0    0    0  0.00000000000E+00  0.00000000000E+00  0.45593999997E+02  0.45594000000E+02  0.51100000000E-03 0.  1.
         11   -1    0    0    0    0 -0.00000000000E+00 -0.00000000000E+00 -0.45593999997E+02  0.45594000000E+02  0.51100000000E-03 0. -1.
    9900012    2    1    2    0    0 -0.26883915266E+02 -0.10179694438E+02  0.32515426622E+02  0.47787262135E+02  0.19999959377E+02 0.  0.
         12    1    1    2    0    0  0.26883915266E+02  0.10179694438E+02 -0.32515426622E+02  0.43400737865E+02  0.00000000000E+00 0. -1.
         11    1    3    3    0    0 -0.22739937850E+01 -0.85622175296E+00 -0.29789755994E+00  0.24480413889E+01  0.51100000000E-03 0. -1.
        -11    1    3    3    0    0 -0.90393202191E+01 -0.11952186758E+02  0.20072070629E+02  0.25048993950E+02  0.51100000000E-03 0.  1.
        -12    1    3    3    0    0 -0.15570601262E+02  0.26287140731E+01  0.12741253552E+02  0.20290226795E+02  0.00000000000E+00 0.  1.
</event>
<event>
 7    1  0.2733256E-010  0.4778726E+02  0.7816164E-02  0.1312668E+00
        -11   -1    0    0    0    0  0.00000000000E+00  0.00000000000E+00  0.45593999997E+02  0.45594000000E+02  0.51100000000E-03 0.  1.
         11   -1    0    0    0    0 -0.00000000000E+00 -0.00000000000E+00 -0.45593999997E+02  0.45594000000E+02  0.51100000000E-03 0. -1.
    9900012    2    1    2    0    0  0.11525799479E+02 -0.27178705089E+02  0.31813484430E+02  0.47787264343E+02  0.19999969447E+02 0.  0.
         12    1    1    2    0    0 -0.11525799479E+02  0.27178705089E+02 -0.31813484430E+02  0.43400735657E+02  0.00000000000E+00 0. -1.
         11    1    3    3    0    0  0.10551493873E+01 -0.52426372965E+00 -0.60274062590E+00  0.13234384046E+01  0.51100000000E-03 0. -1.
        -11    1    3    3    0    0  0.11716253143E+02 -0.10204548677E+02  0.22071316029E+02  0.26991598562E+02  0.51100000000E-03 0.  1.
         12    1    3    3    0    0 -0.12456030520E+01 -0.16449892682E+02  0.10344909027E+02  0.19472227376E+02  0.00000000000E+00 0. -1.
</event>
<event>
 7    1  0.2733256E-010  0.4778727E+02  0.7816164E-02  0.1312668E+00
        -11   -1    0    0    0    0  0.00000000000E+00  0.00000000000E+00  0.45593999997E+02  0.45594000000E+02  0.51100000000E-03 0.  1.
         11   -1    0    0    0    0 -0.00000000000E+00 -0.00000000000E+00 -0.45593999997E+02  0.45594000000E+02  0.51100000000E-03 0. -1.
    9900012    2    1    2    0    0  0.42556906131E+01  0.17688301630E+02  0.39403510728E+02  0.47787267577E+02  0.19999984191E+02 0.  0.
         12    1    1    2    0    0 -0.42556906131E+01 -0.17688301630E+02 -0.39403510728E+02  0.43400732423E+02  0.00000000000E+00 0. -1.
         11    1    3    3    0    0 -0.31403232360E+01  0.30647101894E+01  0.12655850062E+02  0.13394947541E+02  0.51100000000E-03 0. -1.
        -11    1    3    3    0    0 -0.22477026628E+01  0.75053877333E+01  0.17758012823E+02  0.19409534563E+02  0.51100000000E-03 0.  1.
         12    1    3    3    0    0  0.96437165119E+01  0.71182037077E+01  0.89896478427E+01  0.14982785473E+02  0.00000000000E+00 0. -1.
</event>
<event>
 7    1  0.2733256E-010  0.4778728E+02  0.7816164E-02  0.1312668E+00
        -11   -1    0    0    0    0  0.00000000000E+00  0.00000000000E+00  0.45593999997E+02  0.45594000000E+02  0.51100000000E-03 0. -1.
         11   -1    0    0    0    0 -0.00000000000E+00 -0.00000000000E+00 -0.45593999997E+02  0.45594000000E+02  0.51100000000E-03 0.  1.
    9900012    2    1    2    0    0 -0.27603499163E+02  0.36167226292E+01 -0.33295475522E+02  0.47787279512E+02  0.20000038606E+02 0.  0.
         12    1    1    2    0    0  0.27603499163E+02 -0.36167226292E+01  0.33295475522E+02  0.43400720488E+02  0.00000000000E+00 0. -1.
         11    1    3    3    0    0 -0.23554606046E+01  0.53103437982E+01 -0.28285251803E+01  0.64613079846E+01  0.51100000000E-03 0. -1.
        -11    1    3    3    0    0 -0.47841065879E+01 -0.21978139779E+01 -0.86457000460E+00  0.53353110199E+01  0.51100000000E-03 0.  1.
         12    1    3    3    0    0 -0.20463931971E+02  0.50419280889E+00 -0.29602380337E+02  0.35990660507E+02  0.00000000000E+00 0. -1.
</event>
<event>
 7    1  0.2733256E-010  0.4778727E+02  0.7816164E-02  0.1312668E+00
        -11   -1    0    0    0    0  0.00000000000E+00  0.00000000000E+00  0.45593999997E+02  0.45594000000E+02  0.51100000000E-03 0. -1.
         11   -1    0    0    0    0 -0.00000000000E+00 -0.00000000000E+00 -0.45593999997E+02  0.45594000000E+02  0.51100000000E-03 0.  1.
    9900012    2    1    2    0    0  0.25894768233E+02 -0.12787843178E+01 -0.34805875827E+02  0.47787270706E+02  0.19999998458E+02 0.  0.
         12    1    1    2    0    0 -0.25894768233E+02  0.12787843178E+01  0.34805875827E+02  0.43400729294E+02  0.00000000000E+00 0. -1.
         11    1    3    3    0    0  0.15429707938E+01 -0.49741178497E+01 -0.40391751204E+01  0.65907164381E+01  0.51100000000E-03 0. -1.
        -11    1    3    3    0    0  0.32283416863E+00 -0.24003791186E+01 -0.15304701297E+01  0.28650272062E+01  0.51100000000E-03 0.  1.
        -12    1    3    3    0    0  0.24028963271E+02  0.60957126504E+01 -0.29236230577E+02  0.38331527062E+02  0.00000000000E+00 0.  1.
</event>
<event>
 7    1  0.2733256E-010  0.4778727E+02  0.7816164E-02  0.1312668E+00
        -11   -1    0    0    0    0  0.00000000000E+00  0.00000000000E+00  0.45593999997E+02  0.45594000000E+02  0.51100000000E-03 0. -1.
         11   -1    0    0    0    0 -0.00000000000E+00 -0.00000000000E+00 -0.45593999997E+02  0.45594000000E+02  0.51100000000E-03 0.  1.
    9900012    2    1    2    0    0 -0.22105693502E+02 -0.16397677715E+02  0.33557082390E+02  0.47787270765E+02  0.19999998724E+02 0.  0.
         12    1    1    2    0    0  0.22105693502E+02  0.16397677715E+02 -0.33557082390E+02  0.43400729235E+02  0.00000000000E+00 0. -1.
         11    1    3    3    0    0 -0.73937233970E+01  0.34230840576E+00  0.12816732798E+01  0.75117912227E+01  0.51100000000E-03 0. -1.
        -11    1    3    3    0    0 -0.87371276746E+01 -0.58323087444E+01  0.87778492765E+01  0.13689553078E+02  0.51100000000E-03 0.  1.
         12    1    3    3    0    0 -0.59748424302E+01 -0.10907677376E+02  0.23497559834E+02  0.26585926464E+02  0.00000000000E+00 0. -1.
</event>
<event>
 7    1  0.2733256E-010  0.4778727E+02  0.7816164E-02  0.1312668E+00
        -11   -1    0    0    0    0  0.00000000000E+00  0.00000000000E+00  0.45593999997E+02  0.45594000000E+02  0.51100000000E-03 0.  1.
         11   -1    0    0    0    0 -0.00000000000E+00 -0.00000000000E+00 -0.45593999997E+02  0.45594000000E+02  0.51100000000E-03 0. -1.
    9900012    2    1    2    0    0 -0.27307905979E+01 -0.30887712707E+02  0.30366352388E+02  0.47787269927E+02  0.19999994903E+02 0.  0.
         12    1    1    2    0    0  0.27307905979E+01  0.30887712707E+02 -0.30366352388E+02  0.43400730073E+02  0.00000000000E+00 0. -1.
         11    1    3    3    0    0  0.20434278207E+01 -0.49187022336E+01 -0.15445962555E+01  0.55457196806E+01  0.51100000000E-03 0. -1.
        -11    1    3    3    0    0  0.37067812189E+00 -0.15473818391E+00 -0.39947009276E+00  0.56650047814E+00  0.51100000000E-03 0.  1.
        -12    1    3    3    0    0 -0.51448965405E+01 -0.25814272289E+02  0.32310418736E+02  0.41675049768E+02  0.00000000000E+00 0.  1.
</event>
<event>
 7    1  0.2733256E-010  0.4778727E+02  0.7816164E-02  0.1312668E+00
        -11   -1    0    0    0    0  0.00000000000E+00  0.00000000000E+00  0.45593999997E+02  0.45594000000E+02  0.51100000000E-03 0.  1.
         11   -1    0    0    0    0 -0.00000000000E+00 -0.00000000000E+00 -0.45593999997E+02  0.45594000000E+02  0.51100000000E-03 0. -1.
    9900012    2    1    2    0    0 -0.28933396327E+02  0.65053472167E+01  0.31688521622E+02  0.47787269960E+02  0.19999995054E+02 0.  0.
         12    1    1    2    0    0  0.28933396327E+02 -0.65053472167E+01 -0.31688521622E+02  0.43400730040E+02  0.00000000000E+00 0. -1.
         11    1    3    3    0    0 -0.12939735844E+02 -0.33476447652E+01  0.10533874041E+02  0.17017813953E+02  0.51100000000E-03 0. -1.
        -11    1    3    3    0    0 -0.91852461397E+01 -0.94730722036E+00  0.11580155511E+02  0.14811014129E+02  0.51100000000E-03 0.  1.
        -12    1    3    3    0    0 -0.68084143433E+01  0.10800299202E+02  0.95744920709E+01  0.15958441877E+02  0.00000000000E+00 0.  1.
</event>
<event>
 7    1  0.2733256E-010  0.4778729E+02  0.7816164E-02  0.1312668E+00
        -11   -1    0    0    0    0  0.00000000000E+00  0.00000000000E+00  0.45593999997E+02  0.45594000000E+02  0.51100000000E-03 0.  1.
         11   -1    0    0    0    0 -0.00000000000E+00 -0.00000000000E+00 -0.45593999997E+02  0.45594000000E+02  0.51100000000E-03 0. -1.
    9900012    2    1    2    0    0 -0.28526669299E+02  0.26078136487E+02  0.19742891388E+02  0.47787287744E+02  0.20000076141E+02 0.  0.
         12    1    1    2    0    0  0.28526669299E+02 -0.26078136487E+02 -0.19742891388E+02  0.43400712256E+02  0.00000000000E+00 0. -1.
         11    1    3    3    0    0 -0.93254347844E+01  0.34225361331E+01  0.91331811218E+00  0.99755520016E+01  0.51100000000E-03 0. -1.
        -11    1    3    3    0    0 -0.72830352787E+00 -0.17554689057E+01  0.57204500099E-01  0.19014125600E+01  0.51100000000E-03 0.  1.
        -12    1    3    3    0    0 -0.18472930987E+02  0.24411069260E+02  0.18772368775E+02  0.35910323183E+02  0.00000000000E+00 0.  1.
</event>
<event>
 7    1  0.2733256E-010  0.4778727E+02  0.7816164E-02  0.1312668E+00
        -11   -1    0    0    0    0  0.00000000000E+00  0.00000000000E+00  0.45593999997E+02  0.45594000000E+02  0.51100000000E-03 0.  1.
         11   -1    0    0    0    0 -0.00000000000E+00 -0.00000000000E+00 -0.45593999997E+02  0.45594000000E+02  0.51100000000E-03 0. -1.
    9900012    2    1    2    0    0  0.24035108529E+02 -0.10782887240E+02  0.34491535659E+02  0.47787272687E+02  0.20000007487E+02 0.  0.
         12    1    1    2    0    0 -0.24035108529E+02  0.10782887240E+02 -0.34491535659E+02  0.43400727313E+02  0.00000000000E+00 0. -1.
         11    1    3    3    0    0  0.24244035362E+01 -0.43184497741E+00  0.93046910846E+01  0.96250454041E+01  0.51100000000E-03 0. -1.
        -11    1    3    3    0    0  0.60867285703E+01 -0.87988800663E+01  0.18102307441E+02  0.21027650607E+02  0.51100000000E-03 0.  1.
        -12    1    3    3    0    0  0.15523976423E+02 -0.15521621967E+01  0.70845371333E+01  0.17134576676E+02  0.00000000000E+00 0.  1.
</event>
<event>
 7    1  0.2733256E-010  0.4778727E+02  0.7816164E-02  0.1312668E+00
        -11   -1    0    0    0    0  0.00000000000E+00  0.00000000000E+00  0.45593999997E+02  0.45594000000E+02  0.51100000000E-03 0.  1.
         11   -1    0    0    0    0 -0.00000000000E+00 -0.00000000000E+00 -0.45593999997E+02  0.45594000000E+02  0.51100000000E-03 0. -1.
    9900012    2    1    2    0    0  0.32874159551E+01  0.13048807739E+02  0.41261905982E+02  0.47787269910E+02  0.19999994828E+02 0.  0.
         12    1    1    2    0    0 -0.32874159551E+01 -0.13048807739E+02 -0.41261905982E+02  0.43400730090E+02  0.00000000000E+00 0. -1.
         11    1    3    3    0    0 -0.64599596579E+00  0.64013921515E+00 -0.19229232721E+00  0.92955129112E+00  0.51100000000E-03 0. -1.
        -11    1    3    3    0    0  0.56029092828E+01  0.16430493417E+02  0.30936821545E+02  0.35474506817E+02  0.51100000000E-03 0.  1.
         12    1    3    3    0    0 -0.16694973619E+01 -0.40218248940E+01  0.10517376764E+02  0.11383211802E+02  0.00000000000E+00 0. -1.
</event>
<event>
 7    1  0.2733256E-010  0.4778727E+02  0.7816164E-02  0.1312668E+00
        -11   -1    0    0    0    0  0.00000000000E+00  0.00000000000E+00  0.45593999997E+02  0.45594000000E+02  0.51100000000E-03 0.  1.
         11   -1    0    0    0    0 -0.00000000000E+00 -0.00000000000E+00 -0.45593999997E+02  0.45594000000E+02  0.51100000000E-03 0. -1.
    9900012    2    1    2    0    0 -0.33605813165E+02  0.25429973927E+02  0.10372508954E+02  0.47787271960E+02  0.20000004173E+02 0.  0.
         12    1    1    2    0    0  0.33605813165E+02 -0.25429973927E+02 -0.10372508954E+02  0.43400728040E+02  0.00000000000E+00 0. -1.
         11    1    3    3    0    0 -0.19862336126E+02  0.13696353967E+02  0.14629290750E+00  0.24127244150E+02  0.51100000000E-03 0. -1.
        -11    1    3    3    0    0 -0.61666412633E+01  0.10887610034E+02  0.24124948051E+01  0.12743141221E+02  0.51100000000E-03 0.  1.
        -12    1    3    3    0    0 -0.75768357756E+01  0.84600992634E+00  0.78137212414E+01  0.10916886589E+02  0.00000000000E+00 0.  1.
</event>
<event>
 7    1  0.2733256E-010  0.4778727E+02  0.7816164E-02  0.1312668E+00
        -11   -1    0    0    0    0  0.00000000000E+00  0.00000000000E+00  0.45593999997E+02  0.45594000000E+02  0.51100000000E-03 0.  1.
         11   -1    0    0    0    0 -0.00000000000E+00 -0.00000000000E+00 -0.45593999997E+02  0.45594000000E+02  0.51100000000E-03 0. -1.
    9900012    2    1    2    0    0  0.18830288164E+02  0.81461591182E+01  0.38245046543E+02  0.47787271368E+02  0.20000001477E+02 0.  0.
         12    1    1    2    0    0 -0.18830288164E+02 -0.81461591182E+01 -0.38245046543E+02  0.43400728632E+02  0.00000000000E+00 0. -1.
         11    1    3    3    0    0  0.46736041717E+01  0.30755328609E+01  0.28424586074E+01  0.62754322185E+01  0.51100000000E-03 0. -1.
        -11    1    3    3    0    0  0.15532253119E+02 -0.97096981530E-01  0.20790829474E+02  0.25952242779E+02  0.51100000000E-03 0.  1.
        -12    1    3    3    0    0 -0.13755691272E+01  0.51677232388E+01  0.14611758461E+02  0.15559596371E+02  0.00000000000E+00 0.  1.
</event>
<event>
 7    1  0.2733256E-010  0.4778727E+02  0.7816164E-02  0.1312668E+00
        -11   -1    0    0    0    0  0.00000000000E+00  0.00000000000E+00  0.45593999997E+02  0.45594000000E+02  0.51100000000E-03 0.  1.
         11   -1    0    0    0    0 -0.00000000000E+00 -0.00000000000E+00 -0.45593999997E+02  0.45594000000E+02  0.51100000000E-03 0. -1.
    9900012    2    1    2    0    0 -0.24504246034E+02 -0.29827634306E+02  0.19836264366E+02  0.47787271596E+02  0.20000002515E+02 0.  0.
         12    1    1    2    0    0  0.24504246034E+02  0.29827634306E+02 -0.19836264366E+02  0.43400728404E+02  0.00000000000E+00 0. -1.
         11    1    3    3    0    0 -0.13564505467E+02 -0.10107862714E+02  0.12223657067E+02  0.20870613062E+02  0.51100000000E-03 0. -1.
        -11    1    3    3    0    0 -0.25682732947E+01 -0.48110778617E+01  0.81541460280E+01  0.98098213855E+01  0.51100000000E-03 0.  1.
         12    1    3    3    0    0 -0.83714672721E+01 -0.14908693731E+02 -0.54153872936E+00  0.17106837149E+02  0.00000000000E+00 0. -1.
</event>
<event>
 7    1  0.2733256E-010  0.4778727E+02  0.7816164E-02  0.1312668E+00
        -11   -1    0    0    0    0  0.00000000000E+00  0.00000000000E+00  0.45593999997E+02  0.45594000000E+02  0.51100000000E-03 0. -1.
         11   -1    0    0    0    0 -0.00000000000E+00 -0.00000000000E+00 -0.45593999997E+02  0.45594000000E+02  0.51100000000E-03 0.  1.
    9900012    2    1    2    0    0  0.88562899212E+01 -0.23942329572E+01 -0.42420004635E+02  0.47787274017E+02  0.20000013554E+02 0.  0.
         12    1    1    2    0    0 -0.88562899212E+01  0.23942329572E+01  0.42420004635E+02  0.43400725983E+02  0.00000000000E+00 0. -1.
         11    1    3    3    0    0  0.23983581539E+00 -0.12989504638E+00 -0.10521003455E+02  0.10524538370E+02  0.51100000000E-03 0.  1.
        -11    1    3    3    0    0  0.39102023804E+01 -0.16707284782E+01  0.70954939307E+00  0.43109716893E+01  0.51100000000E-03 0. -1.
         12    1    3    3    0    0  0.47062517254E+01 -0.59360943263E+00 -0.32608550573E+02  0.32951763958E+02  0.00000000000E+00 0. -1.
</event>
<event>
 7    1  0.2733256E-010  0.4778728E+02  0.7816164E-02  0.1312668E+00
        -11   -1    0    0    0    0  0.00000000000E+00  0.00000000000E+00  0.45593999997E+02  0.45594000000E+02  0.51100000000E-03 0. -1.
         11   -1    0    0    0    0 -0.00000000000E+00 -0.00000000000E+00 -0.45593999997E+02  0.45594000000E+02  0.51100000000E-03 0.  1.
    9900012    2    1    2    0    0  0.11432218450E+02  0.22998091307E+02 -0.34985919468E+02  0.47787281303E+02  0.20000046771E+02 0.  0.
         12    1    1    2    0    0 -0.11432218450E+02 -0.22998091307E+02  0.34985919468E+02  0.43400718697E+02  0.00000000000E+00 0. -1.
         11    1    3    3    0    0 -0.25691422748E+01  0.94875043492E+01 -0.54244780764E+01  0.11226673304E+02  0.51100000000E-03 0. -1.
        -11    1    3    3    0    0 -0.54294064643E+00 -0.87358017779E+00 -0.10472833620E+01  0.14678997153E+01  0.51100000000E-03 0.  1.
        -12    1    3    3    0    0  0.14544301371E+02  0.14384167135E+02 -0.28514158029E+02  0.35092708284E+02  0.00000000000E+00 0.  1.
</event>
<event>
 7    1  0.2733256E-010  0.4778728E+02  0.7816164E-02  0.1312668E+00
        -11   -1    0    0    0    0  0.00000000000E+00  0.00000000000E+00  0.45593999997E+02  0.45594000000E+02  0.51100000000E-03 0.  1.
         11   -1    0    0    0    0 -0.00000000000E+00 -0.00000000000E+00 -0.45593999997E+02  0.45594000000E+02  0.51100000000E-03 0. -1.
    9900012    2    1    2    0    0  0.12272191093E+02 -0.41551949074E+02  0.25399203446E+01  0.47787281787E+02  0.20000048980E+02 0.  0.
         12    1    1    2    0    0 -0.12272191093E+02  0.41551949074E+02 -0.25399203446E+01  0.43400718213E+02  0.00000000000E+00 0. -1.
         11    1    3    3    0    0  0.56593739550E+01 -0.90816777768E+01 -0.32316030919E+00  0.10705597492E+02  0.51100000000E-03 0.  1.
        -11    1    3    3    0    0  0.12008171698E+02 -0.19686044086E+02  0.25733161380E+01  0.23202553211E+02  0.51100000000E-03 0. -1.
         12    1    3    3    0    0 -0.53953545596E+01 -0.12784227211E+02  0.28976451575E+00  0.13879131085E+02  0.00000000000E+00 0. -1.
</event>
<event>
 7    1  0.2733256E-010  0.4778727E+02  0.7816164E-02  0.1312668E+00
        -11   -1    0    0    0    0  0.00000000000E+00  0.00000000000E+00  0.45593999997E+02  0.45594000000E+02  0.51100000000E-03 0.  1.
         11   -1    0    0    0    0 -0.00000000000E+00 -0.00000000000E+00 -0.45593999997E+02  0.45594000000E+02  0.51100000000E-03 0. -1.
    9900012    2    1    2    0    0  0.22448354885E+02 -0.21473630489E+02  0.30308049866E+02  0.47787270396E+02  0.19999997045E+02 0.  0.
         12    1    1    2    0    0 -0.22448354885E+02  0.21473630489E+02 -0.30308049866E+02  0.43400729604E+02  0.00000000000E+00 0. -1.
         11    1    3    3    0    0  0.12483112588E+01 -0.80803117529E+01  0.46682027858E+01  0.94149793698E+01  0.51100000000E-03 0. -1.
        -11    1    3    3    0    0  0.12692036983E+02 -0.14778577590E+02  0.14488961636E+02  0.24278059393E+02  0.51100000000E-03 0.  1.
        -12    1    3    3    0    0  0.85080066432E+01  0.13852588537E+01  0.11150885445E+02  0.14094231633E+02  0.00000000000E+00 0.  1.
</event>
<event>
 7    1  0.2733256E-010  0.4778727E+02  0.7816164E-02  0.1312668E+00
        -11   -1    0    0    0    0  0.00000000000E+00  0.00000000000E+00  0.45593999997E+02  0.45594000000E+02  0.51100000000E-03 0. -1.
         11   -1    0    0    0    0 -0.00000000000E+00 -0.00000000000E+00 -0.45593999997E+02  0.45594000000E+02  0.51100000000E-03 0.  1.
    9900012    2    1    2    0    0  0.39525385552E+02 -0.17614202776E+02 -0.33327764699E+01  0.47787266810E+02  0.19999980693E+02 0.  0.
         12    1    1    2    0    0 -0.39525385552E+02  0.17614202776E+02  0.33327764699E+01  0.43400733190E+02  0.00000000000E+00 0. -1.
         11    1    3    3    0    0  0.44671009267E+01 -0.17476830333E+01 -0.34542401490E+01  0.59111049679E+01  0.51100000000E-03 0. -1.
        -11    1    3    3    0    0  0.32291627055E+02 -0.79073959423E+01 -0.15661206921E+01  0.33282560339E+02  0.51100000000E-03 0.  1.
         12    1    3    3    0    0  0.27666575702E+01 -0.79591238006E+01  0.16875843712E+01  0.85936015031E+01  0.00000000000E+00 0. -1.
</event>
<event>
 7    1  0.2733256E-010  0.4778727E+02  0.7816164E-02  0.1312668E+00
        -11   -1    0    0    0    0  0.00000000000E+00  0.00000000000E+00  0.45593999997E+02  0.45594000000E+02  0.51100000000E-03 0. -1.
         11   -1    0    0    0    0 -0.00000000000E+00 -0.00000000000E+00 -0.45593999997E+02  0.45594000000E+02  0.51100000000E-03 0.  1.
    9900012    2    1    2    0    0 -0.42395690584E+01  0.17103379009E+02 -0.39662626689E+02  0.47787268725E+02  0.19999989424E+02 0.  0.
         12    1    1    2    0    0  0.42395690584E+01 -0.17103379009E+02  0.39662626689E+02  0.43400731275E+02  0.00000000000E+00 0. -1.
         11    1    3    3    0    0  0.31115441410E+00  0.65838326070E+01 -0.28907804127E+01  0.71972411744E+01  0.51100000000E-03 0. -1.
        -11    1    3    3    0    0 -0.28674249091E+01  0.64295663330E+01 -0.53079322666E+01  0.88167791198E+01  0.51100000000E-03 0.  1.
         12    1    3    3    0    0 -0.16832985634E+01  0.40899800688E+01 -0.31463914010E+02  0.31773248431E+02  0.00000000000E+00 0. -1.
</event>
<event>
 7    1  0.2733256E-010  0.4778727E+02  0.7816164E-02  0.1312668E+00
        -11   -1    0    0    0    0  0.00000000000E+00  0.00000000000E+00  0.45593999997E+02  0.45594000000E+02  0.51100000000E-03 0.  1.
         11   -1    0    0    0    0 -0.00000000000E+00 -0.00000000000E+00 -0.45593999997E+02  0.45594000000E+02  0.51100000000E-03 0. -1.
    9900012    2    1    2    0    0  0.20377555074E+01 -0.20356008545E+02  0.38276673486E+02  0.47787271152E+02  0.20000000490E+02 0.  0.
         12    1    1    2    0    0 -0.20377555074E+01  0.20356008545E+02 -0.38276673486E+02  0.43400728848E+02  0.00000000000E+00 0. -1.
         11    1    3    3    0    0  0.23811909042E+01 -0.99858790437E+01  0.96304661691E+01  0.14075998341E+02  0.51100000000E-03 0. -1.
        -11    1    3    3    0    0  0.33689552412E+01 -0.11752658779E+02  0.14230606661E+02  0.18761263657E+02  0.51100000000E-03 0.  1.
         12    1    3    3    0    0 -0.37123906379E+01  0.13825292774E+01  0.14415600656E+02  0.14950009154E+02  0.00000000000E+00 0. -1.
</event>
<event>
 7    1  0.2733256E-010  0.4778727E+02  0.7816164E-02  0.1312668E+00
        -11   -1    0    0    0    0  0.00000000000E+00  0.00000000000E+00  0.45593999997E+02  0.45594000000E+02  0.51100000000E-03 0.  1.
         11   -1    0    0    0    0 -0.00000000000E+00 -0.00000000000E+00 -0.45593999997E+02  0.45594000000E+02  0.51100000000E-03 0. -1.
    9900012    2    1    2    0    0 -0.36365217072E+02 -0.21792263265E+02  0.92893226719E+01  0.47787271128E+02  0.20000000383E+02 0.  0.
         12    1    1    2    0    0  0.36365217072E+02  0.21792263265E+02 -0.92893226719E+01  0.43400728872E+02  0.00000000000E+00 0. -1.
         11    1    3    3    0    0  0.59832259602E-01  0.10413157023E+00  0.88420204330E-01  0.14913643707E+00  0.51100000000E-03 0. -1.
        -11    1    3    3    0    0 -0.79747669611E+00  0.24611076299E+01 -0.17364466739E+01  0.31158092302E+01  0.51100000000E-03 0.  1.
        -12    1    3    3    0    0 -0.35627572635E+02 -0.24357502465E+02  0.10937349141E+02  0.44522325461E+02  0.00000000000E+00 0.  1.
</event>
<event>
 7    1  0.2733256E-010  0.4778727E+02  0.7816164E-02  0.1312668E+00
        -11   -1    0    0    0    0  0.00000000000E+00  0.00000000000E+00  0.45593999997E+02  0.45594000000E+02  0.51100000000E-03 0.  1.
         11   -1    0    0    0    0 -0.00000000000E+00 -0.00000000000E+00 -0.45593999997E+02  0.45594000000E+02  0.51100000000E-03 0. -1.
    9900012    2    1    2    0    0 -0.23647653721E+02  0.33894916522E+02  0.13249389971E+02  0.47787271583E+02  0.20000002454E+02 0.  0.
         12    1    1    2    0    0  0.23647653721E+02 -0.33894916522E+02 -0.13249389971E+02  0.43400728417E+02  0.00000000000E+00 0. -1.
         11    1    3    3    0    0 -0.26777215116E+01  0.11256119484E+00 -0.38687157659E+00  0.27078649143E+01  0.51100000000E-03 0. -1.
        -11    1    3    3    0    0 -0.17992763997E+02  0.14899022692E+02  0.10862444090E+02  0.25762630403E+02  0.51100000000E-03 0.  1.
         12    1    3    3    0    0 -0.29771682120E+01  0.18883332636E+02  0.27738174579E+01  0.19316776265E+02  0.00000000000E+00 0. -1.
</event>
<event>
 7    1  0.2733256E-010  0.4778727E+02  0.7816164E-02  0.1312668E+00
        -11   -1    0    0    0    0  0.00000000000E+00  0.00000000000E+00  0.45593999997E+02  0.45594000000E+02  0.51100000000E-03 0. -1.
         11   -1    0    0    0    0 -0.00000000000E+00 -0.00000000000E+00 -0.45593999997E+02  0.45594000000E+02  0.51100000000E-03 0.  1.
    9900012    2    1    2    0    0  0.57872952026E+01  0.41320273044E+02 -0.11948454049E+02  0.47787270694E+02  0.19999998401E+02 0.  0.
         12    1    1    2    0    0 -0.57872952026E+01 -0.41320273044E+02  0.11948454049E+02  0.43400729306E+02  0.00000000000E+00 0. -1.
         11    1    3    3    0    0  0.58307663651E+00  0.59156014056E+01 -0.73433505850E+01  0.94477042941E+01  0.51100000000E-03 0. -1.
        -11    1    3    3    0    0 -0.28116185251E+01  0.14299381712E+01 -0.35661210167E+00  0.31744439444E+01  0.51100000000E-03 0.  1.
        -12    1    3    3    0    0  0.80158370912E+01  0.33974733467E+02 -0.42484913621E+01  0.35165122455E+02  0.00000000000E+00 0.  1.
</event>
<event>
 7    1  0.2733256E-010  0.4778727E+02  0.7816164E-02  0.1312668E+00
        -11   -1    0    0    0    0  0.00000000000E+00  0.00000000000E+00  0.45593999997E+02  0.45594000000E+02  0.51100000000E-03 0. -1.
         11   -1    0    0    0    0 -0.00000000000E+00 -0.00000000000E+00 -0.45593999997E+02  0.45594000000E+02  0.51100000000E-03 0.  1.
    9900012    2    1    2    0    0  0.34090675989E+02  0.26398593345E+02  0.49561285858E+01  0.47787272695E+02  0.20000007528E+02 0.  0.
         12    1    1    2    0    0 -0.34090675989E+02 -0.26398593345E+02 -0.49561285858E+01  0.43400727305E+02  0.00000000000E+00 0. -1.
         11    1    3    3    0    0  0.26976420548E+02  0.17144835467E+02  0.11133451518E+02  0.33847103151E+02  0.51100000000E-03 0. -1.
        -11    1    3    3    0    0  0.21692982080E+01  0.20588846749E+00 -0.90631233853E+00  0.23600099772E+01  0.51100000000E-03 0.  1.
         12    1    3    3    0    0  0.49449572327E+01  0.90478694113E+01 -0.52710105936E+01  0.11580159567E+02  0.00000000000E+00 0. -1.
</event>
<event>
 7    1  0.2733256E-010  0.4778728E+02  0.7816164E-02  0.1312668E+00
        -11   -1    0    0    0    0  0.00000000000E+00  0.00000000000E+00  0.45593999997E+02  0.45594000000E+02  0.51100000000E-03 0.  1.
         11   -1    0    0    0    0 -0.00000000000E+00 -0.00000000000E+00 -0.45593999997E+02  0.45594000000E+02  0.51100000000E-03 0. -1.
    9900012    2    1    2    0    0  0.13635432591E+02 -0.12924173055E+01  0.41182853550E+02  0.47787276608E+02  0.20000025365E+02 0.  0.
         12    1    1    2    0    0 -0.13635432591E+02  0.12924173055E+01 -0.41182853550E+02  0.43400723392E+02  0.00000000000E+00 0. -1.
         11    1    3    3    0    0 -0.16873890262E+01 -0.11223038008E+01  0.63736600473E+01  0.66880782147E+01  0.51100000000E-03 0. -1.
        -11    1    3    3    0    0  0.52665526612E+01  0.12689040296E+00  0.29014884163E+02  0.29489255354E+02  0.51100000000E-03 0.  1.
        -12    1    3    3    0    0  0.10056268956E+02 -0.29700390766E+00  0.57943093401E+01  0.11609943039E+02  0.00000000000E+00 0.  1.
</event>
<event>
 7    1  0.2733256E-010  0.4778729E+02  0.7816164E-02  0.1312668E+00
        -11   -1    0    0    0    0  0.00000000000E+00  0.00000000000E+00  0.45593999997E+02  0.45594000000E+02  0.51100000000E-03 0.  1.
         11   -1    0    0    0    0 -0.00000000000E+00 -0.00000000000E+00 -0.45593999997E+02  0.45594000000E+02  0.51100000000E-03 0. -1.
    9900012    2    1    2    0    0 -0.10386034171E+02 -0.32311587140E+02  0.27050199303E+02  0.47787289734E+02  0.20000085212E+02 0.  0.
         12    1    1    2    0    0  0.10386034171E+02  0.32311587140E+02 -0.27050199303E+02  0.43400710266E+02  0.00000000000E+00 0. -1.
         11    1    3    3    0    0 -0.63955548306E+01 -0.45598527054E+01 -0.57021260133E+00  0.78753108483E+01  0.51100000000E-03 0. -1.
        -11    1    3    3    0    0  0.18017640289E+01 -0.44887766811E+01  0.45145208971E+01  0.66163712789E+01  0.51100000000E-03 0.  1.
         12    1    3    3    0    0 -0.57922433695E+01 -0.23262957753E+02  0.23105891007E+02  0.33295607607E+02  0.00000000000E+00 0. -1.
</event>
<event>
 7    1  0.2733256E-010  0.4778728E+02  0.7816164E-02  0.1312668E+00
        -11   -1    0    0    0    0  0.00000000000E+00  0.00000000000E+00  0.45593999997E+02  0.45594000000E+02  0.51100000000E-03 0.  1.
         11   -1    0    0    0    0 -0.00000000000E+00 -0.00000000000E+00 -0.45593999997E+02  0.45594000000E+02  0.51100000000E-03 0. -1.
    9900012    2    1    2    0    0 -0.35978193344E+02 -0.12827897775E+02  0.20606728642E+02  0.47787278544E+02  0.20000034192E+02 0.  0.
         12    1    1    2    0    0  0.35978193344E+02  0.12827897775E+02 -0.20606728642E+02  0.43400721456E+02  0.00000000000E+00 0. -1.
         11    1    3    3    0    0 -0.84472938114E+01 -0.19170945843E+01 -0.15086095218E+01  0.87924926688E+01  0.51100000000E-03 0. -1.
        -11    1    3    3    0    0 -0.26535877899E+01 -0.48847736993E+00 -0.15505121152E+01  0.31119489681E+01  0.51100000000E-03 0.  1.
        -12    1    3    3    0    0 -0.24877311742E+02 -0.10422325821E+02  0.23665850279E+02  0.35882836907E+02  0.00000000000E+00 0.  1.
</event>
<event>
 7    1  0.2733256E-010  0.4778727E+02  0.7816164E-02  0.1312668E+00
        -11   -1    0    0    0    0  0.00000000000E+00  0.00000000000E+00  0.45593999997E+02  0.45594000000E+02  0.51100000000E-03 0.  1.
         11   -1    0    0    0    0 -0.00000000000E+00 -0.00000000000E+00 -0.45593999997E+02  0.45594000000E+02  0.51100000000E-03 0. -1.
    9900012    2    1    2    0    0 -0.16393637712E+02  0.25429451568E+02  0.31116153106E+02  0.47787270184E+02  0.19999996075E+02 0.  0.
         12    1    1    2    0    0  0.16393637712E+02 -0.25429451568E+02 -0.31116153106E+02  0.43400729816E+02  0.00000000000E+00 0. -1.
         11    1    3    3    0    0  0.18587086681E+01  0.29761174097E+00  0.85954839167E+00  0.20693463606E+01  0.51100000000E-03 0. -1.
        -11    1    3    3    0    0 -0.35660664674E+01  0.11578350567E+02  0.19672191591E+02  0.23103466280E+02  0.51100000000E-03 0.  1.
         12    1    3    3    0    0 -0.14686279913E+02  0.13553489259E+02  0.10584413124E+02  0.22614457543E+02  0.00000000000E+00 0. -1.
</event>
<event>
 7    1  0.2733256E-010  0.4778727E+02  0.7816164E-02  0.1312668E+00
        -11   -1    0    0    0    0  0.00000000000E+00  0.00000000000E+00  0.45593999997E+02  0.45594000000E+02  0.51100000000E-03 0. -1.
         11   -1    0    0    0    0 -0.00000000000E+00 -0.00000000000E+00 -0.45593999997E+02  0.45594000000E+02  0.51100000000E-03 0.  1.
    9900012    2    1    2    0    0  0.11608595857E+02 -0.18739567955E+02 -0.37385720219E+02  0.47787274416E+02  0.20000015374E+02 0.  0.
         12    1    1    2    0    0 -0.11608595857E+02  0.18739567955E+02  0.37385720219E+02  0.43400725584E+02  0.00000000000E+00 0. -1.
         11    1    3    3    0    0  0.10311147427E+01 -0.71452819029E+01 -0.50463041482E+01  0.88081460537E+01  0.51100000000E-03 0. -1.
        -11    1    3    3    0    0  0.10516347362E+01 -0.11922583602E+02 -0.20946716766E+02  0.24125067438E+02  0.51100000000E-03 0.  1.
        -12    1    3    3    0    0  0.95258463783E+01  0.32829754994E+00 -0.11392699305E+02  0.14854060924E+02  0.00000000000E+00 0.  1.
</event>
<event>
 7    1  0.2733256E-010  0.4778728E+02  0.7816164E-02  0.1312668E+00
        -11   -1    0    0    0    0  0.00000000000E+00  0.00000000000E+00  0.45593999997E+02  0.45594000000E+02  0.51100000000E-03 0. -1.
         11   -1    0    0    0    0 -0.00000000000E+00 -0.00000000000E+00 -0.45593999997E+02  0.45594000000E+02  0.51100000000E-03 0.  1.
    9900012    2    1    2    0    0  0.10632293083E+02 -0.14093436643E+02 -0.39647851832E+02  0.47787276878E+02  0.20000026599E+02 0.  0.
         12    1    1    2    0    0 -0.10632293083E+02  0.14093436643E+02  0.39647851832E+02  0.43400723122E+02  0.00000000000E+00 0. -1.
         11    1    3    3    0    0 -0.23729045390E+01 -0.16285273902E+01 -0.78437841095E+01  0.83551018444E+01  0.51100000000E-03 0. -1.
        -11    1    3    3    0    0 -0.23451706781E+01 -0.13246704054E+01 -0.10804535828E+02  0.11135195189E+02  0.51100000000E-03 0.  1.
        -12    1    3    3    0    0  0.15350368300E+02 -0.11140238848E+02 -0.20999531894E+02  0.28296979844E+02  0.00000000000E+00 0.  1.
</event>
<event>
 7    1  0.2733256E-010  0.4778727E+02  0.7816164E-02  0.1312668E+00
        -11   -1    0    0    0    0  0.00000000000E+00  0.00000000000E+00  0.45593999997E+02  0.45594000000E+02  0.51100000000E-03 0.  1.
         11   -1    0    0    0    0 -0.00000000000E+00 -0.00000000000E+00 -0.45593999997E+02  0.45594000000E+02  0.51100000000E-03 0. -1.
    9900012    2    1    2    0    0 -0.98228627237E+01  0.31375641786E+02  0.28332029149E+02  0.47787269531E+02  0.19999993099E+02 0.  0.
         12    1    1    2    0    0  0.98228627237E+01 -0.31375641786E+02 -0.28332029149E+02  0.43400730469E+02  0.00000000000E+00 0. -1.
         11    1    3    3    0    0 -0.98843075561E+01  0.97356025563E+01  0.10926942683E+02  0.17660112391E+02  0.51100000000E-03 0. -1.
        -11    1    3    3    0    0 -0.44047730211E+01  0.81167480390E+01  0.11399962708E+02  0.14671154491E+02  0.51100000000E-03 0.  1.
         12    1    3    3    0    0  0.44662178534E+01  0.13523291191E+02  0.60051237578E+01  0.15456002649E+02  0.00000000000E+00 0. -1.
</event>
<event>
 7    1  0.2733256E-010  0.4778726E+02  0.7816164E-02  0.1312668E+00
        -11   -1    0    0    0    0  0.00000000000E+00  0.00000000000E+00  0.45593999997E+02  0.45594000000E+02  0.51100000000E-03 0.  1.
         11   -1    0    0    0    0 -0.00000000000E+00 -0.00000000000E+00 -0.45593999997E+02  0.45594000000E+02  0.51100000000E-03 0. -1.
    9900012    2    1    2    0    0 -0.32265901065E+02 -0.25481418672E+02  0.13900841765E+02  0.47787257255E+02  0.19999937127E+02 0.  0.
         12    1    1    2    0    0  0.32265901065E+02  0.25481418672E+02 -0.13900841765E+02  0.43400742745E+02  0.00000000000E+00 0. -1.
         11    1    3    3    0    0 -0.21076608109E+01  0.70982911424E+00 -0.22533656957E+01  0.31660304302E+01  0.51100000000E-03 0. -1.
        -11    1    3    3    0    0 -0.94629906717E+01 -0.12866100004E+02  0.11217152089E+02  0.19516895835E+02  0.51100000000E-03 0.  1.
         12    1    3    3    0    0 -0.20695249583E+02 -0.13325147782E+02  0.49370553712E+01  0.25104330990E+02  0.00000000000E+00 0. -1.
</event>
<event>
 7    1  0.2733256E-010  0.4778727E+02  0.7816164E-02  0.1312668E+00
        -11   -1    0    0    0    0  0.00000000000E+00  0.00000000000E+00  0.45593999997E+02  0.45594000000E+02  0.51100000000E-03 0.  1.
         11   -1    0    0    0    0 -0.00000000000E+00 -0.00000000000E+00 -0.45593999997E+02  0.45594000000E+02  0.51100000000E-03 0. -1.
    9900012    2    1    2    0    0 -0.42804926214E+02  0.71454177471E+01  0.55197261079E+00  0.47787269859E+02  0.19999994596E+02 0.  0.
         12    1    1    2    0    0  0.42804926214E+02 -0.71454177471E+01 -0.55197261079E+00  0.43400730141E+02  0.00000000000E+00 0. -1.
         11    1    3    3    0    0 -0.25551448077E-01  0.17447118285E+01  0.15411320515E+01  0.23280379083E+01  0.51100000000E-03 0. -1.
        -11    1    3    3    0    0 -0.26884092471E+02  0.58568679837E+01  0.58820318882E+01  0.28136375565E+02  0.51100000000E-03 0.  1.
         12    1    3    3    0    0 -0.15895282295E+02 -0.45616206511E+00 -0.68711913289E+01  0.17322856386E+02  0.00000000000E+00 0. -1.
</event>
<event>
 7    1  0.2733256E-010  0.4778726E+02  0.7816164E-02  0.1312668E+00
        -11   -1    0    0    0    0  0.00000000000E+00  0.00000000000E+00  0.45593999997E+02  0.45594000000E+02  0.51100000000E-03 0. -1.
         11   -1    0    0    0    0 -0.00000000000E+00 -0.00000000000E+00 -0.45593999997E+02  0.45594000000E+02  0.51100000000E-03 0.  1.
    9900012    2    1    2    0    0  0.32300387276E+02 -0.22986292679E+02 -0.17661820233E+02  0.47787256191E+02  0.19999932275E+02 0.  0.
         12    1    1    2    0    0 -0.32300387276E+02  0.22986292679E+02  0.17661820233E+02  0.43400743809E+02  0.00000000000E+00 0. -1.
         11    1    3    3    0    0  0.31541378144E+01 -0.29785911234E+01 -0.63472807155E+01  0.76882093608E+01  0.51100000000E-03 0. -1.
        -11    1    3    3    0    0  0.41440446180E+01 -0.93873374606E+01 -0.74063061386E+01  0.12654982468E+02  0.51100000000E-03 0.  1.
         12    1    3    3    0    0  0.25002204843E+02 -0.10620364095E+02 -0.39082333791E+01  0.27444064361E+02  0.00000000000E+00 0. -1.
</event>
<event>
 7    1  0.2733256E-010  0.4778727E+02  0.7816164E-02  0.1312668E+00
        -11   -1    0    0    0    0  0.00000000000E+00  0.00000000000E+00  0.45593999997E+02  0.45594000000E+02  0.51100000000E-03 0.  1.
         11   -1    0    0    0    0 -0.00000000000E+00 -0.00000000000E+00 -0.45593999997E+02  0.45594000000E+02  0.51100000000E-03 0. -1.
    9900012    2    1    2    0    0  0.33216500533E+02  0.16778807994E+02  0.22332906870E+02  0.47787273800E+02  0.20000012565E+02 0.  0.
         12    1    1    2    0    0 -0.33216500533E+02 -0.16778807994E+02 -0.22332906870E+02  0.43400726200E+02  0.00000000000E+00 0. -1.
         11    1    3    3    0    0  0.68969247653E+00 -0.87311682097E+00  0.17814733646E+01  0.21003943213E+01  0.51100000000E-03 0. -1.
        -11    1    3    3    0    0  0.34655773665E+02  0.16662351324E+02  0.19486319402E+02  0.43108853430E+02  0.51100000000E-03 0.  1.
        -12    1    3    3    0    0 -0.21289656081E+01  0.98957349159E+00  0.10651141042E+01  0.25780260493E+01  0.00000000000E+00 0.  1.
</event>
<event>
 7    1  0.2733256E-010  0.4778727E+02  0.7816164E-02  0.1312668E+00
        -11   -1    0    0    0    0  0.00000000000E+00  0.00000000000E+00  0.45593999997E+02  0.45594000000E+02  0.51100000000E-03 0.  1.
         11   -1    0    0    0    0 -0.00000000000E+00 -0.00000000000E+00 -0.45593999997E+02  0.45594000000E+02  0.51100000000E-03 0. -1.
    9900012    2    1    2    0    0  0.34537974140E+02  0.26196005953E+02 -0.21262847915E+01  0.47787268755E+02  0.19999989560E+02 0.  0.
         12    1    1    2    0    0 -0.34537974140E+02 -0.26196005953E+02  0.21262847915E+01  0.43400731245E+02  0.00000000000E+00 0. -1.
         11    1    3    3    0    0  0.13945605905E+02  0.14275961615E+02  0.24998143201E+01  0.20112982772E+02  0.51100000000E-03 0.  1.
        -11    1    3    3    0    0 -0.11964056319E+01  0.17491127274E-01  0.16758196871E+01  0.20591416319E+01  0.51100000000E-03 0. -1.
        -12    1    3    3    0    0  0.21788773867E+02  0.11902553211E+02 -0.63019187987E+01  0.25615144351E+02  0.00000000000E+00 0.  1.
</event>
<event>
 7    1  0.2733256E-010  0.4778729E+02  0.7816164E-02  0.1312668E+00
        -11   -1    0    0    0    0  0.00000000000E+00  0.00000000000E+00  0.45593999997E+02  0.45594000000E+02  0.51100000000E-03 0.  1.
         11   -1    0    0    0    0 -0.00000000000E+00 -0.00000000000E+00 -0.45593999997E+02  0.45594000000E+02  0.51100000000E-03 0. -1.
    9900012    2    1    2    0    0 -0.66765941365E-01 -0.10286261020E+02  0.42164082324E+02  0.47787291922E+02  0.20000095189E+02 0.  0.
         12    1    1    2    0    0  0.66765941365E-01  0.10286261020E+02 -0.42164082324E+02  0.43400708078E+02  0.00000000000E+00 0. -1.
         11    1    3    3    0    0 -0.18179621285E+01 -0.64456427282E-01  0.11588526877E+01  0.21568682724E+01  0.51100000000E-03 0. -1.
        -11    1    3    3    0    0  0.44269841207E+01 -0.14389343406E+02  0.30218347516E+02  0.33760922957E+02  0.51100000000E-03 0.  1.
        -12    1    3    3    0    0 -0.26757879336E+01  0.41675388127E+01  0.10786882119E+02  0.11869500692E+02  0.00000000000E+00 0.  1.
</event>
<event>
 7    1  0.2733256E-010  0.4778725E+02  0.7816164E-02  0.1312668E+00
        -11   -1    0    0    0    0  0.00000000000E+00  0.00000000000E+00  0.45593999997E+02  0.45594000000E+02  0.51100000000E-03 0.  1.
         11   -1    0    0    0    0 -0.00000000000E+00 -0.00000000000E+00 -0.45593999997E+02  0.45594000000E+02  0.51100000000E-03 0. -1.
    9900012    2    1    2    0    0 -0.15284016278E+02  0.57168361238E+01  0.40216183063E+02  0.47787254050E+02  0.19999922517E+02 0.  0.
         12    1    1    2    0    0  0.15284016278E+02 -0.57168361238E+01 -0.40216183063E+02  0.43400745950E+02  0.00000000000E+00 0. -1.
         11    1    3    3    0    0 -0.89564426553E+01 -0.25968473178E+01  0.13219480030E+02  0.16177643016E+02  0.51100000000E-03 0. -1.
        -11    1    3    3    0    0 -0.98769084357E+01  0.42672284881E+01  0.14990013332E+02  0.18451641097E+02  0.51100000000E-03 0.  1.
         12    1    3    3    0    0  0.35493348131E+01  0.40464549535E+01  0.12006689700E+02  0.13157969937E+02  0.00000000000E+00 0. -1.
</event>
<event>
 7    1  0.2733256E-010  0.4778727E+02  0.7816164E-02  0.1312668E+00
        -11   -1    0    0    0    0  0.00000000000E+00  0.00000000000E+00  0.45593999997E+02  0.45594000000E+02  0.51100000000E-03 0.  1.
         11   -1    0    0    0    0 -0.00000000000E+00 -0.00000000000E+00 -0.45593999997E+02  0.45594000000E+02  0.51100000000E-03 0. -1.
    9900012    2    1    2    0    0  0.22134340896E+02 -0.20851014387E+02  0.30966587610E+02  0.47787269637E+02  0.19999993581E+02 0.  0.
         12    1    1    2    0    0 -0.22134340896E+02  0.20851014387E+02 -0.30966587610E+02  0.43400730363E+02  0.00000000000E+00 0. -1.
         11    1    3    3    0    0  0.21203066535E+01 -0.49968196576E+00 -0.12668658057E+01  0.25199864290E+01  0.51100000000E-03 0. -1.
        -11    1    3    3    0    0  0.54901939004E+01  0.98992094387E+00  0.32576577398E+01  0.64602249768E+01  0.51100000000E-03 0.  1.
        -12    1    3    3    0    0  0.14523840342E+02 -0.21341253366E+02  0.28975795676E+02  0.38807058231E+02  0.00000000000E+00 0.  1.
</event>
<event>
 7    1  0.2733256E-010  0.4778725E+02  0.7816164E-02  0.1312668E+00
        -11   -1    0    0    0    0  0.00000000000E+00  0.00000000000E+00  0.45593999997E+02  0.45594000000E+02  0.51100000000E-03 0.  1.
         11   -1    0    0    0    0 -0.00000000000E+00 -0.00000000000E+00 -0.45593999997E+02  0.45594000000E+02  0.51100000000E-03 0. -1.
    9900012    2    1    2    0    0 -0.13724472619E+01 -0.42663479964E+02  0.78465867450E+01  0.47787250494E+02  0.19999906304E+02 0.  0.
         12    1    1    2    0    0  0.13724472619E+01  0.42663479964E+02 -0.78465867450E+01  0.43400749506E+02  0.00000000000E+00 0. -1.
         11    1    3    3    0    0  0.14116845637E+01 -0.48014376122E+01  0.32100996151E+01  0.59457040164E+01  0.51100000000E-03 0. -1.
        -11    1    3    3    0    0 -0.93153320236E+01 -0.23577741342E+02  0.60757022958E+01  0.26069128411E+02  0.51100000000E-03 0.  1.
         12    1    3    3    0    0  0.65312001981E+01 -0.14284301010E+02 -0.14392151659E+01  0.15772418067E+02  0.00000000000E+00 0. -1.
</event>
<event>
 7    1  0.2733256E-010  0.4778724E+02  0.7816164E-02  0.1312668E+00
        -11   -1    0    0    0    0  0.00000000000E+00  0.00000000000E+00  0.45593999997E+02  0.45594000000E+02  0.51100000000E-03 0.  1.
         11   -1    0    0    0    0 -0.00000000000E+00 -0.00000000000E+00 -0.45593999997E+02  0.45594000000E+02  0.51100000000E-03 0. -1.
    9900012    2    1    2    0    0 -0.11339288736E+02  0.36991252969E+02 -0.19664519392E+02  0.47787244383E+02  0.19999878438E+02 0.  0.
         12    1    1    2    0    0  0.11339288736E+02 -0.36991252969E+02  0.19664519392E+02  0.43400755617E+02  0.00000000000E+00 0. -1.
         11    1    3    3    0    0  0.94651362733E-01  0.12747240090E+02 -0.94693433775E+01  0.15879847388E+02  0.51100000000E-03 0.  1.
        -11    1    3    3    0    0  0.21662619335E+01  0.10800896272E+01  0.12323973724E+01  0.27162635940E+01  0.51100000000E-03 0. -1.
        -12    1    3    3    0    0 -0.13600202032E+02  0.23163923251E+02 -0.11427573387E+02  0.29191133401E+02  0.00000000000E+00 0.  1.
</event>
<event>
 7    1  0.2733256E-010  0.4778727E+02  0.7816164E-02  0.1312668E+00
        -11   -1    0    0    0    0  0.00000000000E+00  0.00000000000E+00  0.45593999997E+02  0.45594000000E+02  0.51100000000E-03 0. -1.
         11   -1    0    0    0    0 -0.00000000000E+00 -0.00000000000E+00 -0.45593999997E+02  0.45594000000E+02  0.51100000000E-03 0.  1.
    9900012    2    1    2    0    0  0.16657702845E+02 -0.40019755923E+02  0.21362160035E+01  0.47787270201E+02  0.19999996156E+02 0.  0.
         12    1    1    2    0    0 -0.16657702845E+02  0.40019755923E+02 -0.21362160035E+01  0.43400729799E+02  0.00000000000E+00 0. -1.
         11    1    3    3    0    0  0.16338862662E+00  0.11158938089E+01  0.13194530691E+01  0.17357625122E+01  0.51100000000E-03 0. -1.
        -11    1    3    3    0    0  0.11148494376E+02 -0.12678850059E+02  0.24038861411E+01  0.17053469867E+02  0.51100000000E-03 0.  1.
        -12    1    3    3    0    0  0.53458198423E+01 -0.28456799674E+02 -0.15871232067E+01  0.28998037822E+02  0.00000000000E+00 0.  1.
</event>
<event>
 7    1  0.2733256E-010  0.4778727E+02  0.7816164E-02  0.1312668E+00
        -11   -1    0    0    0    0  0.00000000000E+00  0.00000000000E+00  0.45593999997E+02  0.45594000000E+02  0.51100000000E-03 0. -1.
         11   -1    0    0    0    0 -0.00000000000E+00 -0.00000000000E+00 -0.45593999997E+02  0.45594000000E+02  0.51100000000E-03 0.  1.
    9900012    2    1    2    0    0 -0.41936499449E+02  0.11158678426E+02  0.66122971954E+00  0.47787270571E+02  0.19999997841E+02 0.  0.
         12    1    1    2    0    0  0.41936499449E+02 -0.11158678426E+02 -0.66122971954E+00  0.43400729429E+02  0.00000000000E+00 0. -1.
         11    1    3    3    0    0 -0.11076724873E+02  0.29278875883E+01  0.66771964646E+00  0.11476593982E+02  0.51100000000E-03 0. -1.
        -11    1    3    3    0    0 -0.22833179664E+02  0.13558104062E+02 -0.13199331586E+01  0.26587939053E+02  0.51100000000E-03 0.  1.
         12    1    3    3    0    0 -0.80265949120E+01 -0.53273132235E+01  0.13134432317E+01  0.97227375356E+01  0.00000000000E+00 0. -1.
</event>
<event>
 7    1  0.2733256E-010  0.4778727E+02  0.7816164E-02  0.1312668E+00
        -11   -1    0    0    0    0  0.00000000000E+00  0.00000000000E+00  0.45593999997E+02  0.45594000000E+02  0.51100000000E-03 0.  1.
         11   -1    0    0    0    0 -0.00000000000E+00 -0.00000000000E+00 -0.45593999997E+02  0.45594000000E+02  0.51100000000E-03 0. -1.
    9900012    2    1    2    0    0  0.38569309401E+02  0.18737815286E+02  0.67026631783E+01  0.47787273704E+02  0.20000012126E+02 0.  0.
         12    1    1    2    0    0 -0.38569309401E+02 -0.18737815286E+02 -0.67026631783E+01  0.43400726296E+02  0.00000000000E+00 0. -1.
         11    1    3    3    0    0  0.38074730367E+01  0.82179278499E+01 -0.15459570196E+01  0.91880995009E+01  0.51100000000E-03 0. -1.
        -11    1    3    3    0    0  0.88089377625E+01  0.40810191404E+00 -0.17787202020E+01  0.89959867437E+01  0.51100000000E-03 0.  1.
        -12    1    3    3    0    0  0.25952898602E+02  0.10111785522E+02  0.10027340400E+02  0.29603187459E+02  0.00000000000E+00 0.  1.
</event>
<event>
 7    1  0.2733256E-010  0.4778727E+02  0.7816164E-02  0.1312668E+00
        -11   -1    0    0    0    0  0.00000000000E+00  0.00000000000E+00  0.45593999997E+02  0.45594000000E+02  0.51100000000E-03 0. -1.
         11   -1    0    0    0    0 -0.00000000000E+00 -0.00000000000E+00 -0.45593999997E+02  0.45594000000E+02  0.51100000000E-03 0.  1.
    9900012    2    1    2    0    0 -0.23299066764E+02 -0.36215152708E+02  0.54073621893E+01  0.47787270011E+02  0.19999995287E+02 0.  0.
         12    1    1    2    0    0  0.23299066764E+02  0.36215152708E+02 -0.54073621893E+01  0.43400729989E+02  0.00000000000E+00 0. -1.
         11    1    3    3    0    0 -0.25093033514E+02 -0.33093975632E+02  0.52586404397E+01  0.41863168223E+02  0.51100000000E-03 0. -1.
        -11    1    3    3    0    0 -0.98470172732E-01 -0.31535045291E+01 -0.14256493368E+01  0.34621905613E+01  0.51100000000E-03 0.  1.
         12    1    3    3    0    0  0.18924369230E+01  0.32327453225E-01  0.15743710865E+01  0.24619112270E+01  0.00000000000E+00 0. -1.
</event>
<event>
 7    1  0.2733256E-010  0.4778727E+02  0.7816164E-02  0.1312668E+00
        -11   -1    0    0    0    0  0.00000000000E+00  0.00000000000E+00  0.45593999997E+02  0.45594000000E+02  0.51100000000E-03 0. -1.
         11   -1    0    0    0    0 -0.00000000000E+00 -0.00000000000E+00 -0.45593999997E+02  0.45594000000E+02  0.51100000000E-03 0.  1.
    9900012    2    1    2    0    0  0.22519191446E+02  0.10485617000E+02 -0.35588774891E+02  0.47787273676E+02  0.20000011997E+02 0.  0.
         12    1    1    2    0    0 -0.22519191446E+02 -0.10485617000E+02  0.35588774891E+02  0.43400726324E+02  0.00000000000E+00 0. -1.
         11    1    3    3    0    0  0.17176026451E+02  0.44646136025E+01 -0.22253882279E+02  0.28463730184E+02  0.51100000000E-03 0.  1.
        -11    1    3    3    0    0  0.16397551773E+01  0.13113127843E+01 -0.13163328647E+02  0.13329724663E+02  0.51100000000E-03 0. -1.
         12    1    3    3    0    0  0.37034098181E+01  0.47096906134E+01 -0.17156396469E+00  0.59938188285E+01  0.00000000000E+00 0. -1.
</event>
<event>
 7    1  0.2733256E-010  0.4778727E+02  0.7816164E-02  0.1312668E+00
        -11   -1    0    0    0    0  0.00000000000E+00  0.00000000000E+00  0.45593999997E+02  0.45594000000E+02  0.51100000000E-03 0.  1.
         11   -1    0    0    0    0 -0.00000000000E+00 -0.00000000000E+00 -0.45593999997E+02  0.45594000000E+02  0.51100000000E-03 0. -1.
    9900012    2    1    2    0    0  0.27936211183E+02 -0.13237143635E+02  0.30462589891E+02  0.47787271322E+02  0.20000001265E+02 0.  0.
         12    1    1    2    0    0 -0.27936211183E+02  0.13237143635E+02 -0.30462589891E+02  0.43400728678E+02  0.00000000000E+00 0. -1.
         11    1    3    3    0    0 -0.89105128472E+00  0.13702755876E+00 -0.11026874127E+01  0.14243134259E+01  0.51100000000E-03 0. -1.
        -11    1    3    3    0    0  0.16908446066E+02 -0.22989888330E+01  0.20567147093E+02  0.26724304253E+02  0.51100000000E-03 0.  1.
         12    1    3    3    0    0  0.11918816402E+02 -0.11075182361E+02  0.10998130211E+02  0.19638653643E+02  0.00000000000E+00 0. -1.
</event>
<event>
 7    1  0.2733256E-010  0.4778727E+02  0.7816164E-02  0.1312668E+00
        -11   -1    0    0    0    0  0.00000000000E+00  0.00000000000E+00  0.45593999997E+02  0.45594000000E+02  0.51100000000E-03 0. -1.
         11   -1    0    0    0    0 -0.00000000000E+00 -0.00000000000E+00 -0.45593999997E+02  0.45594000000E+02  0.51100000000E-03 0.  1.
    9900012    2    1    2    0    0  0.28569402215E+02 -0.29557006764E+02  0.13921070970E+02  0.47787267187E+02  0.19999982412E+02 0.  0.
         12    1    1    2    0    0 -0.28569402215E+02  0.29557006764E+02 -0.13921070970E+02  0.43400732813E+02  0.00000000000E+00 0. -1.
         11    1    3    3    0    0  0.63986426099E+00 -0.30516985038E+00 -0.31500898931E+01  0.32288731015E+01  0.51100000000E-03 0. -1.
        -11    1    3    3    0    0  0.10165394265E+02 -0.57004715542E+01  0.51226466959E+01  0.12730755120E+02  0.51100000000E-03 0.  1.
         12    1    3    3    0    0  0.17764143689E+02 -0.23551365359E+02  0.11948514167E+02  0.31827638965E+02  0.00000000000E+00 0. -1.
</event>
<event>
 7    1  0.2733256E-010  0.4778727E+02  0.7816164E-02  0.1312668E+00
        -11   -1    0    0    0    0  0.00000000000E+00  0.00000000000E+00  0.45593999997E+02  0.45594000000E+02  0.51100000000E-03 0.  1.
         11   -1    0    0    0    0 -0.00000000000E+00 -0.00000000000E+00 -0.45593999997E+02  0.45594000000E+02  0.51100000000E-03 0. -1.
    9900012    2    1    2    0    0  0.30223471961E+02 -0.27833575523E+02  0.13980592449E+02  0.47787272483E+02  0.20000006557E+02 0.  0.
         12    1    1    2    0    0 -0.30223471961E+02  0.27833575523E+02 -0.13980592449E+02  0.43400727517E+02  0.00000000000E+00 0. -1.
         11    1    3    3    0    0  0.35445715261E+01 -0.49992221201E+01 -0.35532072823E+01  0.70838895645E+01  0.51100000000E-03 0. -1.
        -11    1    3    3    0    0  0.40989387736E+01 -0.97423311327E+01  0.39878876682E+01  0.11296794381E+02  0.51100000000E-03 0.  1.
        -12    1    3    3    0    0  0.22579961662E+02 -0.13092022271E+02  0.13545912063E+02  0.29406588537E+02  0.00000000000E+00 0.  1.
</event>
<event>
 7    1  0.2733256E-010  0.4778727E+02  0.7816164E-02  0.1312668E+00
        -11   -1    0    0    0    0  0.00000000000E+00  0.00000000000E+00  0.45593999997E+02  0.45594000000E+02  0.51100000000E-03 0. -1.
         11   -1    0    0    0    0 -0.00000000000E+00 -0.00000000000E+00 -0.45593999997E+02  0.45594000000E+02  0.51100000000E-03 0.  1.
    9900012    2    1    2    0    0  0.41372298059E+02 -0.54125878995E+01 -0.11944052227E+02  0.47787268001E+02  0.19999986122E+02 0.  0.
         12    1    1    2    0    0 -0.41372298059E+02  0.54125878995E+01  0.11944052227E+02  0.43400731999E+02  0.00000000000E+00 0. -1.
         11    1    3    3    0    0  0.75368603840E+01  0.83180933895E-02  0.34654927763E+01  0.82954188612E+01  0.51100000000E-03 0. -1.
        -11    1    3    3    0    0  0.29554752306E+02 -0.84070060891E+01 -0.15167837725E+02  0.34266958383E+02  0.51100000000E-03 0.  1.
        -12    1    3    3    0    0  0.42806853691E+01  0.29861000961E+01 -0.24170727791E+00  0.52248907569E+01  0.00000000000E+00 0.  1.
</event>
<event>
 7    1  0.2733256E-010  0.4778727E+02  0.7816164E-02  0.1312668E+00
        -11   -1    0    0    0    0  0.00000000000E+00  0.00000000000E+00  0.45593999997E+02  0.45594000000E+02  0.51100000000E-03 0.  1.
         11   -1    0    0    0    0 -0.00000000000E+00 -0.00000000000E+00 -0.45593999997E+02  0.45594000000E+02  0.51100000000E-03 0. -1.
    9900012    2    1    2    0    0 -0.21213003978E+02 -0.44505434484E+01  0.37600858737E+02  0.47787268986E+02  0.19999990615E+02 0.  0.
         12    1    1    2    0    0  0.21213003978E+02  0.44505434484E+01 -0.37600858737E+02  0.43400731014E+02  0.00000000000E+00 0. -1.
         11    1    3    3    0    0 -0.11729356181E+01 -0.19247581131E+01  0.51672769761E+00  0.23124617905E+01  0.51100000000E-03 0. -1.
        -11    1    3    3    0    0 -0.59970201377E+01 -0.72636099454E+01  0.63677172203E+01  0.11369789041E+02  0.51100000000E-03 0.  1.
        -12    1    3    3    0    0 -0.14043048222E+02  0.47378246100E+01  0.30716413819E+02  0.34105018155E+02  0.00000000000E+00 0.  1.
</event>
<event>
 7    1  0.2733256E-010  0.4778727E+02  0.7816164E-02  0.1312668E+00
        -11   -1    0    0    0    0  0.00000000000E+00  0.00000000000E+00  0.45593999997E+02  0.45594000000E+02  0.51100000000E-03 0.  1.
         11   -1    0    0    0    0 -0.00000000000E+00 -0.00000000000E+00 -0.45593999997E+02  0.45594000000E+02  0.51100000000E-03 0. -1.
    9900012    2    1    2    0    0  0.23186535549E+02  0.10595456415E+02  0.35124698718E+02  0.47787267432E+02  0.19999983531E+02 0.  0.
         12    1    1    2    0    0 -0.23186535549E+02 -0.10595456415E+02 -0.35124698718E+02  0.43400732568E+02  0.00000000000E+00 0. -1.
         11    1    3    3    0    0  0.12128985209E+02 -0.18902183264E+01  0.10012516157E+02  0.15840949706E+02  0.51100000000E-03 0. -1.
        -11    1    3    3    0    0  0.92829262696E+01  0.40201848101E+01  0.18401667477E+02  0.20998951694E+02  0.51100000000E-03 0.  1.
         12    1    3    3    0    0  0.17746240698E+01  0.84654899314E+01  0.67105150836E+01  0.10947366033E+02  0.00000000000E+00 0. -1.
</event>
<event>
 7    1  0.2733256E-010  0.4778727E+02  0.7816164E-02  0.1312668E+00
        -11   -1    0    0    0    0  0.00000000000E+00  0.00000000000E+00  0.45593999997E+02  0.45594000000E+02  0.51100000000E-03 0.  1.
         11   -1    0    0    0    0 -0.00000000000E+00 -0.00000000000E+00 -0.45593999997E+02  0.45594000000E+02  0.51100000000E-03 0. -1.
    9900012    2    1    2    0    0 -0.35445743584E+02 -0.85160031898E+00  0.25029931348E+02  0.47787269308E+02  0.19999992083E+02 0.  0.
         12    1    1    2    0    0  0.35445743584E+02  0.85160031898E+00 -0.25029931348E+02  0.43400730692E+02  0.00000000000E+00 0. -1.
         11    1    3    3    0    0 -0.23028710278E+02  0.11557792504E+01  0.16718452122E+02  0.28480940370E+02  0.51100000000E-03 0. -1.
        -11    1    3    3    0    0 -0.13788378624E+02 -0.10354156749E+01  0.98902806390E+01  0.17000268294E+02  0.51100000000E-03 0.  1.
         12    1    3    3    0    0  0.13713453174E+01 -0.97196389449E+00 -0.15788014132E+01  0.23060606441E+01  0.00000000000E+00 0. -1.
</event>
<event>
 7    1  0.2733256E-010  0.4778730E+02  0.7816164E-02  0.1312668E+00
        -11   -1    0    0    0    0  0.00000000000E+00  0.00000000000E+00  0.45593999997E+02  0.45594000000E+02  0.51100000000E-03 0. -1.
         11   -1    0    0    0    0 -0.00000000000E+00 -0.00000000000E+00 -0.45593999997E+02  0.45594000000E+02  0.51100000000E-03 0.  1.
    9900012    2    1    2    0    0 -0.43343200760E+02 -0.29328011427E+00 -0.22139064629E+01  0.47787303609E+02  0.20000148475E+02 0.  0.
         12    1    1    2    0    0  0.43343200760E+02  0.29328011427E+00  0.22139064629E+01  0.43400696391E+02  0.00000000000E+00 0. -1.
         11    1    3    3    0    0 -0.16635224777E+02 -0.56593284788E+01 -0.96660657045E+00  0.17598097362E+02  0.51100000000E-03 0.  1.
        -11    1    3    3    0    0 -0.77566931208E+01  0.75912262675E+01  0.13301157653E+01  0.10934450723E+02  0.51100000000E-03 0. -1.
         12    1    3    3    0    0 -0.18951282862E+02 -0.22251779030E+01 -0.25774156578E+01  0.19254755524E+02  0.00000000000E+00 0. -1.
</event>
<event>
 7    1  0.2733256E-010  0.4778727E+02  0.7816164E-02  0.1312668E+00
        -11   -1    0    0    0    0  0.00000000000E+00  0.00000000000E+00  0.45593999997E+02  0.45594000000E+02  0.51100000000E-03 0. -1.
         11   -1    0    0    0    0 -0.00000000000E+00 -0.00000000000E+00 -0.45593999997E+02  0.45594000000E+02  0.51100000000E-03 0.  1.
    9900012    2    1    2    0    0 -0.87135272465E+01  0.79702792693E+01 -0.41763288327E+02  0.47787272349E+02  0.20000005949E+02 0.  0.
         12    1    1    2    0    0  0.87135272465E+01 -0.79702792693E+01  0.41763288327E+02  0.43400727651E+02  0.00000000000E+00 0. -1.
         11    1    3    3    0    0  0.49049893816E+01  0.28848303384E+01 -0.17629625205E+02  0.18525249041E+02  0.51100000000E-03 0. -1.
        -11    1    3    3    0    0 -0.14033801113E+01 -0.11337744208E+01 -0.74713369236E+01  0.76860780546E+01  0.51100000000E-03 0.  1.
         12    1    3    3    0    0 -0.12215136517E+02  0.62192233518E+01 -0.16662326199E+02  0.21575945253E+02  0.00000000000E+00 0. -1.
</event>
<event>
 7    1  0.2733256E-010  0.4778726E+02  0.7816164E-02  0.1312668E+00
        -11   -1    0    0    0    0  0.00000000000E+00  0.00000000000E+00  0.45593999997E+02  0.45594000000E+02  0.51100000000E-03 0.  1.
         11   -1    0    0    0    0 -0.00000000000E+00 -0.00000000000E+00 -0.45593999997E+02  0.45594000000E+02  0.51100000000E-03 0. -1.
    9900012    2    1    2    0    0  0.29897554713E+02  0.29052526677E+02  0.12071076731E+02  0.47787262938E+02  0.19999963038E+02 0.  0.
         12    1    1    2    0    0 -0.29897554713E+02 -0.29052526677E+02 -0.12071076731E+02  0.43400737062E+02  0.00000000000E+00 0. -1.
         11    1    3    3    0    0  0.12331434403E+02  0.13577754985E+02  0.91714893840E+01  0.20506972537E+02  0.51100000000E-03 0. -1.
        -11    1    3    3    0    0  0.62304507112E+01  0.14459116582E+02  0.16169374098E+01  0.15827161945E+02  0.51100000000E-03 0.  1.
         12    1    3    3    0    0  0.11335669599E+02  0.10156551106E+01  0.12826499371E+01  0.11453128456E+02  0.00000000000E+00 0. -1.
</event>
<event>
 7    1  0.2733256E-010  0.4778728E+02  0.7816164E-02  0.1312668E+00
        -11   -1    0    0    0    0  0.00000000000E+00  0.00000000000E+00  0.45593999997E+02  0.45594000000E+02  0.51100000000E-03 0.  1.
         11   -1    0    0    0    0 -0.00000000000E+00 -0.00000000000E+00 -0.45593999997E+02  0.45594000000E+02  0.51100000000E-03 0. -1.
    9900012    2    1    2    0    0  0.15896007557E+02  0.37465561512E+02 -0.15075528727E+02  0.47787275098E+02  0.20000018480E+02 0.  0.
         12    1    1    2    0    0 -0.15896007557E+02 -0.37465561512E+02  0.15075528727E+02  0.43400724902E+02  0.00000000000E+00 0. -1.
         11    1    3    3    0    0  0.95051302731E+00  0.96489684238E+01 -0.82260170569E+01  0.12715086454E+02  0.51100000000E-03 0. -1.
        -11    1    3    3    0    0 -0.25325622399E+01  0.23073945232E+01 -0.13296114094E+00  0.34286469504E+01  0.51100000000E-03 0.  1.
        -12    1    3    3    0    0  0.17478056770E+02  0.25509198565E+02 -0.67165505293E+01  0.31643541693E+02  0.00000000000E+00 0.  1.
</event>
<event>
 7    1  0.2733256E-010  0.4778727E+02  0.7816164E-02  0.1312668E+00
        -11   -1    0    0    0    0  0.00000000000E+00  0.00000000000E+00  0.45593999997E+02  0.45594000000E+02  0.51100000000E-03 0.  1.
         11   -1    0    0    0    0 -0.00000000000E+00 -0.00000000000E+00 -0.45593999997E+02  0.45594000000E+02  0.51100000000E-03 0. -1.
    9900012    2    1    2    0    0  0.22747790023E+02  0.35346809580E+02  0.10805750594E+02  0.47787272537E+02  0.20000006804E+02 0.  0.
         12    1    1    2    0    0 -0.22747790023E+02 -0.35346809580E+02 -0.10805750594E+02  0.43400727463E+02  0.00000000000E+00 0. -1.
         11    1    3    3    0    0  0.54144710491E+01  0.17434895932E+01 -0.13292103812E+01  0.58414940898E+01  0.51100000000E-03 0. -1.
        -11    1    3    3    0    0  0.41587592301E+00  0.32252146497E+01  0.57317860969E+01  0.65900177876E+01  0.51100000000E-03 0.  1.
        -12    1    3    3    0    0  0.16917443051E+02  0.30378105337E+02  0.64031748786E+01  0.35355760659E+02  0.00000000000E+00 0.  1.
</event>
<event>
 7    1  0.2733256E-010  0.4778727E+02  0.7816164E-02  0.1312668E+00
        -11   -1    0    0    0    0  0.00000000000E+00  0.00000000000E+00  0.45593999997E+02  0.45594000000E+02  0.51100000000E-03 0.  1.
         11   -1    0    0    0    0 -0.00000000000E+00 -0.00000000000E+00 -0.45593999997E+02  0.45594000000E+02  0.51100000000E-03 0. -1.
    9900012    2    1    2    0    0  0.36716011178E+02  0.31045061820E+01  0.22932942045E+02  0.47787271131E+02  0.20000000397E+02 0.  0.
         12    1    1    2    0    0 -0.36716011178E+02 -0.31045061820E+01 -0.22932942045E+02  0.43400728869E+02  0.00000000000E+00 0. -1.
         11    1    3    3    0    0  0.26020120407E+01 -0.38698300118E+01  0.31071935988E+01  0.56036330449E+01  0.51100000000E-03 0. -1.
        -11    1    3    3    0    0  0.45644227892E+01  0.42365520177E+01  0.82342529540E+01  0.10324013288E+02  0.51100000000E-03 0.  1.
         12    1    3    3    0    0  0.29549576348E+02  0.27377841762E+01  0.11591495493E+02  0.31859624799E+02  0.00000000000E+00 0. -1.
</event>
<event>
 7    1  0.2733256E-010  0.4778729E+02  0.7816164E-02  0.1312668E+00
        -11   -1    0    0    0    0  0.00000000000E+00  0.00000000000E+00  0.45593999997E+02  0.45594000000E+02  0.51100000000E-03 0.  1.
         11   -1    0    0    0    0 -0.00000000000E+00 -0.00000000000E+00 -0.45593999997E+02  0.45594000000E+02  0.51100000000E-03 0. -1.
    9900012    2    1    2    0    0 -0.27853184680E+02 -0.18960999832E+02  0.27355114586E+02  0.47787289114E+02  0.20000082385E+02 0.  0.
         12    1    1    2    0    0  0.27853184680E+02  0.18960999832E+02 -0.27355114586E+02  0.43400710886E+02  0.00000000000E+00 0. -1.
         11    1    3    3    0    0 -0.31407721251E+01 -0.11245280938E+01  0.51445403056E+01  0.61315013001E+01  0.51100000000E-03 0. -1.
        -11    1    3    3    0    0 -0.23668285074E+02 -0.15616653730E+02  0.11385868733E+02  0.30556596655E+02  0.51100000000E-03 0.  1.
         12    1    3    3    0    0 -0.10441274804E+01 -0.22198180077E+01  0.10824705547E+02  0.11099191158E+02  0.00000000000E+00 0. -1.
</event>
<event>
 7    1  0.2733256E-010  0.4778727E+02  0.7816164E-02  0.1312668E+00
        -11   -1    0    0    0    0  0.00000000000E+00  0.00000000000E+00  0.45593999997E+02  0.45594000000E+02  0.51100000000E-03 0.  1.
         11   -1    0    0    0    0 -0.00000000000E+00 -0.00000000000E+00 -0.45593999997E+02  0.45594000000E+02  0.51100000000E-03 0. -1.
    9900012    2    1    2    0    0 -0.10646357399E+02  0.28893838803E+02  0.30584708302E+02  0.47787271566E+02  0.20000002379E+02 0.  0.
         12    1    1    2    0    0  0.10646357399E+02 -0.28893838803E+02 -0.30584708302E+02  0.43400728434E+02  0.00000000000E+00 0. -1.
         11    1    3    3    0    0 -0.20572010240E+01 -0.11399770248E+01  0.37634978927E+01  0.44379657862E+01  0.51100000000E-03 0. -1.
        -11    1    3    3    0    0 -0.20674669654E+01 -0.90841496741E+00  0.30196722731E+01  0.37706840632E+01  0.51100000000E-03 0.  1.
        -12    1    3    3    0    0 -0.65216894098E+01  0.30942230796E+02  0.23801538136E+02  0.39578621717E+02  0.00000000000E+00 0.  1.
</event>
<event>
 7    1  0.2733256E-010  0.4778727E+02  0.7816164E-02  0.1312668E+00
        -11   -1    0    0    0    0  0.00000000000E+00  0.00000000000E+00  0.45593999997E+02  0.45594000000E+02  0.51100000000E-03 0.  1.
         11   -1    0    0    0    0 -0.00000000000E+00 -0.00000000000E+00 -0.45593999997E+02  0.45594000000E+02  0.51100000000E-03 0. -1.
    9900012    2    1    2    0    0  0.30377223283E+02  0.11323324200E+02  0.28855328652E+02  0.47787270088E+02  0.19999995638E+02 0.  0.
         12    1    1    2    0    0 -0.30377223283E+02 -0.11323324200E+02 -0.28855328652E+02  0.43400729912E+02  0.00000000000E+00 0. -1.
         11    1    3    3    0    0  0.54837341311E+01  0.79949983693E+00  0.19393404861E-01  0.55417430809E+01  0.51100000000E-03 0. -1.
        -11    1    3    3    0    0  0.77996829079E+01 -0.28578985434E+01  0.12788089930E+02  0.15249192827E+02  0.51100000000E-03 0.  1.
        -12    1    3    3    0    0  0.17093806244E+02  0.13381722906E+02  0.16047845317E+02  0.26996334180E+02  0.00000000000E+00 0.  1.
</event>
<event>
 7    1  0.2733256E-010  0.4778727E+02  0.7816164E-02  0.1312668E+00
        -11   -1    0    0    0    0  0.00000000000E+00  0.00000000000E+00  0.45593999997E+02  0.45594000000E+02  0.51100000000E-03 0. -1.
         11   -1    0    0    0    0 -0.00000000000E+00 -0.00000000000E+00 -0.45593999997E+02  0.45594000000E+02  0.51100000000E-03 0.  1.
    9900012    2    1    2    0    0  0.24046144478E+02  0.36117519168E+02  0.96510947572E+00  0.47787266234E+02  0.19999978068E+02 0.  0.
         12    1    1    2    0    0 -0.24046144478E+02 -0.36117519168E+02 -0.96510947572E+00  0.43400733766E+02  0.00000000000E+00 0. -1.
         11    1    3    3    0    0  0.71133392779E+01  0.22293040023E+02 -0.37601867077E+00  0.23403431788E+02  0.51100000000E-03 0. -1.
        -11    1    3    3    0    0  0.89956107376E+01  0.13718994306E+02  0.11054778055E+01  0.16442441995E+02  0.51100000000E-03 0.  1.
        -12    1    3    3    0    0  0.79371944624E+01  0.10548483900E+00  0.23565034098E+00  0.79413924515E+01  0.00000000000E+00 0.  1.
</event>
<event>
 7    1  0.2733256E-010  0.4778727E+02  0.7816164E-02  0.1312668E+00
        -11   -1    0    0    0    0  0.00000000000E+00  0.00000000000E+00  0.45593999997E+02  0.45594000000E+02  0.51100000000E-03 0. -1.
         11   -1    0    0    0    0 -0.00000000000E+00 -0.00000000000E+00 -0.45593999997E+02  0.45594000000E+02  0.51100000000E-03 0.  1.
    9900012    2    1    2    0    0 -0.15816101613E+02  0.37946715491E+02 -0.13911192596E+02  0.47787267677E+02  0.19999984645E+02 0.  0.
         12    1    1    2    0    0  0.15816101613E+02 -0.37946715491E+02  0.13911192596E+02  0.43400732323E+02  0.00000000000E+00 0. -1.
         11    1    3    3    0    0 -0.54260545739E+00  0.74041379923E+01 -0.41855985101E+01  0.85226119963E+01  0.51100000000E-03 0. -1.
        -11    1    3    3    0    0 -0.89734034826E+00  0.19228858280E+02 -0.18205370171E+01  0.19335681156E+02  0.51100000000E-03 0.  1.
         12    1    3    3    0    0 -0.14376155807E+02  0.11313719218E+02 -0.79050570689E+01  0.19928974525E+02  0.00000000000E+00 0. -1.
</event>
<event>
 7    1  0.2733256E-010  0.4778727E+02  0.7816164E-02  0.1312668E+00
        -11   -1    0    0    0    0  0.00000000000E+00  0.00000000000E+00  0.45593999997E+02  0.45594000000E+02  0.51100000000E-03 0. -1.
         11   -1    0    0    0    0 -0.00000000000E+00 -0.00000000000E+00 -0.45593999997E+02  0.45594000000E+02  0.51100000000E-03 0.  1.
    9900012    2    1    2    0    0 -0.12002054781E+02  0.20239387776E+02 -0.36468359284E+02  0.47787269990E+02  0.19999995193E+02 0.  0.
         12    1    1    2    0    0  0.12002054781E+02 -0.20239387776E+02  0.36468359284E+02  0.43400730010E+02  0.00000000000E+00 0. -1.
         11    1    3    3    0    0  0.10795863440E+01  0.19271643660E+01  0.93257211091E+00  0.23977406388E+01  0.51100000000E-03 0. -1.
        -11    1    3    3    0    0 -0.98683879877E+01  0.76454964919E+01 -0.10640927268E+02  0.16403293312E+02  0.51100000000E-03 0.  1.
         12    1    3    3    0    0 -0.32132531371E+01  0.10666726918E+02 -0.26760004127E+02  0.28986236040E+02  0.00000000000E+00 0. -1.
</event>
<event>
 7    1  0.2733256E-010  0.4778728E+02  0.7816164E-02  0.1312668E+00
        -11   -1    0    0    0    0  0.00000000000E+00  0.00000000000E+00  0.45593999997E+02  0.45594000000E+02  0.51100000000E-03 0.  1.
         11   -1    0    0    0    0 -0.00000000000E+00 -0.00000000000E+00 -0.45593999997E+02  0.45594000000E+02  0.51100000000E-03 0. -1.
    9900012    2    1    2    0    0  0.24511324145E+02  0.63358376728E+01  0.35251592390E+02  0.47787278619E+02  0.20000034536E+02 0.  0.
         12    1    1    2    0    0 -0.24511324145E+02 -0.63358376728E+01 -0.35251592390E+02  0.43400721381E+02  0.00000000000E+00 0. -1.
         11    1    3    3    0    0  0.91808706492E+01 -0.16710383572E+01  0.76139600306E+01  0.12043801006E+02  0.51100000000E-03 0. -1.
        -11    1    3    3    0    0 -0.65385936478E+00 -0.16135319327E+00 -0.14296084731E+01  0.15802998353E+01  0.51100000000E-03 0.  1.
        -12    1    3    3    0    0  0.15984312860E+02  0.81682292232E+01  0.29067240833E+02  0.34163177778E+02  0.00000000000E+00 0.  1.
</event>
<event>
 7    1  0.2733256E-010  0.4778727E+02  0.7816164E-02  0.1312668E+00
        -11   -1    0    0    0    0  0.00000000000E+00  0.00000000000E+00  0.45593999997E+02  0.45594000000E+02  0.51100000000E-03 0.  1.
         11   -1    0    0    0    0 -0.00000000000E+00 -0.00000000000E+00 -0.45593999997E+02  0.45594000000E+02  0.51100000000E-03 0. -1.
    9900012    2    1    2    0    0  0.89674215037E+01  0.15774827308E+01  0.42434890749E+02  0.47787273588E+02  0.20000011597E+02 0.  0.
         12    1    1    2    0    0 -0.89674215037E+01 -0.15774827308E+01 -0.42434890749E+02  0.43400726412E+02  0.00000000000E+00 0. -1.
         11    1    3    3    0    0  0.18085115081E+01 -0.20656243239E+01  0.71671436343E+00  0.28374632090E+01  0.51100000000E-03 0. -1.
        -11    1    3    3    0    0  0.11518817460E+02  0.17639542312E+01  0.33368531549E+02  0.35344781626E+02  0.51100000000E-03 0.  1.
        -12    1    3    3    0    0 -0.43599074648E+01  0.18791528235E+01  0.83496448369E+01  0.96050287526E+01  0.00000000000E+00 0.  1.
</event>
<event>
 7    1  0.2733256E-010  0.4778727E+02  0.7816164E-02  0.1312668E+00
        -11   -1    0    0    0    0  0.00000000000E+00  0.00000000000E+00  0.45593999997E+02  0.45594000000E+02  0.51100000000E-03 0.  1.
         11   -1    0    0    0    0 -0.00000000000E+00 -0.00000000000E+00 -0.45593999997E+02  0.45594000000E+02  0.51100000000E-03 0. -1.
    9900012    2    1    2    0    0  0.36719386210E+02 -0.11491618347E+02  0.20081152248E+02  0.47787270842E+02  0.19999999077E+02 0.  0.
         12    1    1    2    0    0 -0.36719386210E+02  0.11491618347E+02 -0.20081152248E+02  0.43400729158E+02  0.00000000000E+00 0. -1.
         11    1    3    3    0    0  0.67164137986E+01  0.41630635000E+01  0.21441373676E+01  0.81877125823E+01  0.51100000000E-03 0. -1.
        -11    1    3    3    0    0 -0.90714367968E-01  0.92082807372E+00  0.25491517817E+00  0.95975801486E+00  0.51100000000E-03 0.  1.
        -12    1    3    3    0    0  0.30093686779E+02 -0.16575509921E+02  0.17682099702E+02  0.38639800245E+02  0.00000000000E+00 0.  1.
</event>
<event>
 7    1  0.2733256E-010  0.4778727E+02  0.7816164E-02  0.1312668E+00
        -11   -1    0    0    0    0  0.00000000000E+00  0.00000000000E+00  0.45593999997E+02  0.45594000000E+02  0.51100000000E-03 0.  1.
         11   -1    0    0    0    0 -0.00000000000E+00 -0.00000000000E+00 -0.45593999997E+02  0.45594000000E+02  0.51100000000E-03 0. -1.
    9900012    2    1    2    0    0 -0.18869032254E+02 -0.38471582035E+02  0.68934781155E+01  0.47787273704E+02  0.20000012125E+02 0.  0.
         12    1    1    2    0    0  0.18869032254E+02  0.38471582035E+02 -0.68934781155E+01  0.43400726296E+02  0.00000000000E+00 0. -1.
         11    1    3    3    0    0 -0.55587288213E+00 -0.38666429673E+01  0.70108373498E+01  0.80256939329E+01  0.51100000000E-03 0. -1.
        -11    1    3    3    0    0  0.60609237224E+00 -0.13900991819E+01 -0.24529780508E+00  0.15361949660E+01  0.51100000000E-03 0.  1.
        -12    1    3    3    0    0 -0.18919251744E+02 -0.33214839886E+02  0.12793857081E+00  0.38225384805E+02  0.00000000000E+00 0.  1.
</event>
<event>
 7    1  0.2733256E-010  0.4778727E+02  0.7816164E-02  0.1312668E+00
        -11   -1    0    0    0    0  0.00000000000E+00  0.00000000000E+00  0.45593999997E+02  0.45594000000E+02  0.51100000000E-03 0.  1.
         11   -1    0    0    0    0 -0.00000000000E+00 -0.00000000000E+00 -0.45593999997E+02  0.45594000000E+02  0.51100000000E-03 0. -1.
    9900012    2    1    2    0    0 -0.24916808828E+01 -0.35098728080E+02  0.25406574013E+02  0.47787272016E+02  0.20000004428E+02 0.  0.
         12    1    1    2    0    0  0.24916808828E+01  0.35098728080E+02 -0.25406574013E+02  0.43400727984E+02  0.00000000000E+00 0. -1.
         11    1    3    3    0    0  0.34115002665E+01 -0.38525963114E+01 -0.13528778555E+01  0.53208186551E+01  0.51100000000E-03 0. -1.
        -11    1    3    3    0    0 -0.71703239253E+01 -0.14830165776E+02  0.12373444090E+02  0.20602171756E+02  0.51100000000E-03 0.  1.
        -12    1    3    3    0    0  0.12671427760E+01 -0.16415965993E+02  0.14386007779E+02  0.21864281605E+02  0.00000000000E+00 0.  1.
</event>
<event>
 7    1  0.2733256E-010  0.4778727E+02  0.7816164E-02  0.1312668E+00
        -11   -1    0    0    0    0  0.00000000000E+00  0.00000000000E+00  0.45593999997E+02  0.45594000000E+02  0.51100000000E-03 0. -1.
         11   -1    0    0    0    0 -0.00000000000E+00 -0.00000000000E+00 -0.45593999997E+02  0.45594000000E+02  0.51100000000E-03 0.  1.
    9900012    2    1    2    0    0  0.42563884092E+02 -0.12107120468E+01  0.83948473918E+01  0.47787268262E+02  0.19999987316E+02 0.  0.
         12    1    1    2    0    0 -0.42563884092E+02  0.12107120468E+01 -0.83948473918E+01  0.43400731738E+02  0.00000000000E+00 0. -1.
         11    1    3    3    0    0  0.38500693590E+02 -0.58713561511E+01  0.90218311217E+01  0.39977114291E+02  0.51100000000E-03 0. -1.
        -11    1    3    3    0    0  0.39155462970E+01  0.12593114817E+01  0.66932559186E+00  0.41671771286E+01  0.51100000000E-03 0.  1.
         12    1    3    3    0    0  0.14764420449E+00  0.34013326226E+01 -0.12963093218E+01  0.36429768430E+01  0.00000000000E+00 0. -1.
</event>
<event>
 7    1  0.2733256E-010  0.4778727E+02  0.7816164E-02  0.1312668E+00
        -11   -1    0    0    0    0  0.00000000000E+00  0.00000000000E+00  0.45593999997E+02  0.45594000000E+02  0.51100000000E-03 0.  1.
         11   -1    0    0    0    0 -0.00000000000E+00 -0.00000000000E+00 -0.45593999997E+02  0.45594000000E+02  0.51100000000E-03 0. -1.
    9900012    2    1    2    0    0 -0.11226935170E+02 -0.33523441335E+02  0.25174554238E+02  0.47787269899E+02  0.19999994776E+02 0.  0.
         12    1    1    2    0    0  0.11226935170E+02  0.33523441335E+02 -0.25174554238E+02  0.43400730101E+02  0.00000000000E+00 0. -1.
         11    1    3    3    0    0 -0.11461670624E+01 -0.85529000283E+00 -0.13579031298E+01  0.19720854685E+01  0.51100000000E-03 0. -1.
        -11    1    3    3    0    0  0.14545655141E+01 -0.65897575111E+01 -0.16783177243E+00  0.67504690693E+01  0.51100000000E-03 0.  1.
        -12    1    3    3    0    0 -0.11535333621E+02 -0.26078393821E+02  0.26700289141E+02  0.39064715361E+02  0.00000000000E+00 0.  1.
</event>
<event>
 7    1  0.2733256E-010  0.4778728E+02  0.7816164E-02  0.1312668E+00
        -11   -1    0    0    0    0  0.00000000000E+00  0.00000000000E+00  0.45593999997E+02  0.45594000000E+02  0.51100000000E-03 0.  1.
         11   -1    0    0    0    0 -0.00000000000E+00 -0.00000000000E+00 -0.45593999997E+02  0.45594000000E+02  0.51100000000E-03 0. -1.
    9900012    2    1    2    0    0  0.23435103300E+02 -0.36038699687E+02  0.59691686965E+01  0.47787275159E+02  0.20000018759E+02 0.  0.
         12    1    1    2    0    0 -0.23435103300E+02  0.36038699687E+02 -0.59691686965E+01  0.43400724841E+02  0.00000000000E+00 0. -1.
         11    1    3    3    0    0  0.42749222130E+00 -0.36945491236E+01  0.38282619220E+01  0.53374181428E+01  0.51100000000E-03 0. -1.
        -11    1    3    3    0    0 -0.19958626245E+01 -0.46952648304E+01  0.64006196987E+00  0.51418536570E+01  0.51100000000E-03 0.  1.
        -12    1    3    3    0    0  0.25003473703E+02 -0.27648885733E+02  0.15008448046E+01  0.37308003359E+02  0.00000000000E+00 0.  1.
</event>
<event>
 7    1  0.2733256E-010  0.4778727E+02  0.7816164E-02  0.1312668E+00
        -11   -1    0    0    0    0  0.00000000000E+00  0.00000000000E+00  0.45593999997E+02  0.45594000000E+02  0.51100000000E-03 0.  1.
         11   -1    0    0    0    0 -0.00000000000E+00 -0.00000000000E+00 -0.45593999997E+02  0.45594000000E+02  0.51100000000E-03 0. -1.
    9900012    2    1    2    0    0  0.12987449902E+02  0.12180898789E+02  0.39579982818E+02  0.47787272009E+02  0.20000004398E+02 0.  0.
         12    1    1    2    0    0 -0.12987449902E+02 -0.12180898789E+02 -0.39579982818E+02  0.43400727991E+02  0.00000000000E+00 0. -1.
         11    1    3    3    0    0  0.91912527344E+00  0.50034163273E+01  0.74149412737E+00  0.51408929200E+01  0.51100000000E-03 0. -1.
        -11    1    3    3    0    0  0.30994567702E+01  0.52732529921E+01  0.60623789647E+01  0.86119839968E+01  0.51100000000E-03 0.  1.
        -12    1    3    3    0    0  0.89688678588E+01  0.19042294700E+01  0.32776109726E+02  0.34034395092E+02  0.00000000000E+00 0.  1.
</event>
<event>
 7    1  0.2733256E-010  0.4778727E+02  0.7816164E-02  0.1312668E+00
        -11   -1    0    0    0    0  0.00000000000E+00  0.00000000000E+00  0.45593999997E+02  0.45594000000E+02  0.51100000000E-03 0. -1.
         11   -1    0    0    0    0 -0.00000000000E+00 -0.00000000000E+00 -0.45593999997E+02  0.45594000000E+02  0.51100000000E-03 0.  1.
    9900012    2    1    2    0    0 -0.34299373990E+02  0.21517015868E+02  0.15626715763E+02  0.47787271049E+02  0.20000000020E+02 0.  0.
         12    1    1    2    0    0  0.34299373990E+02 -0.21517015868E+02 -0.15626715763E+02  0.43400728951E+02  0.00000000000E+00 0. -1.
         11    1    3    3    0    0 -0.11676167926E+02 -0.20694738042E+01  0.71454530976E+01  0.13844606151E+02  0.51100000000E-03 0. -1.
        -11    1    3    3    0    0 -0.53492024237E+01  0.44472150729E+01  0.59577339141E+00  0.69818790214E+01  0.51100000000E-03 0.  1.
         12    1    3    3    0    0 -0.17274003641E+02  0.19139274599E+02  0.78854892736E+01  0.26960785876E+02  0.00000000000E+00 0. -1.
</event>
<event>
 7    1  0.2733256E-010  0.4778727E+02  0.7816164E-02  0.1312668E+00
        -11   -1    0    0    0    0  0.00000000000E+00  0.00000000000E+00  0.45593999997E+02  0.45594000000E+02  0.51100000000E-03 0. -1.
         11   -1    0    0    0    0 -0.00000000000E+00 -0.00000000000E+00 -0.45593999997E+02  0.45594000000E+02  0.51100000000E-03 0.  1.
    9900012    2    1    2    0    0 -0.28574646096E+02 -0.29781811409E+01 -0.32530650448E+02  0.47787272115E+02  0.20000004879E+02 0.  0.
         12    1    1    2    0    0  0.28574646096E+02  0.29781811409E+01  0.32530650448E+02  0.43400727885E+02  0.00000000000E+00 0. -1.
         11    1    3    3    0    0 -0.24578223104E+01 -0.68587261095E+00 -0.55749153255E+01  0.61311493943E+01  0.51100000000E-03 0. -1.
        -11    1    3    3    0    0 -0.16244001909E+02  0.71930175968E+01 -0.12346594049E+02  0.21634358901E+02  0.51100000000E-03 0.  1.
        -12    1    3    3    0    0 -0.98728218763E+01 -0.94853261267E+01 -0.14609141074E+02  0.20021763819E+02  0.00000000000E+00 0.  1.
</event>
<event>
 7    1  0.2733256E-010  0.4778727E+02  0.7816164E-02  0.1312668E+00
        -11   -1    0    0    0    0  0.00000000000E+00  0.00000000000E+00  0.45593999997E+02  0.45594000000E+02  0.51100000000E-03 0.  1.
         11   -1    0    0    0    0 -0.00000000000E+00 -0.00000000000E+00 -0.45593999997E+02  0.45594000000E+02  0.51100000000E-03 0. -1.
    9900012    2    1    2    0    0 -0.64837224189E+01  0.36591897543E+02  0.22419136687E+02  0.47787270605E+02  0.19999997995E+02 0.  0.
         12    1    1    2    0    0  0.64837224189E+01 -0.36591897543E+02 -0.22419136687E+02  0.43400729395E+02  0.00000000000E+00 0. -1.
         11    1    3    3    0    0 -0.78545935226E+00 -0.13904295022E+00  0.32268996629E+01  0.33240278326E+01  0.51100000000E-03 0. -1.
        -11    1    3    3    0    0 -0.26984131039E+01  0.22117755156E+02  0.19400105726E+02  0.29543876335E+02  0.51100000000E-03 0.  1.
        -12    1    3    3    0    0 -0.29998499628E+01  0.14613185337E+02 -0.20786870125E+00  0.14919366438E+02  0.00000000000E+00 0.  1.
</event>
<event>
 7    1  0.2733256E-010  0.4778728E+02  0.7816164E-02  0.1312668E+00
        -11   -1    0    0    0    0  0.00000000000E+00  0.00000000000E+00  0.45593999997E+02  0.45594000000E+02  0.51100000000E-03 0.  1.
         11   -1    0    0    0    0 -0.00000000000E+00 -0.00000000000E+00 -0.45593999997E+02  0.45594000000E+02  0.51100000000E-03 0. -1.
    9900012    2    1    2    0    0 -0.31952588895E+02 -0.29305680306E+02  0.19575684465E+01  0.47787275242E+02  0.20000019138E+02 0.  0.
         12    1    1    2    0    0  0.31952588895E+02  0.29305680306E+02 -0.19575684465E+01  0.43400724758E+02  0.00000000000E+00 0. -1.
         11    1    3    3    0    0 -0.10284474065E+02 -0.18575906681E+02 -0.39541151737E+01  0.21597910614E+02  0.51100000000E-03 0. -1.
        -11    1    3    3    0    0 -0.71375391076E+01 -0.77509894184E+01  0.38301582174E+01  0.11211262806E+02  0.51100000000E-03 0.  1.
        -12    1    3    3    0    0 -0.14530575723E+02 -0.29787842062E+01  0.20815254028E+01  0.14978101822E+02  0.00000000000E+00 0.  1.
</event>
<event>
 7    1  0.2733256E-010  0.4778727E+02  0.7816164E-02  0.1312668E+00
        -11   -1    0    0    0    0  0.00000000000E+00  0.00000000000E+00  0.45593999997E+02  0.45594000000E+02  0.51100000000E-03 0. -1.
         11   -1    0    0    0    0 -0.00000000000E+00 -0.00000000000E+00 -0.45593999997E+02  0.45594000000E+02  0.51100000000E-03 0.  1.
    9900012    2    1    2    0    0  0.67467874345E+01 -0.42752359712E+02 -0.32155640433E+01  0.47787271277E+02  0.20000001059E+02 0.  0.
         12    1    1    2    0    0 -0.67467874345E+01  0.42752359712E+02  0.32155640433E+01  0.43400728723E+02  0.00000000000E+00 0. -1.
         11    1    3    3    0    0  0.12229807835E+01 -0.15273508607E+02  0.17523681834E+01  0.15422274206E+02  0.51100000000E-03 0. -1.
        -11    1    3    3    0    0  0.59991404544E+01 -0.29317556987E+02 -0.54220845531E+01  0.30412297431E+02  0.51100000000E-03 0.  1.
         12    1    3    3    0    0 -0.47533380332E+00  0.18387058825E+01  0.45415232647E+00  0.19526996396E+01  0.00000000000E+00 0. -1.
</event>
<event>
 7    1  0.2733256E-010  0.4778727E+02  0.7816164E-02  0.1312668E+00
        -11   -1    0    0    0    0  0.00000000000E+00  0.00000000000E+00  0.45593999997E+02  0.45594000000E+02  0.51100000000E-03 0. -1.
         11   -1    0    0    0    0 -0.00000000000E+00 -0.00000000000E+00 -0.45593999997E+02  0.45594000000E+02  0.51100000000E-03 0.  1.
    9900012    2    1    2    0    0  0.23980083579E+02 -0.11697111770E+02 -0.34230926784E+02  0.47787272118E+02  0.20000004894E+02 0.  0.
         12    1    1    2    0    0 -0.23980083579E+02  0.11697111770E+02  0.34230926784E+02  0.43400727882E+02  0.00000000000E+00 0. -1.
         11    1    3    3    0    0  0.34324352573E+01 -0.48266115171E+01 -0.68415689402E+01  0.90490251606E+01  0.51100000000E-03 0. -1.
        -11    1    3    3    0    0  0.86724313336E+01 -0.93131841802E+01 -0.22118685883E+02  0.25518282275E+02  0.51100000000E-03 0.  1.
         12    1    3    3    0    0  0.11875216988E+02  0.24426839268E+01 -0.52706719602E+01  0.13219964682E+02  0.00000000000E+00 0. -1.
</event>
<event>
 7    1  0.2733256E-010  0.4778725E+02  0.7816164E-02  0.1312668E+00
        -11   -1    0    0    0    0  0.00000000000E+00  0.00000000000E+00  0.45593999997E+02  0.45594000000E+02  0.51100000000E-03 0.  1.
         11   -1    0    0    0    0 -0.00000000000E+00 -0.00000000000E+00 -0.45593999997E+02  0.45594000000E+02  0.51100000000E-03 0. -1.
    9900012    2    1    2    0    0 -0.62973758579E+01 -0.38510719604E+02  0.18997180569E+02  0.47787247280E+02  0.19999891647E+02 0.  0.
         12    1    1    2    0    0  0.62973758579E+01  0.38510719604E+02 -0.18997180569E+02  0.43400752720E+02  0.00000000000E+00 0. -1.
         11    1    3    3    0    0 -0.14776629690E+01 -0.17036880402E+02  0.31180315891E+01  0.17382776042E+02  0.51100000000E-03 0. -1.
        -11    1    3    3    0    0 -0.50878529762E+01 -0.76692333400E+01 -0.20644512332E+00  0.92057594896E+01  0.51100000000E-03 0.  1.
        -12    1    3    3    0    0  0.26814008731E+00 -0.13804605862E+02  0.16085594103E+02  0.21198711748E+02  0.00000000000E+00 0.  1.
</event>
<event>
 7    1  0.2733256E-010  0.4778728E+02  0.7816164E-02  0.1312668E+00
        -11   -1    0    0    0    0  0.00000000000E+00  0.00000000000E+00  0.45593999997E+02  0.45594000000E+02  0.51100000000E-03 0. -1.
         11   -1    0    0    0    0 -0.00000000000E+00 -0.00000000000E+00 -0.45593999997E+02  0.45594000000E+02  0.51100000000E-03 0.  1.
    9900012    2    1    2    0    0  0.41307760308E+02  0.99479735568E+01 -0.88503851874E+01  0.47787279297E+02  0.20000037628E+02 0.  0.
         12    1    1    2    0    0 -0.41307760308E+02 -0.99479735568E+01  0.88503851874E+01  0.43400720703E+02  0.00000000000E+00 0. -1.
         11    1    3    3    0    0  0.78328285295E+01  0.25770317369E+01  0.30935931621E+01  0.88070775095E+01  0.51100000000E-03 0. -1.
        -11    1    3    3    0    0  0.12195916969E+02  0.41707727193E+01  0.24113489383E+01  0.13112983633E+02  0.51100000000E-03 0.  1.
        -12    1    3    3    0    0  0.21279014810E+02  0.32001691006E+01 -0.14355327288E+02  0.25867218155E+02  0.00000000000E+00 0.  1.
</event>
<event>
 7    1  0.2733256E-010  0.4778732E+02  0.7816164E-02  0.1312668E+00
        -11   -1    0    0    0    0  0.00000000000E+00  0.00000000000E+00  0.45593999997E+02  0.45594000000E+02  0.51100000000E-03 0. -1.
         11   -1    0    0    0    0 -0.00000000000E+00 -0.00000000000E+00 -0.45593999997E+02  0.45594000000E+02  0.51100000000E-03 0.  1.
    9900012    2    1    2    0    0  0.14490199088E+02  0.40853593073E+02 -0.21532929821E+01  0.47787324807E+02  0.20000245123E+02 0.  0.
         12    1    1    2    0    0 -0.14490199088E+02 -0.40853593073E+02  0.21532929821E+01  0.43400675193E+02  0.00000000000E+00 0. -1.
         11    1    3    3    0    0  0.28918054090E+01  0.18771765037E+02  0.53080296495E+01  0.19720975639E+02  0.51100000000E-03 0. -1.
        -11    1    3    3    0    0 -0.59349131967E+00  0.12820581887E+01  0.17569913314E+01  0.22545340861E+01  0.51100000000E-03 0.  1.
        -12    1    3    3    0    0  0.12191884998E+02  0.20799769847E+02 -0.92183139629E+01  0.25811815082E+02  0.00000000000E+00 0.  1.
</event>
<event>
 7    1  0.2733256E-010  0.4778727E+02  0.7816164E-02  0.1312668E+00
        -11   -1    0    0    0    0  0.00000000000E+00  0.00000000000E+00  0.45593999997E+02  0.45594000000E+02  0.51100000000E-03 0.  1.
         11   -1    0    0    0    0 -0.00000000000E+00 -0.00000000000E+00 -0.45593999997E+02  0.45594000000E+02  0.51100000000E-03 0. -1.
    9900012    2    1    2    0    0  0.28108640296E+02 -0.25931126504E+02  0.20520825314E+02  0.47787271289E+02  0.20000001116E+02 0.  0.
         12    1    1    2    0    0 -0.28108640296E+02  0.25931126504E+02 -0.20520825314E+02  0.43400728711E+02  0.00000000000E+00 0. -1.
         11    1    3    3    0    0  0.26666151686E+01  0.71447404026E+00 -0.10335554666E+01  0.29478037206E+01  0.51100000000E-03 0. -1.
        -11    1    3    3    0    0  0.59144242401E+01 -0.67633046386E+01 -0.92909290840E+00  0.90324923260E+01  0.51100000000E-03 0.  1.
        -12    1    3    3    0    0  0.19527600887E+02 -0.19882295906E+02  0.22483473689E+02  0.35806975243E+02  0.00000000000E+00 0.  1.
</event>
<event>
 7    1  0.2733256E-010  0.4778727E+02  0.7816164E-02  0.1312668E+00
        -11   -1    0    0    0    0  0.00000000000E+00  0.00000000000E+00  0.45593999997E+02  0.45594000000E+02  0.51100000000E-03 0. -1.
         11   -1    0    0    0    0 -0.00000000000E+00 -0.00000000000E+00 -0.45593999997E+02  0.45594000000E+02  0.51100000000E-03 0.  1.
    9900012    2    1    2    0    0  0.12579204329E+02 -0.39186486132E+02 -0.13777023689E+02  0.47787268916E+02  0.19999990295E+02 0.  0.
         12    1    1    2    0    0 -0.12579204329E+02  0.39186486132E+02  0.13777023689E+02  0.43400731084E+02  0.00000000000E+00 0. -1.
         11    1    3    3    0    0  0.61818448289E-01 -0.21302790453E+00 -0.34983548125E+01  0.35053800170E+01  0.51100000000E-03 0. -1.
        -11    1    3    3    0    0  0.80648971612E+01 -0.12957830811E+02 -0.92938558227E+01  0.17869630714E+02  0.51100000000E-03 0.  1.
         12    1    3    3    0    0  0.44524887193E+01 -0.26015627416E+02 -0.98481305412E+00  0.26412258185E+02  0.00000000000E+00 0. -1.
</event>
<event>
 7    1  0.2733256E-010  0.4778727E+02  0.7816164E-02  0.1312668E+00
        -11   -1    0    0    0    0  0.00000000000E+00  0.00000000000E+00  0.45593999997E+02  0.45594000000E+02  0.51100000000E-03 0.  1.
         11   -1    0    0    0    0 -0.00000000000E+00 -0.00000000000E+00 -0.45593999997E+02  0.45594000000E+02  0.51100000000E-03 0. -1.
    9900012    2    1    2    0    0  0.25804324229E+02 -0.19087059452E+02  0.29213775393E+02  0.47787266594E+02  0.19999979710E+02 0.  0.
         12    1    1    2    0    0 -0.25804324229E+02  0.19087059452E+02 -0.29213775393E+02  0.43400733406E+02  0.00000000000E+00 0. -1.
         11    1    3    3    0    0 -0.16718101316E+01 -0.27716663968E+01  0.37602755864E+01  0.49615276355E+01  0.51100000000E-03 0. -1.
        -11    1    3    3    0    0  0.81207686140E+01 -0.85356752032E+01  0.16135271264E+02  0.19978779069E+02  0.51100000000E-03 0.  1.
         12    1    3    3    0    0  0.19355365746E+02 -0.77797178518E+01  0.93182285426E+01  0.22846959890E+02  0.00000000000E+00 0. -1.
</event>
<event>
 7    1  0.2733256E-010  0.4778727E+02  0.7816164E-02  0.1312668E+00
        -11   -1    0    0    0    0  0.00000000000E+00  0.00000000000E+00  0.45593999997E+02  0.45594000000E+02  0.51100000000E-03 0. -1.
         11   -1    0    0    0    0 -0.00000000000E+00 -0.00000000000E+00 -0.45593999997E+02  0.45594000000E+02  0.51100000000E-03 0.  1.
    9900012    2    1    2    0    0 -0.12555226059E+02  0.34110992515E+02 -0.23715598562E+02  0.47787272738E+02  0.20000007721E+02 0.  0.
         12    1    1    2    0    0  0.12555226059E+02 -0.34110992515E+02  0.23715598562E+02  0.43400727262E+02  0.00000000000E+00 0. -1.
         11    1    3    3    0    0 -0.11540762540E+02  0.95655416274E+01 -0.72649671438E+01  0.16657386785E+02  0.51100000000E-03 0. -1.
        -11    1    3    3    0    0 -0.10073162718E+00  0.16952344885E+01 -0.55353237754E+01  0.57899720544E+01  0.51100000000E-03 0.  1.
        -12    1    3    3    0    0 -0.91373189136E+00  0.22850216399E+02 -0.10915307643E+02  0.25339913899E+02  0.00000000000E+00 0.  1.
</event>
<event>
 7    1  0.2733256E-010  0.4778727E+02  0.7816164E-02  0.1312668E+00
        -11   -1    0    0    0    0  0.00000000000E+00  0.00000000000E+00  0.45593999997E+02  0.45594000000E+02  0.51100000000E-03 0.  1.
         11   -1    0    0    0    0 -0.00000000000E+00 -0.00000000000E+00 -0.45593999997E+02  0.45594000000E+02  0.51100000000E-03 0. -1.
    9900012    2    1    2    0    0  0.14997077015E+02 -0.40175753233E+02 -0.66798033201E+01  0.47787271444E+02  0.20000001820E+02 0.  0.
         12    1    1    2    0    0 -0.14997077015E+02  0.40175753233E+02  0.66798033201E+01  0.43400728556E+02  0.00000000000E+00 0. -1.
         11    1    3    3    0    0  0.16263814615E+01 -0.19912694854E+01 -0.25467286018E+01  0.36188530854E+01  0.51100000000E-03 0. -1.
        -11    1    3    3    0    0  0.37506336624E+00 -0.48402363627E+01  0.52712014017E+01  0.71661792508E+01  0.51100000000E-03 0.  1.
        -12    1    3    3    0    0  0.12995632187E+02 -0.33344247385E+02 -0.94042761201E+01  0.37002239107E+02  0.00000000000E+00 0.  1.
</event>
<event>
 7    1  0.2733256E-010  0.4778727E+02  0.7816164E-02  0.1312668E+00
        -11   -1    0    0    0    0  0.00000000000E+00  0.00000000000E+00  0.45593999997E+02  0.45594000000E+02  0.51100000000E-03 0.  1.
         11   -1    0    0    0    0 -0.00000000000E+00 -0.00000000000E+00 -0.45593999997E+02  0.45594000000E+02  0.51100000000E-03 0. -1.
    9900012    2    1    2    0    0 -0.22092294676E+02 -0.23666941090E+02  0.28903806013E+02  0.47787267441E+02  0.19999983573E+02 0.  0.
         12    1    1    2    0    0  0.22092294676E+02  0.23666941090E+02 -0.28903806013E+02  0.43400732559E+02  0.00000000000E+00 0. -1.
         11    1    3    3    0    0 -0.10470417849E+02 -0.15732461409E+02  0.20792251769E+02  0.28097290364E+02  0.51100000000E-03 0. -1.
        -11    1    3    3    0    0 -0.23701180284E+01 -0.44329532676E+01  0.84049148585E+01  0.97934227000E+01  0.51100000000E-03 0.  1.
         12    1    3    3    0    0 -0.92517587986E+01 -0.35015264132E+01 -0.29336061493E+00  0.98965543772E+01  0.00000000000E+00 0. -1.
</event>
<event>
 7    1  0.2733256E-010  0.4778728E+02  0.7816164E-02  0.1312668E+00
        -11   -1    0    0    0    0  0.00000000000E+00  0.00000000000E+00  0.45593999997E+02  0.45594000000E+02  0.51100000000E-03 0. -1.
         11   -1    0    0    0    0 -0.00000000000E+00 -0.00000000000E+00 -0.45593999997E+02  0.45594000000E+02  0.51100000000E-03 0.  1.
    9900012    2    1    2    0    0 -0.46896745611E+01  0.19391157076E+02 -0.38543648472E+02  0.47787275839E+02  0.20000021858E+02 0.  0.
         12    1    1    2    0    0  0.46896745611E+01 -0.19391157076E+02  0.38543648472E+02  0.43400724161E+02  0.00000000000E+00 0. -1.
         11    1    3    3    0    0  0.17501471390E+01  0.87474844867E+01 -0.18010590737E+02  0.20098827797E+02  0.51100000000E-03 0.  1.
        -11    1    3    3    0    0 -0.42200043651E+01  0.14162618821E+01 -0.16981192043E+02  0.17554917203E+02  0.51100000000E-03 0. -1.
         12    1    3    3    0    0 -0.22198173349E+01  0.92274107069E+01 -0.35518656917E+01  0.10133530838E+02  0.00000000000E+00 0. -1.
</event>
<event>
 7    1  0.2733256E-010  0.4778727E+02  0.7816164E-02  0.1312668E+00
        -11   -1    0    0    0    0  0.00000000000E+00  0.00000000000E+00  0.45593999997E+02  0.45594000000E+02  0.51100000000E-03 0. -1.
         11   -1    0    0    0    0 -0.00000000000E+00 -0.00000000000E+00 -0.45593999997E+02  0.45594000000E+02  0.51100000000E-03 0.  1.
    9900012    2    1    2    0    0  0.41197039478E+02  0.13132483833E+02  0.37369641446E+01  0.47787273112E+02  0.20000009427E+02 0.  0.
         12    1    1    2    0    0 -0.41197039478E+02 -0.13132483833E+02 -0.37369641446E+01  0.43400726888E+02  0.00000000000E+00 0. -1.
         11    1    3    3    0    0  0.21047038886E+01  0.26558851412E+01  0.19433758898E+00  0.33942998839E+01  0.51100000000E-03 0. -1.
        -11    1    3    3    0    0  0.37495076437E+02  0.42052871594E+01  0.37656358275E+01  0.37917610824E+02  0.51100000000E-03 0.  1.
        -12    1    3    3    0    0  0.15972591523E+01  0.62713115322E+01 -0.22300927188E+00  0.64753624045E+01  0.00000000000E+00 0.  1.
</event>
<event>
 7    1  0.2733256E-010  0.4778727E+02  0.7816164E-02  0.1312668E+00
        -11   -1    0    0    0    0  0.00000000000E+00  0.00000000000E+00  0.45593999997E+02  0.45594000000E+02  0.51100000000E-03 0.  1.
         11   -1    0    0    0    0 -0.00000000000E+00 -0.00000000000E+00 -0.45593999997E+02  0.45594000000E+02  0.51100000000E-03 0. -1.
    9900012    2    1    2    0    0 -0.21158474421E+02  0.31048747342E+02 -0.21723660342E+02  0.47787272241E+02  0.20000005457E+02 0.  0.
         12    1    1    2    0    0  0.21158474421E+02 -0.31048747342E+02  0.21723660342E+02  0.43400727759E+02  0.00000000000E+00 0. -1.
         11    1    3    3    0    0 -0.89247696958E+01  0.23184953563E+02 -0.13981084652E+02  0.28507267743E+02  0.51100000000E-03 0. -1.
        -11    1    3    3    0    0  0.80228621847E+00  0.27222660687E+01  0.69593145652E+00  0.29221082421E+01  0.51100000000E-03 0.  1.
        -12    1    3    3    0    0 -0.13035990944E+02  0.51415277100E+01 -0.84385071467E+01  0.16357896257E+02  0.00000000000E+00 0.  1.
</event>
<event>
 7    1  0.2733256E-010  0.4778727E+02  0.7816164E-02  0.1312668E+00
        -11   -1    0    0    0    0  0.00000000000E+00  0.00000000000E+00  0.45593999997E+02  0.45594000000E+02  0.51100000000E-03 0. -1.
         11   -1    0    0    0    0 -0.00000000000E+00 -0.00000000000E+00 -0.45593999997E+02  0.45594000000E+02  0.51100000000E-03 0.  1.
    9900012    2    1    2    0    0  0.35802863768E+02 -0.36701541012E+01 -0.24255075008E+02  0.47787265574E+02  0.19999975056E+02 0.  0.
         12    1    1    2    0    0 -0.35802863768E+02  0.36701541012E+01  0.24255075008E+02  0.43400734426E+02  0.00000000000E+00 0. -1.
         11    1    3    3    0    0  0.59305586032E+01  0.17218488237E+01 -0.31696605745E+01  0.69414002288E+01  0.51100000000E-03 0.  1.
        -11    1    3    3    0    0 -0.48201381979E+00 -0.15095759941E+01  0.19721679448E+01  0.25299414357E+01  0.51100000000E-03 0. -1.
         12    1    3    3    0    0  0.30354318984E+02 -0.38824269308E+01 -0.23057582378E+02  0.38315923909E+02  0.00000000000E+00 0. -1.
</event>
<event>
 7    1  0.2733256E-010  0.4778727E+02  0.7816164E-02  0.1312668E+00
        -11   -1    0    0    0    0  0.00000000000E+00  0.00000000000E+00  0.45593999997E+02  0.45594000000E+02  0.51100000000E-03 0. -1.
         11   -1    0    0    0    0 -0.00000000000E+00 -0.00000000000E+00 -0.45593999997E+02  0.45594000000E+02  0.51100000000E-03 0.  1.
    9900012    2    1    2    0    0  0.28315895354E+02 -0.29891419111E+02 -0.13723565469E+02  0.47787272871E+02  0.20000008326E+02 0.  0.
         12    1    1    2    0    0 -0.28315895354E+02  0.29891419111E+02  0.13723565469E+02  0.43400727129E+02  0.00000000000E+00 0. -1.
         11    1    3    3    0    0  0.88335591873E+01 -0.15460744090E+02 -0.91955124399E+01  0.20040554509E+02  0.51100000000E-03 0. -1.
        -11    1    3    3    0    0  0.14719718773E+02 -0.93449378965E+01 -0.88444107000E+01  0.19550488126E+02  0.51100000000E-03 0.  1.
        -12    1    3    3    0    0  0.47626173931E+01 -0.50857371252E+01  0.43163576713E+01  0.81962302362E+01  0.00000000000E+00 0.  1.
</event>
<event>
 7    1  0.2733256E-010  0.4778727E+02  0.7816164E-02  0.1312668E+00
        -11   -1    0    0    0    0  0.00000000000E+00  0.00000000000E+00  0.45593999997E+02  0.45594000000E+02  0.51100000000E-03 0.  1.
         11   -1    0    0    0    0 -0.00000000000E+00 -0.00000000000E+00 -0.45593999997E+02  0.45594000000E+02  0.51100000000E-03 0. -1.
    9900012    2    1    2    0    0  0.57415857842E+01  0.18087699501E+02  0.39031943592E+02  0.47787270730E+02  0.19999998568E+02 0.  0.
         12    1    1    2    0    0 -0.57415857842E+01 -0.18087699501E+02 -0.39031943592E+02  0.43400729270E+02  0.00000000000E+00 0. -1.
         11    1    3    3    0    0  0.55478424560E+00  0.50669917556E+00  0.16059608852E+02  0.16077175323E+02  0.51100000000E-03 0. -1.
        -11    1    3    3    0    0 -0.32879019868E+01  0.19713525438E+01  0.23645975014E+01  0.45042038066E+01  0.51100000000E-03 0.  1.
        -12    1    3    3    0    0  0.84747035253E+01  0.15609647782E+02  0.20607737239E+02  0.27205891601E+02  0.00000000000E+00 0.  1.
</event>
<event>
 7    1  0.2733256E-010  0.4778727E+02  0.7816164E-02  0.1312668E+00
        -11   -1    0    0    0    0  0.00000000000E+00  0.00000000000E+00  0.45593999997E+02  0.45594000000E+02  0.51100000000E-03 0. -1.
         11   -1    0    0    0    0 -0.00000000000E+00 -0.00000000000E+00 -0.45593999997E+02  0.45594000000E+02  0.51100000000E-03 0.  1.
    9900012    2    1    2    0    0 -0.41654908426E+02 -0.12041976953E+02  0.18662194998E+01  0.47787269820E+02  0.19999994417E+02 0.  0.
         12    1    1    2    0    0  0.41654908426E+02  0.12041976953E+02 -0.18662194998E+01  0.43400730180E+02  0.00000000000E+00 0. -1.
         11    1    3    3    0    0 -0.16611870082E+02 -0.67872070190E+01  0.82177058377E+01  0.19737048823E+02  0.51100000000E-03 0. -1.
        -11    1    3    3    0    0  0.14787124154E+00 -0.19016431237E+01 -0.51036576019E+00  0.19744837158E+01  0.51100000000E-03 0.  1.
         12    1    3    3    0    0 -0.25190909586E+02 -0.33531268107E+01 -0.58411205777E+01  0.26075737281E+02  0.00000000000E+00 0. -1.
</event>
<event>
 7    1  0.2733256E-010  0.4778727E+02  0.7816164E-02  0.1312668E+00
        -11   -1    0    0    0    0  0.00000000000E+00  0.00000000000E+00  0.45593999997E+02  0.45594000000E+02  0.51100000000E-03 0.  1.
         11   -1    0    0    0    0 -0.00000000000E+00 -0.00000000000E+00 -0.45593999997E+02  0.45594000000E+02  0.51100000000E-03 0. -1.
    9900012    2    1    2    0    0  0.12710872993E+02 -0.10051148554E+02  0.40262033030E+02  0.47787272089E+02  0.20000004762E+02 0.  0.
         12    1    1    2    0    0 -0.12710872993E+02  0.10051148554E+02 -0.40262033030E+02  0.43400727911E+02  0.00000000000E+00 0. -1.
         11    1    3    3    0    0  0.76805880154E-01  0.25816774469E+01  0.23503991247E+01  0.34921818237E+01  0.51100000000E-03 0. -1.
        -11    1    3    3    0    0  0.75893842467E+01 -0.72378222296E+01  0.72327524296E+01  0.12739604854E+02  0.51100000000E-03 0.  1.
        -12    1    3    3    0    0  0.50446828658E+01 -0.53950037717E+01  0.30678881476E+02  0.31555485411E+02  0.00000000000E+00 0.  1.
</event>
<event>
 7    1  0.2733256E-010  0.4778727E+02  0.7816164E-02  0.1312668E+00
        -11   -1    0    0    0    0  0.00000000000E+00  0.00000000000E+00  0.45593999997E+02  0.45594000000E+02  0.51100000000E-03 0.  1.
         11   -1    0    0    0    0 -0.00000000000E+00 -0.00000000000E+00 -0.45593999997E+02  0.45594000000E+02  0.51100000000E-03 0. -1.
    9900012    2    1    2    0    0 -0.12681895471E+02  0.39262687343E+02  0.13462330383E+02  0.47787269252E+02  0.19999991826E+02 0.  0.
         12    1    1    2    0    0  0.12681895471E+02 -0.39262687343E+02 -0.13462330383E+02  0.43400730748E+02  0.00000000000E+00 0. -1.
         11    1    3    3    0    0 -0.98686775779E+01  0.22154880545E+02  0.80423191124E+00  0.24266773958E+02  0.51100000000E-03 0. -1.
        -11    1    3    3    0    0 -0.34274717331E+01  0.15377151523E+02  0.64108463414E+01  0.17008918323E+02  0.51100000000E-03 0.  1.
        -12    1    3    3    0    0  0.61425384040E+00  0.17306552750E+01  0.62472521303E+01  0.65115769703E+01  0.00000000000E+00 0.  1.
</event>
<event>
 7    1  0.2733256E-010  0.4778727E+02  0.7816164E-02  0.1312668E+00
        -11   -1    0    0    0    0  0.00000000000E+00  0.00000000000E+00  0.45593999997E+02  0.45594000000E+02  0.51100000000E-03 0.  1.
         11   -1    0    0    0    0 -0.00000000000E+00 -0.00000000000E+00 -0.45593999997E+02  0.45594000000E+02  0.51100000000E-03 0. -1.
    9900012    2    1    2    0    0  0.67780880093E+01  0.33724570784E+02  0.26463830697E+02  0.47787268592E+02  0.19999988817E+02 0.  0.
         12    1    1    2    0    0 -0.67780880093E+01 -0.33724570784E+02 -0.26463830697E+02  0.43400731408E+02  0.00000000000E+00 0. -1.
         11    1    3    3    0    0  0.23601544679E+01  0.52161105451E+01 -0.93152458567E+00  0.58005065853E+01  0.51100000000E-03 0. -1.
        -11    1    3    3    0    0  0.24252470158E+01  0.12496987362E+02  0.35865544816E+01  0.13225728318E+02  0.51100000000E-03 0.  1.
        -12    1    3    3    0    0  0.19926865256E+01  0.16011472876E+02  0.23808800801E+02  0.28761033689E+02  0.00000000000E+00 0.  1.
</event>
<event>
 7    1  0.2733256E-010  0.4778727E+02  0.7816164E-02  0.1312668E+00
        -11   -1    0    0    0    0  0.00000000000E+00  0.00000000000E+00  0.45593999997E+02  0.45594000000E+02  0.51100000000E-03 0.  1.
         11   -1    0    0    0    0 -0.00000000000E+00 -0.00000000000E+00 -0.45593999997E+02  0.45594000000E+02  0.51100000000E-03 0. -1.
    9900012    2    1    2    0    0 -0.36517189659E+02 -0.95010455894E+01  0.21444070903E+02  0.47787272071E+02  0.20000004682E+02 0.  0.
         12    1    1    2    0    0  0.36517189659E+02  0.95010455894E+01 -0.21444070903E+02  0.43400727929E+02  0.00000000000E+00 0. -1.
         11    1    3    3    0    0 -0.22988386631E+02 -0.57110310347E+01  0.12379556088E+02  0.26727050054E+02  0.51100000000E-03 0.  1.
        -11    1    3    3    0    0 -0.11776767774E+02  0.23146459168E+01  0.84524270646E+01  0.14679692383E+02  0.51100000000E-03 0. -1.
         12    1    3    3    0    0 -0.17520352541E+01 -0.61046604715E+01  0.61208774977E+00  0.63805296346E+01  0.00000000000E+00 0. -1.
</event>
<event>
 7    1  0.2733256E-010  0.4778727E+02  0.7816164E-02  0.1312668E+00
        -11   -1    0    0    0    0  0.00000000000E+00  0.00000000000E+00  0.45593999997E+02  0.45594000000E+02  0.51100000000E-03 0. -1.
         11   -1    0    0    0    0 -0.00000000000E+00 -0.00000000000E+00 -0.45593999997E+02  0.45594000000E+02  0.51100000000E-03 0.  1.
    9900012    2    1    2    0    0  0.39127002357E+02 -0.54416268683E+01 -0.17974708690E+02  0.47787265341E+02  0.19999973997E+02 0.  0.
         12    1    1    2    0    0 -0.39127002357E+02  0.54416268683E+01  0.17974708690E+02  0.43400734659E+02  0.00000000000E+00 0. -1.
         11    1    3    3    0    0 -0.83781365118E-01  0.22626759481E+01  0.17236450100E+01  0.28456412537E+01  0.51100000000E-03 0. -1.
        -11    1    3    3    0    0  0.91388989176E+01 -0.38178782433E+01 -0.31235286668E+01  0.10385186532E+02  0.51100000000E-03 0.  1.
        -12    1    3    3    0    0  0.30071884805E+02 -0.38864245730E+01 -0.16574825033E+02  0.34556437556E+02  0.00000000000E+00 0.  1.
</event>
<event>
 7    1  0.2733256E-010  0.4778727E+02  0.7816164E-02  0.1312668E+00
        -11   -1    0    0    0    0  0.00000000000E+00  0.00000000000E+00  0.45593999997E+02  0.45594000000E+02  0.51100000000E-03 0.  1.
         11   -1    0    0    0    0 -0.00000000000E+00 -0.00000000000E+00 -0.45593999997E+02  0.45594000000E+02  0.51100000000E-03 0. -1.
    9900012    2    1    2    0    0 -0.67197937439E+01  0.15637098100E+02  0.39924291178E+02  0.47787268543E+02  0.19999988594E+02 0.  0.
         12    1    1    2    0    0  0.67197937439E+01 -0.15637098100E+02 -0.39924291178E+02  0.43400731457E+02  0.00000000000E+00 0. -1.
         11    1    3    3    0    0 -0.54053302631E+01  0.27718076773E+01  0.69498313046E+01  0.92304208179E+01  0.51100000000E-03 0. -1.
        -11    1    3    3    0    0 -0.54986859168E+01  0.72052736903E+01  0.64762340355E+01  0.11139709301E+02  0.51100000000E-03 0.  1.
        -12    1    3    3    0    0  0.41842224360E+01  0.56600167322E+01  0.26498225838E+02  0.27417138424E+02  0.00000000000E+00 0.  1.
</event>
<event>
 7    1  0.2733256E-010  0.4778727E+02  0.7816164E-02  0.1312668E+00
        -11   -1    0    0    0    0  0.00000000000E+00  0.00000000000E+00  0.45593999997E+02  0.45594000000E+02  0.51100000000E-03 0.  1.
         11   -1    0    0    0    0 -0.00000000000E+00 -0.00000000000E+00 -0.45593999997E+02  0.45594000000E+02  0.51100000000E-03 0. -1.
    9900012    2    1    2    0    0 -0.81486033547E+01 -0.12128618497E+02  0.40867100495E+02  0.47787273898E+02  0.20000013010E+02 0.  0.
         12    1    1    2    0    0  0.81486033547E+01  0.12128618497E+02 -0.40867100495E+02  0.43400726102E+02  0.00000000000E+00 0. -1.
         11    1    3    3    0    0 -0.58995914354E+01 -0.34009377176E+01  0.20327439358E+02  0.21437731866E+02  0.51100000000E-03 0.  1.
        -11    1    3    3    0    0 -0.12907030544E+01 -0.95713683032E+01  0.22226399224E+02  0.24234063388E+02  0.51100000000E-03 0. -1.
         12    1    3    3    0    0 -0.95830886497E+00  0.84368752327E+00 -0.16867380867E+01  0.21154786434E+01  0.00000000000E+00 0. -1.
</event>
<event>
 7    1  0.2733256E-010  0.4778727E+02  0.7816164E-02  0.1312668E+00
        -11   -1    0    0    0    0  0.00000000000E+00  0.00000000000E+00  0.45593999997E+02  0.45594000000E+02  0.51100000000E-03 0.  1.
         11   -1    0    0    0    0 -0.00000000000E+00 -0.00000000000E+00 -0.45593999997E+02  0.45594000000E+02  0.51100000000E-03 0. -1.
    9900012    2    1    2    0    0 -0.27838321356E+02  0.33264247393E+02  0.14631157446E+01  0.47787274220E+02  0.20000014479E+02 0.  0.
         12    1    1    2    0    0  0.27838321356E+02 -0.33264247393E+02 -0.14631157446E+01  0.43400725780E+02  0.00000000000E+00 0. -1.
         11    1    3    3    0    0 -0.92662246324E-01  0.56910858441E+01 -0.26234438626E+01  0.62673361437E+01  0.51100000000E-03 0. -1.
        -11    1    3    3    0    0 -0.10037234970E+02  0.16331805961E+02 -0.29515108434E+01  0.19395499177E+02  0.51100000000E-03 0.  1.
        -12    1    3    3    0    0 -0.17708424140E+02  0.11241355588E+02  0.70380704507E+01  0.22124438900E+02  0.00000000000E+00 0.  1.
</event>
<event>
 7    1  0.2733256E-010  0.4778727E+02  0.7816164E-02  0.1312668E+00
        -11   -1    0    0    0    0  0.00000000000E+00  0.00000000000E+00  0.45593999997E+02  0.45594000000E+02  0.51100000000E-03 0.  1.
         11   -1    0    0    0    0 -0.00000000000E+00 -0.00000000000E+00 -0.45593999997E+02  0.45594000000E+02  0.51100000000E-03 0. -1.
    9900012    2    1    2    0    0  0.26698568087E+02 -0.24382828856E+02  0.24005988596E+02  0.47787269944E+02  0.19999994984E+02 0.  0.
         12    1    1    2    0    0 -0.26698568087E+02  0.24382828856E+02 -0.24005988596E+02  0.43400730056E+02  0.00000000000E+00 0. -1.
         11    1    3    3    0    0 -0.19142383246E+00 -0.32877686588E+01 -0.24181149273E+01  0.40857491234E+01  0.51100000000E-03 0. -1.
        -11    1    3    3    0    0  0.39652916551E+01 -0.26216616866E+01  0.68835449342E+01  0.83653953302E+01  0.51100000000E-03 0.  1.
        -12    1    3    3    0    0  0.22924700264E+02 -0.18473398511E+02  0.19540558589E+02  0.35336125491E+02  0.00000000000E+00 0.  1.
</event>
<event>
 7    1  0.2733256E-010  0.4778727E+02  0.7816164E-02  0.1312668E+00
        -11   -1    0    0    0    0  0.00000000000E+00  0.00000000000E+00  0.45593999997E+02  0.45594000000E+02  0.51100000000E-03 0.  1.
         11   -1    0    0    0    0 -0.00000000000E+00 -0.00000000000E+00 -0.45593999997E+02  0.45594000000E+02  0.51100000000E-03 0. -1.
    9900012    2    1    2    0    0 -0.20449746447E+02 -0.25827577381E+02  0.28255395078E+02  0.47787271503E+02  0.20000002091E+02 0.  0.
         12    1    1    2    0    0  0.20449746447E+02  0.25827577381E+02 -0.28255395078E+02  0.43400728497E+02  0.00000000000E+00 0. -1.
         11    1    3    3    0    0 -0.35820975065E+01 -0.28023680710E+01  0.87804628163E+01  0.98884385461E+01  0.51100000000E-03 0. -1.
        -11    1    3    3    0    0 -0.16807153169E+02 -0.10236933291E+02  0.10829283372E+02  0.22462158834E+02  0.51100000000E-03 0.  1.
         12    1    3    3    0    0 -0.60495770771E-01 -0.12788276019E+02  0.86456488891E+01  0.15436674123E+02  0.00000000000E+00 0. -1.
</event>
<event>
 7    1  0.2733256E-010  0.4778727E+02  0.7816164E-02  0.1312668E+00
        -11   -1    0    0    0    0  0.00000000000E+00  0.00000000000E+00  0.45593999997E+02  0.45594000000E+02  0.51100000000E-03 0.  1.
         11   -1    0    0    0    0 -0.00000000000E+00 -0.00000000000E+00 -0.45593999997E+02  0.45594000000E+02  0.51100000000E-03 0. -1.
    9900012    2    1    2    0    0 -0.18080015219E+02 -0.38797343609E+02 -0.71765157589E+01  0.47787271897E+02  0.20000003886E+02 0.  0.
         12    1    1    2    0    0  0.18080015219E+02  0.38797343609E+02  0.71765157589E+01  0.43400728103E+02  0.00000000000E+00 0. -1.
         11    1    3    3    0    0  0.11938801520E+01  0.76105908377E+00 -0.93925853394E+00  0.16990490284E+01  0.51100000000E-03 0. -1.
        -11    1    3    3    0    0 -0.10585502742E+02 -0.12146582576E+02  0.18476694016E+01  0.16217466481E+02  0.51100000000E-03 0.  1.
         12    1    3    3    0    0 -0.86883926289E+01 -0.27411820117E+02 -0.80849266265E+01  0.29870756388E+02  0.00000000000E+00 0. -1.
</event>
<event>
 7    1  0.2733256E-010  0.4778729E+02  0.7816164E-02  0.1312668E+00
        -11   -1    0    0    0    0  0.00000000000E+00  0.00000000000E+00  0.45593999997E+02  0.45594000000E+02  0.51100000000E-03 0.  1.
         11   -1    0    0    0    0 -0.00000000000E+00 -0.00000000000E+00 -0.45593999997E+02  0.45594000000E+02  0.51100000000E-03 0. -1.
    9900012    2    1    2    0    0 -0.35268366412E+01 -0.24614803269E+01  0.43187080206E+02  0.47787293107E+02  0.20000100591E+02 0.  0.
         12    1    1    2    0    0  0.35268366412E+01  0.24614803269E+01 -0.43187080206E+02  0.43400706893E+02  0.00000000000E+00 0. -1.
         11    1    3    3    0    0  0.89502796569E+00 -0.93978760584E+01  0.12827006903E+02  0.15926495403E+02  0.51100000000E-03 0. -1.
        -11    1    3    3    0    0  0.96349678324E+00  0.22408385453E+01  0.96235462037E+01  0.99278560240E+01  0.51100000000E-03 0.  1.
        -12    1    3    3    0    0 -0.53853613901E+01  0.46955571862E+01  0.20736527099E+02  0.21932941680E+02  0.00000000000E+00 0.  1.
</event>
<event>
 7    1  0.2733256E-010  0.4778732E+02  0.7816164E-02  0.1312668E+00
        -11   -1    0    0    0    0  0.00000000000E+00  0.00000000000E+00  0.45593999997E+02  0.45594000000E+02  0.51100000000E-03 0. -1.
         11   -1    0    0    0    0 -0.00000000000E+00 -0.00000000000E+00 -0.45593999997E+02  0.45594000000E+02  0.51100000000E-03 0.  1.
    9900012    2    1    2    0    0 -0.38501622959E+02 -0.89929937716E+01  0.17898884040E+02  0.47787320773E+02  0.20000226732E+02 0.  0.
         12    1    1    2    0    0  0.38501622959E+02  0.89929937716E+01 -0.17898884040E+02  0.43400679227E+02  0.00000000000E+00 0. -1.
         11    1    3    3    0    0 -0.13330058162E+02 -0.26566763600E+01  0.22083679311E+01  0.13770449124E+02  0.51100000000E-03 0. -1.
        -11    1    3    3    0    0 -0.19642076810E+02 -0.84113189131E+01  0.52202289913E+01  0.21995732728E+02  0.51100000000E-03 0.  1.
         12    1    3    3    0    0 -0.55294879869E+01  0.20750015015E+01  0.10470287118E+02  0.12021138921E+02  0.00000000000E+00 0. -1.
</event>
<event>
 7    1  0.2733256E-010  0.4778727E+02  0.7816164E-02  0.1312668E+00
        -11   -1    0    0    0    0  0.00000000000E+00  0.00000000000E+00  0.45593999997E+02  0.45594000000E+02  0.51100000000E-03 0.  1.
         11   -1    0    0    0    0 -0.00000000000E+00 -0.00000000000E+00 -0.45593999997E+02  0.45594000000E+02  0.51100000000E-03 0. -1.
    9900012    2    1    2    0    0 -0.30485240840E+02  0.30346596569E+02 -0.57755643868E+01  0.47787274472E+02  0.20000015628E+02 0.  0.
         12    1    1    2    0    0  0.30485240840E+02 -0.30346596569E+02  0.57755643868E+01  0.43400725528E+02  0.00000000000E+00 0. -1.
         11    1    3    3    0    0 -0.27236529341E+01  0.60890087850E+00 -0.53678549631E+01  0.60500341116E+01  0.51100000000E-03 0.  1.
        -11    1    3    3    0    0 -0.62613490471E+01  0.66461623088E+01  0.38318241436E+01  0.99024664530E+01  0.51100000000E-03 0. -1.
        -12    1    3    3    0    0 -0.21500238858E+02  0.23091533382E+02 -0.42395335673E+01  0.31834773908E+02  0.00000000000E+00 0.  1.
</event>
<event>
 7    1  0.2733256E-010  0.4778727E+02  0.7816164E-02  0.1312668E+00
        -11   -1    0    0    0    0  0.00000000000E+00  0.00000000000E+00  0.45593999997E+02  0.45594000000E+02  0.51100000000E-03 0.  1.
         11   -1    0    0    0    0 -0.00000000000E+00 -0.00000000000E+00 -0.45593999997E+02  0.45594000000E+02  0.51100000000E-03 0. -1.
    9900012    2    1    2    0    0 -0.10071458328E+02  0.71450969050E+01  0.41606928057E+02  0.47787272530E+02  0.20000006771E+02 0.  0.
         12    1    1    2    0    0  0.10071458328E+02 -0.71450969050E+01 -0.41606928057E+02  0.43400727470E+02  0.00000000000E+00 0. -1.
         11    1    3    3    0    0 -0.93047993759E+01  0.30542602474E+01  0.32537108023E+02  0.33978981678E+02  0.51100000000E-03 0. -1.
        -11    1    3    3    0    0 -0.24002514032E+01  0.55195887752E+01  0.98151283341E+01  0.11513635895E+02  0.51100000000E-03 0.  1.
         12    1    3    3    0    0  0.16335924508E+01 -0.14287521175E+01 -0.74530830045E+00  0.22946549570E+01  0.00000000000E+00 0. -1.
</event>
<event>
 7    1  0.2733256E-010  0.4778727E+02  0.7816164E-02  0.1312668E+00
        -11   -1    0    0    0    0  0.00000000000E+00  0.00000000000E+00  0.45593999997E+02  0.45594000000E+02  0.51100000000E-03 0. -1.
         11   -1    0    0    0    0 -0.00000000000E+00 -0.00000000000E+00 -0.45593999997E+02  0.45594000000E+02  0.51100000000E-03 0.  1.
    9900012    2    1    2    0    0  0.88195618119E+01  0.21817453669E+02 -0.36466935194E+02  0.47787270541E+02  0.19999997704E+02 0.  0.
         12    1    1    2    0    0 -0.88195618119E+01 -0.21817453669E+02  0.36466935194E+02  0.43400729459E+02  0.00000000000E+00 0. -1.
         11    1    3    3    0    0  0.29427539184E+00  0.31105468820E+01 -0.28628358089E+01  0.42376796766E+01  0.51100000000E-03 0. -1.
        -11    1    3    3    0    0 -0.53785627546E+01  0.97884700597E+01 -0.14227361373E+02  0.18087589538E+02  0.51100000000E-03 0.  1.
         12    1    3    3    0    0  0.13903849175E+02  0.89184367278E+01 -0.19376738012E+02  0.25462001326E+02  0.00000000000E+00 0. -1.
</event>
<event>
 7    1  0.2733256E-010  0.4778727E+02  0.7816164E-02  0.1312668E+00
        -11   -1    0    0    0    0  0.00000000000E+00  0.00000000000E+00  0.45593999997E+02  0.45594000000E+02  0.51100000000E-03 0. -1.
         11   -1    0    0    0    0 -0.00000000000E+00 -0.00000000000E+00 -0.45593999997E+02  0.45594000000E+02  0.51100000000E-03 0.  1.
    9900012    2    1    2    0    0 -0.79797113253E+01 -0.33348247250E+02  0.26605302270E+02  0.47787268481E+02  0.19999988314E+02 0.  0.
         12    1    1    2    0    0  0.79797113253E+01  0.33348247250E+02 -0.26605302270E+02  0.43400731519E+02  0.00000000000E+00 0. -1.
         11    1    3    3    0    0 -0.41144753879E+01 -0.22223960841E+02  0.17096427217E+02  0.28339392495E+02  0.51100000000E-03 0. -1.
        -11    1    3    3    0    0  0.79511806479E-01 -0.12686489763E+02  0.65733832877E+01  0.14288551807E+02  0.51100000000E-03 0.  1.
        -12    1    3    3    0    0 -0.39447477440E+01  0.15622033534E+01  0.29354917651E+01  0.51593241790E+01  0.00000000000E+00 0.  1.
</event>
<event>
 7    1  0.2733256E-010  0.4778727E+02  0.7816164E-02  0.1312668E+00
        -11   -1    0    0    0    0  0.00000000000E+00  0.00000000000E+00  0.45593999997E+02  0.45594000000E+02  0.51100000000E-03 0.  1.
         11   -1    0    0    0    0 -0.00000000000E+00 -0.00000000000E+00 -0.45593999997E+02  0.45594000000E+02  0.51100000000E-03 0. -1.
    9900012    2    1    2    0    0  0.12191426216E+02 -0.88237132807E+01  0.40707918797E+02  0.47787269108E+02  0.19999991169E+02 0.  0.
         12    1    1    2    0    0 -0.12191426216E+02  0.88237132807E+01 -0.40707918797E+02  0.43400730892E+02  0.00000000000E+00 0. -1.
         11    1    3    3    0    0  0.39401276216E+01  0.10585822339E+00  0.16702234268E+01  0.42808244760E+01  0.51100000000E-03 0. -1.
        -11    1    3    3    0    0  0.79312769328E+01 -0.11212022362E+02  0.38836030739E+02  0.41192862040E+02  0.51100000000E-03 0.  1.
         12    1    3    3    0    0  0.32002166208E+00  0.22824508582E+01  0.20166463088E+00  0.23135825914E+01  0.00000000000E+00 0. -1.
</event>
<event>
 7    1  0.2733256E-010  0.4778726E+02  0.7816164E-02  0.1312668E+00
        -11   -1    0    0    0    0  0.00000000000E+00  0.00000000000E+00  0.45593999997E+02  0.45594000000E+02  0.51100000000E-03 0.  1.
         11   -1    0    0    0    0 -0.00000000000E+00 -0.00000000000E+00 -0.45593999997E+02  0.45594000000E+02  0.51100000000E-03 0. -1.
    9900012    2    1    2    0    0  0.15542118504E+02  0.45651034991E+01  0.40264455598E+02  0.47787262654E+02  0.19999961746E+02 0.  0.
         12    1    1    2    0    0 -0.15542118504E+02 -0.45651034991E+01 -0.40264455598E+02  0.43400737346E+02  0.00000000000E+00 0. -1.
         11    1    3    3    0    0  0.40797713640E+01 -0.17469329284E+01  0.38973073697E+01  0.59063790967E+01  0.51100000000E-03 0. -1.
        -11    1    3    3    0    0  0.10780483764E+02  0.21420349409E+01  0.35998944747E+02  0.37639489463E+02  0.51100000000E-03 0.  1.
        -12    1    3    3    0    0  0.68186337536E+00  0.41700014865E+01  0.36820348120E+00  0.42413940944E+01  0.00000000000E+00 0.  1.
</event>
<event>
 7    1  0.2929238E-010  0.4778727E+02  0.7816164E-02  0.1312668E+00
        -11   -1    0    0    0    0  0.00000000000E+00  0.00000000000E+00  0.45593999997E+02  0.45594000000E+02  0.51100000000E-03 0. -1.
         11   -1    0    0    0    0 -0.00000000000E+00 -0.00000000000E+00 -0.45593999997E+02  0.45594000000E+02  0.51100000000E-03 0.  1.
    9900012    2    1    2    0    0  0.26863302635E+02 -0.30766963525E+01 -0.33948789019E+02  0.47787269997E+02  0.19999995224E+02 0.  0.
         12    1    1    2    0    0 -0.26863302635E+02  0.30766963525E+01  0.33948789019E+02  0.43400730003E+02  0.00000000000E+00 0. -1.
         11    1    3    3    0    0  0.14646261011E+01 -0.10552167677E+01  0.12554385413E+01  0.21988038191E+01  0.51100000000E-03 0. -1.
        -11    1    3    3    0    0  0.62477390747E+00  0.32751225491E+01 -0.22520135785E+01  0.40234730726E+01  0.51100000000E-03 0.  1.
        -12    1    3    3    0    0  0.24773902627E+02 -0.52966021340E+01 -0.32952213982E+02  0.41564993105E+02  0.00000000000E+00 0.  1.
</event>
<event>
 7    1  0.2733256E-010  0.4778722E+02  0.7816164E-02  0.1312668E+00
        -11   -1    0    0    0    0  0.00000000000E+00  0.00000000000E+00  0.45593999997E+02  0.45594000000E+02  0.51100000000E-03 0. -1.
         11   -1    0    0    0    0 -0.00000000000E+00 -0.00000000000E+00 -0.45593999997E+02  0.45594000000E+02  0.51100000000E-03 0.  1.
    9900012    2    1    2    0    0  0.40528451353E+02  0.14567092860E+02  0.53733112646E+01  0.47787216166E+02  0.19999749784E+02 0.  0.
         12    1    1    2    0    0 -0.40528451353E+02 -0.14567092860E+02 -0.53733112646E+01  0.43400783834E+02  0.00000000000E+00 0. -1.
         11    1    3    3    0    0  0.13457021290E+02  0.12840266901E+02  0.28332988846E+01  0.18814660744E+02  0.51100000000E-03 0. -1.
        -11    1    3    3    0    0  0.82606419405E+00  0.21431098793E+01 -0.96426482786E+00  0.24910056055E+01  0.51100000000E-03 0.  1.
         12    1    3    3    0    0  0.26245365869E+02 -0.41628392021E+00  0.35042772078E+01  0.26481549816E+02  0.00000000000E+00 0. -1.
</event>
<event>
 7    1  0.2733256E-010  0.4778727E+02  0.7816164E-02  0.1312668E+00
        -11   -1    0    0    0    0  0.00000000000E+00  0.00000000000E+00  0.45593999997E+02  0.45594000000E+02  0.51100000000E-03 0.  1.
         11   -1    0    0    0    0 -0.00000000000E+00 -0.00000000000E+00 -0.45593999997E+02  0.45594000000E+02  0.51100000000E-03 0. -1.
    9900012    2    1    2    0    0  0.29100137646E+01 -0.26453515525E+02  0.34283616743E+02  0.47787273730E+02  0.20000012245E+02 0.  0.
         12    1    1    2    0    0 -0.29100137646E+01  0.26453515525E+02 -0.34283616743E+02  0.43400726270E+02  0.00000000000E+00 0. -1.
         11    1    3    3    0    0  0.94056472550E+01 -0.78255412239E+01  0.14288654717E+02  0.18811457934E+02  0.51100000000E-03 0. -1.
        -11    1    3    3    0    0 -0.80653307261E+00 -0.83405728933E+01  0.12449669709E+02  0.15006995966E+02  0.51100000000E-03 0.  1.
        -12    1    3    3    0    0 -0.56891004178E+01 -0.10287401408E+02  0.75452923168E+01  0.13968819830E+02  0.00000000000E+00 0.  1.
</event>
<event>
 7    1  0.2733256E-010  0.4778727E+02  0.7816164E-02  0.1312668E+00
        -11   -1    0    0    0    0  0.00000000000E+00  0.00000000000E+00  0.45593999997E+02  0.45594000000E+02  0.51100000000E-03 0.  1.
         11   -1    0    0    0    0 -0.00000000000E+00 -0.00000000000E+00 -0.45593999997E+02  0.45594000000E+02  0.51100000000E-03 0. -1.
    9900012    2    1    2    0    0 -0.25245706057E+01 -0.35740554582E+02  0.24492096395E+02  0.47787268619E+02  0.19999988940E+02 0.  0.
         12    1    1    2    0    0  0.25245706057E+01  0.35740554582E+02 -0.24492096395E+02  0.43400731381E+02  0.00000000000E+00 0. -1.
         11    1    3    3    0    0 -0.27878268072E+01 -0.11086244751E+02  0.14167702736E+02  0.18204411609E+02  0.51100000000E-03 0. -1.
        -11    1    3    3    0    0  0.70259706501E+00 -0.20469975938E+01  0.62409077297E+01  0.66055106795E+01  0.51100000000E-03 0.  1.
         12    1    3    3    0    0 -0.43934086352E+00 -0.22607312238E+02  0.40834859300E+01  0.22977346330E+02  0.00000000000E+00 0. -1.
</event>
<event>
 7    1  0.2733256E-010  0.4778727E+02  0.7816164E-02  0.1312668E+00
        -11   -1    0    0    0    0  0.00000000000E+00  0.00000000000E+00  0.45593999997E+02  0.45594000000E+02  0.51100000000E-03 0.  1.
         11   -1    0    0    0    0 -0.00000000000E+00 -0.00000000000E+00 -0.45593999997E+02  0.45594000000E+02  0.51100000000E-03 0. -1.
    9900012    2    1    2    0    0 -0.57136230676E+01 -0.43021610085E+02  0.34439900690E+00  0.47787273813E+02  0.20000012623E+02 0.  0.
         12    1    1    2    0    0  0.57136230676E+01  0.43021610085E+02 -0.34439900690E+00  0.43400726187E+02  0.00000000000E+00 0. -1.
         11    1    3    3    0    0 -0.84692173542E+01 -0.16489844666E+02  0.16074091679E+01  0.18607159488E+02  0.51100000000E-03 0. -1.
        -11    1    3    3    0    0 -0.59011404239E+00 -0.23418636835E+02  0.20794630892E+01  0.23518183450E+02  0.51100000000E-03 0.  1.
         12    1    3    3    0    0  0.33457083291E+01 -0.31131285837E+01 -0.33424732502E+01  0.56619308747E+01  0.00000000000E+00 0. -1.
</event>
<event>
 7    1  0.2733256E-010  0.4778728E+02  0.7816164E-02  0.1312668E+00
        -11   -1    0    0    0    0  0.00000000000E+00  0.00000000000E+00  0.45593999997E+02  0.45594000000E+02  0.51100000000E-03 0.  1.
         11   -1    0    0    0    0 -0.00000000000E+00 -0.00000000000E+00 -0.45593999997E+02  0.45594000000E+02  0.51100000000E-03 0. -1.
    9900012    2    1    2    0    0 -0.18328903616E+02  0.15862566091E+02  0.36000738784E+02  0.47787275308E+02  0.20000019440E+02 0.  0.
         12    1    1    2    0    0  0.18328903616E+02 -0.15862566091E+02 -0.36000738784E+02  0.43400724692E+02  0.00000000000E+00 0. -1.
         11    1    3    3    0    0  0.16889992388E+01  0.17951862306E+01 -0.25915822985E+00  0.24784219335E+01  0.51100000000E-03 0. -1.
        -11    1    3    3    0    0 -0.38528667989E+01  0.12710885568E+01  0.15610946579E+02  0.16129535084E+02  0.51100000000E-03 0.  1.
        -12    1    3    3    0    0 -0.16165036056E+02  0.12796291304E+02  0.20648950436E+02  0.29179318291E+02  0.00000000000E+00 0.  1.
</event>
<event>
 7    1  0.2733256E-010  0.4778727E+02  0.7816164E-02  0.1312668E+00
        -11   -1    0    0    0    0  0.00000000000E+00  0.00000000000E+00  0.45593999997E+02  0.45594000000E+02  0.51100000000E-03 0. -1.
         11   -1    0    0    0    0 -0.00000000000E+00 -0.00000000000E+00 -0.45593999997E+02  0.45594000000E+02  0.51100000000E-03 0.  1.
    9900012    2    1    2    0    0 -0.14887705801E+02 -0.28808276965E+02 -0.28845498145E+02  0.47787269949E+02  0.19999995005E+02 0.  0.
         12    1    1    2    0    0  0.14887705801E+02  0.28808276965E+02  0.28845498145E+02  0.43400730051E+02  0.00000000000E+00 0. -1.
         11    1    3    3    0    0 -0.53078981619E+01 -0.87182060736E+01 -0.63575126749E+01  0.12024926932E+02  0.51100000000E-03 0. -1.
        -11    1    3    3    0    0 -0.64250973327E+01 -0.11544443669E+02 -0.23122516373E+02  0.26630937254E+02  0.51100000000E-03 0.  1.
         12    1    3    3    0    0 -0.31547103064E+01 -0.85456272225E+01  0.63453090258E+00  0.91314057630E+01  0.00000000000E+00 0. -1.
</event>
<event>
 7    1  0.2733256E-010  0.4778727E+02  0.7816164E-02  0.1312668E+00
        -11   -1    0    0    0    0  0.00000000000E+00  0.00000000000E+00  0.45593999997E+02  0.45594000000E+02  0.51100000000E-03 0.  1.
         11   -1    0    0    0    0 -0.00000000000E+00 -0.00000000000E+00 -0.45593999997E+02  0.45594000000E+02  0.51100000000E-03 0. -1.
    9900012    2    1    2    0    0 -0.12597068502E+02 -0.13714846284E+02  0.39202555981E+02  0.47787267991E+02  0.19999986080E+02 0.  0.
         12    1    1    2    0    0  0.12597068502E+02  0.13714846284E+02 -0.39202555981E+02  0.43400732009E+02  0.00000000000E+00 0. -1.
         11    1    3    3    0    0  0.10317433307E+01  0.16409732421E+01 -0.86473362848E-01  0.19403003338E+01  0.51100000000E-03 0. -1.
        -11    1    3    3    0    0 -0.23032439669E+01 -0.28160931398E+00  0.14592202493E+02  0.14775540952E+02  0.51100000000E-03 0.  1.
        -12    1    3    3    0    0 -0.11325567866E+02 -0.15074210212E+02  0.24696826851E+02  0.31071426705E+02  0.00000000000E+00 0.  1.
</event>
<event>
 7    1  0.2733256E-010  0.4778727E+02  0.7816164E-02  0.1312668E+00
        -11   -1    0    0    0    0  0.00000000000E+00  0.00000000000E+00  0.45593999997E+02  0.45594000000E+02  0.51100000000E-03 0.  1.
         11   -1    0    0    0    0 -0.00000000000E+00 -0.00000000000E+00 -0.45593999997E+02  0.45594000000E+02  0.51100000000E-03 0. -1.
    9900012    2    1    2    0    0  0.38493988399E+02 -0.11829310442E+02  0.16183445320E+02  0.47787266932E+02  0.19999981252E+02 0.  0.
         12    1    1    2    0    0 -0.38493988399E+02  0.11829310442E+02 -0.16183445320E+02  0.43400733068E+02  0.00000000000E+00 0. -1.
         11    1    3    3    0    0  0.21731409452E+02 -0.12424323253E+02  0.16811456981E+02  0.30153657343E+02  0.51100000000E-03 0. -1.
        -11    1    3    3    0    0  0.54223357197E+01  0.23958500161E+00  0.23329832503E+01  0.59077861114E+01  0.51100000000E-03 0.  1.
        -12    1    3    3    0    0  0.11340243227E+02  0.35542780893E+00 -0.29609949118E+01  0.11725823478E+02  0.00000000000E+00 0.  1.
</event>
<event>
 7    1  0.2733256E-010  0.4778727E+02  0.7816164E-02  0.1312668E+00
        -11   -1    0    0    0    0  0.00000000000E+00  0.00000000000E+00  0.45593999997E+02  0.45594000000E+02  0.51100000000E-03 0.  1.
         11   -1    0    0    0    0 -0.00000000000E+00 -0.00000000000E+00 -0.45593999997E+02  0.45594000000E+02  0.51100000000E-03 0. -1.
    9900012    2    1    2    0    0  0.17400850080E+02 -0.75804521697E+01  0.39030374999E+02  0.47787274071E+02  0.20000013800E+02 0.  0.
         12    1    1    2    0    0 -0.17400850080E+02  0.75804521697E+01 -0.39030374999E+02  0.43400725929E+02  0.00000000000E+00 0. -1.
         11    1    3    3    0    0  0.13970109568E+02 -0.43279754329E+01  0.10616861576E+02  0.18072439865E+02  0.51100000000E-03 0. -1.
        -11    1    3    3    0    0 -0.20747170555E+01  0.36926008847E+00  0.69436573420E+01  0.72563890068E+01  0.51100000000E-03 0.  1.
        -12    1    3    3    0    0  0.55054575675E+01 -0.36217368253E+01  0.21469856081E+02  0.22458445199E+02  0.00000000000E+00 0.  1.
</event>
<event>
 7    1  0.2733256E-010  0.4778727E+02  0.7816164E-02  0.1312668E+00
        -11   -1    0    0    0    0  0.00000000000E+00  0.00000000000E+00  0.45593999997E+02  0.45594000000E+02  0.51100000000E-03 0.  1.
         11   -1    0    0    0    0 -0.00000000000E+00 -0.00000000000E+00 -0.45593999997E+02  0.45594000000E+02  0.51100000000E-03 0. -1.
    9900012    2    1    2    0    0  0.20769288037E+02  0.31945750982E+02  0.20778093518E+02  0.47787268421E+02  0.19999988038E+02 0.  0.
         12    1    1    2    0    0 -0.20769288037E+02 -0.31945750982E+02 -0.20778093518E+02  0.43400731579E+02  0.00000000000E+00 0. -1.
         11    1    3    3    0    0  0.16018497139E+02  0.24848654732E+02  0.18191046218E+02  0.34712563365E+02  0.51100000000E-03 0.  1.
        -11    1    3    3    0    0  0.72319609308E+01  0.56025719419E+01  0.38365931124E+01  0.99201571681E+01  0.51100000000E-03 0. -1.
        -12    1    3    3    0    0 -0.24811700332E+01  0.14945243078E+01 -0.12495458121E+01  0.31545478878E+01  0.00000000000E+00 0.  1.
</event>
<event>
 7    1  0.2733256E-010  0.4778727E+02  0.7816164E-02  0.1312668E+00
        -11   -1    0    0    0    0  0.00000000000E+00  0.00000000000E+00  0.45593999997E+02  0.45594000000E+02  0.51100000000E-03 0.  1.
         11   -1    0    0    0    0 -0.00000000000E+00 -0.00000000000E+00 -0.45593999997E+02  0.45594000000E+02  0.51100000000E-03 0. -1.
    9900012    2    1    2    0    0  0.33651159309E+02  0.95919752892E+01  0.25675218009E+02  0.47787270368E+02  0.19999996915E+02 0.  0.
         12    1    1    2    0    0 -0.33651159309E+02 -0.95919752892E+01 -0.25675218009E+02  0.43400729632E+02  0.00000000000E+00 0. -1.
         11    1    3    3    0    0  0.22787458052E+02  0.76325996659E+01  0.19405222824E+02  0.30888306772E+02  0.51100000000E-03 0.  1.
        -11    1    3    3    0    0  0.12636710045E+02  0.11082104825E+00  0.34717057098E+01  0.13105398233E+02  0.51100000000E-03 0. -1.
        -12    1    3    3    0    0 -0.17730087871E+01  0.18485545750E+01  0.27982894751E+01  0.37935653629E+01  0.00000000000E+00 0.  1.
</event>
<event>
 7    1  0.2733256E-010  0.4778727E+02  0.7816164E-02  0.1312668E+00
        -11   -1    0    0    0    0  0.00000000000E+00  0.00000000000E+00  0.45593999997E+02  0.45594000000E+02  0.51100000000E-03 0.  1.
         11   -1    0    0    0    0 -0.00000000000E+00 -0.00000000000E+00 -0.45593999997E+02  0.45594000000E+02  0.51100000000E-03 0. -1.
    9900012    2    1    2    0    0 -0.26235944277E+02 -0.32564141671E+02 -0.11613580428E+02  0.47787270223E+02  0.19999996253E+02 0.  0.
         12    1    1    2    0    0  0.26235944277E+02  0.32564141671E+02  0.11613580428E+02  0.43400729777E+02  0.00000000000E+00 0. -1.
         11    1    3    3    0    0 -0.20651903125E+01 -0.14843312797E+02 -0.84498472707E+00  0.15010094779E+02  0.51100000000E-03 0. -1.
        -11    1    3    3    0    0 -0.98616642345E+01 -0.11906517671E+02 -0.44350095621E+01  0.16083746286E+02  0.51100000000E-03 0.  1.
         12    1    3    3    0    0 -0.14309089730E+02 -0.58143112025E+01 -0.63335861386E+01  0.16693429158E+02  0.00000000000E+00 0. -1.
</event>
<event>
 7    1  0.2733256E-010  0.4778727E+02  0.7816164E-02  0.1312668E+00
        -11   -1    0    0    0    0  0.00000000000E+00  0.00000000000E+00  0.45593999997E+02  0.45594000000E+02  0.51100000000E-03 0.  1.
         11   -1    0    0    0    0 -0.00000000000E+00 -0.00000000000E+00 -0.45593999997E+02  0.45594000000E+02  0.51100000000E-03 0. -1.
    9900012    2    1    2    0    0  0.36077293826E+00  0.23035929903E+02  0.36780963343E+02  0.47787268577E+02  0.19999988749E+02 0.  0.
         12    1    1    2    0    0 -0.36077293826E+00 -0.23035929903E+02 -0.36780963343E+02  0.43400731423E+02  0.00000000000E+00 0. -1.
         11    1    3    3    0    0  0.34564170277E+00  0.51165762548E+01  0.58206927652E+00  0.51611651457E+01  0.51100000000E-03 0. -1.
        -11    1    3    3    0    0  0.54781134982E+01  0.14850660361E+02  0.21966091960E+02  0.27075099942E+02  0.51100000000E-03 0.  1.
         12    1    3    3    0    0 -0.54629822627E+01  0.30686932878E+01  0.14232802107E+02  0.15551003489E+02  0.00000000000E+00 0. -1.
</event>
<event>
 7    1  0.2733256E-010  0.4778727E+02  0.7816164E-02  0.1312668E+00
        -11   -1    0    0    0    0  0.00000000000E+00  0.00000000000E+00  0.45593999997E+02  0.45594000000E+02  0.51100000000E-03 0.  1.
         11   -1    0    0    0    0 -0.00000000000E+00 -0.00000000000E+00 -0.45593999997E+02  0.45594000000E+02  0.51100000000E-03 0. -1.
    9900012    2    1    2    0    0  0.71107523597E+01  0.32661960578E+00  0.42813010136E+02  0.47787270554E+02  0.19999997765E+02 0.  0.
         12    1    1    2    0    0 -0.71107523597E+01 -0.32661960578E+00 -0.42813010136E+02  0.43400729446E+02  0.00000000000E+00 0. -1.
         11    1    3    3    0    0 -0.33998832801E+01 -0.19918665478E+01  0.43630363279E+00  0.39644797621E+01  0.51100000000E-03 0. -1.
        -11    1    3    3    0    0  0.35290537213E+01  0.47957889802E+00  0.91046874620E+01  0.97764794343E+01  0.51100000000E-03 0.  1.
         12    1    3    3    0    0  0.69815819185E+01  0.18389072556E+01  0.33272019042E+02  0.34046311358E+02  0.00000000000E+00 0. -1.
</event>
<event>
 7    1  0.2733256E-010  0.4778727E+02  0.7816164E-02  0.1312668E+00
        -11   -1    0    0    0    0  0.00000000000E+00  0.00000000000E+00  0.45593999997E+02  0.45594000000E+02  0.51100000000E-03 0. -1.
         11   -1    0    0    0    0 -0.00000000000E+00 -0.00000000000E+00 -0.45593999997E+02  0.45594000000E+02  0.51100000000E-03 0.  1.
    9900012    2    1    2    0    0  0.35208207089E+02  0.21925933583E+02 -0.12777281075E+02  0.47787270495E+02  0.19999997496E+02 0.  0.
         12    1    1    2    0    0 -0.35208207089E+02 -0.21925933583E+02  0.12777281075E+02  0.43400729505E+02  0.00000000000E+00 0. -1.
         11    1    3    3    0    0  0.88390266838E+01  0.74260195879E+01  0.86550259255E+00  0.11576841307E+02  0.51100000000E-03 0. -1.
        -11    1    3    3    0    0  0.73771443233E+01  0.71170593846E+01  0.20967769362E+01  0.10462851735E+02  0.51100000000E-03 0.  1.
        -12    1    3    3    0    0  0.18992036082E+02  0.73828546101E+01 -0.15739560604E+02  0.25747577454E+02  0.00000000000E+00 0.  1.
</event>
<event>
 7    1  0.2733256E-010  0.4778727E+02  0.7816164E-02  0.1312668E+00
        -11   -1    0    0    0    0  0.00000000000E+00  0.00000000000E+00  0.45593999997E+02  0.45594000000E+02  0.51100000000E-03 0. -1.
         11   -1    0    0    0    0 -0.00000000000E+00 -0.00000000000E+00 -0.45593999997E+02  0.45594000000E+02  0.51100000000E-03 0.  1.
    9900012    2    1    2    0    0 -0.30292840630E+01  0.47487969327E+01 -0.43033659817E+02  0.47787268307E+02  0.19999987517E+02 0.  0.
         12    1    1    2    0    0  0.30292840630E+01 -0.47487969327E+01  0.43033659817E+02  0.43400731693E+02  0.00000000000E+00 0. -1.
         11    1    3    3    0    0  0.34301072436E+01  0.51346826833E+01 -0.66108063962E+01  0.90461794936E+01  0.51100000000E-03 0. -1.
        -11    1    3    3    0    0  0.98690547597E+00 -0.39830188130E+01 -0.64195535966E+01  0.76189953356E+01  0.51100000000E-03 0.  1.
        -12    1    3    3    0    0 -0.74462967826E+01  0.35971330623E+01 -0.30003299825E+02  0.31122093477E+02  0.00000000000E+00 0.  1.
</event>
<event>
 7    1  0.2733256E-010  0.4778728E+02  0.7816164E-02  0.1312668E+00
        -11   -1    0    0    0    0  0.00000000000E+00  0.00000000000E+00  0.45593999997E+02  0.45594000000E+02  0.51100000000E-03 0. -1.
         11   -1    0    0    0    0 -0.00000000000E+00 -0.00000000000E+00 -0.45593999997E+02  0.45594000000E+02  0.51100000000E-03 0.  1.
    9900012    2    1    2    0    0 -0.40877709069E+02 -0.30531911972E+01 -0.14258815149E+02  0.47787275528E+02  0.20000020442E+02 0.  0.
         12    1    1    2    0    0  0.40877709069E+02  0.30531911972E+01  0.14258815149E+02  0.43400724472E+02  0.00000000000E+00 0. -1.
         11    1    3    3    0    0 -0.19011230919E+02 -0.35883998645E+01  0.48642766069E+00  0.19353039213E+02  0.51100000000E-03 0. -1.
        -11    1    3    3    0    0 -0.55025990038E+01 -0.36330947144E+01 -0.10174889647E+01  0.66718256163E+01  0.51100000000E-03 0.  1.
        -12    1    3    3    0    0 -0.16363879147E+02  0.41683033817E+01 -0.13727753845E+02  0.21762410699E+02  0.00000000000E+00 0.  1.
</event>
<event>
 7    1  0.2733256E-010  0.4778727E+02  0.7816164E-02  0.1312668E+00
        -11   -1    0    0    0    0  0.00000000000E+00  0.00000000000E+00  0.45593999997E+02  0.45594000000E+02  0.51100000000E-03 0.  1.
         11   -1    0    0    0    0 -0.00000000000E+00 -0.00000000000E+00 -0.45593999997E+02  0.45594000000E+02  0.51100000000E-03 0. -1.
    9900012    2    1    2    0    0 -0.11503929393E+02  0.41423437323E+02  0.59482681957E+01  0.47787269066E+02  0.19999990978E+02 0.  0.
         12    1    1    2    0    0  0.11503929393E+02 -0.41423437323E+02 -0.59482681957E+01  0.43400730934E+02  0.00000000000E+00 0. -1.
         11    1    3    3    0    0  0.14839178447E+01  0.50325381410E+01 -0.32944723936E+01  0.61953208895E+01  0.51100000000E-03 0. -1.
        -11    1    3    3    0    0  0.20399320338E+01  0.56002911969E+01 -0.47266215854E+00  0.59789626165E+01  0.51100000000E-03 0.  1.
        -12    1    3    3    0    0 -0.15027779272E+02  0.30790607985E+02  0.97154027478E+01  0.35612985560E+02  0.00000000000E+00 0.  1.
</event>
<event>
 7    1  0.2733256E-010  0.4778727E+02  0.7816164E-02  0.1312668E+00
        -11   -1    0    0    0    0  0.00000000000E+00  0.00000000000E+00  0.45593999997E+02  0.45594000000E+02  0.51100000000E-03 0.  1.
         11   -1    0    0    0    0 -0.00000000000E+00 -0.00000000000E+00 -0.45593999997E+02  0.45594000000E+02  0.51100000000E-03 0. -1.
    9900012    2    1    2    0    0 -0.26148964487E+02 -0.21439741061E+01  0.34572506647E+02  0.47787272074E+02  0.20000004692E+02 0.  0.
         12    1    1    2    0    0  0.26148964487E+02  0.21439741061E+01 -0.34572506647E+02  0.43400727926E+02  0.00000000000E+00 0. -1.
         11    1    3    3    0    0 -0.16337285247E+02 -0.12695723585E+01  0.18976198385E+02  0.25072191939E+02  0.51100000000E-03 0. -1.
        -11    1    3    3    0    0 -0.67931219181E+01  0.25766078825E+01  0.16511935484E+02  0.18039662615E+02  0.51100000000E-03 0.  1.
         12    1    3    3    0    0 -0.30185573223E+01 -0.34510096301E+01 -0.91562722238E+00  0.46754175199E+01  0.00000000000E+00 0. -1.
</event>
<event>
 7    1  0.2733256E-010  0.4778727E+02  0.7816164E-02  0.1312668E+00
        -11   -1    0    0    0    0  0.00000000000E+00  0.00000000000E+00  0.45593999997E+02  0.45594000000E+02  0.51100000000E-03 0.  1.
         11   -1    0    0    0    0 -0.00000000000E+00 -0.00000000000E+00 -0.45593999997E+02  0.45594000000E+02  0.51100000000E-03 0. -1.
    9900012    2    1    2    0    0 -0.35625233985E+01 -0.12076569208E+02  0.41534178919E+02  0.47787272872E+02  0.20000008332E+02 0.  0.
         12    1    1    2    0    0  0.35625233985E+01  0.12076569208E+02 -0.41534178919E+02  0.43400727128E+02  0.00000000000E+00 0. -1.
         11    1    3    3    0    0  0.13020989365E+01 -0.27460247952E+01  0.26829750124E+01  0.40539448682E+01  0.51100000000E-03 0. -1.
        -11    1    3    3    0    0 -0.84991256900E+01  0.89291894220E+00  0.11653433431E+02  0.14451122888E+02  0.51100000000E-03 0.  1.
        -12    1    3    3    0    0  0.36345033550E+01 -0.10223463355E+02  0.27197770476E+02  0.29282205116E+02  0.00000000000E+00 0.  1.
</event>
<event>
 7    1  0.2733256E-010  0.4778727E+02  0.7816164E-02  0.1312668E+00
        -11   -1    0    0    0    0  0.00000000000E+00  0.00000000000E+00  0.45593999997E+02  0.45594000000E+02  0.51100000000E-03 0. -1.
         11   -1    0    0    0    0 -0.00000000000E+00 -0.00000000000E+00 -0.45593999997E+02  0.45594000000E+02  0.51100000000E-03 0.  1.
    9900012    2    1    2    0    0 -0.18808471239E+02 -0.13653078766E+02 -0.36653215496E+02  0.47787270095E+02  0.19999995670E+02 0.  0.
         12    1    1    2    0    0  0.18808471239E+02  0.13653078766E+02  0.36653215496E+02  0.43400729905E+02  0.00000000000E+00 0. -1.
         11    1    3    3    0    0 -0.42567300565E+01  0.10688044254E+01 -0.18388733377E+00  0.43927108358E+01  0.51100000000E-03 0. -1.
        -11    1    3    3    0    0 -0.14770872916E+02 -0.10596821567E+02 -0.23062732784E+02  0.29365983004E+02  0.51100000000E-03 0.  1.
        -12    1    3    3    0    0  0.21913173426E+00 -0.41250616238E+01 -0.13406595378E+02  0.14028576255E+02  0.00000000000E+00 0.  1.
</event>
<event>
 7    1  0.2733256E-010  0.4778729E+02  0.7816164E-02  0.1312668E+00
        -11   -1    0    0    0    0  0.00000000000E+00  0.00000000000E+00  0.45593999997E+02  0.45594000000E+02  0.51100000000E-03 0.  1.
         11   -1    0    0    0    0 -0.00000000000E+00 -0.00000000000E+00 -0.45593999997E+02  0.45594000000E+02  0.51100000000E-03 0. -1.
    9900012    2    1    2    0    0 -0.21125972689E+02  0.16499199588E+02  0.34133437021E+02  0.47787287656E+02  0.20000075740E+02 0.  0.
         12    1    1    2    0    0  0.21125972689E+02 -0.16499199588E+02 -0.34133437021E+02  0.43400712344E+02  0.00000000000E+00 0. -1.
         11    1    3    3    0    0 -0.75419302695E+01  0.12198039754E+02  0.13638093266E+02  0.19790666341E+02  0.51100000000E-03 0. -1.
        -11    1    3    3    0    0 -0.94854815030E+01  0.34537070453E+01  0.38024848363E+01  0.10787091493E+02  0.51100000000E-03 0.  1.
        -12    1    3    3    0    0 -0.40985609162E+01  0.84745278888E+00  0.16692858919E+02  0.17209529822E+02  0.00000000000E+00 0.  1.
</event>
<event>
 7    1  0.2733256E-010  0.4778727E+02  0.7816164E-02  0.1312668E+00
        -11   -1    0    0    0    0  0.00000000000E+00  0.00000000000E+00  0.45593999997E+02  0.45594000000E+02  0.51100000000E-03 0. -1.
         11   -1    0    0    0    0 -0.00000000000E+00 -0.00000000000E+00 -0.45593999997E+02  0.45594000000E+02  0.51100000000E-03 0.  1.
    9900012    2    1    2    0    0  0.14274297820E+02 -0.21746127611E+01 -0.40928459703E+02  0.47787270368E+02  0.19999996917E+02 0.  0.
         12    1    1    2    0    0 -0.14274297820E+02  0.21746127611E+01  0.40928459703E+02  0.43400729632E+02  0.00000000000E+00 0. -1.
         11    1    3    3    0    0  0.11561770590E+01  0.61257475910E+01 -0.57274119758E+01  0.84655051321E+01  0.51100000000E-03 0. -1.
        -11    1    3    3    0    0  0.11474869609E+02 -0.44498418307E+01 -0.19392776487E+02  0.22968532931E+02  0.51100000000E-03 0.  1.
        -12    1    3    3    0    0  0.16432511523E+01 -0.38505185214E+01 -0.15808271240E+02  0.16353232305E+02  0.00000000000E+00 0.  1.
</event>
<event>
 7    1  0.2733256E-010  0.4778727E+02  0.7816164E-02  0.1312668E+00
        -11   -1    0    0    0    0  0.00000000000E+00  0.00000000000E+00  0.45593999997E+02  0.45594000000E+02  0.51100000000E-03 0. -1.
         11   -1    0    0    0    0 -0.00000000000E+00 -0.00000000000E+00 -0.45593999997E+02  0.45594000000E+02  0.51100000000E-03 0.  1.
    9900012    2    1    2    0    0  0.23772666339E+02 -0.44532224809E+01 -0.36036816310E+02  0.47787274372E+02  0.20000015170E+02 0.  0.
         12    1    1    2    0    0 -0.23772666339E+02  0.44532224809E+01  0.36036816310E+02  0.43400725628E+02  0.00000000000E+00 0. -1.
         11    1    3    3    0    0 -0.61480756596E+00 -0.15138258699E+01  0.10410672845E+00  0.16372219091E+01  0.51100000000E-03 0. -1.
        -11    1    3    3    0    0  0.94481613788E+01 -0.26018499125E+01 -0.37763489220E+01  0.10502294409E+02  0.51100000000E-03 0.  1.
        -12    1    3    3    0    0  0.14939312526E+02 -0.33754669849E+00 -0.32364574116E+02  0.35647758054E+02  0.00000000000E+00 0.  1.
</event>
<event>
 7    1  0.2733256E-010  0.4778727E+02  0.7816164E-02  0.1312668E+00
        -11   -1    0    0    0    0  0.00000000000E+00  0.00000000000E+00  0.45593999997E+02  0.45594000000E+02  0.51100000000E-03 0. -1.
         11   -1    0    0    0    0 -0.00000000000E+00 -0.00000000000E+00 -0.45593999997E+02  0.45594000000E+02  0.51100000000E-03 0.  1.
    9900012    2    1    2    0    0  0.32483223862E+01  0.28007017593E+02 -0.32995131752E+02  0.47787270143E+02  0.19999995891E+02 0.  0.
         12    1    1    2    0    0 -0.32483223862E+01 -0.28007017593E+02  0.32995131752E+02  0.43400729857E+02  0.00000000000E+00 0. -1.
         11    1    3    3    0    0  0.31313063769E+01  0.12351950647E+02 -0.10826641013E+02  0.16721002371E+02  0.51100000000E-03 0. -1.
        -11    1    3    3    0    0  0.68646761178E+01  0.65626844002E+01 -0.14704794414E+02  0.17504958834E+02  0.51100000000E-03 0.  1.
        -12    1    3    3    0    0 -0.67476601084E+01  0.90923825457E+01 -0.74636963243E+01  0.13561308938E+02  0.00000000000E+00 0.  1.
</event>
<event>
 7    1  0.2733256E-010  0.4778727E+02  0.7816164E-02  0.1312668E+00
        -11   -1    0    0    0    0  0.00000000000E+00  0.00000000000E+00  0.45593999997E+02  0.45594000000E+02  0.51100000000E-03 0.  1.
         11   -1    0    0    0    0 -0.00000000000E+00 -0.00000000000E+00 -0.45593999997E+02  0.45594000000E+02  0.51100000000E-03 0. -1.
    9900012    2    1    2    0    0 -0.23913121339E+02  0.99816792190E+01  0.34815975537E+02  0.47787269076E+02  0.19999991023E+02 0.  0.
         12    1    1    2    0    0  0.23913121339E+02 -0.99816792190E+01 -0.34815975537E+02  0.43400730924E+02  0.00000000000E+00 0. -1.
         11    1    3    3    0    0 -0.11490317589E+02  0.36454388777E+01  0.52719752160E+01  0.13157140489E+02  0.51100000000E-03 0. -1.
        -11    1    3    3    0    0 -0.91656227674E+01  0.78742193227E+01  0.13207006288E+02  0.17900753784E+02  0.51100000000E-03 0.  1.
         12    1    3    3    0    0 -0.32571809829E+01 -0.15379789814E+01  0.16336994032E+02  0.16729374803E+02  0.00000000000E+00 0. -1.
</event>
<event>
 7    1  0.2733256E-010  0.4778727E+02  0.7816164E-02  0.1312668E+00
        -11   -1    0    0    0    0  0.00000000000E+00  0.00000000000E+00  0.45593999997E+02  0.45594000000E+02  0.51100000000E-03 0. -1.
         11   -1    0    0    0    0 -0.00000000000E+00 -0.00000000000E+00 -0.45593999997E+02  0.45594000000E+02  0.51100000000E-03 0.  1.
    9900012    2    1    2    0    0 -0.55097182200E+01 -0.34001325701E+02 -0.26404098500E+02  0.47787267726E+02  0.19999984872E+02 0.  0.
         12    1    1    2    0    0  0.55097182200E+01  0.34001325701E+02  0.26404098500E+02  0.43400732274E+02  0.00000000000E+00 0. -1.
         11    1    3    3    0    0 -0.14526500478E+01 -0.17765791154E+01  0.12303804869E+00  0.22981653850E+01  0.51100000000E-03 0. -1.
        -11    1    3    3    0    0 -0.14893582497E+01 -0.23084597158E+02 -0.27511320484E+02  0.35944256412E+02  0.51100000000E-03 0.  1.
        -12    1    3    3    0    0 -0.25677099225E+01 -0.91401494271E+01  0.98418393551E+00  0.95448459294E+01  0.00000000000E+00 0.  1.
</event>
<event>
 7    1  0.2733256E-010  0.4778727E+02  0.7816164E-02  0.1312668E+00
        -11   -1    0    0    0    0  0.00000000000E+00  0.00000000000E+00  0.45593999997E+02  0.45594000000E+02  0.51100000000E-03 0. -1.
         11   -1    0    0    0    0 -0.00000000000E+00 -0.00000000000E+00 -0.45593999997E+02  0.45594000000E+02  0.51100000000E-03 0.  1.
    9900012    2    1    2    0    0 -0.84264244834E+01  0.13913076778E+02 -0.40237359111E+02  0.47787269554E+02  0.19999993204E+02 0.  0.
         12    1    1    2    0    0  0.84264244834E+01 -0.13913076778E+02  0.40237359111E+02  0.43400730446E+02  0.00000000000E+00 0. -1.
         11    1    3    3    0    0 -0.16905779107E+01 -0.10983876178E+01 -0.49555482041E+01  0.53499502143E+01  0.51100000000E-03 0. -1.
        -11    1    3    3    0    0  0.13234665640E+01  0.11844299878E+02 -0.30033335932E+02  0.32311612012E+02  0.51100000000E-03 0.  1.
        -12    1    3    3    0    0 -0.80593131367E+01  0.31671645181E+01 -0.52484749751E+01  0.10125707328E+02  0.00000000000E+00 0.  1.
</event>
<event>
 7    1  0.2733256E-010  0.4778727E+02  0.7816164E-02  0.1312668E+00
        -11   -1    0    0    0    0  0.00000000000E+00  0.00000000000E+00  0.45593999997E+02  0.45594000000E+02  0.51100000000E-03 0.  1.
         11   -1    0    0    0    0 -0.00000000000E+00 -0.00000000000E+00 -0.45593999997E+02  0.45594000000E+02  0.51100000000E-03 0. -1.
    9900012    2    1    2    0    0 -0.78803458109E+01 -0.12654676886E+02  0.40760061850E+02  0.47787270292E+02  0.19999996568E+02 0.  0.
         12    1    1    2    0    0  0.78803458109E+01  0.12654676886E+02 -0.40760061850E+02  0.43400729708E+02  0.00000000000E+00 0. -1.
         11    1    3    3    0    0 -0.17919237431E+01  0.20836196590E+00  0.91213505884E+00  0.20214836227E+01  0.51100000000E-03 0. -1.
        -11    1    3    3    0    0  0.48432851099E+00 -0.21778146870E+01  0.29274277081E+02  0.29359168071E+02  0.51100000000E-03 0.  1.
         12    1    3    3    0    0 -0.65727505788E+01 -0.10685224165E+02  0.10573649710E+02  0.16406618598E+02  0.00000000000E+00 0. -1.
</event>
<event>
 7    1  0.2733256E-010  0.4778727E+02  0.7816164E-02  0.1312668E+00
        -11   -1    0    0    0    0  0.00000000000E+00  0.00000000000E+00  0.45593999997E+02  0.45594000000E+02  0.51100000000E-03 0.  1.
         11   -1    0    0    0    0 -0.00000000000E+00 -0.00000000000E+00 -0.45593999997E+02  0.45594000000E+02  0.51100000000E-03 0. -1.
    9900012    2    1    2    0    0  0.19905990237E+02  0.19196854262E+02  0.33449296730E+02  0.47787272903E+02  0.20000008472E+02 0.  0.
         12    1    1    2    0    0 -0.19905990237E+02 -0.19196854262E+02 -0.33449296730E+02  0.43400727097E+02  0.00000000000E+00 0. -1.
         11    1    3    3    0    0  0.19674786699E+01  0.22350034295E+01  0.96628331014E+01  0.10111209446E+02  0.51100000000E-03 0. -1.
        -11    1    3    3    0    0  0.16909006238E+02  0.19190523233E+02  0.24170831853E+02  0.35191189049E+02  0.51100000000E-03 0.  1.
         12    1    3    3    0    0  0.10295053294E+01 -0.22286724006E+01 -0.38436822506E+00  0.24848744082E+01  0.00000000000E+00 0. -1.
</event>
<event>
 7    1  0.2733256E-010  0.4778728E+02  0.7816164E-02  0.1312668E+00
        -11   -1    0    0    0    0  0.00000000000E+00  0.00000000000E+00  0.45593999997E+02  0.45594000000E+02  0.51100000000E-03 0.  1.
         11   -1    0    0    0    0 -0.00000000000E+00 -0.00000000000E+00 -0.45593999997E+02  0.45594000000E+02  0.51100000000E-03 0. -1.
    9900012    2    1    2    0    0  0.21971391794E+02  0.37115948210E+02  0.48256647194E+01  0.47787277553E+02  0.20000029677E+02 0.  0.
         12    1    1    2    0    0 -0.21971391794E+02 -0.37115948210E+02 -0.48256647194E+01  0.43400722447E+02  0.00000000000E+00 0. -1.
         11    1    3    3    0    0  0.67762324692E+01  0.85037891872E+01 -0.24323697050E+01  0.11142180202E+02  0.51100000000E-03 0. -1.
        -11    1    3    3    0    0  0.45263917311E+01  0.23780111138E+02  0.48614128915E+01  0.24690387672E+02  0.51100000000E-03 0.  1.
        -12    1    3    3    0    0  0.10668767594E+02  0.48320478845E+01  0.23966215329E+01  0.11954709679E+02  0.00000000000E+00 0.  1.
</event>
<event>
 7    1  0.2733256E-010  0.4778726E+02  0.7816164E-02  0.1312668E+00
        -11   -1    0    0    0    0  0.00000000000E+00  0.00000000000E+00  0.45593999997E+02  0.45594000000E+02  0.51100000000E-03 0. -1.
         11   -1    0    0    0    0 -0.00000000000E+00 -0.00000000000E+00 -0.45593999997E+02  0.45594000000E+02  0.51100000000E-03 0.  1.
    9900012    2    1    2    0    0  0.38196053867E+02 -0.17277238750E+02 -0.11233099657E+02  0.47787262244E+02  0.19999959876E+02 0.  0.
         12    1    1    2    0    0 -0.38196053867E+02  0.17277238750E+02  0.11233099657E+02  0.43400737756E+02  0.00000000000E+00 0. -1.
         11    1    3    3    0    0 -0.57501521744E+00 -0.50957927640E+00  0.15486893765E+00  0.78377177048E+00  0.51100000000E-03 0.  1.
        -11    1    3    3    0    0  0.31693244139E+01 -0.76794222611E+01 -0.50364079769E+01  0.97151196120E+01  0.51100000000E-03 0. -1.
        -12    1    3    3    0    0  0.35601744671E+02 -0.90882372125E+01 -0.63515606176E+01  0.37288370862E+02  0.00000000000E+00 0.  1.
</event>
<event>
 7    1  0.2733256E-010  0.4778728E+02  0.7816164E-02  0.1312668E+00
        -11   -1    0    0    0    0  0.00000000000E+00  0.00000000000E+00  0.45593999997E+02  0.45594000000E+02  0.51100000000E-03 0.  1.
         11   -1    0    0    0    0 -0.00000000000E+00 -0.00000000000E+00 -0.45593999997E+02  0.45594000000E+02  0.51100000000E-03 0. -1.
    9900012    2    1    2    0    0 -0.12075114605E+01 -0.19990326439E+02  0.38503910907E+02  0.47787281225E+02  0.20000046417E+02 0.  0.
         12    1    1    2    0    0  0.12075114605E+01  0.19990326439E+02 -0.38503910907E+02  0.43400718775E+02  0.00000000000E+00 0. -1.
         11    1    3    3    0    0  0.37477092160E+01  0.20928402067E+00  0.29417737917E+01  0.47689786613E+01  0.51100000000E-03 0. -1.
        -11    1    3    3    0    0 -0.14065111786E+00 -0.99345118754E+01  0.66317127570E+01  0.11945456178E+02  0.51100000000E-03 0.  1.
         12    1    3    3    0    0 -0.48145695587E+01 -0.10265098584E+02  0.28930424358E+02  0.31072846386E+02  0.00000000000E+00 0. -1.
</event>
<event>
 7    1  0.2733256E-010  0.4778728E+02  0.7816164E-02  0.1312668E+00
        -11   -1    0    0    0    0  0.00000000000E+00  0.00000000000E+00  0.45593999997E+02  0.45594000000E+02  0.51100000000E-03 0. -1.
         11   -1    0    0    0    0 -0.00000000000E+00 -0.00000000000E+00 -0.45593999997E+02  0.45594000000E+02  0.51100000000E-03 0.  1.
    9900012    2    1    2    0    0  0.38580000699E+02 -0.18697921461E+02  0.67522888106E+01  0.47787284279E+02  0.20000060343E+02 0.  0.
         12    1    1    2    0    0 -0.38580000699E+02  0.18697921461E+02 -0.67522888106E+01  0.43400715721E+02  0.00000000000E+00 0. -1.
         11    1    3    3    0    0  0.26388287349E+01 -0.39045625471E+01  0.22204443926E+01  0.52095488613E+01  0.51100000000E-03 0. -1.
        -11    1    3    3    0    0  0.29063203688E+02 -0.15267806582E+02 -0.22505165766E+01  0.32906542686E+02  0.51100000000E-03 0.  1.
        -12    1    3    3    0    0  0.68779682758E+01  0.47444766811E+00  0.67823609946E+01  0.96711927317E+01  0.00000000000E+00 0.  1.
</event>
<event>
 7    1  0.2733256E-010  0.4778727E+02  0.7816164E-02  0.1312668E+00
        -11   -1    0    0    0    0  0.00000000000E+00  0.00000000000E+00  0.45593999997E+02  0.45594000000E+02  0.51100000000E-03 0. -1.
         11   -1    0    0    0    0 -0.00000000000E+00 -0.00000000000E+00 -0.45593999997E+02  0.45594000000E+02  0.51100000000E-03 0.  1.
    9900012    2    1    2    0    0  0.42374886121E+02  0.32073610200E+01 -0.88150574151E+01  0.47787269871E+02  0.19999994652E+02 0.  0.
         12    1    1    2    0    0 -0.42374886121E+02 -0.32073610200E+01  0.88150574151E+01  0.43400730129E+02  0.00000000000E+00 0. -1.
         11    1    3    3    0    0 -0.95749374493E+00 -0.14162734505E+01 -0.99220619973E+00  0.19766380959E+01  0.51100000000E-03 0. -1.
        -11    1    3    3    0    0  0.18468208406E+02 -0.69246580590E+00  0.19224165296E+01  0.18580901921E+02  0.51100000000E-03 0.  1.
        -12    1    3    3    0    0  0.24864171460E+02  0.53161002765E+01 -0.97452677450E+01  0.27229729854E+02  0.00000000000E+00 0.  1.
</event>
<event>
 7    1  0.2733256E-010  0.4778727E+02  0.7816164E-02  0.1312668E+00
        -11   -1    0    0    0    0  0.00000000000E+00  0.00000000000E+00  0.45593999997E+02  0.45594000000E+02  0.51100000000E-03 0.  1.
         11   -1    0    0    0    0 -0.00000000000E+00 -0.00000000000E+00 -0.45593999997E+02  0.45594000000E+02  0.51100000000E-03 0. -1.
    9900012    2    1    2    0    0  0.36519922716E+02 -0.11328484015E+02  0.20532507460E+02  0.47787272265E+02  0.20000005567E+02 0.  0.
         12    1    1    2    0    0 -0.36519922716E+02  0.11328484015E+02 -0.20532507460E+02  0.43400727735E+02  0.00000000000E+00 0. -1.
         11    1    3    3    0    0  0.48898833443E+01 -0.22590870618E+01  0.11889176593E+02  0.13052469261E+02  0.51100000000E-03 0. -1.
        -11    1    3    3    0    0  0.77071812481E+01 -0.45014681119E+01  0.46178862351E+01  0.10049314976E+02  0.51100000000E-03 0.  1.
        -12    1    3    3    0    0  0.23922858124E+02 -0.45679288411E+01  0.40254446317E+01  0.24685488028E+02  0.00000000000E+00 0.  1.
</event>
<event>
 7    1  0.2733256E-010  0.4778727E+02  0.7816164E-02  0.1312668E+00
        -11   -1    0    0    0    0  0.00000000000E+00  0.00000000000E+00  0.45593999997E+02  0.45594000000E+02  0.51100000000E-03 0.  1.
         11   -1    0    0    0    0 -0.00000000000E+00 -0.00000000000E+00 -0.45593999997E+02  0.45594000000E+02  0.51100000000E-03 0. -1.
    9900012    2    1    2    0    0  0.26354982441E+02  0.30116988847E+01  0.34350667497E+02  0.47787265132E+02  0.19999973041E+02 0.  0.
         12    1    1    2    0    0 -0.26354982441E+02 -0.30116988847E+01 -0.34350667497E+02  0.43400734868E+02  0.00000000000E+00 0. -1.
         11    1    3    3    0    0  0.11287201489E+02  0.40741900136E+01  0.46876077992E+01  0.12883074511E+02  0.51100000000E-03 0. -1.
        -11    1    3    3    0    0  0.31412108153E+00  0.72978057100E+00  0.11082374596E+02  0.11110818092E+02  0.51100000000E-03 0.  1.
         12    1    3    3    0    0  0.14753659871E+02 -0.17922716998E+01  0.18580685101E+02  0.23793372528E+02  0.00000000000E+00 0. -1.
</event>
<event>
 7    1  0.2733256E-010  0.4778727E+02  0.7816164E-02  0.1312668E+00
        -11   -1    0    0    0    0  0.00000000000E+00  0.00000000000E+00  0.45593999997E+02  0.45594000000E+02  0.51100000000E-03 0. -1.
         11   -1    0    0    0    0 -0.00000000000E+00 -0.00000000000E+00 -0.45593999997E+02  0.45594000000E+02  0.51100000000E-03 0.  1.
    9900012    2    1    2    0    0 -0.41485674535E+02  0.79322152793E+01  0.99820876139E+01  0.47787270698E+02  0.19999998419E+02 0.  0.
         12    1    1    2    0    0  0.41485674535E+02 -0.79322152793E+01 -0.99820876139E+01  0.43400729302E+02  0.00000000000E+00 0. -1.
         11    1    3    3    0    0 -0.13528559652E+02 -0.32366208869E+01  0.25881967754E+01  0.14149077844E+02  0.51100000000E-03 0. -1.
        -11    1    3    3    0    0 -0.26602196015E+02  0.57624927384E+01  0.56625479920E+01  0.27801935281E+02  0.51100000000E-03 0.  1.
        -12    1    3    3    0    0 -0.13549188680E+01  0.54063434278E+01  0.17313428465E+01  0.58362575723E+01  0.00000000000E+00 0.  1.
</event>
<event>
 7    1  0.2733256E-010  0.4778727E+02  0.7816164E-02  0.1312668E+00
        -11   -1    0    0    0    0  0.00000000000E+00  0.00000000000E+00  0.45593999997E+02  0.45594000000E+02  0.51100000000E-03 0.  1.
         11   -1    0    0    0    0 -0.00000000000E+00 -0.00000000000E+00 -0.45593999997E+02  0.45594000000E+02  0.51100000000E-03 0. -1.
    9900012    2    1    2    0    0  0.11232107118E+02  0.35655834694E+02  0.22048229733E+02  0.47787271753E+02  0.20000003230E+02 0.  0.
         12    1    1    2    0    0 -0.11232107118E+02 -0.35655834694E+02 -0.22048229733E+02  0.43400728247E+02  0.00000000000E+00 0. -1.
         11    1    3    3    0    0  0.72937940613E+01  0.86008208436E+01  0.88608636498E+01  0.14341842834E+02  0.51100000000E-03 0. -1.
        -11    1    3    3    0    0  0.92420008562E+01  0.18178559296E+02  0.89543850328E+01  0.22272305886E+02  0.51100000000E-03 0.  1.
         12    1    3    3    0    0 -0.53036877998E+01  0.88764545543E+01  0.42329810506E+01  0.11173123033E+02  0.00000000000E+00 0. -1.
</event>
<event>
 7    1  0.2733256E-010  0.4778727E+02  0.7816164E-02  0.1312668E+00
        -11   -1    0    0    0    0  0.00000000000E+00  0.00000000000E+00  0.45593999997E+02  0.45594000000E+02  0.51100000000E-03 0.  1.
         11   -1    0    0    0    0 -0.00000000000E+00 -0.00000000000E+00 -0.45593999997E+02  0.45594000000E+02  0.51100000000E-03 0. -1.
    9900012    2    1    2    0    0 -0.37138020819E+02 -0.14338723054E+02 -0.17285595696E+02  0.47787269732E+02  0.19999994017E+02 0.  0.
         12    1    1    2    0    0  0.37138020819E+02  0.14338723054E+02  0.17285595696E+02  0.43400730268E+02  0.00000000000E+00 0. -1.
         11    1    3    3    0    0 -0.11495110091E+02 -0.10339156741E+02 -0.10125902326E+02  0.18481602103E+02  0.51100000000E-03 0. -1.
        -11    1    3    3    0    0 -0.43013858589E+01 -0.22963596022E+01 -0.61826146493E+01  0.78740022792E+01  0.51100000000E-03 0.  1.
        -12    1    3    3    0    0 -0.21341524869E+02 -0.17032067111E+01 -0.97707872147E+00  0.21431665350E+02  0.00000000000E+00 0.  1.
</event>
<event>
 7    1  0.2733256E-010  0.4778727E+02  0.7816164E-02  0.1312668E+00
        -11   -1    0    0    0    0  0.00000000000E+00  0.00000000000E+00  0.45593999997E+02  0.45594000000E+02  0.51100000000E-03 0.  1.
         11   -1    0    0    0    0 -0.00000000000E+00 -0.00000000000E+00 -0.45593999997E+02  0.45594000000E+02  0.51100000000E-03 0. -1.
    9900012    2    1    2    0    0 -0.22673065549E+02 -0.23191710519E+02  0.28839206196E+02  0.47787272446E+02  0.20000006390E+02 0.  0.
         12    1    1    2    0    0  0.22673065549E+02  0.23191710519E+02 -0.28839206196E+02  0.43400727554E+02  0.00000000000E+00 0. -1.
         11    1    3    3    0    0 -0.18017143537E+02 -0.91966185887E+01  0.11025546923E+02  0.23038184389E+02  0.51100000000E-03 0. -1.
        -11    1    3    3    0    0 -0.56287230209E+01 -0.38702796488E+01  0.89395039085E+01  0.11250614108E+02  0.51100000000E-03 0.  1.
        -12    1    3    3    0    0  0.97280100887E+00 -0.10124812281E+02  0.88741553646E+01  0.13498473950E+02  0.00000000000E+00 0.  1.
</event>
<event>
 7    1  0.2733256E-010  0.4778727E+02  0.7816164E-02  0.1312668E+00
        -11   -1    0    0    0    0  0.00000000000E+00  0.00000000000E+00  0.45593999997E+02  0.45594000000E+02  0.51100000000E-03 0.  1.
         11   -1    0    0    0    0 -0.00000000000E+00 -0.00000000000E+00 -0.45593999997E+02  0.45594000000E+02  0.51100000000E-03 0. -1.
    9900012    2    1    2    0    0 -0.14596678257E+02  0.22418006413E+02  0.34175922694E+02  0.47787265909E+02  0.19999976583E+02 0.  0.
         12    1    1    2    0    0  0.14596678257E+02 -0.22418006413E+02 -0.34175922694E+02  0.43400734091E+02  0.00000000000E+00 0. -1.
         11    1    3    3    0    0 -0.90281989005E+01  0.20760486878E+01  0.10090065489E+02  0.13697728840E+02  0.51100000000E-03 0. -1.
        -11    1    3    3    0    0 -0.27331434568E+01  0.10613906916E+02  0.41373525584E+01  0.11715066352E+02  0.51100000000E-03 0.  1.
        -12    1    3    3    0    0 -0.28353358999E+01  0.97280508097E+01  0.19948504647E+02  0.22374470717E+02  0.00000000000E+00 0.  1.
</event>
<event>
 7    1  0.2733256E-010  0.4778728E+02  0.7816164E-02  0.1312668E+00
        -11   -1    0    0    0    0  0.00000000000E+00  0.00000000000E+00  0.45593999997E+02  0.45594000000E+02  0.51100000000E-03 0.  1.
         11   -1    0    0    0    0 -0.00000000000E+00 -0.00000000000E+00 -0.45593999997E+02  0.45594000000E+02  0.51100000000E-03 0. -1.
    9900012    2    1    2    0    0  0.68224660936E+01 -0.35658886720E+01  0.42712541185E+02  0.47787276733E+02  0.20000025938E+02 0.  0.
         12    1    1    2    0    0 -0.68224660936E+01  0.35658886720E+01 -0.42712541185E+02  0.43400723267E+02  0.00000000000E+00 0. -1.
         11    1    3    3    0    0 -0.22475900071E+01 -0.25109753048E+01  0.17855881440E+02  0.18171107838E+02  0.51100000000E-03 0.  1.
        -11    1    3    3    0    0  0.41463949018E+00 -0.66828983113E+00  0.19315938209E+02  0.19331942644E+02  0.51100000000E-03 0. -1.
         12    1    3    3    0    0  0.86554166105E+01 -0.38662353602E+00  0.55407215356E+01  0.10284226252E+02  0.00000000000E+00 0. -1.
</event>
<event>
 7    1 -0.2733256E-010  0.4778725E+02  0.7816164E-02  0.1312668E+00
        -11   -1    0    0    0    0  0.00000000000E+00  0.00000000000E+00  0.45593999997E+02  0.45594000000E+02  0.51100000000E-03 0.  1.
         11   -1    0    0    0    0 -0.00000000000E+00 -0.00000000000E+00 -0.45593999997E+02  0.45594000000E+02  0.51100000000E-03 0. -1.
    9900012    2    1    2    0    0  0.40163358476E+02 -0.16436618544E+02 -0.60573031603E+00  0.47787254586E+02  0.19999924960E+02 0.  0.
         12    1    1    2    0    0 -0.40163358476E+02  0.16436618544E+02  0.60573031603E+00  0.43400745414E+02  0.00000000000E+00 0. -1.
         11    1    3    3    0    0  0.81967606782E+01 -0.36043987952E+01 -0.27869432108E+01  0.93779330885E+01  0.51100000000E-03 0. -1.
        -11    1    3    3    0    0  0.24940649953E+02 -0.21631368792E+01 -0.16040096573E+01  0.25085613975E+02  0.51100000000E-03 0.  1.
        -12    1    3    3    0    0  0.70259478451E+01 -0.10669082869E+02  0.37852225520E+01  0.13323707523E+02  0.00000000000E+00 0.  1.
</event>
<event>
 7    1  0.2733256E-010  0.4778727E+02  0.7816164E-02  0.1312668E+00
        -11   -1    0    0    0    0  0.00000000000E+00  0.00000000000E+00  0.45593999997E+02  0.45594000000E+02  0.51100000000E-03 0. -1.
         11   -1    0    0    0    0 -0.00000000000E+00 -0.00000000000E+00 -0.45593999997E+02  0.45594000000E+02  0.51100000000E-03 0.  1.
    9900012    2    1    2    0    0 -0.10103544945E+02 -0.24303004796E+02 -0.34509502962E+02  0.47787268932E+02  0.19999990368E+02 0.  0.
         12    1    1    2    0    0  0.10103544945E+02  0.24303004796E+02  0.34509502962E+02  0.43400731068E+02  0.00000000000E+00 0. -1.
         11    1    3    3    0    0 -0.10241508580E+02 -0.89728289839E+01 -0.18945032800E+02  0.23330547058E+02  0.51100000000E-03 0. -1.
        -11    1    3    3    0    0 -0.10755514110E+01  0.10051760252E+01 -0.43836721739E+01  0.46242590399E+01  0.51100000000E-03 0.  1.
         12    1    3    3    0    0  0.12135150458E+01 -0.16335351837E+02 -0.11180797988E+02  0.19832462834E+02  0.00000000000E+00 0. -1.
</event>
<event>
 7    1  0.2733256E-010  0.4778728E+02  0.7816164E-02  0.1312668E+00
        -11   -1    0    0    0    0  0.00000000000E+00  0.00000000000E+00  0.45593999997E+02  0.45594000000E+02  0.51100000000E-03 0. -1.
         11   -1    0    0    0    0 -0.00000000000E+00 -0.00000000000E+00 -0.45593999997E+02  0.45594000000E+02  0.51100000000E-03 0.  1.
    9900012    2    1    2    0    0  0.35665230859E+02  0.24139742485E+02  0.53746634989E+01  0.47787275729E+02  0.20000021361E+02 0.  0.
         12    1    1    2    0    0 -0.35665230859E+02 -0.24139742485E+02 -0.53746634989E+01  0.43400724271E+02  0.00000000000E+00 0. -1.
         11    1    3    3    0    0  0.29824488727E+01  0.89091922056E-01 -0.35101975316E+01  0.46069974627E+01  0.51100000000E-03 0. -1.
        -11    1    3    3    0    0  0.46224246978E+01  0.94126940194E+01  0.81106805020E+00  0.10517768320E+02  0.51100000000E-03 0.  1.
        -12    1    3    3    0    0  0.28060357289E+02  0.14637956544E+02  0.80737929802E+01  0.32662509947E+02  0.00000000000E+00 0.  1.
</event>
<event>
 7    1  0.2733256E-010  0.4778726E+02  0.7816164E-02  0.1312668E+00
        -11   -1    0    0    0    0  0.00000000000E+00  0.00000000000E+00  0.45593999997E+02  0.45594000000E+02  0.51100000000E-03 0.  1.
         11   -1    0    0    0    0 -0.00000000000E+00 -0.00000000000E+00 -0.45593999997E+02  0.45594000000E+02  0.51100000000E-03 0. -1.
    9900012    2    1    2    0    0 -0.14869619822E+02 -0.34659402052E+02  0.21476604164E+02  0.47787259561E+02  0.19999947641E+02 0.  0.
         12    1    1    2    0    0  0.14869619822E+02  0.34659402052E+02 -0.21476604164E+02  0.43400740439E+02  0.00000000000E+00 0. -1.
         11    1    3    3    0    0 -0.40840916951E+01 -0.44674948890E+01  0.58487352749E+01  0.84170077898E+01  0.51100000000E-03 0.  1.
        -11    1    3    3    0    0  0.19822712252E+01 -0.30471205108E+01  0.74316570037E+01  0.82730809678E+01  0.51100000000E-03 0. -1.
         12    1    3    3    0    0 -0.12767799352E+02 -0.27144786652E+02  0.81962118851E+01  0.31097170803E+02  0.00000000000E+00 0. -1.
</event>
<event>
 7    1  0.2733256E-010  0.4778727E+02  0.7816164E-02  0.1312668E+00
        -11   -1    0    0    0    0  0.00000000000E+00  0.00000000000E+00  0.45593999997E+02  0.45594000000E+02  0.51100000000E-03 0.  1.
         11   -1    0    0    0    0 -0.00000000000E+00 -0.00000000000E+00 -0.45593999997E+02  0.45594000000E+02  0.51100000000E-03 0. -1.
    9900012    2    1    2    0    0  0.28352946511E+02  0.29323441615E+02 -0.14828001065E+02  0.47787269366E+02  0.19999992346E+02 0.  0.
         12    1    1    2    0    0 -0.28352946511E+02 -0.29323441615E+02  0.14828001065E+02  0.43400730634E+02  0.00000000000E+00 0. -1.
         11    1    3    3    0    0  0.46418731502E+01  0.92929687682E+01 -0.86141388893E+01  0.13494800626E+02  0.51100000000E-03 0. -1.
        -11    1    3    3    0    0  0.13868824945E+02  0.14518665521E+02 -0.99511868416E+01  0.22408973062E+02  0.51100000000E-03 0.  1.
        -12    1    3    3    0    0  0.98422484155E+01  0.55118073259E+01  0.37373246658E+01  0.11883495678E+02  0.00000000000E+00 0.  1.
</event>
<event>
 7    1  0.2733256E-010  0.4778728E+02  0.7816164E-02  0.1312668E+00
        -11   -1    0    0    0    0  0.00000000000E+00  0.00000000000E+00  0.45593999997E+02  0.45594000000E+02  0.51100000000E-03 0.  1.
         11   -1    0    0    0    0 -0.00000000000E+00 -0.00000000000E+00 -0.45593999997E+02  0.45594000000E+02  0.51100000000E-03 0. -1.
    9900012    2    1    2    0    0 -0.66306947433E+00 -0.42314202144E+02 -0.96276437941E+01  0.47787275475E+02  0.20000020202E+02 0.  0.
         12    1    1    2    0    0  0.66306947433E+00  0.42314202144E+02  0.96276437941E+01  0.43400724525E+02  0.00000000000E+00 0. -1.
         11    1    3    3    0    0  0.57670459184E+01 -0.28305705758E+02 -0.38805394976E+01  0.29146704516E+02  0.51100000000E-03 0. -1.
        -11    1    3    3    0    0  0.48588796369E+00 -0.93201391573E+01 -0.23736932145E+01  0.96299273498E+01  0.51100000000E-03 0.  1.
        -12    1    3    3    0    0 -0.69160033564E+01 -0.46883572292E+01 -0.33734110820E+01  0.90106436098E+01  0.00000000000E+00 0.  1.
</event>
<event>
 7    1  0.2733256E-010  0.4778727E+02  0.7816164E-02  0.1312668E+00
        -11   -1    0    0    0    0  0.00000000000E+00  0.00000000000E+00  0.45593999997E+02  0.45594000000E+02  0.51100000000E-03 0. -1.
         11   -1    0    0    0    0 -0.00000000000E+00 -0.00000000000E+00 -0.45593999997E+02  0.45594000000E+02  0.51100000000E-03 0.  1.
    9900012    2    1    2    0    0  0.40088108486E+02 -0.13515807055E+02  0.96896708989E+01  0.47787271844E+02  0.20000003646E+02 0.  0.
         12    1    1    2    0    0 -0.40088108486E+02  0.13515807055E+02 -0.96896708989E+01  0.43400728156E+02  0.00000000000E+00 0. -1.
         11    1    3    3    0    0  0.19191357189E+02 -0.10284178872E+02  0.36708499549E+00  0.21776300822E+02  0.51100000000E-03 0. -1.
        -11    1    3    3    0    0  0.16649698118E+02 -0.74944566997E+01  0.72768652708E+01  0.19655332535E+02  0.51100000000E-03 0.  1.
         12    1    3    3    0    0  0.42470531791E+01  0.42628285169E+01  0.20457206326E+01  0.63556384870E+01  0.00000000000E+00 0. -1.
</event>
<event>
 7    1  0.2733256E-010  0.4778727E+02  0.7816164E-02  0.1312668E+00
        -11   -1    0    0    0    0  0.00000000000E+00  0.00000000000E+00  0.45593999997E+02  0.45594000000E+02  0.51100000000E-03 0.  1.
         11   -1    0    0    0    0 -0.00000000000E+00 -0.00000000000E+00 -0.45593999997E+02  0.45594000000E+02  0.51100000000E-03 0. -1.
    9900012    2    1    2    0    0 -0.15292946954E+02 -0.20363072147E+02  0.35143911355E+02  0.47787269141E+02  0.19999991320E+02 0.  0.
         12    1    1    2    0    0  0.15292946954E+02  0.20363072147E+02 -0.35143911355E+02  0.43400730859E+02  0.00000000000E+00 0. -1.
         11    1    3    3    0    0  0.11880612488E+01 -0.18575645469E+01  0.71282599639E+01  0.74615096295E+01  0.51100000000E-03 0. -1.
        -11    1    3    3    0    0 -0.18582009219E+02 -0.17532429912E+02  0.21431858742E+02  0.33346690010E+02  0.51100000000E-03 0.  1.
        -12    1    3    3    0    0  0.21010010164E+01 -0.97307768841E+00  0.65837926494E+01  0.69790695016E+01  0.00000000000E+00 0.  1.
</event>
<event>
 7    1  0.2733256E-010  0.4778727E+02  0.7816164E-02  0.1312668E+00
        -11   -1    0    0    0    0  0.00000000000E+00  0.00000000000E+00  0.45593999997E+02  0.45594000000E+02  0.51100000000E-03 0. -1.
         11   -1    0    0    0    0 -0.00000000000E+00 -0.00000000000E+00 -0.45593999997E+02  0.45594000000E+02  0.51100000000E-03 0.  1.
    9900012    2    1    2    0    0 -0.21868111616E+02  0.11451867552E+02 -0.35696832330E+02  0.47787269424E+02  0.19999992614E+02 0.  0.
         12    1    1    2    0    0  0.21868111616E+02 -0.11451867552E+02  0.35696832330E+02  0.43400730576E+02  0.00000000000E+00 0. -1.
         11    1    3    3    0    0 -0.35045315782E+01  0.42226914680E+01 -0.41566654706E+01  0.68840927443E+01  0.51100000000E-03 0. -1.
        -11    1    3    3    0    0 -0.69646655231E+01  0.53264629022E+01 -0.17377882424E+01  0.89385502814E+01  0.51100000000E-03 0.  1.
         12    1    3    3    0    0 -0.11398914514E+02  0.19027131822E+01 -0.29802378617E+02  0.31964626399E+02  0.00000000000E+00 0. -1.
</event>
<event>
 7    1  0.2733256E-010  0.4778725E+02  0.7816164E-02  0.1312668E+00
        -11   -1    0    0    0    0  0.00000000000E+00  0.00000000000E+00  0.45593999997E+02  0.45594000000E+02  0.51100000000E-03 0.  1.
         11   -1    0    0    0    0 -0.00000000000E+00 -0.00000000000E+00 -0.45593999997E+02  0.45594000000E+02  0.51100000000E-03 0. -1.
    9900012    2    1    2    0    0  0.10200805775E+02  0.74856620491E+01  0.41515459092E+02  0.47787252099E+02  0.19999913618E+02 0.  0.
         12    1    1    2    0    0 -0.10200805775E+02 -0.74856620491E+01 -0.41515459092E+02  0.43400747901E+02  0.00000000000E+00 0. -1.
         11    1    3    3    0    0  0.12051340539E+00  0.55123797284E+01  0.39167225076E+01  0.67632513789E+01  0.51100000000E-03 0. -1.
        -11    1    3    3    0    0 -0.22228131789E+01 -0.15077325926E+01  0.25018419770E+01  0.36706088784E+01  0.51100000000E-03 0.  1.
         12    1    3    3    0    0  0.12303105549E+02  0.34810149133E+01  0.35096894607E+02  0.37353391841E+02  0.00000000000E+00 0. -1.
</event>
<event>
 7    1  0.2733256E-010  0.4778727E+02  0.7816164E-02  0.1312668E+00
        -11   -1    0    0    0    0  0.00000000000E+00  0.00000000000E+00  0.45593999997E+02  0.45594000000E+02  0.51100000000E-03 0. -1.
         11   -1    0    0    0    0 -0.00000000000E+00 -0.00000000000E+00 -0.45593999997E+02  0.45594000000E+02  0.51100000000E-03 0.  1.
    9900012    2    1    2    0    0 -0.11240243847E+02 -0.60524498679E+01 -0.41480692500E+02  0.47787273261E+02  0.20000010107E+02 0.  0.
         12    1    1    2    0    0  0.11240243847E+02  0.60524498679E+01  0.41480692500E+02  0.43400726739E+02  0.00000000000E+00 0. -1.
         11    1    3    3    0    0  0.11828017748E+01 -0.95707150043E+01 -0.12365154858E+02  0.15681028686E+02  0.51100000000E-03 0. -1.
        -11    1    3    3    0    0 -0.80995951701E+00  0.12506716664E+01 -0.17908337144E+01  0.23296565606E+01  0.51100000000E-03 0.  1.
         12    1    3    3    0    0 -0.11613086105E+02  0.22675934699E+01 -0.27324703928E+02  0.29776588014E+02  0.00000000000E+00 0. -1.
</event>
<event>
 7    1  0.2733256E-010  0.4778727E+02  0.7816164E-02  0.1312668E+00
        -11   -1    0    0    0    0  0.00000000000E+00  0.00000000000E+00  0.45593999997E+02  0.45594000000E+02  0.51100000000E-03 0.  1.
         11   -1    0    0    0    0 -0.00000000000E+00 -0.00000000000E+00 -0.45593999997E+02  0.45594000000E+02  0.51100000000E-03 0. -1.
    9900012    2    1    2    0    0  0.16718763312E+02 -0.11465145753E+02  0.38375208936E+02  0.47787271035E+02  0.19999999958E+02 0.  0.
         12    1    1    2    0    0 -0.16718763312E+02  0.11465145753E+02 -0.38375208936E+02  0.43400728965E+02  0.00000000000E+00 0. -1.
         11    1    3    3    0    0  0.13541150073E+02  0.11943692499E+01  0.16969463587E+02  0.21742859929E+02  0.51100000000E-03 0. -1.
        -11    1    3    3    0    0  0.15524505626E+01 -0.23302002342E+01  0.10775753204E+02  0.11133588516E+02  0.51100000000E-03 0.  1.
        -12    1    3    3    0    0  0.16251626769E+01 -0.10329314768E+02  0.10629992145E+02  0.14910822590E+02  0.00000000000E+00 0.  1.
</event>
<event>
 7    1  0.2733256E-010  0.4778727E+02  0.7816164E-02  0.1312668E+00
        -11   -1    0    0    0    0  0.00000000000E+00  0.00000000000E+00  0.45593999997E+02  0.45594000000E+02  0.51100000000E-03 0. -1.
         11   -1    0    0    0    0 -0.00000000000E+00 -0.00000000000E+00 -0.45593999997E+02  0.45594000000E+02  0.51100000000E-03 0.  1.
    9900012    2    1    2    0    0 -0.24107012809E+02  0.33352842604E+02 -0.13786340770E+02  0.47787269958E+02  0.19999995048E+02 0.  0.
         12    1    1    2    0    0  0.24107012809E+02 -0.33352842604E+02  0.13786340770E+02  0.43400730042E+02  0.00000000000E+00 0. -1.
         11    1    3    3    0    0 -0.90740984212E+01  0.18037845340E+02 -0.55484828364E+01  0.20940123894E+02  0.51100000000E-03 0. -1.
        -11    1    3    3    0    0 -0.16149703962E+02  0.16885160413E+02 -0.85793572377E+01  0.24890298333E+02  0.51100000000E-03 0.  1.
         12    1    3    3    0    0  0.11167895750E+01 -0.15701631483E+01  0.34149930437E+00  0.19568477309E+01  0.00000000000E+00 0. -1.
</event>
<event>
 7    1  0.2733256E-010  0.4778729E+02  0.7816164E-02  0.1312668E+00
        -11   -1    0    0    0    0  0.00000000000E+00  0.00000000000E+00  0.45593999997E+02  0.45594000000E+02  0.51100000000E-03 0.  1.
         11   -1    0    0    0    0 -0.00000000000E+00 -0.00000000000E+00 -0.45593999997E+02  0.45594000000E+02  0.51100000000E-03 0. -1.
    9900012    2    1    2    0    0 -0.11917191705E+02  0.41227287400E+02 -0.64740514345E+01  0.47787285416E+02  0.20000065524E+02 0.  0.
         12    1    1    2    0    0  0.11917191705E+02 -0.41227287400E+02  0.64740514345E+01  0.43400714584E+02  0.00000000000E+00 0. -1.
         11    1    3    3    0    0 -0.94574365585E+01  0.19330990367E+02  0.25048431971E+01  0.21665745649E+02  0.51100000000E-03 0. -1.
        -11    1    3    3    0    0  0.18263625800E+01  0.46129179904E+01  0.18332159389E+01  0.52891675715E+01  0.51100000000E-03 0.  1.
        -12    1    3    3    0    0 -0.42861177265E+01  0.17283379042E+02 -0.10812110571E+02  0.20832372195E+02  0.00000000000E+00 0.  1.
</event>
<event>
 7    1  0.2733256E-010  0.4778730E+02  0.7816164E-02  0.1312668E+00
        -11   -1    0    0    0    0  0.00000000000E+00  0.00000000000E+00  0.45593999997E+02  0.45594000000E+02  0.51100000000E-03 0.  1.
         11   -1    0    0    0    0 -0.00000000000E+00 -0.00000000000E+00 -0.45593999997E+02  0.45594000000E+02  0.51100000000E-03 0. -1.
    9900012    2    1    2    0    0 -0.21914565703E+01  0.30831706318E+02  0.30466766191E+02  0.47787303709E+02  0.20000148932E+02 0.  0.
         12    1    1    2    0    0  0.21914565703E+01 -0.30831706318E+02 -0.30466766191E+02  0.43400696291E+02  0.00000000000E+00 0. -1.
         11    1    3    3    0    0  0.35711674395E+01  0.18649400544E+02  0.14595048575E+02  0.23949296873E+02  0.51100000000E-03 0. -1.
        -11    1    3    3    0    0 -0.62571294216E+00  0.89505706601E+01  0.15307015754E+02  0.17742856686E+02  0.51100000000E-03 0.  1.
         12    1    3    3    0    0 -0.51369110676E+01  0.32317351137E+01  0.56470186188E+00  0.60951501503E+01  0.00000000000E+00 0. -1.
</event>
<event>
 7    1  0.2733256E-010  0.4778726E+02  0.7816164E-02  0.1312668E+00
        -11   -1    0    0    0    0  0.00000000000E+00  0.00000000000E+00  0.45593999997E+02  0.45594000000E+02  0.51100000000E-03 0.  1.
         11   -1    0    0    0    0 -0.00000000000E+00 -0.00000000000E+00 -0.45593999997E+02  0.45594000000E+02  0.51100000000E-03 0. -1.
    9900012    2    1    2    0    0  0.33015118735E+02 -0.28072885972E+02  0.23535244817E+01  0.47787261880E+02  0.19999958216E+02 0.  0.
         12    1    1    2    0    0 -0.33015118735E+02  0.28072885972E+02 -0.23535244817E+01  0.43400738120E+02  0.00000000000E+00 0. -1.
         11    1    3    3    0    0  0.90686232361E+01 -0.14979890235E+02  0.46242647575E+01  0.18111346269E+02  0.51100000000E-03 0. -1.
        -11    1    3    3    0    0  0.16208528886E+02 -0.10513958219E+02  0.35659093563E+01  0.19646257554E+02  0.51100000000E-03 0.  1.
         12    1    3    3    0    0  0.77379666127E+01 -0.25790375173E+01 -0.58366496321E+01  0.10029658057E+02  0.00000000000E+00 0. -1.
</event>
<event>
 7    1  0.2733256E-010  0.4778727E+02  0.7816164E-02  0.1312668E+00
        -11   -1    0    0    0    0  0.00000000000E+00  0.00000000000E+00  0.45593999997E+02  0.45594000000E+02  0.51100000000E-03 0. -1.
         11   -1    0    0    0    0 -0.00000000000E+00 -0.00000000000E+00 -0.45593999997E+02  0.45594000000E+02  0.51100000000E-03 0.  1.
    9900012    2    1    2    0    0 -0.27353619140E+02  0.32990830498E+02  0.68562129195E+01  0.47787273824E+02  0.20000012674E+02 0.  0.
         12    1    1    2    0    0  0.27353619140E+02 -0.32990830498E+02 -0.68562129195E+01  0.43400726176E+02  0.00000000000E+00 0. -1.
         11    1    3    3    0    0 -0.19983985076E+00  0.76847302397E+01  0.79528456198E+00  0.77283563983E+01  0.51100000000E-03 0. -1.
        -11    1    3    3    0    0  0.20881072171E+00  0.31138588525E+01 -0.22668902997E+01  0.38572672662E+01  0.51100000000E-03 0.  1.
        -12    1    3    3    0    0 -0.27362590011E+02  0.22192241406E+02  0.83278186572E+01  0.36201650160E+02  0.00000000000E+00 0.  1.
</event>
<event>
 7    1  0.2733256E-010  0.4778730E+02  0.7816164E-02  0.1312668E+00
        -11   -1    0    0    0    0  0.00000000000E+00  0.00000000000E+00  0.45593999997E+02  0.45594000000E+02  0.51100000000E-03 0.  1.
         11   -1    0    0    0    0 -0.00000000000E+00 -0.00000000000E+00 -0.45593999997E+02  0.45594000000E+02  0.51100000000E-03 0. -1.
    9900012    2    1    2    0    0 -0.30163298218E+02 -0.18261013571E+02  0.25304782002E+02  0.47787295303E+02  0.20000110605E+02 0.  0.
         12    1    1    2    0    0  0.30163298218E+02  0.18261013571E+02 -0.25304782002E+02  0.43400704697E+02  0.00000000000E+00 0. -1.
         11    1    3    3    0    0 -0.54203573613E+01 -0.44624014809E+01 -0.25278333086E+01  0.74621205028E+01  0.51100000000E-03 0. -1.
        -11    1    3    3    0    0 -0.96435056347E+01 -0.38015351095E+01  0.60648614057E+01  0.12009638390E+02  0.51100000000E-03 0.  1.
         12    1    3    3    0    0 -0.15099435222E+02 -0.99970769806E+01  0.21767753905E+02  0.28315536411E+02  0.00000000000E+00 0. -1.
</event>
<event>
 7    1  0.2733256E-010  0.4778727E+02  0.7816164E-02  0.1312668E+00
        -11   -1    0    0    0    0  0.00000000000E+00  0.00000000000E+00  0.45593999997E+02  0.45594000000E+02  0.51100000000E-03 0. -1.
         11   -1    0    0    0    0 -0.00000000000E+00 -0.00000000000E+00 -0.45593999997E+02  0.45594000000E+02  0.51100000000E-03 0.  1.
    9900012    2    1    2    0    0  0.39982894335E+02  0.82579802727E+01 -0.14724035341E+02  0.47787270809E+02  0.19999998926E+02 0.  0.
         12    1    1    2    0    0 -0.39982894335E+02 -0.82579802727E+01  0.14724035341E+02  0.43400729191E+02  0.00000000000E+00 0. -1.
         11    1    3    3    0    0  0.11688242973E+02  0.42747523506E+01 -0.70742771363E+01  0.14315513568E+02  0.51100000000E-03 0.  1.
        -11    1    3    3    0    0  0.28831070020E+02  0.50183408251E+01 -0.38737042481E+01  0.29519822628E+02  0.51100000000E-03 0. -1.
         12    1    3    3    0    0 -0.53641865815E+00 -0.10351129030E+01 -0.37760539567E+01  0.39519346126E+01  0.00000000000E+00 0. -1.
</event>
<event>
 7    1  0.2733256E-010  0.4778727E+02  0.7816164E-02  0.1312668E+00
        -11   -1    0    0    0    0  0.00000000000E+00  0.00000000000E+00  0.45593999997E+02  0.45594000000E+02  0.51100000000E-03 0.  1.
         11   -1    0    0    0    0 -0.00000000000E+00 -0.00000000000E+00 -0.45593999997E+02  0.45594000000E+02  0.51100000000E-03 0. -1.
    9900012    2    1    2    0    0  0.15255013287E+02  0.33769545869E+02  0.22594812716E+02  0.47787271662E+02  0.20000002815E+02 0.  0.
         12    1    1    2    0    0 -0.15255013287E+02 -0.33769545869E+02 -0.22594812716E+02  0.43400728338E+02  0.00000000000E+00 0. -1.
         11    1    3    3    0    0  0.41274639405E+01  0.11941917692E+02  0.14628549546E+02  0.19329765100E+02  0.51100000000E-03 0. -1.
        -11    1    3    3    0    0  0.34684663603E+01  0.14788435486E+02  0.95393336515E+01  0.17936749142E+02  0.51100000000E-03 0.  1.
         12    1    3    3    0    0  0.76590829864E+01  0.70391926907E+01 -0.15730704819E+01  0.10520757419E+02  0.00000000000E+00 0. -1.
</event>
<event>
 7    1  0.2733256E-010  0.4778727E+02  0.7816164E-02  0.1312668E+00
        -11   -1    0    0    0    0  0.00000000000E+00  0.00000000000E+00  0.45593999997E+02  0.45594000000E+02  0.51100000000E-03 0.  1.
         11   -1    0    0    0    0 -0.00000000000E+00 -0.00000000000E+00 -0.45593999997E+02  0.45594000000E+02  0.51100000000E-03 0. -1.
    9900012    2    1    2    0    0  0.37194730557E+02 -0.19189982247E+01  0.22282116200E+02  0.47787271461E+02  0.20000001899E+02 0.  0.
         12    1    1    2    0    0 -0.37194730557E+02  0.19189982247E+01 -0.22282116200E+02  0.43400728539E+02  0.00000000000E+00 0. -1.
         11    1    3    3    0    0  0.55846786957E+01  0.30181647292E+01  0.25751996953E+01  0.68505188269E+01  0.51100000000E-03 0. -1.
        -11    1    3    3    0    0  0.57993371404E+00 -0.37210445700E+01  0.57898830888E+01  0.69068981641E+01  0.51100000000E-03 0.  1.
        -12    1    3    3    0    0  0.31030118147E+02 -0.12161183838E+01  0.13917033415E+02  0.34029854470E+02  0.00000000000E+00 0.  1.
</event>
<event>
 7    1  0.2733256E-010  0.4778726E+02  0.7816164E-02  0.1312668E+00
        -11   -1    0    0    0    0  0.00000000000E+00  0.00000000000E+00  0.45593999997E+02  0.45594000000E+02  0.51100000000E-03 0.  1.
         11   -1    0    0    0    0 -0.00000000000E+00 -0.00000000000E+00 -0.45593999997E+02  0.45594000000E+02  0.51100000000E-03 0. -1.
    9900012    2    1    2    0    0  0.58830447962E+01  0.29838870289E+02  0.30962170257E+02  0.47787258264E+02  0.19999941728E+02 0.  0.
         12    1    1    2    0    0 -0.58830447962E+01 -0.29838870289E+02 -0.30962170257E+02  0.43400741736E+02  0.00000000000E+00 0. -1.
         11    1    3    3    0    0  0.63656082490E+01  0.90529086205E+01  0.19186786532E+02  0.22149693013E+02  0.51100000000E-03 0. -1.
        -11    1    3    3    0    0  0.33248024806E+01  0.14292229842E+02  0.10399370198E+02  0.17985245235E+02  0.51100000000E-03 0.  1.
        -12    1    3    3    0    0 -0.38073659335E+01  0.64937318272E+01  0.13760135261E+01  0.76523200155E+01  0.00000000000E+00 0.  1.
</event>
<event>
 7    1  0.2733256E-010  0.4778727E+02  0.7816164E-02  0.1312668E+00
        -11   -1    0    0    0    0  0.00000000000E+00  0.00000000000E+00  0.45593999997E+02  0.45594000000E+02  0.51100000000E-03 0. -1.
         11   -1    0    0    0    0 -0.00000000000E+00 -0.00000000000E+00 -0.45593999997E+02  0.45594000000E+02  0.51100000000E-03 0.  1.
    9900012    2    1    2    0    0 -0.37338695535E+02 -0.21744084166E+02 -0.40792587885E+01  0.47787265758E+02  0.19999975899E+02 0.  0.
         12    1    1    2    0    0  0.37338695535E+02  0.21744084166E+02  0.40792587885E+01  0.43400734242E+02  0.00000000000E+00 0. -1.
         11    1    3    3    0    0 -0.11566653656E+02 -0.63538805239E+01  0.36154712565E+01  0.13683234529E+02  0.51100000000E-03 0. -1.
        -11    1    3    3    0    0 -0.22388019285E+02 -0.66315382889E+01 -0.28048360213E+01  0.23517393838E+02  0.51100000000E-03 0.  1.
         12    1    3    3    0    0 -0.33840225938E+01 -0.87586653532E+01 -0.48898940237E+01  0.10586637391E+02  0.00000000000E+00 0. -1.
</event>
<event>
 7    1  0.2733256E-010  0.4778731E+02  0.7816164E-02  0.1312668E+00
        -11   -1    0    0    0    0  0.00000000000E+00  0.00000000000E+00  0.45593999997E+02  0.45594000000E+02  0.51100000000E-03 0.  1.
         11   -1    0    0    0    0 -0.00000000000E+00 -0.00000000000E+00 -0.45593999997E+02  0.45594000000E+02  0.51100000000E-03 0. -1.
    9900012    2    1    2    0    0  0.45826536189E+01 -0.42561426488E+02 -0.71515346955E+01  0.47787306603E+02  0.20000162123E+02 0.  0.
         12    1    1    2    0    0 -0.45826536189E+01  0.42561426488E+02  0.71515346955E+01  0.43400693397E+02  0.00000000000E+00 0. -1.
         11    1    3    3    0    0  0.54494961963E+00 -0.25729994173E+01  0.29687537269E+01  0.39662066312E+01  0.51100000000E-03 0. -1.
        -11    1    3    3    0    0  0.53954578106E+01 -0.29566610409E+02 -0.12708517785E+01  0.30081730013E+02  0.51100000000E-03 0.  1.
        -12    1    3    3    0    0 -0.13577538114E+01 -0.10421816662E+02 -0.88494366438E+01  0.13739369958E+02  0.00000000000E+00 0.  1.
</event>
<event>
 7    1  0.2733256E-010  0.4778727E+02  0.7816164E-02  0.1312668E+00
        -11   -1    0    0    0    0  0.00000000000E+00  0.00000000000E+00  0.45593999997E+02  0.45594000000E+02  0.51100000000E-03 0.  1.
         11   -1    0    0    0    0 -0.00000000000E+00 -0.00000000000E+00 -0.45593999997E+02  0.45594000000E+02  0.51100000000E-03 0. -1.
    9900012    2    1    2    0    0 -0.29404559721E+01  0.24146320693E+02  0.35943461989E+02  0.47787267932E+02  0.19999985807E+02 0.  0.
         12    1    1    2    0    0  0.29404559721E+01 -0.24146320693E+02 -0.35943461989E+02  0.43400732068E+02  0.00000000000E+00 0. -1.
         11    1    3    3    0    0  0.19395478052E+01  0.77372661090E+00  0.26811541414E+00  0.21053229428E+01  0.51100000000E-03 0. -1.
        -11    1    3    3    0    0 -0.81831724739E+01  0.19913725974E+02  0.20340336541E+02  0.29618407870E+02  0.51100000000E-03 0.  1.
        -12    1    3    3    0    0  0.33031686966E+01  0.34588681080E+01  0.15335010034E+02  0.16063537119E+02  0.00000000000E+00 0.  1.
</event>
<event>
 7    1  0.2733256E-010  0.4778727E+02  0.7816164E-02  0.1312668E+00
        -11   -1    0    0    0    0  0.00000000000E+00  0.00000000000E+00  0.45593999997E+02  0.45594000000E+02  0.51100000000E-03 0.  1.
         11   -1    0    0    0    0 -0.00000000000E+00 -0.00000000000E+00 -0.45593999997E+02  0.45594000000E+02  0.51100000000E-03 0. -1.
    9900012    2    1    2    0    0  0.25171640147E+02  0.13475158146E+02  0.32686879622E+02  0.47787268968E+02  0.19999990532E+02 0.  0.
         12    1    1    2    0    0 -0.25171640147E+02 -0.13475158146E+02 -0.32686879622E+02  0.43400731032E+02  0.00000000000E+00 0. -1.
         11    1    3    3    0    0 -0.26266527948E+01  0.35445602345E+01  0.63311191330E+01  0.77166237370E+01  0.51100000000E-03 0. -1.
        -11    1    3    3    0    0  0.38678599806E+00  0.93888599311E+00  0.30248590131E-01  0.10158865855E+01  0.51100000000E-03 0.  1.
        -12    1    3    3    0    0  0.27411506943E+02  0.89917119182E+01  0.26325511899E+02  0.39054758645E+02  0.00000000000E+00 0.  1.
</event>
<event>
 7    1  0.2733256E-010  0.4778727E+02  0.7816164E-02  0.1312668E+00
        -11   -1    0    0    0    0  0.00000000000E+00  0.00000000000E+00  0.45593999997E+02  0.45594000000E+02  0.51100000000E-03 0. -1.
         11   -1    0    0    0    0 -0.00000000000E+00 -0.00000000000E+00 -0.45593999997E+02  0.45594000000E+02  0.51100000000E-03 0.  1.
    9900012    2    1    2    0    0 -0.10748800923E+02  0.41905554653E+02 -0.34656765227E+01  0.47787272519E+02  0.20000006725E+02 0.  0.
         12    1    1    2    0    0  0.10748800923E+02 -0.41905554653E+02  0.34656765227E+01  0.43400727481E+02  0.00000000000E+00 0. -1.
         11    1    3    3    0    0  0.14177797675E+01  0.12921196158E+01 -0.27161978218E+01  0.33252674237E+01  0.51100000000E-03 0. -1.
        -11    1    3    3    0    0 -0.10568237564E+02  0.12863937793E+02 -0.77698804832E+00  0.16666500876E+02  0.51100000000E-03 0.  1.
         12    1    3    3    0    0 -0.15983431260E+01  0.27749497244E+02  0.27509347424E-01  0.27795504220E+02  0.00000000000E+00 0. -1.
</event>
<event>
 7    1  0.2733256E-010  0.4778727E+02  0.7816164E-02  0.1312668E+00
        -11   -1    0    0    0    0  0.00000000000E+00  0.00000000000E+00  0.45593999997E+02  0.45594000000E+02  0.51100000000E-03 0.  1.
         11   -1    0    0    0    0 -0.00000000000E+00 -0.00000000000E+00 -0.45593999997E+02  0.45594000000E+02  0.51100000000E-03 0. -1.
    9900012    2    1    2    0    0 -0.43911893002E+01 -0.14450387472E+02  0.40688168018E+02  0.47787271225E+02  0.20000000822E+02 0.  0.
         12    1    1    2    0    0  0.43911893002E+01  0.14450387472E+02 -0.40688168018E+02  0.43400728775E+02  0.00000000000E+00 0. -1.
         11    1    3    3    0    0 -0.39804849354E+01  0.18056887168E+01  0.26606088670E+01  0.51169924631E+01  0.51100000000E-03 0. -1.
        -11    1    3    3    0    0  0.50597009491E+00  0.12928956709E+01  0.10882386675E+01  0.17640432566E+01  0.51100000000E-03 0.  1.
         12    1    3    3    0    0 -0.91667445968E+00 -0.17548971859E+02  0.36939320484E+02  0.40906235505E+02  0.00000000000E+00 0. -1.
</event>
<event>
 7    1  0.2733256E-010  0.4778729E+02  0.7816164E-02  0.1312668E+00
        -11   -1    0    0    0    0  0.00000000000E+00  0.00000000000E+00  0.45593999997E+02  0.45594000000E+02  0.51100000000E-03 0.  1.
         11   -1    0    0    0    0 -0.00000000000E+00 -0.00000000000E+00 -0.45593999997E+02  0.45594000000E+02  0.51100000000E-03 0. -1.
    9900012    2    1    2    0    0  0.21247859545E+02 -0.37443869934E+02  0.54869598758E+01  0.47787289642E+02  0.20000084794E+02 0.  0.
         12    1    1    2    0    0 -0.21247859545E+02  0.37443869934E+02 -0.54869598758E+01  0.43400710358E+02  0.00000000000E+00 0. -1.
         11    1    3    3    0    0  0.14486820589E+01 -0.15154528918E+02  0.28540072249E+01  0.15488827713E+02  0.51100000000E-03 0. -1.
        -11    1    3    3    0    0  0.94507670861E+01 -0.18995335168E+02  0.30267190983E+01  0.21431303867E+02  0.51100000000E-03 0.  1.
        -12    1    3    3    0    0  0.10348410400E+02 -0.32940058484E+01 -0.39376644735E+00  0.10867158062E+02  0.00000000000E+00 0.  1.
</event>
<event>
 7    1  0.2733256E-010  0.4778729E+02  0.7816164E-02  0.1312668E+00
        -11   -1    0    0    0    0  0.00000000000E+00  0.00000000000E+00  0.45593999997E+02  0.45594000000E+02  0.51100000000E-03 0.  1.
         11   -1    0    0    0    0 -0.00000000000E+00 -0.00000000000E+00 -0.45593999997E+02  0.45594000000E+02  0.51100000000E-03 0. -1.
    9900012    2    1    2    0    0 -0.31024086569E+02  0.29785068704E+02  0.58290414153E+01  0.47787285847E+02  0.20000067492E+02 0.  0.
         12    1    1    2    0    0  0.31024086569E+02 -0.29785068704E+02 -0.58290414153E+01  0.43400714153E+02  0.00000000000E+00 0. -1.
         11    1    3    3    0    0 -0.91919558773E+01  0.35165602239E+00  0.48891275623E+01  0.10417258919E+02  0.51100000000E-03 0. -1.
        -11    1    3    3    0    0 -0.81215975739E+01  0.61731343965E+01  0.17854406566E+01  0.10356434426E+02  0.51100000000E-03 0.  1.
        -12    1    3    3    0    0 -0.13710533117E+02  0.23260278285E+02 -0.84552680357E+00  0.27013592502E+02  0.00000000000E+00 0.  1.
</event>
<event>
 7    1  0.2733256E-010  0.4778727E+02  0.7816164E-02  0.1312668E+00
        -11   -1    0    0    0    0  0.00000000000E+00  0.00000000000E+00  0.45593999997E+02  0.45594000000E+02  0.51100000000E-03 0.  1.
         11   -1    0    0    0    0 -0.00000000000E+00 -0.00000000000E+00 -0.45593999997E+02  0.45594000000E+02  0.51100000000E-03 0. -1.
    9900012    2    1    2    0    0  0.31887156603E+02  0.61763836671E+01  0.28786887170E+02  0.47787270232E+02  0.19999996297E+02 0.  0.
         12    1    1    2    0    0 -0.31887156603E+02 -0.61763836671E+01 -0.28786887170E+02  0.43400729768E+02  0.00000000000E+00 0. -1.
         11    1    3    3    0    0  0.13180909251E+02  0.36115752700E+00  0.87219623650E+01  0.15809472831E+02  0.51100000000E-03 0. -1.
        -11    1    3    3    0    0  0.19403300277E+02  0.91776471160E+01  0.17192112696E+02  0.27500654673E+02  0.51100000000E-03 0.  1.
         12    1    3    3    0    0 -0.69705292448E+00 -0.33624209759E+01  0.28728121094E+01  0.44771427289E+01  0.00000000000E+00 0. -1.
</event>
<event>
 7    1  0.2733256E-010  0.4778727E+02  0.7816164E-02  0.1312668E+00
        -11   -1    0    0    0    0  0.00000000000E+00  0.00000000000E+00  0.45593999997E+02  0.45594000000E+02  0.51100000000E-03 0.  1.
         11   -1    0    0    0    0 -0.00000000000E+00 -0.00000000000E+00 -0.45593999997E+02  0.45594000000E+02  0.51100000000E-03 0. -1.
    9900012    2    1    2    0    0  0.82751094800E+01  0.14916719514E+01  0.42578405599E+02  0.47787272524E+02  0.20000006744E+02 0.  0.
         12    1    1    2    0    0 -0.82751094800E+01 -0.14916719514E+01 -0.42578405599E+02  0.43400727476E+02  0.00000000000E+00 0. -1.
         11    1    3    3    0    0  0.30349877390E+01  0.99790236015E+01  0.27181664244E+02  0.29114170672E+02  0.51100000000E-03 0. -1.
        -11    1    3    3    0    0  0.90093812255E+00 -0.28101990800E-01  0.24499978018E+01  0.26105495039E+01  0.51100000000E-03 0.  1.
         12    1    3    3    0    0  0.43391836184E+01 -0.84592496593E+01  0.12946743554E+02  0.16062552347E+02  0.00000000000E+00 0. -1.
</event>
<event>
 7    1  0.2733256E-010  0.4778727E+02  0.7816164E-02  0.1312668E+00
        -11   -1    0    0    0    0  0.00000000000E+00  0.00000000000E+00  0.45593999997E+02  0.45594000000E+02  0.51100000000E-03 0. -1.
         11   -1    0    0    0    0 -0.00000000000E+00 -0.00000000000E+00 -0.45593999997E+02  0.45594000000E+02  0.51100000000E-03 0.  1.
    9900012    2    1    2    0    0 -0.32763678605E+02  0.19585870856E+02 -0.20653293862E+02  0.47787268206E+02  0.19999987059E+02 0.  0.
         12    1    1    2    0    0  0.32763678605E+02 -0.19585870856E+02  0.20653293862E+02  0.43400731794E+02  0.00000000000E+00 0. -1.
         11    1    3    3    0    0 -0.97739493015E+01  0.93794816787E+00 -0.90297333686E+01  0.13339637052E+02  0.51100000000E-03 0. -1.
        -11    1    3    3    0    0  0.14278876365E+01  0.17673318156E+00 -0.17764168936E+01  0.22859910238E+01  0.51100000000E-03 0.  1.
        -12    1    3    3    0    0 -0.24417616940E+02  0.18471189506E+02 -0.98471435995E+01  0.32161640130E+02  0.00000000000E+00 0.  1.
</event>
<event>
 7    1  0.2733256E-010  0.4778727E+02  0.7816164E-02  0.1312668E+00
        -11   -1    0    0    0    0  0.00000000000E+00  0.00000000000E+00  0.45593999997E+02  0.45594000000E+02  0.51100000000E-03 0.  1.
         11   -1    0    0    0    0 -0.00000000000E+00 -0.00000000000E+00 -0.45593999997E+02  0.45594000000E+02  0.51100000000E-03 0. -1.
    9900012    2    1    2    0    0 -0.82959475206E+01 -0.13879501113E+02  0.40276047542E+02  0.47787270721E+02  0.19999998523E+02 0.  0.
         12    1    1    2    0    0  0.82959475206E+01  0.13879501113E+02 -0.40276047542E+02  0.43400729279E+02  0.00000000000E+00 0. -1.
         11    1    3    3    0    0  0.22716318469E+01 -0.62175591505E+01  0.81154141386E+01  0.10472740804E+02  0.51100000000E-03 0. -1.
        -11    1    3    3    0    0 -0.15187811607E+01 -0.93783459701E+01  0.19108977417E+02  0.21340409732E+02  0.51100000000E-03 0.  1.
        -12    1    3    3    0    0 -0.90487982067E+01  0.17164040076E+01  0.13051655987E+02  0.15974120185E+02  0.00000000000E+00 0.  1.
</event>
<event>
 7    1  0.2733256E-010  0.4778727E+02  0.7816164E-02  0.1312668E+00
        -11   -1    0    0    0    0  0.00000000000E+00  0.00000000000E+00  0.45593999997E+02  0.45594000000E+02  0.51100000000E-03 0.  1.
         11   -1    0    0    0    0 -0.00000000000E+00 -0.00000000000E+00 -0.45593999997E+02  0.45594000000E+02  0.51100000000E-03 0. -1.
    9900012    2    1    2    0    0  0.18586732386E+02  0.22849360199E+02  0.31875755844E+02  0.47787266217E+02  0.19999977990E+02 0.  0.
         12    1    1    2    0    0 -0.18586732386E+02 -0.22849360199E+02 -0.31875755844E+02  0.43400733783E+02  0.00000000000E+00 0. -1.
         11    1    3    3    0    0  0.77099951716E+00  0.50223482991E+01 -0.17325854233E+01  0.53684518442E+01  0.51100000000E-03 0.  1.
        -11    1    3    3    0    0  0.26127767855E+01  0.10812975477E+01  0.16730517082E+01  0.32855607127E+01  0.51100000000E-03 0. -1.
        -12    1    3    3    0    0  0.15202956083E+02  0.16745714352E+02  0.31935289559E+02  0.39133253660E+02  0.00000000000E+00 0.  1.
</event>
<event>
 7    1  0.2733256E-010  0.4778727E+02  0.7816164E-02  0.1312668E+00
        -11   -1    0    0    0    0  0.00000000000E+00  0.00000000000E+00  0.45593999997E+02  0.45594000000E+02  0.51100000000E-03 0. -1.
         11   -1    0    0    0    0 -0.00000000000E+00 -0.00000000000E+00 -0.45593999997E+02  0.45594000000E+02  0.51100000000E-03 0.  1.
    9900012    2    1    2    0    0 -0.30535280049E+02  0.27609187611E+02 -0.13746013730E+02  0.47787268881E+02  0.19999990136E+02 0.  0.
         12    1    1    2    0    0  0.30535280049E+02 -0.27609187611E+02  0.13746013730E+02  0.43400731119E+02  0.00000000000E+00 0. -1.
         11    1    3    3    0    0 -0.21685319388E+02  0.21149469215E+02 -0.10457205006E+02  0.32045378167E+02  0.51100000000E-03 0. -1.
        -11    1    3    3    0    0 -0.85184552695E+01  0.38229207638E+01 -0.66455792197E+01  0.11460476725E+02  0.51100000000E-03 0.  1.
         12    1    3    3    0    0 -0.33150539112E+00  0.26367976326E+01  0.33567704964E+01  0.42814139890E+01  0.00000000000E+00 0. -1.
</event>
<event>
 7    1  0.2733256E-010  0.4778727E+02  0.7816164E-02  0.1312668E+00
        -11   -1    0    0    0    0  0.00000000000E+00  0.00000000000E+00  0.45593999997E+02  0.45594000000E+02  0.51100000000E-03 0. -1.
         11   -1    0    0    0    0 -0.00000000000E+00 -0.00000000000E+00 -0.45593999997E+02  0.45594000000E+02  0.51100000000E-03 0.  1.
    9900012    2    1    2    0    0 -0.15183726248E+02  0.22075005513E+02 -0.34143402649E+02  0.47787270103E+02  0.19999995706E+02 0.  0.
         12    1    1    2    0    0  0.15183726248E+02 -0.22075005513E+02  0.34143402649E+02  0.43400729897E+02  0.00000000000E+00 0. -1.
         11    1    3    3    0    0 -0.13563775411E+00  0.48517260889E+01 -0.21025333300E+01  0.52894508512E+01  0.51100000000E-03 0. -1.
        -11    1    3    3    0    0 -0.17151013464E+02  0.10690504594E+02 -0.18888600357E+02  0.27662671148E+02  0.51100000000E-03 0.  1.
        -12    1    3    3    0    0  0.21029249706E+01  0.65327748308E+01 -0.13152268962E+02  0.14835148104E+02  0.00000000000E+00 0.  1.
</event>
<event>
 7    1  0.2733256E-010  0.4778726E+02  0.7816164E-02  0.1312668E+00
        -11   -1    0    0    0    0  0.00000000000E+00  0.00000000000E+00  0.45593999997E+02  0.45594000000E+02  0.51100000000E-03 0.  1.
         11   -1    0    0    0    0 -0.00000000000E+00 -0.00000000000E+00 -0.45593999997E+02  0.45594000000E+02  0.51100000000E-03 0. -1.
    9900012    2    1    2    0    0  0.17923924816E+01  0.28775153705E+02  0.32440749648E+02  0.47787258310E+02  0.19999941937E+02 0.  0.
         12    1    1    2    0    0 -0.17923924816E+01 -0.28775153705E+02 -0.32440749648E+02  0.43400741690E+02  0.00000000000E+00 0. -1.
         11    1    3    3    0    0 -0.32762340137E+01  0.54922403297E+01  0.70017672258E+01  0.94827821708E+01  0.51100000000E-03 0. -1.
        -11    1    3    3    0    0 -0.39630205109E+01  0.48919276055E+01  0.12708893073E+02  0.14182822380E+02  0.51100000000E-03 0.  1.
        -12    1    3    3    0    0  0.90316470062E+01  0.18390985770E+02  0.12730089349E+02  0.24121653759E+02  0.00000000000E+00 0.  1.
</event>
<event>
 7    1  0.2733256E-010  0.4778727E+02  0.7816164E-02  0.1312668E+00
        -11   -1    0    0    0    0  0.00000000000E+00  0.00000000000E+00  0.45593999997E+02  0.45594000000E+02  0.51100000000E-03 0.  1.
         11   -1    0    0    0    0 -0.00000000000E+00 -0.00000000000E+00 -0.45593999997E+02  0.45594000000E+02  0.51100000000E-03 0. -1.
    9900012    2    1    2    0    0 -0.12969911566E+02  0.31700750215E+02  0.26654588829E+02  0.47787271022E+02  0.19999999896E+02 0.  0.
         12    1    1    2    0    0  0.12969911566E+02 -0.31700750215E+02 -0.26654588829E+02  0.43400728978E+02  0.00000000000E+00 0. -1.
         11    1    3    3    0    0  0.96944383984E+00 -0.13357206782E+01  0.24401994472E+01  0.29459369803E+01  0.51100000000E-03 0. -1.
        -11    1    3    3    0    0 -0.14269924661E+02  0.20218741585E+02  0.17944203178E+02  0.30568328202E+02  0.51100000000E-03 0.  1.
        -12    1    3    3    0    0  0.33056925597E+00  0.12817729309E+02  0.62701862035E+01  0.14273005839E+02  0.00000000000E+00 0.  1.
</event>
<event>
 7    1  0.2733256E-010  0.4778727E+02  0.7816164E-02  0.1312668E+00
        -11   -1    0    0    0    0  0.00000000000E+00  0.00000000000E+00  0.45593999997E+02  0.45594000000E+02  0.51100000000E-03 0.  1.
         11   -1    0    0    0    0 -0.00000000000E+00 -0.00000000000E+00 -0.45593999997E+02  0.45594000000E+02  0.51100000000E-03 0. -1.
    9900012    2    1    2    0    0 -0.21815457520E+02 -0.33955025694E+02  0.15961372889E+02  0.47787269808E+02  0.19999994361E+02 0.  0.
         12    1    1    2    0    0  0.21815457520E+02  0.33955025694E+02 -0.15961372889E+02  0.43400730192E+02  0.00000000000E+00 0. -1.
         11    1    3    3    0    0  0.14205743269E+00 -0.32011035513E+00  0.17496723442E+01  0.17843779103E+01  0.51100000000E-03 0. -1.
        -11    1    3    3    0    0 -0.88019969674E+01 -0.59255008752E+01  0.10799585977E+02  0.15139939524E+02  0.51100000000E-03 0.  1.
         12    1    3    3    0    0 -0.13155517985E+02 -0.27709414464E+02  0.34121145677E+01  0.30862952374E+02  0.00000000000E+00 0. -1.
</event>
<event>
 7    1  0.2733256E-010  0.4778732E+02  0.7816164E-02  0.1312668E+00
        -11   -1    0    0    0    0  0.00000000000E+00  0.00000000000E+00  0.45593999997E+02  0.45594000000E+02  0.51100000000E-03 0.  1.
         11   -1    0    0    0    0 -0.00000000000E+00 -0.00000000000E+00 -0.45593999997E+02  0.45594000000E+02  0.51100000000E-03 0. -1.
    9900012    2    1    2    0    0 -0.30271240786E+02  0.12361759773E+02  0.28538702145E+02  0.47787324388E+02  0.20000243215E+02 0.  0.
         12    1    1    2    0    0  0.30271240786E+02 -0.12361759773E+02 -0.28538702145E+02  0.43400675612E+02  0.00000000000E+00 0. -1.
         11    1    3    3    0    0 -0.33359033815E+01 -0.28311071976E+01 -0.10837779353E+01  0.45075485809E+01  0.51100000000E-03 0. -1.
        -11    1    3    3    0    0 -0.11814429984E+02  0.37379459237E+01  0.94090085896E+01  0.15558998633E+02  0.51100000000E-03 0.  1.
         12    1    3    3    0    0 -0.15120907421E+02  0.11454921047E+02  0.20213471491E+02  0.27720777174E+02  0.00000000000E+00 0. -1.
</event>
<event>
 7    1  0.2733256E-010  0.4778727E+02  0.7816164E-02  0.1312668E+00
        -11   -1    0    0    0    0  0.00000000000E+00  0.00000000000E+00  0.45593999997E+02  0.45594000000E+02  0.51100000000E-03 0.  1.
         11   -1    0    0    0    0 -0.00000000000E+00 -0.00000000000E+00 -0.45593999997E+02  0.45594000000E+02  0.51100000000E-03 0. -1.
    9900012    2    1    2    0    0  0.25806815018E+01 -0.38762046978E+02  0.19351154879E+02  0.47787269613E+02  0.19999993474E+02 0.  0.
         12    1    1    2    0    0 -0.25806815018E+01  0.38762046978E+02 -0.19351154879E+02  0.43400730387E+02  0.00000000000E+00 0. -1.
         11    1    3    3    0    0  0.14813937622E+01 -0.11211497159E+01  0.75961241096E+01  0.78200131658E+01  0.51100000000E-03 0. -1.
        -11    1    3    3    0    0  0.22232054236E+00  0.22871453485E+00  0.12134581288E+00  0.34126504280E+00  0.51100000000E-03 0.  1.
        -12    1    3    3    0    0  0.87696719722E+00 -0.37869611797E+02  0.11633684957E+02  0.39625991405E+02  0.00000000000E+00 0.  1.
</event>
<event>
 7    1  0.2733256E-010  0.4778728E+02  0.7816164E-02  0.1312668E+00
        -11   -1    0    0    0    0  0.00000000000E+00  0.00000000000E+00  0.45593999997E+02  0.45594000000E+02  0.51100000000E-03 0.  1.
         11   -1    0    0    0    0 -0.00000000000E+00 -0.00000000000E+00 -0.45593999997E+02  0.45594000000E+02  0.51100000000E-03 0. -1.
    9900012    2    1    2    0    0 -0.27434745620E+02  0.26704966974E+02  0.20440213341E+02  0.47787275930E+02  0.20000022277E+02 0.  0.
         12    1    1    2    0    0  0.27434745620E+02 -0.26704966974E+02 -0.20440213341E+02  0.43400724070E+02  0.00000000000E+00 0. -1.
         11    1    3    3    0    0 -0.41050160710E+01  0.11469632832E+02  0.21029563088E+01  0.12362283759E+02  0.51100000000E-03 0. -1.
        -11    1    3    3    0    0 -0.14129851224E+02  0.15316232102E+02  0.10475558698E+02  0.23323314338E+02  0.51100000000E-03 0.  1.
         12    1    3    3    0    0 -0.91998783249E+01 -0.80897959730E-01  0.78616983350E+01  0.12101677833E+02  0.00000000000E+00 0. -1.
</event>
<event>
 7    1  0.2733256E-010  0.4778727E+02  0.7816164E-02  0.1312668E+00
        -11   -1    0    0    0    0  0.00000000000E+00  0.00000000000E+00  0.45593999997E+02  0.45594000000E+02  0.51100000000E-03 0.  1.
         11   -1    0    0    0    0 -0.00000000000E+00 -0.00000000000E+00 -0.45593999997E+02  0.45594000000E+02  0.51100000000E-03 0. -1.
    9900012    2    1    2    0    0  0.34951603932E+02 -0.25637926378E+02 -0.21691832709E+01  0.47787271406E+02  0.20000001651E+02 0.  0.
         12    1    1    2    0    0 -0.34951603932E+02  0.25637926378E+02  0.21691832709E+01  0.43400728594E+02  0.00000000000E+00 0. -1.
         11    1    3    3    0    0  0.31272332584E+01 -0.71174648644E+01 -0.16987997356E+01  0.79576262007E+01  0.51100000000E-03 0. -1.
        -11    1    3    3    0    0 -0.42466783824E+00 -0.24761720854E+01 -0.27662583417E+01  0.37368377599E+01  0.51100000000E-03 0.  1.
        -12    1    3    3    0    0  0.32249038512E+02 -0.16044289428E+02  0.22958748064E+01  0.36092807446E+02  0.00000000000E+00 0.  1.
</event>
<event>
 7    1  0.2733256E-010  0.4778727E+02  0.7816164E-02  0.1312668E+00
        -11   -1    0    0    0    0  0.00000000000E+00  0.00000000000E+00  0.45593999997E+02  0.45594000000E+02  0.51100000000E-03 0. -1.
         11   -1    0    0    0    0 -0.00000000000E+00 -0.00000000000E+00 -0.45593999997E+02  0.45594000000E+02  0.51100000000E-03 0.  1.
    9900012    2    1    2    0    0 -0.34111767713E+02 -0.19757206673E+02 -0.18156632869E+02  0.47787271560E+02  0.20000002348E+02 0.  0.
         12    1    1    2    0    0  0.34111767713E+02  0.19757206673E+02  0.18156632869E+02  0.43400728440E+02  0.00000000000E+00 0. -1.
         11    1    3    3    0    0 -0.10018834670E+02 -0.15310542877E+02 -0.45073513912E+01  0.18844256105E+02  0.51100000000E-03 0. -1.
        -11    1    3    3    0    0 -0.10412714975E+02 -0.33835623221E+01 -0.24212804541E+01  0.11213194301E+02  0.51100000000E-03 0.  1.
         12    1    3    3    0    0 -0.13680218068E+02 -0.10631014739E+01 -0.11228001024E+02  0.17729821153E+02  0.00000000000E+00 0. -1.
</event>
<event>
 7    1  0.2733256E-010  0.4778727E+02  0.7816164E-02  0.1312668E+00
        -11   -1    0    0    0    0  0.00000000000E+00  0.00000000000E+00  0.45593999997E+02  0.45594000000E+02  0.51100000000E-03 0.  1.
         11   -1    0    0    0    0 -0.00000000000E+00 -0.00000000000E+00 -0.45593999997E+02  0.45594000000E+02  0.51100000000E-03 0. -1.
    9900012    2    1    2    0    0 -0.23534267318E+02 -0.12563246711E+02  0.34233406949E+02  0.47787273538E+02  0.20000011369E+02 0.  0.
         12    1    1    2    0    0  0.23534267318E+02  0.12563246711E+02 -0.34233406949E+02  0.43400726462E+02  0.00000000000E+00 0. -1.
         11    1    3    3    0    0 -0.56475154551E+01  0.26612817770E+01  0.44628205833E+01  0.76742178319E+01  0.51100000000E-03 0. -1.
        -11    1    3    3    0    0 -0.58131384101E+01  0.99195400777E+00  0.31507492867E+01  0.66860879636E+01  0.51100000000E-03 0.  1.
        -12    1    3    3    0    0 -0.12073613452E+02 -0.16216482496E+02  0.26619837079E+02  0.33426967742E+02  0.00000000000E+00 0.  1.
</event>
<event>
 7    1  0.2733256E-010  0.4778727E+02  0.7816164E-02  0.1312668E+00
        -11   -1    0    0    0    0  0.00000000000E+00  0.00000000000E+00  0.45593999997E+02  0.45594000000E+02  0.51100000000E-03 0.  1.
         11   -1    0    0    0    0 -0.00000000000E+00 -0.00000000000E+00 -0.45593999997E+02  0.45594000000E+02  0.51100000000E-03 0. -1.
    9900012    2    1    2    0    0 -0.40574714039E+02  0.10873435054E+02  0.10912564800E+02  0.47787273281E+02  0.20000010198E+02 0.  0.
         12    1    1    2    0    0  0.40574714039E+02 -0.10873435054E+02 -0.10912564800E+02  0.43400726719E+02  0.00000000000E+00 0. -1.
         11    1    3    3    0    0 -0.11667981640E+02  0.14058104947E+01 -0.23485646527E+01  0.11984734244E+02  0.51100000000E-03 0. -1.
        -11    1    3    3    0    0 -0.18865175766E+02 -0.45366562051E+00  0.53207036220E+01  0.19606390705E+02  0.51100000000E-03 0.  1.
        -12    1    3    3    0    0 -0.10041556633E+02  0.99212901796E+01  0.79404258304E+01  0.16196148332E+02  0.00000000000E+00 0.  1.
</event>
<event>
 7    1  0.2733256E-010  0.4778727E+02  0.7816164E-02  0.1312668E+00
        -11   -1    0    0    0    0  0.00000000000E+00  0.00000000000E+00  0.45593999997E+02  0.45594000000E+02  0.51100000000E-03 0.  1.
         11   -1    0    0    0    0 -0.00000000000E+00 -0.00000000000E+00 -0.45593999997E+02  0.45594000000E+02  0.51100000000E-03 0. -1.
    9900012    2    1    2    0    0 -0.32766523734E+02  0.27816635198E+02 -0.60176957124E+01  0.47787274971E+02  0.20000017902E+02 0.  0.
         12    1    1    2    0    0  0.32766523734E+02 -0.27816635198E+02  0.60176957124E+01  0.43400725029E+02  0.00000000000E+00 0. -1.
         11    1    3    3    0    0 -0.16468874662E+02  0.22059352732E+02 -0.10079563379E+02  0.29316146980E+02  0.51100000000E-03 0. -1.
        -11    1    3    3    0    0 -0.77187492034E+01  0.41203429383E+01 -0.20246945549E+00  0.87519888789E+01  0.51100000000E-03 0.  1.
         12    1    3    3    0    0 -0.85788998694E+01  0.16369395272E+01  0.42643371220E+01  0.97191391118E+01  0.00000000000E+00 0. -1.
</event>
<event>
 7    1  0.2733256E-010  0.4778727E+02  0.7816164E-02  0.1312668E+00
        -11   -1    0    0    0    0  0.00000000000E+00  0.00000000000E+00  0.45593999997E+02  0.45594000000E+02  0.51100000000E-03 0.  1.
         11   -1    0    0    0    0 -0.00000000000E+00 -0.00000000000E+00 -0.45593999997E+02  0.45594000000E+02  0.51100000000E-03 0. -1.
    9900012    2    1    2    0    0  0.43015712971E+02 -0.46430701004E+01  0.34225780275E+01  0.47787266104E+02  0.19999977474E+02 0.  0.
         12    1    1    2    0    0 -0.43015712971E+02  0.46430701004E+01 -0.34225780275E+01  0.43400733896E+02  0.00000000000E+00 0. -1.
         11    1    3    3    0    0  0.17529600545E+02 -0.36622725101E+01  0.54267286691E+01  0.18712255864E+02  0.51100000000E-03 0. -1.
        -11    1    3    3    0    0  0.36004065655E+01 -0.86641488038E+00  0.48853210712E+01  0.61302499470E+01  0.51100000000E-03 0.  1.
        -12    1    3    3    0    0  0.21885705861E+02 -0.11438270996E+00 -0.68894717128E+01  0.22944760293E+02  0.00000000000E+00 0.  1.
</event>
<event>
 7    1  0.2733256E-010  0.4778727E+02  0.7816164E-02  0.1312668E+00
        -11   -1    0    0    0    0  0.00000000000E+00  0.00000000000E+00  0.45593999997E+02  0.45594000000E+02  0.51100000000E-03 0.  1.
         11   -1    0    0    0    0 -0.00000000000E+00 -0.00000000000E+00 -0.45593999997E+02  0.45594000000E+02  0.51100000000E-03 0. -1.
    9900012    2    1    2    0    0  0.12664161396E+02 -0.16207085303E+02  0.38217445866E+02  0.47787265370E+02  0.19999974128E+02 0.  0.
         12    1    1    2    0    0 -0.12664161396E+02  0.16207085303E+02 -0.38217445866E+02  0.43400734630E+02  0.00000000000E+00 0. -1.
         11    1    3    3    0    0 -0.28728877132E+01 -0.13391072007E+01  0.31867110487E+01  0.44946434204E+01  0.51100000000E-03 0. -1.
        -11    1    3    3    0    0 -0.23184992311E+01 -0.45918466675E+00  0.21304884392E+01  0.31820230190E+01  0.51100000000E-03 0.  1.
         12    1    3    3    0    0  0.17855548340E+02 -0.14408793436E+02  0.32900246378E+02  0.40110598930E+02  0.00000000000E+00 0. -1.
</event>
<event>
 7    1  0.2733256E-010  0.4778727E+02  0.7816164E-02  0.1312668E+00
        -11   -1    0    0    0    0  0.00000000000E+00  0.00000000000E+00  0.45593999997E+02  0.45594000000E+02  0.51100000000E-03 0. -1.
         11   -1    0    0    0    0 -0.00000000000E+00 -0.00000000000E+00 -0.45593999997E+02  0.45594000000E+02  0.51100000000E-03 0.  1.
    9900012    2    1    2    0    0  0.17153604393E+02  0.28764211292E+02 -0.27604296215E+02  0.47787272305E+02  0.20000005748E+02 0.  0.
         12    1    1    2    0    0 -0.17153604393E+02 -0.28764211292E+02  0.27604296215E+02  0.43400727695E+02  0.00000000000E+00 0. -1.
         11    1    3    3    0    0  0.45597898682E+01  0.45021784775E+01  0.16526124205E+01  0.66175843598E+01  0.51100000000E-03 0. -1.
        -11    1    3    3    0    0  0.49802073448E+01  0.12021936498E+02 -0.73479707162E+01  0.14943965212E+02  0.51100000000E-03 0.  1.
        -12    1    3    3    0    0  0.76136071800E+01  0.12240096316E+02 -0.21908937919E+02  0.26225722733E+02  0.00000000000E+00 0.  1.
</event>
<event>
 7    1  0.2733256E-010  0.4778727E+02  0.7816164E-02  0.1312668E+00
        -11   -1    0    0    0    0  0.00000000000E+00  0.00000000000E+00  0.45593999997E+02  0.45594000000E+02  0.51100000000E-03 0.  1.
         11   -1    0    0    0    0 -0.00000000000E+00 -0.00000000000E+00 -0.45593999997E+02  0.45594000000E+02  0.51100000000E-03 0. -1.
    9900012    2    1    2    0    0  0.30949164578E+01 -0.28803538378E+02  0.32317192074E+02  0.47787271497E+02  0.20000002065E+02 0.  0.
         12    1    1    2    0    0 -0.30949164578E+01  0.28803538378E+02 -0.32317192074E+02  0.43400728503E+02  0.00000000000E+00 0. -1.
         11    1    3    3    0    0  0.10929677976E+02 -0.21047305027E+02  0.24064234207E+02  0.33786599086E+02  0.51100000000E-03 0. -1.
        -11    1    3    3    0    0 -0.19698056467E+01 -0.36417141362E+01  0.32245827965E+01  0.52478710548E+01  0.51100000000E-03 0.  1.
         12    1    3    3    0    0 -0.58649558710E+01 -0.41145192157E+01  0.50283750704E+01  0.87528013569E+01  0.00000000000E+00 0. -1.
</event>
<event>
 7    1  0.2733256E-010  0.4778727E+02  0.7816164E-02  0.1312668E+00
        -11   -1    0    0    0    0  0.00000000000E+00  0.00000000000E+00  0.45593999997E+02  0.45594000000E+02  0.51100000000E-03 0.  1.
         11   -1    0    0    0    0 -0.00000000000E+00 -0.00000000000E+00 -0.45593999997E+02  0.45594000000E+02  0.51100000000E-03 0. -1.
    9900012    2    1    2    0    0 -0.20592276350E+01  0.27107152647E+02  0.33831720549E+02  0.47787268919E+02  0.19999990310E+02 0.  0.
         12    1    1    2    0    0  0.20592276350E+01 -0.27107152647E+02 -0.33831720549E+02  0.43400731081E+02  0.00000000000E+00 0. -1.
         11    1    3    3    0    0 -0.26543172292E+01  0.30684140635E+00  0.10710364545E+01  0.28786578382E+01  0.51100000000E-03 0. -1.
        -11    1    3    3    0    0  0.26091097909E+00  0.18719284859E+02  0.11046756318E+02  0.21737307229E+02  0.51100000000E-03 0.  1.
         12    1    3    3    0    0  0.33417861510E+00  0.80810263813E+01  0.21713927776E+02  0.23171303851E+02  0.00000000000E+00 0. -1.
</event>
<event>
 7    1  0.2733256E-010  0.4778727E+02  0.7816164E-02  0.1312668E+00
        -11   -1    0    0    0    0  0.00000000000E+00  0.00000000000E+00  0.45593999997E+02  0.45594000000E+02  0.51100000000E-03 0. -1.
         11   -1    0    0    0    0 -0.00000000000E+00 -0.00000000000E+00 -0.45593999997E+02  0.45594000000E+02  0.51100000000E-03 0.  1.
    9900012    2    1    2    0    0 -0.37529157089E+02  0.10781956281E+02 -0.18945587874E+02  0.47787268291E+02  0.19999987445E+02 0.  0.
         12    1    1    2    0    0  0.37529157089E+02 -0.10781956281E+02  0.18945587874E+02  0.43400731709E+02  0.00000000000E+00 0. -1.
         11    1    3    3    0    0 -0.13793796738E+02  0.21963495040E+01 -0.86025316944E+01  0.16404155919E+02  0.51100000000E-03 0. -1.
        -11    1    3    3    0    0 -0.16638021531E+02  0.10192068435E+02 -0.13208951159E+02  0.23562224224E+02  0.51100000000E-03 0.  1.
         12    1    3    3    0    0 -0.70973388200E+01 -0.16064616577E+01  0.28658949796E+01  0.78208881477E+01  0.00000000000E+00 0. -1.
</event>
<event>
 7    1  0.2733256E-010  0.4778727E+02  0.7816164E-02  0.1312668E+00
        -11   -1    0    0    0    0  0.00000000000E+00  0.00000000000E+00  0.45593999997E+02  0.45594000000E+02  0.51100000000E-03 0. -1.
         11   -1    0    0    0    0 -0.00000000000E+00 -0.00000000000E+00 -0.45593999997E+02  0.45594000000E+02  0.51100000000E-03 0.  1.
    9900012    2    1    2    0    0 -0.17976519445E+02  0.99579126012E+01 -0.38227064862E+02  0.47787265413E+02  0.19999974323E+02 0.  0.
         12    1    1    2    0    0  0.17976519445E+02 -0.99579126012E+01  0.38227064862E+02  0.43400734587E+02  0.00000000000E+00 0. -1.
         11    1    3    3    0    0 -0.59371915380E+00  0.54119969915E+01 -0.12511391833E+02  0.13644674409E+02  0.51100000000E-03 0. -1.
        -11    1    3    3    0    0 -0.13698713907E+02  0.84195878866E+01 -0.23217756834E+02  0.28241962672E+02  0.51100000000E-03 0.  1.
        -12    1    3    3    0    0 -0.36840863847E+01 -0.38736722769E+01 -0.24979161950E+01  0.59006283323E+01  0.00000000000E+00 0.  1.
</event>
<event>
 7    1  0.2733256E-010  0.4778727E+02  0.7816164E-02  0.1312668E+00
        -11   -1    0    0    0    0  0.00000000000E+00  0.00000000000E+00  0.45593999997E+02  0.45594000000E+02  0.51100000000E-03 0.  1.
         11   -1    0    0    0    0 -0.00000000000E+00 -0.00000000000E+00 -0.45593999997E+02  0.45594000000E+02  0.51100000000E-03 0. -1.
    9900012    2    1    2    0    0  0.33780425991E+02  0.21108758452E+02 -0.17231544071E+02  0.47787274492E+02  0.20000015720E+02 0.  0.
         12    1    1    2    0    0 -0.33780425991E+02 -0.21108758452E+02  0.17231544071E+02  0.43400725508E+02  0.00000000000E+00 0. -1.
         11    1    3    3    0    0  0.35382432095E+01  0.11674545362E+01 -0.16645646157E+01  0.40807953544E+01  0.51100000000E-03 0. -1.
        -11    1    3    3    0    0 -0.20586673592E+01  0.31653488097E-01 -0.31866613544E+01  0.37939325360E+01  0.51100000000E-03 0.  1.
        -12    1    3    3    0    0  0.32300850141E+02  0.19909650428E+02 -0.12380318101E+02  0.39912546602E+02  0.00000000000E+00 0.  1.
</event>
<event>
 7    1  0.2733256E-010  0.4778727E+02  0.7816164E-02  0.1312668E+00
        -11   -1    0    0    0    0  0.00000000000E+00  0.00000000000E+00  0.45593999997E+02  0.45594000000E+02  0.51100000000E-03 0. -1.
         11   -1    0    0    0    0 -0.00000000000E+00 -0.00000000000E+00 -0.45593999997E+02  0.45594000000E+02  0.51100000000E-03 0.  1.
    9900012    2    1    2    0    0  0.32879573379E+02 -0.13608004527E+02  0.24847114640E+02  0.47787271449E+02  0.20000001847E+02 0.  0.
         12    1    1    2    0    0 -0.32879573379E+02  0.13608004527E+02 -0.24847114640E+02  0.43400728551E+02  0.00000000000E+00 0. -1.
         11    1    3    3    0    0  0.38398982298E+01 -0.31521242535E+01  0.22224553886E+01  0.54424272104E+01  0.51100000000E-03 0. -1.
        -11    1    3    3    0    0  0.27750041357E+02 -0.32263635412E+01  0.14804793505E+02  0.31617339040E+02  0.51100000000E-03 0.  1.
        -12    1    3    3    0    0  0.12896337926E+01 -0.72295167326E+01  0.78198657463E+01  0.10727505199E+02  0.00000000000E+00 0.  1.
</event>
<event>
 7    1  0.2733256E-010  0.4778727E+02  0.7816164E-02  0.1312668E+00
        -11   -1    0    0    0    0  0.00000000000E+00  0.00000000000E+00  0.45593999997E+02  0.45594000000E+02  0.51100000000E-03 0. -1.
         11   -1    0    0    0    0 -0.00000000000E+00 -0.00000000000E+00 -0.45593999997E+02  0.45594000000E+02  0.51100000000E-03 0.  1.
    9900012    2    1    2    0    0  0.41272783339E+02 -0.16444496560E+01  0.13322026970E+02  0.47787271184E+02  0.20000000635E+02 0.  0.
         12    1    1    2    0    0 -0.41272783339E+02  0.16444496560E+01 -0.13322026970E+02  0.43400728816E+02  0.00000000000E+00 0. -1.
         11    1    3    3    0    0  0.13141876347E+02  0.61830840915E+00 -0.84994714881E+00  0.13183839715E+02  0.51100000000E-03 0. -1.
        -11    1    3    3    0    0  0.19446069272E+02 -0.80516492125E+01  0.82743374578E+01  0.22615112775E+02  0.51100000000E-03 0.  1.
         12    1    3    3    0    0  0.86848377188E+01  0.57888911473E+01  0.58976366613E+01  0.11988318694E+02  0.00000000000E+00 0. -1.
</event>
<event>
 7    1  0.2733256E-010  0.4778727E+02  0.7816164E-02  0.1312668E+00
        -11   -1    0    0    0    0  0.00000000000E+00  0.00000000000E+00  0.45593999997E+02  0.45594000000E+02  0.51100000000E-03 0. -1.
         11   -1    0    0    0    0 -0.00000000000E+00 -0.00000000000E+00 -0.45593999997E+02  0.45594000000E+02  0.51100000000E-03 0.  1.
    9900012    2    1    2    0    0 -0.40658999687E+02  0.15114935582E+02 -0.14169440738E+01  0.47787271162E+02  0.20000000535E+02 0.  0.
         12    1    1    2    0    0  0.40658999687E+02 -0.15114935582E+02  0.14169440738E+01  0.43400728838E+02  0.00000000000E+00 0. -1.
         11    1    3    3    0    0 -0.13445593643E+02  0.36559972138E+01  0.49437658473E+00  0.13942550430E+02  0.51100000000E-03 0. -1.
        -11    1    3    3    0    0 -0.29330104006E+02  0.96297554934E+01 -0.25485393362E+01  0.30975510405E+02  0.51100000000E-03 0.  1.
         12    1    3    3    0    0  0.21166979621E+01  0.18291828748E+01  0.63721867763E+00  0.28692103261E+01  0.00000000000E+00 0. -1.
</event>
<event>
 7    1  0.2733256E-010  0.4778727E+02  0.7816164E-02  0.1312668E+00
        -11   -1    0    0    0    0  0.00000000000E+00  0.00000000000E+00  0.45593999997E+02  0.45594000000E+02  0.51100000000E-03 0.  1.
         11   -1    0    0    0    0 -0.00000000000E+00 -0.00000000000E+00 -0.45593999997E+02  0.45594000000E+02  0.51100000000E-03 0. -1.
    9900012    2    1    2    0    0  0.27349015391E+02  0.94888772152E+01  0.32335985297E+02  0.47787269835E+02  0.19999994487E+02 0.  0.
         12    1    1    2    0    0 -0.27349015391E+02 -0.94888772152E+01 -0.32335985297E+02  0.43400730165E+02  0.00000000000E+00 0. -1.
         11    1    3    3    0    0  0.11020310336E+02  0.68004199749E+01  0.33136376410E+01  0.13366867487E+02  0.51100000000E-03 0. -1.
        -11    1    3    3    0    0  0.29893219649E+01 -0.21701159986E+01  0.29260109532E+01  0.47124292691E+01  0.51100000000E-03 0.  1.
        -12    1    3    3    0    0  0.13339383090E+02  0.48585732388E+01  0.26096336703E+02  0.29707973079E+02  0.00000000000E+00 0.  1.
</event>
<event>
 7    1  0.2733256E-010  0.4778727E+02  0.7816164E-02  0.1312668E+00
        -11   -1    0    0    0    0  0.00000000000E+00  0.00000000000E+00  0.45593999997E+02  0.45594000000E+02  0.51100000000E-03 0. -1.
         11   -1    0    0    0    0 -0.00000000000E+00 -0.00000000000E+00 -0.45593999997E+02  0.45594000000E+02  0.51100000000E-03 0.  1.
    9900012    2    1    2    0    0  0.31858654698E+02  0.28039978345E+02  0.90779321934E+01  0.47787272844E+02  0.20000008206E+02 0.  0.
         12    1    1    2    0    0 -0.31858654698E+02 -0.28039978345E+02 -0.90779321934E+01  0.43400727156E+02  0.00000000000E+00 0. -1.
         11    1    3    3    0    0  0.23797580800E+02  0.16172701849E+02  0.54361219476E+01  0.29281949373E+02  0.51100000000E-03 0. -1.
        -11    1    3    3    0    0  0.42885928961E+01  0.16149962185E+01  0.57774301083E+01  0.73742078037E+01  0.51100000000E-03 0.  1.
        -12    1    3    3    0    0  0.37724810024E+01  0.10252280277E+02 -0.21356198625E+01  0.11131115667E+02  0.00000000000E+00 0.  1.
</event>
<event>
 7    1  0.2733256E-010  0.4778727E+02  0.7816164E-02  0.1312668E+00
        -11   -1    0    0    0    0  0.00000000000E+00  0.00000000000E+00  0.45593999997E+02  0.45594000000E+02  0.51100000000E-03 0.  1.
         11   -1    0    0    0    0 -0.00000000000E+00 -0.00000000000E+00 -0.45593999997E+02  0.45594000000E+02  0.51100000000E-03 0. -1.
    9900012    2    1    2    0    0  0.37200638785E+02 -0.11584924370E+02 -0.19118717646E+02  0.47787270017E+02  0.19999995314E+02 0.  0.
         12    1    1    2    0    0 -0.37200638785E+02  0.11584924370E+02  0.19118717646E+02  0.43400729983E+02  0.00000000000E+00 0. -1.
         11    1    3    3    0    0  0.92797466373E+01 -0.36734419408E+01  0.23090133967E+01  0.10243994166E+02  0.51100000000E-03 0.  1.
        -11    1    3    3    0    0  0.28976187629E+01  0.23627878010E+01 -0.20086842489E+01  0.42442635829E+01  0.51100000000E-03 0. -1.
        -12    1    3    3    0    0  0.25023273385E+02 -0.10274270230E+02 -0.19419046794E+02  0.33299012268E+02  0.00000000000E+00 0.  1.
</event>
<event>
 7    1  0.2733256E-010  0.4778726E+02  0.7816164E-02  0.1312668E+00
        -11   -1    0    0    0    0  0.00000000000E+00  0.00000000000E+00  0.45593999997E+02  0.45594000000E+02  0.51100000000E-03 0. -1.
         11   -1    0    0    0    0 -0.00000000000E+00 -0.00000000000E+00 -0.45593999997E+02  0.45594000000E+02  0.51100000000E-03 0.  1.
    9900012    2    1    2    0    0  0.39248871148E+02  0.11425564260E+02  0.14581040668E+02  0.47787260928E+02  0.19999953876E+02 0.  0.
         12    1    1    2    0    0 -0.39248871148E+02 -0.11425564260E+02 -0.14581040668E+02  0.43400739072E+02  0.00000000000E+00 0. -1.
         11    1    3    3    0    0  0.20487525200E+02 -0.42524049312E+00  0.10050750436E+02  0.22824046593E+02  0.51100000000E-03 0. -1.
        -11    1    3    3    0    0  0.16260275626E+02  0.46654367934E+01  0.26111299272E+01  0.17116683781E+02  0.51100000000E-03 0.  1.
         12    1    3    3    0    0  0.25010703221E+01  0.71853679595E+01  0.19191603050E+01  0.78465305547E+01  0.00000000000E+00 0. -1.
</event>
<event>
 7    1  0.2733256E-010  0.4778726E+02  0.7816164E-02  0.1312668E+00
        -11   -1    0    0    0    0  0.00000000000E+00  0.00000000000E+00  0.45593999997E+02  0.45594000000E+02  0.51100000000E-03 0.  1.
         11   -1    0    0    0    0 -0.00000000000E+00 -0.00000000000E+00 -0.45593999997E+02  0.45594000000E+02  0.51100000000E-03 0. -1.
    9900012    2    1    2    0    0 -0.63815254034E+01 -0.36818296563E+02  0.22075183901E+02  0.47787256083E+02  0.19999931783E+02 0.  0.
         12    1    1    2    0    0  0.63815254034E+01  0.36818296563E+02 -0.22075183901E+02  0.43400743917E+02  0.00000000000E+00 0. -1.
         11    1    3    3    0    0 -0.40374577892E+01 -0.10265134640E+01  0.17955997937E+01  0.45364054241E+01  0.51100000000E-03 0. -1.
        -11    1    3    3    0    0 -0.82368857498E-01 -0.48667576866E+00 -0.15863507014E+01  0.16613689359E+01  0.51100000000E-03 0.  1.
        -12    1    3    3    0    0 -0.22616987567E+01 -0.35305107331E+02  0.21865934809E+02  0.41589481723E+02  0.00000000000E+00 0.  1.
</event>
<event>
 7    1  0.2733256E-010  0.4778727E+02  0.7816164E-02  0.1312668E+00
        -11   -1    0    0    0    0  0.00000000000E+00  0.00000000000E+00  0.45593999997E+02  0.45594000000E+02  0.51100000000E-03 0. -1.
         11   -1    0    0    0    0 -0.00000000000E+00 -0.00000000000E+00 -0.45593999997E+02  0.45594000000E+02  0.51100000000E-03 0.  1.
    9900012    2    1    2    0    0  0.25710129920E+02 -0.34565128670E+02 -0.52786668248E+01  0.47787271620E+02  0.20000002626E+02 0.  0.
         12    1    1    2    0    0 -0.25710129920E+02  0.34565128670E+02  0.52786668248E+01  0.43400728380E+02  0.00000000000E+00 0. -1.
         11    1    3    3    0    0  0.49198579313E+01 -0.24895531097E+01  0.24964471669E+01  0.60526957191E+01  0.51100000000E-03 0. -1.
        -11    1    3    3    0    0  0.21667600642E+02 -0.21961587463E+02 -0.59602781241E+01  0.31421667000E+02  0.51100000000E-03 0.  1.
        -12    1    3    3    0    0 -0.87732865323E+00 -0.10113988097E+02 -0.18148358676E+01  0.10312908902E+02  0.00000000000E+00 0.  1.
</event>
<event>
 7    1  0.2733256E-010  0.4778727E+02  0.7816164E-02  0.1312668E+00
        -11   -1    0    0    0    0  0.00000000000E+00  0.00000000000E+00  0.45593999997E+02  0.45594000000E+02  0.51100000000E-03 0.  1.
         11   -1    0    0    0    0 -0.00000000000E+00 -0.00000000000E+00 -0.45593999997E+02  0.45594000000E+02  0.51100000000E-03 0. -1.
    9900012    2    1    2    0    0 -0.41810821523E+01  0.91799732519E+01  0.42212203488E+02  0.47787268668E+02  0.19999989163E+02 0.  0.
         12    1    1    2    0    0  0.41810821523E+01 -0.91799732519E+01 -0.42212203488E+02  0.43400731332E+02  0.00000000000E+00 0. -1.
         11    1    3    3    0    0 -0.36849115328E+00 -0.40592646512E+01  0.29624541746E+01  0.50388044452E+01  0.51100000000E-03 0. -1.
        -11    1    3    3    0    0 -0.12757683994E+01  0.60646151463E+01  0.30627855514E+02  0.31248562775E+02  0.51100000000E-03 0.  1.
        -12    1    3    3    0    0 -0.25368225995E+01  0.71746227568E+01  0.86218937993E+01  0.11499901447E+02  0.00000000000E+00 0.  1.
</event>
<event>
 7    1  0.2733256E-010  0.4778727E+02  0.7816164E-02  0.1312668E+00
        -11   -1    0    0    0    0  0.00000000000E+00  0.00000000000E+00  0.45593999997E+02  0.45594000000E+02  0.51100000000E-03 0.  1.
         11   -1    0    0    0    0 -0.00000000000E+00 -0.00000000000E+00 -0.45593999997E+02  0.45594000000E+02  0.51100000000E-03 0. -1.
    9900012    2    1    2    0    0  0.37240093952E+02  0.22277473647E+02  0.71606602585E+00  0.47787272124E+02  0.20000004923E+02 0.  0.
         12    1    1    2    0    0 -0.37240093952E+02 -0.22277473647E+02 -0.71606602585E+00  0.43400727876E+02  0.00000000000E+00 0. -1.
         11    1    3    3    0    0  0.13753135831E+02  0.38523409531E+01 -0.54626301807E+01  0.15291487983E+02  0.51100000000E-03 0. -1.
        -11    1    3    3    0    0  0.75362276292E+01  0.82757677869E+00  0.41889272346E+01  0.86617966867E+01  0.51100000000E-03 0.  1.
        -12    1    3    3    0    0  0.15950730492E+02  0.17597555915E+02  0.19897689720E+01  0.23833987454E+02  0.00000000000E+00 0.  1.
</event>
<event>
 7    1  0.2733256E-010  0.4778733E+02  0.7816164E-02  0.1312667E+00
        -11   -1    0    0    0    0  0.00000000000E+00  0.00000000000E+00  0.45593999997E+02  0.45594000000E+02  0.51100000000E-03 0.  1.
         11   -1    0    0    0    0 -0.00000000000E+00 -0.00000000000E+00 -0.45593999997E+02  0.45594000000E+02  0.51100000000E-03 0. -1.
    9900012    2    1    2    0    0  0.91846045595E+01  0.11254466304E+02  0.40897410692E+02  0.47787329798E+02  0.20000267879E+02 0.  0.
         12    1    1    2    0    0 -0.91846045595E+01 -0.11254466304E+02 -0.40897410692E+02  0.43400670202E+02  0.00000000000E+00 0. -1.
         11    1    3    3    0    0  0.46699804267E+01 -0.19182084813E+01  0.55914186671E+01  0.75334058656E+01  0.51100000000E-03 0. -1.
        -11    1    3    3    0    0  0.29455830622E+01 -0.22550163304E+01  0.87120949325E+01  0.94690103284E+01  0.51100000000E-03 0.  1.
        -12    1    3    3    0    0  0.15690410706E+01  0.15427691116E+02  0.26593897092E+02  0.30784913604E+02  0.00000000000E+00 0.  1.
</event>
<event>
 7    1  0.2733256E-010  0.4778726E+02  0.7816164E-02  0.1312668E+00
        -11   -1    0    0    0    0  0.00000000000E+00  0.00000000000E+00  0.45593999997E+02  0.45594000000E+02  0.51100000000E-03 0.  1.
         11   -1    0    0    0    0 -0.00000000000E+00 -0.00000000000E+00 -0.45593999997E+02  0.45594000000E+02  0.51100000000E-03 0. -1.
    9900012    2    1    2    0    0 -0.38856738641E+02 -0.37275561690E+01  0.18970592773E+02  0.47787260341E+02  0.19999951198E+02 0.  0.
         12    1    1    2    0    0  0.38856738641E+02  0.37275561690E+01 -0.18970592773E+02  0.43400739659E+02  0.00000000000E+00 0. -1.
         11    1    3    3    0    0 -0.69989174800E+00  0.13991086533E+01  0.47640163849E+01  0.50143001365E+01  0.51100000000E-03 0. -1.
        -11    1    3    3    0    0 -0.14464159670E+02  0.10546320751E+01  0.10732655676E+02  0.18042008255E+02  0.51100000000E-03 0.  1.
        -12    1    3    3    0    0 -0.23692687223E+02 -0.61812968974E+01  0.34739207118E+01  0.24730951949E+02  0.00000000000E+00 0.  1.
</event>
<event>
 7    1  0.2733256E-010  0.4778726E+02  0.7816164E-02  0.1312668E+00
        -11   -1    0    0    0    0  0.00000000000E+00  0.00000000000E+00  0.45593999997E+02  0.45594000000E+02  0.51100000000E-03 0.  1.
         11   -1    0    0    0    0 -0.00000000000E+00 -0.00000000000E+00 -0.45593999997E+02  0.45594000000E+02  0.51100000000E-03 0. -1.
    9900012    2    1    2    0    0 -0.16746831140E+02  0.18198309321E+02  0.35664960228E+02  0.47787260335E+02  0.19999951173E+02 0.  0.
         12    1    1    2    0    0  0.16746831140E+02 -0.18198309321E+02 -0.35664960228E+02  0.43400739665E+02  0.00000000000E+00 0. -1.
         11    1    3    3    0    0 -0.13760866778E+01 -0.10311281038E+01  0.71013133584E+01  0.73065375786E+01  0.51100000000E-03 0. -1.
        -11    1    3    3    0    0 -0.78588413703E+01  0.64743502197E+00  0.12569980900E+02  0.14838631334E+02  0.51100000000E-03 0.  1.
        -12    1    3    3    0    0 -0.75119030922E+01  0.18582002403E+02  0.15993665969E+02  0.25642091423E+02  0.00000000000E+00 0.  1.
</event>
<event>
 7    1  0.2733256E-010  0.4778727E+02  0.7816164E-02  0.1312668E+00
        -11   -1    0    0    0    0  0.00000000000E+00  0.00000000000E+00  0.45593999997E+02  0.45594000000E+02  0.51100000000E-03 0. -1.
         11   -1    0    0    0    0 -0.00000000000E+00 -0.00000000000E+00 -0.45593999997E+02  0.45594000000E+02  0.51100000000E-03 0.  1.
    9900012    2    1    2    0    0 -0.10996393773E+02 -0.15373207813E+02 -0.39068751110E+02  0.47787268350E+02  0.19999987713E+02 0.  0.
         12    1    1    2    0    0  0.10996393773E+02  0.15373207813E+02  0.39068751110E+02  0.43400731650E+02  0.00000000000E+00 0. -1.
         11    1    3    3    0    0 -0.59274968179E+01 -0.22569697255E+01 -0.44918680926E+01  0.77721303444E+01  0.51100000000E-03 0. -1.
        -11    1    3    3    0    0 -0.94330733001E+01 -0.97382117415E+01 -0.17940514624E+02  0.22487278738E+02  0.51100000000E-03 0.  1.
        -12    1    3    3    0    0  0.43641763445E+01 -0.33780263456E+01 -0.16636368393E+02  0.17527859267E+02  0.00000000000E+00 0.  1.
</event>
<event>
 7    1  0.2733256E-010  0.4778728E+02  0.7816164E-02  0.1312668E+00
        -11   -1    0    0    0    0  0.00000000000E+00  0.00000000000E+00  0.45593999997E+02  0.45594000000E+02  0.51100000000E-03 0. -1.
         11   -1    0    0    0    0 -0.00000000000E+00 -0.00000000000E+00 -0.45593999997E+02  0.45594000000E+02  0.51100000000E-03 0.  1.
    9900012    2    1    2    0    0 -0.27168567788E+02  0.37567588484E+01 -0.33635967089E+02  0.47787278869E+02  0.20000035676E+02 0.  0.
         12    1    1    2    0    0  0.27168567788E+02 -0.37567588484E+01  0.33635967089E+02  0.43400721131E+02  0.00000000000E+00 0. -1.
         11    1    3    3    0    0 -0.55982346156E+01  0.46169136338E+01 -0.18928901986E+01  0.74992770238E+01  0.51100000000E-03 0. -1.
        -11    1    3    3    0    0 -0.10406034780E+01  0.10686948432E+01 -0.10781859648E+02  0.10884551529E+02  0.51100000000E-03 0.  1.
         12    1    3    3    0    0 -0.20529729694E+02 -0.19288496287E+01 -0.20961217243E+02  0.29403450316E+02  0.00000000000E+00 0. -1.
</event>
<event>
 7    1  0.2733256E-010  0.4778727E+02  0.7816164E-02  0.1312668E+00
        -11   -1    0    0    0    0  0.00000000000E+00  0.00000000000E+00  0.45593999997E+02  0.45594000000E+02  0.51100000000E-03 0.  1.
         11   -1    0    0    0    0 -0.00000000000E+00 -0.00000000000E+00 -0.45593999997E+02  0.45594000000E+02  0.51100000000E-03 0. -1.
    9900012    2    1    2    0    0  0.32761878611E+01  0.43020230013E+02  0.47063198356E+01  0.47787273696E+02  0.20000012091E+02 0.  0.
         12    1    1    2    0    0 -0.32761878611E+01 -0.43020230013E+02 -0.47063198356E+01  0.43400726304E+02  0.00000000000E+00 0. -1.
         11    1    3    3    0    0 -0.57742150870E+00  0.59654654056E+01 -0.68932700401E+00  0.60328571244E+01  0.51100000000E-03 0. -1.
        -11    1    3    3    0    0 -0.23970092162E+00  0.22259047908E+02  0.11713030744E+02  0.25153881604E+02  0.51100000000E-03 0.  1.
        -12    1    3    3    0    0  0.40933102914E+01  0.14795716700E+02 -0.63173839047E+01  0.16600534968E+02  0.00000000000E+00 0.  1.
</event>
<event>
 7    1  0.2733256E-010  0.4778728E+02  0.7816164E-02  0.1312668E+00
        -11   -1    0    0    0    0  0.00000000000E+00  0.00000000000E+00  0.45593999997E+02  0.45594000000E+02  0.51100000000E-03 0.  1.
         11   -1    0    0    0    0 -0.00000000000E+00 -0.00000000000E+00 -0.45593999997E+02  0.45594000000E+02  0.51100000000E-03 0. -1.
    9900012    2    1    2    0    0  0.19733284248E+02 -0.17259399218E+02  0.34588052062E+02  0.47787277494E+02  0.20000029406E+02 0.  0.
         12    1    1    2    0    0 -0.19733284248E+02  0.17259399218E+02 -0.34588052062E+02  0.43400722506E+02  0.00000000000E+00 0. -1.
         11    1    3    3    0    0 -0.18831395195E+01  0.10361143675E+00  0.65719222333E+00  0.19972109701E+01  0.51100000000E-03 0. -1.
        -11    1    3    3    0    0  0.57203863693E+01 -0.31435227058E+01  0.18065044398E+02  0.19208081231E+02  0.51100000000E-03 0.  1.
        -12    1    3    3    0    0  0.15896037399E+02 -0.14219487949E+02  0.15865815441E+02  0.26581985293E+02  0.00000000000E+00 0.  1.
</event>
<event>
 7    1  0.2733256E-010  0.4778727E+02  0.7816164E-02  0.1312668E+00
        -11   -1    0    0    0    0  0.00000000000E+00  0.00000000000E+00  0.45593999997E+02  0.45594000000E+02  0.51100000000E-03 0.  1.
         11   -1    0    0    0    0 -0.00000000000E+00 -0.00000000000E+00 -0.45593999997E+02  0.45594000000E+02  0.51100000000E-03 0. -1.
    9900012    2    1    2    0    0  0.16222499838E+02  0.94525722870E+01  0.39129310781E+02  0.47787267448E+02  0.19999983604E+02 0.  0.
         12    1    1    2    0    0 -0.16222499838E+02 -0.94525722870E+01 -0.39129310781E+02  0.43400732552E+02  0.00000000000E+00 0. -1.
         11    1    3    3    0    0  0.79224811502E+01 -0.37630277136E+01  0.21736255399E+02  0.23439088808E+02  0.51100000000E-03 0. -1.
        -11    1    3    3    0    0  0.16419068646E+01  0.77110613826E+01  0.11292800832E+02  0.13772569720E+02  0.51100000000E-03 0.  1.
        -12    1    3    3    0    0  0.66581118236E+01  0.55045386180E+01  0.61002545496E+01  0.10575608920E+02  0.00000000000E+00 0.  1.
</event>
<event>
 7    1  0.2733256E-010  0.4778728E+02  0.7816164E-02  0.1312668E+00
        -11   -1    0    0    0    0  0.00000000000E+00  0.00000000000E+00  0.45593999997E+02  0.45594000000E+02  0.51100000000E-03 0. -1.
         11   -1    0    0    0    0 -0.00000000000E+00 -0.00000000000E+00 -0.45593999997E+02  0.45594000000E+02  0.51100000000E-03 0.  1.
    9900012    2    1    2    0    0  0.21355436200E+02  0.20211843921E+02 -0.31922556842E+02  0.47787275060E+02  0.20000018310E+02 0.  0.
         12    1    1    2    0    0 -0.21355436200E+02 -0.20211843921E+02  0.31922556842E+02  0.43400724940E+02  0.00000000000E+00 0. -1.
         11    1    3    3    0    0  0.17685282872E+02  0.73164185921E+01 -0.16645170345E+02  0.25364560066E+02  0.51100000000E-03 0. -1.
        -11    1    3    3    0    0  0.48769749263E+01  0.13753683508E+02 -0.14978786776E+02  0.20912024006E+02  0.51100000000E-03 0.  1.
        -12    1    3    3    0    0 -0.12068215978E+01 -0.85825817860E+00 -0.29859972010E+00  0.15106909885E+01  0.00000000000E+00 0.  1.
</event>
<event>
 7    1  0.2733256E-010  0.4778729E+02  0.7816164E-02  0.1312668E+00
        -11   -1    0    0    0    0  0.00000000000E+00  0.00000000000E+00  0.45593999997E+02  0.45594000000E+02  0.51100000000E-03 0.  1.
         11   -1    0    0    0    0 -0.00000000000E+00 -0.00000000000E+00 -0.45593999997E+02  0.45594000000E+02  0.51100000000E-03 0. -1.
    9900012    2    1    2    0    0 -0.26911082158E+02 -0.19700092274E+02  0.27772681999E+02  0.47787287518E+02  0.20000075107E+02 0.  0.
         12    1    1    2    0    0  0.26911082158E+02  0.19700092274E+02 -0.27772681999E+02  0.43400712482E+02  0.00000000000E+00 0. -1.
         11    1    3    3    0    0 -0.16873171715E+01  0.37269237707E+00 -0.26004988753E+01  0.31222641635E+01  0.51100000000E-03 0. -1.
        -11    1    3    3    0    0 -0.24567887798E+01 -0.37998769015E+01  0.25096856626E+01  0.51743016883E+01  0.51100000000E-03 0.  1.
        -12    1    3    3    0    0 -0.22766976207E+02 -0.16272907750E+02  0.27863495212E+02  0.39490721666E+02  0.00000000000E+00 0.  1.
</event>
<event>
 7    1  0.2733256E-010  0.4778727E+02  0.7816164E-02  0.1312668E+00
        -11   -1    0    0    0    0  0.00000000000E+00  0.00000000000E+00  0.45593999997E+02  0.45594000000E+02  0.51100000000E-03 0. -1.
         11   -1    0    0    0    0 -0.00000000000E+00 -0.00000000000E+00 -0.45593999997E+02  0.45594000000E+02  0.51100000000E-03 0.  1.
    9900012    2    1    2    0    0 -0.33328805413E+02 -0.27736775029E+02  0.18668547650E+01  0.47787272979E+02  0.20000008820E+02 0.  0.
         12    1    1    2    0    0  0.33328805413E+02  0.27736775029E+02 -0.18668547650E+01  0.43400727021E+02  0.00000000000E+00 0. -1.
         11    1    3    3    0    0 -0.34492913425E+01 -0.20719339600E+01 -0.95588939243E+00  0.41357279760E+01  0.51100000000E-03 0.  1.
        -11    1    3    3    0    0 -0.12645873955E+02 -0.12274629509E+00  0.21770949840E+01  0.12832495375E+02  0.51100000000E-03 0. -1.
         12    1    3    3    0    0 -0.17233640115E+02 -0.25542094774E+02  0.64564917346E+00  0.30819049627E+02  0.00000000000E+00 0. -1.
</event>
<event>
 7    1  0.2733256E-010  0.4778733E+02  0.7816164E-02  0.1312668E+00
        -11   -1    0    0    0    0  0.00000000000E+00  0.00000000000E+00  0.45593999997E+02  0.45594000000E+02  0.51100000000E-03 0.  1.
         11   -1    0    0    0    0 -0.00000000000E+00 -0.00000000000E+00 -0.45593999997E+02  0.45594000000E+02  0.51100000000E-03 0. -1.
    9900012    2    1    2    0    0  0.50873160440E+01  0.37260627818E+02  0.21665252928E+02  0.47787327720E+02  0.20000258404E+02 0.  0.
         12    1    1    2    0    0 -0.50873160440E+01 -0.37260627818E+02 -0.21665252928E+02  0.43400672280E+02  0.00000000000E+00 0. -1.
         11    1    3    3    0    0 -0.36089364554E+00  0.24751798181E+02  0.13112451238E+02  0.28012820907E+02  0.51100000000E-03 0.  1.
        -11    1    3    3    0    0  0.12932173884E+01  0.74906023437E+01 -0.15454867512E+01  0.77569365244E+01  0.51100000000E-03 0. -1.
        -12    1    3    3    0    0  0.41549923012E+01  0.50182272934E+01  0.10098288442E+02  0.12017570289E+02  0.00000000000E+00 0.  1.
</event>
<event>
 7    1  0.2733256E-010  0.4778728E+02  0.7816164E-02  0.1312668E+00
        -11   -1    0    0    0    0  0.00000000000E+00  0.00000000000E+00  0.45593999997E+02  0.45594000000E+02  0.51100000000E-03 0.  1.
         11   -1    0    0    0    0 -0.00000000000E+00 -0.00000000000E+00 -0.45593999997E+02  0.45594000000E+02  0.51100000000E-03 0. -1.
    9900012    2    1    2    0    0  0.62165322640E+01 -0.39887984302E+02  0.15935059543E+02  0.47787277797E+02  0.20000030789E+02 0.  0.
         12    1    1    2    0    0 -0.62165322640E+01  0.39887984302E+02 -0.15935059543E+02  0.43400722203E+02  0.00000000000E+00 0. -1.
         11    1    3    3    0    0 -0.40137376022E+01 -0.15241928919E+02  0.83448422409E+01  0.17834317452E+02  0.51100000000E-03 0. -1.
        -11    1    3    3    0    0  0.32141239061E+01 -0.17106462612E+02  0.43309033890E+00  0.17411180979E+02  0.51100000000E-03 0.  1.
         12    1    3    3    0    0  0.70161459602E+01 -0.75395927713E+01  0.71571269632E+01  0.12541779366E+02  0.00000000000E+00 0. -1.
</event>
<event>
 7    1  0.2733256E-010  0.4778727E+02  0.7816164E-02  0.1312668E+00
        -11   -1    0    0    0    0  0.00000000000E+00  0.00000000000E+00  0.45593999997E+02  0.45594000000E+02  0.51100000000E-03 0. -1.
         11   -1    0    0    0    0 -0.00000000000E+00 -0.00000000000E+00 -0.45593999997E+02  0.45594000000E+02  0.51100000000E-03 0.  1.
    9900012    2    1    2    0    0 -0.40466675583E+02 -0.15639078164E+02 -0.12208445186E+01  0.47787273510E+02  0.20000011241E+02 0.  0.
         12    1    1    2    0    0  0.40466675583E+02  0.15639078164E+02  0.12208445186E+01  0.43400726490E+02  0.00000000000E+00 0. -1.
         11    1    3    3    0    0 -0.10848216322E+00  0.11881899500E+01 -0.21918808855E+01  0.24955772507E+01  0.51100000000E-03 0. -1.
        -11    1    3    3    0    0 -0.10774168273E+02 -0.10169199563E+02 -0.13634334122E+01  0.14877979454E+02  0.51100000000E-03 0.  1.
         12    1    3    3    0    0 -0.29584025147E+02 -0.66580685509E+01  0.23344697791E+01  0.30413716805E+02  0.00000000000E+00 0. -1.
</event>
<event>
 7    1  0.2733256E-010  0.4778725E+02  0.7816164E-02  0.1312668E+00
        -11   -1    0    0    0    0  0.00000000000E+00  0.00000000000E+00  0.45593999997E+02  0.45594000000E+02  0.51100000000E-03 0. -1.
         11   -1    0    0    0    0 -0.00000000000E+00 -0.00000000000E+00 -0.45593999997E+02  0.45594000000E+02  0.51100000000E-03 0.  1.
    9900012    2    1    2    0    0  0.25817951420E+02 -0.34558895261E+02  0.47688020666E+01  0.47787247353E+02  0.19999891981E+02 0.  0.
         12    1    1    2    0    0 -0.25817951420E+02  0.34558895261E+02 -0.47688020666E+01  0.43400752647E+02  0.00000000000E+00 0. -1.
         11    1    3    3    0    0  0.89449819388E+01 -0.14216404285E+02 -0.34078562321E+01  0.17138621212E+02  0.51100000000E-03 0.  1.
        -11    1    3    3    0    0  0.24096094195E+01 -0.11295177096E+02 -0.39547973972E+00  0.11556108673E+02  0.51100000000E-03 0. -1.
         12    1    3    3    0    0  0.14463360062E+02 -0.90473138795E+01  0.85721380385E+01  0.19092517468E+02  0.00000000000E+00 0. -1.
</event>
<event>
 7    1  0.2733256E-010  0.4778727E+02  0.7816164E-02  0.1312668E+00
        -11   -1    0    0    0    0  0.00000000000E+00  0.00000000000E+00  0.45593999997E+02  0.45594000000E+02  0.51100000000E-03 0. -1.
         11   -1    0    0    0    0 -0.00000000000E+00 -0.00000000000E+00 -0.45593999997E+02  0.45594000000E+02  0.51100000000E-03 0.  1.
    9900012    2    1    2    0    0  0.19056661210E+02 -0.22603090572E+02 -0.31773684793E+02  0.47787273218E+02  0.20000009908E+02 0.  0.
         12    1    1    2    0    0 -0.19056661210E+02  0.22603090572E+02  0.31773684793E+02  0.43400726782E+02  0.00000000000E+00 0. -1.
         11    1    3    3    0    0  0.33485802666E+01 -0.68000418350E+01 -0.86730679425E+01  0.11518492373E+02  0.51100000000E-03 0. -1.
        -11    1    3    3    0    0  0.17464930400E+02 -0.13002444817E+02 -0.24412707318E+02  0.32711888419E+02  0.51100000000E-03 0.  1.
         12    1    3    3    0    0 -0.17568494562E+01 -0.28006039206E+01  0.13120904670E+01  0.35568924254E+01  0.00000000000E+00 0. -1.
</event>
<event>
 7    1  0.2733256E-010  0.4778727E+02  0.7816164E-02  0.1312668E+00
        -11   -1    0    0    0    0  0.00000000000E+00  0.00000000000E+00  0.45593999997E+02  0.45594000000E+02  0.51100000000E-03 0.  1.
         11   -1    0    0    0    0 -0.00000000000E+00 -0.00000000000E+00 -0.45593999997E+02  0.45594000000E+02  0.51100000000E-03 0. -1.
    9900012    2    1    2    0    0  0.41537630263E+02 -0.42111500554E+01  0.11853898307E+02  0.47787269387E+02  0.19999992445E+02 0.  0.
         12    1    1    2    0    0 -0.41537630263E+02  0.42111500554E+01 -0.11853898307E+02  0.43400730613E+02  0.00000000000E+00 0. -1.
         11    1    3    3    0    0  0.10541791116E+02 -0.80965373726E+01  0.26355273781E+01  0.13550988237E+02  0.51100000000E-03 0. -1.
        -11    1    3    3    0    0  0.13019457454E+02 -0.66395470884E+00  0.87248231610E+01  0.15686607272E+02  0.51100000000E-03 0.  1.
         12    1    3    3    0    0  0.17976381693E+02  0.45493420261E+01  0.49354776829E+00  0.18549673879E+02  0.00000000000E+00 0. -1.
</event>
<event>
 7    1  0.2733256E-010  0.4778727E+02  0.7816164E-02  0.1312668E+00
        -11   -1    0    0    0    0  0.00000000000E+00  0.00000000000E+00  0.45593999997E+02  0.45594000000E+02  0.51100000000E-03 0.  1.
         11   -1    0    0    0    0 -0.00000000000E+00 -0.00000000000E+00 -0.45593999997E+02  0.45594000000E+02  0.51100000000E-03 0. -1.
    9900012    2    1    2    0    0 -0.77455884305E+01  0.41934218161E+02 -0.80715863382E+01  0.47787270755E+02  0.19999998682E+02 0.  0.
         12    1    1    2    0    0  0.77455884305E+01 -0.41934218161E+02  0.80715863382E+01  0.43400729245E+02  0.00000000000E+00 0. -1.
         11    1    3    3    0    0 -0.32011307092E+01  0.13998160096E+02 -0.73960578731E+01  0.16152318602E+02  0.51100000000E-03 0. -1.
        -11    1    3    3    0    0 -0.31275072629E+01  0.12651964135E+02 -0.72760815215E+01  0.14926314372E+02  0.51100000000E-03 0.  1.
        -12    1    3    3    0    0 -0.14169504584E+01  0.15284093930E+02  0.66005530565E+01  0.16708637782E+02  0.00000000000E+00 0.  1.
</event>
<event>
 7    1  0.2733256E-010  0.4778727E+02  0.7816164E-02  0.1312668E+00
        -11   -1    0    0    0    0  0.00000000000E+00  0.00000000000E+00  0.45593999997E+02  0.45594000000E+02  0.51100000000E-03 0.  1.
         11   -1    0    0    0    0 -0.00000000000E+00 -0.00000000000E+00 -0.45593999997E+02  0.45594000000E+02  0.51100000000E-03 0. -1.
    9900012    2    1    2    0    0  0.25413390910E+02 -0.31001958976E+01  0.35045277401E+02  0.47787272815E+02  0.20000008071E+02 0.  0.
         12    1    1    2    0    0 -0.25413390910E+02  0.31001958976E+01 -0.35045277401E+02  0.43400727185E+02  0.00000000000E+00 0. -1.
         11    1    3    3    0    0  0.10608715512E+02 -0.37155826729E+01  0.16657900729E+02  0.20095672578E+02  0.51100000000E-03 0. -1.
        -11    1    3    3    0    0  0.16397000027E+02 -0.23787681635E+01  0.11993170216E+02  0.20453759556E+02  0.51100000000E-03 0.  1.
         12    1    3    3    0    0 -0.15923246294E+01  0.29941549388E+01  0.63942064561E+01  0.72378406812E+01  0.00000000000E+00 0. -1.
</event>
<event>
 7    1  0.2733256E-010  0.4778727E+02  0.7816164E-02  0.1312668E+00
        -11   -1    0    0    0    0  0.00000000000E+00  0.00000000000E+00  0.45593999997E+02  0.45594000000E+02  0.51100000000E-03 0.  1.
         11   -1    0    0    0    0 -0.00000000000E+00 -0.00000000000E+00 -0.45593999997E+02  0.45594000000E+02  0.51100000000E-03 0. -1.
    9900012    2    1    2    0    0 -0.25856557492E+02  0.23580586476E+02  0.25671338720E+02  0.47787271255E+02  0.20000000962E+02 0.  0.
         12    1    1    2    0    0  0.25856557492E+02 -0.23580586476E+02 -0.25671338720E+02  0.43400728745E+02  0.00000000000E+00 0. -1.
         11    1    3    3    0    0 -0.36712271339E+01  0.97937890110E+01  0.81345168854E+01  0.13250153851E+02  0.51100000000E-03 0. -1.
        -11    1    3    3    0    0 -0.91440553957E+01  0.10484564653E+02  0.15671470547E+02  0.20955544240E+02  0.51100000000E-03 0.  1.
         12    1    3    3    0    0 -0.13041274962E+02  0.33022328126E+01  0.18653512873E+01  0.13581573164E+02  0.00000000000E+00 0. -1.
</event>
<event>
 7    1  0.2733256E-010  0.4778727E+02  0.7816164E-02  0.1312668E+00
        -11   -1    0    0    0    0  0.00000000000E+00  0.00000000000E+00  0.45593999997E+02  0.45594000000E+02  0.51100000000E-03 0.  1.
         11   -1    0    0    0    0 -0.00000000000E+00 -0.00000000000E+00 -0.45593999997E+02  0.45594000000E+02  0.51100000000E-03 0. -1.
    9900012    2    1    2    0    0  0.13823895005E+02 -0.12721363360E+02  0.39124038840E+02  0.47787267587E+02  0.19999984236E+02 0.  0.
         12    1    1    2    0    0 -0.13823895005E+02  0.12721363360E+02 -0.39124038840E+02  0.43400732413E+02  0.00000000000E+00 0. -1.
         11    1    3    3    0    0  0.19645178114E+01 -0.52129082918E+01  0.50924657799E+01  0.75476453991E+01  0.51100000000E-03 0. -1.
        -11    1    3    3    0    0  0.12835091958E+02 -0.52272881027E+01  0.34947323598E+02  0.37594940529E+02  0.51100000000E-03 0.  1.
        -12    1    3    3    0    0 -0.97571476492E+00 -0.22811669654E+01 -0.91575053805E+00  0.26446816585E+01  0.00000000000E+00 0.  1.
</event>
<event>
 7    1  0.2733256E-010  0.4778725E+02  0.7816164E-02  0.1312668E+00
        -11   -1    0    0    0    0  0.00000000000E+00  0.00000000000E+00  0.45593999997E+02  0.45594000000E+02  0.51100000000E-03 0. -1.
         11   -1    0    0    0    0 -0.00000000000E+00 -0.00000000000E+00 -0.45593999997E+02  0.45594000000E+02  0.51100000000E-03 0.  1.
    9900012    2    1    2    0    0 -0.15125854540E+02  0.15680223289E+02 -0.37536168275E+02  0.47787253385E+02  0.19999919485E+02 0.  0.
         12    1    1    2    0    0  0.15125854540E+02 -0.15680223289E+02  0.37536168275E+02  0.43400746615E+02  0.00000000000E+00 0. -1.
         11    1    3    3    0    0 -0.21439259224E+00 -0.17602841760E+00  0.15999156068E+01  0.16237858225E+01  0.51100000000E-03 0. -1.
        -11    1    3    3    0    0 -0.43597508498E+01 -0.16720993091E+00 -0.31458418183E+01  0.53788202833E+01  0.51100000000E-03 0.  1.
        -12    1    3    3    0    0 -0.10551711098E+02  0.16023461638E+02 -0.35990242063E+02  0.40784647280E+02  0.00000000000E+00 0.  1.
</event>
<event>
 7    1  0.2733256E-010  0.4778727E+02  0.7816164E-02  0.1312668E+00
        -11   -1    0    0    0    0  0.00000000000E+00  0.00000000000E+00  0.45593999997E+02  0.45594000000E+02  0.51100000000E-03 0.  1.
         11   -1    0    0    0    0 -0.00000000000E+00 -0.00000000000E+00 -0.45593999997E+02  0.45594000000E+02  0.51100000000E-03 0. -1.
    9900012    2    1    2    0    0  0.64636445367E+01  0.73665420063E+01  0.42279771217E+02  0.47787266182E+02  0.19999977829E+02 0.  0.
         12    1    1    2    0    0 -0.64636445367E+01 -0.73665420063E+01 -0.42279771217E+02  0.43400733818E+02  0.00000000000E+00 0. -1.
         11    1    3    3    0    0 -0.32169887944E+01 -0.64716332594E+00  0.10875963386E+02  0.11360212018E+02  0.51100000000E-03 0. -1.
        -11    1    3    3    0    0  0.57440049087E+01  0.11021362907E+01  0.26377108964E+02  0.27017775156E+02  0.51100000000E-03 0.  1.
         12    1    3    3    0    0  0.39366284224E+01  0.69115690415E+01  0.50266988670E+01  0.94092790080E+01  0.00000000000E+00 0. -1.
</event>
<event>
 7    1  0.2733256E-010  0.4778727E+02  0.7816164E-02  0.1312668E+00
        -11   -1    0    0    0    0  0.00000000000E+00  0.00000000000E+00  0.45593999997E+02  0.45594000000E+02  0.51100000000E-03 0. -1.
         11   -1    0    0    0    0 -0.00000000000E+00 -0.00000000000E+00 -0.45593999997E+02  0.45594000000E+02  0.51100000000E-03 0.  1.
    9900012    2    1    2    0    0  0.11758803036E+02  0.20224081500E+02 -0.36555994362E+02  0.47787266767E+02  0.19999980497E+02 0.  0.
         12    1    1    2    0    0 -0.11758803036E+02 -0.20224081500E+02  0.36555994362E+02  0.43400733233E+02  0.00000000000E+00 0. -1.
         11    1    3    3    0    0  0.12358092360E+02  0.76201135457E+01 -0.17440379832E+02  0.22692629336E+02  0.51100000000E-03 0. -1.
        -11    1    3    3    0    0  0.37376023623E+01  0.10429032864E+02 -0.15461298043E+02  0.19020676522E+02  0.51100000000E-03 0.  1.
         12    1    3    3    0    0 -0.43368916862E+01  0.21749350904E+01 -0.36543164871E+01  0.60739609097E+01  0.00000000000E+00 0. -1.
</event>
<event>
 7    1  0.2733256E-010  0.4778727E+02  0.7816164E-02  0.1312668E+00
        -11   -1    0    0    0    0  0.00000000000E+00  0.00000000000E+00  0.45593999997E+02  0.45594000000E+02  0.51100000000E-03 0.  1.
         11   -1    0    0    0    0 -0.00000000000E+00 -0.00000000000E+00 -0.45593999997E+02  0.45594000000E+02  0.51100000000E-03 0. -1.
    9900012    2    1    2    0    0 -0.11046225833E+01 -0.40050825397E+02  0.16683352876E+02  0.47787273402E+02  0.20000010751E+02 0.  0.
         12    1    1    2    0    0  0.11046225833E+01  0.40050825397E+02 -0.16683352876E+02  0.43400726598E+02  0.00000000000E+00 0. -1.
         11    1    3    3    0    0 -0.88146601808E+00 -0.26352552957E+02  0.89722196910E+01  0.27852015297E+02  0.51100000000E-03 0. -1.
        -11    1    3    3    0    0 -0.42825397628E+01 -0.13576204939E+02  0.51743558444E+01  0.15146862581E+02  0.51100000000E-03 0.  1.
         12    1    3    3    0    0  0.40593831976E+01 -0.12206750044E+00  0.25367773411E+01  0.47883955244E+01  0.00000000000E+00 0. -1.
</event>
<event>
 7    1  0.2733256E-010  0.4778727E+02  0.7816164E-02  0.1312668E+00
        -11   -1    0    0    0    0  0.00000000000E+00  0.00000000000E+00  0.45593999997E+02  0.45594000000E+02  0.51100000000E-03 0.  1.
         11   -1    0    0    0    0 -0.00000000000E+00 -0.00000000000E+00 -0.45593999997E+02  0.45594000000E+02  0.51100000000E-03 0. -1.
    9900012    2    1    2    0    0 -0.16608814135E+02  0.33731187353E+02  0.21678973343E+02  0.47787267374E+02  0.19999983266E+02 0.  0.
         12    1    1    2    0    0  0.16608814135E+02 -0.33731187353E+02 -0.21678973343E+02  0.43400732626E+02  0.00000000000E+00 0. -1.
         11    1    3    3    0    0 -0.67521247884E+01  0.60454146912E+01  0.22750129794E+00  0.90658692384E+01  0.51100000000E-03 0. -1.
        -11    1    3    3    0    0 -0.18169773360E+01  0.44345177288E+00 -0.13425914469E+01  0.23023049687E+01  0.51100000000E-03 0.  1.
        -12    1    3    3    0    0 -0.80397120111E+01  0.27242320889E+02  0.22794063492E+02  0.36419093167E+02  0.00000000000E+00 0.  1.
</event>
<event>
 7    1  0.2733256E-010  0.4778727E+02  0.7816164E-02  0.1312668E+00
        -11   -1    0    0    0    0  0.00000000000E+00  0.00000000000E+00  0.45593999997E+02  0.45594000000E+02  0.51100000000E-03 0.  1.
         11   -1    0    0    0    0 -0.00000000000E+00 -0.00000000000E+00 -0.45593999997E+02  0.45594000000E+02  0.51100000000E-03 0. -1.
    9900012    2    1    2    0    0 -0.39675008708E+02 -0.13723472491E+02  0.11008339352E+02  0.47787267881E+02  0.19999985577E+02 0.  0.
         12    1    1    2    0    0  0.39675008708E+02  0.13723472491E+02 -0.11008339352E+02  0.43400732119E+02  0.00000000000E+00 0. -1.
         11    1    3    3    0    0 -0.92476998589E+01 -0.60771317809E+01  0.34850110656E+01  0.11601585484E+02  0.51100000000E-03 0.  1.
        -11    1    3    3    0    0  0.22032618972E+00 -0.11141683726E+01 -0.29377320860E+01  0.31496324965E+01  0.51100000000E-03 0. -1.
        -12    1    3    3    0    0 -0.30647635038E+02 -0.65321723377E+01  0.10461060372E+02  0.33036049900E+02  0.00000000000E+00 0.  1.
</event>
<event>
 7    1  0.2733256E-010  0.4778726E+02  0.7816164E-02  0.1312668E+00
        -11   -1    0    0    0    0  0.00000000000E+00  0.00000000000E+00  0.45593999997E+02  0.45594000000E+02  0.51100000000E-03 0.  1.
         11   -1    0    0    0    0 -0.00000000000E+00 -0.00000000000E+00 -0.45593999997E+02  0.45594000000E+02  0.51100000000E-03 0. -1.
    9900012    2    1    2    0    0 -0.22651589933E+02 -0.99658798265E+01  0.35654049010E+02  0.47787256942E+02  0.19999935699E+02 0.  0.
         12    1    1    2    0    0  0.22651589933E+02  0.99658798265E+01 -0.35654049010E+02  0.43400743058E+02  0.00000000000E+00 0. -1.
         11    1    3    3    0    0  0.70891507981E+00 -0.36170583408E+01  0.39625002031E+01  0.54117538517E+01  0.51100000000E-03 0. -1.
        -11    1    3    3    0    0 -0.15075198772E+02 -0.63890560491E+01  0.29605616439E+02  0.33831555983E+02  0.51100000000E-03 0.  1.
        -12    1    3    3    0    0 -0.82853062407E+01  0.40234563371E-01  0.20859323678E+01  0.85439471069E+01  0.00000000000E+00 0.  1.
</event>
<event>
 7    1  0.2733256E-010  0.4778727E+02  0.7816164E-02  0.1312668E+00
        -11   -1    0    0    0    0  0.00000000000E+00  0.00000000000E+00  0.45593999997E+02  0.45594000000E+02  0.51100000000E-03 0. -1.
         11   -1    0    0    0    0 -0.00000000000E+00 -0.00000000000E+00 -0.45593999997E+02  0.45594000000E+02  0.51100000000E-03 0.  1.
    9900012    2    1    2    0    0  0.37939539105E+01 -0.23741793832E+02 -0.36132486752E+02  0.47787268906E+02  0.19999990248E+02 0.  0.
         12    1    1    2    0    0 -0.37939539105E+01  0.23741793832E+02  0.36132486752E+02  0.43400731094E+02  0.00000000000E+00 0. -1.
         11    1    3    3    0    0 -0.58192927899E+00 -0.15604247299E+02 -0.20810862203E+02  0.26017747046E+02  0.51100000000E-03 0. -1.
        -11    1    3    3    0    0  0.20410656284E+00 -0.96535738201E+01 -0.57991685174E+01  0.11263369955E+02  0.51100000000E-03 0.  1.
        -12    1    3    3    0    0  0.41717766267E+01  0.15160272876E+01 -0.95224560324E+01  0.10506151905E+02  0.00000000000E+00 0.  1.
</event>
<event>
 7    1  0.2733256E-010  0.4778727E+02  0.7816164E-02  0.1312668E+00
        -11   -1    0    0    0    0  0.00000000000E+00  0.00000000000E+00  0.45593999997E+02  0.45594000000E+02  0.51100000000E-03 0.  1.
         11   -1    0    0    0    0 -0.00000000000E+00 -0.00000000000E+00 -0.45593999997E+02  0.45594000000E+02  0.51100000000E-03 0. -1.
    9900012    2    1    2    0    0 -0.26801589384E+02 -0.77255659248E+01  0.33250769355E+02  0.47787271607E+02  0.20000002564E+02 0.  0.
         12    1    1    2    0    0  0.26801589384E+02  0.77255659248E+01 -0.33250769355E+02  0.43400728393E+02  0.00000000000E+00 0. -1.
         11    1    3    3    0    0 -0.20411422989E-01 -0.15728888835E+01  0.80774027517E+01  0.82291452497E+01  0.51100000000E-03 0. -1.
        -11    1    3    3    0    0 -0.71171547106E+01 -0.66380276969E+01  0.36336965952E+01  0.10388505864E+02  0.51100000000E-03 0.  1.
        -12    1    3    3    0    0 -0.19664023250E+02  0.48535065565E+00  0.21539670008E+02  0.29169620493E+02  0.00000000000E+00 0.  1.
</event>
<event>
 7    1  0.2733256E-010  0.4778727E+02  0.7816164E-02  0.1312668E+00
        -11   -1    0    0    0    0  0.00000000000E+00  0.00000000000E+00  0.45593999997E+02  0.45594000000E+02  0.51100000000E-03 0. -1.
         11   -1    0    0    0    0 -0.00000000000E+00 -0.00000000000E+00 -0.45593999997E+02  0.45594000000E+02  0.51100000000E-03 0.  1.
    9900012    2    1    2    0    0  0.19841155634E+02 -0.80763285493E+01 -0.37745532603E+02  0.47787265315E+02  0.19999973877E+02 0.  0.
         12    1    1    2    0    0 -0.19841155634E+02  0.80763285493E+01  0.37745532603E+02  0.43400734685E+02  0.00000000000E+00 0. -1.
         11    1    3    3    0    0  0.42113763128E+01 -0.25435746416E+01 -0.83470152992E+01  0.96890725599E+01  0.51100000000E-03 0. -1.
        -11    1    3    3    0    0  0.97950280918E+01 -0.20188477350E+01 -0.29641023172E+02  0.31282720094E+02  0.51100000000E-03 0.  1.
         12    1    3    3    0    0  0.58347512294E+01 -0.35139061727E+01  0.24250586873E+00  0.68154726612E+01  0.00000000000E+00 0. -1.
</event>
<event>
 7    1  0.2733256E-010  0.4778726E+02  0.7816164E-02  0.1312668E+00
        -11   -1    0    0    0    0  0.00000000000E+00  0.00000000000E+00  0.45593999997E+02  0.45594000000E+02  0.51100000000E-03 0.  1.
         11   -1    0    0    0    0 -0.00000000000E+00 -0.00000000000E+00 -0.45593999997E+02  0.45594000000E+02  0.51100000000E-03 0. -1.
    9900012    2    1    2    0    0  0.31932696061E+02 -0.19978507484E+02  0.21558896653E+02  0.47787264247E+02  0.19999969006E+02 0.  0.
         12    1    1    2    0    0 -0.31932696061E+02  0.19978507484E+02 -0.21558896653E+02  0.43400735753E+02  0.00000000000E+00 0. -1.
         11    1    3    3    0    0  0.10704874558E+02 -0.60611876989E+01  0.42625864137E+01  0.13019292562E+02  0.51100000000E-03 0. -1.
        -11    1    3    3    0    0  0.17154387420E+02 -0.14582716576E+02  0.19764059670E+02  0.29959083521E+02  0.51100000000E-03 0.  1.
         12    1    3    3    0    0  0.40734340831E+01  0.66539679034E+00 -0.24677494307E+01  0.48088881637E+01  0.00000000000E+00 0. -1.
</event>
<event>
 7    1  0.2733256E-010  0.4778727E+02  0.7816164E-02  0.1312668E+00
        -11   -1    0    0    0    0  0.00000000000E+00  0.00000000000E+00  0.45593999997E+02  0.45594000000E+02  0.51100000000E-03 0.  1.
         11   -1    0    0    0    0 -0.00000000000E+00 -0.00000000000E+00 -0.45593999997E+02  0.45594000000E+02  0.51100000000E-03 0. -1.
    9900012    2    1    2    0    0  0.41174231749E+02  0.20015358324E+01  0.13575702898E+02  0.47787271722E+02  0.20000003091E+02 0.  0.
         12    1    1    2    0    0 -0.41174231749E+02 -0.20015358324E+01 -0.13575702898E+02  0.43400728278E+02  0.00000000000E+00 0. -1.
         11    1    3    3    0    0  0.74726755150E+01 -0.42953408215E+01  0.14653832591E+01  0.87428931414E+01  0.51100000000E-03 0. -1.
        -11    1    3    3    0    0  0.14194876603E+02  0.96660816348E+00  0.12321448078E+02  0.18821448832E+02  0.51100000000E-03 0.  1.
         12    1    3    3    0    0  0.19506679632E+02  0.53302684904E+01 -0.21112843919E+00  0.20222929749E+02  0.00000000000E+00 0. -1.
</event>
<event>
 7    1  0.2733256E-010  0.4778727E+02  0.7816164E-02  0.1312668E+00
        -11   -1    0    0    0    0  0.00000000000E+00  0.00000000000E+00  0.45593999997E+02  0.45594000000E+02  0.51100000000E-03 0.  1.
         11   -1    0    0    0    0 -0.00000000000E+00 -0.00000000000E+00 -0.45593999997E+02  0.45594000000E+02  0.51100000000E-03 0. -1.
    9900012    2    1    2    0    0 -0.65766947535E+01  0.35338849141E+02  0.24321512303E+02  0.47787272665E+02  0.20000007388E+02 0.  0.
         12    1    1    2    0    0  0.65766947535E+01 -0.35338849141E+02 -0.24321512303E+02  0.43400727335E+02  0.00000000000E+00 0. -1.
         11    1    3    3    0    0  0.28266848979E+01  0.12723387706E+02  0.39371373509E+01  0.13615277926E+02  0.51100000000E-03 0. -1.
        -11    1    3    3    0    0  0.12365051073E+01  0.51394657923E-01  0.43355768002E+01  0.45087484675E+01  0.51100000000E-03 0.  1.
        -12    1    3    3    0    0 -0.10639884759E+02  0.22564066777E+02  0.16048798152E+02  0.29663246271E+02  0.00000000000E+00 0.  1.
</event>
<event>
 7    1  0.2950951E-010  0.4778727E+02  0.7816164E-02  0.1312668E+00
        -11   -1    0    0    0    0  0.00000000000E+00  0.00000000000E+00  0.45593999997E+02  0.45594000000E+02  0.51100000000E-03 0. -1.
         11   -1    0    0    0    0 -0.00000000000E+00 -0.00000000000E+00 -0.45593999997E+02  0.45594000000E+02  0.51100000000E-03 0.  1.
    9900012    2    1    2    0    0  0.41570463038E+02 -0.23322080868E+01 -0.12250735810E+02  0.47787272821E+02  0.20000008101E+02 0.  0.
         12    1    1    2    0    0 -0.41570463038E+02  0.23322080868E+01  0.12250735810E+02  0.43400727179E+02  0.00000000000E+00 0. -1.
         11    1    3    3    0    0  0.45009994432E+00  0.20503201157E+01  0.82488816705E+00  0.22554031316E+01  0.51100000000E-03 0. -1.
        -11    1    3    3    0    0  0.23323800552E+02  0.35924714094E+01 -0.36773593333E+01  0.23883644925E+02  0.51100000000E-03 0.  1.
        -12    1    3    3    0    0  0.17796562542E+02 -0.79749996119E+01 -0.93982646437E+01  0.21648224764E+02  0.00000000000E+00 0.  1.
</event>
<event>
 7    1  0.2733256E-010  0.4778727E+02  0.7816164E-02  0.1312668E+00
        -11   -1    0    0    0    0  0.00000000000E+00  0.00000000000E+00  0.45593999997E+02  0.45594000000E+02  0.51100000000E-03 0. -1.
         11   -1    0    0    0    0 -0.00000000000E+00 -0.00000000000E+00 -0.45593999997E+02  0.45594000000E+02  0.51100000000E-03 0.  1.
    9900012    2    1    2    0    0 -0.39494217969E+02 -0.75380996175E+01  0.16340356837E+02  0.47787268895E+02  0.19999990201E+02 0.  0.
         12    1    1    2    0    0  0.39494217969E+02  0.75380996175E+01 -0.16340356837E+02  0.43400731105E+02  0.00000000000E+00 0. -1.
         11    1    3    3    0    0 -0.10599971361E+02 -0.66157904888E+01  0.40661015313E+01  0.13140063112E+02  0.51100000000E-03 0.  1.
        -11    1    3    3    0    0  0.15459215041E+01 -0.39407894553E+00 -0.43896490814E+00  0.16546485922E+01  0.51100000000E-03 0. -1.
         12    1    3    3    0    0 -0.30440168112E+02 -0.52823018319E+00  0.12713220214E+02  0.32992557192E+02  0.00000000000E+00 0. -1.
</event>
<event>
 7    1  0.2733256E-010  0.4778727E+02  0.7816164E-02  0.1312668E+00
        -11   -1    0    0    0    0  0.00000000000E+00  0.00000000000E+00  0.45593999997E+02  0.45594000000E+02  0.51100000000E-03 0. -1.
         11   -1    0    0    0    0 -0.00000000000E+00 -0.00000000000E+00 -0.45593999997E+02  0.45594000000E+02  0.51100000000E-03 0.  1.
    9900012    2    1    2    0    0  0.42605673225E+02  0.56192951561E+01  0.60665792897E+01  0.47787271281E+02  0.20000001080E+02 0.  0.
         12    1    1    2    0    0 -0.42605673225E+02 -0.56192951561E+01 -0.60665792897E+01  0.43400728719E+02  0.00000000000E+00 0. -1.
         11    1    3    3    0    0  0.83328128763E+01  0.71329764900E+01  0.93804010578E+00  0.11008862046E+02  0.51100000000E-03 0. -1.
        -11    1    3    3    0    0  0.22743287396E+02  0.42315297326E+01  0.58984053123E+01  0.23873712551E+02  0.51100000000E-03 0.  1.
         12    1    3    3    0    0  0.11529572953E+02 -0.57452110665E+01 -0.76986612839E+00  0.12904696685E+02  0.00000000000E+00 0. -1.
</event>
<event>
 7    1  0.2733256E-010  0.4778727E+02  0.7816164E-02  0.1312668E+00
        -11   -1    0    0    0    0  0.00000000000E+00  0.00000000000E+00  0.45593999997E+02  0.45594000000E+02  0.51100000000E-03 0. -1.
         11   -1    0    0    0    0 -0.00000000000E+00 -0.00000000000E+00 -0.45593999997E+02  0.45594000000E+02  0.51100000000E-03 0.  1.
    9900012    2    1    2    0    0 -0.31332499487E+02  0.40381383025E+01  0.29758882467E+02  0.47787272233E+02  0.20000005418E+02 0.  0.
         12    1    1    2    0    0  0.31332499487E+02 -0.40381383025E+01 -0.29758882467E+02  0.43400727767E+02  0.00000000000E+00 0. -1.
         11    1    3    3    0    0 -0.50923036848E+01  0.44130483219E+00  0.97017272757E+00  0.52026476102E+01  0.51100000000E-03 0. -1.
        -11    1    3    3    0    0 -0.27335777487E+02  0.52927694094E+01  0.21952811362E+02  0.35456791532E+02  0.51100000000E-03 0.  1.
         12    1    3    3    0    0  0.10955816844E+01 -0.16959359391E+01  0.68358983773E+01  0.71278330901E+01  0.00000000000E+00 0. -1.
</event>
<event>
 7    1  0.2733256E-010  0.4778728E+02  0.7816164E-02  0.1312668E+00
        -11   -1    0    0    0    0  0.00000000000E+00  0.00000000000E+00  0.45593999997E+02  0.45594000000E+02  0.51100000000E-03 0.  1.
         11   -1    0    0    0    0 -0.00000000000E+00 -0.00000000000E+00 -0.45593999997E+02  0.45594000000E+02  0.51100000000E-03 0. -1.
    9900012    2    1    2    0    0  0.13266048192E+02  0.87297171133E+01  0.40390924704E+02  0.47787276574E+02  0.20000025211E+02 0.  0.
         12    1    1    2    0    0 -0.13266048192E+02 -0.87297171133E+01 -0.40390924704E+02  0.43400723426E+02  0.00000000000E+00 0. -1.
         11    1    3    3    0    0  0.76845126425E+01  0.86933913598E+01  0.19347504711E+02  0.22559980645E+02  0.51100000000E-03 0. -1.
        -11    1    3    3    0    0  0.31668064694E+01  0.55064108048E+01  0.16611383532E+02  0.17784467556E+02  0.51100000000E-03 0.  1.
         12    1    3    3    0    0  0.24147290797E+01 -0.54700850513E+01  0.44320364607E+01  0.74428283727E+01  0.00000000000E+00 0. -1.
</event>
<event>
 7    1  0.2733256E-010  0.4778727E+02  0.7816164E-02  0.1312668E+00
        -11   -1    0    0    0    0  0.00000000000E+00  0.00000000000E+00  0.45593999997E+02  0.45594000000E+02  0.51100000000E-03 0. -1.
         11   -1    0    0    0    0 -0.00000000000E+00 -0.00000000000E+00 -0.45593999997E+02  0.45594000000E+02  0.51100000000E-03 0.  1.
    9900012    2    1    2    0    0  0.24728413914E+02  0.33397643241E+02  0.12519045078E+02  0.47787268228E+02  0.19999987157E+02 0.  0.
         12    1    1    2    0    0 -0.24728413914E+02 -0.33397643241E+02 -0.12519045078E+02  0.43400731772E+02  0.00000000000E+00 0. -1.
         11    1    3    3    0    0 -0.68388311829E+00  0.20691859998E+01 -0.28711345734E+00  0.21981040057E+01  0.51100000000E-03 0. -1.
        -11    1    3    3    0    0  0.83817852096E+01  0.15559011176E+02  0.13700713036E+02  0.22361723772E+02  0.51100000000E-03 0.  1.
         12    1    3    3    0    0  0.17030511822E+02  0.15769446065E+02 -0.89455450068E+00  0.23227440450E+02  0.00000000000E+00 0. -1.
</event>
<event>
 7    1  0.2733256E-010  0.4778727E+02  0.7816164E-02  0.1312668E+00
        -11   -1    0    0    0    0  0.00000000000E+00  0.00000000000E+00  0.45593999997E+02  0.45594000000E+02  0.51100000000E-03 0. -1.
         11   -1    0    0    0    0 -0.00000000000E+00 -0.00000000000E+00 -0.45593999997E+02  0.45594000000E+02  0.51100000000E-03 0.  1.
    9900012    2    1    2    0    0  0.15494141180E+02  0.58266347091E+01 -0.40119883749E+02  0.47787272415E+02  0.20000006247E+02 0.  0.
         12    1    1    2    0    0 -0.15494141180E+02 -0.58266347091E+01  0.40119883749E+02  0.43400727585E+02  0.00000000000E+00 0. -1.
         11    1    3    3    0    0  0.78521964290E+01  0.19966860525E+01 -0.29749251570E+02  0.30832802552E+02  0.51100000000E-03 0. -1.
        -11    1    3    3    0    0  0.25516505957E+01  0.56386093853E+01 -0.97064363456E+01  0.11511721998E+02  0.51100000000E-03 0.  1.
         12    1    3    3    0    0  0.50902941552E+01 -0.18086607287E+01 -0.66419583285E+00  0.54427478650E+01  0.00000000000E+00 0. -1.
</event>
<event>
 7    1  0.2733256E-010  0.4778727E+02  0.7816164E-02  0.1312668E+00
        -11   -1    0    0    0    0  0.00000000000E+00  0.00000000000E+00  0.45593999997E+02  0.45594000000E+02  0.51100000000E-03 0.  1.
         11   -1    0    0    0    0 -0.00000000000E+00 -0.00000000000E+00 -0.45593999997E+02  0.45594000000E+02  0.51100000000E-03 0. -1.
    9900012    2    1    2    0    0 -0.42384634047E+02  0.88324660618E+01 -0.30254843240E+01  0.47787271718E+02  0.20000003070E+02 0.  0.
         12    1    1    2    0    0  0.42384634047E+02 -0.88324660618E+01  0.30254843240E+01  0.43400728282E+02  0.00000000000E+00 0. -1.
         11    1    3    3    0    0 -0.40569320245E+01 -0.80895896247E+00 -0.25846977324E+01  0.48778862926E+01  0.51100000000E-03 0. -1.
        -11    1    3    3    0    0 -0.35189799451E+02  0.11733876492E+02 -0.45022739290E+01  0.37366780885E+02  0.51100000000E-03 0.  1.
         12    1    3    3    0    0 -0.31379025715E+01 -0.20924514675E+01  0.40614873375E+01  0.55426045398E+01  0.00000000000E+00 0. -1.
</event>
<event>
 7    1  0.2733256E-010  0.4778727E+02  0.7816164E-02  0.1312668E+00
        -11   -1    0    0    0    0  0.00000000000E+00  0.00000000000E+00  0.45593999997E+02  0.45594000000E+02  0.51100000000E-03 0.  1.
         11   -1    0    0    0    0 -0.00000000000E+00 -0.00000000000E+00 -0.45593999997E+02  0.45594000000E+02  0.51100000000E-03 0. -1.
    9900012    2    1    2    0    0 -0.27221640154E+02 -0.15513681771E+02  0.30032170688E+02  0.47787270847E+02  0.19999999101E+02 0.  0.
         12    1    1    2    0    0  0.27221640154E+02  0.15513681771E+02 -0.30032170688E+02  0.43400729153E+02  0.00000000000E+00 0. -1.
         11    1    3    3    0    0  0.27701098713E+00 -0.47507264261E+01  0.47646087851E+01  0.67340651763E+01  0.51100000000E-03 0. -1.
        -11    1    3    3    0    0 -0.66193384235E+01  0.20689431123E+01  0.18992018921E+01  0.71904891944E+01  0.51100000000E-03 0.  1.
        -12    1    3    3    0    0 -0.20879312718E+02 -0.12831898457E+02  0.23368360011E+02  0.33862716476E+02  0.00000000000E+00 0.  1.
</event>
<event>
 7    1  0.2733256E-010  0.4778727E+02  0.7816164E-02  0.1312668E+00
        -11   -1    0    0    0    0  0.00000000000E+00  0.00000000000E+00  0.45593999997E+02  0.45594000000E+02  0.51100000000E-03 0.  1.
         11   -1    0    0    0    0 -0.00000000000E+00 -0.00000000000E+00 -0.45593999997E+02  0.45594000000E+02  0.51100000000E-03 0. -1.
    9900012    2    1    2    0    0  0.11044133554E+02 -0.24734977564E+02  0.33909161368E+02  0.47787271599E+02  0.20000002530E+02 0.  0.
         12    1    1    2    0    0 -0.11044133554E+02  0.24734977564E+02 -0.33909161368E+02  0.43400728401E+02  0.00000000000E+00 0. -1.
         11    1    3    3    0    0  0.10819782833E+02 -0.11518555349E+02  0.13800614497E+02  0.20980986121E+02  0.51100000000E-03 0. -1.
        -11    1    3    3    0    0  0.21218791333E+01 -0.14592130610E+01  0.12296746509E+02  0.12563504638E+02  0.51100000000E-03 0.  1.
        -12    1    3    3    0    0 -0.18975284127E+01 -0.11757209154E+02  0.78118003620E+01  0.14242780840E+02  0.00000000000E+00 0.  1.
</event>
<event>
 7    1  0.2733256E-010  0.4778727E+02  0.7816164E-02  0.1312668E+00
        -11   -1    0    0    0    0  0.00000000000E+00  0.00000000000E+00  0.45593999997E+02  0.45594000000E+02  0.51100000000E-03 0.  1.
         11   -1    0    0    0    0 -0.00000000000E+00 -0.00000000000E+00 -0.45593999997E+02  0.45594000000E+02  0.51100000000E-03 0. -1.
    9900012    2    1    2    0    0  0.37545138050E+01 -0.43050837002E+02 -0.40189934797E+01  0.47787271330E+02  0.20000001301E+02 0.  0.
         12    1    1    2    0    0 -0.37545138050E+01  0.43050837002E+02  0.40189934797E+01  0.43400728670E+02  0.00000000000E+00 0. -1.
         11    1    3    3    0    0 -0.22123926044E+01 -0.24148448204E+01  0.19564155251E+01  0.38149336181E+01  0.51100000000E-03 0. -1.
        -11    1    3    3    0    0  0.16404926164E+01 -0.46635256095E+01  0.40371026912E+01  0.63826237187E+01  0.51100000000E-03 0.  1.
         12    1    3    3    0    0  0.43264137930E+01 -0.35972466572E+02 -0.10012511696E+02  0.37589713993E+02  0.00000000000E+00 0. -1.
</event>
<event>
 7    1  0.2733256E-010  0.4778726E+02  0.7816164E-02  0.1312668E+00
        -11   -1    0    0    0    0  0.00000000000E+00  0.00000000000E+00  0.45593999997E+02  0.45594000000E+02  0.51100000000E-03 0.  1.
         11   -1    0    0    0    0 -0.00000000000E+00 -0.00000000000E+00 -0.45593999997E+02  0.45594000000E+02  0.51100000000E-03 0. -1.
    9900012    2    1    2    0    0 -0.37307537759E+01 -0.37403511567E+02  0.21695229895E+02  0.47787260358E+02  0.19999951276E+02 0.  0.
         12    1    1    2    0    0  0.37307537759E+01  0.37403511567E+02 -0.21695229895E+02  0.43400739642E+02  0.00000000000E+00 0. -1.
         11    1    3    3    0    0  0.93504088216E+00 -0.45020824998E+01 -0.15471509186E+01  0.48514662229E+01  0.51100000000E-03 0. -1.
        -11    1    3    3    0    0 -0.60413391788E+01 -0.71619782268E+01  0.21101719418E+01  0.96044019637E+01  0.51100000000E-03 0.  1.
        -12    1    3    3    0    0  0.13755445208E+01 -0.25739450840E+02  0.21132208872E+02  0.33331392171E+02  0.00000000000E+00 0.  1.
</event>
<event>
 7    1  0.2733256E-010  0.4778727E+02  0.7816164E-02  0.1312668E+00
        -11   -1    0    0    0    0  0.00000000000E+00  0.00000000000E+00  0.45593999997E+02  0.45594000000E+02  0.51100000000E-03 0.  1.
         11   -1    0    0    0    0 -0.00000000000E+00 -0.00000000000E+00 -0.45593999997E+02  0.45594000000E+02  0.51100000000E-03 0. -1.
    9900012    2    1    2    0    0 -0.23203091645E+02  0.12947864606E+02  0.34316067363E+02  0.47787272598E+02  0.20000007085E+02 0.  0.
         12    1    1    2    0    0  0.23203091645E+02 -0.12947864606E+02 -0.34316067363E+02  0.43400727402E+02  0.00000000000E+00 0. -1.
         11    1    3    3    0    0  0.32058777097E+01  0.50017397345E+00  0.60773961102E+01  0.68893083568E+01  0.51100000000E-03 0. -1.
        -11    1    3    3    0    0 -0.73606227250E+01  0.37773820331E+01  0.51964373567E+01  0.97698691592E+01  0.51100000000E-03 0.  1.
        -12    1    3    3    0    0 -0.19048346629E+02  0.86703085995E+01  0.23042233896E+02  0.31128095082E+02  0.00000000000E+00 0.  1.
</event>
<event>
 7    1  0.2733256E-010  0.4778727E+02  0.7816164E-02  0.1312668E+00
        -11   -1    0    0    0    0  0.00000000000E+00  0.00000000000E+00  0.45593999997E+02  0.45594000000E+02  0.51100000000E-03 0.  1.
         11   -1    0    0    0    0 -0.00000000000E+00 -0.00000000000E+00 -0.45593999997E+02  0.45594000000E+02  0.51100000000E-03 0. -1.
    9900012    2    1    2    0    0 -0.10505442947E+02  0.28470653395E+02  0.31027098076E+02  0.47787271305E+02  0.20000001187E+02 0.  0.
         12    1    1    2    0    0  0.10505442947E+02 -0.28470653395E+02 -0.31027098076E+02  0.43400728695E+02  0.00000000000E+00 0. -1.
         11    1    3    3    0    0 -0.24520726373E+00  0.19075871076E+02  0.14972376177E+02  0.24251206827E+02  0.51100000000E-03 0.  1.
        -11    1    3    3    0    0  0.17236283993E+01  0.12902829695E-01  0.31117192436E+01  0.35572262022E+01  0.51100000000E-03 0. -1.
         12    1    3    3    0    0 -0.11983864083E+02  0.93818794893E+01  0.12943002655E+02  0.19978838276E+02  0.00000000000E+00 0. -1.
</event>
<event>
 7    1  0.2733256E-010  0.4778727E+02  0.7816164E-02  0.1312668E+00
        -11   -1    0    0    0    0  0.00000000000E+00  0.00000000000E+00  0.45593999997E+02  0.45594000000E+02  0.51100000000E-03 0.  1.
         11   -1    0    0    0    0 -0.00000000000E+00 -0.00000000000E+00 -0.45593999997E+02  0.45594000000E+02  0.51100000000E-03 0. -1.
    9900012    2    1    2    0    0  0.12748011360E+01  0.89434812900E+01  0.42450112285E+02  0.47787274101E+02  0.20000013937E+02 0.  0.
         12    1    1    2    0    0 -0.12748011360E+01 -0.89434812900E+01 -0.42450112285E+02  0.43400725899E+02  0.00000000000E+00 0. -1.
         11    1    3    3    0    0 -0.11062623505E+01  0.16032221728E+00  0.14800486885E+00  0.11275749659E+01  0.51100000000E-03 0. -1.
        -11    1    3    3    0    0 -0.45745431004E+01  0.37561461864E+01  0.34680184633E+02  0.35181675417E+02  0.51100000000E-03 0.  1.
        -12    1    3    3    0    0  0.69556065869E+01  0.50270128863E+01  0.76219227836E+01  0.11478023718E+02  0.00000000000E+00 0.  1.
</event>
<event>
 7    1  0.2733256E-010  0.4778727E+02  0.7816164E-02  0.1312668E+00
        -11   -1    0    0    0    0  0.00000000000E+00  0.00000000000E+00  0.45593999997E+02  0.45594000000E+02  0.51100000000E-03 0.  1.
         11   -1    0    0    0    0 -0.00000000000E+00 -0.00000000000E+00 -0.45593999997E+02  0.45594000000E+02  0.51100000000E-03 0. -1.
    9900012    2    1    2    0    0  0.41198126710E+02 -0.10438558519E+02  0.87962431596E+01  0.47787273715E+02  0.20000012176E+02 0.  0.
         12    1    1    2    0    0 -0.41198126710E+02  0.10438558519E+02 -0.87962431596E+01  0.43400726285E+02  0.00000000000E+00 0. -1.
         11    1    3    3    0    0  0.31648506022E+02 -0.53013292883E+01  0.50941033413E+00  0.32093481033E+02  0.51100000000E-03 0. -1.
        -11    1    3    3    0    0  0.10524115971E+02 -0.33912268428E+01  0.57471348219E+01  0.12461420280E+02  0.51100000000E-03 0.  1.
         12    1    3    3    0    0 -0.97449528366E+00 -0.17460023874E+01  0.25396980037E+01  0.32323724019E+01  0.00000000000E+00 0. -1.
</event>
<event>
 7    1  0.2733256E-010  0.4778727E+02  0.7816164E-02  0.1312668E+00
        -11   -1    0    0    0    0  0.00000000000E+00  0.00000000000E+00  0.45593999997E+02  0.45594000000E+02  0.51100000000E-03 0.  1.
         11   -1    0    0    0    0 -0.00000000000E+00 -0.00000000000E+00 -0.45593999997E+02  0.45594000000E+02  0.51100000000E-03 0. -1.
    9900012    2    1    2    0    0  0.33073853100E+02  0.20743955547E+02  0.18958693386E+02  0.47787268376E+02  0.19999987831E+02 0.  0.
         12    1    1    2    0    0 -0.33073853100E+02 -0.20743955547E+02 -0.18958693386E+02  0.43400731624E+02  0.00000000000E+00 0. -1.
         11    1    3    3    0    0  0.14558591378E+02  0.16749001340E+02  0.12475616607E+02  0.25458252862E+02  0.51100000000E-03 0. -1.
        -11    1    3    3    0    0  0.24977488704E-02 -0.24246214692E+00  0.30134017343E+01  0.30231414794E+01  0.51100000000E-03 0.  1.
         12    1    3    3    0    0  0.18512763974E+02  0.42374163535E+01  0.34696750446E+01  0.19305874034E+02  0.00000000000E+00 0. -1.
</event>
<event>
 7    1  0.2733256E-010  0.4778726E+02  0.7816164E-02  0.1312668E+00
        -11   -1    0    0    0    0  0.00000000000E+00  0.00000000000E+00  0.45593999997E+02  0.45594000000E+02  0.51100000000E-03 0. -1.
         11   -1    0    0    0    0 -0.00000000000E+00 -0.00000000000E+00 -0.45593999997E+02  0.45594000000E+02  0.51100000000E-03 0.  1.
    9900012    2    1    2    0    0 -0.18799682129E+01  0.11384549003E+02 -0.41838758374E+02  0.47787263385E+02  0.19999965077E+02 0.  0.
         12    1    1    2    0    0  0.18799682129E+01 -0.11384549003E+02  0.41838758374E+02  0.43400736615E+02  0.00000000000E+00 0. -1.
         11    1    3    3    0    0 -0.47637036809E+01  0.29634982166E+01 -0.17433015943E+01  0.58748868201E+01  0.51100000000E-03 0. -1.
        -11    1    3    3    0    0 -0.14802967052E+00 -0.16489242353E+01 -0.66206804547E+01  0.68245346992E+01  0.51100000000E-03 0.  1.
        -12    1    3    3    0    0  0.30317651386E+01  0.10069975022E+02 -0.33474776325E+02  0.35087841866E+02  0.00000000000E+00 0.  1.
</event>
<event>
 7    1  0.2733256E-010  0.4778727E+02  0.7816164E-02  0.1312668E+00
        -11   -1    0    0    0    0  0.00000000000E+00  0.00000000000E+00  0.45593999997E+02  0.45594000000E+02  0.51100000000E-03 0.  1.
         11   -1    0    0    0    0 -0.00000000000E+00 -0.00000000000E+00 -0.45593999997E+02  0.45594000000E+02  0.51100000000E-03 0. -1.
    9900012    2    1    2    0    0  0.99808989123E+01  0.42225413968E+02  0.10095582424E+01  0.47787272636E+02  0.20000007257E+02 0.  0.
         12    1    1    2    0    0 -0.99808989123E+01 -0.42225413968E+02 -0.10095582424E+01  0.43400727364E+02  0.00000000000E+00 0. -1.
         11    1    3    3    0    0  0.64997209787E+01  0.31508307542E+02  0.45924306881E+01  0.32497849727E+02  0.51100000000E-03 0. -1.
        -11    1    3    3    0    0  0.11606234931E+01  0.12101869451E+02 -0.30671662473E+01  0.12538333229E+02  0.51100000000E-03 0.  1.
         12    1    3    3    0    0  0.23205544404E+01 -0.13847630253E+01 -0.51570619845E+00  0.27510896806E+01  0.00000000000E+00 0. -1.
</event>
<event>
 7    1  0.2733256E-010  0.4778728E+02  0.7816164E-02  0.1312668E+00
        -11   -1    0    0    0    0  0.00000000000E+00  0.00000000000E+00  0.45593999997E+02  0.45594000000E+02  0.51100000000E-03 0.  1.
         11   -1    0    0    0    0 -0.00000000000E+00 -0.00000000000E+00 -0.45593999997E+02  0.45594000000E+02  0.51100000000E-03 0. -1.
    9900012    2    1    2    0    0 -0.27496005613E+02 -0.33543935949E+02 -0.15481731645E+01  0.47787276461E+02  0.20000024695E+02 0.  0.
         12    1    1    2    0    0  0.27496005613E+02  0.33543935949E+02  0.15481731645E+01  0.43400723539E+02  0.00000000000E+00 0. -1.
         11    1    3    3    0    0 -0.36274297143E+01 -0.45246378800E+01 -0.30456821720E+01  0.65503262843E+01  0.51100000000E-03 0. -1.
        -11    1    3    3    0    0 -0.52096422421E+01 -0.80038988820E+01 -0.70410376184E+01  0.11865031842E+02  0.51100000000E-03 0.  1.
        -12    1    3    3    0    0 -0.18658933656E+02 -0.21015399187E+02  0.85385466260E+01  0.29371918335E+02  0.00000000000E+00 0.  1.
</event>
<event>
 7    1  0.2733256E-010  0.4778727E+02  0.7816164E-02  0.1312668E+00
        -11   -1    0    0    0    0  0.00000000000E+00  0.00000000000E+00  0.45593999997E+02  0.45594000000E+02  0.51100000000E-03 0.  1.
         11   -1    0    0    0    0 -0.00000000000E+00 -0.00000000000E+00 -0.45593999997E+02  0.45594000000E+02  0.51100000000E-03 0. -1.
    9900012    2    1    2    0    0 -0.30298199946E+02 -0.67373971445E+01  0.30335621911E+02  0.47787269626E+02  0.19999993534E+02 0.  0.
         12    1    1    2    0    0  0.30298199946E+02  0.67373971445E+01 -0.30335621911E+02  0.43400730374E+02  0.00000000000E+00 0. -1.
         11    1    3    3    0    0 -0.34744255903E+01 -0.59630690533E+01  0.15098059674E+00  0.69030877959E+01  0.51100000000E-03 0. -1.
        -11    1    3    3    0    0 -0.10870990059E+02 -0.29106480043E+01  0.98912857129E+01  0.14982917939E+02  0.51100000000E-03 0.  1.
         12    1    3    3    0    0 -0.15952784297E+02  0.21363199131E+01  0.20293355601E+02  0.25901263891E+02  0.00000000000E+00 0. -1.
</event>
<event>
 7    1  0.2733256E-010  0.4778728E+02  0.7816164E-02  0.1312668E+00
        -11   -1    0    0    0    0  0.00000000000E+00  0.00000000000E+00  0.45593999997E+02  0.45594000000E+02  0.51100000000E-03 0.  1.
         11   -1    0    0    0    0 -0.00000000000E+00 -0.00000000000E+00 -0.45593999997E+02  0.45594000000E+02  0.51100000000E-03 0. -1.
    9900012    2    1    2    0    0  0.37424201743E+02  0.18464369354E+01  0.21900743797E+02  0.47787276684E+02  0.20000025715E+02 0.  0.
         12    1    1    2    0    0 -0.37424201743E+02 -0.18464369354E+01 -0.21900743797E+02  0.43400723316E+02  0.00000000000E+00 0. -1.
         11    1    3    3    0    0  0.15166776987E+02 -0.29998011632E+01  0.97498945466E+01  0.18278139268E+02  0.51100000000E-03 0. -1.
        -11    1    3    3    0    0  0.11751891618E+02 -0.46558480094E+01  0.69058235793E+01  0.14403967400E+02  0.51100000000E-03 0.  1.
         12    1    3    3    0    0  0.10505533138E+02  0.95020861080E+01  0.52450256713E+01  0.15105170016E+02  0.00000000000E+00 0. -1.
</event>
<event>
 7    1  0.2733256E-010  0.4778727E+02  0.7816164E-02  0.1312668E+00
        -11   -1    0    0    0    0  0.00000000000E+00  0.00000000000E+00  0.45593999997E+02  0.45594000000E+02  0.51100000000E-03 0.  1.
         11   -1    0    0    0    0 -0.00000000000E+00 -0.00000000000E+00 -0.45593999997E+02  0.45594000000E+02  0.51100000000E-03 0. -1.
    9900012    2    1    2    0    0  0.24648150097E+02  0.35658899834E+02  0.21295149825E+01  0.47787271036E+02  0.19999999962E+02 0.  0.
         12    1    1    2    0    0 -0.24648150097E+02 -0.35658899834E+02 -0.21295149825E+01  0.43400728964E+02  0.00000000000E+00 0. -1.
         11    1    3    3    0    0  0.65408195640E+01  0.92677158985E+01 -0.13327850430E+01  0.11421435758E+02  0.51100000000E-03 0. -1.
        -11    1    3    3    0    0  0.16835559978E+02  0.27825181318E+02  0.13067300013E+00  0.32522205812E+02  0.51100000000E-03 0.  1.
         12    1    3    3    0    0  0.12717705547E+01 -0.14339973830E+01  0.33316270253E+01  0.38436294663E+01  0.00000000000E+00 0. -1.
</event>
<event>
 7    1  0.2733256E-010  0.4778727E+02  0.7816164E-02  0.1312668E+00
        -11   -1    0    0    0    0  0.00000000000E+00  0.00000000000E+00  0.45593999997E+02  0.45594000000E+02  0.51100000000E-03 0.  1.
         11   -1    0    0    0    0 -0.00000000000E+00 -0.00000000000E+00 -0.45593999997E+02  0.45594000000E+02  0.51100000000E-03 0. -1.
    9900012    2    1    2    0    0  0.81596628347E+01  0.42551445790E+02  0.25333269337E+01  0.47787269802E+02  0.19999994334E+02 0.  0.
         12    1    1    2    0    0 -0.81596628347E+01 -0.42551445790E+02 -0.25333269337E+01  0.43400730198E+02  0.00000000000E+00 0. -1.
         11    1    3    3    0    0  0.45606975555E+00  0.16915554886E+02  0.93909944462E+00  0.16947740403E+02  0.51100000000E-03 0. -1.
        -11    1    3    3    0    0 -0.21961150631E+01  0.18398165763E+02  0.65612743517E+00  0.18540386412E+02  0.51100000000E-03 0.  1.
         12    1    3    3    0    0  0.98997081422E+01  0.72377251406E+01  0.93810005392E+00  0.12299142987E+02  0.00000000000E+00 0. -1.
</event>
<event>
 7    1  0.2733256E-010  0.4778727E+02  0.7816164E-02  0.1312668E+00
        -11   -1    0    0    0    0  0.00000000000E+00  0.00000000000E+00  0.45593999997E+02  0.45594000000E+02  0.51100000000E-03 0. -1.
         11   -1    0    0    0    0 -0.00000000000E+00 -0.00000000000E+00 -0.45593999997E+02  0.45594000000E+02  0.51100000000E-03 0.  1.
    9900012    2    1    2    0    0  0.16704501189E+02  0.87921226504E+01 -0.39080451506E+02  0.47787268778E+02  0.19999989667E+02 0.  0.
         12    1    1    2    0    0 -0.16704501189E+02 -0.87921226504E+01  0.39080451506E+02  0.43400731222E+02  0.00000000000E+00 0. -1.
         11    1    3    3    0    0  0.23765649810E+01 -0.96869654353E+00 -0.37157666071E+01  0.45159003357E+01  0.51100000000E-03 0. -1.
        -11    1    3    3    0    0  0.56753042845E+01  0.13358018150E+02 -0.27256541908E+02  0.30879844634E+02  0.51100000000E-03 0.  1.
        -12    1    3    3    0    0  0.86526319233E+01 -0.35971989556E+01 -0.81081429914E+01  0.12391523808E+02  0.00000000000E+00 0.  1.
</event>
<event>
 7    1  0.2733256E-010  0.4778728E+02  0.7816164E-02  0.1312668E+00
        -11   -1    0    0    0    0  0.00000000000E+00  0.00000000000E+00  0.45593999997E+02  0.45594000000E+02  0.51100000000E-03 0.  1.
         11   -1    0    0    0    0 -0.00000000000E+00 -0.00000000000E+00 -0.45593999997E+02  0.45594000000E+02  0.51100000000E-03 0. -1.
    9900012    2    1    2    0    0  0.31126885480E+02 -0.28307223360E+02  0.10650867848E+02  0.47787275583E+02  0.20000020691E+02 0.  0.
         12    1    1    2    0    0 -0.31126885480E+02  0.28307223360E+02 -0.10650867848E+02  0.43400724417E+02  0.00000000000E+00 0. -1.
         11    1    3    3    0    0  0.12659652743E+02 -0.62872515754E+01  0.67612602231E+01  0.15668789998E+02  0.51100000000E-03 0. -1.
        -11    1    3    3    0    0  0.43685358740E+01 -0.88646589467E+01  0.76184036162E+01  0.12478235366E+02  0.51100000000E-03 0.  1.
         12    1    3    3    0    0  0.14098696864E+02 -0.13155312837E+02 -0.37287959911E+01  0.19640250219E+02  0.00000000000E+00 0. -1.
</event>
<event>
 7    1  0.2733256E-010  0.4778727E+02  0.7816164E-02  0.1312668E+00
        -11   -1    0    0    0    0  0.00000000000E+00  0.00000000000E+00  0.45593999997E+02  0.45594000000E+02  0.51100000000E-03 0. -1.
         11   -1    0    0    0    0 -0.00000000000E+00 -0.00000000000E+00 -0.45593999997E+02  0.45594000000E+02  0.51100000000E-03 0.  1.
    9900012    2    1    2    0    0 -0.51170541961E+01  0.43001033841E+02  0.28896672153E+01  0.47787270378E+02  0.19999996963E+02 0.  0.
         12    1    1    2    0    0  0.51170541961E+01 -0.43001033841E+02 -0.28896672153E+01  0.43400729622E+02  0.00000000000E+00 0. -1.
         11    1    3    3    0    0 -0.26363891227E+01  0.71234342966E+01 -0.17255488601E+01  0.77891837129E+01  0.51100000000E-03 0. -1.
        -11    1    3    3    0    0  0.45135997995E+01  0.29171514207E+02  0.64268379604E+00  0.29525630680E+02  0.51100000000E-03 0.  1.
         12    1    3    3    0    0 -0.69942648729E+01  0.67060853374E+01  0.39725322793E+01  0.10472455986E+02  0.00000000000E+00 0. -1.
</event>
<event>
 7    1  0.2733256E-010  0.4778727E+02  0.7816164E-02  0.1312668E+00
        -11   -1    0    0    0    0  0.00000000000E+00  0.00000000000E+00  0.45593999997E+02  0.45594000000E+02  0.51100000000E-03 0.  1.
         11   -1    0    0    0    0 -0.00000000000E+00 -0.00000000000E+00 -0.45593999997E+02  0.45594000000E+02  0.51100000000E-03 0. -1.
    9900012    2    1    2    0    0  0.29703077270E+01  0.10636096718E+02  0.41972299324E+02  0.47787271989E+02  0.20000004305E+02 0.  0.
         12    1    1    2    0    0 -0.29703077270E+01 -0.10636096718E+02 -0.41972299324E+02  0.43400728011E+02  0.00000000000E+00 0. -1.
         11    1    3    3    0    0 -0.21305311150E-01  0.27039779227E+01  0.16372567254E+02  0.16594363780E+02  0.51100000000E-03 0. -1.
        -11    1    3    3    0    0  0.76110499796E+01  0.99151824503E+01  0.20647590083E+02  0.24136319133E+02  0.51100000000E-03 0.  1.
         12    1    3    3    0    0 -0.46194369414E+01 -0.19830636551E+01  0.49521419879E+01  0.70565890757E+01  0.00000000000E+00 0. -1.
</event>
<event>
 7    1  0.2733256E-010  0.4778727E+02  0.7816164E-02  0.1312668E+00
        -11   -1    0    0    0    0  0.00000000000E+00  0.00000000000E+00  0.45593999997E+02  0.45594000000E+02  0.51100000000E-03 0. -1.
         11   -1    0    0    0    0 -0.00000000000E+00 -0.00000000000E+00 -0.45593999997E+02  0.45594000000E+02  0.51100000000E-03 0.  1.
    9900012    2    1    2    0    0 -0.40082229877E+02 -0.16058714797E+02 -0.43767338910E+01  0.47787271061E+02  0.20000000077E+02 0.  0.
         12    1    1    2    0    0  0.40082229877E+02  0.16058714797E+02  0.43767338910E+01  0.43400728939E+02  0.00000000000E+00 0. -1.
         11    1    3    3    0    0 -0.17277261360E+02 -0.33461414589E+01 -0.31318120983E+01  0.17874805455E+02  0.51100000000E-03 0. -1.
        -11    1    3    3    0    0 -0.13012334625E+00  0.25499224826E+01 -0.67852130092E-01  0.25541419156E+01  0.51100000000E-03 0.  1.
        -12    1    3    3    0    0 -0.22674845171E+02 -0.15262495820E+02 -0.11770696626E+01  0.27358323691E+02  0.00000000000E+00 0.  1.
</event>
<event>
 7    1  0.1181863E-009  0.4778727E+02  0.7816164E-02  0.1312668E+00
        -11   -1    0    0    0    0  0.00000000000E+00  0.00000000000E+00  0.45593999997E+02  0.45594000000E+02  0.51100000000E-03 0. -1.
         11   -1    0    0    0    0 -0.00000000000E+00 -0.00000000000E+00 -0.45593999997E+02  0.45594000000E+02  0.51100000000E-03 0.  1.
    9900012    2    1    2    0    0  0.57728368905E+01 -0.40685846389E+02 -0.13962800324E+02  0.47787268035E+02  0.19999986280E+02 0.  0.
         12    1    1    2    0    0 -0.57728368905E+01  0.40685846389E+02  0.13962800324E+02  0.43400731965E+02  0.00000000000E+00 0. -1.
         11    1    3    3    0    0 -0.54081009378E+01 -0.62125062984E+01  0.51465063540E+00  0.82527362613E+01  0.51100000000E-03 0. -1.
        -11    1    3    3    0    0  0.10136294466E+01 -0.12037465441E+02 -0.59688166041E+01  0.13474226909E+02  0.51100000000E-03 0.  1.
         12    1    3    3    0    0  0.10167308382E+02 -0.22435874650E+02 -0.85086343551E+01  0.26060304865E+02  0.00000000000E+00 0. -1.
</event>
<event>
 7    1  0.2733256E-010  0.4778723E+02  0.7816164E-02  0.1312668E+00
        -11   -1    0    0    0    0  0.00000000000E+00  0.00000000000E+00  0.45593999997E+02  0.45594000000E+02  0.51100000000E-03 0.  1.
         11   -1    0    0    0    0 -0.00000000000E+00 -0.00000000000E+00 -0.45593999997E+02  0.45594000000E+02  0.51100000000E-03 0. -1.
    9900012    2    1    2    0    0  0.40473204189E+02  0.10392760581E+02  0.11727609651E+02  0.47787233210E+02  0.19999827495E+02 0.  0.
         12    1    1    2    0    0 -0.40473204189E+02 -0.10392760581E+02 -0.11727609651E+02  0.43400766790E+02  0.00000000000E+00 0. -1.
         11    1    3    3    0    0  0.13541012565E+02 -0.46087438771E+01  0.21339060451E+01  0.14462126285E+02  0.51100000000E-03 0. -1.
        -11    1    3    3    0    0  0.14547793917E+02  0.34338317296E+01  0.39043724647E+01  0.15449065758E+02  0.51100000000E-03 0.  1.
         12    1    3    3    0    0  0.12384397707E+02  0.11567672729E+02  0.56893311415E+01  0.17876041166E+02  0.00000000000E+00 0. -1.
</event>
<event>
 7    1  0.2733256E-010  0.4778727E+02  0.7816164E-02  0.1312668E+00
        -11   -1    0    0    0    0  0.00000000000E+00  0.00000000000E+00  0.45593999997E+02  0.45594000000E+02  0.51100000000E-03 0. -1.
         11   -1    0    0    0    0 -0.00000000000E+00 -0.00000000000E+00 -0.45593999997E+02  0.45594000000E+02  0.51100000000E-03 0.  1.
    9900012    2    1    2    0    0 -0.39103933615E+02  0.85516730974E+01 -0.16774214754E+02  0.47787273998E+02  0.20000013467E+02 0.  0.
         12    1    1    2    0    0  0.39103933615E+02 -0.85516730974E+01  0.16774214754E+02  0.43400726002E+02  0.00000000000E+00 0. -1.
         11    1    3    3    0    0 -0.30772900067E+01  0.15731854825E+00  0.22416027652E+01  0.38104128555E+01  0.51100000000E-03 0. -1.
        -11    1    3    3    0    0 -0.24389311971E+02  0.59943825668E+01 -0.50103883624E+01  0.25610059598E+02  0.51100000000E-03 0.  1.
         12    1    3    3    0    0 -0.11637331636E+02  0.23999719824E+01 -0.14005429156E+02  0.18366801545E+02  0.00000000000E+00 0. -1.
</event>
<event>
 7    1  0.2733256E-010  0.4778727E+02  0.7816164E-02  0.1312668E+00
        -11   -1    0    0    0    0  0.00000000000E+00  0.00000000000E+00  0.45593999997E+02  0.45594000000E+02  0.51100000000E-03 0.  1.
         11   -1    0    0    0    0 -0.00000000000E+00 -0.00000000000E+00 -0.45593999997E+02  0.45594000000E+02  0.51100000000E-03 0. -1.
    9900012    2    1    2    0    0  0.29075529497E+02 -0.15120044061E+01  0.32186188967E+02  0.47787270363E+02  0.19999996892E+02 0.  0.
         12    1    1    2    0    0 -0.29075529497E+02  0.15120044061E+01 -0.32186188967E+02  0.43400729637E+02  0.00000000000E+00 0. -1.
         11    1    3    3    0    0  0.62426469210E+00  0.21154241676E+01 -0.10671064658E+01  0.24501922955E+01  0.51100000000E-03 0. -1.
        -11    1    3    3    0    0  0.13381532292E+01  0.24353619627E+01  0.15461379336E+01  0.31799661516E+01  0.51100000000E-03 0.  1.
        -12    1    3    3    0    0  0.27113111576E+02 -0.60627905364E+01  0.31707157499E+02  0.42157111916E+02  0.00000000000E+00 0.  1.
</event>
<event>
 7    1  0.2733256E-010  0.4778727E+02  0.7816164E-02  0.1312668E+00
        -11   -1    0    0    0    0  0.00000000000E+00  0.00000000000E+00  0.45593999997E+02  0.45594000000E+02  0.51100000000E-03 0. -1.
         11   -1    0    0    0    0 -0.00000000000E+00 -0.00000000000E+00 -0.45593999997E+02  0.45594000000E+02  0.51100000000E-03 0.  1.
    9900012    2    1    2    0    0 -0.41416935913E+02  0.69198093537E+01 -0.10971629772E+02  0.47787274179E+02  0.20000014292E+02 0.  0.
         12    1    1    2    0    0  0.41416935913E+02 -0.69198093537E+01  0.10971629772E+02  0.43400725821E+02  0.00000000000E+00 0. -1.
         11    1    3    3    0    0 -0.62756441128E+01 -0.71169804154E+00 -0.68691858780E+01  0.93314488704E+01  0.51100000000E-03 0. -1.
        -11    1    3    3    0    0 -0.19139720257E+02 -0.24846380426E+01 -0.17615582120E+01  0.19380541925E+02  0.51100000000E-03 0.  1.
         12    1    3    3    0    0 -0.16001571544E+02  0.10116145438E+02 -0.23408856819E+01  0.19075283383E+02  0.00000000000E+00 0. -1.
</event>
<event>
 7    1  0.2733256E-010  0.4778725E+02  0.7816164E-02  0.1312668E+00
        -11   -1    0    0    0    0  0.00000000000E+00  0.00000000000E+00  0.45593999997E+02  0.45594000000E+02  0.51100000000E-03 0. -1.
         11   -1    0    0    0    0 -0.00000000000E+00 -0.00000000000E+00 -0.45593999997E+02  0.45594000000E+02  0.51100000000E-03 0.  1.
    9900012    2    1    2    0    0 -0.46520030863E+01 -0.40009988051E+00 -0.43148855248E+02  0.47787252059E+02  0.19999913436E+02 0.  0.
         12    1    1    2    0    0  0.46520030863E+01  0.40009988051E+00  0.43148855248E+02  0.43400747941E+02  0.00000000000E+00 0. -1.
         11    1    3    3    0    0 -0.29836224523E+01 -0.11579708834E+01 -0.21508537914E+01  0.38560435420E+01  0.51100000000E-03 0. -1.
        -11    1    3    3    0    0 -0.48875841813E+01 -0.12187154803E+01 -0.39575312333E+02  0.39894599798E+02  0.51100000000E-03 0.  1.
        -12    1    3    3    0    0  0.32192035473E+01  0.19765864831E+01 -0.14226891240E+01  0.40366087187E+01  0.00000000000E+00 0.  1.
</event>
<event>
 7    1  0.2733256E-010  0.4778727E+02  0.7816164E-02  0.1312668E+00
        -11   -1    0    0    0    0  0.00000000000E+00  0.00000000000E+00  0.45593999997E+02  0.45594000000E+02  0.51100000000E-03 0. -1.
         11   -1    0    0    0    0 -0.00000000000E+00 -0.00000000000E+00 -0.45593999997E+02  0.45594000000E+02  0.51100000000E-03 0.  1.
    9900012    2    1    2    0    0 -0.30844343197E+02  0.11806836309E+02 -0.28157568124E+02  0.47787268053E+02  0.19999986361E+02 0.  0.
         12    1    1    2    0    0  0.30844343197E+02 -0.11806836309E+02  0.28157568124E+02  0.43400731947E+02  0.00000000000E+00 0. -1.
         11    1    3    3    0    0 -0.23519961590E+01  0.21226263240E+01  0.12637410368E+00  0.31707095607E+01  0.51100000000E-03 0. -1.
        -11    1    3    3    0    0 -0.23811384664E+02  0.12131631820E+02 -0.28824721872E+02  0.39306782131E+02  0.51100000000E-03 0.  1.
        -12    1    3    3    0    0 -0.46809623736E+01 -0.24474218351E+01  0.54077964440E+00  0.53097763612E+01  0.00000000000E+00 0.  1.
</event>
<event>
 7    1  0.2733256E-010  0.4778727E+02  0.7816164E-02  0.1312668E+00
        -11   -1    0    0    0    0  0.00000000000E+00  0.00000000000E+00  0.45593999997E+02  0.45594000000E+02  0.51100000000E-03 0.  1.
         11   -1    0    0    0    0 -0.00000000000E+00 -0.00000000000E+00 -0.45593999997E+02  0.45594000000E+02  0.51100000000E-03 0. -1.
    9900012    2    1    2    0    0 -0.12767940797E+02 -0.34208112795E+02  0.23460786482E+02  0.47787265034E+02  0.19999972598E+02 0.  0.
         12    1    1    2    0    0  0.12767940797E+02  0.34208112795E+02 -0.23460786482E+02  0.43400734966E+02  0.00000000000E+00 0. -1.
         11    1    3    3    0    0 -0.61958427400E+01 -0.55262414497E+01  0.39556771781E+01  0.91964772612E+01  0.51100000000E-03 0. -1.
        -11    1    3    3    0    0  0.24381611158E+01 -0.54621029320E+01 -0.13194270612E+01  0.61253641604E+01  0.51100000000E-03 0.  1.
        -12    1    3    3    0    0 -0.90102591730E+01 -0.23219768414E+02  0.20824536365E+02  0.32465423613E+02  0.00000000000E+00 0.  1.
</event>
<event>
 7    1  0.2733256E-010  0.4778727E+02  0.7816164E-02  0.1312668E+00
        -11   -1    0    0    0    0  0.00000000000E+00  0.00000000000E+00  0.45593999997E+02  0.45594000000E+02  0.51100000000E-03 0.  1.
         11   -1    0    0    0    0 -0.00000000000E+00 -0.00000000000E+00 -0.45593999997E+02  0.45594000000E+02  0.51100000000E-03 0. -1.
    9900012    2    1    2    0    0 -0.11573462769E+02 -0.31393338675E+02  0.27643023420E+02  0.47787268469E+02  0.19999988256E+02 0.  0.
         12    1    1    2    0    0  0.11573462769E+02  0.31393338675E+02 -0.27643023420E+02  0.43400731531E+02  0.00000000000E+00 0. -1.
         11    1    3    3    0    0 -0.61700608163E+00 -0.68567807433E+01  0.16146885054E+01  0.70713052471E+01  0.51100000000E-03 0. -1.
        -11    1    3    3    0    0 -0.48965824875E+00 -0.69696810626E+01 -0.74535641118E+00  0.70265052306E+01  0.51100000000E-03 0.  1.
        -12    1    3    3    0    0 -0.10466798439E+02 -0.17566876869E+02  0.26773691326E+02  0.33689457991E+02  0.00000000000E+00 0.  1.
</event>
<event>
 7    1  0.2733256E-010  0.4778727E+02  0.7816164E-02  0.1312668E+00
        -11   -1    0    0    0    0  0.00000000000E+00  0.00000000000E+00  0.45593999997E+02  0.45594000000E+02  0.51100000000E-03 0.  1.
         11   -1    0    0    0    0 -0.00000000000E+00 -0.00000000000E+00 -0.45593999997E+02  0.45594000000E+02  0.51100000000E-03 0. -1.
    9900012    2    1    2    0    0  0.21744029311E+02  0.42437837909E+01  0.37320383058E+02  0.47787268403E+02  0.19999987957E+02 0.  0.
         12    1    1    2    0    0 -0.21744029311E+02 -0.42437837909E+01 -0.37320383058E+02  0.43400731597E+02  0.00000000000E+00 0. -1.
         11    1    3    3    0    0  0.59946105117E+01 -0.45876057059E+01  0.60794706347E+01  0.96923394884E+01  0.51100000000E-03 0. -1.
        -11    1    3    3    0    0  0.13229482873E+02  0.13838507043E+01  0.14982204405E+02  0.20034987121E+02  0.51100000000E-03 0.  1.
         12    1    3    3    0    0  0.25199359262E+01  0.74475387926E+01  0.16258708019E+02  0.18059941793E+02  0.00000000000E+00 0. -1.
</event>
<event>
 7    1  0.2733256E-010  0.4778727E+02  0.7816164E-02  0.1312668E+00
        -11   -1    0    0    0    0  0.00000000000E+00  0.00000000000E+00  0.45593999997E+02  0.45594000000E+02  0.51100000000E-03 0.  1.
         11   -1    0    0    0    0 -0.00000000000E+00 -0.00000000000E+00 -0.45593999997E+02  0.45594000000E+02  0.51100000000E-03 0. -1.
    9900012    2    1    2    0    0 -0.10396564148E+02 -0.38679272894E+02  0.16716718944E+02  0.47787269707E+02  0.19999993904E+02 0.  0.
         12    1    1    2    0    0  0.10396564148E+02  0.38679272894E+02 -0.16716718944E+02  0.43400730293E+02  0.00000000000E+00 0. -1.
         11    1    3    3    0    0 -0.57936372901E+01 -0.27287712104E+01  0.13882227927E+00  0.64055988989E+01  0.51100000000E-03 0. -1.
        -11    1    3    3    0    0 -0.68463218124E+01 -0.20011126380E+02  0.55374851039E+01  0.21862777566E+02  0.51100000000E-03 0.  1.
         12    1    3    3    0    0  0.22433949545E+01 -0.15939375303E+02  0.11040411560E+02  0.19518893242E+02  0.00000000000E+00 0. -1.
</event>
<event>
 7    1  0.2733256E-010  0.4778727E+02  0.7816164E-02  0.1312668E+00
        -11   -1    0    0    0    0  0.00000000000E+00  0.00000000000E+00  0.45593999997E+02  0.45594000000E+02  0.51100000000E-03 0.  1.
         11   -1    0    0    0    0 -0.00000000000E+00 -0.00000000000E+00 -0.45593999997E+02  0.45594000000E+02  0.51100000000E-03 0. -1.
    9900012    2    1    2    0    0  0.43154719142E+02  0.24259817880E+01 -0.39253061957E+01  0.47787271889E+02  0.20000003849E+02 0.  0.
         12    1    1    2    0    0 -0.43154719142E+02 -0.24259817880E+01  0.39253061957E+01  0.43400728111E+02  0.00000000000E+00 0. -1.
         11    1    3    3    0    0  0.29104783105E+01  0.22899891486E+01  0.77655150715E+00  0.37839089314E+01  0.51100000000E-03 0. -1.
        -11    1    3    3    0    0  0.68274420697E+01 -0.63996777124E+01  0.12373994856E+01  0.94393324862E+01  0.51100000000E-03 0.  1.
        -12    1    3    3    0    0  0.33416798762E+02  0.65356703518E+01 -0.59392571884E+01  0.34564030471E+02  0.00000000000E+00 0.  1.
</event>
<event>
 7    1  0.2733256E-010  0.4778727E+02  0.7816164E-02  0.1312668E+00
        -11   -1    0    0    0    0  0.00000000000E+00  0.00000000000E+00  0.45593999997E+02  0.45594000000E+02  0.51100000000E-03 0.  1.
         11   -1    0    0    0    0 -0.00000000000E+00 -0.00000000000E+00 -0.45593999997E+02  0.45594000000E+02  0.51100000000E-03 0. -1.
    9900012    2    1    2    0    0  0.20621514309E+02  0.23645603290E+02  0.29987699914E+02  0.47787267823E+02  0.19999985312E+02 0.  0.
         12    1    1    2    0    0 -0.20621514309E+02 -0.23645603290E+02 -0.29987699914E+02  0.43400732177E+02  0.00000000000E+00 0. -1.
         11    1    3    3    0    0  0.93714150811E+00  0.49227229973E+01  0.18028521392E+01  0.53255715197E+01  0.51100000000E-03 0. -1.
        -11    1    3    3    0    0  0.17175350473E+02  0.21563714733E+02  0.26738647138E+02  0.38404969834E+02  0.51100000000E-03 0.  1.
         12    1    3    3    0    0  0.25090223287E+01 -0.28408344403E+01  0.14462006371E+01  0.40567264692E+01  0.00000000000E+00 0. -1.
</event>
<event>
 7    1  0.2733256E-010  0.4778721E+02  0.7816164E-02  0.1312668E+00
        -11   -1    0    0    0    0  0.00000000000E+00  0.00000000000E+00  0.45593999997E+02  0.45594000000E+02  0.51100000000E-03 0.  1.
         11   -1    0    0    0    0 -0.00000000000E+00 -0.00000000000E+00 -0.45593999997E+02  0.45594000000E+02  0.51100000000E-03 0. -1.
    9900012    2    1    2    0    0 -0.58789856468E+00  0.30188785268E+02  0.31175629166E+02  0.47787213895E+02  0.19999739429E+02 0.  0.
         12    1    1    2    0    0  0.58789856468E+00 -0.30188785268E+02 -0.31175629166E+02  0.43400786105E+02  0.00000000000E+00 0. -1.
         11    1    3    3    0    0 -0.17136221871E+01  0.14990444769E+02  0.10618755163E+02  0.18450146255E+02  0.51100000000E-03 0.  1.
        -11    1    3    3    0    0  0.27912308524E+01  0.10684991529E+02  0.34549569098E+01  0.11571375941E+02  0.51100000000E-03 0. -1.
         12    1    3    3    0    0 -0.16655072300E+01  0.45133489695E+01  0.17101917094E+02  0.17765691699E+02  0.00000000000E+00 0. -1.
</event>
<event>
 7    1  0.2733256E-010  0.4778727E+02  0.7816164E-02  0.1312668E+00
        -11   -1    0    0    0    0  0.00000000000E+00  0.00000000000E+00  0.45593999997E+02  0.45594000000E+02  0.51100000000E-03 0.  1.
         11   -1    0    0    0    0 -0.00000000000E+00 -0.00000000000E+00 -0.45593999997E+02  0.45594000000E+02  0.51100000000E-03 0. -1.
    9900012    2    1    2    0    0  0.92182342944E+01  0.11084437388E+02  0.40936325865E+02  0.47787269925E+02  0.19999994897E+02 0.  0.
         12    1    1    2    0    0 -0.92182342944E+01 -0.11084437388E+02 -0.40936325865E+02  0.43400730075E+02  0.00000000000E+00 0. -1.
         11    1    3    3    0    0 -0.25414665679E+01  0.38824405716E+01  0.42988887894E+01  0.63255705033E+01  0.51100000000E-03 0. -1.
        -11    1    3    3    0    0 -0.46995988402E+00 -0.16604740715E+01  0.14858057756E+02  0.14957938260E+02  0.51100000000E-03 0.  1.
         12    1    3    3    0    0  0.12229660746E+02  0.88624708882E+01  0.21779379319E+02  0.26503761162E+02  0.00000000000E+00 0. -1.
</event>
<event>
 7    1  0.2733256E-010  0.4778727E+02  0.7816164E-02  0.1312668E+00
        -11   -1    0    0    0    0  0.00000000000E+00  0.00000000000E+00  0.45593999997E+02  0.45594000000E+02  0.51100000000E-03 0. -1.
         11   -1    0    0    0    0 -0.00000000000E+00 -0.00000000000E+00 -0.45593999997E+02  0.45594000000E+02  0.51100000000E-03 0.  1.
    9900012    2    1    2    0    0  0.33844641603E+02 -0.37038789201E+01  0.26915512401E+02  0.47787270834E+02  0.19999999041E+02 0.  0.
         12    1    1    2    0    0 -0.33844641603E+02  0.37038789201E+01 -0.26915512401E+02  0.43400729166E+02  0.00000000000E+00 0. -1.
         11    1    3    3    0    0  0.39732955623E+01 -0.61699356864E+01  0.33772086498E+01  0.80784108911E+01  0.51100000000E-03 0.  1.
        -11    1    3    3    0    0  0.24954722147E+02  0.27526793519E+01  0.24038356983E+02  0.34758567401E+02  0.51100000000E-03 0. -1.
         12    1    3    3    0    0  0.49166238934E+01 -0.28662258565E+00 -0.50005323174E+00  0.49502925418E+01  0.00000000000E+00 0. -1.
</event>
<event>
 7    1  0.2733256E-010  0.4778728E+02  0.7816164E-02  0.1312668E+00
        -11   -1    0    0    0    0  0.00000000000E+00  0.00000000000E+00  0.45593999997E+02  0.45594000000E+02  0.51100000000E-03 0.  1.
         11   -1    0    0    0    0 -0.00000000000E+00 -0.00000000000E+00 -0.45593999997E+02  0.45594000000E+02  0.51100000000E-03 0. -1.
    9900012    2    1    2    0    0  0.22030016914E+02  0.10448514001E+02  0.35904448132E+02  0.47787280124E+02  0.20000041397E+02 0.  0.
         12    1    1    2    0    0 -0.22030016914E+02 -0.10448514001E+02 -0.35904448132E+02  0.43400719876E+02  0.00000000000E+00 0. -1.
         11    1    3    3    0    0  0.19939908126E+02  0.25034473276E+01  0.18880087920E+02  0.27573989641E+02  0.51100000000E-03 0. -1.
        -11    1    3    3    0    0  0.45364795116E+01  0.60395332106E+01  0.13848849661E+02  0.15774861170E+02  0.51100000000E-03 0.  1.
         12    1    3    3    0    0 -0.24463707238E+01  0.19055334632E+01  0.31755105517E+01  0.44384293125E+01  0.00000000000E+00 0. -1.
</event>
<event>
 7    1  0.2733256E-010  0.4778727E+02  0.7816164E-02  0.1312668E+00
        -11   -1    0    0    0    0  0.00000000000E+00  0.00000000000E+00  0.45593999997E+02  0.45594000000E+02  0.51100000000E-03 0.  1.
         11   -1    0    0    0    0 -0.00000000000E+00 -0.00000000000E+00 -0.45593999997E+02  0.45594000000E+02  0.51100000000E-03 0. -1.
    9900012    2    1    2    0    0 -0.90077646387E+01 -0.35359878427E+02  0.23498136786E+02  0.47787271220E+02  0.20000000802E+02 0.  0.
         12    1    1    2    0    0  0.90077646387E+01  0.35359878427E+02 -0.23498136786E+02  0.43400728780E+02  0.00000000000E+00 0. -1.
         11    1    3    3    0    0  0.26159217395E+01 -0.20740554067E+02  0.16824025907E+02  0.26833961271E+02  0.51100000000E-03 0. -1.
        -11    1    3    3    0    0  0.29750358068E+00 -0.61392066260E+00  0.18021544060E+01  0.19269581533E+01  0.51100000000E-03 0.  1.
        -12    1    3    3    0    0 -0.11921189959E+02 -0.14005403698E+02  0.48719564735E+01  0.19026351796E+02  0.00000000000E+00 0.  1.
</event>
<event>
 7    1  0.2733256E-010  0.4778728E+02  0.7816164E-02  0.1312668E+00
        -11   -1    0    0    0    0  0.00000000000E+00  0.00000000000E+00  0.45593999997E+02  0.45594000000E+02  0.51100000000E-03 0.  1.
         11   -1    0    0    0    0 -0.00000000000E+00 -0.00000000000E+00 -0.45593999997E+02  0.45594000000E+02  0.51100000000E-03 0. -1.
    9900012    2    1    2    0    0 -0.36887879307E+02 -0.15234665584E+02  0.17053204897E+02  0.47787280277E+02  0.20000042095E+02 0.  0.
         12    1    1    2    0    0  0.36887879307E+02  0.15234665584E+02 -0.17053204897E+02  0.43400719723E+02  0.00000000000E+00 0. -1.
         11    1    3    3    0    0 -0.69105847174E+01 -0.41112132217E+01  0.22820353879E+01  0.83585848721E+01  0.51100000000E-03 0. -1.
        -11    1    3    3    0    0 -0.97406743969E+01 -0.44368671558E+01  0.14615130314E+02  0.18115423324E+02  0.51100000000E-03 0.  1.
        -12    1    3    3    0    0 -0.20236620193E+02 -0.66865852062E+01  0.15603919467E+00  0.21313272081E+02  0.00000000000E+00 0.  1.
</event>
<event>
 7    1  0.2733256E-010  0.4778727E+02  0.7816164E-02  0.1312668E+00
        -11   -1    0    0    0    0  0.00000000000E+00  0.00000000000E+00  0.45593999997E+02  0.45594000000E+02  0.51100000000E-03 0.  1.
         11   -1    0    0    0    0 -0.00000000000E+00 -0.00000000000E+00 -0.45593999997E+02  0.45594000000E+02  0.51100000000E-03 0. -1.
    9900012    2    1    2    0    0 -0.57942428869E+01 -0.32518625418E+02  0.28152958206E+02  0.47787270680E+02  0.19999998340E+02 0.  0.
         12    1    1    2    0    0  0.57942428869E+01  0.32518625418E+02 -0.28152958206E+02  0.43400729320E+02  0.00000000000E+00 0. -1.
         11    1    3    3    0    0 -0.55923559914E+01 -0.41424764184E+01  0.83535227307E+01  0.10872713492E+02  0.51100000000E-03 0. -1.
        -11    1    3    3    0    0 -0.98930916612E+00 -0.15679309833E+02  0.18279095955E+02  0.24102797320E+02  0.51100000000E-03 0.  1.
        -12    1    3    3    0    0  0.78742227060E+00 -0.12696839167E+02  0.15203395209E+01  0.12811759868E+02  0.00000000000E+00 0.  1.
</event>
<event>
 7    1  0.2733256E-010  0.4778727E+02  0.7816164E-02  0.1312668E+00
        -11   -1    0    0    0    0  0.00000000000E+00  0.00000000000E+00  0.45593999997E+02  0.45594000000E+02  0.51100000000E-03 0.  1.
         11   -1    0    0    0    0 -0.00000000000E+00 -0.00000000000E+00 -0.45593999997E+02  0.45594000000E+02  0.51100000000E-03 0. -1.
    9900012    2    1    2    0    0 -0.23753860224E+02  0.24182271617E+02  0.27103412687E+02  0.47787272871E+02  0.20000008327E+02 0.  0.
         12    1    1    2    0    0  0.23753860224E+02 -0.24182271617E+02 -0.27103412687E+02  0.43400727129E+02  0.00000000000E+00 0. -1.
         11    1    3    3    0    0 -0.42108665919E+01  0.79876068247E+01  0.50333849382E+01  0.10337708858E+02  0.51100000000E-03 0. -1.
        -11    1    3    3    0    0 -0.10499432975E+02  0.18034824822E+02  0.13494315191E+02  0.24851348895E+02  0.51100000000E-03 0.  1.
         12    1    3    3    0    0 -0.90435606567E+01 -0.18401600297E+01  0.85757125574E+01  0.12598215118E+02  0.00000000000E+00 0. -1.
</event>
<event>
 7    1  0.2733256E-010  0.4778727E+02  0.7816164E-02  0.1312668E+00
        -11   -1    0    0    0    0  0.00000000000E+00  0.00000000000E+00  0.45593999997E+02  0.45594000000E+02  0.51100000000E-03 0.  1.
         11   -1    0    0    0    0 -0.00000000000E+00 -0.00000000000E+00 -0.45593999997E+02  0.45594000000E+02  0.51100000000E-03 0. -1.
    9900012    2    1    2    0    0  0.64669268722E+01 -0.40629309802E+02  0.13822481500E+02  0.47787274741E+02  0.20000016854E+02 0.  0.
         12    1    1    2    0    0 -0.64669268722E+01  0.40629309802E+02 -0.13822481500E+02  0.43400725259E+02  0.00000000000E+00 0. -1.
         11    1    3    3    0    0  0.44066415544E+01 -0.15430470707E+01  0.13372962230E+01  0.48567319774E+01  0.51100000000E-03 0.  1.
        -11    1    3    3    0    0 -0.22893936042E+01 -0.30684908719E+01  0.42654267648E+01  0.57315639273E+01  0.51100000000E-03 0. -1.
        -12    1    3    3    0    0  0.43496789220E+01 -0.36017771860E+02  0.82197585122E+01  0.37198978836E+02  0.00000000000E+00 0.  1.
</event>
<event>
 7    1  0.2733256E-010  0.4778727E+02  0.7816164E-02  0.1312668E+00
        -11   -1    0    0    0    0  0.00000000000E+00  0.00000000000E+00  0.45593999997E+02  0.45594000000E+02  0.51100000000E-03 0. -1.
         11   -1    0    0    0    0 -0.00000000000E+00 -0.00000000000E+00 -0.45593999997E+02  0.45594000000E+02  0.51100000000E-03 0.  1.
    9900012    2    1    2    0    0  0.40041015012E+02 -0.16370074504E+02 -0.35158130558E+01  0.47787272311E+02  0.20000005776E+02 0.  0.
         12    1    1    2    0    0 -0.40041015012E+02  0.16370074504E+02  0.35158130558E+01  0.43400727689E+02  0.00000000000E+00 0. -1.
         11    1    3    3    0    0  0.13810684511E+02 -0.13329295873E+02 -0.12460748984E+01  0.19234288082E+02  0.51100000000E-03 0. -1.
        -11    1    3    3    0    0  0.20490531763E+02 -0.66110450405E+01 -0.37908114613E+00  0.21533961810E+02  0.51100000000E-03 0.  1.
         12    1    3    3    0    0  0.57397987382E+01  0.35702664086E+01 -0.18906570113E+01  0.70190224189E+01  0.00000000000E+00 0. -1.
</event>
<event>
 7    1  0.2733256E-010  0.4778727E+02  0.7816164E-02  0.1312668E+00
        -11   -1    0    0    0    0  0.00000000000E+00  0.00000000000E+00  0.45593999997E+02  0.45594000000E+02  0.51100000000E-03 0. -1.
         11   -1    0    0    0    0 -0.00000000000E+00 -0.00000000000E+00 -0.45593999997E+02  0.45594000000E+02  0.51100000000E-03 0.  1.
    9900012    2    1    2    0    0 -0.30590300093E+02  0.28732756568E+02 -0.11058270851E+02  0.47787272887E+02  0.20000008400E+02 0.  0.
         12    1    1    2    0    0  0.30590300093E+02 -0.28732756568E+02  0.11058270851E+02  0.43400727113E+02  0.00000000000E+00 0. -1.
         11    1    3    3    0    0 -0.41893940625E+01  0.88913477533E+01 -0.30778909229E+01  0.10299538838E+02  0.51100000000E-03 0. -1.
        -11    1    3    3    0    0 -0.23951000757E+01  0.10339799038E+02 -0.41093567176E+01  0.11381333903E+02  0.51100000000E-03 0.  1.
         12    1    3    3    0    0 -0.24005805954E+02  0.95016097765E+01 -0.38710232102E+01  0.26106400146E+02  0.00000000000E+00 0. -1.
</event>
<event>
 7    1  0.2733256E-010  0.4778727E+02  0.7816164E-02  0.1312668E+00
        -11   -1    0    0    0    0  0.00000000000E+00  0.00000000000E+00  0.45593999997E+02  0.45594000000E+02  0.51100000000E-03 0.  1.
         11   -1    0    0    0    0 -0.00000000000E+00 -0.00000000000E+00 -0.45593999997E+02  0.45594000000E+02  0.51100000000E-03 0. -1.
    9900012    2    1    2    0    0 -0.42793319532E+02  0.72041704211E+01  0.67436233117E+00  0.47787273825E+02  0.20000012675E+02 0.  0.
         12    1    1    2    0    0  0.42793319532E+02 -0.72041704211E+01 -0.67436233117E+00  0.43400726175E+02  0.00000000000E+00 0. -1.
         11    1    3    3    0    0 -0.17940917225E+02  0.40597481405E+01 -0.80756620322E+01  0.20089160843E+02  0.51100000000E-03 0. -1.
        -11    1    3    3    0    0 -0.40230005591E+01  0.31115623631E+01 -0.49760866899E-01  0.50861409972E+01  0.51100000000E-03 0.  1.
        -12    1    3    3    0    0 -0.20829401748E+02  0.32859917407E-01  0.87997852302E+01  0.22611971985E+02  0.00000000000E+00 0.  1.
</event>
<event>
 7    1  0.2733256E-010  0.4778728E+02  0.7816164E-02  0.1312668E+00
        -11   -1    0    0    0    0  0.00000000000E+00  0.00000000000E+00  0.45593999997E+02  0.45594000000E+02  0.51100000000E-03 0. -1.
         11   -1    0    0    0    0 -0.00000000000E+00 -0.00000000000E+00 -0.45593999997E+02  0.45594000000E+02  0.51100000000E-03 0.  1.
    9900012    2    1    2    0    0 -0.19649345294E+02 -0.30616250784E+02 -0.23667937797E+02  0.47787275788E+02  0.20000021627E+02 0.  0.
         12    1    1    2    0    0  0.19649345294E+02  0.30616250784E+02  0.23667937797E+02  0.43400724212E+02  0.00000000000E+00 0. -1.
         11    1    3    3    0    0 -0.32649437725E+01 -0.51649727893E-01  0.20254150961E+00  0.32716278603E+01  0.51100000000E-03 0. -1.
        -11    1    3    3    0    0 -0.24865627286E+01 -0.53600465998E+01  0.15567819778E+01  0.61103734864E+01  0.51100000000E-03 0.  1.
        -12    1    3    3    0    0 -0.13897838793E+02 -0.25204554456E+02 -0.25427261285E+02  0.38405274441E+02  0.00000000000E+00 0.  1.
</event>
<event>
 7    1  0.2733256E-010  0.4778727E+02  0.7816164E-02  0.1312668E+00
        -11   -1    0    0    0    0  0.00000000000E+00  0.00000000000E+00  0.45593999997E+02  0.45594000000E+02  0.51100000000E-03 0. -1.
         11   -1    0    0    0    0 -0.00000000000E+00 -0.00000000000E+00 -0.45593999997E+02  0.45594000000E+02  0.51100000000E-03 0.  1.
    9900012    2    1    2    0    0  0.16045601543E+02  0.25473065039E+01 -0.40245162157E+02  0.47787272168E+02  0.20000005123E+02 0.  0.
         12    1    1    2    0    0 -0.16045601543E+02 -0.25473065039E+01  0.40245162157E+02  0.43400727832E+02  0.00000000000E+00 0. -1.
         11    1    3    3    0    0 -0.59602857586E+00 -0.38336781526E+00 -0.47073607809E+01  0.47604061516E+01  0.51100000000E-03 0. -1.
        -11    1    3    3    0    0  0.17061811520E+02 -0.13725979017E+01 -0.34600206088E+02  0.38602638497E+02  0.51100000000E-03 0.  1.
        -12    1    3    3    0    0 -0.42018140141E+00  0.43032722209E+01 -0.93759528804E+00  0.44242275192E+01  0.00000000000E+00 0.  1.
</event>
<event>
 7    1  0.2733256E-010  0.4778727E+02  0.7816164E-02  0.1312668E+00
        -11   -1    0    0    0    0  0.00000000000E+00  0.00000000000E+00  0.45593999997E+02  0.45594000000E+02  0.51100000000E-03 0.  1.
         11   -1    0    0    0    0 -0.00000000000E+00 -0.00000000000E+00 -0.45593999997E+02  0.45594000000E+02  0.51100000000E-03 0. -1.
    9900012    2    1    2    0    0 -0.26824400277E+02  0.25534076780E+02  0.22629308328E+02  0.47787272787E+02  0.20000007944E+02 0.  0.
         12    1    1    2    0    0  0.26824400277E+02 -0.25534076780E+02 -0.22629308328E+02  0.43400727213E+02  0.00000000000E+00 0. -1.
         11    1    3    3    0    0 -0.19809133449E+01  0.66896176126E+01  0.52364204928E+01  0.87232506167E+01  0.51100000000E-03 0. -1.
        -11    1    3    3    0    0 -0.18397652749E+02  0.21195914358E+02  0.14793685362E+02  0.31726858323E+02  0.51100000000E-03 0.  1.
        -12    1    3    3    0    0 -0.64458341830E+01 -0.23514551909E+01  0.25992024732E+01  0.73371638476E+01  0.00000000000E+00 0.  1.
</event>
<event>
 7    1  0.2733256E-010  0.4778726E+02  0.7816164E-02  0.1312668E+00
        -11   -1    0    0    0    0  0.00000000000E+00  0.00000000000E+00  0.45593999997E+02  0.45594000000E+02  0.51100000000E-03 0.  1.
         11   -1    0    0    0    0 -0.00000000000E+00 -0.00000000000E+00 -0.45593999997E+02  0.45594000000E+02  0.51100000000E-03 0. -1.
    9900012    2    1    2    0    0 -0.33583982150E+02  0.33703809339E+00  0.27488672759E+02  0.47787255976E+02  0.19999931299E+02 0.  0.
         12    1    1    2    0    0  0.33583982150E+02 -0.33703809339E+00 -0.27488672759E+02  0.43400744024E+02  0.00000000000E+00 0. -1.
         11    1    3    3    0    0 -0.14882336600E+02 -0.18620368535E+01  0.34720406598E+01  0.15395005376E+02  0.51100000000E-03 0. -1.
        -11    1    3    3    0    0 -0.18480041212E-02  0.24342387930E+01  0.76195193967E+00  0.25507043999E+01  0.51100000000E-03 0.  1.
        -12    1    3    3    0    0 -0.18699797546E+02 -0.23516384609E+00  0.23254680160E+02  0.29841546200E+02  0.00000000000E+00 0.  1.
</event>
<event>
 7    1  0.2733256E-010  0.4778727E+02  0.7816164E-02  0.1312668E+00
        -11   -1    0    0    0    0  0.00000000000E+00  0.00000000000E+00  0.45593999997E+02  0.45594000000E+02  0.51100000000E-03 0.  1.
         11   -1    0    0    0    0 -0.00000000000E+00 -0.00000000000E+00 -0.45593999997E+02  0.45594000000E+02  0.51100000000E-03 0. -1.
    9900012    2    1    2    0    0  0.55374567903E+01  0.15745108713E+02  0.40063094658E+02  0.47787269250E+02  0.19999991816E+02 0.  0.
         12    1    1    2    0    0 -0.55374567903E+01 -0.15745108713E+02 -0.40063094658E+02  0.43400730750E+02  0.00000000000E+00 0. -1.
         11    1    3    3    0    0  0.13354967872E+01  0.52546277475E+01  0.36861969796E+01  0.65561202603E+01  0.51100000000E-03 0. -1.
        -11    1    3    3    0    0 -0.27958300667E+01  0.11145414011E+02  0.28185362352E+02  0.30437666967E+02  0.51100000000E-03 0.  1.
        -12    1    3    3    0    0  0.69977900698E+01 -0.65493304540E+00  0.81915353267E+01  0.10793482022E+02  0.00000000000E+00 0.  1.
</event>
<event>
 7    1  0.2733256E-010  0.4778728E+02  0.7816164E-02  0.1312668E+00
        -11   -1    0    0    0    0  0.00000000000E+00  0.00000000000E+00  0.45593999997E+02  0.45594000000E+02  0.51100000000E-03 0.  1.
         11   -1    0    0    0    0 -0.00000000000E+00 -0.00000000000E+00 -0.45593999997E+02  0.45594000000E+02  0.51100000000E-03 0. -1.
    9900012    2    1    2    0    0  0.30998478723E+02 -0.18560796067E+02  0.24046075766E+02  0.47787278883E+02  0.20000035740E+02 0.  0.
         12    1    1    2    0    0 -0.30998478723E+02  0.18560796067E+02 -0.24046075766E+02  0.43400721117E+02  0.00000000000E+00 0. -1.
         11    1    3    3    0    0  0.13584313486E+02 -0.11382903320E+02  0.81092729897E+01  0.19490109532E+02  0.51100000000E-03 0. -1.
        -11    1    3    3    0    0  0.16372768576E+02 -0.98544614829E+01  0.16641406539E+02  0.25339975806E+02  0.51100000000E-03 0.  1.
         12    1    3    3    0    0  0.10413966602E+01  0.26765687362E+01 -0.70460376314E+00  0.29571935457E+01  0.00000000000E+00 0. -1.
</event>
<event>
 7    1  0.2733256E-010  0.4778727E+02  0.7816164E-02  0.1312668E+00
        -11   -1    0    0    0    0  0.00000000000E+00  0.00000000000E+00  0.45593999997E+02  0.45594000000E+02  0.51100000000E-03 0.  1.
         11   -1    0    0    0    0 -0.00000000000E+00 -0.00000000000E+00 -0.45593999997E+02  0.45594000000E+02  0.51100000000E-03 0. -1.
    9900012    2    1    2    0    0  0.40100825371E+02  0.13471306963E+00 -0.16599065718E+02  0.47787270447E+02  0.19999997276E+02 0.  0.
         12    1    1    2    0    0 -0.40100825371E+02 -0.13471306963E+00  0.16599065718E+02  0.43400729553E+02  0.00000000000E+00 0. -1.
         11    1    3    3    0    0 -0.15386422646E+00 -0.27586661375E+01  0.93181470832E+00  0.29158518429E+01  0.51100000000E-03 0. -1.
        -11    1    3    3    0    0  0.14986143578E+02 -0.28876866790E+01 -0.48461762997E+01  0.16012765491E+02  0.51100000000E-03 0.  1.
         12    1    3    3    0    0  0.25268546019E+02  0.57810658861E+01 -0.12684704127E+02  0.28858653113E+02  0.00000000000E+00 0. -1.
</event>
<event>
 7    1  0.2733256E-010  0.4778727E+02  0.7816164E-02  0.1312668E+00
        -11   -1    0    0    0    0  0.00000000000E+00  0.00000000000E+00  0.45593999997E+02  0.45594000000E+02  0.51100000000E-03 0.  1.
         11   -1    0    0    0    0 -0.00000000000E+00 -0.00000000000E+00 -0.45593999997E+02  0.45594000000E+02  0.51100000000E-03 0. -1.
    9900012    2    1    2    0    0  0.17139135080E+02  0.22496503228E+02  0.32920824235E+02  0.47787271008E+02  0.19999999832E+02 0.  0.
         12    1    1    2    0    0 -0.17139135080E+02 -0.22496503228E+02 -0.32920824235E+02  0.43400728992E+02  0.00000000000E+00 0. -1.
         11    1    3    3    0    0  0.39934851284E+01  0.15800545864E+02  0.13759354576E+02  0.21328971182E+02  0.51100000000E-03 0. -1.
        -11    1    3    3    0    0  0.36474826180E+00 -0.84477497834E+00  0.75763241407E+01  0.76319967116E+01  0.51100000000E-03 0.  1.
         12    1    3    3    0    0  0.12780901690E+02  0.75407323418E+01  0.11585145519E+02  0.18826303114E+02  0.00000000000E+00 0. -1.
</event>
<event>
 7    1  0.2733256E-010  0.4778727E+02  0.7816164E-02  0.1312668E+00
        -11   -1    0    0    0    0  0.00000000000E+00  0.00000000000E+00  0.45593999997E+02  0.45594000000E+02  0.51100000000E-03 0.  1.
         11   -1    0    0    0    0 -0.00000000000E+00 -0.00000000000E+00 -0.45593999997E+02  0.45594000000E+02  0.51100000000E-03 0. -1.
    9900012    2    1    2    0    0  0.13359878698E+02  0.36756611329E+02  0.18817242359E+02  0.47787269070E+02  0.19999990999E+02 0.  0.
         12    1    1    2    0    0 -0.13359878698E+02 -0.36756611329E+02 -0.18817242359E+02  0.43400730930E+02  0.00000000000E+00 0. -1.
         11    1    3    3    0    0  0.20765084269E+01  0.14810562571E+02  0.44918976703E+01  0.15615434540E+02  0.51100000000E-03 0. -1.
        -11    1    3    3    0    0  0.73400958107E+01  0.22628172101E+02  0.14986218030E+02  0.28115794676E+02  0.51100000000E-03 0.  1.
         12    1    3    3    0    0  0.39432744607E+01 -0.68212334310E+00 -0.66087334165E+00  0.40560398545E+01  0.00000000000E+00 0. -1.
</event>
<event>
 7    1  0.2733256E-010  0.4778729E+02  0.7816164E-02  0.1312668E+00
        -11   -1    0    0    0    0  0.00000000000E+00  0.00000000000E+00  0.45593999997E+02  0.45594000000E+02  0.51100000000E-03 0. -1.
         11   -1    0    0    0    0 -0.00000000000E+00 -0.00000000000E+00 -0.45593999997E+02  0.45594000000E+02  0.51100000000E-03 0.  1.
    9900012    2    1    2    0    0 -0.27301057051E+02 -0.29752151204E+02 -0.15908597277E+02  0.47787289353E+02  0.20000083474E+02 0.  0.
         12    1    1    2    0    0  0.27301057051E+02  0.29752151204E+02  0.15908597277E+02  0.43400710647E+02  0.00000000000E+00 0. -1.
         11    1    3    3    0    0 -0.31437841875E+01 -0.11624692806E+02 -0.43378820796E+00  0.12050105159E+02  0.51100000000E-03 0. -1.
        -11    1    3    3    0    0 -0.14701418623E+02 -0.47604829531E+01 -0.47600606717E+01  0.16169480058E+02  0.51100000000E-03 0.  1.
         12    1    3    3    0    0 -0.94558542405E+01 -0.13366975445E+02 -0.10714748397E+02  0.19567704136E+02  0.00000000000E+00 0. -1.
</event>
<event>
 7    1  0.2733256E-010  0.4778727E+02  0.7816164E-02  0.1312668E+00
        -11   -1    0    0    0    0  0.00000000000E+00  0.00000000000E+00  0.45593999997E+02  0.45594000000E+02  0.51100000000E-03 0. -1.
         11   -1    0    0    0    0 -0.00000000000E+00 -0.00000000000E+00 -0.45593999997E+02  0.45594000000E+02  0.51100000000E-03 0.  1.
    9900012    2    1    2    0    0  0.42593084853E+01  0.43087038916E+02 -0.29981379919E+01  0.47787268869E+02  0.19999990081E+02 0.  0.
         12    1    1    2    0    0 -0.42593084853E+01 -0.43087038916E+02  0.29981379919E+01  0.43400731131E+02  0.00000000000E+00 0. -1.
         11    1    3    3    0    0  0.13550724997E+01  0.75725582245E-01  0.16683705116E+01  0.21506780950E+01  0.51100000000E-03 0. -1.
        -11    1    3    3    0    0  0.71152078518E+01  0.11854717898E+02 -0.30297013717E+01  0.14154137553E+02  0.51100000000E-03 0.  1.
        -12    1    3    3    0    0 -0.42109718663E+01  0.31156595435E+02 -0.16368071319E+01  0.31482453220E+02  0.00000000000E+00 0.  1.
</event>
<event>
 7    1  0.2733256E-010  0.4778727E+02  0.7816164E-02  0.1312668E+00
        -11   -1    0    0    0    0  0.00000000000E+00  0.00000000000E+00  0.45593999997E+02  0.45594000000E+02  0.51100000000E-03 0.  1.
         11   -1    0    0    0    0 -0.00000000000E+00 -0.00000000000E+00 -0.45593999997E+02  0.45594000000E+02  0.51100000000E-03 0. -1.
    9900012    2    1    2    0    0 -0.31488678850E+02 -0.21407196924E+02  0.20828313889E+02  0.47787266880E+02  0.19999981014E+02 0.  0.
         12    1    1    2    0    0  0.31488678850E+02  0.21407196924E+02 -0.20828313889E+02  0.43400733120E+02  0.00000000000E+00 0. -1.
         11    1    3    3    0    0 -0.70185137853E+01 -0.79043890993E+01 -0.10505484378E+01  0.10622737645E+02  0.51100000000E-03 0. -1.
        -11    1    3    3    0    0 -0.27816392182E+01 -0.43808032475E+01  0.23463932284E+00  0.51946135281E+01  0.51100000000E-03 0.  1.
        -12    1    3    3    0    0 -0.21688525847E+02 -0.91220045772E+01  0.21644223004E+02  0.31969915708E+02  0.00000000000E+00 0.  1.
</event>
<event>
 7    1  0.2733256E-010  0.4778727E+02  0.7816164E-02  0.1312668E+00
        -11   -1    0    0    0    0  0.00000000000E+00  0.00000000000E+00  0.45593999997E+02  0.45594000000E+02  0.51100000000E-03 0.  1.
         11   -1    0    0    0    0 -0.00000000000E+00 -0.00000000000E+00 -0.45593999997E+02  0.45594000000E+02  0.51100000000E-03 0. -1.
    9900012    2    1    2    0    0 -0.37570862798E+02  0.11754600833E+02  0.18272466028E+02  0.47787269742E+02  0.19999994062E+02 0.  0.
         12    1    1    2    0    0  0.37570862798E+02 -0.11754600833E+02 -0.18272466028E+02  0.43400730258E+02  0.00000000000E+00 0. -1.
         11    1    3    3    0    0 -0.86063730845E+01  0.92151535779E+01  0.32749826750E+01  0.13027441227E+02  0.51100000000E-03 0. -1.
        -11    1    3    3    0    0 -0.35515961864E+01  0.40843275444E+01  0.43615941905E+00  0.54300830805E+01  0.51100000000E-03 0.  1.
        -12    1    3    3    0    0 -0.25412893527E+02 -0.15448802889E+01  0.14561323934E+02  0.29329745435E+02  0.00000000000E+00 0.  1.
</event>
<event>
 7    1  0.2733256E-010  0.4778728E+02  0.7816164E-02  0.1312668E+00
        -11   -1    0    0    0    0  0.00000000000E+00  0.00000000000E+00  0.45593999997E+02  0.45594000000E+02  0.51100000000E-03 0.  1.
         11   -1    0    0    0    0 -0.00000000000E+00 -0.00000000000E+00 -0.45593999997E+02  0.45594000000E+02  0.51100000000E-03 0. -1.
    9900012    2    1    2    0    0  0.17782394013E+02 -0.20939740412E+02  0.33599649206E+02  0.47787277746E+02  0.20000030557E+02 0.  0.
         12    1    1    2    0    0 -0.17782394013E+02  0.20939740412E+02 -0.33599649206E+02  0.43400722254E+02  0.00000000000E+00 0. -1.
         11    1    3    3    0    0  0.32694712050E+01 -0.13178036320E+02  0.10169755081E+02  0.16963902908E+02  0.51100000000E-03 0. -1.
        -11    1    3    3    0    0 -0.26963379480E+00 -0.41732158416E+01  0.86790646376E+01  0.96340332202E+01  0.51100000000E-03 0.  1.
         12    1    3    3    0    0  0.14782556603E+02 -0.35884882505E+01  0.14750829488E+02  0.21189341618E+02  0.00000000000E+00 0. -1.
</event>
<event>
 7    1  0.2733256E-010  0.4778727E+02  0.7816164E-02  0.1312668E+00
        -11   -1    0    0    0    0  0.00000000000E+00  0.00000000000E+00  0.45593999997E+02  0.45594000000E+02  0.51100000000E-03 0.  1.
         11   -1    0    0    0    0 -0.00000000000E+00 -0.00000000000E+00 -0.45593999997E+02  0.45594000000E+02  0.51100000000E-03 0. -1.
    9900012    2    1    2    0    0  0.41611952756E+02 -0.75616739889E+00 -0.12308408530E+02  0.47787270492E+02  0.19999997481E+02 0.  0.
         12    1    1    2    0    0 -0.41611952756E+02  0.75616739889E+00  0.12308408530E+02  0.43400729508E+02  0.00000000000E+00 0. -1.
         11    1    3    3    0    0  0.48422678227E+01 -0.13798734057E+01  0.25751617439E+01  0.56553573319E+01  0.51100000000E-03 0. -1.
        -11    1    3    3    0    0  0.27428282259E+02  0.10404828187E+01 -0.39267196177E+01  0.27727466516E+02  0.51100000000E-03 0.  1.
         12    1    3    3    0    0  0.93414026739E+01 -0.41677681185E+00 -0.10956850656E+02  0.14404446644E+02  0.00000000000E+00 0. -1.
</event>
<event>
 7    1  0.2733256E-010  0.4778727E+02  0.7816164E-02  0.1312668E+00
        -11   -1    0    0    0    0  0.00000000000E+00  0.00000000000E+00  0.45593999997E+02  0.45594000000E+02  0.51100000000E-03 0. -1.
         11   -1    0    0    0    0 -0.00000000000E+00 -0.00000000000E+00 -0.45593999997E+02  0.45594000000E+02  0.51100000000E-03 0.  1.
    9900012    2    1    2    0    0  0.43139557351E+02  0.22232263585E+01 -0.42023057706E+01  0.47787268236E+02  0.19999987193E+02 0.  0.
         12    1    1    2    0    0 -0.43139557351E+02 -0.22232263585E+01  0.42023057706E+01  0.43400731764E+02  0.00000000000E+00 0. -1.
         11    1    3    3    0    0  0.90334807273E+00 -0.19462790529E+01 -0.19750320174E+00  0.21547732289E+01  0.51100000000E-03 0. -1.
        -11    1    3    3    0    0  0.33961131505E+02 -0.19064834222E+01  0.13744781109E+01  0.34042360707E+02  0.51100000000E-03 0.  1.
         12    1    3    3    0    0  0.82750777733E+01  0.60759888336E+01 -0.53792806797E+01  0.11590134300E+02  0.00000000000E+00 0. -1.
</event>
<event>
 7    1  0.2733256E-010  0.4778727E+02  0.7816164E-02  0.1312668E+00
        -11   -1    0    0    0    0  0.00000000000E+00  0.00000000000E+00  0.45593999997E+02  0.45594000000E+02  0.51100000000E-03 0. -1.
         11   -1    0    0    0    0 -0.00000000000E+00 -0.00000000000E+00 -0.45593999997E+02  0.45594000000E+02  0.51100000000E-03 0.  1.
    9900012    2    1    2    0    0  0.19660893651E+02  0.28688397470E+02 -0.25962445972E+02  0.47787268561E+02  0.19999988677E+02 0.  0.
         12    1    1    2    0    0 -0.19660893651E+02 -0.28688397470E+02  0.25962445972E+02  0.43400731439E+02  0.00000000000E+00 0. -1.
         11    1    3    3    0    0  0.16306161551E+02  0.22652141997E+02 -0.23492448399E+02  0.36481578551E+02  0.51100000000E-03 0. -1.
        -11    1    3    3    0    0  0.27967299477E+01  0.79420335123E+01 -0.34399810942E+01  0.90956618726E+01  0.51100000000E-03 0.  1.
         12    1    3    3    0    0  0.55800215266E+00 -0.19057780389E+01  0.96998352090E+00  0.22100281371E+01  0.00000000000E+00 0. -1.
</event>
<event>
 7    1  0.2733256E-010  0.4778726E+02  0.7816164E-02  0.1312668E+00
        -11   -1    0    0    0    0  0.00000000000E+00  0.00000000000E+00  0.45593999997E+02  0.45594000000E+02  0.51100000000E-03 0. -1.
         11   -1    0    0    0    0 -0.00000000000E+00 -0.00000000000E+00 -0.45593999997E+02  0.45594000000E+02  0.51100000000E-03 0.  1.
    9900012    2    1    2    0    0 -0.41856634678E+02  0.94431538723E+01 -0.65171618846E+01  0.47787257833E+02  0.19999939763E+02 0.  0.
         12    1    1    2    0    0  0.41856634678E+02 -0.94431538723E+01  0.65171618846E+01  0.43400742167E+02  0.00000000000E+00 0. -1.
         11    1    3    3    0    0  0.12744822604E+01 -0.10262891348E+01  0.14633924558E+00  0.16428602668E+01  0.51100000000E-03 0. -1.
        -11    1    3    3    0    0 -0.44375430723E+01  0.48138270597E+01 -0.63699642469E+00  0.65780304184E+01  0.51100000000E-03 0.  1.
        -12    1    3    3    0    0 -0.38693573866E+02  0.56556159474E+01 -0.60265047055E+01  0.39566367148E+02  0.00000000000E+00 0.  1.
</event>
<event>
 7    1  0.2733256E-010  0.4778727E+02  0.7816164E-02  0.1312668E+00
        -11   -1    0    0    0    0  0.00000000000E+00  0.00000000000E+00  0.45593999997E+02  0.45594000000E+02  0.51100000000E-03 0. -1.
         11   -1    0    0    0    0 -0.00000000000E+00 -0.00000000000E+00 -0.45593999997E+02  0.45594000000E+02  0.51100000000E-03 0.  1.
    9900012    2    1    2    0    0  0.36432222423E+02  0.20015990067E+02 -0.12477033602E+02  0.47787273548E+02  0.20000011415E+02 0.  0.
         12    1    1    2    0    0 -0.36432222423E+02 -0.20015990067E+02  0.12477033602E+02  0.43400726452E+02  0.00000000000E+00 0. -1.
         11    1    3    3    0    0  0.90445964979E+01  0.13279824252E+01  0.91450013168E+00  0.91871961927E+01  0.51100000000E-03 0. -1.
        -11    1    3    3    0    0  0.25479475683E+02  0.15458623707E+02 -0.61287961442E+01  0.30425891449E+02  0.51100000000E-03 0.  1.
         12    1    3    3    0    0  0.19081502420E+01  0.32293839351E+01 -0.72627375891E+01  0.81741859065E+01  0.00000000000E+00 0. -1.
</event>
<event>
 7    1  0.2733256E-010  0.4778725E+02  0.7816164E-02  0.1312668E+00
        -11   -1    0    0    0    0  0.00000000000E+00  0.00000000000E+00  0.45593999997E+02  0.45594000000E+02  0.51100000000E-03 0.  1.
         11   -1    0    0    0    0 -0.00000000000E+00 -0.00000000000E+00 -0.45593999997E+02  0.45594000000E+02  0.51100000000E-03 0. -1.
    9900012    2    1    2    0    0 -0.33316844325E+02  0.13655067929E+01 -0.27780358041E+02  0.47787250957E+02  0.19999908413E+02 0.  0.
         12    1    1    2    0    0  0.33316844325E+02 -0.13655067929E+01  0.27780358041E+02  0.43400749043E+02  0.00000000000E+00 0. -1.
         11    1    3    3    0    0 -0.63704857698E+01 -0.54518950948E+01 -0.34076338330E+01  0.90508683378E+01  0.51100000000E-03 0. -1.
        -11    1    3    3    0    0 -0.15219287962E+02 -0.16484416835E+01 -0.15408395091E+02  0.21720099576E+02  0.51100000000E-03 0.  1.
         12    1    3    3    0    0 -0.11727070594E+02  0.84658435713E+01 -0.89643291172E+01  0.17016283043E+02  0.00000000000E+00 0. -1.
</event>
<event>
 7    1  0.2733256E-010  0.4778727E+02  0.7816164E-02  0.1312668E+00
        -11   -1    0    0    0    0  0.00000000000E+00  0.00000000000E+00  0.45593999997E+02  0.45594000000E+02  0.51100000000E-03 0.  1.
         11   -1    0    0    0    0 -0.00000000000E+00 -0.00000000000E+00 -0.45593999997E+02  0.45594000000E+02  0.51100000000E-03 0. -1.
    9900012    2    1    2    0    0 -0.11621776042E+02 -0.38058068861E+02  0.17324578036E+02  0.47787270883E+02  0.19999999262E+02 0.  0.
         12    1    1    2    0    0  0.11621776042E+02  0.38058068861E+02 -0.17324578036E+02  0.43400729117E+02  0.00000000000E+00 0. -1.
         11    1    3    3    0    0 -0.29443033304E+01 -0.18043454505E+00  0.55712554778E+01  0.63039960808E+01  0.51100000000E-03 0. -1.
        -11    1    3    3    0    0  0.16089745380E+01 -0.54024969436E+01  0.26120255668E+01  0.62127650939E+01  0.51100000000E-03 0.  1.
        -12    1    3    3    0    0 -0.10286447249E+02 -0.32475137372E+02  0.91412969918E+01  0.35270509708E+02  0.00000000000E+00 0.  1.
</event>
<event>
 7    1  0.2733256E-010  0.4778727E+02  0.7816164E-02  0.1312668E+00
        -11   -1    0    0    0    0  0.00000000000E+00  0.00000000000E+00  0.45593999997E+02  0.45594000000E+02  0.51100000000E-03 0. -1.
         11   -1    0    0    0    0 -0.00000000000E+00 -0.00000000000E+00 -0.45593999997E+02  0.45594000000E+02  0.51100000000E-03 0.  1.
    9900012    2    1    2    0    0 -0.48183184886E+01  0.34735590107E+02 -0.25570413688E+02  0.47787268793E+02  0.19999989733E+02 0.  0.
         12    1    1    2    0    0  0.48183184886E+01 -0.34735590107E+02  0.25570413688E+02  0.43400731207E+02  0.00000000000E+00 0. -1.
         11    1    3    3    0    0 -0.46257879096E+00  0.77409101339E+01 -0.72194977479E+01  0.10595131752E+02  0.51100000000E-03 0. -1.
        -11    1    3    3    0    0 -0.10271061967E+02  0.22132192798E+02 -0.16017590616E+02  0.29187186938E+02  0.51100000000E-03 0.  1.
         12    1    3    3    0    0  0.59153222693E+01  0.48624871751E+01 -0.23333253247E+01  0.80049501028E+01  0.00000000000E+00 0. -1.
</event>
<event>
 7    1  0.2733256E-010  0.4778727E+02  0.7816164E-02  0.1312668E+00
        -11   -1    0    0    0    0  0.00000000000E+00  0.00000000000E+00  0.45593999997E+02  0.45594000000E+02  0.51100000000E-03 0.  1.
         11   -1    0    0    0    0 -0.00000000000E+00 -0.00000000000E+00 -0.45593999997E+02  0.45594000000E+02  0.51100000000E-03 0. -1.
    9900012    2    1    2    0    0 -0.33774198590E+02 -0.24789604079E+01  0.27143714607E+02  0.47787274456E+02  0.20000015555E+02 0.  0.
         12    1    1    2    0    0  0.33774198590E+02  0.24789604079E+01 -0.27143714607E+02  0.43400725544E+02  0.00000000000E+00 0. -1.
         11    1    3    3    0    0 -0.73562647613E+01 -0.47863502737E+01  0.69941937389E+01  0.11222411795E+02  0.51100000000E-03 0. -1.
        -11    1    3    3    0    0 -0.12622585479E+02  0.31765144535E+01  0.18534199000E+02  0.22648100164E+02  0.51100000000E-03 0.  1.
         12    1    3    3    0    0 -0.13795348350E+02 -0.86912458771E+00  0.16153218684E+01  0.13916762497E+02  0.00000000000E+00 0. -1.
</event>
<event>
 7    1  0.2733256E-010  0.4778728E+02  0.7816164E-02  0.1312668E+00
        -11   -1    0    0    0    0  0.00000000000E+00  0.00000000000E+00  0.45593999997E+02  0.45594000000E+02  0.51100000000E-03 0.  1.
         11   -1    0    0    0    0 -0.00000000000E+00 -0.00000000000E+00 -0.45593999997E+02  0.45594000000E+02  0.51100000000E-03 0. -1.
    9900012    2    1    2    0    0  0.41189933546E+02  0.13511531976E+02 -0.21096771503E+01  0.47787275818E+02  0.20000021764E+02 0.  0.
         12    1    1    2    0    0 -0.41189933546E+02 -0.13511531976E+02  0.21096771503E+01  0.43400724182E+02  0.00000000000E+00 0. -1.
         11    1    3    3    0    0  0.10196741610E+02  0.61225520629E+01 -0.64607261820E+01  0.13535145595E+02  0.51100000000E-03 0. -1.
        -11    1    3    3    0    0  0.41418409276E+01  0.54261590246E+01  0.24850791691E+01  0.72645486280E+01  0.51100000000E-03 0.  1.
         12    1    3    3    0    0  0.26851351009E+02  0.19628208888E+01  0.18659698626E+01  0.26987581595E+02  0.00000000000E+00 0. -1.
</event>
<event>
 7    1  0.2733256E-010  0.4778727E+02  0.7816164E-02  0.1312668E+00
        -11   -1    0    0    0    0  0.00000000000E+00  0.00000000000E+00  0.45593999997E+02  0.45594000000E+02  0.51100000000E-03 0.  1.
         11   -1    0    0    0    0 -0.00000000000E+00 -0.00000000000E+00 -0.45593999997E+02  0.45594000000E+02  0.51100000000E-03 0. -1.
    9900012    2    1    2    0    0  0.38606131886E+02  0.16799333026E+02  0.10534329403E+02  0.47787272987E+02  0.20000008856E+02 0.  0.
         12    1    1    2    0    0 -0.38606131886E+02 -0.16799333026E+02 -0.10534329403E+02  0.43400727013E+02  0.00000000000E+00 0. -1.
         11    1    3    3    0    0  0.19084769306E+02  0.46683039245E+01  0.50627535142E+01  0.20289232475E+02  0.51100000000E-03 0. -1.
        -11    1    3    3    0    0  0.20815558130E+02  0.95796793529E+01  0.20024494060E+01  0.23001467794E+02  0.51100000000E-03 0.  1.
         12    1    3    3    0    0 -0.12941955503E+01  0.25513497483E+01  0.34691264824E+01  0.44965727184E+01  0.00000000000E+00 0. -1.
</event>
<event>
 7    1  0.2733256E-010  0.4778727E+02  0.7816164E-02  0.1312668E+00
        -11   -1    0    0    0    0  0.00000000000E+00  0.00000000000E+00  0.45593999997E+02  0.45594000000E+02  0.51100000000E-03 0.  1.
         11   -1    0    0    0    0 -0.00000000000E+00 -0.00000000000E+00 -0.45593999997E+02  0.45594000000E+02  0.51100000000E-03 0. -1.
    9900012    2    1    2    0    0 -0.89084215891E+01 -0.34722006697E+02  0.24467236977E+02  0.47787269481E+02  0.19999992872E+02 0.  0.
         12    1    1    2    0    0  0.89084215891E+01  0.34722006697E+02 -0.24467236977E+02  0.43400730519E+02  0.00000000000E+00 0. -1.
         11    1    3    3    0    0 -0.21532408910E+01 -0.16764873682E-01  0.50801085937E+01  0.55176291086E+01  0.51100000000E-03 0. -1.
        -11    1    3    3    0    0  0.25593859880E+01 -0.10286912782E+02  0.97869643153E+01  0.14427602087E+02  0.51100000000E-03 0.  1.
         12    1    3    3    0    0 -0.93145666861E+01 -0.24418329042E+02  0.96001640684E+01  0.27842038285E+02  0.00000000000E+00 0. -1.
</event>
<event>
 7    1  0.2733256E-010  0.4778727E+02  0.7816164E-02  0.1312668E+00
        -11   -1    0    0    0    0  0.00000000000E+00  0.00000000000E+00  0.45593999997E+02  0.45594000000E+02  0.51100000000E-03 0.  1.
         11   -1    0    0    0    0 -0.00000000000E+00 -0.00000000000E+00 -0.45593999997E+02  0.45594000000E+02  0.51100000000E-03 0. -1.
    9900012    2    1    2    0    0 -0.12313589477E+02  0.21366205500E+02  0.35713918149E+02  0.47787272209E+02  0.20000005308E+02 0.  0.
         12    1    1    2    0    0  0.12313589477E+02 -0.21366205500E+02 -0.35713918149E+02  0.43400727791E+02  0.00000000000E+00 0. -1.
         11    1    3    3    0    0 -0.80845381961E+01  0.11135485352E+02  0.19344938353E+02  0.23739954339E+02  0.51100000000E-03 0. -1.
        -11    1    3    3    0    0 -0.73185968974E+01  0.66653423729E+01  0.16596146384E+02  0.19324096992E+02  0.51100000000E-03 0.  1.
         12    1    3    3    0    0  0.30895456162E+01  0.35653777758E+01 -0.22716658872E+00  0.47232208775E+01  0.00000000000E+00 0. -1.
</event>
<event>
 7    1  0.2733256E-010  0.4778727E+02  0.7816164E-02  0.1312668E+00
        -11   -1    0    0    0    0  0.00000000000E+00  0.00000000000E+00  0.45593999997E+02  0.45594000000E+02  0.51100000000E-03 0.  1.
         11   -1    0    0    0    0 -0.00000000000E+00 -0.00000000000E+00 -0.45593999997E+02  0.45594000000E+02  0.51100000000E-03 0. -1.
    9900012    2    1    2    0    0  0.11011921010E+02  0.28394600531E+02  0.30920984135E+02  0.47787274160E+02  0.20000014204E+02 0.  0.
         12    1    1    2    0    0 -0.11011921010E+02 -0.28394600531E+02 -0.30920984135E+02  0.43400725840E+02  0.00000000000E+00 0. -1.
         11    1    3    3    0    0 -0.18718581288E+01  0.13341332733E+00  0.19978880585E+01  0.27410233355E+01  0.51100000000E-03 0. -1.
        -11    1    3    3    0    0  0.97552054539E+01  0.74779734501E+01  0.16690693409E+02  0.20728322824E+02  0.51100000000E-03 0.  1.
        -12    1    3    3    0    0  0.31285736845E+01  0.20783213753E+02  0.12232402667E+02  0.24317928000E+02  0.00000000000E+00 0.  1.
</event>
<event>
 7    1  0.2733256E-010  0.4778727E+02  0.7816164E-02  0.1312668E+00
        -11   -1    0    0    0    0  0.00000000000E+00  0.00000000000E+00  0.45593999997E+02  0.45594000000E+02  0.51100000000E-03 0. -1.
         11   -1    0    0    0    0 -0.00000000000E+00 -0.00000000000E+00 -0.45593999997E+02  0.45594000000E+02  0.51100000000E-03 0.  1.
    9900012    2    1    2    0    0 -0.16717216036E+02  0.34063209089E+02 -0.21067886663E+02  0.47787269892E+02  0.19999994748E+02 0.  0.
         12    1    1    2    0    0  0.16717216036E+02 -0.34063209089E+02  0.21067886663E+02  0.43400730108E+02  0.00000000000E+00 0. -1.
         11    1    3    3    0    0 -0.21457665642E+01  0.61490814587E+01 -0.72757432316E+00  0.65532344373E+01  0.51100000000E-03 0. -1.
        -11    1    3    3    0    0 -0.11949510641E+02  0.53030934849E+01 -0.65854580173E+01  0.14638369534E+02  0.51100000000E-03 0.  1.
         12    1    3    3    0    0 -0.26219388313E+01  0.22611034145E+02 -0.13754854322E+02  0.26595665921E+02  0.00000000000E+00 0. -1.
</event>
<event>
 7    1  0.2733256E-010  0.4778727E+02  0.7816164E-02  0.1312668E+00
        -11   -1    0    0    0    0  0.00000000000E+00  0.00000000000E+00  0.45593999997E+02  0.45594000000E+02  0.51100000000E-03 0.  1.
         11   -1    0    0    0    0 -0.00000000000E+00 -0.00000000000E+00 -0.45593999997E+02  0.45594000000E+02  0.51100000000E-03 0. -1.
    9900012    2    1    2    0    0 -0.23294078871E+02  0.11861979552E+02  0.34645385433E+02  0.47787269578E+02  0.19999993314E+02 0.  0.
         12    1    1    2    0    0  0.23294078871E+02 -0.11861979552E+02 -0.34645385433E+02  0.43400730422E+02  0.00000000000E+00 0. -1.
         11    1    3    3    0    0 -0.54992453440E+00  0.26672258676E+01 -0.21325216575E+01  0.34589246455E+01  0.51100000000E-03 0. -1.
        -11    1    3    3    0    0 -0.18664900772E+01  0.17495651966E+01  0.44118412463E+01  0.50999124530E+01  0.51100000000E-03 0.  1.
         12    1    3    3    0    0 -0.20877664259E+02  0.74451884875E+01  0.32366065845E+02  0.39228432480E+02  0.00000000000E+00 0. -1.
</event>
<event>
 7    1  0.2733256E-010  0.4778724E+02  0.7816164E-02  0.1312668E+00
        -11   -1    0    0    0    0  0.00000000000E+00  0.00000000000E+00  0.45593999997E+02  0.45594000000E+02  0.51100000000E-03 0. -1.
         11   -1    0    0    0    0 -0.00000000000E+00 -0.00000000000E+00 -0.45593999997E+02  0.45594000000E+02  0.51100000000E-03 0.  1.
    9900012    2    1    2    0    0 -0.37952971450E+02 -0.94503734320E+01 -0.18811910545E+02  0.47787244497E+02  0.19999878960E+02 0.  0.
         12    1    1    2    0    0  0.37952971450E+02  0.94503734320E+01  0.18811910545E+02  0.43400755503E+02  0.00000000000E+00 0. -1.
         11    1    3    3    0    0 -0.14332956610E+01 -0.27647003798E+01  0.18751610748E+01  0.36351250267E+01  0.51100000000E-03 0. -1.
        -11    1    3    3    0    0 -0.17226658349E+02 -0.40809937586E+01 -0.32141904446E+01  0.17992867709E+02  0.51100000000E-03 0.  1.
        -12    1    3    3    0    0 -0.19293017440E+02 -0.26046792936E+01 -0.17472881175E+02  0.26159251761E+02  0.00000000000E+00 0.  1.
</event>
<event>
 7    1  0.2733256E-010  0.4778729E+02  0.7816164E-02  0.1312668E+00
        -11   -1    0    0    0    0  0.00000000000E+00  0.00000000000E+00  0.45593999997E+02  0.45594000000E+02  0.51100000000E-03 0.  1.
         11   -1    0    0    0    0 -0.00000000000E+00 -0.00000000000E+00 -0.45593999997E+02  0.45594000000E+02  0.51100000000E-03 0. -1.
    9900012    2    1    2    0    0  0.30526621758E+02 -0.27097109452E+02  0.14747669990E+02  0.47787288638E+02  0.20000080217E+02 0.  0.
         12    1    1    2    0    0 -0.30526621758E+02  0.27097109452E+02 -0.14747669990E+02  0.43400711362E+02  0.00000000000E+00 0. -1.
         11    1    3    3    0    0  0.17751175992E+01  0.78569878869E+00 -0.16675630631E+00  0.19483770180E+01  0.51100000000E-03 0. -1.
        -11    1    3    3    0    0  0.21316584832E+02 -0.12556495491E+02  0.27188802968E+01  0.24888846462E+02  0.51100000000E-03 0.  1.
         12    1    3    3    0    0  0.74349193271E+01 -0.15326312750E+02  0.12195545999E+02  0.20950065158E+02  0.00000000000E+00 0. -1.
</event>
<event>
 7    1  0.2733256E-010  0.4778726E+02  0.7816164E-02  0.1312668E+00
        -11   -1    0    0    0    0  0.00000000000E+00  0.00000000000E+00  0.45593999997E+02  0.45594000000E+02  0.51100000000E-03 0.  1.
         11   -1    0    0    0    0 -0.00000000000E+00 -0.00000000000E+00 -0.45593999997E+02  0.45594000000E+02  0.51100000000E-03 0. -1.
    9900012    2    1    2    0    0 -0.30881070113E+02 -0.26568671076E+02  0.14969606098E+02  0.47787264053E+02  0.19999968121E+02 0.  0.
         12    1    1    2    0    0  0.30881070113E+02  0.26568671076E+02 -0.14969606098E+02  0.43400735947E+02  0.00000000000E+00 0. -1.
         11    1    3    3    0    0 -0.29866601743E+01 -0.12484754846E+02  0.28634169630E+01  0.13152505447E+02  0.51100000000E-03 0. -1.
        -11    1    3    3    0    0 -0.43886548180E+01 -0.56261582124E+01  0.48270125088E+01  0.86147546317E+01  0.51100000000E-03 0.  1.
        -12    1    3    3    0    0 -0.23505755120E+02 -0.84577580181E+01  0.72791766259E+01  0.26020003974E+02  0.00000000000E+00 0.  1.
</event>
<event>
 7    1  0.2733256E-010  0.4778727E+02  0.7816164E-02  0.1312668E+00
        -11   -1    0    0    0    0  0.00000000000E+00  0.00000000000E+00  0.45593999997E+02  0.45594000000E+02  0.51100000000E-03 0. -1.
         11   -1    0    0    0    0 -0.00000000000E+00 -0.00000000000E+00 -0.45593999997E+02  0.45594000000E+02  0.51100000000E-03 0.  1.
    9900012    2    1    2    0    0  0.28489899934E+02  0.26726894538E+02 -0.18910887410E+02  0.47787274747E+02  0.20000016879E+02 0.  0.
         12    1    1    2    0    0 -0.28489899934E+02 -0.26726894538E+02  0.18910887410E+02  0.43400725253E+02  0.00000000000E+00 0. -1.
         11    1    3    3    0    0  0.18637106207E+02  0.76981177668E+01 -0.15431175153E+02  0.25391414135E+02  0.51100000000E-03 0. -1.
        -11    1    3    3    0    0  0.74366940177E+01  0.95009708794E+01 -0.35131541672E+01  0.12566428213E+02  0.51100000000E-03 0.  1.
         12    1    3    3    0    0  0.24160997093E+01  0.95278058916E+01  0.33441910126E-01  0.98294323984E+01  0.00000000000E+00 0. -1.
</event>
<event>
 7    1  0.2733256E-010  0.4778728E+02  0.7816164E-02  0.1312668E+00
        -11   -1    0    0    0    0  0.00000000000E+00  0.00000000000E+00  0.45593999997E+02  0.45594000000E+02  0.51100000000E-03 0.  1.
         11   -1    0    0    0    0 -0.00000000000E+00 -0.00000000000E+00 -0.45593999997E+02  0.45594000000E+02  0.51100000000E-03 0. -1.
    9900012    2    1    2    0    0  0.39518507423E+02 -0.40808707350E+01  0.17471604936E+02  0.47787275191E+02  0.20000018905E+02 0.  0.
         12    1    1    2    0    0 -0.39518507423E+02  0.40808707350E+01 -0.17471604936E+02  0.43400724809E+02  0.00000000000E+00 0. -1.
         11    1    3    3    0    0  0.96722865779E+01  0.56078619190E+01  0.59557760163E+01  0.12667774515E+02  0.51100000000E-03 0. -1.
        -11    1    3    3    0    0  0.13402267129E+02 -0.16722559485E+01  0.99166644667E+01  0.16755818051E+02  0.51100000000E-03 0.  1.
         12    1    3    3    0    0  0.16443953716E+02 -0.80164767055E+01  0.15991644529E+01  0.18363682625E+02  0.00000000000E+00 0. -1.
</event>
<event>
 7    1  0.2733256E-010  0.4778729E+02  0.7816164E-02  0.1312668E+00
        -11   -1    0    0    0    0  0.00000000000E+00  0.00000000000E+00  0.45593999997E+02  0.45594000000E+02  0.51100000000E-03 0. -1.
         11   -1    0    0    0    0 -0.00000000000E+00 -0.00000000000E+00 -0.45593999997E+02  0.45594000000E+02  0.51100000000E-03 0.  1.
    9900012    2    1    2    0    0  0.32169085773E+02  0.28252728170E+02 -0.71102256426E+01  0.47787285291E+02  0.20000064955E+02 0.  0.
         12    1    1    2    0    0 -0.32169085773E+02 -0.28252728170E+02  0.71102256426E+01  0.43400714709E+02  0.00000000000E+00 0. -1.
         11    1    3    3    0    0 -0.14925667122E+01 -0.10187940029E+00 -0.18518892802E+01  0.23806782583E+01  0.51100000000E-03 0. -1.
        -11    1    3    3    0    0  0.39817539558E+01  0.28243241217E+01 -0.38747403006E+01  0.62325583806E+01  0.51100000000E-03 0.  1.
        -12    1    3    3    0    0  0.29679898530E+02  0.25530283449E+02 -0.13835960619E+01  0.39174048652E+02  0.00000000000E+00 0.  1.
</event>
<event>
 7    1  0.2733256E-010  0.4778727E+02  0.7816164E-02  0.1312668E+00
        -11   -1    0    0    0    0  0.00000000000E+00  0.00000000000E+00  0.45593999997E+02  0.45594000000E+02  0.51100000000E-03 0. -1.
         11   -1    0    0    0    0 -0.00000000000E+00 -0.00000000000E+00 -0.45593999997E+02  0.45594000000E+02  0.51100000000E-03 0.  1.
    9900012    2    1    2    0    0  0.36492917201E+02 -0.23266971954E+02 -0.32463145729E+01  0.47787267885E+02  0.19999985597E+02 0.  0.
         12    1    1    2    0    0 -0.36492917201E+02  0.23266971954E+02  0.32463145729E+01  0.43400732115E+02  0.00000000000E+00 0. -1.
         11    1    3    3    0    0  0.10639723307E+02 -0.27615601519E+01  0.17431100521E+01  0.11129616320E+02  0.51100000000E-03 0. -1.
        -11    1    3    3    0    0  0.24313137420E+02 -0.20289359719E+02 -0.24807858130E+00  0.31667780349E+02  0.51100000000E-03 0.  1.
        -12    1    3    3    0    0  0.15400564750E+01 -0.21605208317E+00 -0.47413460438E+01  0.49898712163E+01  0.00000000000E+00 0.  1.
</event>
<event>
 7    1  0.2733256E-010  0.4778726E+02  0.7816164E-02  0.1312668E+00
        -11   -1    0    0    0    0  0.00000000000E+00  0.00000000000E+00  0.45593999997E+02  0.45594000000E+02  0.51100000000E-03 0.  1.
         11   -1    0    0    0    0 -0.00000000000E+00 -0.00000000000E+00 -0.45593999997E+02  0.45594000000E+02  0.51100000000E-03 0. -1.
    9900012    2    1    2    0    0 -0.36342194610E+02  0.18217821667E+02  0.15198015441E+02  0.47787264883E+02  0.19999971906E+02 0.  0.
         12    1    1    2    0    0  0.36342194610E+02 -0.18217821667E+02 -0.15198015441E+02  0.43400735117E+02  0.00000000000E+00 0. -1.
         11    1    3    3    0    0 -0.34424207644E+00 -0.18662349729E+01  0.18513464449E+01  0.26511920906E+01  0.51100000000E-03 0. -1.
        -11    1    3    3    0    0 -0.24007168535E+01  0.62830552336E+01  0.30364257435E+01  0.73797090752E+01  0.51100000000E-03 0.  1.
        -12    1    3    3    0    0 -0.33597235680E+02  0.13801001407E+02  0.10310243253E+02  0.37756363717E+02  0.00000000000E+00 0.  1.
</event>
<event>
 7    1  0.2733256E-010  0.4778728E+02  0.7816164E-02  0.1312668E+00
        -11   -1    0    0    0    0  0.00000000000E+00  0.00000000000E+00  0.45593999997E+02  0.45594000000E+02  0.51100000000E-03 0. -1.
         11   -1    0    0    0    0 -0.00000000000E+00 -0.00000000000E+00 -0.45593999997E+02  0.45594000000E+02  0.51100000000E-03 0.  1.
    9900012    2    1    2    0    0  0.28194387065E+02 -0.32229751410E+02 -0.70669806588E+01  0.47787279343E+02  0.20000037837E+02 0.  0.
         12    1    1    2    0    0 -0.28194387065E+02  0.32229751410E+02  0.70669806588E+01  0.43400720657E+02  0.00000000000E+00 0. -1.
         11    1    3    3    0    0  0.36372088134E+01 -0.62486175246E+01 -0.52164795337E+01  0.89155015511E+01  0.51100000000E-03 0. -1.
        -11    1    3    3    0    0  0.11847928855E+02 -0.20366867641E+02 -0.61060106935E+01  0.24340626173E+02  0.51100000000E-03 0.  1.
         12    1    3    3    0    0  0.12709249396E+02 -0.56142662449E+01  0.42555095685E+01  0.14531151619E+02  0.00000000000E+00 0. -1.
</event>
<event>
 7    1  0.2733256E-010  0.4778728E+02  0.7816164E-02  0.1312668E+00
        -11   -1    0    0    0    0  0.00000000000E+00  0.00000000000E+00  0.45593999997E+02  0.45594000000E+02  0.51100000000E-03 0.  1.
         11   -1    0    0    0    0 -0.00000000000E+00 -0.00000000000E+00 -0.45593999997E+02  0.45594000000E+02  0.51100000000E-03 0. -1.
    9900012    2    1    2    0    0  0.64992021641E+01 -0.36052008621E+02  0.23273067882E+02  0.47787278312E+02  0.20000033136E+02 0.  0.
         12    1    1    2    0    0 -0.64992021641E+01  0.36052008621E+02 -0.23273067882E+02  0.43400721688E+02  0.00000000000E+00 0. -1.
         11    1    3    3    0    0  0.31840251839E+01 -0.29241702184E+01  0.67416653217E+01  0.80086727620E+01  0.51100000000E-03 0. -1.
        -11    1    3    3    0    0 -0.53441877153E+00 -0.23128632812E+02  0.17517550041E+02  0.29018680515E+02  0.51100000000E-03 0.  1.
         12    1    3    3    0    0  0.38495957518E+01 -0.99992055911E+01 -0.98614747986E+00  0.10759925035E+02  0.00000000000E+00 0. -1.
</event>
<event>
 7    1  0.2733256E-010  0.4778727E+02  0.7816164E-02  0.1312668E+00
        -11   -1    0    0    0    0  0.00000000000E+00  0.00000000000E+00  0.45593999997E+02  0.45594000000E+02  0.51100000000E-03 0. -1.
         11   -1    0    0    0    0 -0.00000000000E+00 -0.00000000000E+00 -0.45593999997E+02  0.45594000000E+02  0.51100000000E-03 0.  1.
    9900012    2    1    2    0    0  0.10136329368E+02 -0.16404499159E+02 -0.38881491653E+02  0.47787272369E+02  0.20000006040E+02 0.  0.
         12    1    1    2    0    0 -0.10136329368E+02  0.16404499159E+02  0.38881491653E+02  0.43400727631E+02  0.00000000000E+00 0. -1.
         11    1    3    3    0    0  0.46128235134E+01 -0.85846565895E+01 -0.33505506383E+02  0.34894031406E+02  0.51100000000E-03 0. -1.
        -11    1    3    3    0    0  0.30718825100E+01 -0.15615615761E+01 -0.51141371410E+01  0.61667929809E+01  0.51100000000E-03 0.  1.
         12    1    3    3    0    0  0.24516233451E+01 -0.62582809933E+01 -0.26184812927E+00  0.67264479824E+01  0.00000000000E+00 0. -1.
</event>
<event>
 7    1  0.2733256E-010  0.4778727E+02  0.7816164E-02  0.1312668E+00
        -11   -1    0    0    0    0  0.00000000000E+00  0.00000000000E+00  0.45593999997E+02  0.45594000000E+02  0.51100000000E-03 0.  1.
         11   -1    0    0    0    0 -0.00000000000E+00 -0.00000000000E+00 -0.45593999997E+02  0.45594000000E+02  0.51100000000E-03 0. -1.
    9900012    2    1    2    0    0 -0.26114369474E+01 -0.43262836692E+01  0.43105531197E+02  0.47787272436E+02  0.20000006345E+02 0.  0.
         12    1    1    2    0    0  0.26114369474E+01  0.43262836692E+01 -0.43105531197E+02  0.43400727564E+02  0.00000000000E+00 0. -1.
         11    1    3    3    0    0 -0.66586859674E+01 -0.44880107466E+01  0.13885204892E+02  0.16039926883E+02  0.51100000000E-03 0. -1.
        -11    1    3    3    0    0  0.64215588995E+00 -0.41444853791E+01  0.23295903497E+02  0.23670408599E+02  0.51100000000E-03 0.  1.
         12    1    3    3    0    0  0.34050931301E+01  0.43062124564E+01  0.59244228084E+01  0.80769369539E+01  0.00000000000E+00 0. -1.
</event>
<event>
 7    1  0.2733256E-010  0.4778727E+02  0.7816164E-02  0.1312668E+00
        -11   -1    0    0    0    0  0.00000000000E+00  0.00000000000E+00  0.45593999997E+02  0.45594000000E+02  0.51100000000E-03 0. -1.
         11   -1    0    0    0    0 -0.00000000000E+00 -0.00000000000E+00 -0.45593999997E+02  0.45594000000E+02  0.51100000000E-03 0.  1.
    9900012    2    1    2    0    0 -0.29367784669E+01  0.31433509967E+02 -0.29781422177E+02  0.47787270473E+02  0.19999997394E+02 0.  0.
         12    1    1    2    0    0  0.29367784669E+01 -0.31433509967E+02  0.29781422177E+02  0.43400729527E+02  0.00000000000E+00 0. -1.
         11    1    3    3    0    0  0.23599788687E+01  0.62552049280E+01 -0.17063928238E+01  0.68999178026E+01  0.51100000000E-03 0. -1.
        -11    1    3    3    0    0  0.31108427970E+01  0.35291729853E+01 -0.34585838125E+00  0.47172050145E+01  0.51100000000E-03 0.  1.
        -12    1    3    3    0    0 -0.84076001326E+01  0.21649132054E+02 -0.27729170972E+02  0.36170147656E+02  0.00000000000E+00 0.  1.
</event>
<event>
 7    1  0.2733256E-010  0.4778728E+02  0.7816164E-02  0.1312668E+00
        -11   -1    0    0    0    0  0.00000000000E+00  0.00000000000E+00  0.45593999997E+02  0.45594000000E+02  0.51100000000E-03 0.  1.
         11   -1    0    0    0    0 -0.00000000000E+00 -0.00000000000E+00 -0.45593999997E+02  0.45594000000E+02  0.51100000000E-03 0. -1.
    9900012    2    1    2    0    0 -0.61009230493E+01 -0.37245513341E+02  0.21428311896E+02  0.47787284835E+02  0.20000062878E+02 0.  0.
         12    1    1    2    0    0  0.61009230493E+01  0.37245513341E+02 -0.21428311896E+02  0.43400715165E+02  0.00000000000E+00 0. -1.
         11    1    3    3    0    0 -0.74868818520E+01 -0.13222236740E+02  0.12006800357E+02  0.19366057920E+02  0.51100000000E-03 0. -1.
        -11    1    3    3    0    0 -0.31196634840E+01 -0.19787846465E+02  0.96452870795E+01  0.22233369764E+02  0.51100000000E-03 0.  1.
         12    1    3    3    0    0  0.45056222867E+01 -0.42354301367E+01 -0.22377554087E+00  0.61878571514E+01  0.00000000000E+00 0. -1.
</event>
<event>
 7    1  0.2733256E-010  0.4778727E+02  0.7816164E-02  0.1312668E+00
        -11   -1    0    0    0    0  0.00000000000E+00  0.00000000000E+00  0.45593999997E+02  0.45594000000E+02  0.51100000000E-03 0.  1.
         11   -1    0    0    0    0 -0.00000000000E+00 -0.00000000000E+00 -0.45593999997E+02  0.45594000000E+02  0.51100000000E-03 0. -1.
    9900012    2    1    2    0    0  0.35121666230E+02  0.23751222838E+02 -0.92720752287E+01  0.47787269544E+02  0.19999993158E+02 0.  0.
         12    1    1    2    0    0 -0.35121666230E+02 -0.23751222838E+02  0.92720752287E+01  0.43400730456E+02  0.00000000000E+00 0. -1.
         11    1    3    3    0    0  0.40692573438E+01  0.27131951907E+01  0.15688142446E+01  0.51362887252E+01  0.51100000000E-03 0. -1.
        -11    1    3    3    0    0  0.14338010153E+02  0.27071198144E+01  0.19826677682E+01  0.14725420353E+02  0.51100000000E-03 0.  1.
         12    1    3    3    0    0  0.16714398734E+02  0.18330907832E+02 -0.12823557242E+02  0.27925560466E+02  0.00000000000E+00 0. -1.
</event>
<event>
 7    1  0.2733256E-010  0.4778727E+02  0.7816164E-02  0.1312668E+00
        -11   -1    0    0    0    0  0.00000000000E+00  0.00000000000E+00  0.45593999997E+02  0.45594000000E+02  0.51100000000E-03 0.  1.
         11   -1    0    0    0    0 -0.00000000000E+00 -0.00000000000E+00 -0.45593999997E+02  0.45594000000E+02  0.51100000000E-03 0. -1.
    9900012    2    1    2    0    0  0.37740634562E+02  0.21078009695E+01  0.21326623891E+02  0.47787271796E+02  0.20000003427E+02 0.  0.
         12    1    1    2    0    0 -0.37740634562E+02 -0.21078009695E+01 -0.21326623891E+02  0.43400728204E+02  0.00000000000E+00 0. -1.
         11    1    3    3    0    0  0.11554920016E+01 -0.18840989163E+01  0.70290696414E+01  0.73683655431E+01  0.51100000000E-03 0. -1.
        -11    1    3    3    0    0  0.85279967590E+01 -0.20580792548E+01  0.11463514005E+01  0.88474030504E+01  0.51100000000E-03 0.  1.
         12    1    3    3    0    0  0.28057145801E+02  0.60499791406E+01  0.13151202849E+02  0.31571503203E+02  0.00000000000E+00 0. -1.
</event>
<event>
 7    1  0.2733256E-010  0.4778727E+02  0.7816164E-02  0.1312668E+00
        -11   -1    0    0    0    0  0.00000000000E+00  0.00000000000E+00  0.45593999997E+02  0.45594000000E+02  0.51100000000E-03 0.  1.
         11   -1    0    0    0    0 -0.00000000000E+00 -0.00000000000E+00 -0.45593999997E+02  0.45594000000E+02  0.51100000000E-03 0. -1.
    9900012    2    1    2    0    0 -0.37803690922E+02  0.20848823263E+02  0.44531825071E+01  0.47787270591E+02  0.19999997932E+02 0.  0.
         12    1    1    2    0    0  0.37803690922E+02 -0.20848823263E+02 -0.44531825071E+01  0.43400729409E+02  0.00000000000E+00 0. -1.
         11    1    3    3    0    0 -0.21421814235E+02  0.47015093272E+01 -0.32846124898E+00  0.21934133266E+02  0.51100000000E-03 0. -1.
        -11    1    3    3    0    0 -0.24263993307E+01 -0.14955308198E+01  0.11182608382E+01  0.30617860324E+01  0.51100000000E-03 0.  1.
        -12    1    3    3    0    0 -0.13955477356E+02  0.17642844756E+02  0.36633829179E+01  0.22791351292E+02  0.00000000000E+00 0.  1.
</event>
<event>
 7    1  0.2733256E-010  0.4778728E+02  0.7816164E-02  0.1312668E+00
        -11   -1    0    0    0    0  0.00000000000E+00  0.00000000000E+00  0.45593999997E+02  0.45594000000E+02  0.51100000000E-03 0. -1.
         11   -1    0    0    0    0 -0.00000000000E+00 -0.00000000000E+00 -0.45593999997E+02  0.45594000000E+02  0.51100000000E-03 0.  1.
    9900012    2    1    2    0    0  0.28656987413E+02 -0.30584358098E+02 -0.11269265133E+02  0.47787283134E+02  0.20000055120E+02 0.  0.
         12    1    1    2    0    0 -0.28656987413E+02  0.30584358098E+02  0.11269265133E+02  0.43400716866E+02  0.00000000000E+00 0. -1.
         11    1    3    3    0    0 -0.77836048517E+00 -0.25805021853E+00 -0.13575037339E+00  0.83118192061E+00  0.51100000000E-03 0. -1.
        -11    1    3    3    0    0  0.10174647646E+02 -0.16490430586E+02 -0.12734942192E+02  0.23186990071E+02  0.51100000000E-03 0.  1.
         12    1    3    3    0    0  0.19260700252E+02 -0.13835877293E+02  0.16014274324E+01  0.23769111142E+02  0.00000000000E+00 0. -1.
</event>
<event>
 7    1  0.2733256E-010  0.4778727E+02  0.7816164E-02  0.1312668E+00
        -11   -1    0    0    0    0  0.00000000000E+00  0.00000000000E+00  0.45593999997E+02  0.45594000000E+02  0.51100000000E-03 0. -1.
         11   -1    0    0    0    0 -0.00000000000E+00 -0.00000000000E+00 -0.45593999997E+02  0.45594000000E+02  0.51100000000E-03 0.  1.
    9900012    2    1    2    0    0 -0.31310979765E+02 -0.29109091443E+02 -0.74770969587E+01  0.47787266857E+02  0.19999980907E+02 0.  0.
         12    1    1    2    0    0  0.31310979765E+02  0.29109091443E+02  0.74770969587E+01  0.43400733143E+02  0.00000000000E+00 0. -1.
         11    1    3    3    0    0 -0.43293293761E+01 -0.21137647009E+01  0.18145287612E+01  0.51481655902E+01  0.51100000000E-03 0. -1.
        -11    1    3    3    0    0 -0.12264028134E+02 -0.14541793002E+02  0.37152926718E+01  0.19382299391E+02  0.51100000000E-03 0.  1.
         12    1    3    3    0    0 -0.14717622254E+02 -0.12453533739E+02 -0.13006918392E+02  0.23256801875E+02  0.00000000000E+00 0. -1.
</event>
<event>
 7    1  0.2733256E-010  0.4778727E+02  0.7816164E-02  0.1312668E+00
        -11   -1    0    0    0    0  0.00000000000E+00  0.00000000000E+00  0.45593999997E+02  0.45594000000E+02  0.51100000000E-03 0. -1.
         11   -1    0    0    0    0 -0.00000000000E+00 -0.00000000000E+00 -0.45593999997E+02  0.45594000000E+02  0.51100000000E-03 0.  1.
    9900012    2    1    2    0    0  0.41577720000E+02 -0.60491323124E+01 -0.10877704148E+02  0.47787271324E+02  0.20000001273E+02 0.  0.
         12    1    1    2    0    0 -0.41577720000E+02  0.60491323124E+01  0.10877704148E+02  0.43400728676E+02  0.00000000000E+00 0. -1.
         11    1    3    3    0    0  0.49162552678E+01  0.10870036513E-01  0.45146490714E+00  0.49369529914E+01  0.51100000000E-03 0. -1.
        -11    1    3    3    0    0  0.36937407744E+02 -0.24106154614E+01 -0.12398925943E+02  0.39037373407E+02  0.51100000000E-03 0.  1.
         12    1    3    3    0    0 -0.27594301187E+00 -0.36493868875E+01  0.10697568881E+01  0.38129449249E+01  0.00000000000E+00 0. -1.
</event>
<event>
 7    1  0.2733256E-010  0.4778727E+02  0.7816164E-02  0.1312668E+00
        -11   -1    0    0    0    0  0.00000000000E+00  0.00000000000E+00  0.45593999997E+02  0.45594000000E+02  0.51100000000E-03 0.  1.
         11   -1    0    0    0    0 -0.00000000000E+00 -0.00000000000E+00 -0.45593999997E+02  0.45594000000E+02  0.51100000000E-03 0. -1.
    9900012    2    1    2    0    0  0.35056340425E+02  0.25282399546E+01  0.25461428145E+02  0.47787270462E+02  0.19999997343E+02 0.  0.
         12    1    1    2    0    0 -0.35056340425E+02 -0.25282399546E+01 -0.25461428145E+02  0.43400729538E+02  0.00000000000E+00 0. -1.
         11    1    3    3    0    0  0.13543346331E+01 -0.51091742931E+00  0.59976562304E+01  0.61698573271E+01  0.51100000000E-03 0. -1.
        -11    1    3    3    0    0  0.18488505359E+02 -0.16199372636E+01  0.17635211820E+02  0.25601752350E+02  0.51100000000E-03 0.  1.
         12    1    3    3    0    0  0.15213500433E+02  0.46590946474E+01  0.18285600940E+01  0.16015660785E+02  0.00000000000E+00 0. -1.
</event>
<event>
 7    1  0.2733256E-010  0.4778727E+02  0.7816164E-02  0.1312668E+00
        -11   -1    0    0    0    0  0.00000000000E+00  0.00000000000E+00  0.45593999997E+02  0.45594000000E+02  0.51100000000E-03 0.  1.
         11   -1    0    0    0    0 -0.00000000000E+00 -0.00000000000E+00 -0.45593999997E+02  0.45594000000E+02  0.51100000000E-03 0. -1.
    9900012    2    1    2    0    0 -0.26354288234E+02 -0.24772789697E+02  0.23987155080E+02  0.47787271590E+02  0.20000002486E+02 0.  0.
         12    1    1    2    0    0  0.26354288234E+02  0.24772789697E+02 -0.23987155080E+02  0.43400728410E+02  0.00000000000E+00 0. -1.
         11    1    3    3    0    0 -0.91536664498E+01 -0.77248774818E+01  0.39861491572E+01  0.12623498998E+02  0.51100000000E-03 0. -1.
        -11    1    3    3    0    0 -0.10292995236E+02 -0.19115805614E+02  0.14970070158E+02  0.26371628239E+02  0.51100000000E-03 0.  1.
         12    1    3    3    0    0 -0.69076265488E+01  0.20678933987E+01  0.50309357647E+01  0.87921443525E+01  0.00000000000E+00 0. -1.
</event>
<event>
 7    1  0.2733256E-010  0.4778728E+02  0.7816164E-02  0.1312668E+00
        -11   -1    0    0    0    0  0.00000000000E+00  0.00000000000E+00  0.45593999997E+02  0.45594000000E+02  0.51100000000E-03 0.  1.
         11   -1    0    0    0    0 -0.00000000000E+00 -0.00000000000E+00 -0.45593999997E+02  0.45594000000E+02  0.51100000000E-03 0. -1.
    9900012    2    1    2    0    0 -0.33373428960E+02  0.11036545643E+02  0.25456454259E+02  0.47787283834E+02  0.20000058312E+02 0.  0.
         12    1    1    2    0    0  0.33373428960E+02 -0.11036545643E+02 -0.25456454259E+02  0.43400716166E+02  0.00000000000E+00 0. -1.
         11    1    3    3    0    0 -0.54928761955E+01  0.27113579766E+01 -0.11554449429E+01  0.62336349150E+01  0.51100000000E-03 0. -1.
        -11    1    3    3    0    0 -0.10045801830E+02 -0.26479677643E+01  0.52499962010E+01  0.11640117184E+02  0.51100000000E-03 0.  1.
        -12    1    3    3    0    0 -0.17834750934E+02  0.10973155430E+02  0.21361903001E+02  0.29913531734E+02  0.00000000000E+00 0.  1.
</event>
<event>
 7    1  0.2733256E-010  0.4778728E+02  0.7816164E-02  0.1312668E+00
        -11   -1    0    0    0    0  0.00000000000E+00  0.00000000000E+00  0.45593999997E+02  0.45594000000E+02  0.51100000000E-03 0. -1.
         11   -1    0    0    0    0 -0.00000000000E+00 -0.00000000000E+00 -0.45593999997E+02  0.45594000000E+02  0.51100000000E-03 0.  1.
    9900012    2    1    2    0    0 -0.89218767030E+01 -0.31334489298E+02 -0.28673550995E+02  0.47787278461E+02  0.20000033816E+02 0.  0.
         12    1    1    2    0    0  0.89218767030E+01  0.31334489298E+02  0.28673550995E+02  0.43400721539E+02  0.00000000000E+00 0. -1.
         11    1    3    3    0    0  0.24582507972E+00 -0.13618942706E+02 -0.16040355909E+01  0.13715282018E+02  0.51100000000E-03 0. -1.
        -11    1    3    3    0    0 -0.27469632805E+00 -0.58423719193E+01 -0.72216326162E+01  0.92930482415E+01  0.51100000000E-03 0.  1.
         12    1    3    3    0    0 -0.88930054547E+01 -0.11873174672E+02 -0.19847882788E+02  0.24778948201E+02  0.00000000000E+00 0. -1.
</event>
<event>
 7    1  0.2733256E-010  0.4778726E+02  0.7816164E-02  0.1312668E+00
        -11   -1    0    0    0    0  0.00000000000E+00  0.00000000000E+00  0.45593999997E+02  0.45594000000E+02  0.51100000000E-03 0. -1.
         11   -1    0    0    0    0 -0.00000000000E+00 -0.00000000000E+00 -0.45593999997E+02  0.45594000000E+02  0.51100000000E-03 0.  1.
    9900012    2    1    2    0    0 -0.34251698427E+02  0.23042721955E+02 -0.13396937146E+02  0.47787264924E+02  0.19999972096E+02 0.  0.
         12    1    1    2    0    0  0.34251698427E+02 -0.23042721955E+02  0.13396937146E+02  0.43400735076E+02  0.00000000000E+00 0. -1.
         11    1    3    3    0    0 -0.69441524858E+00  0.20893688859E+00  0.25147053987E+01  0.26171760859E+01  0.51100000000E-03 0. -1.
        -11    1    3    3    0    0 -0.92618568543E+00  0.31455673519E+01 -0.41433415695E+01  0.52839089235E+01  0.51100000000E-03 0.  1.
        -12    1    3    3    0    0 -0.32631097493E+02  0.19688217715E+02 -0.11768300975E+02  0.39886179915E+02  0.00000000000E+00 0.  1.
</event>
<event>
 7    1  0.2733256E-010  0.4778727E+02  0.7816164E-02  0.1312668E+00
        -11   -1    0    0    0    0  0.00000000000E+00  0.00000000000E+00  0.45593999997E+02  0.45594000000E+02  0.51100000000E-03 0.  1.
         11   -1    0    0    0    0 -0.00000000000E+00 -0.00000000000E+00 -0.45593999997E+02  0.45594000000E+02  0.51100000000E-03 0. -1.
    9900012    2    1    2    0    0 -0.25262753875E+02  0.31571984073E+02  0.15767895711E+02  0.47787269052E+02  0.19999990917E+02 0.  0.
         12    1    1    2    0    0  0.25262753875E+02 -0.31571984073E+02 -0.15767895711E+02  0.43400730948E+02  0.00000000000E+00 0. -1.
         11    1    3    3    0    0 -0.90134213891E+01 -0.40680696361E-01  0.57408512982E+01  0.10686477153E+02  0.51100000000E-03 0. -1.
        -11    1    3    3    0    0 -0.29219863637E+01  0.62747425684E+01  0.54884656874E+00  0.69434596151E+01  0.51100000000E-03 0.  1.
        -12    1    3    3    0    0 -0.13327346122E+02  0.25337922201E+02  0.94781978438E+01  0.30157332284E+02  0.00000000000E+00 0.  1.
</event>
<event>
 7    1  0.2733256E-010  0.4778731E+02  0.7816164E-02  0.1312668E+00
        -11   -1    0    0    0    0  0.00000000000E+00  0.00000000000E+00  0.45593999997E+02  0.45594000000E+02  0.51100000000E-03 0. -1.
         11   -1    0    0    0    0 -0.00000000000E+00 -0.00000000000E+00 -0.45593999997E+02  0.45594000000E+02  0.51100000000E-03 0.  1.
    9900012    2    1    2    0    0  0.19714170372E+01 -0.42802704641E+02 -0.69037667613E+01  0.47787308702E+02  0.20000171693E+02 0.  0.
         12    1    1    2    0    0 -0.19714170372E+01  0.42802704641E+02  0.69037667613E+01  0.43400691298E+02  0.00000000000E+00 0. -1.
         11    1    3    3    0    0 -0.55142261790E+00 -0.32966331339E+01 -0.16181159542E+01  0.37135099873E+01  0.51100000000E-03 0. -1.
        -11    1    3    3    0    0 -0.61568850353E+01 -0.23255759152E+02 -0.82115420382E+01  0.25419814909E+02  0.51100000000E-03 0.  1.
         12    1    3    3    0    0  0.86797246904E+01 -0.16250312354E+02  0.29258912312E+01  0.18653983806E+02  0.00000000000E+00 0. -1.
</event>
<event>
 7    1  0.2733256E-010  0.4778727E+02  0.7816164E-02  0.1312668E+00
        -11   -1    0    0    0    0  0.00000000000E+00  0.00000000000E+00  0.45593999997E+02  0.45594000000E+02  0.51100000000E-03 0.  1.
         11   -1    0    0    0    0 -0.00000000000E+00 -0.00000000000E+00 -0.45593999997E+02  0.45594000000E+02  0.51100000000E-03 0. -1.
    9900012    2    1    2    0    0  0.26230992432E+02 -0.30458724464E+02  0.16365344542E+02  0.47787270030E+02  0.19999995374E+02 0.  0.
         12    1    1    2    0    0 -0.26230992432E+02  0.30458724464E+02 -0.16365344542E+02  0.43400729970E+02  0.00000000000E+00 0. -1.
         11    1    3    3    0    0  0.50838693073E+01 -0.75829168816E+00  0.11930308549E+01  0.52767467534E+01  0.51100000000E-03 0. -1.
        -11    1    3    3    0    0  0.68940826359E+01 -0.59118099831E+01  0.11319626231E+02  0.14512470876E+02  0.51100000000E-03 0.  1.
        -12    1    3    3    0    0  0.14253040489E+02 -0.23788622793E+02  0.38526874563E+01  0.27998052400E+02  0.00000000000E+00 0.  1.
</event>
<event>
 7    1  0.2733256E-010  0.4778722E+02  0.7816164E-02  0.1312668E+00
        -11   -1    0    0    0    0  0.00000000000E+00  0.00000000000E+00  0.45593999997E+02  0.45594000000E+02  0.51100000000E-03 0. -1.
         11   -1    0    0    0    0 -0.00000000000E+00 -0.00000000000E+00 -0.45593999997E+02  0.45594000000E+02  0.51100000000E-03 0.  1.
    9900012    2    1    2    0    0  0.50420885515E+00  0.43393077835E+02  0.64374608468E+00  0.47787218444E+02  0.19999760174E+02 0.  0.
         12    1    1    2    0    0 -0.50420885515E+00 -0.43393077835E+02 -0.64374608468E+00  0.43400781556E+02  0.00000000000E+00 0. -1.
         11    1    3    3    0    0 -0.37238296416E+01  0.57688300549E+01  0.17280204812E+01  0.70804210642E+01  0.51100000000E-03 0. -1.
        -11    1    3    3    0    0 -0.45099572321E+01  0.18981498787E+02 -0.39902305913E+01  0.19913787959E+02  0.51100000000E-03 0.  1.
         12    1    3    3    0    0  0.87379957289E+01  0.18642748994E+02  0.29059561948E+01  0.20793009422E+02  0.00000000000E+00 0. -1.
</event>
<event>
 7    1  0.2733256E-010  0.4778727E+02  0.7816164E-02  0.1312668E+00
        -11   -1    0    0    0    0  0.00000000000E+00  0.00000000000E+00  0.45593999997E+02  0.45594000000E+02  0.51100000000E-03 0.  1.
         11   -1    0    0    0    0 -0.00000000000E+00 -0.00000000000E+00 -0.45593999997E+02  0.45594000000E+02  0.51100000000E-03 0. -1.
    9900012    2    1    2    0    0 -0.14607675829E+02 -0.13672201485E+02  0.38513767248E+02  0.47787267815E+02  0.19999985274E+02 0.  0.
         12    1    1    2    0    0  0.14607675829E+02  0.13672201485E+02 -0.38513767248E+02  0.43400732185E+02  0.00000000000E+00 0. -1.
         11    1    3    3    0    0 -0.39182472068E+01 -0.11434094915E+01  0.87249673344E+00  0.41738827547E+01  0.51100000000E-03 0. -1.
        -11    1    3    3    0    0 -0.14348369088E+02 -0.91996252479E+01  0.28075711013E+02  0.32844396012E+02  0.51100000000E-03 0.  1.
        -12    1    3    3    0    0  0.36589404659E+01 -0.33291667452E+01  0.95655595014E+01  0.10768989048E+02  0.00000000000E+00 0.  1.
</event>
<event>
 7    1  0.2733256E-010  0.4778726E+02  0.7816164E-02  0.1312668E+00
        -11   -1    0    0    0    0  0.00000000000E+00  0.00000000000E+00  0.45593999997E+02  0.45594000000E+02  0.51100000000E-03 0. -1.
         11   -1    0    0    0    0 -0.00000000000E+00 -0.00000000000E+00 -0.45593999997E+02  0.45594000000E+02  0.51100000000E-03 0.  1.
    9900012    2    1    2    0    0 -0.18344361864E+02  0.38674667339E+02 -0.71679102990E+01  0.47787257563E+02  0.19999938535E+02 0.  0.
         12    1    1    2    0    0  0.18344361864E+02 -0.38674667339E+02  0.71679102990E+01  0.43400742437E+02  0.00000000000E+00 0. -1.
         11    1    3    3    0    0  0.20171273126E+01  0.66997395303E+01 -0.18260241340E+01  0.72311601260E+01  0.51100000000E-03 0. -1.
        -11    1    3    3    0    0 -0.87158512358E+01  0.24384351148E+02 -0.62052097764E+01  0.26628317113E+02  0.51100000000E-03 0.  1.
         12    1    3    3    0    0 -0.11645637941E+02  0.75905766611E+01  0.86332361139E+00  0.13927780324E+02  0.00000000000E+00 0. -1.
</event>
<event>
 7    1  0.2733256E-010  0.4778727E+02  0.7816164E-02  0.1312668E+00
        -11   -1    0    0    0    0  0.00000000000E+00  0.00000000000E+00  0.45593999997E+02  0.45594000000E+02  0.51100000000E-03 0. -1.
         11   -1    0    0    0    0 -0.00000000000E+00 -0.00000000000E+00 -0.45593999997E+02  0.45594000000E+02  0.51100000000E-03 0.  1.
    9900012    2    1    2    0    0  0.13586872158E+02 -0.22228696591E+02 -0.34711742131E+02  0.47787273175E+02  0.20000009715E+02 0.  0.
         12    1    1    2    0    0 -0.13586872158E+02  0.22228696591E+02  0.34711742131E+02  0.43400726825E+02  0.00000000000E+00 0. -1.
         11    1    3    3    0    0  0.65080866916E+01 -0.10590520394E+02 -0.66930200396E+01  0.14117748833E+02  0.51100000000E-03 0. -1.
        -11    1    3    3    0    0  0.91607038066E+01 -0.11108947669E+02 -0.16271912701E+02  0.21727916507E+02  0.51100000000E-03 0.  1.
        -12    1    3    3    0    0 -0.20819183407E+01 -0.52922852753E+00 -0.11746809391E+02  0.11941607834E+02  0.00000000000E+00 0.  1.
</event>
<event>
 7    1  0.2733256E-010  0.4778726E+02  0.7816164E-02  0.1312668E+00
        -11   -1    0    0    0    0  0.00000000000E+00  0.00000000000E+00  0.45593999997E+02  0.45594000000E+02  0.51100000000E-03 0.  1.
         11   -1    0    0    0    0 -0.00000000000E+00 -0.00000000000E+00 -0.45593999997E+02  0.45594000000E+02  0.51100000000E-03 0. -1.
    9900012    2    1    2    0    0 -0.10144113958E+02 -0.41916257060E+02  0.48732095453E+01  0.47787264693E+02  0.19999971043E+02 0.  0.
         12    1    1    2    0    0  0.10144113958E+02  0.41916257060E+02 -0.48732095453E+01  0.43400735307E+02  0.00000000000E+00 0. -1.
         11    1    3    3    0    0  0.14969947221E+01 -0.15721700427E+02  0.39056247044E+01  0.16268582056E+02  0.51100000000E-03 0.  1.
        -11    1    3    3    0    0 -0.28534515201E+01 -0.74549144373E+00  0.33817448773E+01  0.44871083948E+01  0.51100000000E-03 0. -1.
        -12    1    3    3    0    0 -0.87876571602E+01 -0.25449065189E+02 -0.24141600364E+01  0.27031574243E+02  0.00000000000E+00 0.  1.
</event>
<event>
 7    1  0.2733256E-010  0.4778727E+02  0.7816164E-02  0.1312668E+00
        -11   -1    0    0    0    0  0.00000000000E+00  0.00000000000E+00  0.45593999997E+02  0.45594000000E+02  0.51100000000E-03 0. -1.
         11   -1    0    0    0    0 -0.00000000000E+00 -0.00000000000E+00 -0.45593999997E+02  0.45594000000E+02  0.51100000000E-03 0.  1.
    9900012    2    1    2    0    0 -0.23372538061E+02  0.70649597909E+01 -0.35880834290E+02  0.47787268882E+02  0.19999990139E+02 0.  0.
         12    1    1    2    0    0  0.23372538061E+02 -0.70649597909E+01  0.35880834290E+02  0.43400731118E+02  0.00000000000E+00 0. -1.
         11    1    3    3    0    0 -0.10024860222E+02  0.43721935747E+00 -0.11452671111E+02  0.15226708741E+02  0.51100000000E-03 0. -1.
        -11    1    3    3    0    0 -0.14851245523E+02  0.12302438922E+00 -0.16832984542E+02  0.22448251546E+02  0.51100000000E-03 0.  1.
         12    1    3    3    0    0  0.15035676843E+01  0.65047160442E+01 -0.75951786367E+01  0.10112308595E+02  0.00000000000E+00 0. -1.
</event>
<event>
 7    1  0.2733256E-010  0.4778729E+02  0.7816164E-02  0.1312668E+00
        -11   -1    0    0    0    0  0.00000000000E+00  0.00000000000E+00  0.45593999997E+02  0.45594000000E+02  0.51100000000E-03 0. -1.
         11   -1    0    0    0    0 -0.00000000000E+00 -0.00000000000E+00 -0.45593999997E+02  0.45594000000E+02  0.51100000000E-03 0.  1.
    9900012    2    1    2    0    0  0.31755171191E+02  0.29172820927E+02  0.49170518117E+01  0.47787288292E+02  0.20000078640E+02 0.  0.
         12    1    1    2    0    0 -0.31755171191E+02 -0.29172820927E+02 -0.49170518117E+01  0.43400711708E+02  0.00000000000E+00 0. -1.
         11    1    3    3    0    0  0.68433065610E+00  0.34468330945E+01 -0.18780776540E+01  0.39844877668E+01  0.51100000000E-03 0. -1.
        -11    1    3    3    0    0  0.12478962793E+02  0.19231123937E+02 -0.13454064737E+00  0.22925504176E+02  0.51100000000E-03 0.  1.
         12    1    3    3    0    0  0.18591877742E+02  0.64948638951E+01  0.69296701130E+01  0.20877296350E+02  0.00000000000E+00 0. -1.
</event>
<event>
 7    1  0.2733256E-010  0.4778727E+02  0.7816164E-02  0.1312668E+00
        -11   -1    0    0    0    0  0.00000000000E+00  0.00000000000E+00  0.45593999997E+02  0.45594000000E+02  0.51100000000E-03 0.  1.
         11   -1    0    0    0    0 -0.00000000000E+00 -0.00000000000E+00 -0.45593999997E+02  0.45594000000E+02  0.51100000000E-03 0. -1.
    9900012    2    1    2    0    0 -0.22736679305E+02  0.30948315078E+02  0.20220501608E+02  0.47787268701E+02  0.19999989316E+02 0.  0.
         12    1    1    2    0    0  0.22736679305E+02 -0.30948315078E+02 -0.20220501608E+02  0.43400731299E+02  0.00000000000E+00 0. -1.
         11    1    3    3    0    0  0.59656035463E+00  0.11493510519E+02  0.12200708718E+01  0.11573471454E+02  0.51100000000E-03 0. -1.
        -11    1    3    3    0    0 -0.23391751539E+01  0.29755790799E+00  0.93140759120E+00  0.25353109220E+01  0.51100000000E-03 0.  1.
        -12    1    3    3    0    0 -0.20994064506E+02  0.19157246651E+02  0.18069023145E+02  0.33678486325E+02  0.00000000000E+00 0.  1.
</event>
<event>
 7    1  0.2733256E-010  0.4778733E+02  0.7816164E-02  0.1312667E+00
        -11   -1    0    0    0    0  0.00000000000E+00  0.00000000000E+00  0.45593999997E+02  0.45594000000E+02  0.51100000000E-03 0. -1.
         11   -1    0    0    0    0 -0.00000000000E+00 -0.00000000000E+00 -0.45593999997E+02  0.45594000000E+02  0.51100000000E-03 0.  1.
    9900012    2    1    2    0    0 -0.21706701084E+02  0.32666881479E+02  0.18582574284E+02  0.47787330828E+02  0.20000272576E+02 0.  0.
         12    1    1    2    0    0  0.21706701084E+02 -0.32666881479E+02 -0.18582574284E+02  0.43400669172E+02  0.00000000000E+00 0. -1.
         11    1    3    3    0    0 -0.24749687774E+01  0.13205412242E+02  0.23264345974E+01  0.13635273416E+02  0.51100000000E-03 0. -1.
        -11    1    3    3    0    0 -0.19359380144E+02  0.20231372022E+02  0.13124886270E+02  0.30925016626E+02  0.51100000000E-03 0.  1.
         12    1    3    3    0    0  0.12764783764E+00 -0.76990278533E+00  0.31312534172E+01  0.32270407856E+01  0.00000000000E+00 0. -1.
</event>
<event>
 7    1  0.2733256E-010  0.4778727E+02  0.7816164E-02  0.1312668E+00
        -11   -1    0    0    0    0  0.00000000000E+00  0.00000000000E+00  0.45593999997E+02  0.45594000000E+02  0.51100000000E-03 0.  1.
         11   -1    0    0    0    0 -0.00000000000E+00 -0.00000000000E+00 -0.45593999997E+02  0.45594000000E+02  0.51100000000E-03 0. -1.
    9900012    2    1    2    0    0 -0.14596115619E+02 -0.22223801461E+02  0.34302758400E+02  0.47787272168E+02  0.20000005122E+02 0.  0.
         12    1    1    2    0    0  0.14596115619E+02  0.22223801461E+02 -0.34302758400E+02  0.43400727832E+02  0.00000000000E+00 0. -1.
         11    1    3    3    0    0 -0.94589233229E+01 -0.44563488064E+01  0.28343305366E+01  0.10833453049E+02  0.51100000000E-03 0.  1.
        -11    1    3    3    0    0 -0.67724865153E-01 -0.56717592345E+01  0.57082405631E+01  0.80472013805E+01  0.51100000000E-03 0. -1.
        -12    1    3    3    0    0 -0.50694674313E+01 -0.12095693420E+02  0.25760187300E+02  0.28906617738E+02  0.00000000000E+00 0.  1.
</event>
<event>
 7    1  0.2733256E-010  0.4778732E+02  0.7816164E-02  0.1312668E+00
        -11   -1    0    0    0    0  0.00000000000E+00  0.00000000000E+00  0.45593999997E+02  0.45594000000E+02  0.51100000000E-03 0. -1.
         11   -1    0    0    0    0 -0.00000000000E+00 -0.00000000000E+00 -0.45593999997E+02  0.45594000000E+02  0.51100000000E-03 0.  1.
    9900012    2    1    2    0    0 -0.29473827708E+02  0.20881115833E+02 -0.24060170902E+02  0.47787316341E+02  0.20000206526E+02 0.  0.
         12    1    1    2    0    0  0.29473827708E+02 -0.20881115833E+02  0.24060170902E+02  0.43400683659E+02  0.00000000000E+00 0. -1.
         11    1    3    3    0    0 -0.46129899073E+01  0.35669086211E+01  0.11508519911E+00  0.58323029637E+01  0.51100000000E-03 0. -1.
        -11    1    3    3    0    0 -0.84751392627E+01  0.15668911341E+02 -0.12998640907E+02  0.22052379324E+02  0.51100000000E-03 0.  1.
        -12    1    3    3    0    0 -0.16385698538E+02  0.16452958702E+01 -0.11176615194E+02  0.19902634054E+02  0.00000000000E+00 0.  1.
</event>
<event>
 7    1  0.2733256E-010  0.4778727E+02  0.7816164E-02  0.1312668E+00
        -11   -1    0    0    0    0  0.00000000000E+00  0.00000000000E+00  0.45593999997E+02  0.45594000000E+02  0.51100000000E-03 0. -1.
         11   -1    0    0    0    0 -0.00000000000E+00 -0.00000000000E+00 -0.45593999997E+02  0.45594000000E+02  0.51100000000E-03 0.  1.
    9900012    2    1    2    0    0 -0.23004796886E+02 -0.18809235106E+02 -0.31632500794E+02  0.47787272915E+02  0.20000008528E+02 0.  0.
         12    1    1    2    0    0  0.23004796886E+02  0.18809235106E+02  0.31632500794E+02  0.43400727085E+02  0.00000000000E+00 0. -1.
         11    1    3    3    0    0 -0.86306238623E+01 -0.13509902446E+02 -0.12590596909E+02  0.20384510373E+02  0.51100000000E-03 0. -1.
        -11    1    3    3    0    0 -0.91345284217E+01 -0.85643724529E+01 -0.83301440604E+01  0.15039261462E+02  0.51100000000E-03 0.  1.
         12    1    3    3    0    0 -0.52396446022E+01  0.32650397934E+01 -0.10711759825E+02  0.12363501080E+02  0.00000000000E+00 0. -1.
</event>
<event>
 7    1  0.2733256E-010  0.4778727E+02  0.7816164E-02  0.1312668E+00
        -11   -1    0    0    0    0  0.00000000000E+00  0.00000000000E+00  0.45593999997E+02  0.45594000000E+02  0.51100000000E-03 0.  1.
         11   -1    0    0    0    0 -0.00000000000E+00 -0.00000000000E+00 -0.45593999997E+02  0.45594000000E+02  0.51100000000E-03 0. -1.
    9900012    2    1    2    0    0 -0.36269485950E+02 -0.16371202082E+02  0.17324302460E+02  0.47787270463E+02  0.19999997348E+02 0.  0.
         12    1    1    2    0    0  0.36269485950E+02  0.16371202082E+02 -0.17324302460E+02  0.43400729537E+02  0.00000000000E+00 0. -1.
         11    1    3    3    0    0 -0.22000149888E+01  0.25492374595E+00  0.15114457620E+01  0.26813281447E+01  0.51100000000E-03 0. -1.
        -11    1    3    3    0    0 -0.22561650215E+02 -0.53840938757E+01  0.96749663312E+00  0.23215352189E+02  0.51100000000E-03 0.  1.
        -12    1    3    3    0    0 -0.11507820746E+02 -0.11242031952E+02  0.14845360065E+02  0.21890590129E+02  0.00000000000E+00 0.  1.
</event>
<event>
 7    1  0.2733256E-010  0.4778727E+02  0.7816164E-02  0.1312668E+00
        -11   -1    0    0    0    0  0.00000000000E+00  0.00000000000E+00  0.45593999997E+02  0.45594000000E+02  0.51100000000E-03 0.  1.
         11   -1    0    0    0    0 -0.00000000000E+00 -0.00000000000E+00 -0.45593999997E+02  0.45594000000E+02  0.51100000000E-03 0. -1.
    9900012    2    1    2    0    0  0.37959499950E+02 -0.25924482477E+01 -0.20880099806E+02  0.47787274288E+02  0.20000014788E+02 0.  0.
         12    1    1    2    0    0 -0.37959499950E+02  0.25924482477E+01  0.20880099806E+02  0.43400725712E+02  0.00000000000E+00 0. -1.
         11    1    3    3    0    0  0.59186893601E+01  0.66068301339E+01 -0.35683452965E+01  0.95610761202E+01  0.51100000000E-03 0. -1.
        -11    1    3    3    0    0  0.18693810894E+02 -0.23566486785E+01 -0.11878936030E+02  0.22273784596E+02  0.51100000000E-03 0.  1.
        -12    1    3    3    0    0  0.13346999696E+02 -0.68426297031E+01 -0.54328184798E+01  0.15952413572E+02  0.00000000000E+00 0.  1.
</event>
<event>
 7    1  0.2733256E-010  0.4778727E+02  0.7816164E-02  0.1312668E+00
        -11   -1    0    0    0    0  0.00000000000E+00  0.00000000000E+00  0.45593999997E+02  0.45594000000E+02  0.51100000000E-03 0.  1.
         11   -1    0    0    0    0 -0.00000000000E+00 -0.00000000000E+00 -0.45593999997E+02  0.45594000000E+02  0.51100000000E-03 0. -1.
    9900012    2    1    2    0    0  0.83448350030E+01  0.39823758255E+01  0.42404334313E+02  0.47787272391E+02  0.20000006141E+02 0.  0.
         12    1    1    2    0    0 -0.83448350030E+01 -0.39823758255E+01 -0.42404334313E+02  0.43400727609E+02  0.00000000000E+00 0. -1.
         11    1    3    3    0    0  0.23115037663E+01  0.80805301559E+01  0.16508621828E+02  0.18524918682E+02  0.51100000000E-03 0. -1.
        -11    1    3    3    0    0  0.84233330356E+01  0.18071660180E+00  0.13269746161E+02  0.15718503789E+02  0.51100000000E-03 0.  1.
        -12    1    3    3    0    0 -0.23900017990E+01 -0.42788709322E+01  0.12625966323E+02  0.13543849920E+02  0.00000000000E+00 0.  1.
</event>
<event>
 7    1  0.2733256E-010  0.4778727E+02  0.7816164E-02  0.1312668E+00
        -11   -1    0    0    0    0  0.00000000000E+00  0.00000000000E+00  0.45593999997E+02  0.45594000000E+02  0.51100000000E-03 0.  1.
         11   -1    0    0    0    0 -0.00000000000E+00 -0.00000000000E+00 -0.45593999997E+02  0.45594000000E+02  0.51100000000E-03 0. -1.
    9900012    2    1    2    0    0 -0.27809816236E+02  0.12726798322E+02  0.30793934151E+02  0.47787266652E+02  0.19999979975E+02 0.  0.
         12    1    1    2    0    0  0.27809816236E+02 -0.12726798322E+02 -0.30793934151E+02  0.43400733348E+02  0.00000000000E+00 0. -1.
         11    1    3    3    0    0 -0.13609332172E+01  0.51272260531E+01  0.15089637028E+01  0.55152115045E+01  0.51100000000E-03 0. -1.
        -11    1    3    3    0    0 -0.34525746727E+01  0.57953044568E+01  0.10703236137E+02  0.12651683274E+02  0.51100000000E-03 0.  1.
        -12    1    3    3    0    0 -0.22996308347E+02  0.18042678122E+01  0.18581734311E+02  0.29620371873E+02  0.00000000000E+00 0.  1.
</event>
<event>
 7    1  0.2733256E-010  0.4778726E+02  0.7816164E-02  0.1312668E+00
        -11   -1    0    0    0    0  0.00000000000E+00  0.00000000000E+00  0.45593999997E+02  0.45594000000E+02  0.51100000000E-03 0.  1.
         11   -1    0    0    0    0 -0.00000000000E+00 -0.00000000000E+00 -0.45593999997E+02  0.45594000000E+02  0.51100000000E-03 0. -1.
    9900012    2    1    2    0    0 -0.27283817154E+01 -0.44459657940E+01  0.43086113967E+02  0.47787263884E+02  0.19999967351E+02 0.  0.
         12    1    1    2    0    0  0.27283817154E+01  0.44459657940E+01 -0.43086113967E+02  0.43400736116E+02  0.00000000000E+00 0. -1.
         11    1    3    3    0    0 -0.76964818740E+01 -0.21617001596E+01  0.37793015217E+02  0.38629273618E+02  0.51100000000E-03 0. -1.
        -11    1    3    3    0    0  0.12539107273E+01 -0.14066875655E+01  0.49848024193E+01  0.53291009973E+01  0.51100000000E-03 0.  1.
         12    1    3    3    0    0  0.37141894314E+01 -0.87757806895E+00  0.30829633097E+00  0.38288892680E+01  0.00000000000E+00 0. -1.
</event>
<event>
 7    1  0.2733256E-010  0.4778727E+02  0.7816164E-02  0.1312668E+00
        -11   -1    0    0    0    0  0.00000000000E+00  0.00000000000E+00  0.45593999997E+02  0.45594000000E+02  0.51100000000E-03 0.  1.
         11   -1    0    0    0    0 -0.00000000000E+00 -0.00000000000E+00 -0.45593999997E+02  0.45594000000E+02  0.51100000000E-03 0. -1.
    9900012    2    1    2    0    0  0.39821599142E+02 -0.14804135041E+02  0.88713479900E+01  0.47787274341E+02  0.20000015032E+02 0.  0.
         12    1    1    2    0    0 -0.39821599142E+02  0.14804135041E+02 -0.88713479900E+01  0.43400725659E+02  0.00000000000E+00 0. -1.
         11    1    3    3    0    0 -0.98245333962E-01 -0.13999129057E+01 -0.52528779579E+00  0.14984444663E+01  0.51100000000E-03 0. -1.
        -11    1    3    3    0    0 -0.37744100610E+00 -0.36525067126E+01  0.19749427672E+01  0.41693723980E+01  0.51100000000E-03 0.  1.
        -12    1    3    3    0    0  0.40297285482E+02 -0.97517154228E+01  0.74216930186E+01  0.42119457477E+02  0.00000000000E+00 0.  1.
</event>
<event>
 7    1  0.2733256E-010  0.4778727E+02  0.7816164E-02  0.1312668E+00
        -11   -1    0    0    0    0  0.00000000000E+00  0.00000000000E+00  0.45593999997E+02  0.45594000000E+02  0.51100000000E-03 0.  1.
         11   -1    0    0    0    0 -0.00000000000E+00 -0.00000000000E+00 -0.45593999997E+02  0.45594000000E+02  0.51100000000E-03 0. -1.
    9900012    2    1    2    0    0  0.22134238359E+02 -0.32083520434E+02  0.19087866181E+02  0.47787269286E+02  0.19999991983E+02 0.  0.
         12    1    1    2    0    0 -0.22134238359E+02  0.32083520434E+02 -0.19087866181E+02  0.43400730714E+02  0.00000000000E+00 0. -1.
         11    1    3    3    0    0  0.10392320421E+02 -0.36956952302E+01  0.47364848340E+01  0.12003865036E+02  0.51100000000E-03 0. -1.
        -11    1    3    3    0    0  0.67842146460E+01 -0.60399849841E+01  0.65334029232E+00  0.91068018958E+01  0.51100000000E-03 0.  1.
        -12    1    3    3    0    0  0.49577032916E+01 -0.22347840220E+02  0.13698041055E+02  0.26676602354E+02  0.00000000000E+00 0.  1.
</event>
<event>
 7    1  0.2733256E-010  0.4778727E+02  0.7816164E-02  0.1312668E+00
        -11   -1    0    0    0    0  0.00000000000E+00  0.00000000000E+00  0.45593999997E+02  0.45594000000E+02  0.51100000000E-03 0. -1.
         11   -1    0    0    0    0 -0.00000000000E+00 -0.00000000000E+00 -0.45593999997E+02  0.45594000000E+02  0.51100000000E-03 0.  1.
    9900012    2    1    2    0    0  0.37277927288E+02  0.16412843286E+02  0.14986594646E+02  0.47787270666E+02  0.19999998275E+02 0.  0.
         12    1    1    2    0    0 -0.37277927288E+02 -0.16412843286E+02 -0.14986594646E+02  0.43400729334E+02  0.00000000000E+00 0. -1.
         11    1    3    3    0    0  0.15981742025E+02  0.62615449953E+01  0.12369326795E+02  0.21157109195E+02  0.51100000000E-03 0. -1.
        -11    1    3    3    0    0  0.15972461401E+02  0.12062712672E+02  0.47728423072E+01  0.20576894425E+02  0.51100000000E-03 0.  1.
         12    1    3    3    0    0  0.53237238619E+01 -0.19114143812E+01 -0.21555744563E+01  0.60532670461E+01  0.00000000000E+00 0. -1.
</event>
<event>
 7    1  0.2733256E-010  0.4778727E+02  0.7816164E-02  0.1312668E+00
        -11   -1    0    0    0    0  0.00000000000E+00  0.00000000000E+00  0.45593999997E+02  0.45594000000E+02  0.51100000000E-03 0. -1.
         11   -1    0    0    0    0 -0.00000000000E+00 -0.00000000000E+00 -0.45593999997E+02  0.45594000000E+02  0.51100000000E-03 0.  1.
    9900012    2    1    2    0    0 -0.19650866159E+02 -0.38621344270E+02 -0.24204904943E+01  0.47787267883E+02  0.19999985586E+02 0.  0.
         12    1    1    2    0    0  0.19650866159E+02  0.38621344270E+02  0.24204904943E+01  0.43400732117E+02  0.00000000000E+00 0. -1.
         11    1    3    3    0    0 -0.13624138650E+02 -0.24669988658E+02  0.71652035229E+01  0.29078611317E+02  0.51100000000E-03 0. -1.
        -11    1    3    3    0    0 -0.32818927900E+01 -0.21453854887E+01 -0.19053105074E+01  0.43593242103E+01  0.51100000000E-03 0.  1.
         12    1    3    3    0    0 -0.27448347183E+01 -0.11805970123E+02 -0.76803835098E+01  0.14349332355E+02  0.00000000000E+00 0. -1.
</event>
<event>
 7    1  0.2733256E-010  0.4778727E+02  0.7816164E-02  0.1312668E+00
        -11   -1    0    0    0    0  0.00000000000E+00  0.00000000000E+00  0.45593999997E+02  0.45594000000E+02  0.51100000000E-03 0.  1.
         11   -1    0    0    0    0 -0.00000000000E+00 -0.00000000000E+00 -0.45593999997E+02  0.45594000000E+02  0.51100000000E-03 0. -1.
    9900012    2    1    2    0    0  0.36111260782E+02 -0.24067493585E+02 -0.59646394088E+00  0.47787272218E+02  0.20000005351E+02 0.  0.
         12    1    1    2    0    0 -0.36111260782E+02  0.24067493585E+02  0.59646394088E+00  0.43400727782E+02  0.00000000000E+00 0. -1.
         11    1    3    3    0    0  0.23903346592E+02 -0.93344786464E+01  0.12926602693E+01  0.25693840521E+02  0.51100000000E-03 0. -1.
        -11    1    3    3    0    0  0.96373077686E+01 -0.80824206784E+01  0.36137931705E+01  0.13086738570E+02  0.51100000000E-03 0.  1.
         12    1    3    3    0    0  0.25706064219E+01 -0.66505942604E+01 -0.55029173807E+01  0.90066931274E+01  0.00000000000E+00 0. -1.
</event>
<event>
 7    1  0.2733256E-010  0.4778724E+02  0.7816164E-02  0.1312668E+00
        -11   -1    0    0    0    0  0.00000000000E+00  0.00000000000E+00  0.45593999997E+02  0.45594000000E+02  0.51100000000E-03 0.  1.
         11   -1    0    0    0    0 -0.00000000000E+00 -0.00000000000E+00 -0.45593999997E+02  0.45594000000E+02  0.51100000000E-03 0. -1.
    9900012    2    1    2    0    0 -0.27217887545E+02  0.39052237510E+01  0.33579190549E+02  0.47787237185E+02  0.19999845622E+02 0.  0.
         12    1    1    2    0    0  0.27217887545E+02 -0.39052237510E+01 -0.33579190549E+02  0.43400762815E+02  0.00000000000E+00 0. -1.
         11    1    3    3    0    0 -0.76130438783E+01  0.51615852328E+01  0.58615932911E+01  0.10906817839E+02  0.51100000000E-03 0.  1.
        -11    1    3    3    0    0 -0.10744683342E+02  0.62997345115E+01  0.11793150836E+02  0.17152646499E+02  0.51100000000E-03 0. -1.
         12    1    3    3    0    0 -0.88601603252E+01 -0.75560959933E+01  0.15924446422E+02  0.19727772847E+02  0.00000000000E+00 0. -1.
</event>
<event>
 7    1  0.2733256E-010  0.4778727E+02  0.7816164E-02  0.1312668E+00
        -11   -1    0    0    0    0  0.00000000000E+00  0.00000000000E+00  0.45593999997E+02  0.45594000000E+02  0.51100000000E-03 0. -1.
         11   -1    0    0    0    0 -0.00000000000E+00 -0.00000000000E+00 -0.45593999997E+02  0.45594000000E+02  0.51100000000E-03 0.  1.
    9900012    2    1    2    0    0 -0.91009604369E+00 -0.41843234700E+02 -0.11486465031E+02  0.47787269085E+02  0.19999991068E+02 0.  0.
         12    1    1    2    0    0  0.91009604369E+00  0.41843234700E+02  0.11486465031E+02  0.43400730915E+02  0.00000000000E+00 0. -1.
         11    1    3    3    0    0 -0.79767493760E+00 -0.68493702008E+00 -0.20402256522E+01  0.22952004271E+01  0.51100000000E-03 0. -1.
        -11    1    3    3    0    0 -0.20464045584E+01 -0.30055457185E+02  0.97707478160E+00  0.30140885083E+02  0.51100000000E-03 0.  1.
        -12    1    3    3    0    0  0.19339834523E+01 -0.11102840496E+02 -0.10423314161E+02  0.15351183575E+02  0.00000000000E+00 0.  1.
</event>
<event>
 7    1  0.2733256E-010  0.4778727E+02  0.7816164E-02  0.1312668E+00
        -11   -1    0    0    0    0  0.00000000000E+00  0.00000000000E+00  0.45593999997E+02  0.45594000000E+02  0.51100000000E-03 0.  1.
         11   -1    0    0    0    0 -0.00000000000E+00 -0.00000000000E+00 -0.45593999997E+02  0.45594000000E+02  0.51100000000E-03 0. -1.
    9900012    2    1    2    0    0  0.42566063844E+02  0.50509754158E+01  0.68000962982E+01  0.47787268975E+02  0.19999990566E+02 0.  0.
         12    1    1    2    0    0 -0.42566063844E+02 -0.50509754158E+01 -0.68000962982E+01  0.43400731025E+02  0.00000000000E+00 0. -1.
         11    1    3    3    0    0  0.12442358857E+02 -0.10279973486E+01  0.28389558483E+01  0.12803466056E+02  0.51100000000E-03 0. -1.
        -11    1    3    3    0    0  0.26804760560E+02  0.24221114253E+01 -0.22970202048E+01  0.27011814351E+02  0.51100000000E-03 0.  1.
         12    1    3    3    0    0  0.33189444271E+01  0.36568613391E+01  0.62581606547E+01  0.79719885690E+01  0.00000000000E+00 0. -1.
</event>
<event>
 7    1  0.2733256E-010  0.4778728E+02  0.7816164E-02  0.1312668E+00
        -11   -1    0    0    0    0  0.00000000000E+00  0.00000000000E+00  0.45593999997E+02  0.45594000000E+02  0.51100000000E-03 0.  1.
         11   -1    0    0    0    0 -0.00000000000E+00 -0.00000000000E+00 -0.45593999997E+02  0.45594000000E+02  0.51100000000E-03 0. -1.
    9900012    2    1    2    0    0 -0.13407285046E+02  0.30229885554E+02  0.28107310159E+02  0.47787283908E+02  0.20000058651E+02 0.  0.
         12    1    1    2    0    0  0.13407285046E+02 -0.30229885554E+02 -0.28107310159E+02  0.43400716092E+02  0.00000000000E+00 0. -1.
         11    1    3    3    0    0 -0.13921161749E+01 -0.10980389062E+01  0.18182341896E+01  0.25396166469E+01  0.51100000000E-03 0. -1.
        -11    1    3    3    0    0 -0.59651858314E+01  0.10523181640E+02  0.18737551526E+02  0.22302839085E+02  0.51100000000E-03 0.  1.
         12    1    3    3    0    0 -0.60499830393E+01  0.20804742820E+02  0.75515244440E+01  0.22944828176E+02  0.00000000000E+00 0. -1.
</event>
<event>
 7    1  0.2733256E-010  0.4778727E+02  0.7816164E-02  0.1312668E+00
        -11   -1    0    0    0    0  0.00000000000E+00  0.00000000000E+00  0.45593999997E+02  0.45594000000E+02  0.51100000000E-03 0. -1.
         11   -1    0    0    0    0 -0.00000000000E+00 -0.00000000000E+00 -0.45593999997E+02  0.45594000000E+02  0.51100000000E-03 0.  1.
    9900012    2    1    2    0    0 -0.32714915970E+02  0.24753108386E+02  0.14164787728E+02  0.47787270593E+02  0.19999997941E+02 0.  0.
         12    1    1    2    0    0  0.32714915970E+02 -0.24753108386E+02 -0.14164787728E+02  0.43400729407E+02  0.00000000000E+00 0. -1.
         11    1    3    3    0    0 -0.14253359377E+02  0.59832700042E+01  0.31194978708E+01  0.15769877637E+02  0.51100000000E-03 0. -1.
        -11    1    3    3    0    0 -0.20902819897E+02  0.16226735515E+02  0.90502587257E+01  0.27966801897E+02  0.51100000000E-03 0.  1.
         12    1    3    3    0    0  0.24412633031E+01  0.25431028665E+01  0.19950311314E+01  0.40505910581E+01  0.00000000000E+00 0. -1.
</event>
<event>
 7    1  0.2733256E-010  0.4778727E+02  0.7816164E-02  0.1312668E+00
        -11   -1    0    0    0    0  0.00000000000E+00  0.00000000000E+00  0.45593999997E+02  0.45594000000E+02  0.51100000000E-03 0. -1.
         11   -1    0    0    0    0 -0.00000000000E+00 -0.00000000000E+00 -0.45593999997E+02  0.45594000000E+02  0.51100000000E-03 0.  1.
    9900012    2    1    2    0    0  0.17163031792E+02 -0.37563941501E+02 -0.13341817515E+02  0.47787268946E+02  0.19999990432E+02 0.  0.
         12    1    1    2    0    0 -0.17163031792E+02  0.37563941501E+02  0.13341817515E+02  0.43400731054E+02  0.00000000000E+00 0. -1.
         11    1    3    3    0    0 -0.64394382261E+00 -0.89403837174E+00 -0.58414893677E+01  0.59444904366E+01  0.51100000000E-03 0. -1.
        -11    1    3    3    0    0  0.64285852651E+01 -0.11362404667E+02 -0.50109883869E+01  0.13983595861E+02  0.51100000000E-03 0.  1.
         12    1    3    3    0    0  0.11378390350E+02 -0.25307498463E+02 -0.24893397602E+01  0.27859182648E+02  0.00000000000E+00 0. -1.
</event>
<event>
 7    1  0.2733256E-010  0.4778727E+02  0.7816164E-02  0.1312668E+00
        -11   -1    0    0    0    0  0.00000000000E+00  0.00000000000E+00  0.45593999997E+02  0.45594000000E+02  0.51100000000E-03 0. -1.
         11   -1    0    0    0    0 -0.00000000000E+00 -0.00000000000E+00 -0.45593999997E+02  0.45594000000E+02  0.51100000000E-03 0.  1.
    9900012    2    1    2    0    0 -0.37329112892E+02  0.13196472211E+02 -0.17776783301E+02  0.47787267602E+02  0.19999984305E+02 0.  0.
         12    1    1    2    0    0  0.37329112892E+02 -0.13196472211E+02  0.17776783301E+02  0.43400732398E+02  0.00000000000E+00 0. -1.
         11    1    3    3    0    0  0.12345906808E+01  0.19538214564E+01  0.70542923312E+00  0.24164567236E+01  0.51100000000E-03 0. -1.
        -11    1    3    3    0    0 -0.47593707588E+01  0.49345931678E+01 -0.14988162590E+01  0.70177111789E+01  0.51100000000E-03 0.  1.
        -12    1    3    3    0    0 -0.33804332814E+02  0.63080575866E+01 -0.16983396275E+02  0.38353099700E+02  0.00000000000E+00 0.  1.
</event>
<event>
 7    1  0.2733256E-010  0.4778727E+02  0.7816164E-02  0.1312668E+00
        -11   -1    0    0    0    0  0.00000000000E+00  0.00000000000E+00  0.45593999997E+02  0.45594000000E+02  0.51100000000E-03 0. -1.
         11   -1    0    0    0    0 -0.00000000000E+00 -0.00000000000E+00 -0.45593999997E+02  0.45594000000E+02  0.51100000000E-03 0.  1.
    9900012    2    1    2    0    0 -0.25743800408E+01 -0.32860824434E+02 -0.28234061911E+02  0.47787268819E+02  0.19999989852E+02 0.  0.
         12    1    1    2    0    0  0.25743800408E+01  0.32860824434E+02  0.28234061911E+02  0.43400731181E+02  0.00000000000E+00 0. -1.
         11    1    3    3    0    0 -0.95124598715E+01 -0.75764839944E+01 -0.78891104574E+01  0.14495794790E+02  0.51100000000E-03 0.  1.
        -11    1    3    3    0    0  0.18078092139E+01 -0.57772457280E+01 -0.33675459134E+01  0.69271284163E+01  0.51100000000E-03 0. -1.
        -12    1    3    3    0    0  0.51302706168E+01 -0.19507094712E+02 -0.16977405540E+02  0.26364345612E+02  0.00000000000E+00 0.  1.
</event>
<event>
 7    1  0.2733256E-010  0.4778727E+02  0.7816164E-02  0.1312668E+00
        -11   -1    0    0    0    0  0.00000000000E+00  0.00000000000E+00  0.45593999997E+02  0.45594000000E+02  0.51100000000E-03 0. -1.
         11   -1    0    0    0    0 -0.00000000000E+00 -0.00000000000E+00 -0.45593999997E+02  0.45594000000E+02  0.51100000000E-03 0.  1.
    9900012    2    1    2    0    0 -0.27276293850E+02 -0.33620941079E+02  0.30429586035E+01  0.47787268643E+02  0.19999989052E+02 0.  0.
         12    1    1    2    0    0  0.27276293850E+02  0.33620941079E+02 -0.30429586035E+01  0.43400731357E+02  0.00000000000E+00 0. -1.
         11    1    3    3    0    0 -0.35653089098E+01 -0.11578973546E+02  0.76209212920E+01  0.14313018466E+02  0.51100000000E-03 0. -1.
        -11    1    3    3    0    0  0.13403216524E+00  0.30059832097E+00 -0.42052769427E+00  0.53401102485E+00  0.51100000000E-03 0.  1.
        -12    1    3    3    0    0 -0.23845017105E+02 -0.22342565854E+02 -0.41574349942E+01  0.32940239153E+02  0.00000000000E+00 0.  1.
</event>
<event>
 7    1  0.2733256E-010  0.4778734E+02  0.7816164E-02  0.1312667E+00
        -11   -1    0    0    0    0  0.00000000000E+00  0.00000000000E+00  0.45593999997E+02  0.45594000000E+02  0.51100000000E-03 0.  1.
         11   -1    0    0    0    0 -0.00000000000E+00 -0.00000000000E+00 -0.45593999997E+02  0.45594000000E+02  0.51100000000E-03 0. -1.
    9900012    2    1    2    0    0 -0.38433264938E+02 -0.20159276314E+02  0.32459611148E+00  0.47787335973E+02  0.20000296035E+02 0.  0.
         12    1    1    2    0    0  0.38433264938E+02  0.20159276314E+02 -0.32459611148E+00  0.43400664027E+02  0.00000000000E+00 0. -1.
         11    1    3    3    0    0 -0.17833100400E+01  0.18247096438E+01 -0.19406442582E+00  0.25587929274E+01  0.51100000000E-03 0. -1.
        -11    1    3    3    0    0 -0.44285848792E+01  0.19616956158E+01  0.15034153048E+01  0.50715748601E+01  0.51100000000E-03 0.  1.
        -12    1    3    3    0    0 -0.32221370019E+02 -0.23945681574E+02 -0.98475476752E+00  0.40156968186E+02  0.00000000000E+00 0.  1.
</event>
<event>
 7    1  0.2733256E-010  0.4778726E+02  0.7816164E-02  0.1312668E+00
        -11   -1    0    0    0    0  0.00000000000E+00  0.00000000000E+00  0.45593999997E+02  0.45594000000E+02  0.51100000000E-03 0.  1.
         11   -1    0    0    0    0 -0.00000000000E+00 -0.00000000000E+00 -0.45593999997E+02  0.45594000000E+02  0.51100000000E-03 0. -1.
    9900012    2    1    2    0    0 -0.14201444966E+02 -0.38094332063E+02  0.15190946927E+02  0.47787262183E+02  0.19999959599E+02 0.  0.
         12    1    1    2    0    0  0.14201444966E+02  0.38094332063E+02 -0.15190946927E+02  0.43400737817E+02  0.00000000000E+00 0. -1.
         11    1    3    3    0    0 -0.13622103029E+02 -0.17864952768E+02  0.95731869887E+01  0.24420567924E+02  0.51100000000E-03 0. -1.
        -11    1    3    3    0    0 -0.48735783262E+01 -0.98899973342E+01  0.51293953062E+01  0.12160366337E+02  0.51100000000E-03 0.  1.
        -12    1    3    3    0    0  0.42942363891E+01 -0.10339381961E+02  0.48836463209E+00  0.11206327923E+02  0.00000000000E+00 0.  1.
</event>
<event>
 7    1  0.2733256E-010  0.4778727E+02  0.7816164E-02  0.1312668E+00
        -11   -1    0    0    0    0  0.00000000000E+00  0.00000000000E+00  0.45593999997E+02  0.45594000000E+02  0.51100000000E-03 0. -1.
         11   -1    0    0    0    0 -0.00000000000E+00 -0.00000000000E+00 -0.45593999997E+02  0.45594000000E+02  0.51100000000E-03 0.  1.
    9900012    2    1    2    0    0  0.29294233991E+02 -0.17988133196E+02 -0.26493356858E+02  0.47787273755E+02  0.20000012357E+02 0.  0.
         12    1    1    2    0    0 -0.29294233991E+02  0.17988133196E+02  0.26493356858E+02  0.43400726245E+02  0.00000000000E+00 0. -1.
         11    1    3    3    0    0  0.84421348729E+01 -0.83231929023E+01 -0.32146775098E+01  0.12283294878E+02  0.51100000000E-03 0.  1.
        -11    1    3    3    0    0  0.56693378977E+01 -0.10043731170E+02 -0.86458234202E+01  0.14414166326E+02  0.51100000000E-03 0. -1.
        -12    1    3    3    0    0  0.15182761221E+02  0.37879087609E+00 -0.14632855928E+02  0.21089812551E+02  0.00000000000E+00 0.  1.
</event>
<event>
 7    1  0.2733256E-010  0.4778727E+02  0.7816164E-02  0.1312668E+00
        -11   -1    0    0    0    0  0.00000000000E+00  0.00000000000E+00  0.45593999997E+02  0.45594000000E+02  0.51100000000E-03 0.  1.
         11   -1    0    0    0    0 -0.00000000000E+00 -0.00000000000E+00 -0.45593999997E+02  0.45594000000E+02  0.51100000000E-03 0. -1.
    9900012    2    1    2    0    0 -0.36726681301E+01 -0.33660033450E+02  0.27150263437E+02  0.47787272498E+02  0.20000006626E+02 0.  0.
         12    1    1    2    0    0  0.36726681301E+01  0.33660033450E+02 -0.27150263437E+02  0.43400727502E+02  0.00000000000E+00 0. -1.
         11    1    3    3    0    0 -0.69988388518E+00 -0.19314496725E+02  0.17034172881E+02  0.25762427432E+02  0.51100000000E-03 0. -1.
        -11    1    3    3    0    0 -0.86051635401E+00 -0.15803128889E+02  0.11040633984E+02  0.19297019721E+02  0.51100000000E-03 0.  1.
         12    1    3    3    0    0 -0.21122678909E+01  0.14575921646E+01 -0.92454342772E+00  0.27278253447E+01  0.00000000000E+00 0. -1.
</event>
<event>
 7    1  0.2733256E-010  0.4778727E+02  0.7816164E-02  0.1312668E+00
        -11   -1    0    0    0    0  0.00000000000E+00  0.00000000000E+00  0.45593999997E+02  0.45594000000E+02  0.51100000000E-03 0.  1.
         11   -1    0    0    0    0 -0.00000000000E+00 -0.00000000000E+00 -0.45593999997E+02  0.45594000000E+02  0.51100000000E-03 0. -1.
    9900012    2    1    2    0    0 -0.37743534382E+02 -0.93774429275E+01  0.19264280525E+02  0.47787270425E+02  0.19999997177E+02 0.  0.
         12    1    1    2    0    0  0.37743534382E+02  0.93774429275E+01 -0.19264280525E+02  0.43400729575E+02  0.00000000000E+00 0. -1.
         11    1    3    3    0    0 -0.66447035449E+01 -0.55795036933E+01  0.89402003174E+01  0.12458335709E+02  0.51100000000E-03 0. -1.
        -11    1    3    3    0    0 -0.22831231609E+02 -0.40896388013E+01  0.13056080890E+02  0.26616752822E+02  0.51100000000E-03 0.  1.
         12    1    3    3    0    0 -0.82675992280E+01  0.29169956713E+00 -0.27320006827E+01  0.87121818945E+01  0.00000000000E+00 0. -1.
</event>
<event>
 7    1  0.2733256E-010  0.4778727E+02  0.7816164E-02  0.1312668E+00
        -11   -1    0    0    0    0  0.00000000000E+00  0.00000000000E+00  0.45593999997E+02  0.45594000000E+02  0.51100000000E-03 0.  1.
         11   -1    0    0    0    0 -0.00000000000E+00 -0.00000000000E+00 -0.45593999997E+02  0.45594000000E+02  0.51100000000E-03 0. -1.
    9900012    2    1    2    0    0 -0.11984346380E+02 -0.15173778468E+02  0.38855569837E+02  0.47787269379E+02  0.19999992405E+02 0.  0.
         12    1    1    2    0    0  0.11984346380E+02  0.15173778468E+02 -0.38855569837E+02  0.43400730621E+02  0.00000000000E+00 0. -1.
         11    1    3    3    0    0 -0.13747765505E+01 -0.16832696708E+01  0.79603250091E+01  0.82516775179E+01  0.51100000000E-03 0. -1.
        -11    1    3    3    0    0 -0.12996737252E+02 -0.11784985982E+02  0.31923496371E+02  0.36426785400E+02  0.51100000000E-03 0.  1.
         12    1    3    3    0    0  0.23871674222E+01 -0.17055228153E+01 -0.10282515432E+01  0.31088064608E+01  0.00000000000E+00 0. -1.
</event>
<event>
 7    1  0.2733256E-010  0.4778727E+02  0.7816164E-02  0.1312668E+00
        -11   -1    0    0    0    0  0.00000000000E+00  0.00000000000E+00  0.45593999997E+02  0.45594000000E+02  0.51100000000E-03 0.  1.
         11   -1    0    0    0    0 -0.00000000000E+00 -0.00000000000E+00 -0.45593999997E+02  0.45594000000E+02  0.51100000000E-03 0. -1.
    9900012    2    1    2    0    0  0.34420836516E+02  0.25746454150E+02 -0.59957776598E+01  0.47787271463E+02  0.20000001909E+02 0.  0.
         12    1    1    2    0    0 -0.34420836516E+02 -0.25746454150E+02  0.59957776598E+01  0.43400728537E+02  0.00000000000E+00 0. -1.
         11    1    3    3    0    0  0.11214176964E+02  0.14436015315E+02 -0.94541012353E+01  0.20579998386E+02  0.51100000000E-03 0.  1.
        -11    1    3    3    0    0  0.11300072627E+02  0.47813194181E+01 -0.22542449883E+01  0.12475346788E+02  0.51100000000E-03 0. -1.
        -12    1    3    3    0    0  0.11906586926E+02  0.65291194169E+01  0.57125685638E+01  0.14731926289E+02  0.00000000000E+00 0.  1.
</event>
<event>
 7    1  0.2733256E-010  0.4778728E+02  0.7816164E-02  0.1312668E+00
        -11   -1    0    0    0    0  0.00000000000E+00  0.00000000000E+00  0.45593999997E+02  0.45594000000E+02  0.51100000000E-03 0. -1.
         11   -1    0    0    0    0 -0.00000000000E+00 -0.00000000000E+00 -0.45593999997E+02  0.45594000000E+02  0.51100000000E-03 0.  1.
    9900012    2    1    2    0    0 -0.57735293634E+01  0.32342065871E+02  0.28359829587E+02  0.47787276500E+02  0.20000024875E+02 0.  0.
         12    1    1    2    0    0  0.57735293634E+01 -0.32342065871E+02 -0.28359829587E+02  0.43400723500E+02  0.00000000000E+00 0. -1.
         11    1    3    3    0    0  0.33748282378E+01  0.54595902236E+01  0.23092888125E+01  0.68212466694E+01  0.51100000000E-03 0. -1.
        -11    1    3    3    0    0 -0.35309160761E+01  0.18448781248E+02  0.83193149075E+01  0.20543512325E+02  0.51100000000E-03 0.  1.
         12    1    3    3    0    0 -0.56174415251E+01  0.84336943992E+01  0.17731225867E+02  0.20422517505E+02  0.00000000000E+00 0. -1.
</event>
<event>
 7    1  0.2733256E-010  0.4778725E+02  0.7816164E-02  0.1312668E+00
        -11   -1    0    0    0    0  0.00000000000E+00  0.00000000000E+00  0.45593999997E+02  0.45594000000E+02  0.51100000000E-03 0.  1.
         11   -1    0    0    0    0 -0.00000000000E+00 -0.00000000000E+00 -0.45593999997E+02  0.45594000000E+02  0.51100000000E-03 0. -1.
    9900012    2    1    2    0    0  0.43130019423E+02 -0.43454103887E+01 -0.21316606251E+01  0.47787249501E+02  0.19999901774E+02 0.  0.
         12    1    1    2    0    0 -0.43130019423E+02  0.43454103887E+01  0.21316606251E+01  0.43400750499E+02  0.00000000000E+00 0. -1.
         11    1    3    3    0    0  0.24562438118E+00 -0.13387917911E+01  0.27219810274E+01  0.30433330037E+01  0.51100000000E-03 0. -1.
        -11    1    3    3    0    0  0.24106391417E+02 -0.71221111502E+01 -0.43742137653E+01  0.25514237608E+02  0.51100000000E-03 0.  1.
         12    1    3    3    0    0  0.18778003625E+02  0.41154925526E+01 -0.47942788713E+00  0.19229678889E+02  0.00000000000E+00 0. -1.
</event>
<event>
 7    1  0.2733256E-010  0.4778729E+02  0.7816164E-02  0.1312668E+00
        -11   -1    0    0    0    0  0.00000000000E+00  0.00000000000E+00  0.45593999997E+02  0.45594000000E+02  0.51100000000E-03 0.  1.
         11   -1    0    0    0    0 -0.00000000000E+00 -0.00000000000E+00 -0.45593999997E+02  0.45594000000E+02  0.51100000000E-03 0. -1.
    9900012    2    1    2    0    0 -0.26794078085E+02 -0.17413454283E+02  0.29367852808E+02  0.47787288151E+02  0.20000077994E+02 0.  0.
         12    1    1    2    0    0  0.26794078085E+02  0.17413454283E+02 -0.29367852808E+02  0.43400711849E+02  0.00000000000E+00 0. -1.
         11    1    3    3    0    0 -0.65942188734E+01 -0.81540416393E+01  0.60879029702E+01  0.12125785766E+02  0.51100000000E-03 0. -1.
        -11    1    3    3    0    0 -0.17833131252E+02 -0.57692589457E+01  0.90381070192E+01  0.20808466973E+02  0.51100000000E-03 0.  1.
        -12    1    3    3    0    0 -0.23667279596E+01 -0.34901536983E+01  0.14241842819E+02  0.14853035412E+02  0.00000000000E+00 0.  1.
</event>
<event>
 7    1  0.2733256E-010  0.4778727E+02  0.7816164E-02  0.1312668E+00
        -11   -1    0    0    0    0  0.00000000000E+00  0.00000000000E+00  0.45593999997E+02  0.45594000000E+02  0.51100000000E-03 0.  1.
         11   -1    0    0    0    0 -0.00000000000E+00 -0.00000000000E+00 -0.45593999997E+02  0.45594000000E+02  0.51100000000E-03 0. -1.
    9900012    2    1    2    0    0 -0.17552884517E+02  0.19391381813E+02  0.34633710750E+02  0.47787270009E+02  0.19999995277E+02 0.  0.
         12    1    1    2    0    0  0.17552884517E+02 -0.19391381813E+02 -0.34633710750E+02  0.43400729991E+02  0.00000000000E+00 0. -1.
         11    1    3    3    0    0 -0.13033152646E+01  0.54555004624E+01  0.83949177138E+01  0.10096324067E+02  0.51100000000E-03 0.  1.
        -11    1    3    3    0    0 -0.32523412448E+01  0.10268803377E+02  0.20210818333E+02  0.22902035375E+02  0.51100000000E-03 0. -1.
         12    1    3    3    0    0 -0.12997228007E+02  0.36670779732E+01  0.60279747035E+01  0.14788910567E+02  0.00000000000E+00 0. -1.
</event>
<event>
 7    1  0.2733256E-010  0.4778727E+02  0.7816164E-02  0.1312668E+00
        -11   -1    0    0    0    0  0.00000000000E+00  0.00000000000E+00  0.45593999997E+02  0.45594000000E+02  0.51100000000E-03 0. -1.
         11   -1    0    0    0    0 -0.00000000000E+00 -0.00000000000E+00 -0.45593999997E+02  0.45594000000E+02  0.51100000000E-03 0.  1.
    9900012    2    1    2    0    0  0.11371588588E+02  0.38248025840E+02 -0.17070409702E+02  0.47787269648E+02  0.19999993635E+02 0.  0.
         12    1    1    2    0    0 -0.11371588588E+02 -0.38248025840E+02  0.17070409702E+02  0.43400730352E+02  0.00000000000E+00 0. -1.
         11    1    3    3    0    0 -0.19598347337E+00  0.69909193611E+01  0.29030312677E+01  0.75722489286E+01  0.51100000000E-03 0. -1.
        -11    1    3    3    0    0  0.10264739999E+02  0.13170220176E+02 -0.82811802447E+01  0.18638603307E+02  0.51100000000E-03 0.  1.
        -12    1    3    3    0    0  0.13028320628E+01  0.18086886302E+02 -0.11692260725E+02  0.21576417413E+02  0.00000000000E+00 0.  1.
</event>
<event>
 7    1  0.2733256E-010  0.4778729E+02  0.7816164E-02  0.1312668E+00
        -11   -1    0    0    0    0  0.00000000000E+00  0.00000000000E+00  0.45593999997E+02  0.45594000000E+02  0.51100000000E-03 0. -1.
         11   -1    0    0    0    0 -0.00000000000E+00 -0.00000000000E+00 -0.45593999997E+02  0.45594000000E+02  0.51100000000E-03 0.  1.
    9900012    2    1    2    0    0 -0.28514331385E+02 -0.11093023668E+02 -0.30781482815E+02  0.47787286265E+02  0.20000069396E+02 0.  0.
         12    1    1    2    0    0  0.28514331385E+02  0.11093023668E+02  0.30781482815E+02  0.43400713735E+02  0.00000000000E+00 0. -1.
         11    1    3    3    0    0 -0.84786264268E+01  0.55192102680E+01 -0.97588366727E+01  0.14056446263E+02  0.51100000000E-03 0. -1.
        -11    1    3    3    0    0 -0.26332845249E+01 -0.17055342647E+01 -0.44800436136E+01  0.54693533034E+01  0.51100000000E-03 0.  1.
         12    1    3    3    0    0 -0.17402420433E+02 -0.14906699671E+02 -0.16542602529E+02  0.28261486699E+02  0.00000000000E+00 0. -1.
</event>
<event>
 7    1  0.2733256E-010  0.4778726E+02  0.7816164E-02  0.1312668E+00
        -11   -1    0    0    0    0  0.00000000000E+00  0.00000000000E+00  0.45593999997E+02  0.45594000000E+02  0.51100000000E-03 0.  1.
         11   -1    0    0    0    0 -0.00000000000E+00 -0.00000000000E+00 -0.45593999997E+02  0.45594000000E+02  0.51100000000E-03 0. -1.
    9900012    2    1    2    0    0  0.11561795518E+02 -0.39339401205E+02  0.14225352492E+02  0.47787259726E+02  0.19999948395E+02 0.  0.
         12    1    1    2    0    0 -0.11561795518E+02  0.39339401205E+02 -0.14225352492E+02  0.43400740274E+02  0.00000000000E+00 0. -1.
         11    1    3    3    0    0  0.90798037382E+01 -0.17980614660E+02  0.95951241832E+01  0.22311695315E+02  0.51100000000E-03 0. -1.
        -11    1    3    3    0    0  0.71730568257E+01 -0.98722513526E+01  0.46752039506E+01  0.13067961709E+02  0.51100000000E-03 0.  1.
        -12    1    3    3    0    0 -0.46910650462E+01 -0.11486535193E+02 -0.44975641403E-01  0.12407602702E+02  0.00000000000E+00 0.  1.
</event>
<event>
 7    1  0.2733256E-010  0.4778727E+02  0.7816164E-02  0.1312668E+00
        -11   -1    0    0    0    0  0.00000000000E+00  0.00000000000E+00  0.45593999997E+02  0.45594000000E+02  0.51100000000E-03 0.  1.
         11   -1    0    0    0    0 -0.00000000000E+00 -0.00000000000E+00 -0.45593999997E+02  0.45594000000E+02  0.51100000000E-03 0. -1.
    9900012    2    1    2    0    0  0.41276010175E+02 -0.10840117184E+02 -0.78997541807E+01  0.47787271059E+02  0.20000000066E+02 0.  0.
         12    1    1    2    0    0 -0.41276010175E+02  0.10840117184E+02  0.78997541807E+01  0.43400728941E+02  0.00000000000E+00 0. -1.
         11    1    3    3    0    0  0.28372944414E+00  0.15858732601E+01  0.74533271782E+00  0.17751105644E+01  0.51100000000E-03 0. -1.
        -11    1    3    3    0    0  0.37216630465E+01  0.26299570974E+01  0.10197090566E+01  0.46698240853E+01  0.51100000000E-03 0.  1.
        -12    1    3    3    0    0  0.37270617684E+02 -0.15055947542E+02 -0.96647959552E+01  0.41342336409E+02  0.00000000000E+00 0.  1.
</event>
<event>
 7    1  0.2733256E-010  0.4778727E+02  0.7816164E-02  0.1312668E+00
        -11   -1    0    0    0    0  0.00000000000E+00  0.00000000000E+00  0.45593999997E+02  0.45594000000E+02  0.51100000000E-03 0.  1.
         11   -1    0    0    0    0 -0.00000000000E+00 -0.00000000000E+00 -0.45593999997E+02  0.45594000000E+02  0.51100000000E-03 0. -1.
    9900012    2    1    2    0    0 -0.27547936990E+02  0.21911885242E+02  0.25389053102E+02  0.47787267695E+02  0.19999984727E+02 0.  0.
         12    1    1    2    0    0  0.27547936990E+02 -0.21911885242E+02 -0.25389053102E+02  0.43400732305E+02  0.00000000000E+00 0. -1.
         11    1    3    3    0    0 -0.99173675020E+01  0.41157603188E+01 -0.96477988002E+00  0.10780744949E+02  0.51100000000E-03 0. -1.
        -11    1    3    3    0    0 -0.47483884705E+01  0.70022808084E+01  0.49829678949E+01  0.98188135174E+01  0.51100000000E-03 0.  1.
         12    1    3    3    0    0 -0.12882181017E+02  0.10793844115E+02  0.21370865087E+02  0.27187709228E+02  0.00000000000E+00 0. -1.
</event>
<event>
 7    1  0.2733256E-010  0.4778732E+02  0.7816164E-02  0.1312668E+00
        -11   -1    0    0    0    0  0.00000000000E+00  0.00000000000E+00  0.45593999997E+02  0.45594000000E+02  0.51100000000E-03 0.  1.
         11   -1    0    0    0    0 -0.00000000000E+00 -0.00000000000E+00 -0.45593999997E+02  0.45594000000E+02  0.51100000000E-03 0. -1.
    9900012    2    1    2    0    0  0.16176215252E+02  0.31126676446E+02  0.25555408686E+02  0.47787322130E+02  0.20000232916E+02 0.  0.
         12    1    1    2    0    0 -0.16176215252E+02 -0.31126676446E+02 -0.25555408686E+02  0.43400677870E+02  0.00000000000E+00 0. -1.
         11    1    3    3    0    0  0.43891091627E+01  0.54678501989E+01  0.12184630314E+01  0.71166226161E+01  0.51100000000E-03 0. -1.
        -11    1    3    3    0    0  0.14576186973E+02  0.14422624965E+02  0.12028697304E+02  0.23773239086E+02  0.51100000000E-03 0.  1.
        -12    1    3    3    0    0 -0.27890808831E+01  0.11236201283E+02  0.12308248351E+02  0.16897460427E+02  0.00000000000E+00 0.  1.
</event>
<event>
 7    1  0.2733256E-010  0.4778727E+02  0.7816164E-02  0.1312668E+00
        -11   -1    0    0    0    0  0.00000000000E+00  0.00000000000E+00  0.45593999997E+02  0.45594000000E+02  0.51100000000E-03 0.  1.
         11   -1    0    0    0    0 -0.00000000000E+00 -0.00000000000E+00 -0.45593999997E+02  0.45594000000E+02  0.51100000000E-03 0. -1.
    9900012    2    1    2    0    0 -0.43723902457E+01 -0.25973326145E+02  0.34494806046E+02  0.47787272913E+02  0.20000008521E+02 0.  0.
         12    1    1    2    0    0  0.43723902457E+01  0.25973326145E+02 -0.34494806046E+02  0.43400727087E+02  0.00000000000E+00 0. -1.
         11    1    3    3    0    0  0.11613403614E+01 -0.35382688950E+01  0.10592576814E+02  0.11228122819E+02  0.51100000000E-03 0. -1.
        -11    1    3    3    0    0  0.22795269745E+01 -0.53383745577E+01  0.14337994477E+02  0.15468437931E+02  0.51100000000E-03 0.  1.
         12    1    3    3    0    0 -0.78132575816E+01 -0.17096682692E+02  0.95642347549E+01  0.21090712163E+02  0.00000000000E+00 0. -1.
</event>
<event>
 7    1  0.2733256E-010  0.4778727E+02  0.7816164E-02  0.1312668E+00
        -11   -1    0    0    0    0  0.00000000000E+00  0.00000000000E+00  0.45593999997E+02  0.45594000000E+02  0.51100000000E-03 0.  1.
         11   -1    0    0    0    0 -0.00000000000E+00 -0.00000000000E+00 -0.45593999997E+02  0.45594000000E+02  0.51100000000E-03 0. -1.
    9900012    2    1    2    0    0 -0.24759523492E+02 -0.35608850556E+02 -0.16121885740E+01  0.47787269667E+02  0.19999993719E+02 0.  0.
         12    1    1    2    0    0  0.24759523492E+02  0.35608850556E+02  0.16121885740E+01  0.43400730333E+02  0.00000000000E+00 0. -1.
         11    1    3    3    0    0 -0.10719711969E+02 -0.91413990647E+01 -0.61523552198E+01  0.15372991790E+02  0.51100000000E-03 0. -1.
        -11    1    3    3    0    0 -0.22481323258E+00 -0.88078789686E+01 -0.20469342500E+01  0.90453973379E+01  0.51100000000E-03 0.  1.
        -12    1    3    3    0    0 -0.13814998290E+02 -0.17659572523E+02  0.65871008958E+01  0.23368880539E+02  0.00000000000E+00 0.  1.
</event>
<event>
 7    1  0.2733256E-010  0.4778727E+02  0.7816164E-02  0.1312668E+00
        -11   -1    0    0    0    0  0.00000000000E+00  0.00000000000E+00  0.45593999997E+02  0.45594000000E+02  0.51100000000E-03 0.  1.
         11   -1    0    0    0    0 -0.00000000000E+00 -0.00000000000E+00 -0.45593999997E+02  0.45594000000E+02  0.51100000000E-03 0. -1.
    9900012    2    1    2    0    0 -0.50870740435E+01 -0.43090988201E+02 -0.95478534021E+00  0.47787271878E+02  0.20000003799E+02 0.  0.
         12    1    1    2    0    0  0.50870740435E+01  0.43090988201E+02  0.95478534021E+00  0.43400728122E+02  0.00000000000E+00 0. -1.
         11    1    3    3    0    0  0.13654234695E+00 -0.59690948129E+01 -0.48798789423E+01  0.77111578541E+01  0.51100000000E-03 0. -1.
        -11    1    3    3    0    0 -0.30044612710E+01 -0.31197355442E+02 -0.20037828581E+01  0.31405682926E+02  0.51100000000E-03 0.  1.
        -12    1    3    3    0    0 -0.22191551194E+01 -0.59245379470E+01  0.59288764602E+01  0.86704310971E+01  0.00000000000E+00 0.  1.
</event>
<event>
 7    1  0.2733256E-010  0.4778727E+02  0.7816164E-02  0.1312668E+00
        -11   -1    0    0    0    0  0.00000000000E+00  0.00000000000E+00  0.45593999997E+02  0.45594000000E+02  0.51100000000E-03 0.  1.
         11   -1    0    0    0    0 -0.00000000000E+00 -0.00000000000E+00 -0.45593999997E+02  0.45594000000E+02  0.51100000000E-03 0. -1.
    9900012    2    1    2    0    0 -0.17669986139E+02 -0.25680614220E+02  0.30197691978E+02  0.47787274688E+02  0.20000016612E+02 0.  0.
         12    1    1    2    0    0  0.17669986139E+02  0.25680614220E+02 -0.30197691978E+02  0.43400725312E+02  0.00000000000E+00 0. -1.
         11    1    3    3    0    0 -0.32961320249E+00 -0.84032582656E+00  0.49971700030E+01  0.50780410257E+01  0.51100000000E-03 0. -1.
        -11    1    3    3    0    0 -0.17557048687E+02 -0.20017856274E+02  0.26646901524E+02  0.37669906949E+02  0.51100000000E-03 0.  1.
         12    1    3    3    0    0  0.21667575113E+00 -0.48224321191E+01 -0.14463795496E+01  0.50393267135E+01  0.00000000000E+00 0. -1.
</event>
<event>
 7    1  0.2733256E-010  0.4778725E+02  0.7816164E-02  0.1312668E+00
        -11   -1    0    0    0    0  0.00000000000E+00  0.00000000000E+00  0.45593999997E+02  0.45594000000E+02  0.51100000000E-03 0.  1.
         11   -1    0    0    0    0 -0.00000000000E+00 -0.00000000000E+00 -0.45593999997E+02  0.45594000000E+02  0.51100000000E-03 0. -1.
    9900012    2    1    2    0    0 -0.21058374960E+01 -0.35463066521E+02  0.24931128884E+02  0.47787253162E+02  0.19999918469E+02 0.  0.
         12    1    1    2    0    0  0.21058374960E+01  0.35463066521E+02 -0.24931128884E+02  0.43400746838E+02  0.00000000000E+00 0. -1.
         11    1    3    3    0    0  0.27350625582E+01  0.48582608130E+00  0.16373536014E+00  0.27826972002E+01  0.51100000000E-03 0. -1.
        -11    1    3    3    0    0  0.24884442999E+01 -0.13147928732E+02  0.11385479245E+02  0.17569562398E+02  0.51100000000E-03 0.  1.
        -12    1    3    3    0    0 -0.73293443541E+01 -0.22800963870E+02  0.13381914279E+02  0.27434993564E+02  0.00000000000E+00 0.  1.
</event>
<event>
 7    1  0.2733256E-010  0.4778727E+02  0.7816164E-02  0.1312668E+00
        -11   -1    0    0    0    0  0.00000000000E+00  0.00000000000E+00  0.45593999997E+02  0.45594000000E+02  0.51100000000E-03 0.  1.
         11   -1    0    0    0    0 -0.00000000000E+00 -0.00000000000E+00 -0.45593999997E+02  0.45594000000E+02  0.51100000000E-03 0. -1.
    9900012    2    1    2    0    0  0.15064195077E+02 -0.38371355763E+02  0.13576916331E+02  0.47787267593E+02  0.19999984263E+02 0.  0.
         12    1    1    2    0    0 -0.15064195077E+02  0.38371355763E+02 -0.13576916331E+02  0.43400732407E+02  0.00000000000E+00 0. -1.
         11    1    3    3    0    0  0.41064199217E+01 -0.87393680542E+00  0.69540110499E+01  0.81230979347E+01  0.51100000000E-03 0. -1.
        -11    1    3    3    0    0  0.22526067503E+01 -0.97887479763E+01  0.22408910616E+01  0.10291521614E+02  0.51100000000E-03 0.  1.
         12    1    3    3    0    0  0.87051684047E+01 -0.27708670982E+02  0.43820142196E+01  0.29372648044E+02  0.00000000000E+00 0. -1.
</event>
<event>
 7    1  0.2733256E-010  0.4778727E+02  0.7816164E-02  0.1312668E+00
        -11   -1    0    0    0    0  0.00000000000E+00  0.00000000000E+00  0.45593999997E+02  0.45594000000E+02  0.51100000000E-03 0. -1.
         11   -1    0    0    0    0 -0.00000000000E+00 -0.00000000000E+00 -0.45593999997E+02  0.45594000000E+02  0.51100000000E-03 0.  1.
    9900012    2    1    2    0    0  0.42375658278E+02 -0.27534810054E+01  0.89635497010E+01  0.47787270796E+02  0.19999998869E+02 0.  0.
         12    1    1    2    0    0 -0.42375658278E+02  0.27534810054E+01 -0.89635497010E+01  0.43400729204E+02  0.00000000000E+00 0. -1.
         11    1    3    3    0    0  0.87900192667E+00  0.69194061190E-01  0.17530339976E+01  0.19622845520E+01  0.51100000000E-03 0. -1.
        -11    1    3    3    0    0  0.41588034461E+02 -0.72361228732E+00  0.37323050652E+01  0.41761445454E+02  0.51100000000E-03 0.  1.
        -12    1    3    3    0    0 -0.91378109016E-01 -0.20990627793E+01  0.34782106382E+01  0.40635407902E+01  0.00000000000E+00 0.  1.
</event>
<event>
 7    1  0.2733256E-010  0.4778727E+02  0.7816164E-02  0.1312668E+00
        -11   -1    0    0    0    0  0.00000000000E+00  0.00000000000E+00  0.45593999997E+02  0.45594000000E+02  0.51100000000E-03 0. -1.
         11   -1    0    0    0    0 -0.00000000000E+00 -0.00000000000E+00 -0.45593999997E+02  0.45594000000E+02  0.51100000000E-03 0.  1.
    9900012    2    1    2    0    0 -0.92448670957E+00 -0.26511424297E+02 -0.34349867754E+02  0.47787266035E+02  0.19999977162E+02 0.  0.
         12    1    1    2    0    0  0.92448670957E+00  0.26511424297E+02  0.34349867754E+02  0.43400733965E+02  0.00000000000E+00 0. -1.
         11    1    3    3    0    0 -0.16907391280E+01 -0.30015900117E+01 -0.54516859744E+01  0.64489550798E+01  0.51100000000E-03 0. -1.
        -11    1    3    3    0    0 -0.68034429815E+01 -0.25467722062E+01 -0.67227798133E+01  0.98979115853E+01  0.51100000000E-03 0.  1.
         12    1    3    3    0    0  0.75696953999E+01 -0.20963062079E+02 -0.22175401966E+02  0.31440399370E+02  0.00000000000E+00 0. -1.
</event>
<event>
 7    1  0.2733256E-010  0.4778727E+02  0.7816164E-02  0.1312668E+00
        -11   -1    0    0    0    0  0.00000000000E+00  0.00000000000E+00  0.45593999997E+02  0.45594000000E+02  0.51100000000E-03 0.  1.
         11   -1    0    0    0    0 -0.00000000000E+00 -0.00000000000E+00 -0.45593999997E+02  0.45594000000E+02  0.51100000000E-03 0. -1.
    9900012    2    1    2    0    0 -0.27892175103E+02  0.11470403819E+01  0.33231525016E+02  0.47787269724E+02  0.19999993979E+02 0.  0.
         12    1    1    2    0    0  0.27892175103E+02 -0.11470403819E+01 -0.33231525016E+02  0.43400730276E+02  0.00000000000E+00 0. -1.
         11    1    3    3    0    0 -0.69602929050E+01 -0.35502543413E+01  0.36165635420E+01  0.86098499015E+01  0.51100000000E-03 0. -1.
        -11    1    3    3    0    0 -0.21414955394E+02  0.98713949124E+00  0.22138360883E+02  0.30816907401E+02  0.51100000000E-03 0.  1.
         12    1    3    3    0    0  0.48307319605E+00  0.37101552319E+01  0.74766005907E+01  0.83605124216E+01  0.00000000000E+00 0. -1.
</event>
<event>
 7    1  0.2733256E-010  0.4778727E+02  0.7816164E-02  0.1312668E+00
        -11   -1    0    0    0    0  0.00000000000E+00  0.00000000000E+00  0.45593999997E+02  0.45594000000E+02  0.51100000000E-03 0.  1.
         11   -1    0    0    0    0 -0.00000000000E+00 -0.00000000000E+00 -0.45593999997E+02  0.45594000000E+02  0.51100000000E-03 0. -1.
    9900012    2    1    2    0    0 -0.10670960986E+02  0.41383391252E+02  0.75610031008E+01  0.47787271345E+02  0.20000001369E+02 0.  0.
         12    1    1    2    0    0  0.10670960986E+02 -0.41383391252E+02 -0.75610031008E+01  0.43400728655E+02  0.00000000000E+00 0. -1.
         11    1    3    3    0    0 -0.12127685718E+02  0.29448401496E+02 -0.20928353689E+00  0.31848593554E+02  0.51100000000E-03 0.  1.
        -11    1    3    3    0    0  0.15453743834E+01  0.68219883373E+01  0.45024826053E+00  0.70093102810E+01  0.51100000000E-03 0. -1.
         12    1    3    3    0    0 -0.88649651846E-01  0.51130014196E+01  0.73200383772E+01  0.89293675095E+01  0.00000000000E+00 0. -1.
</event>
<event>
 7    1  0.2733256E-010  0.4778727E+02  0.7816164E-02  0.1312668E+00
        -11   -1    0    0    0    0  0.00000000000E+00  0.00000000000E+00  0.45593999997E+02  0.45594000000E+02  0.51100000000E-03 0.  1.
         11   -1    0    0    0    0 -0.00000000000E+00 -0.00000000000E+00 -0.45593999997E+02  0.45594000000E+02  0.51100000000E-03 0. -1.
    9900012    2    1    2    0    0  0.16122764265E+02 -0.59195479738E+01  0.39857732345E+02  0.47787269552E+02  0.19999993195E+02 0.  0.
         12    1    1    2    0    0 -0.16122764265E+02  0.59195479738E+01 -0.39857732345E+02  0.43400730448E+02  0.00000000000E+00 0. -1.
         11    1    3    3    0    0  0.98604946620E+01 -0.24163339067E+01  0.11576709275E+02  0.15397669383E+02  0.51100000000E-03 0. -1.
        -11    1    3    3    0    0  0.68641677455E+01  0.39115932919E+01  0.18373417113E+02  0.19999995440E+02  0.51100000000E-03 0.  1.
        -12    1    3    3    0    0 -0.60189814278E+00 -0.74148073590E+01  0.99076059567E+01  0.12389604729E+02  0.00000000000E+00 0.  1.
</event>
<event>
 7    1  0.2733256E-010  0.4778727E+02  0.7816164E-02  0.1312668E+00
        -11   -1    0    0    0    0  0.00000000000E+00  0.00000000000E+00  0.45593999997E+02  0.45594000000E+02  0.51100000000E-03 0.  1.
         11   -1    0    0    0    0 -0.00000000000E+00 -0.00000000000E+00 -0.45593999997E+02  0.45594000000E+02  0.51100000000E-03 0. -1.
    9900012    2    1    2    0    0  0.15281175922E+02 -0.76397761333E+01  0.39896655633E+02  0.47787266738E+02  0.19999980367E+02 0.  0.
         12    1    1    2    0    0 -0.15281175922E+02  0.76397761333E+01 -0.39896655633E+02  0.43400733262E+02  0.00000000000E+00 0. -1.
         11    1    3    3    0    0  0.98621677829E+01 -0.13783743825E+00  0.15666830266E+02  0.18512993366E+02  0.51100000000E-03 0. -1.
        -11    1    3    3    0    0  0.24391512291E+01 -0.20730389215E+01  0.22660646591E+02  0.22885625472E+02  0.51100000000E-03 0.  1.
         12    1    3    3    0    0  0.29798569104E+01 -0.54288997735E+01  0.15691787765E+01  0.63886479000E+01  0.00000000000E+00 0. -1.
</event>
<event>
 7    1  0.2733256E-010  0.4778727E+02  0.7816164E-02  0.1312668E+00
        -11   -1    0    0    0    0  0.00000000000E+00  0.00000000000E+00  0.45593999997E+02  0.45594000000E+02  0.51100000000E-03 0. -1.
         11   -1    0    0    0    0 -0.00000000000E+00 -0.00000000000E+00 -0.45593999997E+02  0.45594000000E+02  0.51100000000E-03 0.  1.
    9900012    2    1    2    0    0  0.22476874020E+02 -0.20057467915E+02 -0.31242779082E+02  0.47787272706E+02  0.20000007576E+02 0.  0.
         12    1    1    2    0    0 -0.22476874020E+02  0.20057467915E+02  0.31242779082E+02  0.43400727294E+02  0.00000000000E+00 0. -1.
         11    1    3    3    0    0  0.10992651068E+02 -0.39251455792E+01 -0.18357142744E+02  0.21753846449E+02  0.51100000000E-03 0. -1.
        -11    1    3    3    0    0  0.11840960753E+02 -0.11453504029E+02 -0.13502785406E+02  0.21300617833E+02  0.51100000000E-03 0.  1.
         12    1    3    3    0    0 -0.35673780123E+00 -0.46788183072E+01  0.61714906798E+00  0.47328084245E+01  0.00000000000E+00 0. -1.
</event>
<event>
 7    1  0.2733256E-010  0.4778727E+02  0.7816164E-02  0.1312668E+00
        -11   -1    0    0    0    0  0.00000000000E+00  0.00000000000E+00  0.45593999997E+02  0.45594000000E+02  0.51100000000E-03 0. -1.
         11   -1    0    0    0    0 -0.00000000000E+00 -0.00000000000E+00 -0.45593999997E+02  0.45594000000E+02  0.51100000000E-03 0.  1.
    9900012    2    1    2    0    0 -0.37130105008E+02  0.13006622727E+02 -0.18325029469E+02  0.47787266853E+02  0.19999980892E+02 0.  0.
         12    1    1    2    0    0  0.37130105008E+02 -0.13006622727E+02  0.18325029469E+02  0.43400733147E+02  0.00000000000E+00 0. -1.
         11    1    3    3    0    0 -0.83168935543E+01  0.21556998667E+01 -0.37672131036E+01  0.93813461261E+01  0.51100000000E-03 0. -1.
        -11    1    3    3    0    0 -0.47421217167E+01  0.61245546635E+00 -0.11016280405E+02  0.12009215391E+02  0.51100000000E-03 0.  1.
         12    1    3    3    0    0 -0.24071089737E+02  0.10238467394E+02 -0.35415359601E+01  0.26396705337E+02  0.00000000000E+00 0. -1.
</event>
<event>
 7    1  0.2733256E-010  0.4778727E+02  0.7816164E-02  0.1312668E+00
        -11   -1    0    0    0    0  0.00000000000E+00  0.00000000000E+00  0.45593999997E+02  0.45594000000E+02  0.51100000000E-03 0. -1.
         11   -1    0    0    0    0 -0.00000000000E+00 -0.00000000000E+00 -0.45593999997E+02  0.45594000000E+02  0.51100000000E-03 0.  1.
    9900012    2    1    2    0    0  0.36760647981E+02 -0.23066743968E+02 -0.45082730521E+00  0.47787272328E+02  0.20000005850E+02 0.  0.
         12    1    1    2    0    0 -0.36760647981E+02  0.23066743968E+02  0.45082730521E+00  0.43400727672E+02  0.00000000000E+00 0. -1.
         11    1    3    3    0    0  0.15925506447E+02  0.89373332085E-02  0.17184906136E+01  0.16017960099E+02  0.51100000000E-03 0. -1.
        -11    1    3    3    0    0  0.50659971737E+01 -0.39624386411E+01 -0.27234881699E+01  0.69844567019E+01  0.51100000000E-03 0.  1.
         12    1    3    3    0    0  0.15769144360E+02 -0.19113242660E+02  0.55417025110E+00  0.24784855527E+02  0.00000000000E+00 0. -1.
</event>
<event>
 7    1  0.2733256E-010  0.4778728E+02  0.7816164E-02  0.1312668E+00
        -11   -1    0    0    0    0  0.00000000000E+00  0.00000000000E+00  0.45593999997E+02  0.45594000000E+02  0.51100000000E-03 0. -1.
         11   -1    0    0    0    0 -0.00000000000E+00 -0.00000000000E+00 -0.45593999997E+02  0.45594000000E+02  0.51100000000E-03 0.  1.
    9900012    2    1    2    0    0  0.35158582557E+02 -0.10402068855E+02 -0.23222687896E+02  0.47787283451E+02  0.20000056565E+02 0.  0.
         12    1    1    2    0    0 -0.35158582557E+02  0.10402068855E+02  0.23222687896E+02  0.43400716549E+02  0.00000000000E+00 0. -1.
         11    1    3    3    0    0  0.39041747595E+01  0.28392550607E+01 -0.55092255748E+01  0.73249925971E+01  0.51100000000E-03 0. -1.
        -11    1    3    3    0    0  0.35124184572E+00 -0.24338519564E+01  0.11101917764E+01  0.26980608261E+01  0.51100000000E-03 0.  1.
        -12    1    3    3    0    0  0.30903165952E+02 -0.10807471959E+02 -0.18823654098E+02  0.37764230028E+02  0.00000000000E+00 0.  1.
</event>
<event>
 7    1  0.2733256E-010  0.4778727E+02  0.7816164E-02  0.1312668E+00
        -11   -1    0    0    0    0  0.00000000000E+00  0.00000000000E+00  0.45593999997E+02  0.45594000000E+02  0.51100000000E-03 0.  1.
         11   -1    0    0    0    0 -0.00000000000E+00 -0.00000000000E+00 -0.45593999997E+02  0.45594000000E+02  0.51100000000E-03 0. -1.
    9900012    2    1    2    0    0 -0.25167403586E+02 -0.20030011145E+02  0.29138013344E+02  0.47787269921E+02  0.19999994877E+02 0.  0.
         12    1    1    2    0    0  0.25167403586E+02  0.20030011145E+02 -0.29138013344E+02  0.43400730079E+02  0.00000000000E+00 0. -1.
         11    1    3    3    0    0 -0.55547441476E+01 -0.50183280397E+01 -0.17326046657E+01  0.76837958099E+01  0.51100000000E-03 0. -1.
        -11    1    3    3    0    0 -0.89995467686E+00 -0.15074757100E+01  0.56594959416E+01  0.59255629278E+01  0.51100000000E-03 0.  1.
         12    1    3    3    0    0 -0.18712704762E+02 -0.13504207396E+02  0.25211122068E+02  0.34177911183E+02  0.00000000000E+00 0. -1.
</event>
<event>
 7    1  0.2733256E-010  0.4778729E+02  0.7816164E-02  0.1312668E+00
        -11   -1    0    0    0    0  0.00000000000E+00  0.00000000000E+00  0.45593999997E+02  0.45594000000E+02  0.51100000000E-03 0.  1.
         11   -1    0    0    0    0 -0.00000000000E+00 -0.00000000000E+00 -0.45593999997E+02  0.45594000000E+02  0.51100000000E-03 0. -1.
    9900012    2    1    2    0    0  0.41976102202E+02 -0.10891548362E+02 -0.17329324077E+01  0.47787285299E+02  0.20000064994E+02 0.  0.
         12    1    1    2    0    0 -0.41976102202E+02  0.10891548362E+02  0.17329324077E+01  0.43400714701E+02  0.00000000000E+00 0. -1.
         11    1    3    3    0    0  0.19641428614E+02 -0.54789242646E+01 -0.75100826464E+01  0.21730293848E+02  0.51100000000E-03 0. -1.
        -11    1    3    3    0    0  0.17284318485E+01 -0.43241831293E+01  0.11068277937E+00  0.46581420469E+01  0.51100000000E-03 0.  1.
        -12    1    3    3    0    0  0.20606241740E+02 -0.10884409679E+01  0.56664674593E+01  0.21398849405E+02  0.00000000000E+00 0.  1.
</event>
<event>
 7    1  0.2733256E-010  0.4778728E+02  0.7816164E-02  0.1312668E+00
        -11   -1    0    0    0    0  0.00000000000E+00  0.00000000000E+00  0.45593999997E+02  0.45594000000E+02  0.51100000000E-03 0. -1.
         11   -1    0    0    0    0 -0.00000000000E+00 -0.00000000000E+00 -0.45593999997E+02  0.45594000000E+02  0.51100000000E-03 0.  1.
    9900012    2    1    2    0    0  0.36224805879E+02 -0.40586331773E+01 -0.23556607118E+02  0.47787276467E+02  0.20000024724E+02 0.  0.
         12    1    1    2    0    0 -0.36224805879E+02  0.40586331773E+01  0.23556607118E+02  0.43400723533E+02  0.00000000000E+00 0. -1.
         11    1    3    3    0    0  0.12051901563E+02 -0.54102779297E+01 -0.85557464121E+01  0.15739130709E+02  0.51100000000E-03 0. -1.
        -11    1    3    3    0    0  0.16256639691E+02  0.37362797537E+01 -0.16704572877E+02  0.23606797235E+02  0.51100000000E-03 0.  1.
         12    1    3    3    0    0  0.79162646257E+01 -0.23846350014E+01  0.17037121711E+01  0.84413485223E+01  0.00000000000E+00 0. -1.
</event>
<event>
 7    1  0.2733256E-010  0.4778727E+02  0.7816164E-02  0.1312668E+00
        -11   -1    0    0    0    0  0.00000000000E+00  0.00000000000E+00  0.45593999997E+02  0.45594000000E+02  0.51100000000E-03 0.  1.
         11   -1    0    0    0    0 -0.00000000000E+00 -0.00000000000E+00 -0.45593999997E+02  0.45594000000E+02  0.51100000000E-03 0. -1.
    9900012    2    1    2    0    0 -0.37903979335E+02  0.67374623512E+01  0.20037927701E+02  0.47787267346E+02  0.19999983138E+02 0.  0.
         12    1    1    2    0    0  0.37903979335E+02 -0.67374623512E+01 -0.20037927701E+02  0.43400732654E+02  0.00000000000E+00 0. -1.
         11    1    3    3    0    0 -0.74481822179E+01  0.53815878762E+01  0.74575274604E+01  0.11834340814E+02  0.51100000000E-03 0. -1.
        -11    1    3    3    0    0 -0.57185454600E+01  0.36657453414E+01  0.83278585110E+01  0.10746752008E+02  0.51100000000E-03 0.  1.
        -12    1    3    3    0    0 -0.24737251657E+02 -0.23098708664E+01  0.42525417294E+01  0.25206174524E+02  0.00000000000E+00 0.  1.
</event>
<event>
 7    1  0.2733256E-010  0.4778727E+02  0.7816164E-02  0.1312668E+00
        -11   -1    0    0    0    0  0.00000000000E+00  0.00000000000E+00  0.45593999997E+02  0.45594000000E+02  0.51100000000E-03 0.  1.
         11   -1    0    0    0    0 -0.00000000000E+00 -0.00000000000E+00 -0.45593999997E+02  0.45594000000E+02  0.51100000000E-03 0. -1.
    9900012    2    1    2    0    0  0.72988577814E+01  0.21605877860E+02  0.36926089261E+02  0.47787270154E+02  0.19999995941E+02 0.  0.
         12    1    1    2    0    0 -0.72988577814E+01 -0.21605877860E+02 -0.36926089261E+02  0.43400729846E+02  0.00000000000E+00 0. -1.
         11    1    3    3    0    0 -0.25924337152E+01  0.78763312266E+01  0.40953731778E+01  0.92482099827E+01  0.51100000000E-03 0. -1.
        -11    1    3    3    0    0  0.17420001949E+01  0.27456489117E+01  0.31844883743E+00  0.32671949052E+01  0.51100000000E-03 0.  1.
        -12    1    3    3    0    0  0.81492913017E+01  0.10983897722E+02  0.32512267246E+02  0.35271865266E+02  0.00000000000E+00 0.  1.
</event>
<event>
 7    1  0.2733256E-010  0.4778727E+02  0.7816164E-02  0.1312668E+00
        -11   -1    0    0    0    0  0.00000000000E+00  0.00000000000E+00  0.45593999997E+02  0.45594000000E+02  0.51100000000E-03 0.  1.
         11   -1    0    0    0    0 -0.00000000000E+00 -0.00000000000E+00 -0.45593999997E+02  0.45594000000E+02  0.51100000000E-03 0. -1.
    9900012    2    1    2    0    0 -0.34337914996E+02  0.25917789642E+02 -0.57270518395E+01  0.47787270179E+02  0.19999996055E+02 0.  0.
         12    1    1    2    0    0  0.34337914996E+02 -0.25917789642E+02  0.57270518395E+01  0.43400729821E+02  0.00000000000E+00 0. -1.
         11    1    3    3    0    0 -0.52921809508E+01 -0.22646939837E+01 -0.19232898820E+01  0.60691895906E+01  0.51100000000E-03 0. -1.
        -11    1    3    3    0    0 -0.79276240008E+01  0.25777743037E+01 -0.27096122590E+00  0.83405972751E+01  0.51100000000E-03 0.  1.
         12    1    3    3    0    0 -0.21118110044E+02  0.25604709322E+02 -0.35328007316E+01  0.33377483313E+02  0.00000000000E+00 0. -1.
</event>
<event>
 7    1  0.2733256E-010  0.4778727E+02  0.7816164E-02  0.1312668E+00
        -11   -1    0    0    0    0  0.00000000000E+00  0.00000000000E+00  0.45593999997E+02  0.45594000000E+02  0.51100000000E-03 0. -1.
         11   -1    0    0    0    0 -0.00000000000E+00 -0.00000000000E+00 -0.45593999997E+02  0.45594000000E+02  0.51100000000E-03 0.  1.
    9900012    2    1    2    0    0  0.30819004810E+02  0.29973643218E+02  0.59491829022E+01  0.47787272789E+02  0.20000007954E+02 0.  0.
         12    1    1    2    0    0 -0.30819004810E+02 -0.29973643218E+02 -0.59491829022E+01  0.43400727211E+02  0.00000000000E+00 0. -1.
         11    1    3    3    0    0  0.64194752631E+01  0.41294513527E+01  0.59918195085E+00  0.76564384931E+01  0.51100000000E-03 0. -1.
        -11    1    3    3    0    0  0.21236549682E+02  0.11015882891E+02  0.68764400338E+01  0.24892290896E+02  0.51100000000E-03 0.  1.
         12    1    3    3    0    0  0.31629798648E+01  0.14828308975E+02 -0.15264390824E+01  0.15238543400E+02  0.00000000000E+00 0. -1.
</event>
<event>
 7    1  0.2733256E-010  0.4778727E+02  0.7816164E-02  0.1312668E+00
        -11   -1    0    0    0    0  0.00000000000E+00  0.00000000000E+00  0.45593999997E+02  0.45594000000E+02  0.51100000000E-03 0. -1.
         11   -1    0    0    0    0 -0.00000000000E+00 -0.00000000000E+00 -0.45593999997E+02  0.45594000000E+02  0.51100000000E-03 0.  1.
    9900012    2    1    2    0    0 -0.26204545542E+01  0.38840247309E+02 -0.19188316911E+02  0.47787273060E+02  0.20000009188E+02 0.  0.
         12    1    1    2    0    0  0.26204545542E+01 -0.38840247309E+02  0.19188316911E+02  0.43400726940E+02  0.00000000000E+00 0. -1.
         11    1    3    3    0    0  0.91079314087E-01 -0.38049113237E+00  0.24144192044E+01  0.24459127742E+01  0.51100000000E-03 0. -1.
        -11    1    3    3    0    0 -0.38115275672E+01  0.18310631667E+02 -0.78127421523E+01  0.20269334341E+02  0.51100000000E-03 0.  1.
        -12    1    3    3    0    0  0.10999936989E+01  0.20910106774E+02 -0.13789993963E+02  0.25072025944E+02  0.00000000000E+00 0.  1.
</event>
<event>
 7    1  0.2733256E-010  0.4778727E+02  0.7816164E-02  0.1312668E+00
        -11   -1    0    0    0    0  0.00000000000E+00  0.00000000000E+00  0.45593999997E+02  0.45594000000E+02  0.51100000000E-03 0.  1.
         11   -1    0    0    0    0 -0.00000000000E+00 -0.00000000000E+00 -0.45593999997E+02  0.45594000000E+02  0.51100000000E-03 0. -1.
    9900012    2    1    2    0    0 -0.11707416993E+02  0.40569626665E+02  0.10033181496E+02  0.47787274761E+02  0.20000016945E+02 0.  0.
         12    1    1    2    0    0  0.11707416993E+02 -0.40569626665E+02 -0.10033181496E+02  0.43400725239E+02  0.00000000000E+00 0. -1.
         11    1    3    3    0    0 -0.58743101413E+01  0.72993701016E+01 -0.12946643483E+01  0.94585664639E+01  0.51100000000E-03 0.  1.
        -11    1    3    3    0    0 -0.55947375481E+00  0.15214942921E+02 -0.18858803520E+01  0.15341578925E+02  0.51100000000E-03 0. -1.
        -12    1    3    3    0    0 -0.52736330967E+01  0.18055313642E+02  0.13213726196E+02  0.22987129372E+02  0.00000000000E+00 0.  1.
</event>
<event>
 7    1  0.2733256E-010  0.4778732E+02  0.7816164E-02  0.1312668E+00
        -11   -1    0    0    0    0  0.00000000000E+00  0.00000000000E+00  0.45593999997E+02  0.45594000000E+02  0.51100000000E-03 0.  1.
         11   -1    0    0    0    0 -0.00000000000E+00 -0.00000000000E+00 -0.45593999997E+02  0.45594000000E+02  0.51100000000E-03 0. -1.
    9900012    2    1    2    0    0  0.10862733229E+02 -0.36963926214E+02 -0.19982193543E+02  0.47787321743E+02  0.20000231155E+02 0.  0.
         12    1    1    2    0    0 -0.10862733229E+02  0.36963926214E+02  0.19982193543E+02  0.43400678257E+02  0.00000000000E+00 0. -1.
         11    1    3    3    0    0  0.31801374089E+01 -0.14143655388E+02 -0.50669963908E+01  0.15356780729E+02  0.51100000000E-03 0. -1.
        -11    1    3    3    0    0  0.84090148170E+01 -0.69301292219E+01 -0.41186359209E+00  0.10904487751E+02  0.51100000000E-03 0.  1.
         12    1    3    3    0    0 -0.72641899716E+00 -0.15890141604E+02 -0.14503333560E+02  0.21526053264E+02  0.00000000000E+00 0. -1.
</event>
<event>
 7    1  0.2733256E-010  0.4778722E+02  0.7816164E-02  0.1312668E+00
        -11   -1    0    0    0    0  0.00000000000E+00  0.00000000000E+00  0.45593999997E+02  0.45594000000E+02  0.51100000000E-03 0. -1.
         11   -1    0    0    0    0 -0.00000000000E+00 -0.00000000000E+00 -0.45593999997E+02  0.45594000000E+02  0.51100000000E-03 0.  1.
    9900012    2    1    2    0    0  0.12280305042E+02  0.26473653213E+02 -0.32124245357E+02  0.47787224130E+02  0.19999786096E+02 0.  0.
         12    1    1    2    0    0 -0.12280305042E+02 -0.26473653213E+02  0.32124245357E+02  0.43400775870E+02  0.00000000000E+00 0. -1.
         11    1    3    3    0    0  0.12562721597E+01  0.62972673088E+00  0.21662783343E+01  0.25821575431E+01  0.51100000000E-03 0. -1.
        -11    1    3    3    0    0 -0.94941352077E+00  0.46743151261E+01 -0.32524682520E+01  0.57731410794E+01  0.51100000000E-03 0.  1.
        -12    1    3    3    0    0  0.11973446403E+02  0.21169611356E+02 -0.31038055439E+02  0.39431925507E+02  0.00000000000E+00 0.  1.
</event>
<event>
 7    1  0.2733256E-010  0.4778727E+02  0.7816164E-02  0.1312668E+00
        -11   -1    0    0    0    0  0.00000000000E+00  0.00000000000E+00  0.45593999997E+02  0.45594000000E+02  0.51100000000E-03 0. -1.
         11   -1    0    0    0    0 -0.00000000000E+00 -0.00000000000E+00 -0.45593999997E+02  0.45594000000E+02  0.51100000000E-03 0.  1.
    9900012    2    1    2    0    0 -0.37897808294E+01  0.40802858658E+02 -0.14296424029E+02  0.47787268977E+02  0.19999990572E+02 0.  0.
         12    1    1    2    0    0  0.37897808294E+01 -0.40802858658E+02  0.14296424029E+02  0.43400731023E+02  0.00000000000E+00 0. -1.
         11    1    3    3    0    0 -0.46172352371E+01  0.12102012320E+02 -0.46874808533E+01  0.13774978782E+02  0.51100000000E-03 0. -1.
        -11    1    3    3    0    0  0.21454135723E+00  0.21112549185E+02 -0.13895069817E+02  0.25275654820E+02  0.51100000000E-03 0.  1.
         12    1    3    3    0    0  0.61291305046E+00  0.75882971530E+01  0.42861266419E+01  0.87366353753E+01  0.00000000000E+00 0. -1.
</event>
<event>
 7    1  0.2733256E-010  0.4778727E+02  0.7816164E-02  0.1312668E+00
        -11   -1    0    0    0    0  0.00000000000E+00  0.00000000000E+00  0.45593999997E+02  0.45594000000E+02  0.51100000000E-03 0. -1.
         11   -1    0    0    0    0 -0.00000000000E+00 -0.00000000000E+00 -0.45593999997E+02  0.45594000000E+02  0.51100000000E-03 0.  1.
    9900012    2    1    2    0    0  0.10883604356E+02  0.12143499666E+02 -0.40220719361E+02  0.47787266207E+02  0.19999977943E+02 0.  0.
         12    1    1    2    0    0 -0.10883604356E+02 -0.12143499666E+02  0.40220719361E+02  0.43400733793E+02  0.00000000000E+00 0. -1.
         11    1    3    3    0    0  0.31337714890E+01  0.41467526240E+01 -0.79799188073E+01  0.95234019921E+01  0.51100000000E-03 0. -1.
        -11    1    3    3    0    0  0.12318633041E+02  0.89895571615E+01 -0.28307775942E+02  0.32154176043E+02  0.51100000000E-03 0.  1.
         12    1    3    3    0    0 -0.45688001742E+01 -0.99281011954E+00 -0.39330246116E+01  0.61096881721E+01  0.00000000000E+00 0. -1.
</event>
<event>
 7    1  0.2733256E-010  0.4778727E+02  0.7816164E-02  0.1312668E+00
        -11   -1    0    0    0    0  0.00000000000E+00  0.00000000000E+00  0.45593999997E+02  0.45594000000E+02  0.51100000000E-03 0. -1.
         11   -1    0    0    0    0 -0.00000000000E+00 -0.00000000000E+00 -0.45593999997E+02  0.45594000000E+02  0.51100000000E-03 0.  1.
    9900012    2    1    2    0    0 -0.37455527918E+02  0.16083384399E+02 -0.14900713771E+02  0.47787273091E+02  0.20000009332E+02 0.  0.
         12    1    1    2    0    0  0.37455527918E+02 -0.16083384399E+02  0.14900713771E+02  0.43400726909E+02  0.00000000000E+00 0. -1.
         11    1    3    3    0    0 -0.26416558294E+01  0.41519755527E+01 -0.14287113924E+01  0.51243012222E+01  0.51100000000E-03 0. -1.
        -11    1    3    3    0    0 -0.36742290161E+02  0.11438336511E+02 -0.12623240775E+02  0.40499106612E+02  0.51100000000E-03 0.  1.
        -12    1    3    3    0    0  0.19284180729E+01  0.49307233469E+00 -0.84876160313E+00  0.21638652569E+01  0.00000000000E+00 0.  1.
</event>
<event>
 7    1  0.2733256E-010  0.4778727E+02  0.7816164E-02  0.1312668E+00
        -11   -1    0    0    0    0  0.00000000000E+00  0.00000000000E+00  0.45593999997E+02  0.45594000000E+02  0.51100000000E-03 0.  1.
         11   -1    0    0    0    0 -0.00000000000E+00 -0.00000000000E+00 -0.45593999997E+02  0.45594000000E+02  0.51100000000E-03 0. -1.
    9900012    2    1    2    0    0  0.24143835787E+02 -0.33095236056E+02  0.14331917108E+02  0.47787270696E+02  0.19999998412E+02 0.  0.
         12    1    1    2    0    0 -0.24143835787E+02  0.33095236056E+02 -0.14331917108E+02  0.43400729304E+02  0.00000000000E+00 0. -1.
         11    1    3    3    0    0  0.74129673313E+01 -0.27647351564E+01  0.20628873359E+01  0.81762674590E+01  0.51100000000E-03 0. -1.
        -11    1    3    3    0    0  0.94230583171E+01 -0.42429687075E+01  0.54089266551E+01  0.11664188755E+02  0.51100000000E-03 0.  1.
         12    1    3    3    0    0  0.73078101383E+01 -0.26087532192E+02  0.68601031172E+01  0.27946814482E+02  0.00000000000E+00 0. -1.
</event>
<event>
 7    1  0.2733256E-010  0.4778727E+02  0.7816164E-02  0.1312668E+00
        -11   -1    0    0    0    0  0.00000000000E+00  0.00000000000E+00  0.45593999997E+02  0.45594000000E+02  0.51100000000E-03 0. -1.
         11   -1    0    0    0    0 -0.00000000000E+00 -0.00000000000E+00 -0.45593999997E+02  0.45594000000E+02  0.51100000000E-03 0.  1.
    9900012    2    1    2    0    0 -0.43348190759E+02  0.20797357284E+01 -0.48213107700E+00  0.47787269671E+02  0.19999993737E+02 0.  0.
         12    1    1    2    0    0  0.43348190759E+02 -0.20797357284E+01  0.48213107700E+00  0.43400730329E+02  0.00000000000E+00 0. -1.
         11    1    3    3    0    0 -0.26841131257E+02 -0.55054630257E+01 -0.34992749561E+01  0.27622479537E+02  0.51100000000E-03 0. -1.
        -11    1    3    3    0    0 -0.11576404892E+02  0.97300061334E+00  0.91653133764E+00  0.11653321860E+02  0.51100000000E-03 0.  1.
        -12    1    3    3    0    0 -0.49306546098E+01  0.66121981408E+01  0.21006125415E+01  0.85114682742E+01  0.00000000000E+00 0.  1.
</event>
<event>
 7    1  0.2733256E-010  0.4778728E+02  0.7816164E-02  0.1312668E+00
        -11   -1    0    0    0    0  0.00000000000E+00  0.00000000000E+00  0.45593999997E+02  0.45594000000E+02  0.51100000000E-03 0.  1.
         11   -1    0    0    0    0 -0.00000000000E+00 -0.00000000000E+00 -0.45593999997E+02  0.45594000000E+02  0.51100000000E-03 0. -1.
    9900012    2    1    2    0    0 -0.92280793087E+01 -0.17500131673E+02  0.38629145321E+02  0.47787275069E+02  0.20000018351E+02 0.  0.
         12    1    1    2    0    0  0.92280793087E+01  0.17500131673E+02 -0.38629145321E+02  0.43400724931E+02  0.00000000000E+00 0. -1.
         11    1    3    3    0    0 -0.43888128960E+01 -0.46063288787E+01  0.19464156621E+02  0.20477630176E+02  0.51100000000E-03 0. -1.
        -11    1    3    3    0    0 -0.52868952315E+01 -0.15678440793E+02  0.17238157013E+02  0.23893907683E+02  0.51100000000E-03 0.  1.
         12    1    3    3    0    0  0.44762881875E+00  0.27846379990E+01  0.19268316870E+01  0.34157372110E+01  0.00000000000E+00 0. -1.
</event>
<event>
 7    1  0.2733256E-010  0.4778727E+02  0.7816164E-02  0.1312668E+00
        -11   -1    0    0    0    0  0.00000000000E+00  0.00000000000E+00  0.45593999997E+02  0.45594000000E+02  0.51100000000E-03 0.  1.
         11   -1    0    0    0    0 -0.00000000000E+00 -0.00000000000E+00 -0.45593999997E+02  0.45594000000E+02  0.51100000000E-03 0. -1.
    9900012    2    1    2    0    0 -0.37360899705E+02  0.93875714026E+01  0.19991496002E+02  0.47787271480E+02  0.20000001988E+02 0.  0.
         12    1    1    2    0    0  0.37360899705E+02 -0.93875714026E+01 -0.19991496002E+02  0.43400728520E+02  0.00000000000E+00 0. -1.
         11    1    3    3    0    0 -0.49806950238E+01  0.53126058308E-01  0.14489529412E+01  0.51874473670E+01  0.51100000000E-03 0. -1.
        -11    1    3    3    0    0 -0.27305647568E+02  0.98665555643E+00  0.85612183783E+01  0.28633308204E+02  0.51100000000E-03 0.  1.
         12    1    3    3    0    0 -0.50745571132E+01  0.83477897878E+01  0.99813246826E+01  0.13966515910E+02  0.00000000000E+00 0. -1.
</event>
<event>
 7    1  0.2733256E-010  0.4778727E+02  0.7816164E-02  0.1312668E+00
        -11   -1    0    0    0    0  0.00000000000E+00  0.00000000000E+00  0.45593999997E+02  0.45594000000E+02  0.51100000000E-03 0.  1.
         11   -1    0    0    0    0 -0.00000000000E+00 -0.00000000000E+00 -0.45593999997E+02  0.45594000000E+02  0.51100000000E-03 0. -1.
    9900012    2    1    2    0    0 -0.20064096217E+02  0.35841399784E+02  0.14016035546E+02  0.47787272496E+02  0.20000006617E+02 0.  0.
         12    1    1    2    0    0  0.20064096217E+02 -0.35841399784E+02 -0.14016035546E+02  0.43400727504E+02  0.00000000000E+00 0. -1.
         11    1    3    3    0    0 -0.22938262852E+01  0.63004580852E-01  0.13597198754E+00  0.22987164346E+01  0.51100000000E-03 0. -1.
        -11    1    3    3    0    0 -0.17353170023E+02  0.16933653101E+02  0.10090014953E+02  0.26261940507E+02  0.51100000000E-03 0.  1.
         12    1    3    3    0    0 -0.41709990863E+00  0.18844742103E+02  0.37900486050E+01  0.19226615554E+02  0.00000000000E+00 0. -1.
</event>
<event>
 7    1  0.2733256E-010  0.4778727E+02  0.7816164E-02  0.1312668E+00
        -11   -1    0    0    0    0  0.00000000000E+00  0.00000000000E+00  0.45593999997E+02  0.45594000000E+02  0.51100000000E-03 0.  1.
         11   -1    0    0    0    0 -0.00000000000E+00 -0.00000000000E+00 -0.45593999997E+02  0.45594000000E+02  0.51100000000E-03 0. -1.
    9900012    2    1    2    0    0  0.40005624866E+02  0.52733189355E+00  0.16819486242E+02  0.47787271696E+02  0.20000002972E+02 0.  0.
         12    1    1    2    0    0 -0.40005624866E+02 -0.52733189355E+00 -0.16819486242E+02  0.43400728304E+02  0.00000000000E+00 0. -1.
         11    1    3    3    0    0  0.19971416122E+02  0.39451677043E+01  0.15836721101E+02  0.25791927915E+02  0.51100000000E-03 0. -1.
        -11    1    3    3    0    0  0.31254584961E+01  0.13746105874E+01  0.26775174992E+01  0.43390258466E+01  0.51100000000E-03 0.  1.
        -12    1    3    3    0    0  0.16908750249E+02 -0.47924463982E+01 -0.16947523580E+01  0.17656317934E+02  0.00000000000E+00 0.  1.
</event>
<event>
 7    1  0.2733256E-010  0.4778727E+02  0.7816164E-02  0.1312668E+00
        -11   -1    0    0    0    0  0.00000000000E+00  0.00000000000E+00  0.45593999997E+02  0.45594000000E+02  0.51100000000E-03 0.  1.
         11   -1    0    0    0    0 -0.00000000000E+00 -0.00000000000E+00 -0.45593999997E+02  0.45594000000E+02  0.51100000000E-03 0. -1.
    9900012    2    1    2    0    0  0.25897629560E+02 -0.33985407921E+02  0.76110332259E+01  0.47787274255E+02  0.20000014639E+02 0.  0.
         12    1    1    2    0    0 -0.25897629560E+02  0.33985407921E+02 -0.76110332259E+01  0.43400725745E+02  0.00000000000E+00 0. -1.
         11    1    3    3    0    0  0.49645639615E+01 -0.60863384068E+01  0.91210286556E+01  0.12036759303E+02  0.51100000000E-03 0. -1.
        -11    1    3    3    0    0  0.21745053141E+01 -0.12421695791E+01 -0.19147087432E+01  0.31523909112E+01  0.51100000000E-03 0.  1.
        -12    1    3    3    0    0  0.18758560284E+02 -0.26656899935E+02  0.40471331353E+00  0.32598124041E+02  0.00000000000E+00 0.  1.
</event>
<event>
 7    1  0.2733256E-010  0.4778727E+02  0.7816164E-02  0.1312668E+00
        -11   -1    0    0    0    0  0.00000000000E+00  0.00000000000E+00  0.45593999997E+02  0.45594000000E+02  0.51100000000E-03 0.  1.
         11   -1    0    0    0    0 -0.00000000000E+00 -0.00000000000E+00 -0.45593999997E+02  0.45594000000E+02  0.51100000000E-03 0. -1.
    9900012    2    1    2    0    0 -0.27545699747E+01  0.42257670530E+02 -0.95039263634E+01  0.47787274306E+02  0.20000014873E+02 0.  0.
         12    1    1    2    0    0  0.27545699747E+01 -0.42257670530E+02  0.95039263634E+01  0.43400725694E+02  0.00000000000E+00 0. -1.
         11    1    3    3    0    0 -0.27782549003E+01  0.73334125051E+01 -0.38668629941E+01  0.87435844445E+01  0.51100000000E-03 0. -1.
        -11    1    3    3    0    0 -0.79281069097E+01  0.18736009551E+02 -0.75303125157E+00  0.20358290434E+02  0.51100000000E-03 0.  1.
         12    1    3    3    0    0  0.79517918353E+01  0.16188248475E+02 -0.48840321178E+01  0.18685399428E+02  0.00000000000E+00 0. -1.
</event>
<event>
 7    1  0.2733256E-010  0.4778727E+02  0.7816164E-02  0.1312668E+00
        -11   -1    0    0    0    0  0.00000000000E+00  0.00000000000E+00  0.45593999997E+02  0.45594000000E+02  0.51100000000E-03 0. -1.
         11   -1    0    0    0    0 -0.00000000000E+00 -0.00000000000E+00 -0.45593999997E+02  0.45594000000E+02  0.51100000000E-03 0.  1.
    9900012    2    1    2    0    0  0.21942893362E+01  0.39769917141E+02 -0.17238388721E+02  0.47787271195E+02  0.20000000687E+02 0.  0.
         12    1    1    2    0    0 -0.21942893362E+01 -0.39769917141E+02  0.17238388721E+02  0.43400728805E+02  0.00000000000E+00 0. -1.
         11    1    3    3    0    0 -0.12056723867E+00 -0.16025025889E+00 -0.31085926196E+01  0.31150545646E+01  0.51100000000E-03 0. -1.
        -11    1    3    3    0    0  0.78087020961E+01  0.16450325789E+02 -0.72096497725E+01  0.19584894616E+02  0.51100000000E-03 0.  1.
         12    1    3    3    0    0 -0.54938455212E+01  0.23479841610E+02 -0.69201463290E+01  0.25087322015E+02  0.00000000000E+00 0. -1.
</event>
<event>
 7    1  0.2733256E-010  0.4778728E+02  0.7816164E-02  0.1312668E+00
        -11   -1    0    0    0    0  0.00000000000E+00  0.00000000000E+00  0.45593999997E+02  0.45594000000E+02  0.51100000000E-03 0. -1.
         11   -1    0    0    0    0 -0.00000000000E+00 -0.00000000000E+00 -0.45593999997E+02  0.45594000000E+02  0.51100000000E-03 0.  1.
    9900012    2    1    2    0    0  0.14930200448E+02  0.47220490200E+01 -0.40477321608E+02  0.47787283451E+02  0.20000056567E+02 0.  0.
         12    1    1    2    0    0 -0.14930200448E+02 -0.47220490200E+01  0.40477321608E+02  0.43400716549E+02  0.00000000000E+00 0. -1.
         11    1    3    3    0    0  0.99522760513E+01  0.45746016660E+01 -0.14237822620E+02  0.17963584615E+02  0.51100000000E-03 0. -1.
        -11    1    3    3    0    0  0.92723723380E+01 -0.18239243773E+01 -0.17515951026E+02  0.19902565902E+02  0.51100000000E-03 0.  1.
         12    1    3    3    0    0 -0.42944479417E+01  0.19713717312E+01 -0.87235479632E+01  0.99211329339E+01  0.00000000000E+00 0. -1.
</event>
<event>
 7    1  0.2733256E-010  0.4778727E+02  0.7816164E-02  0.1312668E+00
        -11   -1    0    0    0    0  0.00000000000E+00  0.00000000000E+00  0.45593999997E+02  0.45594000000E+02  0.51100000000E-03 0. -1.
         11   -1    0    0    0    0 -0.00000000000E+00 -0.00000000000E+00 -0.45593999997E+02  0.45594000000E+02  0.51100000000E-03 0.  1.
    9900012    2    1    2    0    0  0.37517634545E+02  0.21361947074E+02 -0.44404396438E+01  0.47787272023E+02  0.20000004463E+02 0.  0.
         12    1    1    2    0    0 -0.37517634545E+02 -0.21361947074E+02  0.44404396438E+01  0.43400727977E+02  0.00000000000E+00 0. -1.
         11    1    3    3    0    0  0.23431242222E+00 -0.98650938978E+00 -0.13307421856E+01  0.16730146781E+01  0.51100000000E-03 0. -1.
        -11    1    3    3    0    0  0.97500552180E+01  0.14271148788E+02 -0.20009541131E+01  0.17399226480E+02  0.51100000000E-03 0.  1.
        -12    1    3    3    0    0  0.27533266905E+02  0.80773076756E+01 -0.11087433450E+01  0.28715030865E+02  0.00000000000E+00 0.  1.
</event>
<event>
 7    1  0.2733256E-010  0.4778727E+02  0.7816164E-02  0.1312668E+00
        -11   -1    0    0    0    0  0.00000000000E+00  0.00000000000E+00  0.45593999997E+02  0.45594000000E+02  0.51100000000E-03 0. -1.
         11   -1    0    0    0    0 -0.00000000000E+00 -0.00000000000E+00 -0.45593999997E+02  0.45594000000E+02  0.51100000000E-03 0.  1.
    9900012    2    1    2    0    0 -0.14981908705E+02 -0.21250165294E+02 -0.34750485474E+02  0.47787270120E+02  0.19999995785E+02 0.  0.
         12    1    1    2    0    0  0.14981908705E+02  0.21250165294E+02  0.34750485474E+02  0.43400729880E+02  0.00000000000E+00 0. -1.
         11    1    3    3    0    0 -0.13665596500E+02 -0.13179585409E+02 -0.22021025371E+02  0.29075342782E+02  0.51100000000E-03 0.  1.
        -11    1    3    3    0    0 -0.68163272049E+00 -0.98380544791E+01 -0.56030527753E+01  0.11342228166E+02  0.51100000000E-03 0. -1.
         12    1    3    3    0    0 -0.63467948446E+00  0.17674745941E+01 -0.71264073276E+01  0.73696991722E+01  0.00000000000E+00 0. -1.
</event>
<event>
 7    1  0.2733256E-010  0.4778727E+02  0.7816164E-02  0.1312668E+00
        -11   -1    0    0    0    0  0.00000000000E+00  0.00000000000E+00  0.45593999997E+02  0.45594000000E+02  0.51100000000E-03 0. -1.
         11   -1    0    0    0    0 -0.00000000000E+00 -0.00000000000E+00 -0.45593999997E+02  0.45594000000E+02  0.51100000000E-03 0.  1.
    9900012    2    1    2    0    0  0.39556804013E+02  0.15571303626E+02  0.87416665873E+01  0.47787274487E+02  0.20000015695E+02 0.  0.
         12    1    1    2    0    0 -0.39556804013E+02 -0.15571303626E+02 -0.87416665873E+01  0.43400725513E+02  0.00000000000E+00 0. -1.
         11    1    3    3    0    0  0.65757041404E+01  0.61700145976E+01 -0.17742899765E+01  0.91900527887E+01  0.51100000000E-03 0. -1.
        -11    1    3    3    0    0  0.10937560252E+02  0.65937819408E+01 -0.22524494465E+01  0.12968489246E+02  0.51100000000E-03 0.  1.
        -12    1    3    3    0    0  0.22043539621E+02  0.28075070871E+01  0.12768406010E+02  0.25628732453E+02  0.00000000000E+00 0.  1.
</event>
<event>
 7    1  0.2733256E-010  0.4778727E+02  0.7816164E-02  0.1312668E+00
        -11   -1    0    0    0    0  0.00000000000E+00  0.00000000000E+00  0.45593999997E+02  0.45594000000E+02  0.51100000000E-03 0. -1.
         11   -1    0    0    0    0 -0.00000000000E+00 -0.00000000000E+00 -0.45593999997E+02  0.45594000000E+02  0.51100000000E-03 0.  1.
    9900012    2    1    2    0    0  0.13167153697E+02 -0.24185272784E+02 -0.33545819332E+02  0.47787270159E+02  0.19999995963E+02 0.  0.
         12    1    1    2    0    0 -0.13167153697E+02  0.24185272784E+02  0.33545819332E+02  0.43400729841E+02  0.00000000000E+00 0. -1.
         11    1    3    3    0    0  0.14523165229E+01 -0.86660376899E+01 -0.87087408221E+00  0.88299407956E+01  0.51100000000E-03 0. -1.
        -11    1    3    3    0    0  0.58797320744E+01 -0.64972039796E+01 -0.73132422169E+01  0.11413519212E+02  0.51100000000E-03 0.  1.
        -12    1    3    3    0    0  0.58351050994E+01 -0.90220311140E+01 -0.25361703033E+02  0.27543810151E+02  0.00000000000E+00 0.  1.
</event>
<event>
 7    1  0.2733256E-010  0.4778727E+02  0.7816164E-02  0.1312668E+00
        -11   -1    0    0    0    0  0.00000000000E+00  0.00000000000E+00  0.45593999997E+02  0.45594000000E+02  0.51100000000E-03 0. -1.
         11   -1    0    0    0    0 -0.00000000000E+00 -0.00000000000E+00 -0.45593999997E+02  0.45594000000E+02  0.51100000000E-03 0.  1.
    9900012    2    1    2    0    0  0.33053201122E+02  0.24348664889E+01  0.28021075816E+02  0.47787269947E+02  0.19999994994E+02 0.  0.
         12    1    1    2    0    0 -0.33053201122E+02 -0.24348664889E+01 -0.28021075816E+02  0.43400730053E+02  0.00000000000E+00 0. -1.
         11    1    3    3    0    0  0.15737046906E+02  0.94191994821E+01  0.20590254341E+02  0.27574164326E+02  0.51100000000E-03 0. -1.
        -11    1    3    3    0    0  0.47125425692E+01 -0.22794412818E+01  0.30808858893E+01  0.60741886822E+01  0.51100000000E-03 0.  1.
         12    1    3    3    0    0  0.12603611647E+02 -0.47048917114E+01  0.43499355858E+01  0.14138916938E+02  0.00000000000E+00 0. -1.
</event>
<event>
 7    1  0.2733256E-010  0.4778727E+02  0.7816164E-02  0.1312668E+00
        -11   -1    0    0    0    0  0.00000000000E+00  0.00000000000E+00  0.45593999997E+02  0.45594000000E+02  0.51100000000E-03 0.  1.
         11   -1    0    0    0    0 -0.00000000000E+00 -0.00000000000E+00 -0.45593999997E+02  0.45594000000E+02  0.51100000000E-03 0. -1.
    9900012    2    1    2    0    0  0.35233127259E+02  0.11004652246E+02  0.22828656962E+02  0.47787271824E+02  0.20000003553E+02 0.  0.
         12    1    1    2    0    0 -0.35233127259E+02 -0.11004652246E+02 -0.22828656962E+02  0.43400728176E+02  0.00000000000E+00 0. -1.
         11    1    3    3    0    0  0.76620522844E+01  0.49433167546E+01  0.51202783256E+01  0.10457565498E+02  0.51100000000E-03 0.  1.
        -11    1    3    3    0    0  0.18679035916E+02  0.16721278547E+01  0.21454835298E+01  0.18876056107E+02  0.51100000000E-03 0. -1.
         12    1    3    3    0    0  0.88920390590E+01  0.43892076369E+01  0.15562895107E+02  0.18453650219E+02  0.00000000000E+00 0. -1.
</event>
<event>
 7    1  0.2733256E-010  0.4778728E+02  0.7816164E-02  0.1312668E+00
        -11   -1    0    0    0    0  0.00000000000E+00  0.00000000000E+00  0.45593999997E+02  0.45594000000E+02  0.51100000000E-03 0.  1.
         11   -1    0    0    0    0 -0.00000000000E+00 -0.00000000000E+00 -0.45593999997E+02  0.45594000000E+02  0.51100000000E-03 0. -1.
    9900012    2    1    2    0    0 -0.35353004367E+01  0.36987540837E+02  0.22428692547E+02  0.47787276783E+02  0.20000026165E+02 0.  0.
         12    1    1    2    0    0  0.35353004367E+01 -0.36987540837E+02 -0.22428692547E+02  0.43400723217E+02  0.00000000000E+00 0. -1.
         11    1    3    3    0    0  0.40179910931E+01  0.11253888500E+02  0.54448235910E+01  0.13131654998E+02  0.51100000000E-03 0. -1.
        -11    1    3    3    0    0 -0.93624445497E+00  0.10682936095E+02 -0.39624907762E+00  0.10731201744E+02  0.51100000000E-03 0.  1.
         12    1    3    3    0    0 -0.66170470749E+01  0.15050716242E+02  0.17380118034E+02  0.23924420040E+02  0.00000000000E+00 0. -1.
</event>
<event>
 7    1  0.2733256E-010  0.4778723E+02  0.7816164E-02  0.1312668E+00
        -11   -1    0    0    0    0  0.00000000000E+00  0.00000000000E+00  0.45593999997E+02  0.45594000000E+02  0.51100000000E-03 0.  1.
         11   -1    0    0    0    0 -0.00000000000E+00 -0.00000000000E+00 -0.45593999997E+02  0.45594000000E+02  0.51100000000E-03 0. -1.
    9900012    2    1    2    0    0 -0.63964057426E+01  0.39508718984E+02  0.16786134156E+02  0.47787226020E+02  0.19999794715E+02 0.  0.
         12    1    1    2    0    0  0.63964057426E+01 -0.39508718984E+02 -0.16786134156E+02  0.43400773980E+02  0.00000000000E+00 0. -1.
         11    1    3    3    0    0 -0.42033512651E+01  0.61142199135E+01 -0.14716981580E+01  0.75642410550E+01  0.51100000000E-03 0. -1.
        -11    1    3    3    0    0 -0.60556495742E+01  0.18251717594E+02  0.53677132328E+01  0.19965180503E+02  0.51100000000E-03 0.  1.
        -12    1    3    3    0    0  0.38625950966E+01  0.15142781476E+02  0.12890119081E+02  0.20257804462E+02  0.00000000000E+00 0.  1.
</event>
<event>
 7    1  0.2733256E-010  0.4778727E+02  0.7816164E-02  0.1312668E+00
        -11   -1    0    0    0    0  0.00000000000E+00  0.00000000000E+00  0.45593999997E+02  0.45594000000E+02  0.51100000000E-03 0.  1.
         11   -1    0    0    0    0 -0.00000000000E+00 -0.00000000000E+00 -0.45593999997E+02  0.45594000000E+02  0.51100000000E-03 0. -1.
    9900012    2    1    2    0    0  0.35349490476E+02 -0.22646792419E+02 -0.11007249395E+02  0.47787271630E+02  0.20000002671E+02 0.  0.
         12    1    1    2    0    0 -0.35349490476E+02  0.22646792419E+02  0.11007249395E+02  0.43400728370E+02  0.00000000000E+00 0. -1.
         11    1    3    3    0    0  0.89333710342E+01  0.12831304733E+01 -0.17324628229E+01  0.91898296796E+01  0.51100000000E-03 0. -1.
        -11    1    3    3    0    0  0.86190647241E+01 -0.16705218627E+01 -0.38491185979E+01  0.95861689039E+01  0.51100000000E-03 0.  1.
        -12    1    3    3    0    0  0.17797054718E+02 -0.22259401029E+02 -0.54256679740E+01  0.29011273047E+02  0.00000000000E+00 0.  1.
</event>
<event>
 7    1  0.2733256E-010  0.4778727E+02  0.7816164E-02  0.1312668E+00
        -11   -1    0    0    0    0  0.00000000000E+00  0.00000000000E+00  0.45593999997E+02  0.45594000000E+02  0.51100000000E-03 0. -1.
         11   -1    0    0    0    0 -0.00000000000E+00 -0.00000000000E+00 -0.45593999997E+02  0.45594000000E+02  0.51100000000E-03 0.  1.
    9900012    2    1    2    0    0 -0.95064400325E+00  0.38909296832E+02 -0.19203801153E+02  0.47787273247E+02  0.20000010040E+02 0.  0.
         12    1    1    2    0    0  0.95064400325E+00 -0.38909296832E+02  0.19203801153E+02  0.43400726753E+02  0.00000000000E+00 0. -1.
         11    1    3    3    0    0 -0.12165808618E+01  0.19913961361E+02 -0.32173152807E+01  0.20208835789E+02  0.51100000000E-03 0. -1.
        -11    1    3    3    0    0 -0.33199073403E+01  0.18511366423E+02 -0.14042578139E+02  0.23470970850E+02  0.51100000000E-03 0.  1.
        -12    1    3    3    0    0  0.35858441988E+01  0.48396904894E+00 -0.19439077331E+01  0.41074666077E+01  0.00000000000E+00 0.  1.
</event>
<event>
 7    1  0.2733256E-010  0.4778726E+02  0.7816164E-02  0.1312668E+00
        -11   -1    0    0    0    0  0.00000000000E+00  0.00000000000E+00  0.45593999997E+02  0.45594000000E+02  0.51100000000E-03 0.  1.
         11   -1    0    0    0    0 -0.00000000000E+00 -0.00000000000E+00 -0.45593999997E+02  0.45594000000E+02  0.51100000000E-03 0. -1.
    9900012    2    1    2    0    0  0.54174137319E+01 -0.81144541806E+01  0.42289850203E+02  0.47787260739E+02  0.19999953015E+02 0.  0.
         12    1    1    2    0    0 -0.54174137319E+01  0.81144541806E+01 -0.42289850203E+02  0.43400739261E+02  0.00000000000E+00 0. -1.
         11    1    3    3    0    0  0.36643621441E+01 -0.68784317412E+01  0.22890308242E+02  0.24180706872E+02  0.51100000000E-03 0. -1.
        -11    1    3    3    0    0 -0.16377475744E+01 -0.52132818418E+01  0.16997933913E+02  0.17854699164E+02  0.51100000000E-03 0.  1.
        -12    1    3    3    0    0  0.33907991622E+01  0.39772594024E+01  0.24016080483E+01  0.57518547035E+01  0.00000000000E+00 0.  1.
</event>
<event>
 7    1  0.2733256E-010  0.4778727E+02  0.7816164E-02  0.1312668E+00
        -11   -1    0    0    0    0  0.00000000000E+00  0.00000000000E+00  0.45593999997E+02  0.45594000000E+02  0.51100000000E-03 0. -1.
         11   -1    0    0    0    0 -0.00000000000E+00 -0.00000000000E+00 -0.45593999997E+02  0.45594000000E+02  0.51100000000E-03 0.  1.
    9900012    2    1    2    0    0 -0.23267731121E+02 -0.95374536505E+01 -0.35373336922E+02  0.47787270759E+02  0.19999998700E+02 0.  0.
         12    1    1    2    0    0  0.23267731121E+02  0.95374536505E+01  0.35373336922E+02  0.43400729241E+02  0.00000000000E+00 0. -1.
         11    1    3    3    0    0 -0.30533474013E+01 -0.49863464531E+01 -0.53269005520E+00  0.58711447145E+01  0.51100000000E-03 0. -1.
        -11    1    3    3    0    0 -0.10193132263E+02 -0.73848752376E+01 -0.15669810295E+02  0.20099235870E+02  0.51100000000E-03 0.  1.
        -12    1    3    3    0    0 -0.10021251456E+02  0.28337680402E+01 -0.19170836571E+02  0.21816890175E+02  0.00000000000E+00 0.  1.
</event>
<event>
 7    1  0.2733256E-010  0.4778727E+02  0.7816164E-02  0.1312668E+00
        -11   -1    0    0    0    0  0.00000000000E+00  0.00000000000E+00  0.45593999997E+02  0.45594000000E+02  0.51100000000E-03 0.  1.
         11   -1    0    0    0    0 -0.00000000000E+00 -0.00000000000E+00 -0.45593999997E+02  0.45594000000E+02  0.51100000000E-03 0. -1.
    9900012    2    1    2    0    0  0.36373696196E+02 -0.61536536917E+01 -0.22862853257E+02  0.47787270884E+02  0.19999999270E+02 0.  0.
         12    1    1    2    0    0 -0.36373696196E+02  0.61536536917E+01  0.22862853257E+02  0.43400729116E+02  0.00000000000E+00 0. -1.
         11    1    3    3    0    0  0.86663578836E+01  0.17069371323E+01 -0.54604695890E+01  0.10384417255E+02  0.51100000000E-03 0. -1.
        -11    1    3    3    0    0  0.51035360830E+01 -0.36439936116E+01 -0.12364313604E+02  0.13863658289E+02  0.51100000000E-03 0.  1.
        -12    1    3    3    0    0  0.22603802229E+02 -0.42165972124E+01 -0.50380700641E+01  0.23539195340E+02  0.00000000000E+00 0.  1.
</event>
<event>
 7    1  0.2733256E-010  0.4778732E+02  0.7816164E-02  0.1312668E+00
        -11   -1    0    0    0    0  0.00000000000E+00  0.00000000000E+00  0.45593999997E+02  0.45594000000E+02  0.51100000000E-03 0.  1.
         11   -1    0    0    0    0 -0.00000000000E+00 -0.00000000000E+00 -0.45593999997E+02  0.45594000000E+02  0.51100000000E-03 0. -1.
    9900012    2    1    2    0    0  0.35956204039E+02 -0.22642498643E+02  0.88367275416E+01  0.47787319045E+02  0.20000218852E+02 0.  0.
         12    1    1    2    0    0 -0.35956204039E+02  0.22642498643E+02 -0.88367275416E+01  0.43400680955E+02  0.00000000000E+00 0. -1.
         11    1    3    3    0    0 -0.79569479723E+00 -0.23457318881E+00 -0.24388066466E+01  0.25760304563E+01  0.51100000000E-03 0. -1.
        -11    1    3    3    0    0  0.85411277817E+01 -0.34336693129E+01  0.55079165319E+01  0.10727445806E+02  0.51100000000E-03 0.  1.
        -12    1    3    3    0    0  0.28210771055E+02 -0.18974256142E+02  0.57676176564E+01  0.34483842783E+02  0.00000000000E+00 0.  1.
</event>
<event>
 7    1  0.2733256E-010  0.4778727E+02  0.7816164E-02  0.1312668E+00
        -11   -1    0    0    0    0  0.00000000000E+00  0.00000000000E+00  0.45593999997E+02  0.45594000000E+02  0.51100000000E-03 0. -1.
         11   -1    0    0    0    0 -0.00000000000E+00 -0.00000000000E+00 -0.45593999997E+02  0.45594000000E+02  0.51100000000E-03 0.  1.
    9900012    2    1    2    0    0 -0.74212499237E+01 -0.20466411749E+02 -0.37545630180E+02  0.47787270675E+02  0.19999998317E+02 0.  0.
         12    1    1    2    0    0  0.74212499237E+01  0.20466411749E+02  0.37545630180E+02  0.43400729325E+02  0.00000000000E+00 0. -1.
         11    1    3    3    0    0 -0.40570428077E+01 -0.16502279806E+01 -0.89175910398E+00  0.44696849209E+01  0.51100000000E-03 0. -1.
        -11    1    3    3    0    0 -0.24226689919E+01 -0.32129941544E+01 -0.66239791196E+00  0.40781647509E+01  0.51100000000E-03 0.  1.
        -12    1    3    3    0    0 -0.94153812414E+00 -0.15603189614E+02 -0.35991473164E+02  0.39239421003E+02  0.00000000000E+00 0.  1.
</event>
<event>
 7    1  0.2733256E-010  0.4778728E+02  0.7816164E-02  0.1312668E+00
        -11   -1    0    0    0    0  0.00000000000E+00  0.00000000000E+00  0.45593999997E+02  0.45594000000E+02  0.51100000000E-03 0.  1.
         11   -1    0    0    0    0 -0.00000000000E+00 -0.00000000000E+00 -0.45593999997E+02  0.45594000000E+02  0.51100000000E-03 0. -1.
    9900012    2    1    2    0    0 -0.13241737386E+02  0.20916080378E+02  0.35648235693E+02  0.47787277248E+02  0.20000028285E+02 0.  0.
         12    1    1    2    0    0  0.13241737386E+02 -0.20916080378E+02 -0.35648235693E+02  0.43400722752E+02  0.00000000000E+00 0. -1.
         11    1    3    3    0    0  0.47385648822E+00  0.23146909089E+01  0.77552494858E+00  0.24867193613E+01  0.51100000000E-03 0.  1.
        -11    1    3    3    0    0 -0.43397101305E+01 -0.18324621935E+00  0.17557618513E+02  0.18086918790E+02  0.51100000000E-03 0. -1.
        -12    1    3    3    0    0 -0.93758837437E+01  0.18784635689E+02  0.17315092231E+02  0.27213639097E+02  0.00000000000E+00 0.  1.
</event>
<event>
 7    1  0.2733256E-010  0.4778726E+02  0.7816164E-02  0.1312668E+00
        -11   -1    0    0    0    0  0.00000000000E+00  0.00000000000E+00  0.45593999997E+02  0.45594000000E+02  0.51100000000E-03 0.  1.
         11   -1    0    0    0    0 -0.00000000000E+00 -0.00000000000E+00 -0.45593999997E+02  0.45594000000E+02  0.51100000000E-03 0. -1.
    9900012    2    1    2    0    0 -0.39209439341E+02  0.18607467758E+02  0.79652322532E-01  0.47787258828E+02  0.19999944302E+02 0.  0.
         12    1    1    2    0    0  0.39209439341E+02 -0.18607467758E+02 -0.79652322532E-01  0.43400741172E+02  0.00000000000E+00 0. -1.
         11    1    3    3    0    0 -0.74892993678E+01  0.91159089511E+01 -0.21502578516E+01  0.11992206224E+02  0.51100000000E-03 0. -1.
        -11    1    3    3    0    0 -0.22668331970E+02  0.92682945101E+01 -0.39860971315E+01  0.24812164920E+02  0.51100000000E-03 0.  1.
        -12    1    3    3    0    0 -0.90518080030E+01  0.22326429632E+00  0.62160073057E+01  0.10982887685E+02  0.00000000000E+00 0.  1.
</event>
<event>
 7    1  0.2733256E-010  0.4778727E+02  0.7816164E-02  0.1312668E+00
        -11   -1    0    0    0    0  0.00000000000E+00  0.00000000000E+00  0.45593999997E+02  0.45594000000E+02  0.51100000000E-03 0. -1.
         11   -1    0    0    0    0 -0.00000000000E+00 -0.00000000000E+00 -0.45593999997E+02  0.45594000000E+02  0.51100000000E-03 0.  1.
    9900012    2    1    2    0    0  0.25587858255E+02 -0.83287759169E+01 -0.34051671711E+02  0.47787270229E+02  0.19999996282E+02 0.  0.
         12    1    1    2    0    0 -0.25587858255E+02  0.83287759169E+01  0.34051671711E+02  0.43400729771E+02  0.00000000000E+00 0. -1.
         11    1    3    3    0    0  0.73062449960E+01  0.19721213423E+01 -0.97608241291E+01  0.12350877154E+02  0.51100000000E-03 0. -1.
        -11    1    3    3    0    0  0.28178030736E+00  0.46398295676E+00 -0.10097185536E+02  0.10111767222E+02  0.51100000000E-03 0.  1.
        -12    1    3    3    0    0  0.17999832952E+02 -0.10764880216E+02 -0.14193662045E+02  0.25324625854E+02  0.00000000000E+00 0.  1.
</event>
<event>
 7    1  0.2733256E-010  0.4778727E+02  0.7816164E-02  0.1312668E+00
        -11   -1    0    0    0    0  0.00000000000E+00  0.00000000000E+00  0.45593999997E+02  0.45594000000E+02  0.51100000000E-03 0.  1.
         11   -1    0    0    0    0 -0.00000000000E+00 -0.00000000000E+00 -0.45593999997E+02  0.45594000000E+02  0.51100000000E-03 0. -1.
    9900012    2    1    2    0    0  0.23589067997E+02  0.11373709012E+02  0.34609504106E+02  0.47787272355E+02  0.20000005975E+02 0.  0.
         12    1    1    2    0    0 -0.23589067997E+02 -0.11373709012E+02 -0.34609504106E+02  0.43400727645E+02  0.00000000000E+00 0. -1.
         11    1    3    3    0    0  0.11844036920E+01 -0.40069779203E+01  0.18428151875E+01  0.45666894175E+01  0.51100000000E-03 0. -1.
        -11    1    3    3    0    0  0.11005234806E+02  0.32712543069E+01  0.11875010172E+02  0.16517631934E+02  0.51100000000E-03 0.  1.
        -12    1    3    3    0    0  0.11399429499E+02  0.12109432625E+02  0.20891678747E+02  0.26702951003E+02  0.00000000000E+00 0.  1.
</event>
<event>
 7    1  0.2733256E-010  0.4778727E+02  0.7816164E-02  0.1312668E+00
        -11   -1    0    0    0    0  0.00000000000E+00  0.00000000000E+00  0.45593999997E+02  0.45594000000E+02  0.51100000000E-03 0.  1.
         11   -1    0    0    0    0 -0.00000000000E+00 -0.00000000000E+00 -0.45593999997E+02  0.45594000000E+02  0.51100000000E-03 0. -1.
    9900012    2    1    2    0    0 -0.34208014548E+01 -0.21061737425E+02  0.37793183323E+02  0.47787269919E+02  0.19999994867E+02 0.  0.
         12    1    1    2    0    0  0.34208014548E+01  0.21061737425E+02 -0.37793183323E+02  0.43400730081E+02  0.00000000000E+00 0. -1.
         11    1    3    3    0    0 -0.73251962644E+01 -0.51321167214E+01  0.67194326276E+01  0.11186952107E+02  0.51100000000E-03 0. -1.
        -11    1    3    3    0    0 -0.23375090749E+01 -0.72175567097E+01  0.18985592586E+02  0.20445287957E+02  0.51100000000E-03 0.  1.
         12    1    3    3    0    0  0.62419038845E+01 -0.87120639936E+01  0.12088158108E+02  0.16155029854E+02  0.00000000000E+00 0. -1.
</event>
<event>
 7    1  0.2733256E-010  0.4778727E+02  0.7816164E-02  0.1312668E+00
        -11   -1    0    0    0    0  0.00000000000E+00  0.00000000000E+00  0.45593999997E+02  0.45594000000E+02  0.51100000000E-03 0.  1.
         11   -1    0    0    0    0 -0.00000000000E+00 -0.00000000000E+00 -0.45593999997E+02  0.45594000000E+02  0.51100000000E-03 0. -1.
    9900012    2    1    2    0    0  0.18354606286E+02 -0.47845154847E+01  0.39036397456E+02  0.47787268592E+02  0.19999988820E+02 0.  0.
         12    1    1    2    0    0 -0.18354606286E+02  0.47845154847E+01 -0.39036397456E+02  0.43400731408E+02  0.00000000000E+00 0. -1.
         11    1    3    3    0    0  0.10760172213E+02  0.39427789398E+01  0.10629067758E+02  0.15630223718E+02  0.51100000000E-03 0. -1.
        -11    1    3    3    0    0 -0.10190917900E+01  0.90793487481E+00  0.71511434968E+01  0.72802298992E+01  0.51100000000E-03 0.  1.
         12    1    3    3    0    0  0.86135258637E+01 -0.96352292993E+01  0.21256186201E+02  0.24876814975E+02  0.00000000000E+00 0. -1.
</event>
<event>
 7    1  0.2733256E-010  0.4778727E+02  0.7816164E-02  0.1312668E+00
        -11   -1    0    0    0    0  0.00000000000E+00  0.00000000000E+00  0.45593999997E+02  0.45594000000E+02  0.51100000000E-03 0. -1.
         11   -1    0    0    0    0 -0.00000000000E+00 -0.00000000000E+00 -0.45593999997E+02  0.45594000000E+02  0.51100000000E-03 0.  1.
    9900012    2    1    2    0    0  0.68965445626E+01 -0.32511633530E+02 -0.27911554033E+02  0.47787268552E+02  0.19999988638E+02 0.  0.
         12    1    1    2    0    0 -0.68965445626E+01  0.32511633530E+02  0.27911554033E+02  0.43400731448E+02  0.00000000000E+00 0. -1.
         11    1    3    3    0    0 -0.24146463825E+01 -0.11868544312E+02 -0.95035498764E+01  0.15395139550E+02  0.51100000000E-03 0. -1.
        -11    1    3    3    0    0  0.19829658854E+00 -0.10207106203E+02 -0.14965595425E+02  0.18116108447E+02  0.51100000000E-03 0.  1.
         12    1    3    3    0    0  0.91128943565E+01 -0.10435983015E+02 -0.34424087310E+01  0.14276020556E+02  0.00000000000E+00 0. -1.
</event>
<event>
 7    1  0.2733256E-010  0.4778727E+02  0.7816164E-02  0.1312668E+00
        -11   -1    0    0    0    0  0.00000000000E+00  0.00000000000E+00  0.45593999997E+02  0.45594000000E+02  0.51100000000E-03 0. -1.
         11   -1    0    0    0    0 -0.00000000000E+00 -0.00000000000E+00 -0.45593999997E+02  0.45594000000E+02  0.51100000000E-03 0.  1.
    9900012    2    1    2    0    0  0.28891038747E+02  0.31988539995E+02 -0.50659817680E+01  0.47787274405E+02  0.20000015323E+02 0.  0.
         12    1    1    2    0    0 -0.28891038747E+02 -0.31988539995E+02  0.50659817680E+01  0.43400725595E+02  0.00000000000E+00 0. -1.
         11    1    3    3    0    0  0.62287504621E+01 -0.20074286990E+01 -0.16871571209E-01  0.65442636876E+01  0.51100000000E-03 0. -1.
        -11    1    3    3    0    0  0.44213655789E+01  0.52931964265E+01 -0.14187914312E+01  0.70412620586E+01  0.51100000000E-03 0.  1.
         12    1    3    3    0    0  0.18240922706E+02  0.28702772268E+02 -0.36303187656E+01  0.34201748659E+02  0.00000000000E+00 0. -1.
</event>
<event>
 7    1  0.2733256E-010  0.4778727E+02  0.7816164E-02  0.1312668E+00
        -11   -1    0    0    0    0  0.00000000000E+00  0.00000000000E+00  0.45593999997E+02  0.45594000000E+02  0.51100000000E-03 0.  1.
         11   -1    0    0    0    0 -0.00000000000E+00 -0.00000000000E+00 -0.45593999997E+02  0.45594000000E+02  0.51100000000E-03 0. -1.
    9900012    2    1    2    0    0  0.23753320831E+02  0.22676835690E+02  0.28375414312E+02  0.47787271149E+02  0.20000000477E+02 0.  0.
         12    1    1    2    0    0 -0.23753320831E+02 -0.22676835690E+02 -0.28375414312E+02  0.43400728851E+02  0.00000000000E+00 0. -1.
         11    1    3    3    0    0  0.14803030915E+02  0.18331485700E+02  0.12444051596E+02  0.26646341449E+02  0.51100000000E-03 0. -1.
        -11    1    3    3    0    0 -0.14613094824E+01  0.29448315279E+01  0.27549073364E+01  0.42891692464E+01  0.51100000000E-03 0.  1.
        -12    1    3    3    0    0  0.10411599399E+02  0.14005184619E+01  0.13176455380E+02  0.16851760454E+02  0.00000000000E+00 0.  1.
</event>
<event>
 7    1  0.2733256E-010  0.4778726E+02  0.7816164E-02  0.1312668E+00
        -11   -1    0    0    0    0  0.00000000000E+00  0.00000000000E+00  0.45593999997E+02  0.45594000000E+02  0.51100000000E-03 0.  1.
         11   -1    0    0    0    0 -0.00000000000E+00 -0.00000000000E+00 -0.45593999997E+02  0.45594000000E+02  0.51100000000E-03 0. -1.
    9900012    2    1    2    0    0 -0.31920976658E+02 -0.20979300060E+02  0.20604472187E+02  0.47787262034E+02  0.19999958920E+02 0.  0.
         12    1    1    2    0    0  0.31920976658E+02  0.20979300060E+02 -0.20604472187E+02  0.43400737966E+02  0.00000000000E+00 0. -1.
         11    1    3    3    0    0 -0.73358498066E+01 -0.22936163570E+01  0.35289553454E+00  0.76941473795E+01  0.51100000000E-03 0. -1.
        -11    1    3    3    0    0 -0.22812845843E+02 -0.91979751335E+01  0.11877491042E+02  0.27314894760E+02  0.51100000000E-03 0.  1.
         12    1    3    3    0    0 -0.17722810086E+01 -0.94877085696E+01  0.83740856106E+01  0.12778219895E+02  0.00000000000E+00 0. -1.
</event>
<event>
 7    1  0.2733256E-010  0.4778727E+02  0.7816164E-02  0.1312668E+00
        -11   -1    0    0    0    0  0.00000000000E+00  0.00000000000E+00  0.45593999997E+02  0.45594000000E+02  0.51100000000E-03 0. -1.
         11   -1    0    0    0    0 -0.00000000000E+00 -0.00000000000E+00 -0.45593999997E+02  0.45594000000E+02  0.51100000000E-03 0.  1.
    9900012    2    1    2    0    0 -0.70983085153E+01  0.41202237299E+02  0.11645297476E+02  0.47787270795E+02  0.19999998862E+02 0.  0.
         12    1    1    2    0    0  0.70983085153E+01 -0.41202237299E+02 -0.11645297476E+02  0.43400729205E+02  0.00000000000E+00 0. -1.
         11    1    3    3    0    0 -0.81658194017E+00  0.12872009639E+02  0.12240322579E+01  0.12955836269E+02  0.51100000000E-03 0. -1.
        -11    1    3    3    0    0 -0.24372751198E+01  0.27001858936E+02  0.42535690505E+01  0.27443278702E+02  0.51100000000E-03 0.  1.
         12    1    3    3    0    0 -0.38444514554E+01  0.13283687247E+01  0.61676961673E+01  0.73881558236E+01  0.00000000000E+00 0. -1.
</event>
<event>
 7    1  0.2733256E-010  0.4778727E+02  0.7816164E-02  0.1312668E+00
        -11   -1    0    0    0    0  0.00000000000E+00  0.00000000000E+00  0.45593999997E+02  0.45594000000E+02  0.51100000000E-03 0.  1.
         11   -1    0    0    0    0 -0.00000000000E+00 -0.00000000000E+00 -0.45593999997E+02  0.45594000000E+02  0.51100000000E-03 0. -1.
    9900012    2    1    2    0    0 -0.25848308840E+02  0.28459372512E+02 -0.20138330497E+02  0.47787270641E+02  0.19999998161E+02 0.  0.
         12    1    1    2    0    0  0.25848308840E+02 -0.28459372512E+02  0.20138330497E+02  0.43400729359E+02  0.00000000000E+00 0. -1.
         11    1    3    3    0    0 -0.15855172156E+01 -0.66569381563E-02 -0.56598070923E+01  0.58776973161E+01  0.51100000000E-03 0. -1.
        -11    1    3    3    0    0 -0.73925712269E+01  0.16305009887E+01 -0.37274594663E+01  0.84381631385E+01  0.51100000000E-03 0.  1.
         12    1    3    3    0    0 -0.16870220398E+02  0.26835528461E+02 -0.10751063939E+02  0.33471410187E+02  0.00000000000E+00 0. -1.
</event>
<event>
 7    1  0.2733256E-010  0.4778727E+02  0.7816164E-02  0.1312668E+00
        -11   -1    0    0    0    0  0.00000000000E+00  0.00000000000E+00  0.45593999997E+02  0.45594000000E+02  0.51100000000E-03 0.  1.
         11   -1    0    0    0    0 -0.00000000000E+00 -0.00000000000E+00 -0.45593999997E+02  0.45594000000E+02  0.51100000000E-03 0. -1.
    9900012    2    1    2    0    0 -0.28055375990E+01 -0.59164380883E+01  0.42903939524E+02  0.47787270657E+02  0.19999998232E+02 0.  0.
         12    1    1    2    0    0  0.28055375990E+01  0.59164380883E+01 -0.42903939524E+02  0.43400729343E+02  0.00000000000E+00 0. -1.
         11    1    3    3    0    0 -0.21478838890E+01 -0.53016553102E+01  0.86424997709E+01  0.10364060825E+02  0.51100000000E-03 0.  1.
        -11    1    3    3    0    0 -0.64984925591E+01  0.23691661142E+01  0.25835451140E+02  0.26745352670E+02  0.51100000000E-03 0. -1.
         12    1    3    3    0    0  0.58408388491E+01 -0.29839488923E+01  0.84259886133E+01  0.10677857162E+02  0.00000000000E+00 0. -1.
</event>
<event>
 7    1  0.2733256E-010  0.4778727E+02  0.7816164E-02  0.1312668E+00
        -11   -1    0    0    0    0  0.00000000000E+00  0.00000000000E+00  0.45593999997E+02  0.45594000000E+02  0.51100000000E-03 0.  1.
         11   -1    0    0    0    0 -0.00000000000E+00 -0.00000000000E+00 -0.45593999997E+02  0.45594000000E+02  0.51100000000E-03 0. -1.
    9900012    2    1    2    0    0 -0.41282019587E+01  0.41665789578E+02  0.11425553114E+02  0.47787270323E+02  0.19999996709E+02 0.  0.
         12    1    1    2    0    0  0.41282019587E+01 -0.41665789578E+02 -0.11425553114E+02  0.43400729677E+02  0.00000000000E+00 0. -1.
         11    1    3    3    0    0 -0.74946927777E+01  0.98985418351E+01  0.52936416310E+01  0.13497192014E+02  0.51100000000E-03 0.  1.
        -11    1    3    3    0    0 -0.32647823460E+01  0.77962981360E+01  0.39307835551E+01  0.93215947138E+01  0.51100000000E-03 0. -1.
        -12    1    3    3    0    0  0.66312731650E+01  0.23970949607E+02  0.22011279278E+01  0.24968483594E+02  0.00000000000E+00 0.  1.
</event>
<event>
 7    1  0.2733256E-010  0.4778727E+02  0.7816164E-02  0.1312668E+00
        -11   -1    0    0    0    0  0.00000000000E+00  0.00000000000E+00  0.45593999997E+02  0.45594000000E+02  0.51100000000E-03 0.  1.
         11   -1    0    0    0    0 -0.00000000000E+00 -0.00000000000E+00 -0.45593999997E+02  0.45594000000E+02  0.51100000000E-03 0. -1.
    9900012    2    1    2    0    0  0.29647122097E+01  0.14108540457E+02  0.40936324302E+02  0.47787273282E+02  0.20000010201E+02 0.  0.
         12    1    1    2    0    0 -0.29647122097E+01 -0.14108540457E+02 -0.40936324302E+02  0.43400726718E+02  0.00000000000E+00 0. -1.
         11    1    3    3    0    0  0.26136886200E+01 -0.10980331656E+01  0.46834805375E+01  0.54746721583E+01  0.51100000000E-03 0.  1.
        -11    1    3    3    0    0 -0.34292507738E+01  0.43766882175E+01  0.15632688549E+01  0.57757224999E+01  0.51100000000E-03 0. -1.
         12    1    3    3    0    0  0.37802743635E+01  0.10829885406E+02  0.34689574909E+02  0.36536878624E+02  0.00000000000E+00 0. -1.
</event>
<event>
 7    1  0.2733256E-010  0.4778727E+02  0.7816164E-02  0.1312668E+00
        -11   -1    0    0    0    0  0.00000000000E+00  0.00000000000E+00  0.45593999997E+02  0.45594000000E+02  0.51100000000E-03 0.  1.
         11   -1    0    0    0    0 -0.00000000000E+00 -0.00000000000E+00 -0.45593999997E+02  0.45594000000E+02  0.51100000000E-03 0. -1.
    9900012    2    1    2    0    0 -0.40938122651E+02  0.53858099932E+01  0.13367366794E+02  0.47787270392E+02  0.19999997027E+02 0.  0.
         12    1    1    2    0    0  0.40938122651E+02 -0.53858099932E+01 -0.13367366794E+02  0.43400729608E+02  0.00000000000E+00 0. -1.
         11    1    3    3    0    0  0.42683019215E+00 -0.12866559831E+01  0.69524006951E+00  0.15234915974E+01  0.51100000000E-03 0. -1.
        -11    1    3    3    0    0 -0.16598189320E+02 -0.44965787408E+01  0.32033354761E+01  0.17492297376E+02  0.51100000000E-03 0.  1.
         12    1    3    3    0    0 -0.24766763524E+02  0.11169044717E+02  0.94687912480E+01  0.28771481419E+02  0.00000000000E+00 0. -1.
</event>
<event>
 7    1  0.2733256E-010  0.4778727E+02  0.7816164E-02  0.1312668E+00
        -11   -1    0    0    0    0  0.00000000000E+00  0.00000000000E+00  0.45593999997E+02  0.45594000000E+02  0.51100000000E-03 0.  1.
         11   -1    0    0    0    0 -0.00000000000E+00 -0.00000000000E+00 -0.45593999997E+02  0.45594000000E+02  0.51100000000E-03 0. -1.
    9900012    2    1    2    0    0  0.15741339681E+01 -0.40954214887E+02  0.14279273146E+02  0.47787271246E+02  0.20000000919E+02 0.  0.
         12    1    1    2    0    0 -0.15741339681E+01  0.40954214887E+02 -0.14279273146E+02  0.43400728754E+02  0.00000000000E+00 0. -1.
         11    1    3    3    0    0  0.28098994512E+01 -0.74851481616E+01  0.20696143703E+01  0.82587094531E+01  0.51100000000E-03 0. -1.
        -11    1    3    3    0    0 -0.75881707513E+01 -0.17646756706E+02  0.12282894945E+01  0.19248300001E+02  0.51100000000E-03 0.  1.
        -12    1    3    3    0    0  0.63524052682E+01 -0.15822310020E+02  0.10981369281E+02  0.20280261792E+02  0.00000000000E+00 0.  1.
</event>
<event>
 7    1  0.2733256E-010  0.4778727E+02  0.7816164E-02  0.1312668E+00
        -11   -1    0    0    0    0  0.00000000000E+00  0.00000000000E+00  0.45593999997E+02  0.45594000000E+02  0.51100000000E-03 0. -1.
         11   -1    0    0    0    0 -0.00000000000E+00 -0.00000000000E+00 -0.45593999997E+02  0.45594000000E+02  0.51100000000E-03 0.  1.
    9900012    2    1    2    0    0  0.38413937144E+02  0.20161086747E+02 -0.12341728003E+01  0.47787272262E+02  0.20000005550E+02 0.  0.
         12    1    1    2    0    0 -0.38413937144E+02 -0.20161086747E+02  0.12341728003E+01  0.43400727738E+02  0.00000000000E+00 0. -1.
         11    1    3    3    0    0  0.14919692148E+02  0.62086706044E+01 -0.31928811054E+01  0.16472379745E+02  0.51100000000E-03 0. -1.
        -11    1    3    3    0    0  0.22393508811E+02  0.10801065566E+02 -0.33060252303E+01  0.25081109571E+02  0.51100000000E-03 0.  1.
         12    1    3    3    0    0  0.11007361844E+01  0.31513505771E+01  0.52647335354E+01  0.62337829451E+01  0.00000000000E+00 0. -1.
</event>
<event>
 7    1  0.2733256E-010  0.4778726E+02  0.7816164E-02  0.1312668E+00
        -11   -1    0    0    0    0  0.00000000000E+00  0.00000000000E+00  0.45593999997E+02  0.45594000000E+02  0.51100000000E-03 0.  1.
         11   -1    0    0    0    0 -0.00000000000E+00 -0.00000000000E+00 -0.45593999997E+02  0.45594000000E+02  0.51100000000E-03 0. -1.
    9900012    2    1    2    0    0  0.38278811810E+02  0.19137877612E+01  0.20364040698E+02  0.47787260712E+02  0.19999952889E+02 0.  0.
         12    1    1    2    0    0 -0.38278811810E+02 -0.19137877612E+01 -0.20364040698E+02  0.43400739288E+02  0.00000000000E+00 0. -1.
         11    1    3    3    0    0  0.26429667253E+01 -0.18856219972E+01  0.10510706043E+00  0.32483674642E+01  0.51100000000E-03 0. -1.
        -11    1    3    3    0    0  0.67460905399E+01  0.37264638120E+01  0.12398830296E+02  0.14598878830E+02  0.51100000000E-03 0.  1.
        -12    1    3    3    0    0  0.28889754545E+02  0.72945946404E-01  0.78601033418E+01  0.29940014418E+02  0.00000000000E+00 0.  1.
</event>
<event>
 7    1  0.2733256E-010  0.4778727E+02  0.7816164E-02  0.1312668E+00
        -11   -1    0    0    0    0  0.00000000000E+00  0.00000000000E+00  0.45593999997E+02  0.45594000000E+02  0.51100000000E-03 0. -1.
         11   -1    0    0    0    0 -0.00000000000E+00 -0.00000000000E+00 -0.45593999997E+02  0.45594000000E+02  0.51100000000E-03 0.  1.
    9900012    2    1    2    0    0  0.29656810779E+02 -0.28244191349E+02 -0.14365315868E+02  0.47787273387E+02  0.20000010681E+02 0.  0.
         12    1    1    2    0    0 -0.29656810779E+02  0.28244191349E+02  0.14365315868E+02  0.43400726613E+02  0.00000000000E+00 0. -1.
         11    1    3    3    0    0  0.22183970835E+02 -0.16345645979E+02 -0.10669320472E+02  0.29548994976E+02  0.51100000000E-03 0. -1.
        -11    1    3    3    0    0  0.25345054368E+01 -0.20002500907E+01 -0.61150191859E+01  0.69150689179E+01  0.51100000000E-03 0.  1.
         12    1    3    3    0    0  0.49383345076E+01 -0.98982952786E+01  0.24190237903E+01  0.11323209493E+02  0.00000000000E+00 0. -1.
</event>
<event>
 7    1  0.2733256E-010  0.4778727E+02  0.7816164E-02  0.1312668E+00
        -11   -1    0    0    0    0  0.00000000000E+00  0.00000000000E+00  0.45593999997E+02  0.45594000000E+02  0.51100000000E-03 0. -1.
         11   -1    0    0    0    0 -0.00000000000E+00 -0.00000000000E+00 -0.45593999997E+02  0.45594000000E+02  0.51100000000E-03 0.  1.
    9900012    2    1    2    0    0 -0.32741185751E+02  0.24964314982E+02  0.13726653728E+02  0.47787270865E+02  0.19999999180E+02 0.  0.
         12    1    1    2    0    0  0.32741185751E+02 -0.24964314982E+02 -0.13726653728E+02  0.43400729135E+02  0.00000000000E+00 0. -1.
         11    1    3    3    0    0 -0.15295105910E+02  0.15156386635E+02  0.47878230676E+01  0.22058548697E+02  0.51100000000E-03 0. -1.
        -11    1    3    3    0    0 -0.17821589064E+02  0.12251733185E+02  0.76450721537E+01  0.22938202443E+02  0.51100000000E-03 0.  1.
         12    1    3    3    0    0  0.37550922374E+00 -0.24438048374E+01  0.12937585065E+01  0.27905197246E+01  0.00000000000E+00 0. -1.
</event>
<event>
 7    1  0.2733256E-010  0.4778727E+02  0.7816164E-02  0.1312668E+00
        -11   -1    0    0    0    0  0.00000000000E+00  0.00000000000E+00  0.45593999997E+02  0.45594000000E+02  0.51100000000E-03 0. -1.
         11   -1    0    0    0    0 -0.00000000000E+00 -0.00000000000E+00 -0.45593999997E+02  0.45594000000E+02  0.51100000000E-03 0.  1.
    9900012    2    1    2    0    0 -0.18024378203E+00  0.29690070007E+02 -0.31655813604E+02  0.47787270977E+02  0.19999999691E+02 0.  0.
         12    1    1    2    0    0  0.18024378203E+00 -0.29690070007E+02  0.31655813604E+02  0.43400729023E+02  0.00000000000E+00 0. -1.
         11    1    3    3    0    0 -0.38932938703E+01  0.13724579637E+02 -0.74026169179E+01  0.16072353930E+02  0.51100000000E-03 0.  1.
        -11    1    3    3    0    0  0.48868337743E+01  0.14855910741E+02 -0.12972242281E+02  0.20318914792E+02  0.51100000000E-03 0. -1.
        -12    1    3    3    0    0 -0.11737836861E+01  0.11095796300E+01 -0.11280954405E+02  0.11396002255E+02  0.00000000000E+00 0.  1.
</event>
<event>
 7    1  0.2733256E-010  0.4778727E+02  0.7816164E-02  0.1312668E+00
        -11   -1    0    0    0    0  0.00000000000E+00  0.00000000000E+00  0.45593999997E+02  0.45594000000E+02  0.51100000000E-03 0. -1.
         11   -1    0    0    0    0 -0.00000000000E+00 -0.00000000000E+00 -0.45593999997E+02  0.45594000000E+02  0.51100000000E-03 0.  1.
    9900012    2    1    2    0    0  0.13226264824E+01 -0.43357517109E+02 -0.14141107067E+01  0.47787270285E+02  0.19999996539E+02 0.  0.
         12    1    1    2    0    0 -0.13226264824E+01  0.43357517109E+02  0.14141107067E+01  0.43400729715E+02  0.00000000000E+00 0. -1.
         11    1    3    3    0    0  0.37296615232E+01 -0.53662618248E+01  0.12596010407E+01  0.66553539419E+01  0.51100000000E-03 0. -1.
        -11    1    3    3    0    0  0.69064970200E+00 -0.37939157807E+02 -0.25602049322E+01  0.38031714945E+02  0.51100000000E-03 0.  1.
         12    1    3    3    0    0 -0.30976847428E+01 -0.52097477456E-01 -0.11350681525E+00  0.31002013983E+01  0.00000000000E+00 0. -1.
</event>
<event>
 7    1  0.2733256E-010  0.4778728E+02  0.7816164E-02  0.1312668E+00
        -11   -1    0    0    0    0  0.00000000000E+00  0.00000000000E+00  0.45593999997E+02  0.45594000000E+02  0.51100000000E-03 0.  1.
         11   -1    0    0    0    0 -0.00000000000E+00 -0.00000000000E+00 -0.45593999997E+02  0.45594000000E+02  0.51100000000E-03 0. -1.
    9900012    2    1    2    0    0 -0.30661097871E+02 -0.33276304107E+01  0.30535992844E+02  0.47787275285E+02  0.20000019336E+02 0.  0.
         12    1    1    2    0    0  0.30661097871E+02  0.33276304107E+01 -0.30535992844E+02  0.43400724715E+02  0.00000000000E+00 0. -1.
         11    1    3    3    0    0 -0.82505488139E+01  0.87144379670E+00  0.27724429216E+01  0.87474230512E+01  0.51100000000E-03 0. -1.
        -11    1    3    3    0    0 -0.24538637205E+02 -0.48927246065E+01  0.26592930374E+02  0.36513934546E+02  0.51100000000E-03 0.  1.
         12    1    3    3    0    0  0.21280881474E+01  0.69365039910E+00  0.11706195480E+01  0.25259176878E+01  0.00000000000E+00 0. -1.
</event>
<event>
 7    1  0.2733256E-010  0.4778727E+02  0.7816164E-02  0.1312668E+00
        -11   -1    0    0    0    0  0.00000000000E+00  0.00000000000E+00  0.45593999997E+02  0.45594000000E+02  0.51100000000E-03 0.  1.
         11   -1    0    0    0    0 -0.00000000000E+00 -0.00000000000E+00 -0.45593999997E+02  0.45594000000E+02  0.51100000000E-03 0. -1.
    9900012    2    1    2    0    0  0.32795660212E+02  0.26371333388E+02  0.10612295927E+02  0.47787269842E+02  0.19999994518E+02 0.  0.
         12    1    1    2    0    0 -0.32795660212E+02 -0.26371333388E+02 -0.10612295927E+02  0.43400730158E+02  0.00000000000E+00 0. -1.
         11    1    3    3    0    0  0.60287046428E+01 -0.52726791389E+00  0.52387413710E+01  0.80042302901E+01  0.51100000000E-03 0.  1.
        -11    1    3    3    0    0  0.48503022501E+01  0.28155246967E+01  0.45301245671E+01  0.72093439431E+01  0.51100000000E-03 0. -1.
         12    1    3    3    0    0  0.21916653319E+02  0.24083076605E+02  0.84342998895E+00  0.32573695609E+02  0.00000000000E+00 0. -1.
</event>
<event>
 7    1  0.2733256E-010  0.4778728E+02  0.7816164E-02  0.1312668E+00
        -11   -1    0    0    0    0  0.00000000000E+00  0.00000000000E+00  0.45593999997E+02  0.45594000000E+02  0.51100000000E-03 0.  1.
         11   -1    0    0    0    0 -0.00000000000E+00 -0.00000000000E+00 -0.45593999997E+02  0.45594000000E+02  0.51100000000E-03 0. -1.
    9900012    2    1    2    0    0 -0.98234485727E+01 -0.83616582467E+01  0.41439169232E+02  0.47787283219E+02  0.20000055507E+02 0.  0.
         12    1    1    2    0    0  0.98234485727E+01  0.83616582467E+01 -0.41439169232E+02  0.43400716781E+02  0.00000000000E+00 0. -1.
         11    1    3    3    0    0  0.82553067467E+00 -0.51415715618E+01  0.14384453430E+01  0.54024424371E+01  0.51100000000E-03 0. -1.
        -11    1    3    3    0    0 -0.67216371471E+01 -0.34890772673E+01  0.12585178334E+02  0.14688116969E+02  0.51100000000E-03 0.  1.
        -12    1    3    3    0    0 -0.39273421003E+01  0.26899058239E+00  0.27415545555E+02  0.27696723813E+02  0.00000000000E+00 0.  1.
</event>
<event>
 7    1  0.2733256E-010  0.4778728E+02  0.7816164E-02  0.1312668E+00
        -11   -1    0    0    0    0  0.00000000000E+00  0.00000000000E+00  0.45593999997E+02  0.45594000000E+02  0.51100000000E-03 0.  1.
         11   -1    0    0    0    0 -0.00000000000E+00 -0.00000000000E+00 -0.45593999997E+02  0.45594000000E+02  0.51100000000E-03 0. -1.
    9900012    2    1    2    0    0 -0.38496553901E+02 -0.18009119980E+02  0.87925901816E+01  0.47787277577E+02  0.20000029785E+02 0.  0.
         12    1    1    2    0    0  0.38496553901E+02  0.18009119980E+02 -0.87925901816E+01  0.43400722423E+02  0.00000000000E+00 0. -1.
         11    1    3    3    0    0 -0.69538565866E+00  0.16693414638E+01  0.26524578065E+01  0.32102639788E+01  0.51100000000E-03 0. -1.
        -11    1    3    3    0    0 -0.29423694013E+00 -0.17836219164E+01 -0.14685840605E+01  0.23290817765E+01  0.51100000000E-03 0.  1.
        -12    1    3    3    0    0 -0.37506931302E+02 -0.17894839528E+02  0.76087164357E+01  0.42247931822E+02  0.00000000000E+00 0.  1.
</event>
<event>
 7    1  0.2733256E-010  0.4778727E+02  0.7816164E-02  0.1312668E+00
        -11   -1    0    0    0    0  0.00000000000E+00  0.00000000000E+00  0.45593999997E+02  0.45594000000E+02  0.51100000000E-03 0.  1.
         11   -1    0    0    0    0 -0.00000000000E+00 -0.00000000000E+00 -0.45593999997E+02  0.45594000000E+02  0.51100000000E-03 0. -1.
    9900012    2    1    2    0    0  0.13256139709E+02 -0.38185428450E+02 -0.15804160233E+02  0.47787266521E+02  0.19999979375E+02 0.  0.
         12    1    1    2    0    0 -0.13256139709E+02  0.38185428450E+02  0.15804160233E+02  0.43400733479E+02  0.00000000000E+00 0. -1.
         11    1    3    3    0    0  0.84214857878E+00 -0.86262251207E+01 -0.89009388500E+01  0.12423674446E+02  0.51100000000E-03 0. -1.
        -11    1    3    3    0    0 -0.18893882002E+01 -0.94722612640E+01  0.33322234557E+00  0.96646033864E+01  0.51100000000E-03 0.  1.
        -12    1    3    3    0    0  0.14303379330E+02 -0.20086942065E+02 -0.72364437287E+01  0.25698988689E+02  0.00000000000E+00 0.  1.
</event>
<event>
 7    1  0.2733256E-010  0.4778728E+02  0.7816164E-02  0.1312668E+00
        -11   -1    0    0    0    0  0.00000000000E+00  0.00000000000E+00  0.45593999997E+02  0.45594000000E+02  0.51100000000E-03 0.  1.
         11   -1    0    0    0    0 -0.00000000000E+00 -0.00000000000E+00 -0.45593999997E+02  0.45594000000E+02  0.51100000000E-03 0. -1.
    9900012    2    1    2    0    0 -0.42557900869E+01  0.19685428442E+02  0.38444701441E+02  0.47787275224E+02  0.20000019057E+02 0.  0.
         12    1    1    2    0    0  0.42557900869E+01 -0.19685428442E+02 -0.38444701441E+02  0.43400724776E+02  0.00000000000E+00 0. -1.
         11    1    3    3    0    0  0.69824893810E+00  0.19090564679E+01  0.11533569677E+02  0.11711331176E+02  0.51100000000E-03 0.  1.
        -11    1    3    3    0    0  0.30200061415E+01  0.12645224407E+01  0.12009774410E+02  0.12448057508E+02  0.51100000000E-03 0. -1.
        -12    1    3    3    0    0 -0.79740451665E+01  0.16511849533E+02  0.14901357355E+02  0.23627886540E+02  0.00000000000E+00 0.  1.
</event>
<event>
 7    1  0.2733256E-010  0.4778727E+02  0.7816164E-02  0.1312668E+00
        -11   -1    0    0    0    0  0.00000000000E+00  0.00000000000E+00  0.45593999997E+02  0.45594000000E+02  0.51100000000E-03 0.  1.
         11   -1    0    0    0    0 -0.00000000000E+00 -0.00000000000E+00 -0.45593999997E+02  0.45594000000E+02  0.51100000000E-03 0. -1.
    9900012    2    1    2    0    0 -0.36435072510E+02  0.14239463310E+02  0.18797507029E+02  0.47787273109E+02  0.20000009414E+02 0.  0.
         12    1    1    2    0    0  0.36435072510E+02 -0.14239463310E+02 -0.18797507029E+02  0.43400726891E+02  0.00000000000E+00 0. -1.
         11    1    3    3    0    0 -0.16350798735E+01 -0.26082370501E+01  0.46071603085E+01  0.55409667994E+01  0.51100000000E-03 0. -1.
        -11    1    3    3    0    0 -0.28865567912E+01  0.45505636052E+01  0.34508496763E+01  0.63990782916E+01  0.51100000000E-03 0.  1.
         12    1    3    3    0    0 -0.31913435845E+02  0.12297136755E+02  0.10739497044E+02  0.35847228018E+02  0.00000000000E+00 0. -1.
</event>
<event>
 7    1  0.2733256E-010  0.4778727E+02  0.7816164E-02  0.1312668E+00
        -11   -1    0    0    0    0  0.00000000000E+00  0.00000000000E+00  0.45593999997E+02  0.45594000000E+02  0.51100000000E-03 0.  1.
         11   -1    0    0    0    0 -0.00000000000E+00 -0.00000000000E+00 -0.45593999997E+02  0.45594000000E+02  0.51100000000E-03 0. -1.
    9900012    2    1    2    0    0  0.25915944082E+02  0.26576159452E+02  0.22487658846E+02  0.47787271789E+02  0.20000003394E+02 0.  0.
         12    1    1    2    0    0 -0.25915944082E+02 -0.26576159452E+02 -0.22487658846E+02  0.43400728211E+02  0.00000000000E+00 0. -1.
         11    1    3    3    0    0  0.59643942582E+00 -0.22049909123E+01  0.14882431412E+01  0.27262781994E+01  0.51100000000E-03 0. -1.
        -11    1    3    3    0    0  0.18550267060E+01  0.88153109572E+01  0.57196669848E+01  0.10670774200E+02  0.51100000000E-03 0.  1.
        -12    1    3    3    0    0  0.23464477950E+02  0.19965839407E+02  0.15279748720E+02  0.34390219389E+02  0.00000000000E+00 0.  1.
</event>
<event>
 7    1  0.2733256E-010  0.4778727E+02  0.7816164E-02  0.1312668E+00
        -11   -1    0    0    0    0  0.00000000000E+00  0.00000000000E+00  0.45593999997E+02  0.45594000000E+02  0.51100000000E-03 0.  1.
         11   -1    0    0    0    0 -0.00000000000E+00 -0.00000000000E+00 -0.45593999997E+02  0.45594000000E+02  0.51100000000E-03 0. -1.
    9900012    2    1    2    0    0  0.69745850775E+01 -0.16680194871E+01  0.42804163096E+02  0.47787268389E+02  0.19999987892E+02 0.  0.
         12    1    1    2    0    0 -0.69745850775E+01  0.16680194871E+01 -0.42804163096E+02  0.43400731611E+02  0.00000000000E+00 0. -1.
         11    1    3    3    0    0  0.59273202833E+01  0.56570191359E+01  0.12366841636E+02  0.14834883335E+02  0.51100000000E-03 0. -1.
        -11    1    3    3    0    0  0.20233338233E+01  0.21884211282E+01  0.89425493955E+01  0.94261475029E+01  0.51100000000E-03 0.  1.
         12    1    3    3    0    0 -0.97606902920E+00 -0.95134597512E+01  0.21494772065E+02  0.23526237551E+02  0.00000000000E+00 0. -1.
</event>
<event>
 7    1  0.2733256E-010  0.4778727E+02  0.7816164E-02  0.1312668E+00
        -11   -1    0    0    0    0  0.00000000000E+00  0.00000000000E+00  0.45593999997E+02  0.45594000000E+02  0.51100000000E-03 0.  1.
         11   -1    0    0    0    0 -0.00000000000E+00 -0.00000000000E+00 -0.45593999997E+02  0.45594000000E+02  0.51100000000E-03 0. -1.
    9900012    2    1    2    0    0 -0.94789293915E+01  0.32533991130E+02  0.27116641695E+02  0.47787274914E+02  0.20000017641E+02 0.  0.
         12    1    1    2    0    0  0.94789293915E+01 -0.32533991130E+02 -0.27116641695E+02  0.43400725086E+02  0.00000000000E+00 0. -1.
         11    1    3    3    0    0  0.22855697530E-01  0.13605793976E+01 -0.89164087116E+00  0.16268750365E+01  0.51100000000E-03 0. -1.
        -11    1    3    3    0    0  0.14207113687E+01  0.14817188927E+02  0.19984308042E+02  0.24918669240E+02  0.51100000000E-03 0.  1.
        -12    1    3    3    0    0 -0.10922496458E+02  0.16356222805E+02  0.80239745236E+01  0.21241730637E+02  0.00000000000E+00 0.  1.
</event>
<event>
 7    1  0.2733256E-010  0.4778727E+02  0.7816164E-02  0.1312668E+00
        -11   -1    0    0    0    0  0.00000000000E+00  0.00000000000E+00  0.45593999997E+02  0.45594000000E+02  0.51100000000E-03 0. -1.
         11   -1    0    0    0    0 -0.00000000000E+00 -0.00000000000E+00 -0.45593999997E+02  0.45594000000E+02  0.51100000000E-03 0.  1.
    9900012    2    1    2    0    0 -0.43303279282E+02  0.22230996486E+01 -0.18726717119E+01  0.47787273417E+02  0.20000010815E+02 0.  0.
         12    1    1    2    0    0  0.43303279282E+02 -0.22230996486E+01  0.18726717119E+01  0.43400726583E+02  0.00000000000E+00 0. -1.
         11    1    3    3    0    0 -0.14551734079E+02  0.24274868690E+01  0.23899325895E+01  0.14945147548E+02  0.51100000000E-03 0.  1.
        -11    1    3    3    0    0 -0.69825033526E+01 -0.61800620293E+01  0.17350076200E+01  0.94846597966E+01  0.51100000000E-03 0. -1.
         12    1    3    3    0    0 -0.21769041851E+02  0.59756748089E+01 -0.59976119215E+01  0.23357466072E+02  0.00000000000E+00 0. -1.
</event>
<event>
 7    1  0.2733256E-010  0.4778726E+02  0.7816164E-02  0.1312668E+00
        -11   -1    0    0    0    0  0.00000000000E+00  0.00000000000E+00  0.45593999997E+02  0.45594000000E+02  0.51100000000E-03 0.  1.
         11   -1    0    0    0    0 -0.00000000000E+00 -0.00000000000E+00 -0.45593999997E+02  0.45594000000E+02  0.51100000000E-03 0. -1.
    9900012    2    1    2    0    0 -0.23785521059E+02  0.33333893573E+02  0.14377911411E+02  0.47787264876E+02  0.19999971876E+02 0.  0.
         12    1    1    2    0    0  0.23785521059E+02 -0.33333893573E+02 -0.14377911411E+02  0.43400735124E+02  0.00000000000E+00 0. -1.
         11    1    3    3    0    0 -0.15976456628E+02  0.15762635209E+02 -0.61389041779E+00  0.22451830590E+02  0.51100000000E-03 0. -1.
        -11    1    3    3    0    0 -0.27061973056E+01  0.26147499575E+01  0.32840595842E+00  0.37773366189E+01  0.51100000000E-03 0.  1.
         12    1    3    3    0    0 -0.51028671249E+01  0.14956508406E+02  0.14663395870E+02  0.21558097667E+02  0.00000000000E+00 0. -1.
</event>
<event>
 7    1  0.2733256E-010  0.4778727E+02  0.7816164E-02  0.1312668E+00
        -11   -1    0    0    0    0  0.00000000000E+00  0.00000000000E+00  0.45593999997E+02  0.45594000000E+02  0.51100000000E-03 0.  1.
         11   -1    0    0    0    0 -0.00000000000E+00 -0.00000000000E+00 -0.45593999997E+02  0.45594000000E+02  0.51100000000E-03 0. -1.
    9900012    2    1    2    0    0  0.22407481890E+02  0.35244786352E+02  0.11803934184E+02  0.47787273371E+02  0.20000010609E+02 0.  0.
         12    1    1    2    0    0 -0.22407481890E+02 -0.35244786352E+02 -0.11803934184E+02  0.43400726629E+02  0.00000000000E+00 0. -1.
         11    1    3    3    0    0  0.66594679184E+01  0.18596162184E+02  0.22578544109E+01  0.19881239089E+02  0.51100000000E-03 0. -1.
        -11    1    3    3    0    0  0.69475368199E+01  0.13637032143E+02  0.10493074417E+02  0.18556441591E+02  0.51100000000E-03 0.  1.
         12    1    3    3    0    0  0.88004771521E+01  0.30115920248E+01 -0.94699464356E+00  0.93495926908E+01  0.00000000000E+00 0. -1.
</event>
<event>
 7    1  0.2733256E-010  0.4778728E+02  0.7816164E-02  0.1312668E+00
        -11   -1    0    0    0    0  0.00000000000E+00  0.00000000000E+00  0.45593999997E+02  0.45594000000E+02  0.51100000000E-03 0.  1.
         11   -1    0    0    0    0 -0.00000000000E+00 -0.00000000000E+00 -0.45593999997E+02  0.45594000000E+02  0.51100000000E-03 0. -1.
    9900012    2    1    2    0    0  0.30739373909E+02  0.31361174222E+01  0.30477503851E+02  0.47787279017E+02  0.20000036351E+02 0.  0.
         12    1    1    2    0    0 -0.30739373909E+02 -0.31361174222E+01 -0.30477503851E+02  0.43400720983E+02  0.00000000000E+00 0. -1.
         11    1    3    3    0    0  0.67518834163E+01  0.83256676621E+01  0.81592138676E+01  0.13471356386E+02  0.51100000000E-03 0. -1.
        -11    1    3    3    0    0  0.13849162870E+02  0.13653476336E+01  0.10625745138E+02  0.17509138938E+02  0.51100000000E-03 0.  1.
         12    1    3    3    0    0  0.10138327623E+02 -0.65548978735E+01  0.11692544846E+02  0.16806783693E+02  0.00000000000E+00 0. -1.
</event>
<event>
 7    1  0.2733256E-010  0.4778728E+02  0.7816164E-02  0.1312668E+00
        -11   -1    0    0    0    0  0.00000000000E+00  0.00000000000E+00  0.45593999997E+02  0.45594000000E+02  0.51100000000E-03 0.  1.
         11   -1    0    0    0    0 -0.00000000000E+00 -0.00000000000E+00 -0.45593999997E+02  0.45594000000E+02  0.51100000000E-03 0. -1.
    9900012    2    1    2    0    0  0.77686533169E+01  0.42590012116E+02 -0.30596871575E+01  0.47787276598E+02  0.20000025319E+02 0.  0.
         12    1    1    2    0    0 -0.77686533169E+01 -0.42590012116E+02  0.30596871575E+01  0.43400723402E+02  0.00000000000E+00 0. -1.
         11    1    3    3    0    0  0.46870188916E+01  0.10275007703E+02 -0.79979924040E+01  0.13838779287E+02  0.51100000000E-03 0. -1.
        -11    1    3    3    0    0  0.25426037295E+01  0.10601262750E+02 -0.21277507620E+01  0.11107606817E+02  0.51100000000E-03 0.  1.
        -12    1    3    3    0    0  0.53903069587E+00  0.21713741662E+02  0.70660560084E+01  0.22840890494E+02  0.00000000000E+00 0.  1.
</event>
<event>
 7    1  0.3666031E-010  0.4778727E+02  0.7816164E-02  0.1312668E+00
        -11   -1    0    0    0    0  0.00000000000E+00  0.00000000000E+00  0.45593999997E+02  0.45594000000E+02  0.51100000000E-03 0. -1.
         11   -1    0    0    0    0 -0.00000000000E+00 -0.00000000000E+00 -0.45593999997E+02  0.45594000000E+02  0.51100000000E-03 0.  1.
    9900012    2    1    2    0    0 -0.13302402237E+02  0.27118852055E+02 -0.31164675472E+02  0.47787273746E+02  0.20000012318E+02 0.  0.
         12    1    1    2    0    0  0.13302402237E+02 -0.27118852055E+02  0.31164675472E+02  0.43400726254E+02  0.00000000000E+00 0. -1.
         11    1    3    3    0    0  0.16083992742E+01  0.10476384953E+01  0.54833027069E+00  0.19962868003E+01  0.51100000000E-03 0. -1.
        -11    1    3    3    0    0 -0.11450515249E+02  0.86597873322E+01 -0.89246646929E+01  0.16904314723E+02  0.51100000000E-03 0.  1.
        -12    1    3    3    0    0 -0.34602862620E+01  0.17411426228E+02 -0.22788341050E+02  0.28886672223E+02  0.00000000000E+00 0.  1.
</event>
<event>
 7    1  0.2733256E-010  0.4778727E+02  0.7816164E-02  0.1312668E+00
        -11   -1    0    0    0    0  0.00000000000E+00  0.00000000000E+00  0.45593999997E+02  0.45594000000E+02  0.51100000000E-03 0. -1.
         11   -1    0    0    0    0 -0.00000000000E+00 -0.00000000000E+00 -0.45593999997E+02  0.45594000000E+02  0.51100000000E-03 0.  1.
    9900012    2    1    2    0    0  0.69281724124E+01 -0.42836946571E+02  0.78718897229E+00  0.47787271539E+02  0.20000002253E+02 0.  0.
         12    1    1    2    0    0 -0.69281724124E+01  0.42836946571E+02 -0.78718897229E+00  0.43400728461E+02  0.00000000000E+00 0. -1.
         11    1    3    3    0    0 -0.29410082497E+01 -0.10096566785E+02 -0.46972965898E+01  0.11517585940E+02  0.51100000000E-03 0. -1.
        -11    1    3    3    0    0 -0.86112347173E+00 -0.15198257201E+02  0.34245035628E+01  0.15603069586E+02  0.51100000000E-03 0.  1.
         12    1    3    3    0    0  0.10730304134E+02 -0.17542122585E+02  0.20599819994E+01  0.20666616013E+02  0.00000000000E+00 0. -1.
</event>
<event>
 7    1  0.2733256E-010  0.4778727E+02  0.7816164E-02  0.1312668E+00
        -11   -1    0    0    0    0  0.00000000000E+00  0.00000000000E+00  0.45593999997E+02  0.45594000000E+02  0.51100000000E-03 0.  1.
         11   -1    0    0    0    0 -0.00000000000E+00 -0.00000000000E+00 -0.45593999997E+02  0.45594000000E+02  0.51100000000E-03 0. -1.
    9900012    2    1    2    0    0  0.14838649074E+01  0.25231591868E+02  0.35281560189E+02  0.47787267602E+02  0.19999984306E+02 0.  0.
         12    1    1    2    0    0 -0.14838649074E+01 -0.25231591868E+02 -0.35281560189E+02  0.43400732398E+02  0.00000000000E+00 0. -1.
         11    1    3    3    0    0 -0.41778096301E+01  0.44083088861E+01  0.38162883495E+01  0.71729587737E+01  0.51100000000E-03 0. -1.
        -11    1    3    3    0    0 -0.15065668315E+01  0.23774301855E+01  0.13809417180E+02  0.14093328954E+02  0.51100000000E-03 0.  1.
        -12    1    3    3    0    0  0.71682413690E+01  0.18445852797E+02  0.17655854660E+02  0.26520979874E+02  0.00000000000E+00 0.  1.
</event>
<event>
 7    1  0.2733256E-010  0.4778726E+02  0.7816164E-02  0.1312668E+00
        -11   -1    0    0    0    0  0.00000000000E+00  0.00000000000E+00  0.45593999997E+02  0.45594000000E+02  0.51100000000E-03 0.  1.
         11   -1    0    0    0    0 -0.00000000000E+00 -0.00000000000E+00 -0.45593999997E+02  0.45594000000E+02  0.51100000000E-03 0. -1.
    9900012    2    1    2    0    0 -0.80618196668E+01  0.20737419674E+01  0.42594960723E+02  0.47787262436E+02  0.19999960750E+02 0.  0.
         12    1    1    2    0    0  0.80618196668E+01 -0.20737419674E+01 -0.42594960723E+02  0.43400737564E+02  0.00000000000E+00 0. -1.
         11    1    3    3    0    0 -0.86907394904E+01  0.11801361174E+01  0.16616244085E+02  0.18788859515E+02  0.51100000000E-03 0. -1.
        -11    1    3    3    0    0 -0.38944101368E+01 -0.43603287466E+01  0.13748074191E+02  0.14939492672E+02  0.51100000000E-03 0.  1.
         12    1    3    3    0    0  0.45233299604E+01  0.52539345966E+01  0.12230642448E+02  0.14058910248E+02  0.00000000000E+00 0. -1.
</event>
<event>
 7    1  0.2733256E-010  0.4778727E+02  0.7816164E-02  0.1312668E+00
        -11   -1    0    0    0    0  0.00000000000E+00  0.00000000000E+00  0.45593999997E+02  0.45594000000E+02  0.51100000000E-03 0. -1.
         11   -1    0    0    0    0 -0.00000000000E+00 -0.00000000000E+00 -0.45593999997E+02  0.45594000000E+02  0.51100000000E-03 0.  1.
    9900012    2    1    2    0    0  0.27891682791E+02 -0.14922594741E+02 -0.29715207987E+02  0.47787269725E+02  0.19999993983E+02 0.  0.
         12    1    1    2    0    0 -0.27891682791E+02  0.14922594741E+02  0.29715207987E+02  0.43400730275E+02  0.00000000000E+00 0. -1.
         11    1    3    3    0    0  0.16924537295E+02  0.68077752171E+00 -0.99594210399E+01  0.19649261777E+02  0.51100000000E-03 0. -1.
        -11    1    3    3    0    0  0.37159758002E+01 -0.29512650618E+01 -0.19694683453E+01  0.51378251661E+01  0.51100000000E-03 0.  1.
         12    1    3    3    0    0  0.72511696958E+01 -0.12652107201E+02 -0.17786318602E+02  0.23000182782E+02  0.00000000000E+00 0. -1.
</event>
<event>
 7    1  0.2733256E-010  0.4778727E+02  0.7816164E-02  0.1312668E+00
        -11   -1    0    0    0    0  0.00000000000E+00  0.00000000000E+00  0.45593999997E+02  0.45594000000E+02  0.51100000000E-03 0.  1.
         11   -1    0    0    0    0 -0.00000000000E+00 -0.00000000000E+00 -0.45593999997E+02  0.45594000000E+02  0.51100000000E-03 0. -1.
    9900012    2    1    2    0    0 -0.10890613136E+02  0.19549004965E+02  0.37186752563E+02  0.47787267105E+02  0.19999982039E+02 0.  0.
         12    1    1    2    0    0  0.10890613136E+02 -0.19549004965E+02 -0.37186752563E+02  0.43400732895E+02  0.00000000000E+00 0. -1.
         11    1    3    3    0    0  0.41802144145E+00  0.77766576402E+01  0.46394762432E+01  0.90650916185E+01  0.51100000000E-03 0. -1.
        -11    1    3    3    0    0 -0.73356631730E+01  0.72392720377E+01  0.30751575641E+02  0.32432675167E+02  0.51100000000E-03 0.  1.
        -12    1    3    3    0    0 -0.39729714043E+01  0.45330752875E+01  0.17957006793E+01  0.62895003197E+01  0.00000000000E+00 0.  1.
</event>
<event>
 7    1  0.2733256E-010  0.4778727E+02  0.7816164E-02  0.1312668E+00
        -11   -1    0    0    0    0  0.00000000000E+00  0.00000000000E+00  0.45593999997E+02  0.45594000000E+02  0.51100000000E-03 0. -1.
         11   -1    0    0    0    0 -0.00000000000E+00 -0.00000000000E+00 -0.45593999997E+02  0.45594000000E+02  0.51100000000E-03 0.  1.
    9900012    2    1    2    0    0 -0.39480800222E+02  0.40187063277E+01  0.17571000085E+02  0.47787266933E+02  0.19999981255E+02 0.  0.
         12    1    1    2    0    0  0.39480800222E+02 -0.40187063277E+01 -0.17571000085E+02  0.43400733067E+02  0.00000000000E+00 0. -1.
         11    1    3    3    0    0  0.13188992781E+01 -0.10067070324E+01  0.14051219262E+01  0.21742406131E+01  0.51100000000E-03 0. -1.
        -11    1    3    3    0    0 -0.11753854896E+02  0.60673179468E+01  0.23605734629E+01  0.13436434026E+02  0.51100000000E-03 0.  1.
        -12    1    3    3    0    0 -0.29045844604E+02 -0.10419045866E+01  0.13805304696E+02  0.32176592295E+02  0.00000000000E+00 0.  1.
</event>
<event>
 7    1  0.2733256E-010  0.4778727E+02  0.7816164E-02  0.1312668E+00
        -11   -1    0    0    0    0  0.00000000000E+00  0.00000000000E+00  0.45593999997E+02  0.45594000000E+02  0.51100000000E-03 0.  1.
         11   -1    0    0    0    0 -0.00000000000E+00 -0.00000000000E+00 -0.45593999997E+02  0.45594000000E+02  0.51100000000E-03 0. -1.
    9900012    2    1    2    0    0 -0.33868955600E+02 -0.19510223904E+02  0.18864467586E+02  0.47787272731E+02  0.20000007689E+02 0.  0.
         12    1    1    2    0    0  0.33868955600E+02  0.19510223904E+02 -0.18864467586E+02  0.43400727269E+02  0.00000000000E+00 0. -1.
         11    1    3    3    0    0 -0.18815240347E+01 -0.24778772132E+01  0.26286323548E+01  0.40730475684E+01  0.51100000000E-03 0.  1.
        -11    1    3    3    0    0 -0.28135957541E+02 -0.19951685477E+02  0.17557959449E+02  0.38703795685E+02  0.51100000000E-03 0. -1.
         12    1    3    3    0    0 -0.38514740239E+01  0.29193387861E+01 -0.13221242175E+01  0.50104294778E+01  0.00000000000E+00 0. -1.
</event>
<event>
 7    1  0.2733256E-010  0.4778725E+02  0.7816164E-02  0.1312668E+00
        -11   -1    0    0    0    0  0.00000000000E+00  0.00000000000E+00  0.45593999997E+02  0.45594000000E+02  0.51100000000E-03 0.  1.
         11   -1    0    0    0    0 -0.00000000000E+00 -0.00000000000E+00 -0.45593999997E+02  0.45594000000E+02  0.51100000000E-03 0. -1.
    9900012    2    1    2    0    0  0.10857339932E+02 -0.39865308694E+02  0.13285332087E+02  0.47787254426E+02  0.19999924231E+02 0.  0.
         12    1    1    2    0    0 -0.10857339932E+02  0.39865308694E+02 -0.13285332087E+02  0.43400745574E+02  0.00000000000E+00 0. -1.
         11    1    3    3    0    0  0.81872169382E+01 -0.12124170409E+02  0.95020168964E+01  0.17444608183E+02  0.51100000000E-03 0. -1.
        -11    1    3    3    0    0 -0.29201678905E+01 -0.73313401211E+01  0.46568247978E+01  0.91630751355E+01  0.51100000000E-03 0.  1.
         12    1    3    3    0    0  0.55902908840E+01 -0.20409798164E+02 -0.87350960690E+00  0.21179571108E+02  0.00000000000E+00 0. -1.
</event>
<event>
 7    1  0.2733256E-010  0.4778728E+02  0.7816164E-02  0.1312668E+00
        -11   -1    0    0    0    0  0.00000000000E+00  0.00000000000E+00  0.45593999997E+02  0.45594000000E+02  0.51100000000E-03 0. -1.
         11   -1    0    0    0    0 -0.00000000000E+00 -0.00000000000E+00 -0.45593999997E+02  0.45594000000E+02  0.51100000000E-03 0.  1.
    9900012    2    1    2    0    0  0.32342575299E+02 -0.18878488496E+02 -0.21935877609E+02  0.47787283055E+02  0.20000054763E+02 0.  0.
         12    1    1    2    0    0 -0.32342575299E+02  0.18878488496E+02  0.21935877609E+02  0.43400716945E+02  0.00000000000E+00 0. -1.
         11    1    3    3    0    0  0.75407160929E+01 -0.91863217772E+01 -0.43902034339E+01  0.12669837941E+02  0.51100000000E-03 0. -1.
        -11    1    3    3    0    0  0.60854368729E+01 -0.36305436892E+01 -0.13181809764E+02  0.14965744162E+02  0.51100000000E-03 0.  1.
         12    1    3    3    0    0  0.18716422333E+02 -0.60616230293E+01 -0.43638644112E+01  0.20151700953E+02  0.00000000000E+00 0. -1.
</event>
<event>
 7    1  0.2733256E-010  0.4778727E+02  0.7816164E-02  0.1312668E+00
        -11   -1    0    0    0    0  0.00000000000E+00  0.00000000000E+00  0.45593999997E+02  0.45594000000E+02  0.51100000000E-03 0.  1.
         11   -1    0    0    0    0 -0.00000000000E+00 -0.00000000000E+00 -0.45593999997E+02  0.45594000000E+02  0.51100000000E-03 0. -1.
    9900012    2    1    2    0    0  0.38158894501E+02  0.12631977964E+02  0.16369352155E+02  0.47787265135E+02  0.19999973057E+02 0.  0.
         12    1    1    2    0    0 -0.38158894501E+02 -0.12631977964E+02 -0.16369352155E+02  0.43400734865E+02  0.00000000000E+00 0. -1.
         11    1    3    3    0    0  0.11114565408E+02  0.62154971365E+00 -0.25278803206E+01  0.11415343509E+02  0.51100000000E-03 0. -1.
        -11    1    3    3    0    0  0.13296136421E+02  0.83523628157E+00  0.72240419722E+01  0.15154921513E+02  0.51100000000E-03 0.  1.
         12    1    3    3    0    0  0.13748192672E+02  0.11175191969E+02  0.11673190504E+02  0.21217000114E+02  0.00000000000E+00 0. -1.
</event>
<event>
 7    1  0.2733256E-010  0.4778726E+02  0.7816164E-02  0.1312668E+00
        -11   -1    0    0    0    0  0.00000000000E+00  0.00000000000E+00  0.45593999997E+02  0.45594000000E+02  0.51100000000E-03 0. -1.
         11   -1    0    0    0    0 -0.00000000000E+00 -0.00000000000E+00 -0.45593999997E+02  0.45594000000E+02  0.51100000000E-03 0.  1.
    9900012    2    1    2    0    0  0.27060889399E+02  0.15238778017E+02  0.30316860156E+02  0.47787261524E+02  0.19999956593E+02 0.  0.
         12    1    1    2    0    0 -0.27060889399E+02 -0.15238778017E+02 -0.30316860156E+02  0.43400738476E+02  0.00000000000E+00 0. -1.
         11    1    3    3    0    0  0.59663920503E+01  0.86184867873E+01  0.69193113209E+01  0.12559976832E+02  0.51100000000E-03 0. -1.
        -11    1    3    3    0    0  0.14290489991E+02  0.94019326866E+01  0.96557129403E+01  0.19642994555E+02  0.51100000000E-03 0.  1.
         12    1    3    3    0    0  0.68040073579E+01 -0.27816414574E+01  0.13741835895E+02  0.15584290137E+02  0.00000000000E+00 0. -1.
</event>
<event>
 7    1  0.2733256E-010  0.4778728E+02  0.7816164E-02  0.1312668E+00
        -11   -1    0    0    0    0  0.00000000000E+00  0.00000000000E+00  0.45593999997E+02  0.45594000000E+02  0.51100000000E-03 0.  1.
         11   -1    0    0    0    0 -0.00000000000E+00 -0.00000000000E+00 -0.45593999997E+02  0.45594000000E+02  0.51100000000E-03 0. -1.
    9900012    2    1    2    0    0 -0.73964238458E+01 -0.38500002291E+02  0.18618947618E+02  0.47787280276E+02  0.20000042092E+02 0.  0.
         12    1    1    2    0    0  0.73964238458E+01  0.38500002291E+02 -0.18618947618E+02  0.43400719724E+02  0.00000000000E+00 0. -1.
         11    1    3    3    0    0 -0.28116651240E+01 -0.87133129963E+01 -0.21787305871E+01  0.94113841370E+01  0.51100000000E-03 0. -1.
        -11    1    3    3    0    0 -0.57870570651E+01 -0.17537326306E+02  0.66613679697E+01  0.19632158998E+02  0.51100000000E-03 0.  1.
        -12    1    3    3    0    0  0.12022983433E+01 -0.12249362989E+02  0.14136310236E+02  0.18743737141E+02  0.00000000000E+00 0.  1.
</event>
<event>
 7    1  0.2733256E-010  0.4778727E+02  0.7816164E-02  0.1312668E+00
        -11   -1    0    0    0    0  0.00000000000E+00  0.00000000000E+00  0.45593999997E+02  0.45594000000E+02  0.51100000000E-03 0.  1.
         11   -1    0    0    0    0 -0.00000000000E+00 -0.00000000000E+00 -0.45593999997E+02  0.45594000000E+02  0.51100000000E-03 0. -1.
    9900012    2    1    2    0    0  0.73443385399E+01  0.20189928538E+02  0.37710089530E+02  0.47787269875E+02  0.19999994670E+02 0.  0.
         12    1    1    2    0    0 -0.73443385399E+01 -0.20189928538E+02 -0.37710089530E+02  0.43400730125E+02  0.00000000000E+00 0. -1.
         11    1    3    3    0    0  0.13525374064E+01  0.16229159666E+02  0.22413699397E+02  0.27705394815E+02  0.51100000000E-03 0. -1.
        -11    1    3    3    0    0 -0.77390571979E+00  0.40170334984E+01  0.11752201350E+02  0.12443862946E+02  0.51100000000E-03 0.  1.
         12    1    3    3    0    0  0.67657068533E+01 -0.56264626226E-01  0.35441887830E+01  0.76380121146E+01  0.00000000000E+00 0. -1.
</event>
<event>
 7    1  0.2733256E-010  0.4778727E+02  0.7816164E-02  0.1312668E+00
        -11   -1    0    0    0    0  0.00000000000E+00  0.00000000000E+00  0.45593999997E+02  0.45594000000E+02  0.51100000000E-03 0.  1.
         11   -1    0    0    0    0 -0.00000000000E+00 -0.00000000000E+00 -0.45593999997E+02  0.45594000000E+02  0.51100000000E-03 0. -1.
    9900012    2    1    2    0    0  0.10390722430E+02 -0.84377745126E+00  0.42130085778E+02  0.47787271888E+02  0.20000003847E+02 0.  0.
         12    1    1    2    0    0 -0.10390722430E+02  0.84377745126E+00 -0.42130085778E+02  0.43400728112E+02  0.00000000000E+00 0. -1.
         11    1    3    3    0    0  0.11508424913E+01  0.25230360326E+01  0.93754072523E+00  0.29273080012E+01  0.51100000000E-03 0. -1.
        -11    1    3    3    0    0  0.81169714412E+01  0.47937650839E+01  0.24345150627E+02  0.26106546466E+02  0.51100000000E-03 0.  1.
         12    1    3    3    0    0  0.11229084975E+01 -0.81605785678E+01  0.16847394425E+02  0.18753417421E+02  0.00000000000E+00 0. -1.
</event>
<event>
 7    1  0.2733256E-010  0.4778727E+02  0.7816164E-02  0.1312668E+00
        -11   -1    0    0    0    0  0.00000000000E+00  0.00000000000E+00  0.45593999997E+02  0.45594000000E+02  0.51100000000E-03 0. -1.
         11   -1    0    0    0    0 -0.00000000000E+00 -0.00000000000E+00 -0.45593999997E+02  0.45594000000E+02  0.51100000000E-03 0.  1.
    9900012    2    1    2    0    0 -0.37589366211E+02  0.21327738428E+02  0.39736987722E+01  0.47787272350E+02  0.20000005954E+02 0.  0.
         12    1    1    2    0    0  0.37589366211E+02 -0.21327738428E+02 -0.39736987722E+01  0.43400727650E+02  0.00000000000E+00 0. -1.
         11    1    3    3    0    0 -0.11421955398E+02  0.60482181362E+01  0.87420234085E+01  0.15603364422E+02  0.51100000000E-03 0. -1.
        -11    1    3    3    0    0 -0.50919988216E+01  0.13314910413E+01  0.25839158566E+01  0.58632705726E+01  0.51100000000E-03 0.  1.
        -12    1    3    3    0    0 -0.21075411991E+02  0.13948029251E+02 -0.73522404929E+01  0.26320637356E+02  0.00000000000E+00 0.  1.
</event>
<event>
 7    1  0.2733256E-010  0.4778726E+02  0.7816164E-02  0.1312668E+00
        -11   -1    0    0    0    0  0.00000000000E+00  0.00000000000E+00  0.45593999997E+02  0.45594000000E+02  0.51100000000E-03 0. -1.
         11   -1    0    0    0    0 -0.00000000000E+00 -0.00000000000E+00 -0.45593999997E+02  0.45594000000E+02  0.51100000000E-03 0.  1.
    9900012    2    1    2    0    0 -0.20084302336E+02  0.19166562493E+02 -0.33359969109E+02  0.47787264326E+02  0.19999969366E+02 0.  0.
         12    1    1    2    0    0  0.20084302336E+02 -0.19166562493E+02  0.33359969109E+02  0.43400735674E+02  0.00000000000E+00 0. -1.
         11    1    3    3    0    0 -0.14225576286E+01  0.18706195387E+01 -0.11556107262E+01  0.26188402160E+01  0.51100000000E-03 0. -1.
        -11    1    3    3    0    0 -0.37306142785E+01 -0.33491985029E+01 -0.10744028915E+02  0.11856170169E+02  0.51100000000E-03 0.  1.
         12    1    3    3    0    0 -0.14931130429E+02  0.20645141457E+02 -0.21460329468E+02  0.33312253940E+02  0.00000000000E+00 0. -1.
</event>
<event>
 7    1  0.2761135E-010  0.4778727E+02  0.7816164E-02  0.1312668E+00
        -11   -1    0    0    0    0  0.00000000000E+00  0.00000000000E+00  0.45593999997E+02  0.45594000000E+02  0.51100000000E-03 0. -1.
         11   -1    0    0    0    0 -0.00000000000E+00 -0.00000000000E+00 -0.45593999997E+02  0.45594000000E+02  0.51100000000E-03 0.  1.
    9900012    2    1    2    0    0 -0.74936780941E+01 -0.38895572516E+02 -0.17737039736E+02  0.47787270152E+02  0.19999995931E+02 0.  0.
         12    1    1    2    0    0  0.74936780941E+01  0.38895572516E+02  0.17737039736E+02  0.43400729848E+02  0.00000000000E+00 0. -1.
         11    1    3    3    0    0  0.56788637759E+00 -0.25566501667E+01 -0.60000587016E+01  0.65467289310E+01  0.51100000000E-03 0. -1.
        -11    1    3    3    0    0 -0.62431743074E+01 -0.21751428334E+02 -0.13632128317E+02  0.26418493195E+02  0.51100000000E-03 0.  1.
         12    1    3    3    0    0 -0.18183901643E+01 -0.14587494016E+02  0.18951472827E+01  0.14822048026E+02  0.00000000000E+00 0. -1.
</event>
<event>
 7    1  0.2733256E-010  0.4778727E+02  0.7816164E-02  0.1312668E+00
        -11   -1    0    0    0    0  0.00000000000E+00  0.00000000000E+00  0.45593999997E+02  0.45594000000E+02  0.51100000000E-03 0. -1.
         11   -1    0    0    0    0 -0.00000000000E+00 -0.00000000000E+00 -0.45593999997E+02  0.45594000000E+02  0.51100000000E-03 0.  1.
    9900012    2    1    2    0    0 -0.32656381916E+02 -0.26060135392E+02 -0.11749623603E+02  0.47787267388E+02  0.19999983329E+02 0.  0.
         12    1    1    2    0    0  0.32656381916E+02  0.26060135392E+02  0.11749623603E+02  0.43400732612E+02  0.00000000000E+00 0. -1.
         11    1    3    3    0    0 -0.41150070211E+01 -0.92444860591E+01 -0.71255994116E+00  0.10144039985E+02  0.51100000000E-03 0. -1.
        -11    1    3    3    0    0 -0.21638637554E+02 -0.18514230438E+02 -0.11015938301E+02  0.30534542093E+02  0.51100000000E-03 0.  1.
        -12    1    3    3    0    0 -0.69027373400E+01  0.16985811054E+01 -0.21125360422E-01  0.71086853101E+01  0.00000000000E+00 0.  1.
</event>
<event>
 7    1  0.2733256E-010  0.4778727E+02  0.7816164E-02  0.1312668E+00
        -11   -1    0    0    0    0  0.00000000000E+00  0.00000000000E+00  0.45593999997E+02  0.45594000000E+02  0.51100000000E-03 0. -1.
         11   -1    0    0    0    0 -0.00000000000E+00 -0.00000000000E+00 -0.45593999997E+02  0.45594000000E+02  0.51100000000E-03 0.  1.
    9900012    2    1    2    0    0  0.29799205907E+01 -0.24146162217E+02 -0.35940315696E+02  0.47787269949E+02  0.19999995008E+02 0.  0.
         12    1    1    2    0    0 -0.29799205907E+01  0.24146162217E+02  0.35940315696E+02  0.43400730051E+02  0.00000000000E+00 0. -1.
         11    1    3    3    0    0  0.29715710686E+01  0.10812692733E+01 -0.39521766524E+01  0.50615292561E+01  0.51100000000E-03 0. -1.
        -11    1    3    3    0    0 -0.20824199185E+01 -0.86825475309E+00 -0.86022526872E+01  0.88932047423E+01  0.51100000000E-03 0.  1.
        -12    1    3    3    0    0  0.20907694406E+01 -0.24359176738E+02 -0.23385886357E+02  0.33832535951E+02  0.00000000000E+00 0.  1.
</event>
<event>
 7    1  0.2733256E-010  0.4778727E+02  0.7816164E-02  0.1312668E+00
        -11   -1    0    0    0    0  0.00000000000E+00  0.00000000000E+00  0.45593999997E+02  0.45594000000E+02  0.51100000000E-03 0.  1.
         11   -1    0    0    0    0 -0.00000000000E+00 -0.00000000000E+00 -0.45593999997E+02  0.45594000000E+02  0.51100000000E-03 0. -1.
    9900012    2    1    2    0    0 -0.19034466121E+02 -0.54212013735E+01  0.38625417239E+02  0.47787272106E+02  0.20000004840E+02 0.  0.
         12    1    1    2    0    0  0.19034466121E+02  0.54212013735E+01 -0.38625417239E+02  0.43400727894E+02  0.00000000000E+00 0. -1.
         11    1    3    3    0    0 -0.32526481066E+01  0.21981316632E+01  0.54755927238E+01  0.67374786421E+01  0.51100000000E-03 0. -1.
        -11    1    3    3    0    0 -0.12705353610E+02 -0.87491978841E+01  0.34273445349E+02  0.37585150396E+02  0.51100000000E-03 0.  1.
         12    1    3    3    0    0 -0.30764644045E+01  0.11298648473E+01 -0.11236208340E+01  0.34646430674E+01  0.00000000000E+00 0. -1.
</event>
<event>
 7    1  0.2733256E-010  0.4778727E+02  0.7816164E-02  0.1312668E+00
        -11   -1    0    0    0    0  0.00000000000E+00  0.00000000000E+00  0.45593999997E+02  0.45594000000E+02  0.51100000000E-03 0.  1.
         11   -1    0    0    0    0 -0.00000000000E+00 -0.00000000000E+00 -0.45593999997E+02  0.45594000000E+02  0.51100000000E-03 0. -1.
    9900012    2    1    2    0    0 -0.39416831711E+02  0.39429020488E+01  0.17731053261E+02  0.47787270186E+02  0.19999996086E+02 0.  0.
         12    1    1    2    0    0  0.39416831711E+02 -0.39429020488E+01 -0.17731053261E+02  0.43400729814E+02  0.00000000000E+00 0. -1.
         11    1    3    3    0    0 -0.46804566417E+01 -0.12496198912E+01  0.55233296578E+01  0.73467948806E+01  0.51100000000E-03 0. -1.
        -11    1    3    3    0    0 -0.30356103148E+02  0.31591435069E+01  0.15851283923E+02  0.34390934682E+02  0.51100000000E-03 0.  1.
         12    1    3    3    0    0 -0.43802719205E+01  0.20333784331E+01 -0.36435603197E+01  0.60495406233E+01  0.00000000000E+00 0. -1.
</event>
<event>
 7    1  0.2733256E-010  0.4778728E+02  0.7816164E-02  0.1312668E+00
        -11   -1    0    0    0    0  0.00000000000E+00  0.00000000000E+00  0.45593999997E+02  0.45594000000E+02  0.51100000000E-03 0.  1.
         11   -1    0    0    0    0 -0.00000000000E+00 -0.00000000000E+00 -0.45593999997E+02  0.45594000000E+02  0.51100000000E-03 0. -1.
    9900012    2    1    2    0    0  0.86420178894E+01 -0.12010716866E+02  0.40800502988E+02  0.47787276079E+02  0.20000022953E+02 0.  0.
         12    1    1    2    0    0 -0.86420178894E+01  0.12010716866E+02 -0.40800502988E+02  0.43400723921E+02  0.00000000000E+00 0. -1.
         11    1    3    3    0    0 -0.11867455669E+01 -0.33768828481E+01  0.17647168858E+02  0.18006506374E+02  0.51100000000E-03 0. -1.
        -11    1    3    3    0    0  0.58765831847E+01 -0.11290459408E+02  0.20996007233E+02  0.24552821092E+02  0.51100000000E-03 0.  1.
         12    1    3    3    0    0  0.39521802715E+01  0.26566253903E+01  0.21573268960E+01  0.52279486129E+01  0.00000000000E+00 0. -1.
</event>
<event>
 7    1  0.2733256E-010  0.4778729E+02  0.7816164E-02  0.1312668E+00
        -11   -1    0    0    0    0  0.00000000000E+00  0.00000000000E+00  0.45593999997E+02  0.45594000000E+02  0.51100000000E-03 0.  1.
         11   -1    0    0    0    0 -0.00000000000E+00 -0.00000000000E+00 -0.45593999997E+02  0.45594000000E+02  0.51100000000E-03 0. -1.
    9900012    2    1    2    0    0 -0.19257049944E+02  0.26675013488E+01  0.38802988560E+02  0.47787291974E+02  0.20000095426E+02 0.  0.
         12    1    1    2    0    0  0.19257049944E+02 -0.26675013488E+01 -0.38802988560E+02  0.43400708026E+02  0.00000000000E+00 0. -1.
         11    1    3    3    0    0 -0.89558230362E+01 -0.65955021385E-01  0.12617248864E+02  0.15472753003E+02  0.51100000000E-03 0. -1.
        -11    1    3    3    0    0 -0.11807358469E+02  0.72366251622E+01  0.21938691141E+02  0.25943951646E+02  0.51100000000E-03 0.  1.
         12    1    3    3    0    0  0.15061315607E+01 -0.45031687920E+01  0.42470485542E+01  0.63705873253E+01  0.00000000000E+00 0. -1.
</event>
<event>
 7    1  0.2733256E-010  0.4778727E+02  0.7816164E-02  0.1312668E+00
        -11   -1    0    0    0    0  0.00000000000E+00  0.00000000000E+00  0.45593999997E+02  0.45594000000E+02  0.51100000000E-03 0. -1.
         11   -1    0    0    0    0 -0.00000000000E+00 -0.00000000000E+00 -0.45593999997E+02  0.45594000000E+02  0.51100000000E-03 0.  1.
    9900012    2    1    2    0    0 -0.33813223566E+02  0.26223254290E+02  0.72546553424E+01  0.47787272153E+02  0.20000005055E+02 0.  0.
         12    1    1    2    0    0  0.33813223566E+02 -0.26223254290E+02 -0.72546553424E+01  0.43400727847E+02  0.00000000000E+00 0. -1.
         11    1    3    3    0    0 -0.25601290514E+02  0.13903490718E+02  0.42745042141E+01  0.29444940426E+02  0.51100000000E-03 0. -1.
        -11    1    3    3    0    0 -0.47126395880E+01  0.15321219628E+01  0.47496990427E+01  0.68641103467E+01  0.51100000000E-03 0.  1.
         12    1    3    3    0    0 -0.34992934637E+01  0.10787641610E+02 -0.17695479144E+01  0.11478221381E+02  0.00000000000E+00 0. -1.
</event>
<event>
 7    1  0.2733256E-010  0.4778726E+02  0.7816164E-02  0.1312668E+00
        -11   -1    0    0    0    0  0.00000000000E+00  0.00000000000E+00  0.45593999997E+02  0.45594000000E+02  0.51100000000E-03 0. -1.
         11   -1    0    0    0    0 -0.00000000000E+00 -0.00000000000E+00 -0.45593999997E+02  0.45594000000E+02  0.51100000000E-03 0.  1.
    9900012    2    1    2    0    0  0.31601806250E+02  0.28601236102E+02  0.81804048287E+01  0.47787263969E+02  0.19999967742E+02 0.  0.
         12    1    1    2    0    0 -0.31601806250E+02 -0.28601236102E+02 -0.81804048287E+01  0.43400736031E+02  0.00000000000E+00 0. -1.
         11    1    3    3    0    0  0.23951012309E+02  0.16568653709E+02  0.95690506705E+01  0.30655146506E+02  0.51100000000E-03 0. -1.
        -11    1    3    3    0    0  0.50810775081E+00 -0.92338164839E+00  0.17175379072E+01  0.20151287499E+01  0.51100000000E-03 0.  1.
        -12    1    3    3    0    0  0.71426861907E+01  0.12955964042E+02 -0.31061837490E+01  0.15116988713E+02  0.00000000000E+00 0.  1.
</event>
<event>
 7    1  0.2733256E-010  0.4778726E+02  0.7816164E-02  0.1312668E+00
        -11   -1    0    0    0    0  0.00000000000E+00  0.00000000000E+00  0.45593999997E+02  0.45594000000E+02  0.51100000000E-03 0. -1.
         11   -1    0    0    0    0 -0.00000000000E+00 -0.00000000000E+00 -0.45593999997E+02  0.45594000000E+02  0.51100000000E-03 0.  1.
    9900012    2    1    2    0    0  0.19631425387E+02  0.38646363429E+02  0.21655631622E+01  0.47787263453E+02  0.19999965388E+02 0.  0.
         12    1    1    2    0    0 -0.19631425387E+02 -0.38646363429E+02 -0.21655631622E+01  0.43400736547E+02  0.00000000000E+00 0. -1.
         11    1    3    3    0    0  0.72658667176E+01  0.73317530539E+01 -0.36567228485E+00  0.10328656180E+02  0.51100000000E-03 0. -1.
        -11    1    3    3    0    0  0.99243467361E+01  0.14302785138E+02 -0.58135113310E+01  0.18353725374E+02  0.51100000000E-03 0.  1.
         12    1    3    3    0    0  0.24412119337E+01  0.17011825237E+02  0.83447467780E+01  0.19104881899E+02  0.00000000000E+00 0. -1.
</event>
<event>
 7    1  0.2733256E-010  0.4778727E+02  0.7816164E-02  0.1312668E+00
        -11   -1    0    0    0    0  0.00000000000E+00  0.00000000000E+00  0.45593999997E+02  0.45594000000E+02  0.51100000000E-03 0.  1.
         11   -1    0    0    0    0 -0.00000000000E+00 -0.00000000000E+00 -0.45593999997E+02  0.45594000000E+02  0.51100000000E-03 0. -1.
    9900012    2    1    2    0    0  0.39929664449E+02  0.14934214930E+02  0.81372170092E+01  0.47787272134E+02  0.20000004969E+02 0.  0.
         12    1    1    2    0    0 -0.39929664449E+02 -0.14934214930E+02 -0.81372170092E+01  0.43400727866E+02  0.00000000000E+00 0. -1.
         11    1    3    3    0    0  0.62586438252E+01 -0.17432039215E+01 -0.25686816066E+01  0.69862370344E+01  0.51100000000E-03 0. -1.
        -11    1    3    3    0    0  0.70967474897E+01 -0.13577474568E+01  0.13583928184E+01  0.73520428725E+01  0.51100000000E-03 0.  1.
        -12    1    3    3    0    0  0.26574273134E+02  0.18035166309E+02  0.93475057974E+01  0.33448992227E+02  0.00000000000E+00 0.  1.
</event>
<event>
 7    1  0.2733256E-010  0.4778727E+02  0.7816164E-02  0.1312668E+00
        -11   -1    0    0    0    0  0.00000000000E+00  0.00000000000E+00  0.45593999997E+02  0.45594000000E+02  0.51100000000E-03 0.  1.
         11   -1    0    0    0    0 -0.00000000000E+00 -0.00000000000E+00 -0.45593999997E+02  0.45594000000E+02  0.51100000000E-03 0. -1.
    9900012    2    1    2    0    0 -0.88510997485E+01 -0.16418754704E+02  0.39188080516E+02  0.47787272733E+02  0.20000007699E+02 0.  0.
         12    1    1    2    0    0  0.88510997485E+01  0.16418754704E+02 -0.39188080516E+02  0.43400727267E+02  0.00000000000E+00 0. -1.
         11    1    3    3    0    0  0.14924305071E+00 -0.78118984001E+01  0.16169316328E+02  0.17958140796E+02  0.51100000000E-03 0. -1.
        -11    1    3    3    0    0  0.30437686840E+01 -0.65878149462E+00  0.97153422446E+01  0.10202274063E+02  0.51100000000E-03 0.  1.
        -12    1    3    3    0    0 -0.12044111483E+02 -0.79480748098E+01  0.13303421943E+02  0.19626857874E+02  0.00000000000E+00 0.  1.
</event>
<event>
 7    1  0.2733256E-010  0.4778727E+02  0.7816164E-02  0.1312668E+00
        -11   -1    0    0    0    0  0.00000000000E+00  0.00000000000E+00  0.45593999997E+02  0.45594000000E+02  0.51100000000E-03 0. -1.
         11   -1    0    0    0    0 -0.00000000000E+00 -0.00000000000E+00 -0.45593999997E+02  0.45594000000E+02  0.51100000000E-03 0.  1.
    9900012    2    1    2    0    0 -0.39638615139E+01  0.33359564737E+02 -0.27478184927E+02  0.47787269540E+02  0.19999993140E+02 0.  0.
         12    1    1    2    0    0  0.39638615139E+01 -0.33359564737E+02  0.27478184927E+02  0.43400730460E+02  0.00000000000E+00 0. -1.
         11    1    3    3    0    0  0.28222263356E+01 -0.69957754593E+00  0.86541139540E-01  0.29089276137E+01  0.51100000000E-03 0. -1.
        -11    1    3    3    0    0  0.47132693885E+00 -0.27387122857E-01 -0.48773523592E-01  0.47463486545E+00  0.51100000000E-03 0.  1.
        -12    1    3    3    0    0 -0.72574147883E+01  0.34086529406E+02 -0.27515952543E+02  0.44403707061E+02  0.00000000000E+00 0.  1.
</event>
<event>
 7    1  0.2733256E-010  0.4778727E+02  0.7816164E-02  0.1312668E+00
        -11   -1    0    0    0    0  0.00000000000E+00  0.00000000000E+00  0.45593999997E+02  0.45594000000E+02  0.51100000000E-03 0.  1.
         11   -1    0    0    0    0 -0.00000000000E+00 -0.00000000000E+00 -0.45593999997E+02  0.45594000000E+02  0.51100000000E-03 0. -1.
    9900012    2    1    2    0    0 -0.94310450667E+01  0.25524949446E+02  0.33810582560E+02  0.47787272491E+02  0.20000006595E+02 0.  0.
         12    1    1    2    0    0  0.94310450667E+01 -0.25524949446E+02 -0.33810582560E+02  0.43400727509E+02  0.00000000000E+00 0. -1.
         11    1    3    3    0    0 -0.38724998518E+01  0.43330323042E-02  0.86266118343E+01  0.94559349552E+01  0.51100000000E-03 0. -1.
        -11    1    3    3    0    0 -0.46650625553E+01  0.78573367561E+01  0.15944707363E+02  0.18377547244E+02  0.51100000000E-03 0.  1.
         12    1    3    3    0    0 -0.89348265966E+00  0.17663279658E+02  0.92392633624E+01  0.19953790292E+02  0.00000000000E+00 0. -1.
</event>
<event>
 7    1  0.2733256E-010  0.4778727E+02  0.7816164E-02  0.1312668E+00
        -11   -1    0    0    0    0  0.00000000000E+00  0.00000000000E+00  0.45593999997E+02  0.45594000000E+02  0.51100000000E-03 0. -1.
         11   -1    0    0    0    0 -0.00000000000E+00 -0.00000000000E+00 -0.45593999997E+02  0.45594000000E+02  0.51100000000E-03 0.  1.
    9900012    2    1    2    0    0  0.40886805968E+02 -0.37928874247E+01 -0.14053696607E+02  0.47787270909E+02  0.19999999383E+02 0.  0.
         12    1    1    2    0    0 -0.40886805968E+02  0.37928874247E+01  0.14053696607E+02  0.43400729091E+02  0.00000000000E+00 0. -1.
         11    1    3    3    0    0  0.16224436428E+02 -0.24218619643E-01 -0.25462115287E+01  0.16423036179E+02  0.51100000000E-03 0. -1.
        -11    1    3    3    0    0  0.26277343114E+02 -0.34920913084E+01 -0.12644724580E+02  0.29369755239E+02  0.51100000000E-03 0.  1.
         12    1    3    3    0    0 -0.16149735737E+01 -0.27657749673E+00  0.11372395013E+01  0.19944794907E+01  0.00000000000E+00 0. -1.
</event>
<event>
 7    1  0.2733256E-010  0.4778727E+02  0.7816164E-02  0.1312668E+00
        -11   -1    0    0    0    0  0.00000000000E+00  0.00000000000E+00  0.45593999997E+02  0.45594000000E+02  0.51100000000E-03 0.  1.
         11   -1    0    0    0    0 -0.00000000000E+00 -0.00000000000E+00 -0.45593999997E+02  0.45594000000E+02  0.51100000000E-03 0. -1.
    9900012    2    1    2    0    0 -0.23733834765E+02 -0.28506045314E+02  0.22532949406E+02  0.47787270270E+02  0.19999996471E+02 0.  0.
         12    1    1    2    0    0  0.23733834765E+02  0.28506045314E+02 -0.22532949406E+02  0.43400729730E+02  0.00000000000E+00 0. -1.
         11    1    3    3    0    0 -0.48752130593E+01 -0.11711638253E+02  0.13506127843E+02  0.18529588839E+02  0.51100000000E-03 0. -1.
        -11    1    3    3    0    0 -0.72275080543E+00 -0.70755208375E+01  0.10487807701E+01  0.71892492803E+01  0.51100000000E-03 0.  1.
        -12    1    3    3    0    0 -0.18135870900E+02 -0.97188862239E+01  0.79780407928E+01  0.22068432151E+02  0.00000000000E+00 0.  1.
</event>
<event>
 7    1  0.2733256E-010  0.4778728E+02  0.7816164E-02  0.1312668E+00
        -11   -1    0    0    0    0  0.00000000000E+00  0.00000000000E+00  0.45593999997E+02  0.45594000000E+02  0.51100000000E-03 0. -1.
         11   -1    0    0    0    0 -0.00000000000E+00 -0.00000000000E+00 -0.45593999997E+02  0.45594000000E+02  0.51100000000E-03 0.  1.
    9900012    2    1    2    0    0 -0.13509559867E+02  0.33873377696E+02 -0.23531021173E+02  0.47787275562E+02  0.20000020596E+02 0.  0.
         12    1    1    2    0    0  0.13509559867E+02 -0.33873377696E+02  0.23531021173E+02  0.43400724438E+02  0.00000000000E+00 0. -1.
         11    1    3    3    0    0 -0.33099951224E+01  0.12175642500E+02  0.16982201985E+01  0.12731311406E+02  0.51100000000E-03 0. -1.
        -11    1    3    3    0    0 -0.18979481095E+01  0.22511249953E+01 -0.49444333822E+01  0.57547539046E+01  0.51100000000E-03 0.  1.
         12    1    3    3    0    0 -0.83016166355E+01  0.19446610200E+02 -0.20284807989E+02  0.29301210251E+02  0.00000000000E+00 0. -1.
</event>
<event>
 7    1  0.2733256E-010  0.4778727E+02  0.7816164E-02  0.1312668E+00
        -11   -1    0    0    0    0  0.00000000000E+00  0.00000000000E+00  0.45593999997E+02  0.45594000000E+02  0.51100000000E-03 0.  1.
         11   -1    0    0    0    0 -0.00000000000E+00 -0.00000000000E+00 -0.45593999997E+02  0.45594000000E+02  0.51100000000E-03 0. -1.
    9900012    2    1    2    0    0 -0.71655479024E+01 -0.42566373331E+02  0.45146123589E+01  0.47787274891E+02  0.20000017536E+02 0.  0.
         12    1    1    2    0    0  0.71655479024E+01  0.42566373331E+02 -0.45146123589E+01  0.43400725109E+02  0.00000000000E+00 0. -1.
         11    1    3    3    0    0 -0.28500660604E+01 -0.67483137930E+01  0.50851471338E+01  0.89174737023E+01  0.51100000000E-03 0. -1.
        -11    1    3    3    0    0  0.64702060715E+00 -0.31405168793E+01  0.44016110231E+01  0.54457012216E+01  0.51100000000E-03 0.  1.
         12    1    3    3    0    0 -0.49625024492E+01 -0.32677542658E+02 -0.49721457979E+01  0.33424099967E+02  0.00000000000E+00 0. -1.
</event>
<event>
 7    1  0.2733256E-010  0.4778728E+02  0.7816164E-02  0.1312668E+00
        -11   -1    0    0    0    0  0.00000000000E+00  0.00000000000E+00  0.45593999997E+02  0.45594000000E+02  0.51100000000E-03 0.  1.
         11   -1    0    0    0    0 -0.00000000000E+00 -0.00000000000E+00 -0.45593999997E+02  0.45594000000E+02  0.51100000000E-03 0. -1.
    9900012    2    1    2    0    0  0.83932862039E+01 -0.99431411180E+01  0.41404221412E+02  0.47787275820E+02  0.20000021774E+02 0.  0.
         12    1    1    2    0    0 -0.83932862039E+01  0.99431411180E+01 -0.41404221412E+02  0.43400724180E+02  0.00000000000E+00 0. -1.
         11    1    3    3    0    0 -0.28731461334E+01  0.43145853006E+01  0.91454639655E+01  0.10512379675E+02  0.51100000000E-03 0. -1.
        -11    1    3    3    0    0  0.37010589490E+01 -0.70199647129E+01  0.17101621831E+02  0.18853201622E+02  0.51100000000E-03 0.  1.
         12    1    3    3    0    0  0.75653733882E+01 -0.72377617057E+01  0.15157135616E+02  0.18421694523E+02  0.00000000000E+00 0. -1.
</event>
<event>
 7    1  0.2733256E-010  0.4778727E+02  0.7816164E-02  0.1312668E+00
        -11   -1    0    0    0    0  0.00000000000E+00  0.00000000000E+00  0.45593999997E+02  0.45594000000E+02  0.51100000000E-03 0. -1.
         11   -1    0    0    0    0 -0.00000000000E+00 -0.00000000000E+00 -0.45593999997E+02  0.45594000000E+02  0.51100000000E-03 0.  1.
    9900012    2    1    2    0    0 -0.30888342868E+02  0.29949965762E+02 -0.57037828369E+01  0.47787270595E+02  0.19999997950E+02 0.  0.
         12    1    1    2    0    0  0.30888342868E+02 -0.29949965762E+02  0.57037828369E+01  0.43400729405E+02  0.00000000000E+00 0. -1.
         11    1    3    3    0    0  0.14500332336E-02 -0.18807079312E+01 -0.42578461177E-01  0.18811904772E+01  0.51100000000E-03 0. -1.
        -11    1    3    3    0    0 -0.55642847632E+00 -0.47823737135E-01  0.12439797779E+01  0.13635929408E+01  0.51100000000E-03 0.  1.
        -12    1    3    3    0    0 -0.30333364425E+02  0.31878497430E+02 -0.69051841536E+01  0.44542487177E+02  0.00000000000E+00 0.  1.
</event>
<event>
 7    1  0.2733256E-010  0.4778724E+02  0.7816164E-02  0.1312668E+00
        -11   -1    0    0    0    0  0.00000000000E+00  0.00000000000E+00  0.45593999997E+02  0.45594000000E+02  0.51100000000E-03 0.  1.
         11   -1    0    0    0    0 -0.00000000000E+00 -0.00000000000E+00 -0.45593999997E+02  0.45594000000E+02  0.51100000000E-03 0. -1.
    9900012    2    1    2    0    0 -0.20445909092E+02  0.27382097154E+01  0.38184982064E+02  0.47787241410E+02  0.19999864882E+02 0.  0.
         12    1    1    2    0    0  0.20445909092E+02 -0.27382097154E+01 -0.38184982064E+02  0.43400758590E+02  0.00000000000E+00 0. -1.
         11    1    3    3    0    0 -0.12450946062E+02  0.70033007473E+00  0.85235084412E+01  0.15105188395E+02  0.51100000000E-03 0. -1.
        -11    1    3    3    0    0 -0.53566388709E+01 -0.21528646532E+01  0.53484575840E+01  0.78698414849E+01  0.51100000000E-03 0.  1.
        -12    1    3    3    0    0 -0.26383241590E+01  0.41907442938E+01  0.24313016038E+02  0.24812211530E+02  0.00000000000E+00 0.  1.
</event>
<event>
 7    1  0.2733256E-010  0.4778727E+02  0.7816164E-02  0.1312668E+00
        -11   -1    0    0    0    0  0.00000000000E+00  0.00000000000E+00  0.45593999997E+02  0.45594000000E+02  0.51100000000E-03 0.  1.
         11   -1    0    0    0    0 -0.00000000000E+00 -0.00000000000E+00 -0.45593999997E+02  0.45594000000E+02  0.51100000000E-03 0. -1.
    9900012    2    1    2    0    0  0.40597037173E+02 -0.14473184296E+02  0.51020414304E+01  0.47787270540E+02  0.19999997699E+02 0.  0.
         12    1    1    2    0    0 -0.40597037173E+02  0.14473184296E+02 -0.51020414304E+01  0.43400729460E+02  0.00000000000E+00 0. -1.
         11    1    3    3    0    0  0.16133274298E+01 -0.16435664576E+00 -0.14346364801E+01  0.21651837321E+01  0.51100000000E-03 0. -1.
        -11    1    3    3    0    0  0.33898525594E+02 -0.46624929641E+01  0.42537926520E+01  0.34481061908E+02  0.51100000000E-03 0.  1.
        -12    1    3    3    0    0  0.50851841493E+01 -0.96463346865E+01  0.22828852585E+01  0.11141024900E+02  0.00000000000E+00 0.  1.
</event>
<event>
 7    1  0.2733256E-010  0.4778727E+02  0.7816164E-02  0.1312668E+00
        -11   -1    0    0    0    0  0.00000000000E+00  0.00000000000E+00  0.45593999997E+02  0.45594000000E+02  0.51100000000E-03 0.  1.
         11   -1    0    0    0    0 -0.00000000000E+00 -0.00000000000E+00 -0.45593999997E+02  0.45594000000E+02  0.51100000000E-03 0. -1.
    9900012    2    1    2    0    0  0.16227463127E+02  0.17431626821E+02  0.36282662478E+02  0.47787265333E+02  0.19999973959E+02 0.  0.
         12    1    1    2    0    0 -0.16227463127E+02 -0.17431626821E+02 -0.36282662478E+02  0.43400734667E+02  0.00000000000E+00 0. -1.
         11    1    3    3    0    0 -0.68524385589E+00 -0.13188629544E-01 -0.17330569277E+00  0.70694285925E+00  0.51100000000E-03 0. -1.
        -11    1    3    3    0    0  0.12838846609E+02  0.12942517208E+02  0.11866295499E+02  0.21752096521E+02  0.51100000000E-03 0.  1.
        -12    1    3    3    0    0  0.40738603745E+01  0.45022982425E+01  0.24589672672E+02  0.25328225953E+02  0.00000000000E+00 0.  1.
</event>
<event>
 7    1  0.2733256E-010  0.4778726E+02  0.7816164E-02  0.1312668E+00
        -11   -1    0    0    0    0  0.00000000000E+00  0.00000000000E+00  0.45593999997E+02  0.45594000000E+02  0.51100000000E-03 0.  1.
         11   -1    0    0    0    0 -0.00000000000E+00 -0.00000000000E+00 -0.45593999997E+02  0.45594000000E+02  0.51100000000E-03 0. -1.
    9900012    2    1    2    0    0  0.50160796894E+01  0.28006504586E+02  0.32773443545E+02  0.47787263182E+02  0.19999964151E+02 0.  0.
         12    1    1    2    0    0 -0.50160796894E+01 -0.28006504586E+02 -0.32773443545E+02  0.43400736818E+02  0.00000000000E+00 0. -1.
         11    1    3    3    0    0  0.69960499946E+01  0.10943773786E+02  0.13175110335E+02  0.18501200848E+02  0.51100000000E-03 0. -1.
        -11    1    3    3    0    0 -0.88301488618E+00  0.16109717157E+02  0.21507787949E+02  0.26886569973E+02  0.51100000000E-03 0.  1.
        -12    1    3    3    0    0 -0.10969554190E+01  0.95301364180E+00 -0.19094547388E+01  0.23994923613E+01  0.00000000000E+00 0.  1.
</event>
<event>
 7    1  0.2733256E-010  0.4778724E+02  0.7816164E-02  0.1312668E+00
        -11   -1    0    0    0    0  0.00000000000E+00  0.00000000000E+00  0.45593999997E+02  0.45594000000E+02  0.51100000000E-03 0.  1.
         11   -1    0    0    0    0 -0.00000000000E+00 -0.00000000000E+00 -0.45593999997E+02  0.45594000000E+02  0.51100000000E-03 0. -1.
    9900012    2    1    2    0    0 -0.31131203486E+02  0.18156120900E+01  0.30185712822E+02  0.47787244980E+02  0.19999881160E+02 0.  0.
         12    1    1    2    0    0  0.31131203486E+02 -0.18156120900E+01 -0.30185712822E+02  0.43400755020E+02  0.00000000000E+00 0. -1.
         11    1    3    3    0    0 -0.67409993579E+01  0.38064453234E+01  0.38560161919E+01  0.86486391691E+01  0.51100000000E-03 0. -1.
        -11    1    3    3    0    0 -0.10135538073E+02  0.37079159825E+01  0.29834487885E+01  0.11197264840E+02  0.51100000000E-03 0.  1.
         12    1    3    3    0    0 -0.14254666056E+02 -0.56987492159E+01  0.23346247841E+02  0.27941340971E+02  0.00000000000E+00 0. -1.
</event>
<event>
 7    1  0.2733256E-010  0.4778727E+02  0.7816164E-02  0.1312668E+00
        -11   -1    0    0    0    0  0.00000000000E+00  0.00000000000E+00  0.45593999997E+02  0.45594000000E+02  0.51100000000E-03 0. -1.
         11   -1    0    0    0    0 -0.00000000000E+00 -0.00000000000E+00 -0.45593999997E+02  0.45594000000E+02  0.51100000000E-03 0.  1.
    9900012    2    1    2    0    0 -0.80090235439E+01  0.39979266975E+02  0.14870678243E+02  0.47787270544E+02  0.19999997716E+02 0.  0.
         12    1    1    2    0    0  0.80090235439E+01 -0.39979266975E+02 -0.14870678243E+02  0.43400729456E+02  0.00000000000E+00 0. -1.
         11    1    3    3    0    0 -0.48788521627E+01  0.67897850137E+01  0.57676120690E+01  0.10157250031E+02  0.51100000000E-03 0. -1.
        -11    1    3    3    0    0 -0.72774714906E+01  0.30913151333E+02  0.74675993504E+01  0.32624370599E+02  0.51100000000E-03 0.  1.
        -12    1    3    3    0    0  0.41473001095E+01  0.22763306274E+01  0.16354668234E+01  0.50056499132E+01  0.00000000000E+00 0.  1.
</event>
<event>
 7    1  0.2733256E-010  0.4778727E+02  0.7816164E-02  0.1312668E+00
        -11   -1    0    0    0    0  0.00000000000E+00  0.00000000000E+00  0.45593999997E+02  0.45594000000E+02  0.51100000000E-03 0. -1.
         11   -1    0    0    0    0 -0.00000000000E+00 -0.00000000000E+00 -0.45593999997E+02  0.45594000000E+02  0.51100000000E-03 0.  1.
    9900012    2    1    2    0    0  0.41888884294E+02 -0.84441689867E+01 -0.75921421722E+01  0.47787271435E+02  0.20000001779E+02 0.  0.
         12    1    1    2    0    0 -0.41888884294E+02  0.84441689867E+01  0.75921421722E+01  0.43400728565E+02  0.00000000000E+00 0. -1.
         11    1    3    3    0    0  0.28889420961E+02 -0.62483236358E+01 -0.58142705204E+01  0.30123843275E+02  0.51100000000E-03 0.  1.
        -11    1    3    3    0    0  0.80922359760E+01 -0.70715533461E+00 -0.67193121297E+01  0.10541987835E+02  0.51100000000E-03 0. -1.
         12    1    3    3    0    0  0.49072273565E+01 -0.14886900163E+01  0.49414404779E+01  0.71214403241E+01  0.00000000000E+00 0. -1.
</event>
<event>
 7    1  0.2733256E-010  0.4778727E+02  0.7816164E-02  0.1312668E+00
        -11   -1    0    0    0    0  0.00000000000E+00  0.00000000000E+00  0.45593999997E+02  0.45594000000E+02  0.51100000000E-03 0.  1.
         11   -1    0    0    0    0 -0.00000000000E+00 -0.00000000000E+00 -0.45593999997E+02  0.45594000000E+02  0.51100000000E-03 0. -1.
    9900012    2    1    2    0    0  0.17754408466E+02 -0.12414146663E+02  0.37607093920E+02  0.47787267628E+02  0.19999984423E+02 0.  0.
         12    1    1    2    0    0 -0.17754408466E+02  0.12414146663E+02 -0.37607093920E+02  0.43400732372E+02  0.00000000000E+00 0. -1.
         11    1    3    3    0    0  0.82846893424E+01 -0.59708533195E+01  0.60777817531E+01  0.11883879760E+02  0.51100000000E-03 0. -1.
        -11    1    3    3    0    0  0.12317618656E+02 -0.44728335506E+01  0.20388842972E+02  0.24237056078E+02  0.51100000000E-03 0.  1.
        -12    1    3    3    0    0 -0.28478995325E+01 -0.19704597926E+01  0.11140469195E+02  0.11666331790E+02  0.00000000000E+00 0.  1.
</event>
<event>
 7    1  0.2733256E-010  0.4778728E+02  0.7816164E-02  0.1312668E+00
        -11   -1    0    0    0    0  0.00000000000E+00  0.00000000000E+00  0.45593999997E+02  0.45594000000E+02  0.51100000000E-03 0. -1.
         11   -1    0    0    0    0 -0.00000000000E+00 -0.00000000000E+00 -0.45593999997E+02  0.45594000000E+02  0.51100000000E-03 0.  1.
    9900012    2    1    2    0    0 -0.12165947564E+02 -0.34288426438E+02 -0.23662537897E+02  0.47787283791E+02  0.20000058115E+02 0.  0.
         12    1    1    2    0    0  0.12165947564E+02  0.34288426438E+02  0.23662537897E+02  0.43400716209E+02  0.00000000000E+00 0. -1.
         11    1    3    3    0    0  0.29404354034E+01 -0.43846972444E+01 -0.13076019197E+01  0.54388926564E+01  0.51100000000E-03 0. -1.
        -11    1    3    3    0    0 -0.11763811556E+02 -0.29256475632E+02 -0.16533813245E+02  0.35604713303E+02  0.51100000000E-03 0.  1.
         12    1    3    3    0    0 -0.33425714121E+01 -0.64725356141E+00 -0.58211227327E+01  0.67436778309E+01  0.00000000000E+00 0. -1.
</event>
<event>
 7    1  0.2733256E-010  0.4778727E+02  0.7816164E-02  0.1312668E+00
        -11   -1    0    0    0    0  0.00000000000E+00  0.00000000000E+00  0.45593999997E+02  0.45594000000E+02  0.51100000000E-03 0.  1.
         11   -1    0    0    0    0 -0.00000000000E+00 -0.00000000000E+00 -0.45593999997E+02  0.45594000000E+02  0.51100000000E-03 0. -1.
    9900012    2    1    2    0    0 -0.25767180220E+02 -0.95160635006E+00  0.34910888520E+02  0.47787271108E+02  0.20000000289E+02 0.  0.
         12    1    1    2    0    0  0.25767180220E+02  0.95160635006E+00 -0.34910888520E+02  0.43400728892E+02  0.00000000000E+00 0. -1.
         11    1    3    3    0    0 -0.68798320267E+01 -0.14701537609E+00  0.73234356689E+01  0.10049199595E+02  0.51100000000E-03 0.  1.
        -11    1    3    3    0    0  0.83986410134E+00 -0.27019722653E+01  0.12538139439E+02  0.12853441822E+02  0.51100000000E-03 0. -1.
        -12    1    3    3    0    0 -0.19727212295E+02  0.18973812913E+01  0.15049313412E+02  0.24884629691E+02  0.00000000000E+00 0.  1.
</event>
<event>
 7    1  0.2733256E-010  0.4778725E+02  0.7816164E-02  0.1312668E+00
        -11   -1    0    0    0    0  0.00000000000E+00  0.00000000000E+00  0.45593999997E+02  0.45594000000E+02  0.51100000000E-03 0.  1.
         11   -1    0    0    0    0 -0.00000000000E+00 -0.00000000000E+00 -0.45593999997E+02  0.45594000000E+02  0.51100000000E-03 0. -1.
    9900012    2    1    2    0    0  0.11568977962E+02 -0.17368632834E+02  0.38054093575E+02  0.47787254667E+02  0.19999925329E+02 0.  0.
         12    1    1    2    0    0 -0.11568977962E+02  0.17368632834E+02 -0.38054093575E+02  0.43400745333E+02  0.00000000000E+00 0. -1.
         11    1    3    3    0    0  0.41877842030E+00 -0.29417322044E+01  0.10841370029E+02  0.11241195136E+02  0.51100000000E-03 0. -1.
        -11    1    3    3    0    0  0.13795386504E+02 -0.16118100112E+02  0.22978981074E+02  0.31275220406E+02  0.51100000000E-03 0.  1.
        -12    1    3    3    0    0 -0.26451869622E+01  0.16911994820E+01  0.42337424728E+01  0.52708391247E+01  0.00000000000E+00 0.  1.
</event>
<event>
 7    1  0.2733256E-010  0.4778726E+02  0.7816164E-02  0.1312668E+00
        -11   -1    0    0    0    0  0.00000000000E+00  0.00000000000E+00  0.45593999997E+02  0.45594000000E+02  0.51100000000E-03 0. -1.
         11   -1    0    0    0    0 -0.00000000000E+00 -0.00000000000E+00 -0.45593999997E+02  0.45594000000E+02  0.51100000000E-03 0.  1.
    9900012    2    1    2    0    0  0.11620628956E+02 -0.18268391933E+02 -0.37614503907E+02  0.47787261926E+02  0.19999958426E+02 0.  0.
         12    1    1    2    0    0 -0.11620628956E+02  0.18268391933E+02  0.37614503907E+02  0.43400738074E+02  0.00000000000E+00 0. -1.
         11    1    3    3    0    0  0.21796912407E+01 -0.34583674141E+01 -0.84302143533E+00  0.41739722660E+01  0.51100000000E-03 0. -1.
        -11    1    3    3    0    0  0.16827513674E+01 -0.15316898663E+02 -0.21195470489E+02  0.26204713437E+02  0.51100000000E-03 0.  1.
         12    1    3    3    0    0  0.77581863479E+01  0.50687414396E+00 -0.15576011983E+02  0.17408576223E+02  0.00000000000E+00 0. -1.
</event>
<event>
 7    1  0.2733256E-010  0.4778727E+02  0.7816164E-02  0.1312668E+00
        -11   -1    0    0    0    0  0.00000000000E+00  0.00000000000E+00  0.45593999997E+02  0.45594000000E+02  0.51100000000E-03 0.  1.
         11   -1    0    0    0    0 -0.00000000000E+00 -0.00000000000E+00 -0.45593999997E+02  0.45594000000E+02  0.51100000000E-03 0. -1.
    9900012    2    1    2    0    0 -0.39273667885E+02 -0.59156210807E+01  0.17498804759E+02  0.47787265791E+02  0.19999976049E+02 0.  0.
         12    1    1    2    0    0  0.39273667885E+02  0.59156210807E+01 -0.17498804759E+02  0.43400734209E+02  0.00000000000E+00 0. -1.
         11    1    3    3    0    0 -0.12512994300E+02 -0.53657080271E-01 -0.20601302315E+01  0.12681563085E+02  0.51100000000E-03 0. -1.
        -11    1    3    3    0    0 -0.61784736765E+01  0.19235088350E+01  0.15092351784E+01  0.66446380107E+01  0.51100000000E-03 0.  1.
        -12    1    3    3    0    0 -0.20582199908E+02 -0.77854728354E+01  0.18049699812E+02  0.28461064696E+02  0.00000000000E+00 0.  1.
</event>
<event>
 7    1  0.2733256E-010  0.4778727E+02  0.7816164E-02  0.1312668E+00
        -11   -1    0    0    0    0  0.00000000000E+00  0.00000000000E+00  0.45593999997E+02  0.45594000000E+02  0.51100000000E-03 0.  1.
         11   -1    0    0    0    0 -0.00000000000E+00 -0.00000000000E+00 -0.45593999997E+02  0.45594000000E+02  0.51100000000E-03 0. -1.
    9900012    2    1    2    0    0  0.38690867311E+02 -0.10829680850E+02  0.16412127223E+02  0.47787272811E+02  0.20000008052E+02 0.  0.
         12    1    1    2    0    0 -0.38690867311E+02  0.10829680850E+02 -0.16412127223E+02  0.43400727189E+02  0.00000000000E+00 0. -1.
         11    1    3    3    0    0  0.19619046185E+02 -0.56118211110E+00  0.12053627729E+02  0.23032842644E+02  0.51100000000E-03 0. -1.
        -11    1    3    3    0    0  0.55286541567E+01  0.12796612297E+01  0.40174079141E+01  0.69529214189E+01  0.51100000000E-03 0.  1.
         12    1    3    3    0    0  0.13543166970E+02 -0.11548159969E+02  0.34109157928E+00  0.17801508748E+02  0.00000000000E+00 0. -1.
</event>
<event>
 7    1  0.2733256E-010  0.4778727E+02  0.7816164E-02  0.1312668E+00
        -11   -1    0    0    0    0  0.00000000000E+00  0.00000000000E+00  0.45593999997E+02  0.45594000000E+02  0.51100000000E-03 0. -1.
         11   -1    0    0    0    0 -0.00000000000E+00 -0.00000000000E+00 -0.45593999997E+02  0.45594000000E+02  0.51100000000E-03 0.  1.
    9900012    2    1    2    0    0 -0.98157606437E+01  0.41152362992E+02  0.96828278402E+01  0.47787270838E+02  0.19999999058E+02 0.  0.
         12    1    1    2    0    0  0.98157606437E+01 -0.41152362992E+02 -0.96828278402E+01  0.43400729162E+02  0.00000000000E+00 0. -1.
         11    1    3    3    0    0 -0.39004973718E+01  0.49425024948E+01  0.13501514240E-01  0.62962205497E+01  0.51100000000E-03 0. -1.
        -11    1    3    3    0    0  0.57340738961E+01  0.14322141909E+02  0.21190095030E+01  0.15572204527E+02  0.51100000000E-03 0.  1.
        -12    1    3    3    0    0 -0.11649337168E+02  0.21887718588E+02  0.75503168229E+01  0.25918845761E+02  0.00000000000E+00 0.  1.
</event>
<event>
 7    1  0.2733256E-010  0.4778727E+02  0.7816164E-02  0.1312668E+00
        -11   -1    0    0    0    0  0.00000000000E+00  0.00000000000E+00  0.45593999997E+02  0.45594000000E+02  0.51100000000E-03 0.  1.
         11   -1    0    0    0    0 -0.00000000000E+00 -0.00000000000E+00 -0.45593999997E+02  0.45594000000E+02  0.51100000000E-03 0. -1.
    9900012    2    1    2    0    0 -0.26784931143E+02  0.26267255019E+02  0.21822517425E+02  0.47787268562E+02  0.19999988683E+02 0.  0.
         12    1    1    2    0    0  0.26784931143E+02 -0.26267255019E+02 -0.21822517425E+02  0.43400731438E+02  0.00000000000E+00 0. -1.
         11    1    3    3    0    0 -0.27484208888E+01  0.20567983375E+01  0.35615470054E+01  0.49466002583E+01  0.51100000000E-03 0. -1.
        -11    1    3    3    0    0 -0.48168711456E+00 -0.12308328765E+01  0.58776492008E+01  0.60244279757E+01  0.51100000000E-03 0.  1.
        -12    1    3    3    0    0 -0.23554823139E+02  0.25441289558E+02  0.12383321219E+02  0.36816240328E+02  0.00000000000E+00 0.  1.
</event>
<event>
 7    1  0.2733256E-010  0.4778727E+02  0.7816164E-02  0.1312668E+00
        -11   -1    0    0    0    0  0.00000000000E+00  0.00000000000E+00  0.45593999997E+02  0.45594000000E+02  0.51100000000E-03 0.  1.
         11   -1    0    0    0    0 -0.00000000000E+00 -0.00000000000E+00 -0.45593999997E+02  0.45594000000E+02  0.51100000000E-03 0. -1.
    9900012    2    1    2    0    0  0.47484055426E+01 -0.43129069844E+02 -0.97944663592E+00  0.47787270323E+02  0.19999996710E+02 0.  0.
         12    1    1    2    0    0 -0.47484055426E+01  0.43129069844E+02  0.97944663592E+00  0.43400729677E+02  0.00000000000E+00 0. -1.
         11    1    3    3    0    0  0.18097651803E+01 -0.10625923698E+01  0.38302346554E+01  0.43674993221E+01  0.51100000000E-03 0. -1.
        -11    1    3    3    0    0 -0.97973163107E-01  0.79354545328E-01  0.78576877287E+00  0.79581952106E+00  0.51100000000E-03 0.  1.
        -12    1    3    3    0    0  0.30366135254E+01 -0.42145832019E+02 -0.55954500642E+01  0.42623951480E+02  0.00000000000E+00 0.  1.
</event>
<event>
 7    1  0.2733256E-010  0.4778727E+02  0.7816164E-02  0.1312668E+00
        -11   -1    0    0    0    0  0.00000000000E+00  0.00000000000E+00  0.45593999997E+02  0.45594000000E+02  0.51100000000E-03 0. -1.
         11   -1    0    0    0    0 -0.00000000000E+00 -0.00000000000E+00 -0.45593999997E+02  0.45594000000E+02  0.51100000000E-03 0.  1.
    9900012    2    1    2    0    0 -0.37067577023E+02  0.16500185703E+02 -0.15406561531E+02  0.47787268062E+02  0.19999986402E+02 0.  0.
         12    1    1    2    0    0  0.37067577023E+02 -0.16500185703E+02  0.15406561531E+02  0.43400731938E+02  0.00000000000E+00 0. -1.
         11    1    3    3    0    0 -0.73334530311E+01 -0.32048707777E+01 -0.59660349783E+01  0.99821993411E+01  0.51100000000E-03 0. -1.
        -11    1    3    3    0    0 -0.68081544720E-01  0.20612681890E+01 -0.88472525983E+00  0.22441480990E+01  0.51100000000E-03 0.  1.
        -12    1    3    3    0    0 -0.29666042447E+02  0.17643788292E+02 -0.85558012923E+01  0.35560920622E+02  0.00000000000E+00 0.  1.
</event>
<event>
 7    1  0.2733256E-010  0.4778727E+02  0.7816164E-02  0.1312668E+00
        -11   -1    0    0    0    0  0.00000000000E+00  0.00000000000E+00  0.45593999997E+02  0.45594000000E+02  0.51100000000E-03 0. -1.
         11   -1    0    0    0    0 -0.00000000000E+00 -0.00000000000E+00 -0.45593999997E+02  0.45594000000E+02  0.51100000000E-03 0.  1.
    9900012    2    1    2    0    0 -0.12365800306E+02 -0.41570544137E+02 -0.16124394463E+01  0.47787272840E+02  0.20000008185E+02 0.  0.
         12    1    1    2    0    0  0.12365800306E+02  0.41570544137E+02  0.16124394463E+01  0.43400727160E+02  0.00000000000E+00 0. -1.
         11    1    3    3    0    0 -0.37089711635E+01 -0.29983159462E+00 -0.19855142564E+01  0.42176573119E+01  0.51100000000E-03 0. -1.
        -11    1    3    3    0    0 -0.82057522044E+01 -0.20097322819E+02 -0.36499530578E+01  0.22012698865E+02  0.51100000000E-03 0.  1.
         12    1    3    3    0    0 -0.45107693850E+00 -0.21173389723E+02  0.40230278679E+01  0.21556916663E+02  0.00000000000E+00 0. -1.
</event>
<event>
 7    1  0.2733256E-010  0.4778727E+02  0.7816164E-02  0.1312668E+00
        -11   -1    0    0    0    0  0.00000000000E+00  0.00000000000E+00  0.45593999997E+02  0.45594000000E+02  0.51100000000E-03 0.  1.
         11   -1    0    0    0    0 -0.00000000000E+00 -0.00000000000E+00 -0.45593999997E+02  0.45594000000E+02  0.51100000000E-03 0. -1.
    9900012    2    1    2    0    0 -0.29130667663E+02  0.22470654027E+02  0.23023836656E+02  0.47787272526E+02  0.20000006755E+02 0.  0.
         12    1    1    2    0    0  0.29130667663E+02 -0.22470654027E+02 -0.23023836656E+02  0.43400727474E+02  0.00000000000E+00 0. -1.
         11    1    3    3    0    0 -0.11703992242E+02  0.12425585221E+02  0.13879392456E+02  0.22000366763E+02  0.51100000000E-03 0. -1.
        -11    1    3    3    0    0 -0.19071438112E+02  0.10957762254E+02  0.93390952525E+01  0.23895836576E+02  0.51100000000E-03 0.  1.
         12    1    3    3    0    0  0.16447626909E+01 -0.91269344744E+00 -0.19465105262E+00  0.18910691872E+01  0.00000000000E+00 0. -1.
</event>
<event>
 7    1  0.2733256E-010  0.4778727E+02  0.7816164E-02  0.1312668E+00
        -11   -1    0    0    0    0  0.00000000000E+00  0.00000000000E+00  0.45593999997E+02  0.45594000000E+02  0.51100000000E-03 0.  1.
         11   -1    0    0    0    0 -0.00000000000E+00 -0.00000000000E+00 -0.45593999997E+02  0.45594000000E+02  0.51100000000E-03 0. -1.
    9900012    2    1    2    0    0 -0.13998880026E+02 -0.40707422626E+02  0.55281548346E+01  0.47787269652E+02  0.19999993653E+02 0.  0.
         12    1    1    2    0    0  0.13998880026E+02  0.40707422626E+02 -0.55281548346E+01  0.43400730348E+02  0.00000000000E+00 0. -1.
         11    1    3    3    0    0 -0.28709985446E+01 -0.12627825525E+01  0.50652856360E+01  0.59577152712E+01  0.51100000000E-03 0. -1.
        -11    1    3    3    0    0 -0.85817306769E+00 -0.43092141193E+01 -0.25841689202E+01  0.50974225457E+01  0.51100000000E-03 0.  1.
        -12    1    3    3    0    0 -0.10269708414E+02 -0.35135425954E+02  0.30470381189E+01  0.36732131835E+02  0.00000000000E+00 0.  1.
</event>
<event>
 7    1  0.2733256E-010  0.4778727E+02  0.7816164E-02  0.1312668E+00
        -11   -1    0    0    0    0  0.00000000000E+00  0.00000000000E+00  0.45593999997E+02  0.45594000000E+02  0.51100000000E-03 0.  1.
         11   -1    0    0    0    0 -0.00000000000E+00 -0.00000000000E+00 -0.45593999997E+02  0.45594000000E+02  0.51100000000E-03 0. -1.
    9900012    2    1    2    0    0 -0.16222226928E+02 -0.32536024211E+02  0.23703789192E+02  0.47787272587E+02  0.20000007031E+02 0.  0.
         12    1    1    2    0    0  0.16222226928E+02  0.32536024211E+02 -0.23703789192E+02  0.43400727413E+02  0.00000000000E+00 0. -1.
         11    1    3    3    0    0 -0.10820850892E+02 -0.15258630194E+02  0.19613692561E+02  0.27103755193E+02  0.51100000000E-03 0. -1.
        -11    1    3    3    0    0  0.10619995404E+01 -0.34631457258E-01  0.18499804686E+01  0.21334175299E+01  0.51100000000E-03 0.  1.
        -12    1    3    3    0    0 -0.64633755763E+01 -0.17242762560E+02  0.22401161621E+01  0.18550099864E+02  0.00000000000E+00 0.  1.
</event>
<event>
 7    1  0.2733256E-010  0.4778728E+02  0.7816164E-02  0.1312668E+00
        -11   -1    0    0    0    0  0.00000000000E+00  0.00000000000E+00  0.45593999997E+02  0.45594000000E+02  0.51100000000E-03 0. -1.
         11   -1    0    0    0    0 -0.00000000000E+00 -0.00000000000E+00 -0.45593999997E+02  0.45594000000E+02  0.51100000000E-03 0.  1.
    9900012    2    1    2    0    0 -0.15851534748E+02  0.27991772167E+02 -0.29134385786E+02  0.47787275375E+02  0.20000019744E+02 0.  0.
         12    1    1    2    0    0  0.15851534748E+02 -0.27991772167E+02  0.29134385786E+02  0.43400724625E+02  0.00000000000E+00 0. -1.
         11    1    3    3    0    0 -0.54450289970E+00 -0.29923882578E+01 -0.21632216593E+01  0.37323449869E+01  0.51100000000E-03 0. -1.
        -11    1    3    3    0    0 -0.73025029445E+01  0.11952872918E+02 -0.13127798397E+02  0.19197312605E+02  0.51100000000E-03 0.  1.
        -12    1    3    3    0    0 -0.80045289036E+01  0.19031287506E+02 -0.13843365730E+02  0.24857617783E+02  0.00000000000E+00 0.  1.
</event>
<event>
 7    1  0.2733256E-010  0.4778727E+02  0.7816164E-02  0.1312668E+00
        -11   -1    0    0    0    0  0.00000000000E+00  0.00000000000E+00  0.45593999997E+02  0.45594000000E+02  0.51100000000E-03 0.  1.
         11   -1    0    0    0    0 -0.00000000000E+00 -0.00000000000E+00 -0.45593999997E+02  0.45594000000E+02  0.51100000000E-03 0. -1.
    9900012    2    1    2    0    0 -0.46533575941E+01 -0.13109281136E+02  0.41111023555E+02  0.47787271360E+02  0.20000001437E+02 0.  0.
         12    1    1    2    0    0  0.46533575941E+01  0.13109281136E+02 -0.41111023555E+02  0.43400728640E+02  0.00000000000E+00 0. -1.
         11    1    3    3    0    0 -0.11351676782E+01 -0.94271874095E+00  0.29208568827E+01  0.32724195135E+01  0.51100000000E-03 0. -1.
        -11    1    3    3    0    0 -0.11273822997E+02 -0.64442605071E+01  0.18631525013E+02  0.22710378751E+02  0.51100000000E-03 0.  1.
         12    1    3    3    0    0  0.77556330815E+01 -0.57223018882E+01  0.19558641659E+02  0.21804473095E+02  0.00000000000E+00 0. -1.
</event>
<event>
 7    1  0.2733256E-010  0.4778727E+02  0.7816164E-02  0.1312668E+00
        -11   -1    0    0    0    0  0.00000000000E+00  0.00000000000E+00  0.45593999997E+02  0.45594000000E+02  0.51100000000E-03 0.  1.
         11   -1    0    0    0    0 -0.00000000000E+00 -0.00000000000E+00 -0.45593999997E+02  0.45594000000E+02  0.51100000000E-03 0. -1.
    9900012    2    1    2    0    0  0.34185295502E+02  0.63938639277E+01  0.25963580202E+02  0.47787269345E+02  0.19999992252E+02 0.  0.
         12    1    1    2    0    0 -0.34185295502E+02 -0.63938639277E+01 -0.25963580202E+02  0.43400730655E+02  0.00000000000E+00 0. -1.
         11    1    3    3    0    0  0.17628043359E+02 -0.21344085924E+01  0.72346521481E+01  0.19174039863E+02  0.51100000000E-03 0. -1.
        -11    1    3    3    0    0  0.16061066828E+02  0.55352725304E+01  0.10817137631E+02  0.20139701497E+02  0.51100000000E-03 0.  1.
         12    1    3    3    0    0  0.49618531513E+00  0.29929999897E+01  0.79117904230E+01  0.84735279844E+01  0.00000000000E+00 0. -1.
</event>
<event>
 7    1  0.2733256E-010  0.4778727E+02  0.7816164E-02  0.1312668E+00
        -11   -1    0    0    0    0  0.00000000000E+00  0.00000000000E+00  0.45593999997E+02  0.45594000000E+02  0.51100000000E-03 0. -1.
         11   -1    0    0    0    0 -0.00000000000E+00 -0.00000000000E+00 -0.45593999997E+02  0.45594000000E+02  0.51100000000E-03 0.  1.
    9900012    2    1    2    0    0 -0.43094552308E+02  0.49638620733E+01  0.13574537479E+01  0.47787273670E+02  0.20000011971E+02 0.  0.
         12    1    1    2    0    0  0.43094552308E+02 -0.49638620733E+01 -0.13574537479E+01  0.43400726330E+02  0.00000000000E+00 0. -1.
         11    1    3    3    0    0 -0.58393453947E+01 -0.22011813798E+01 -0.86902218004E+00  0.63006629744E+01  0.51100000000E-03 0. -1.
        -11    1    3    3    0    0 -0.34642081415E+02  0.11294326448E+02  0.29083022697E+01  0.36552617376E+02  0.51100000000E-03 0.  1.
         12    1    3    3    0    0 -0.26131254979E+01 -0.41292829945E+01 -0.68182634171E+00  0.49339933195E+01  0.00000000000E+00 0. -1.
</event>
<event>
 7    1  0.2733256E-010  0.4778728E+02  0.7816164E-02  0.1312668E+00
        -11   -1    0    0    0    0  0.00000000000E+00  0.00000000000E+00  0.45593999997E+02  0.45594000000E+02  0.51100000000E-03 0.  1.
         11   -1    0    0    0    0 -0.00000000000E+00 -0.00000000000E+00 -0.45593999997E+02  0.45594000000E+02  0.51100000000E-03 0. -1.
    9900012    2    1    2    0    0 -0.18675226889E+02 -0.22110601524E+02  0.32341615936E+02  0.47787275116E+02  0.20000018564E+02 0.  0.
         12    1    1    2    0    0  0.18675226889E+02  0.22110601524E+02 -0.32341615936E+02  0.43400724884E+02  0.00000000000E+00 0. -1.
         11    1    3    3    0    0 -0.59517479792E+01  0.13514734454E+01  0.11093243082E+02  0.12661351698E+02  0.51100000000E-03 0. -1.
        -11    1    3    3    0    0 -0.51947087712E+01 -0.43138348768E+01  0.87488777084E+01  0.11051562423E+02  0.51100000000E-03 0.  1.
        -12    1    3    3    0    0 -0.75287701385E+01 -0.19148240092E+02  0.12499495145E+02  0.24074360995E+02  0.00000000000E+00 0.  1.
</event>
<event>
 7    1  0.2733256E-010  0.4778727E+02  0.7816164E-02  0.1312668E+00
        -11   -1    0    0    0    0  0.00000000000E+00  0.00000000000E+00  0.45593999997E+02  0.45594000000E+02  0.51100000000E-03 0.  1.
         11   -1    0    0    0    0 -0.00000000000E+00 -0.00000000000E+00 -0.45593999997E+02  0.45594000000E+02  0.51100000000E-03 0. -1.
    9900012    2    1    2    0    0 -0.37007422796E+02  0.18509197085E+02  0.13095173684E+02  0.47787270829E+02  0.19999999020E+02 0.  0.
         12    1    1    2    0    0  0.37007422796E+02 -0.18509197085E+02 -0.13095173684E+02  0.43400729171E+02  0.00000000000E+00 0. -1.
         11    1    3    3    0    0 -0.14689039585E+02  0.76764568347E+01  0.18314695799E+01  0.16674835968E+02  0.51100000000E-03 0. -1.
        -11    1    3    3    0    0 -0.10622051500E+02  0.12992671028E+02  0.88622619723E+01  0.18978334122E+02  0.51100000000E-03 0.  1.
         12    1    3    3    0    0 -0.11696331711E+02 -0.21599307778E+01  0.24014421316E+01  0.12134100740E+02  0.00000000000E+00 0. -1.
</event>
<event>
 7    1  0.2733256E-010  0.4778727E+02  0.7816164E-02  0.1312668E+00
        -11   -1    0    0    0    0  0.00000000000E+00  0.00000000000E+00  0.45593999997E+02  0.45594000000E+02  0.51100000000E-03 0. -1.
         11   -1    0    0    0    0 -0.00000000000E+00 -0.00000000000E+00 -0.45593999997E+02  0.45594000000E+02  0.51100000000E-03 0.  1.
    9900012    2    1    2    0    0 -0.16568855172E+02  0.77491265445E+01 -0.39357941971E+02  0.47787268208E+02  0.19999987068E+02 0.  0.
         12    1    1    2    0    0  0.16568855172E+02 -0.77491265445E+01  0.39357941971E+02  0.43400731792E+02  0.00000000000E+00 0. -1.
         11    1    3    3    0    0 -0.14249217819E+01  0.33126499950E+01 -0.10507573843E+02  0.11109147600E+02  0.51100000000E-03 0. -1.
        -11    1    3    3    0    0 -0.14313089834E+02  0.97171991602E+01 -0.22272299273E+02  0.28201840636E+02  0.51100000000E-03 0.  1.
         12    1    3    3    0    0 -0.83084355671E+00 -0.52807226106E+01 -0.65780688547E+01  0.84762799720E+01  0.00000000000E+00 0. -1.
</event>
<event>
 7    1  0.2733256E-010  0.4778727E+02  0.7816164E-02  0.1312668E+00
        -11   -1    0    0    0    0  0.00000000000E+00  0.00000000000E+00  0.45593999997E+02  0.45594000000E+02  0.51100000000E-03 0.  1.
         11   -1    0    0    0    0 -0.00000000000E+00 -0.00000000000E+00 -0.45593999997E+02  0.45594000000E+02  0.51100000000E-03 0. -1.
    9900012    2    1    2    0    0  0.56335833271E+01  0.16540629650E+02  0.39727745536E+02  0.47787268950E+02  0.19999990449E+02 0.  0.
         12    1    1    2    0    0 -0.56335833271E+01 -0.16540629650E+02 -0.39727745536E+02  0.43400731050E+02  0.00000000000E+00 0. -1.
         11    1    3    3    0    0  0.20805498873E+01  0.86425594302E+01  0.85674001774E+01  0.12345965632E+02  0.51100000000E-03 0. -1.
        -11    1    3    3    0    0  0.77583018342E+01  0.11451712915E+01  0.92251849075E+01  0.12108125432E+02  0.51100000000E-03 0.  1.
         12    1    3    3    0    0 -0.42052683944E+01  0.67528989278E+01  0.21935160451E+02  0.23333177885E+02  0.00000000000E+00 0. -1.
</event>
<event>
 7    1  0.2733256E-010  0.4778727E+02  0.7816164E-02  0.1312668E+00
        -11   -1    0    0    0    0  0.00000000000E+00  0.00000000000E+00  0.45593999997E+02  0.45594000000E+02  0.51100000000E-03 0. -1.
         11   -1    0    0    0    0 -0.00000000000E+00 -0.00000000000E+00 -0.45593999997E+02  0.45594000000E+02  0.51100000000E-03 0.  1.
    9900012    2    1    2    0    0 -0.18138873198E+02 -0.18506833315E+02 -0.34815253946E+02  0.47787268352E+02  0.19999987722E+02 0.  0.
         12    1    1    2    0    0  0.18138873198E+02  0.18506833315E+02  0.34815253946E+02  0.43400731648E+02  0.00000000000E+00 0. -1.
         11    1    3    3    0    0  0.13101193833E+01  0.89954633853E-01  0.10643545998E+01  0.16903714414E+01  0.51100000000E-03 0. -1.
        -11    1    3    3    0    0 -0.66850924163E+01 -0.15429831276E+01 -0.46270408379E+01  0.82753105515E+01  0.51100000000E-03 0.  1.
        -12    1    3    3    0    0 -0.12763900165E+02 -0.17053804822E+02 -0.31252567708E+02  0.37821586359E+02  0.00000000000E+00 0.  1.
</event>
<event>
 7    1  0.2733256E-010  0.4778729E+02  0.7816164E-02  0.1312668E+00
        -11   -1    0    0    0    0  0.00000000000E+00  0.00000000000E+00  0.45593999997E+02  0.45594000000E+02  0.51100000000E-03 0. -1.
         11   -1    0    0    0    0 -0.00000000000E+00 -0.00000000000E+00 -0.45593999997E+02  0.45594000000E+02  0.51100000000E-03 0.  1.
    9900012    2    1    2    0    0  0.38320269929E+02 -0.96877654571E+01 -0.17925554478E+02  0.47787292744E+02  0.20000098938E+02 0.  0.
         12    1    1    2    0    0 -0.38320269929E+02  0.96877654571E+01  0.17925554478E+02  0.43400707256E+02  0.00000000000E+00 0. -1.
         11    1    3    3    0    0  0.12930811685E+02 -0.50613616820E+01 -0.13107978882E+02  0.19095611631E+02  0.51100000000E-03 0. -1.
        -11    1    3    3    0    0  0.21305072423E+02 -0.51102666839E+01 -0.81724811296E+01  0.23383977091E+02  0.51100000000E-03 0.  1.
         12    1    3    3    0    0  0.40843858213E+01  0.48386290884E+00  0.33549055342E+01  0.53077040229E+01  0.00000000000E+00 0. -1.
</event>
<event>
 7    1  0.2733256E-010  0.4778727E+02  0.7816164E-02  0.1312668E+00
        -11   -1    0    0    0    0  0.00000000000E+00  0.00000000000E+00  0.45593999997E+02  0.45594000000E+02  0.51100000000E-03 0. -1.
         11   -1    0    0    0    0 -0.00000000000E+00 -0.00000000000E+00 -0.45593999997E+02  0.45594000000E+02  0.51100000000E-03 0.  1.
    9900012    2    1    2    0    0  0.39513276206E+02  0.17952173998E+02  0.20897995739E+00  0.47787271660E+02  0.20000002808E+02 0.  0.
         12    1    1    2    0    0 -0.39513276206E+02 -0.17952173998E+02 -0.20897995739E+00  0.43400728340E+02  0.00000000000E+00 0. -1.
         11    1    3    3    0    0  0.14576368432E+02  0.13199843498E+02 -0.32249296567E+01  0.19927532627E+02  0.51100000000E-03 0. -1.
        -11    1    3    3    0    0  0.51821468794E+01  0.42693999198E+01 -0.25972571874E+01  0.71991782249E+01  0.51100000000E-03 0.  1.
        -12    1    3    3    0    0  0.19754760894E+02  0.48293057987E+00  0.60311668014E+01  0.20660560809E+02  0.00000000000E+00 0.  1.
</event>
<event>
 7    1  0.2733256E-010  0.4778727E+02  0.7816164E-02  0.1312668E+00
        -11   -1    0    0    0    0  0.00000000000E+00  0.00000000000E+00  0.45593999997E+02  0.45594000000E+02  0.51100000000E-03 0.  1.
         11   -1    0    0    0    0 -0.00000000000E+00 -0.00000000000E+00 -0.45593999997E+02  0.45594000000E+02  0.51100000000E-03 0. -1.
    9900012    2    1    2    0    0 -0.11673231021E+02  0.22984024634E+02  0.34915518957E+02  0.47787272185E+02  0.20000005201E+02 0.  0.
         12    1    1    2    0    0  0.11673231021E+02 -0.22984024634E+02 -0.34915518957E+02  0.43400727815E+02  0.00000000000E+00 0. -1.
         11    1    3    3    0    0 -0.57861306314E+01  0.28487789871E+01  0.61103891487E+01  0.88843517046E+01  0.51100000000E-03 0. -1.
        -11    1    3    3    0    0 -0.56799480598E+01  0.59064717603E+01  0.21284801299E+02  0.22807695745E+02  0.51100000000E-03 0.  1.
         12    1    3    3    0    0 -0.20715233004E+00  0.14228773886E+02  0.75203285094E+01  0.16095224735E+02  0.00000000000E+00 0. -1.
</event>
<event>
 7    1  0.2733256E-010  0.4778727E+02  0.7816164E-02  0.1312668E+00
        -11   -1    0    0    0    0  0.00000000000E+00  0.00000000000E+00  0.45593999997E+02  0.45594000000E+02  0.51100000000E-03 0. -1.
         11   -1    0    0    0    0 -0.00000000000E+00 -0.00000000000E+00 -0.45593999997E+02  0.45594000000E+02  0.51100000000E-03 0.  1.
    9900012    2    1    2    0    0 -0.28115468901E+02  0.79398697230E+01 -0.32095206602E+02  0.47787269481E+02  0.19999992872E+02 0.  0.
         12    1    1    2    0    0  0.28115468901E+02 -0.79398697230E+01  0.32095206602E+02  0.43400730519E+02  0.00000000000E+00 0. -1.
         11    1    3    3    0    0  0.18696104885E+01  0.31438548492E-01 -0.21270542684E+01  0.28321002600E+01  0.51100000000E-03 0. -1.
        -11    1    3    3    0    0 -0.11417344822E+02  0.13330363457E+01 -0.19532631062E+02  0.22663989612E+02  0.51100000000E-03 0.  1.
        -12    1    3    3    0    0 -0.18567734568E+02  0.65753948288E+01 -0.10435521272E+02  0.22291179609E+02  0.00000000000E+00 0.  1.
</event>
<event>
 7    1  0.2733256E-010  0.4778727E+02  0.7816164E-02  0.1312668E+00
        -11   -1    0    0    0    0  0.00000000000E+00  0.00000000000E+00  0.45593999997E+02  0.45594000000E+02  0.51100000000E-03 0. -1.
         11   -1    0    0    0    0 -0.00000000000E+00 -0.00000000000E+00 -0.45593999997E+02  0.45594000000E+02  0.51100000000E-03 0.  1.
    9900012    2    1    2    0    0  0.12023930874E+02  0.41146649777E+02  0.67824433542E+01  0.47787271442E+02  0.20000001812E+02 0.  0.
         12    1    1    2    0    0 -0.12023930874E+02 -0.41146649777E+02 -0.67824433542E+01  0.43400728558E+02  0.00000000000E+00 0. -1.
         11    1    3    3    0    0 -0.38697863023E+01  0.77122306097E+01 -0.17870574817E+01  0.88117717689E+01  0.51100000000E-03 0. -1.
        -11    1    3    3    0    0  0.44249299876E+01  0.27521150279E+01  0.46243283059E+00  0.52314421440E+01  0.51100000000E-03 0.  1.
        -12    1    3    3    0    0  0.11468787189E+02  0.30682304139E+02  0.81070680052E+01  0.33744057529E+02  0.00000000000E+00 0.  1.
</event>
<event>
 7    1  0.2733256E-010  0.4778727E+02  0.7816164E-02  0.1312668E+00
        -11   -1    0    0    0    0  0.00000000000E+00  0.00000000000E+00  0.45593999997E+02  0.45594000000E+02  0.51100000000E-03 0. -1.
         11   -1    0    0    0    0 -0.00000000000E+00 -0.00000000000E+00 -0.45593999997E+02  0.45594000000E+02  0.51100000000E-03 0.  1.
    9900012    2    1    2    0    0 -0.41857008322E+02  0.33441504918E+01 -0.10974099191E+02  0.47787270269E+02  0.19999996464E+02 0.  0.
         12    1    1    2    0    0  0.41857008322E+02 -0.33441504918E+01  0.10974099191E+02  0.43400729731E+02  0.00000000000E+00 0. -1.
         11    1    3    3    0    0 -0.15059340953E+02  0.74333271658E+00  0.27488910319E+01  0.15326209434E+02  0.51100000000E-03 0. -1.
        -11    1    3    3    0    0 -0.56925172281E+01  0.39722826387E+01  0.52269153023E+00  0.69611054043E+01  0.51100000000E-03 0.  1.
        -12    1    3    3    0    0 -0.21105150141E+02 -0.13714648635E+01 -0.14245681753E+02  0.25499955430E+02  0.00000000000E+00 0.  1.
</event>
<event>
 7    1  0.2733256E-010  0.4778727E+02  0.7816164E-02  0.1312668E+00
        -11   -1    0    0    0    0  0.00000000000E+00  0.00000000000E+00  0.45593999997E+02  0.45594000000E+02  0.51100000000E-03 0. -1.
         11   -1    0    0    0    0 -0.00000000000E+00 -0.00000000000E+00 -0.45593999997E+02  0.45594000000E+02  0.51100000000E-03 0.  1.
    9900012    2    1    2    0    0  0.31073867409E+02  0.62762527228E+01 -0.29641972384E+02  0.47787272923E+02  0.20000008563E+02 0.  0.
         12    1    1    2    0    0 -0.31073867409E+02 -0.62762527228E+01  0.29641972384E+02  0.43400727077E+02  0.00000000000E+00 0. -1.
         11    1    3    3    0    0  0.56673518245E+01  0.13903348347E+01 -0.38684024567E+01  0.70011745788E+01  0.51100000000E-03 0. -1.
        -11    1    3    3    0    0  0.15807708961E+02  0.86610441347E+01 -0.24466301882E+02  0.30389097982E+02  0.51100000000E-03 0.  1.
         12    1    3    3    0    0  0.95988066241E+01 -0.37751262467E+01 -0.13072680453E+01  0.10397000362E+02  0.00000000000E+00 0. -1.
</event>
<event>
 7    1  0.2733256E-010  0.4778727E+02  0.7816164E-02  0.1312668E+00
        -11   -1    0    0    0    0  0.00000000000E+00  0.00000000000E+00  0.45593999997E+02  0.45594000000E+02  0.51100000000E-03 0.  1.
         11   -1    0    0    0    0 -0.00000000000E+00 -0.00000000000E+00 -0.45593999997E+02  0.45594000000E+02  0.51100000000E-03 0. -1.
    9900012    2    1    2    0    0 -0.23607101753E+02  0.31423811272E+02  0.18408469977E+02  0.47787274950E+02  0.20000017805E+02 0.  0.
         12    1    1    2    0    0  0.23607101753E+02 -0.31423811272E+02 -0.18408469977E+02  0.43400725050E+02  0.00000000000E+00 0. -1.
         11    1    3    3    0    0 -0.12500926294E+01  0.90340595880E+01  0.16750013414E+01  0.92726799781E+01  0.51100000000E-03 0. -1.
        -11    1    3    3    0    0 -0.53214191504E+01  0.12890003836E+02  0.20387713122E+01  0.14093483933E+02  0.51100000000E-03 0.  1.
         12    1    3    3    0    0 -0.17035589974E+02  0.94997478479E+01  0.14694697323E+02  0.24421111038E+02  0.00000000000E+00 0. -1.
</event>
<event>
 7    1  0.2733256E-010  0.4778727E+02  0.7816164E-02  0.1312668E+00
        -11   -1    0    0    0    0  0.00000000000E+00  0.00000000000E+00  0.45593999997E+02  0.45594000000E+02  0.51100000000E-03 0. -1.
         11   -1    0    0    0    0 -0.00000000000E+00 -0.00000000000E+00 -0.45593999997E+02  0.45594000000E+02  0.51100000000E-03 0.  1.
    9900012    2    1    2    0    0  0.20568814303E+02 -0.32330402793E+02 -0.20378716544E+02  0.47787272419E+02  0.20000006269E+02 0.  0.
         12    1    1    2    0    0 -0.20568814303E+02  0.32330402793E+02  0.20378716544E+02  0.43400727581E+02  0.00000000000E+00 0. -1.
         11    1    3    3    0    0  0.10812763428E+02 -0.17647662900E+02 -0.30453607377E+01  0.20919609965E+02  0.51100000000E-03 0. -1.
        -11    1    3    3    0    0  0.78993129212E+01 -0.10864252461E+02 -0.58995229502E+01  0.14670906498E+02  0.51100000000E-03 0.  1.
        -12    1    3    3    0    0  0.18567379535E+01 -0.38184874308E+01 -0.11433832856E+02  0.12196755956E+02  0.00000000000E+00 0.  1.
</event>
<event>
 7    1  0.2733256E-010  0.4778727E+02  0.7816164E-02  0.1312668E+00
        -11   -1    0    0    0    0  0.00000000000E+00  0.00000000000E+00  0.45593999997E+02  0.45594000000E+02  0.51100000000E-03 0.  1.
         11   -1    0    0    0    0 -0.00000000000E+00 -0.00000000000E+00 -0.45593999997E+02  0.45594000000E+02  0.51100000000E-03 0. -1.
    9900012    2    1    2    0    0 -0.14119580458E-01  0.32869808835E+02  0.28340757547E+02  0.47787273386E+02  0.20000010678E+02 0.  0.
         12    1    1    2    0    0  0.14119580458E-01 -0.32869808835E+02 -0.28340757547E+02  0.43400726614E+02  0.00000000000E+00 0. -1.
         11    1    3    3    0    0  0.34124974791E+01  0.64454154592E+01  0.16938338336E+02  0.18441687160E+02  0.51100000000E-03 0. -1.
        -11    1    3    3    0    0 -0.17901623721E+01  0.82836546123E+01  0.58709674511E+01  0.10309795057E+02  0.51100000000E-03 0.  1.
         12    1    3    3    0    0 -0.16364546875E+01  0.18140738764E+02  0.55314517609E+01  0.19035791169E+02  0.00000000000E+00 0. -1.
</event>
<event>
 7    1  0.2733256E-010  0.4778727E+02  0.7816164E-02  0.1312668E+00
        -11   -1    0    0    0    0  0.00000000000E+00  0.00000000000E+00  0.45593999997E+02  0.45594000000E+02  0.51100000000E-03 0. -1.
         11   -1    0    0    0    0 -0.00000000000E+00 -0.00000000000E+00 -0.45593999997E+02  0.45594000000E+02  0.51100000000E-03 0.  1.
    9900012    2    1    2    0    0  0.32430504028E+02 -0.60194840224E+01 -0.28207296179E+02  0.47787270315E+02  0.19999996676E+02 0.  0.
         12    1    1    2    0    0 -0.32430504028E+02  0.60194840224E+01  0.28207296179E+02  0.43400729685E+02  0.00000000000E+00 0. -1.
         11    1    3    3    0    0  0.13351617131E+02  0.75083298525E+00 -0.16500497510E+02  0.21239017127E+02  0.51100000000E-03 0. -1.
        -11    1    3    3    0    0  0.78997876364E+01  0.26252516142E+01 -0.78555863619E+01  0.11445908793E+02  0.51100000000E-03 0.  1.
         12    1    3    3    0    0  0.11179099261E+02 -0.93955686219E+01 -0.38512123072E+01  0.15102344396E+02  0.00000000000E+00 0. -1.
</event>
<event>
 7    1  0.2733256E-010  0.4778727E+02  0.7816164E-02  0.1312668E+00
        -11   -1    0    0    0    0  0.00000000000E+00  0.00000000000E+00  0.45593999997E+02  0.45594000000E+02  0.51100000000E-03 0.  1.
         11   -1    0    0    0    0 -0.00000000000E+00 -0.00000000000E+00 -0.45593999997E+02  0.45594000000E+02  0.51100000000E-03 0. -1.
    9900012    2    1    2    0    0 -0.28951616264E+02  0.25797169527E+02  0.19491879001E+02  0.47787269742E+02  0.19999994062E+02 0.  0.
         12    1    1    2    0    0  0.28951616264E+02 -0.25797169527E+02 -0.19491879001E+02  0.43400730258E+02  0.00000000000E+00 0. -1.
         11    1    3    3    0    0 -0.20639151816E+01 -0.96968715679E+00 -0.86377584391E+00  0.24384724785E+01  0.51100000000E-03 0. -1.
        -11    1    3    3    0    0 -0.11728129320E+02  0.28271788367E+01  0.44825190909E+01  0.12869923667E+02  0.51100000000E-03 0.  1.
         12    1    3    3    0    0 -0.15159571762E+02  0.23939677847E+02  0.15873135754E+02  0.32478873597E+02  0.00000000000E+00 0. -1.
</event>
<event>
 7    1  0.2733256E-010  0.4778726E+02  0.7816164E-02  0.1312668E+00
        -11   -1    0    0    0    0  0.00000000000E+00  0.00000000000E+00  0.45593999997E+02  0.45594000000E+02  0.51100000000E-03 0.  1.
         11   -1    0    0    0    0 -0.00000000000E+00 -0.00000000000E+00 -0.45593999997E+02  0.45594000000E+02  0.51100000000E-03 0. -1.
    9900012    2    1    2    0    0 -0.25663906623E+02 -0.92860030988E+01  0.33745487596E+02  0.47787263949E+02  0.19999967648E+02 0.  0.
         12    1    1    2    0    0  0.25663906623E+02  0.92860030988E+01 -0.33745487596E+02  0.43400736051E+02  0.00000000000E+00 0. -1.
         11    1    3    3    0    0 -0.24446064455E+01 -0.63217129988E+01  0.77994060741E+01  0.10333000110E+02  0.51100000000E-03 0. -1.
        -11    1    3    3    0    0 -0.88573763618E-01  0.11698518156E+01 -0.11128389575E+01  0.16170372254E+01  0.51100000000E-03 0.  1.
        -12    1    3    3    0    0 -0.23130726413E+02 -0.41341419156E+01  0.27058920479E+02  0.35837226613E+02  0.00000000000E+00 0.  1.
</event>
<event>
 7    1  0.2733256E-010  0.4778727E+02  0.7816164E-02  0.1312668E+00
        -11   -1    0    0    0    0  0.00000000000E+00  0.00000000000E+00  0.45593999997E+02  0.45594000000E+02  0.51100000000E-03 0.  1.
         11   -1    0    0    0    0 -0.00000000000E+00 -0.00000000000E+00 -0.45593999997E+02  0.45594000000E+02  0.51100000000E-03 0. -1.
    9900012    2    1    2    0    0 -0.36817446057E+02  0.20556439532E+02  0.10272857713E+02  0.47787272518E+02  0.20000006717E+02 0.  0.
         12    1    1    2    0    0  0.36817446057E+02 -0.20556439532E+02 -0.10272857713E+02  0.43400727482E+02  0.00000000000E+00 0. -1.
         11    1    3    3    0    0 -0.22792639722E+01  0.91542532276E+00 -0.10325166193E+01  0.26644208764E+01  0.51100000000E-03 0. -1.
        -11    1    3    3    0    0 -0.13046123987E+02  0.17854789592E+02  0.60382382862E+01  0.22922809259E+02  0.51100000000E-03 0.  1.
        -12    1    3    3    0    0 -0.21492058097E+02  0.17862246179E+01  0.52671360464E+01  0.22200042382E+02  0.00000000000E+00 0.  1.
</event>
<event>
 7    1  0.2733256E-010  0.4778727E+02  0.7816164E-02  0.1312668E+00
        -11   -1    0    0    0    0  0.00000000000E+00  0.00000000000E+00  0.45593999997E+02  0.45594000000E+02  0.51100000000E-03 0.  1.
         11   -1    0    0    0    0 -0.00000000000E+00 -0.00000000000E+00 -0.45593999997E+02  0.45594000000E+02  0.51100000000E-03 0. -1.
    9900012    2    1    2    0    0 -0.42895798788E+02 -0.55122807472E+01  0.36315951327E+01  0.47787271021E+02  0.19999999892E+02 0.  0.
         12    1    1    2    0    0  0.42895798788E+02  0.55122807472E+01 -0.36315951327E+01  0.43400728979E+02  0.00000000000E+00 0. -1.
         11    1    3    3    0    0 -0.10195261277E+02 -0.19138056186E+01 -0.39252550803E+01  0.11091151075E+02  0.51100000000E-03 0. -1.
        -11    1    3    3    0    0 -0.23466992391E+02 -0.88129093621E+01  0.33591428199E+01  0.25291321516E+02  0.51100000000E-03 0.  1.
        -12    1    3    3    0    0 -0.92335451205E+01  0.52144342336E+01  0.41977073930E+01  0.11404798430E+02  0.00000000000E+00 0.  1.
</event>
<event>
 7    1  0.2733256E-010  0.4778727E+02  0.7816164E-02  0.1312668E+00
        -11   -1    0    0    0    0  0.00000000000E+00  0.00000000000E+00  0.45593999997E+02  0.45594000000E+02  0.51100000000E-03 0.  1.
         11   -1    0    0    0    0 -0.00000000000E+00 -0.00000000000E+00 -0.45593999997E+02  0.45594000000E+02  0.51100000000E-03 0. -1.
    9900012    2    1    2    0    0  0.12901657534E+02 -0.40951125600E+02 -0.63384620034E+01  0.47787267799E+02  0.19999985202E+02 0.  0.
         12    1    1    2    0    0 -0.12901657534E+02  0.40951125600E+02  0.63384620034E+01  0.43400732201E+02  0.00000000000E+00 0. -1.
         11    1    3    3    0    0  0.41533172924E+00  0.46533333376E+00 -0.18230775265E+01  0.19268231589E+01  0.51100000000E-03 0. -1.
        -11    1    3    3    0    0  0.11331812282E+02 -0.18033760146E+02  0.24401939170E+01  0.21437840871E+02  0.51100000000E-03 0.  1.
        -12    1    3    3    0    0  0.11545135236E+01 -0.23382698788E+02 -0.69555783939E+01  0.24422603769E+02  0.00000000000E+00 0.  1.
</event>
<event>
 7    1  0.2733256E-010  0.4778727E+02  0.7816164E-02  0.1312668E+00
        -11   -1    0    0    0    0  0.00000000000E+00  0.00000000000E+00  0.45593999997E+02  0.45594000000E+02  0.51100000000E-03 0.  1.
         11   -1    0    0    0    0 -0.00000000000E+00 -0.00000000000E+00 -0.45593999997E+02  0.45594000000E+02  0.51100000000E-03 0. -1.
    9900012    2    1    2    0    0  0.30200004661E+02  0.19648023834E+02  0.24197896111E+02  0.47787270763E+02  0.19999998717E+02 0.  0.
         12    1    1    2    0    0 -0.30200004661E+02 -0.19648023834E+02 -0.24197896111E+02  0.43400729237E+02  0.00000000000E+00 0. -1.
         11    1    3    3    0    0  0.21357671322E+01 -0.15864867409E+00  0.60875056381E+01  0.64532469192E+01  0.51100000000E-03 0. -1.
        -11    1    3    3    0    0  0.10505331754E+02  0.59545005925E+01  0.14182026266E+02  0.18626538643E+02  0.51100000000E-03 0.  1.
        -12    1    3    3    0    0  0.17558905775E+02  0.13852171916E+02  0.39283642070E+01  0.22707485201E+02  0.00000000000E+00 0.  1.
</event>
<event>
 7    1  0.2733256E-010  0.4778727E+02  0.7816164E-02  0.1312668E+00
        -11   -1    0    0    0    0  0.00000000000E+00  0.00000000000E+00  0.45593999997E+02  0.45594000000E+02  0.51100000000E-03 0.  1.
         11   -1    0    0    0    0 -0.00000000000E+00 -0.00000000000E+00 -0.45593999997E+02  0.45594000000E+02  0.51100000000E-03 0. -1.
    9900012    2    1    2    0    0  0.42152163040E+02  0.84161125359E+01  0.59989570122E+01  0.47787270923E+02  0.19999999449E+02 0.  0.
         12    1    1    2    0    0 -0.42152163040E+02 -0.84161125359E+01 -0.59989570122E+01  0.43400729077E+02  0.00000000000E+00 0. -1.
         11    1    3    3    0    0  0.15822394859E+02 -0.17702844485E+01 -0.36239912319E+01  0.16328361792E+02  0.51100000000E-03 0. -1.
        -11    1    3    3    0    0  0.21381525331E+02  0.50103421370E+01  0.39271066815E+01  0.22309086063E+02  0.51100000000E-03 0.  1.
         12    1    3    3    0    0  0.49482428499E+01  0.51760548474E+01  0.56958415627E+01  0.91498230688E+01  0.00000000000E+00 0. -1.
</event>
<event>
 7    1  0.2733256E-010  0.4778727E+02  0.7816164E-02  0.1312668E+00
        -11   -1    0    0    0    0  0.00000000000E+00  0.00000000000E+00  0.45593999997E+02  0.45594000000E+02  0.51100000000E-03 0.  1.
         11   -1    0    0    0    0 -0.00000000000E+00 -0.00000000000E+00 -0.45593999997E+02  0.45594000000E+02  0.51100000000E-03 0. -1.
    9900012    2    1    2    0    0  0.37665622504E+02 -0.49485229163E+01  0.20986575374E+02  0.47787270241E+02  0.19999996339E+02 0.  0.
         12    1    1    2    0    0 -0.37665622504E+02  0.49485229163E+01 -0.20986575374E+02  0.43400729759E+02  0.00000000000E+00 0. -1.
         11    1    3    3    0    0  0.12717855512E+01  0.11845469340E+00  0.55336437597E+01  0.56791446119E+01  0.51100000000E-03 0. -1.
        -11    1    3    3    0    0  0.17224491642E+02 -0.70409131957E+01  0.12960985982E+02  0.22676964719E+02  0.51100000000E-03 0.  1.
        -12    1    3    3    0    0  0.19169345310E+02  0.19739355860E+01  0.24919456330E+01  0.19431160911E+02  0.00000000000E+00 0.  1.
</event>
<event>
 7    1  0.2733256E-010  0.4778727E+02  0.7816164E-02  0.1312668E+00
        -11   -1    0    0    0    0  0.00000000000E+00  0.00000000000E+00  0.45593999997E+02  0.45594000000E+02  0.51100000000E-03 0.  1.
         11   -1    0    0    0    0 -0.00000000000E+00 -0.00000000000E+00 -0.45593999997E+02  0.45594000000E+02  0.51100000000E-03 0. -1.
    9900012    2    1    2    0    0 -0.56858634751E+01  0.42585590415E+02  0.61450711504E+01  0.47787268971E+02  0.19999990544E+02 0.  0.
         12    1    1    2    0    0  0.56858634751E+01 -0.42585590415E+02 -0.61450711504E+01  0.43400731029E+02  0.00000000000E+00 0. -1.
         11    1    3    3    0    0 -0.70432791172E+01  0.84187118127E+01  0.21512599510E+01  0.11185276436E+02  0.51100000000E-03 0. -1.
        -11    1    3    3    0    0 -0.53053213974E+01  0.10071876227E+02  0.11604325071E+01  0.11442715138E+02  0.51100000000E-03 0.  1.
         12    1    3    3    0    0  0.66627370395E+01  0.24095002375E+02  0.28333786923E+01  0.25159277397E+02  0.00000000000E+00 0. -1.
</event>
<event>
 7    1  0.2733256E-010  0.4778726E+02  0.7816164E-02  0.1312668E+00
        -11   -1    0    0    0    0  0.00000000000E+00  0.00000000000E+00  0.45593999997E+02  0.45594000000E+02  0.51100000000E-03 0.  1.
         11   -1    0    0    0    0 -0.00000000000E+00 -0.00000000000E+00 -0.45593999997E+02  0.45594000000E+02  0.51100000000E-03 0. -1.
    9900012    2    1    2    0    0  0.38298252863E+01  0.40762523263E+02  0.14400473167E+02  0.47787257012E+02  0.19999936019E+02 0.  0.
         12    1    1    2    0    0 -0.38298252863E+01 -0.40762523263E+02 -0.14400473167E+02  0.43400742988E+02  0.00000000000E+00 0. -1.
         11    1    3    3    0    0  0.69394695006E+01  0.92553790023E+01 -0.76540384317E+00  0.11593279119E+02  0.51100000000E-03 0. -1.
        -11    1    3    3    0    0 -0.60334095246E+00  0.18660883681E+02  0.42434972723E+01  0.19146797890E+02  0.51100000000E-03 0.  1.
        -12    1    3    3    0    0 -0.25063032618E+01  0.12846260580E+02  0.10922379737E+02  0.17047180003E+02  0.00000000000E+00 0.  1.
</event>
<event>
 7    1  0.2733256E-010  0.4778726E+02  0.7816164E-02  0.1312668E+00
        -11   -1    0    0    0    0  0.00000000000E+00  0.00000000000E+00  0.45593999997E+02  0.45594000000E+02  0.51100000000E-03 0.  1.
         11   -1    0    0    0    0 -0.00000000000E+00 -0.00000000000E+00 -0.45593999997E+02  0.45594000000E+02  0.51100000000E-03 0. -1.
    9900012    2    1    2    0    0 -0.17522977044E+02 -0.34829785943E+02  0.19064503951E+02  0.47787262400E+02  0.19999960584E+02 0.  0.
         12    1    1    2    0    0  0.17522977044E+02  0.34829785943E+02 -0.19064503951E+02  0.43400737600E+02  0.00000000000E+00 0. -1.
         11    1    3    3    0    0 -0.43839521701E+01 -0.12637586418E+01  0.30739590940E+01  0.55013950328E+01  0.51100000000E-03 0. -1.
        -11    1    3    3    0    0 -0.16334211348E+02 -0.25741354771E+02  0.14268692151E+02  0.33660353263E+02  0.51100000000E-03 0.  1.
        -12    1    3    3    0    0  0.31951864741E+01 -0.78246725306E+01  0.17218527067E+01  0.86255141041E+01  0.00000000000E+00 0.  1.
</event>
<event>
 7    1  0.2733256E-010  0.4778726E+02  0.7816164E-02  0.1312668E+00
        -11   -1    0    0    0    0  0.00000000000E+00  0.00000000000E+00  0.45593999997E+02  0.45594000000E+02  0.51100000000E-03 0.  1.
         11   -1    0    0    0    0 -0.00000000000E+00 -0.00000000000E+00 -0.45593999997E+02  0.45594000000E+02  0.51100000000E-03 0. -1.
    9900012    2    1    2    0    0  0.39763755480E+02 -0.76986390585E+01  0.15594848570E+02  0.47787255823E+02  0.19999930599E+02 0.  0.
         12    1    1    2    0    0 -0.39763755480E+02  0.76986390585E+01 -0.15594848570E+02  0.43400744177E+02  0.00000000000E+00 0. -1.
         11    1    3    3    0    0  0.15930216526E+02 -0.10181631429E+02  0.34809903485E+01  0.19223805845E+02  0.51100000000E-03 0. -1.
        -11    1    3    3    0    0  0.41509789670E+01 -0.30911296596E+01  0.96055217536E+00  0.52638740201E+01  0.51100000000E-03 0.  1.
        -12    1    3    3    0    0  0.19682559987E+02  0.55741220300E+01  0.11153306046E+02  0.23299575957E+02  0.00000000000E+00 0.  1.
</event>
<event>
 7    1  0.2733256E-010  0.4778727E+02  0.7816164E-02  0.1312668E+00
        -11   -1    0    0    0    0  0.00000000000E+00  0.00000000000E+00  0.45593999997E+02  0.45594000000E+02  0.51100000000E-03 0. -1.
         11   -1    0    0    0    0 -0.00000000000E+00 -0.00000000000E+00 -0.45593999997E+02  0.45594000000E+02  0.51100000000E-03 0.  1.
    9900012    2    1    2    0    0 -0.14562305612E+02 -0.40855417589E+02  0.15484516399E+01  0.47787267361E+02  0.19999983207E+02 0.  0.
         12    1    1    2    0    0  0.14562305612E+02  0.40855417589E+02 -0.15484516399E+01  0.43400732639E+02  0.00000000000E+00 0. -1.
         11    1    3    3    0    0  0.18040785711E+01 -0.12325888430E+02 -0.21428771601E+00  0.12459058735E+02  0.51100000000E-03 0. -1.
        -11    1    3    3    0    0 -0.75900035002E+01 -0.23832171609E+02  0.33946781796E+01  0.25240927022E+02  0.51100000000E-03 0.  1.
         12    1    3    3    0    0 -0.87763806829E+01 -0.46973575503E+01 -0.16319388236E+01  0.10087281605E+02  0.00000000000E+00 0. -1.
</event>
<event>
 7    1  0.2733256E-010  0.4778727E+02  0.7816164E-02  0.1312668E+00
        -11   -1    0    0    0    0  0.00000000000E+00  0.00000000000E+00  0.45593999997E+02  0.45594000000E+02  0.51100000000E-03 0.  1.
         11   -1    0    0    0    0 -0.00000000000E+00 -0.00000000000E+00 -0.45593999997E+02  0.45594000000E+02  0.51100000000E-03 0. -1.
    9900012    2    1    2    0    0 -0.38385979314E+02 -0.41251994844E+01  0.19827321152E+02  0.47787270251E+02  0.19999996381E+02 0.  0.
         12    1    1    2    0    0  0.38385979314E+02  0.41251994844E+01 -0.19827321152E+02  0.43400729749E+02  0.00000000000E+00 0. -1.
         11    1    3    3    0    0 -0.36582858868E+01 -0.27887690194E+01  0.52845603386E+01  0.70062020030E+01  0.51100000000E-03 0.  1.
        -11    1    3    3    0    0 -0.19744139943E+02 -0.42435555520E+01  0.15545319061E+02  0.25485206901E+02  0.51100000000E-03 0. -1.
         12    1    3    3    0    0 -0.14983553485E+02  0.29071250870E+01 -0.10025582480E+01  0.15295861347E+02  0.00000000000E+00 0. -1.
</event>
<event>
 7    1  0.2733256E-010  0.4778727E+02  0.7816164E-02  0.1312668E+00
        -11   -1    0    0    0    0  0.00000000000E+00  0.00000000000E+00  0.45593999997E+02  0.45594000000E+02  0.51100000000E-03 0. -1.
         11   -1    0    0    0    0 -0.00000000000E+00 -0.00000000000E+00 -0.45593999997E+02  0.45594000000E+02  0.51100000000E-03 0.  1.
    9900012    2    1    2    0    0 -0.25386056804E+02 -0.94832636566E+01 -0.33900430000E+02  0.47787270469E+02  0.19999997376E+02 0.  0.
         12    1    1    2    0    0  0.25386056804E+02  0.94832636566E+01  0.33900430000E+02  0.43400729531E+02  0.00000000000E+00 0. -1.
         11    1    3    3    0    0 -0.57035377605E+01 -0.98556261646E+01 -0.10630035729E+02  0.15577591917E+02  0.51100000000E-03 0. -1.
        -11    1    3    3    0    0 -0.55840100941E+01 -0.41083793762E+01 -0.43182501994E+01  0.81674497167E+01  0.51100000000E-03 0.  1.
        -12    1    3    3    0    0 -0.14098508950E+02  0.44807418842E+01 -0.18952144071E+02  0.24042228835E+02  0.00000000000E+00 0.  1.
</event>
<event>
 7    1  0.2733256E-010  0.4778727E+02  0.7816164E-02  0.1312668E+00
        -11   -1    0    0    0    0  0.00000000000E+00  0.00000000000E+00  0.45593999997E+02  0.45594000000E+02  0.51100000000E-03 0. -1.
         11   -1    0    0    0    0 -0.00000000000E+00 -0.00000000000E+00 -0.45593999997E+02  0.45594000000E+02  0.51100000000E-03 0.  1.
    9900012    2    1    2    0    0  0.35265949445E+02  0.15795274999E+01 -0.25247598554E+02  0.47787270397E+02  0.19999997046E+02 0.  0.
         12    1    1    2    0    0 -0.35265949445E+02 -0.15795274999E+01  0.25247598554E+02  0.43400729603E+02  0.00000000000E+00 0. -1.
         11    1    3    3    0    0 -0.14019971018E+01  0.77613282323E+00 -0.22589036663E+01  0.27695891514E+01  0.51100000000E-03 0. -1.
        -11    1    3    3    0    0  0.34538642436E+02  0.37674674589E+01 -0.22353185761E+02  0.41313152219E+02  0.51100000000E-03 0.  1.
         12    1    3    3    0    0  0.21293041106E+01 -0.29640727822E+01 -0.63550912711E+00  0.37045290260E+01  0.00000000000E+00 0. -1.
</event>
<event>
 7    1  0.2733256E-010  0.4778727E+02  0.7816164E-02  0.1312668E+00
        -11   -1    0    0    0    0  0.00000000000E+00  0.00000000000E+00  0.45593999997E+02  0.45594000000E+02  0.51100000000E-03 0. -1.
         11   -1    0    0    0    0 -0.00000000000E+00 -0.00000000000E+00 -0.45593999997E+02  0.45594000000E+02  0.51100000000E-03 0.  1.
    9900012    2    1    2    0    0 -0.27399404199E+02  0.24683681632E+02 -0.22882567523E+02  0.47787269755E+02  0.19999994121E+02 0.  0.
         12    1    1    2    0    0  0.27399404199E+02 -0.24683681632E+02  0.22882567523E+02  0.43400730245E+02  0.00000000000E+00 0. -1.
         11    1    3    3    0    0 -0.14656866730E+02  0.12201865097E+02 -0.25841928148E+01  0.19245448994E+02  0.51100000000E-03 0. -1.
        -11    1    3    3    0    0 -0.56447091081E+01  0.97286152180E+01 -0.70877928873E+01  0.13294566682E+02  0.51100000000E-03 0.  1.
        -12    1    3    3    0    0 -0.70978283601E+01  0.27532013167E+01 -0.13210581821E+02  0.15247254080E+02  0.00000000000E+00 0.  1.
</event>
<event>
 7    1  0.2733256E-010  0.4778727E+02  0.7816164E-02  0.1312668E+00
        -11   -1    0    0    0    0  0.00000000000E+00  0.00000000000E+00  0.45593999997E+02  0.45594000000E+02  0.51100000000E-03 0.  1.
         11   -1    0    0    0    0 -0.00000000000E+00 -0.00000000000E+00 -0.45593999997E+02  0.45594000000E+02  0.51100000000E-03 0. -1.
    9900012    2    1    2    0    0 -0.15356395893E+01 -0.28484574799E+02  0.32709238191E+02  0.47787268976E+02  0.19999990567E+02 0.  0.
         12    1    1    2    0    0  0.15356395893E+01  0.28484574799E+02 -0.32709238191E+02  0.43400731024E+02  0.00000000000E+00 0. -1.
         11    1    3    3    0    0  0.43087844237E+01 -0.23512865712E+01  0.17936532764E+01  0.52260275627E+01  0.51100000000E-03 0. -1.
        -11    1    3    3    0    0  0.22666605901E+01 -0.15936087309E+02  0.19033189720E+02  0.24927072434E+02  0.51100000000E-03 0.  1.
         12    1    3    3    0    0 -0.81110846030E+01 -0.10197200919E+02  0.11882395194E+02  0.17634168979E+02  0.00000000000E+00 0. -1.
</event>
<event>
 7    1  0.2733256E-010  0.4778727E+02  0.7816164E-02  0.1312668E+00
        -11   -1    0    0    0    0  0.00000000000E+00  0.00000000000E+00  0.45593999997E+02  0.45594000000E+02  0.51100000000E-03 0.  1.
         11   -1    0    0    0    0 -0.00000000000E+00 -0.00000000000E+00 -0.45593999997E+02  0.45594000000E+02  0.51100000000E-03 0. -1.
    9900012    2    1    2    0    0 -0.21478340946E+02 -0.99101819744E+01  0.36388082932E+02  0.47787269407E+02  0.19999992536E+02 0.  0.
         12    1    1    2    0    0  0.21478340946E+02  0.99101819744E+01 -0.36388082932E+02  0.43400730593E+02  0.00000000000E+00 0. -1.
         11    1    3    3    0    0 -0.11383909783E+02  0.14783625862E+01  0.15365330257E+02  0.19179998228E+02  0.51100000000E-03 0. -1.
        -11    1    3    3    0    0 -0.56851642080E+01  0.10676445142E+01  0.92507659041E+01  0.10910436607E+02  0.51100000000E-03 0.  1.
        -12    1    3    3    0    0 -0.44092669548E+01 -0.12456189075E+02  0.11771986771E+02  0.17696834572E+02  0.00000000000E+00 0.  1.
</event>
<event>
 7    1  0.2733256E-010  0.4778727E+02  0.7816164E-02  0.1312668E+00
        -11   -1    0    0    0    0  0.00000000000E+00  0.00000000000E+00  0.45593999997E+02  0.45594000000E+02  0.51100000000E-03 0.  1.
         11   -1    0    0    0    0 -0.00000000000E+00 -0.00000000000E+00 -0.45593999997E+02  0.45594000000E+02  0.51100000000E-03 0. -1.
    9900012    2    1    2    0    0 -0.16241382917E+02 -0.22172680501E+02  0.33588884638E+02  0.47787269006E+02  0.19999990705E+02 0.  0.
         12    1    1    2    0    0  0.16241382917E+02  0.22172680501E+02 -0.33588884638E+02  0.43400730994E+02  0.00000000000E+00 0. -1.
         11    1    3    3    0    0 -0.36796519025E+01 -0.63870983629E+01  0.33011892768E+01  0.80766771957E+01  0.51100000000E-03 0. -1.
        -11    1    3    3    0    0  0.30288733506E+01 -0.73428653102E+01  0.98762343351E+01  0.12674058136E+02  0.51100000000E-03 0.  1.
         12    1    3    3    0    0 -0.15590604365E+02 -0.84427168276E+01  0.20411461026E+02  0.27036533674E+02  0.00000000000E+00 0. -1.
</event>
<event>
 7    1  0.2733256E-010  0.4778728E+02  0.7816164E-02  0.1312668E+00
        -11   -1    0    0    0    0  0.00000000000E+00  0.00000000000E+00  0.45593999997E+02  0.45594000000E+02  0.51100000000E-03 0.  1.
         11   -1    0    0    0    0 -0.00000000000E+00 -0.00000000000E+00 -0.45593999997E+02  0.45594000000E+02  0.51100000000E-03 0. -1.
    9900012    2    1    2    0    0  0.18700260436E+02 -0.32255992572E+02  0.22214277655E+02  0.47787275018E+02  0.20000018119E+02 0.  0.
         12    1    1    2    0    0 -0.18700260436E+02  0.32255992572E+02 -0.22214277655E+02  0.43400724982E+02  0.00000000000E+00 0. -1.
         11    1    3    3    0    0  0.13382996382E+02 -0.10102391255E+02  0.61669138629E+01  0.17865993622E+02  0.51100000000E-03 0. -1.
        -11    1    3    3    0    0  0.86806619748E+01 -0.15373305447E+02  0.11898522150E+02  0.21290073797E+02  0.51100000000E-03 0.  1.
         12    1    3    3    0    0 -0.33633979205E+01 -0.67802958693E+01  0.41488416428E+01  0.86312075994E+01  0.00000000000E+00 0. -1.
</event>
<event>
 7    1  0.2733256E-010  0.4778727E+02  0.7816164E-02  0.1312668E+00
        -11   -1    0    0    0    0  0.00000000000E+00  0.00000000000E+00  0.45593999997E+02  0.45594000000E+02  0.51100000000E-03 0.  1.
         11   -1    0    0    0    0 -0.00000000000E+00 -0.00000000000E+00 -0.45593999997E+02  0.45594000000E+02  0.51100000000E-03 0. -1.
    9900012    2    1    2    0    0 -0.15344683628E+02 -0.22715491394E+02  0.33647747789E+02  0.47787265028E+02  0.19999972567E+02 0.  0.
         12    1    1    2    0    0  0.15344683628E+02  0.22715491394E+02 -0.33647747789E+02  0.43400734972E+02  0.00000000000E+00 0. -1.
         11    1    3    3    0    0 -0.10561902989E+02 -0.32761051218E+01  0.85939957847E+01  0.14005121325E+02  0.51100000000E-03 0. -1.
        -11    1    3    3    0    0 -0.22542763351E+01  0.22150415752E-02  0.41020722461E+00  0.22912959062E+01  0.51100000000E-03 0.  1.
        -12    1    3    3    0    0 -0.25285043036E+01 -0.19441601314E+02  0.24643544779E+02  0.31490847797E+02  0.00000000000E+00 0.  1.
</event>
<event>
 7    1  0.2733256E-010  0.4778727E+02  0.7816164E-02  0.1312668E+00
        -11   -1    0    0    0    0  0.00000000000E+00  0.00000000000E+00  0.45593999997E+02  0.45594000000E+02  0.51100000000E-03 0. -1.
         11   -1    0    0    0    0 -0.00000000000E+00 -0.00000000000E+00 -0.45593999997E+02  0.45594000000E+02  0.51100000000E-03 0.  1.
    9900012    2    1    2    0    0 -0.31845461985E+02  0.27690554058E+02 -0.10135228940E+02  0.47787273062E+02  0.20000009198E+02 0.  0.
         12    1    1    2    0    0  0.31845461985E+02 -0.27690554058E+02  0.10135228940E+02  0.43400726938E+02  0.00000000000E+00 0. -1.
         11    1    3    3    0    0 -0.38726531050E+01  0.65009195490E+01  0.30585237163E+01  0.81617378443E+01  0.51100000000E-03 0. -1.
        -11    1    3    3    0    0 -0.54773149740E+01  0.86403867583E+01 -0.88001319418E+01  0.13494427928E+02  0.51100000000E-03 0.  1.
        -12    1    3    3    0    0 -0.22495493906E+02  0.12549247751E+02 -0.43936207150E+01  0.26131107289E+02  0.00000000000E+00 0.  1.
</event>
<event>
 7    1  0.2733256E-010  0.4778727E+02  0.7816164E-02  0.1312668E+00
        -11   -1    0    0    0    0  0.00000000000E+00  0.00000000000E+00  0.45593999997E+02  0.45594000000E+02  0.51100000000E-03 0.  1.
         11   -1    0    0    0    0 -0.00000000000E+00 -0.00000000000E+00 -0.45593999997E+02  0.45594000000E+02  0.51100000000E-03 0. -1.
    9900012    2    1    2    0    0 -0.92631520039E+01 -0.29959791200E+02  0.30003808685E+02  0.47787267179E+02  0.19999982376E+02 0.  0.
         12    1    1    2    0    0  0.92631520039E+01  0.29959791200E+02 -0.30003808685E+02  0.43400732821E+02  0.00000000000E+00 0. -1.
         11    1    3    3    0    0 -0.37493897216E+01 -0.10331587056E+02  0.63191164463E+01  0.12677967002E+02  0.51100000000E-03 0. -1.
        -11    1    3    3    0    0 -0.37005454369E+01 -0.97186447235E+01  0.11967321265E+01  0.10467963500E+02  0.51100000000E-03 0.  1.
        -12    1    3    3    0    0 -0.18132168454E+01 -0.99095594210E+01  0.22487960112E+02  0.24641336677E+02  0.00000000000E+00 0.  1.
</event>
<event>
 7    1  0.2733256E-010  0.4778727E+02  0.7816164E-02  0.1312668E+00
        -11   -1    0    0    0    0  0.00000000000E+00  0.00000000000E+00  0.45593999997E+02  0.45594000000E+02  0.51100000000E-03 0. -1.
         11   -1    0    0    0    0 -0.00000000000E+00 -0.00000000000E+00 -0.45593999997E+02  0.45594000000E+02  0.51100000000E-03 0.  1.
    9900012    2    1    2    0    0 -0.24312249192E+00  0.43398698277E+02  0.34244170620E+00  0.47787269741E+02  0.19999994057E+02 0.  0.
         12    1    1    2    0    0  0.24312249192E+00 -0.43398698277E+02 -0.34244170620E+00  0.43400730259E+02  0.00000000000E+00 0. -1.
         11    1    3    3    0    0  0.31844334673E+01  0.10936060536E+02  0.79653299475E+01  0.13899083351E+02  0.51100000000E-03 0. -1.
        -11    1    3    3    0    0  0.10187902066E+01  0.73276495629E+01 -0.28061848363E+01  0.79124620188E+01  0.51100000000E-03 0.  1.
         12    1    3    3    0    0 -0.44463461658E+01  0.25134988178E+02 -0.48167034050E+01  0.25975724371E+02  0.00000000000E+00 0. -1.
</event>
<event>
 7    1  0.2733256E-010  0.4778733E+02  0.7816164E-02  0.1312667E+00
        -11   -1    0    0    0    0  0.00000000000E+00  0.00000000000E+00  0.45593999997E+02  0.45594000000E+02  0.51100000000E-03 0.  1.
         11   -1    0    0    0    0 -0.00000000000E+00 -0.00000000000E+00 -0.45593999997E+02  0.45594000000E+02  0.51100000000E-03 0. -1.
    9900012    2    1    2    0    0  0.40674511216E+02 -0.15056847101E+02 -0.15790261568E+01  0.47787333751E+02  0.20000285901E+02 0.  0.
         12    1    1    2    0    0 -0.40674511216E+02  0.15056847101E+02  0.15790261568E+01  0.43400666249E+02  0.00000000000E+00 0. -1.
         11    1    3    3    0    0  0.34718105830E+01 -0.93117847419E+00  0.31700323696E+01  0.47926681045E+01  0.51100000000E-03 0. -1.
        -11    1    3    3    0    0  0.17903937713E+02 -0.96259968825E+01  0.49653732408E+01  0.20925241535E+02  0.51100000000E-03 0.  1.
         12    1    3    3    0    0  0.19298762920E+02 -0.44996717443E+01 -0.97144317672E+01  0.22069424111E+02  0.00000000000E+00 0. -1.
</event>
<event>
 7    1  0.2733256E-010  0.4778727E+02  0.7816164E-02  0.1312668E+00
        -11   -1    0    0    0    0  0.00000000000E+00  0.00000000000E+00  0.45593999997E+02  0.45594000000E+02  0.51100000000E-03 0.  1.
         11   -1    0    0    0    0 -0.00000000000E+00 -0.00000000000E+00 -0.45593999997E+02  0.45594000000E+02  0.51100000000E-03 0. -1.
    9900012    2    1    2    0    0  0.49282521830E+01  0.71607759095E+01  0.42521276958E+02  0.47787269876E+02  0.19999994672E+02 0.  0.
         12    1    1    2    0    0 -0.49282521830E+01 -0.71607759095E+01 -0.42521276958E+02  0.43400730124E+02  0.00000000000E+00 0. -1.
         11    1    3    3    0    0  0.17180101605E+01  0.51231080932E+00 -0.46884824047E+00  0.18530623872E+01  0.51100000000E-03 0.  1.
        -11    1    3    3    0    0  0.19943330607E+00  0.96453823212E+00 -0.10425462908E+01  0.14342282505E+01  0.51100000000E-03 0. -1.
        -12    1    3    3    0    0  0.30108087164E+01  0.56839268680E+01  0.44032671489E+02  0.44499979238E+02  0.00000000000E+00 0.  1.
</event>
<event>
 7    1  0.2733256E-010  0.4778727E+02  0.7816164E-02  0.1312668E+00
        -11   -1    0    0    0    0  0.00000000000E+00  0.00000000000E+00  0.45593999997E+02  0.45594000000E+02  0.51100000000E-03 0.  1.
         11   -1    0    0    0    0 -0.00000000000E+00 -0.00000000000E+00 -0.45593999997E+02  0.45594000000E+02  0.51100000000E-03 0. -1.
    9900012    2    1    2    0    0 -0.12054581334E+02 -0.13268284143E+02  0.39525471054E+02  0.47787272388E+02  0.20000006126E+02 0.  0.
         12    1    1    2    0    0  0.12054581334E+02  0.13268284143E+02 -0.39525471054E+02  0.43400727612E+02  0.00000000000E+00 0. -1.
         11    1    3    3    0    0  0.16570839382E-01 -0.80891548369E+00  0.37240915780E+00  0.89067822158E+00  0.51100000000E-03 0. -1.
        -11    1    3    3    0    0 -0.16645262495E+02 -0.73775896401E+01  0.33042988922E+02  0.37727081912E+02  0.51100000000E-03 0.  1.
        -12    1    3    3    0    0  0.45741103218E+01 -0.50817790193E+01  0.61100729734E+01  0.91695122541E+01  0.00000000000E+00 0.  1.
</event>
<event>
 7    1  0.2733256E-010  0.4778727E+02  0.7816164E-02  0.1312668E+00
        -11   -1    0    0    0    0  0.00000000000E+00  0.00000000000E+00  0.45593999997E+02  0.45594000000E+02  0.51100000000E-03 0. -1.
         11   -1    0    0    0    0 -0.00000000000E+00 -0.00000000000E+00 -0.45593999997E+02  0.45594000000E+02  0.51100000000E-03 0.  1.
    9900012    2    1    2    0    0  0.32429688391E+01  0.18408976716E+02 -0.39169072683E+02  0.47787268146E+02  0.19999986783E+02 0.  0.
         12    1    1    2    0    0 -0.32429688391E+01 -0.18408976716E+02  0.39169072683E+02  0.43400731854E+02  0.00000000000E+00 0. -1.
         11    1    3    3    0    0 -0.26039037415E+01 -0.65300379984E-01 -0.85302650331E+01  0.89190807054E+01  0.51100000000E-03 0. -1.
        -11    1    3    3    0    0  0.21422541757E+01  0.34320257779E+01 -0.19172300545E+02  0.19594518681E+02  0.51100000000E-03 0.  1.
        -12    1    3    3    0    0  0.37046184048E+01  0.15042251318E+02 -0.11466507105E+02  0.19273668759E+02  0.00000000000E+00 0.  1.
</event>
<event>
 7    1  0.2733256E-010  0.4778728E+02  0.7816164E-02  0.1312668E+00
        -11   -1    0    0    0    0  0.00000000000E+00  0.00000000000E+00  0.45593999997E+02  0.45594000000E+02  0.51100000000E-03 0.  1.
         11   -1    0    0    0    0 -0.00000000000E+00 -0.00000000000E+00 -0.45593999997E+02  0.45594000000E+02  0.51100000000E-03 0. -1.
    9900012    2    1    2    0    0 -0.29804626734E+00 -0.52642921640E+01  0.43079243598E+02  0.47787276128E+02  0.20000023180E+02 0.  0.
         12    1    1    2    0    0  0.29804626734E+00  0.52642921640E+01 -0.43079243598E+02  0.43400723872E+02  0.00000000000E+00 0. -1.
         11    1    3    3    0    0  0.38620507297E+01 -0.18842350649E+01  0.71204216854E+01  0.83166208798E+01  0.51100000000E-03 0.  1.
        -11    1    3    3    0    0  0.41290749702E+01  0.34687033382E+01  0.14460486174E+02  0.15433302421E+02  0.51100000000E-03 0. -1.
         12    1    3    3    0    0 -0.82891719673E+01 -0.68487604373E+01  0.21498335739E+02  0.24037352828E+02  0.00000000000E+00 0. -1.
</event>
<event>
 7    1  0.2733256E-010  0.4778726E+02  0.7816164E-02  0.1312668E+00
        -11   -1    0    0    0    0  0.00000000000E+00  0.00000000000E+00  0.45593999997E+02  0.45594000000E+02  0.51100000000E-03 0.  1.
         11   -1    0    0    0    0 -0.00000000000E+00 -0.00000000000E+00 -0.45593999997E+02  0.45594000000E+02  0.51100000000E-03 0. -1.
    9900012    2    1    2    0    0  0.65862652546E+01  0.10494762714E+02  0.41594532617E+02  0.47787261780E+02  0.19999957758E+02 0.  0.
         12    1    1    2    0    0 -0.65862652546E+01 -0.10494762714E+02 -0.41594532617E+02  0.43400738220E+02  0.00000000000E+00 0. -1.
         11    1    3    3    0    0 -0.40593414478E+01  0.88757884678E+00  0.47519043706E+01  0.63124198694E+01  0.51100000000E-03 0. -1.
        -11    1    3    3    0    0  0.19610580542E+01 -0.30923525651E+01  0.71297500876E+01  0.80150938642E+01  0.51100000000E-03 0.  1.
        -12    1    3    3    0    0  0.86845486481E+01  0.12699536433E+02  0.29712878159E+02  0.33459748046E+02  0.00000000000E+00 0.  1.
</event>
<event>
 7    1  0.2733256E-010  0.4778727E+02  0.7816164E-02  0.1312668E+00
        -11   -1    0    0    0    0  0.00000000000E+00  0.00000000000E+00  0.45593999997E+02  0.45594000000E+02  0.51100000000E-03 0. -1.
         11   -1    0    0    0    0 -0.00000000000E+00 -0.00000000000E+00 -0.45593999997E+02  0.45594000000E+02  0.51100000000E-03 0.  1.
    9900012    2    1    2    0    0 -0.33606603104E+02  0.24990747439E+02  0.11387788044E+02  0.47787274819E+02  0.20000017208E+02 0.  0.
         12    1    1    2    0    0  0.33606603104E+02 -0.24990747439E+02 -0.11387788044E+02  0.43400725181E+02  0.00000000000E+00 0. -1.
         11    1    3    3    0    0 -0.46985562055E+01  0.69636204103E+01  0.18873261915E+01  0.86099036028E+01  0.51100000000E-03 0. -1.
        -11    1    3    3    0    0 -0.10903887075E+02  0.14949144339E+02  0.97403409676E+01  0.20910425922E+02  0.51100000000E-03 0.  1.
         12    1    3    3    0    0 -0.18004159824E+02  0.30779826899E+01 -0.23987911508E+00  0.18266945294E+02  0.00000000000E+00 0. -1.
</event>
<event>
 7    1  0.2733256E-010  0.4778727E+02  0.7816164E-02  0.1312668E+00
        -11   -1    0    0    0    0  0.00000000000E+00  0.00000000000E+00  0.45593999997E+02  0.45594000000E+02  0.51100000000E-03 0.  1.
         11   -1    0    0    0    0 -0.00000000000E+00 -0.00000000000E+00 -0.45593999997E+02  0.45594000000E+02  0.51100000000E-03 0. -1.
    9900012    2    1    2    0    0 -0.93351907694E+01 -0.18623642139E+01  0.42343940527E+02  0.47787268594E+02  0.19999988828E+02 0.  0.
         12    1    1    2    0    0  0.93351907694E+01  0.18623642139E+01 -0.42343940527E+02  0.43400731406E+02  0.00000000000E+00 0. -1.
         11    1    3    3    0    0 -0.29314749497E+01  0.86054997202E+00  0.11930824678E+01  0.32798685448E+01  0.51100000000E-03 0. -1.
        -11    1    3    3    0    0 -0.87268498432E+01  0.21519658053E+01  0.35777870949E+02  0.36889631537E+02  0.51100000000E-03 0.  1.
        -12    1    3    3    0    0  0.23231340235E+01 -0.48748799912E+01  0.53729871108E+01  0.76177685127E+01  0.00000000000E+00 0.  1.
</event>
<event>
 7    1  0.2733256E-010  0.4778727E+02  0.7816164E-02  0.1312668E+00
        -11   -1    0    0    0    0  0.00000000000E+00  0.00000000000E+00  0.45593999997E+02  0.45594000000E+02  0.51100000000E-03 0.  1.
         11   -1    0    0    0    0 -0.00000000000E+00 -0.00000000000E+00 -0.45593999997E+02  0.45594000000E+02  0.51100000000E-03 0. -1.
    9900012    2    1    2    0    0  0.15278516036E+02 -0.36968290786E+01  0.40453965934E+02  0.47787274691E+02  0.20000016628E+02 0.  0.
         12    1    1    2    0    0 -0.15278516036E+02  0.36968290786E+01 -0.40453965934E+02  0.43400725309E+02  0.00000000000E+00 0. -1.
         11    1    3    3    0    0  0.42363418445E+01  0.54475720351E+01  0.84311117674E+01  0.10895241126E+02  0.51100000000E-03 0. -1.
        -11    1    3    3    0    0  0.91868016167E+01 -0.20610920577E+00  0.16174596532E+02  0.18602617509E+02  0.51100000000E-03 0.  1.
        -12    1    3    3    0    0  0.18553725747E+01 -0.89382919079E+01  0.15848257635E+02  0.18289416056E+02  0.00000000000E+00 0.  1.
</event>
<event>
 7    1  0.2733256E-010  0.4778727E+02  0.7816164E-02  0.1312668E+00
        -11   -1    0    0    0    0  0.00000000000E+00  0.00000000000E+00  0.45593999997E+02  0.45594000000E+02  0.51100000000E-03 0.  1.
         11   -1    0    0    0    0 -0.00000000000E+00 -0.00000000000E+00 -0.45593999997E+02  0.45594000000E+02  0.51100000000E-03 0. -1.
    9900012    2    1    2    0    0 -0.12503542394E+02  0.38117687752E+02  0.16562813741E+02  0.47787268543E+02  0.19999988596E+02 0.  0.
         12    1    1    2    0    0  0.12503542394E+02 -0.38117687752E+02 -0.16562813741E+02  0.43400731457E+02  0.00000000000E+00 0. -1.
         11    1    3    3    0    0  0.14129822342E+01  0.89200414467E+01  0.80160278926E+00  0.90667648860E+01  0.51100000000E-03 0. -1.
        -11    1    3    3    0    0  0.20720340986E+01  0.10742441313E+02  0.44682856917E+01  0.11817738699E+02  0.51100000000E-03 0.  1.
         12    1    3    3    0    0 -0.15988558727E+02  0.18455204992E+02  0.11292925260E+02  0.26902764958E+02  0.00000000000E+00 0. -1.
</event>
<event>
 7    1  0.2733256E-010  0.4778728E+02  0.7816164E-02  0.1312668E+00
        -11   -1    0    0    0    0  0.00000000000E+00  0.00000000000E+00  0.45593999997E+02  0.45594000000E+02  0.51100000000E-03 0.  1.
         11   -1    0    0    0    0 -0.00000000000E+00 -0.00000000000E+00 -0.45593999997E+02  0.45594000000E+02  0.51100000000E-03 0. -1.
    9900012    2    1    2    0    0 -0.14141737543E+02 -0.39160184928E+02  0.12252097771E+02  0.47787277378E+02  0.20000028876E+02 0.  0.
         12    1    1    2    0    0  0.14141737543E+02  0.39160184928E+02 -0.12252097771E+02  0.43400722622E+02  0.00000000000E+00 0. -1.
         11    1    3    3    0    0 -0.79517003607E+01 -0.52056086253E+01  0.48149861940E+01  0.10654200678E+02  0.51100000000E-03 0. -1.
        -11    1    3    3    0    0 -0.41552029860E+01 -0.16553580155E+02  0.94325312868E+01  0.19500240371E+02  0.51100000000E-03 0.  1.
        -12    1    3    3    0    0 -0.20348341962E+01 -0.17400996148E+02 -0.19954197100E+01  0.17632836328E+02  0.00000000000E+00 0.  1.
</event>
<event>
 7    1  0.2733256E-010  0.4778728E+02  0.7816164E-02  0.1312668E+00
        -11   -1    0    0    0    0  0.00000000000E+00  0.00000000000E+00  0.45593999997E+02  0.45594000000E+02  0.51100000000E-03 0.  1.
         11   -1    0    0    0    0 -0.00000000000E+00 -0.00000000000E+00 -0.45593999997E+02  0.45594000000E+02  0.51100000000E-03 0. -1.
    9900012    2    1    2    0    0 -0.14527923576E+01  0.16168177759E+02  0.40250493884E+02  0.47787276094E+02  0.20000023022E+02 0.  0.
         12    1    1    2    0    0  0.14527923576E+01 -0.16168177759E+02 -0.40250493884E+02  0.43400723906E+02  0.00000000000E+00 0. -1.
         11    1    3    3    0    0  0.22158645979E+01 -0.29312690877E+01  0.66653224086E+01  0.76111048772E+01  0.51100000000E-03 0. -1.
        -11    1    3    3    0    0  0.15198801312E+01  0.49248814528E+00  0.77775990165E+01  0.79400016945E+01  0.51100000000E-03 0.  1.
        -12    1    3    3    0    0 -0.51885370866E+01  0.18606958702E+02  0.25807572459E+02  0.32236169522E+02  0.00000000000E+00 0.  1.
</event>
<event>
 7    1  0.2733256E-010  0.4778726E+02  0.7816164E-02  0.1312668E+00
        -11   -1    0    0    0    0  0.00000000000E+00  0.00000000000E+00  0.45593999997E+02  0.45594000000E+02  0.51100000000E-03 0.  1.
         11   -1    0    0    0    0 -0.00000000000E+00 -0.00000000000E+00 -0.45593999997E+02  0.45594000000E+02  0.51100000000E-03 0. -1.
    9900012    2    1    2    0    0  0.27766698714E+02 -0.19046541060E+02  0.27383644301E+02  0.47787259694E+02  0.19999948251E+02 0.  0.
         12    1    1    2    0    0 -0.27766698714E+02  0.19046541060E+02 -0.27383644301E+02  0.43400740306E+02  0.00000000000E+00 0. -1.
         11    1    3    3    0    0  0.97459007021E+01 -0.22489652131E+01  0.41554348851E+01  0.10830884746E+02  0.51100000000E-03 0. -1.
        -11    1    3    3    0    0  0.17104416924E+02 -0.63333336809E+01  0.14846163319E+02  0.23517669089E+02  0.51100000000E-03 0.  1.
        -12    1    3    3    0    0  0.91638108806E+00 -0.10464242166E+02  0.83820460973E+01  0.13438705860E+02  0.00000000000E+00 0.  1.
</event>
<event>
 7    1  0.2733256E-010  0.4778727E+02  0.7816164E-02  0.1312668E+00
        -11   -1    0    0    0    0  0.00000000000E+00  0.00000000000E+00  0.45593999997E+02  0.45594000000E+02  0.51100000000E-03 0.  1.
         11   -1    0    0    0    0 -0.00000000000E+00 -0.00000000000E+00 -0.45593999997E+02  0.45594000000E+02  0.51100000000E-03 0. -1.
    9900012    2    1    2    0    0 -0.12484639925E+02 -0.18180505908E+02  0.37379496369E+02  0.47787265238E+02  0.19999973525E+02 0.  0.
         12    1    1    2    0    0  0.12484639925E+02  0.18180505908E+02 -0.37379496369E+02  0.43400734762E+02  0.00000000000E+00 0. -1.
         11    1    3    3    0    0 -0.12056236087E+00 -0.14349744088E+01 -0.16287569741E+01  0.21740598838E+01  0.51100000000E-03 0. -1.
        -11    1    3    3    0    0 -0.41987255073E+01 -0.13165025373E+02  0.17272031906E+02  0.22119454681E+02  0.51100000000E-03 0.  1.
        -12    1    3    3    0    0 -0.81653520568E+01 -0.35805061257E+01  0.21736221437E+02  0.23493750673E+02  0.00000000000E+00 0.  1.
</event>
<event>
 7    1  0.2733256E-010  0.4778727E+02  0.7816164E-02  0.1312668E+00
        -11   -1    0    0    0    0  0.00000000000E+00  0.00000000000E+00  0.45593999997E+02  0.45594000000E+02  0.51100000000E-03 0.  1.
         11   -1    0    0    0    0 -0.00000000000E+00 -0.00000000000E+00 -0.45593999997E+02  0.45594000000E+02  0.51100000000E-03 0. -1.
    9900012    2    1    2    0    0  0.78188121335E+01 -0.61656316442E+01  0.42243042682E+02  0.47787268534E+02  0.19999988554E+02 0.  0.
         12    1    1    2    0    0 -0.78188121335E+01  0.61656316442E+01 -0.42243042682E+02  0.43400731466E+02  0.00000000000E+00 0. -1.
         11    1    3    3    0    0  0.11766563118E+02 -0.44607261300E+00  0.16683770544E+02  0.20420557980E+02  0.51100000000E-03 0. -1.
        -11    1    3    3    0    0 -0.43098777757E+01 -0.48604079256E+00  0.88927746338E+01  0.98940751484E+01  0.51100000000E-03 0.  1.
        -12    1    3    3    0    0  0.36212679124E+00 -0.52335182386E+01  0.16666497504E+02  0.17472635406E+02  0.00000000000E+00 0.  1.
</event>
<event>
 7    1  0.2733256E-010  0.4778728E+02  0.7816164E-02  0.1312668E+00
        -11   -1    0    0    0    0  0.00000000000E+00  0.00000000000E+00  0.45593999997E+02  0.45594000000E+02  0.51100000000E-03 0. -1.
         11   -1    0    0    0    0 -0.00000000000E+00 -0.00000000000E+00 -0.45593999997E+02  0.45594000000E+02  0.51100000000E-03 0.  1.
    9900012    2    1    2    0    0  0.13199777756E+02 -0.15075297469E+02 -0.38498366147E+02  0.47787275092E+02  0.20000018454E+02 0.  0.
         12    1    1    2    0    0 -0.13199777756E+02  0.15075297469E+02  0.38498366147E+02  0.43400724908E+02  0.00000000000E+00 0. -1.
         11    1    3    3    0    0  0.91000862680E+01 -0.53229221512E+01 -0.13875834034E+02  0.17426526926E+02  0.51100000000E-03 0.  1.
        -11    1    3    3    0    0  0.11274441581E+01 -0.87097751223E+01 -0.25598538935E+02  0.27063194727E+02  0.51100000000E-03 0. -1.
         12    1    3    3    0    0  0.29722473304E+01 -0.10426001952E+01  0.97600682190E+00  0.32975534380E+01  0.00000000000E+00 0. -1.
</event>
<event>
 7    1  0.2733256E-010  0.4778727E+02  0.7816164E-02  0.1312668E+00
        -11   -1    0    0    0    0  0.00000000000E+00  0.00000000000E+00  0.45593999997E+02  0.45594000000E+02  0.51100000000E-03 0. -1.
         11   -1    0    0    0    0 -0.00000000000E+00 -0.00000000000E+00 -0.45593999997E+02  0.45594000000E+02  0.51100000000E-03 0.  1.
    9900012    2    1    2    0    0 -0.14432339407E+02 -0.32847707775E+02 -0.24420461471E+02  0.47787271144E+02  0.20000000454E+02 0.  0.
         12    1    1    2    0    0  0.14432339407E+02  0.32847707775E+02  0.24420461471E+02  0.43400728856E+02  0.00000000000E+00 0. -1.
         11    1    3    3    0    0 -0.63903566070E+01 -0.94262295134E+01 -0.44922550659E+01  0.12242173673E+02  0.51100000000E-03 0. -1.
        -11    1    3    3    0    0 -0.71685478116E+01 -0.13187148325E+02 -0.23593178123E+01  0.15193924426E+02  0.51100000000E-03 0.  1.
         12    1    3    3    0    0 -0.87343498804E+00 -0.10234329937E+02 -0.17568888592E+02  0.20351173045E+02  0.00000000000E+00 0. -1.
</event>
<event>
 7    1  0.2733256E-010  0.4778727E+02  0.7816164E-02  0.1312668E+00
        -11   -1    0    0    0    0  0.00000000000E+00  0.00000000000E+00  0.45593999997E+02  0.45594000000E+02  0.51100000000E-03 0.  1.
         11   -1    0    0    0    0 -0.00000000000E+00 -0.00000000000E+00 -0.45593999997E+02  0.45594000000E+02  0.51100000000E-03 0. -1.
    9900012    2    1    2    0    0  0.85762955740E+01 -0.31066230729E+02  0.29068187126E+02  0.47787273736E+02  0.20000012270E+02 0.  0.
         12    1    1    2    0    0 -0.85762955740E+01  0.31066230729E+02 -0.29068187126E+02  0.43400726264E+02  0.00000000000E+00 0. -1.
         11    1    3    3    0    0 -0.94337905089E+00 -0.32430730147E+01 -0.13050250418E+01  0.36208531085E+01  0.51100000000E-03 0. -1.
        -11    1    3    3    0    0 -0.14604488588E+01 -0.97791017386E-01 -0.17749886091E+00  0.14744422874E+01  0.51100000000E-03 0.  1.
        -12    1    3    3    0    0  0.10980123484E+02 -0.27725366697E+02  0.30550711029E+02  0.42691978340E+02  0.00000000000E+00 0.  1.
</event>
<event>
 7    1  0.2733256E-010  0.4778727E+02  0.7816164E-02  0.1312668E+00
        -11   -1    0    0    0    0  0.00000000000E+00  0.00000000000E+00  0.45593999997E+02  0.45594000000E+02  0.51100000000E-03 0.  1.
         11   -1    0    0    0    0 -0.00000000000E+00 -0.00000000000E+00 -0.45593999997E+02  0.45594000000E+02  0.51100000000E-03 0. -1.
    9900012    2    1    2    0    0 -0.62987087428E+01 -0.40857898525E+02  0.13212937827E+02  0.47787270401E+02  0.19999997064E+02 0.  0.
         12    1    1    2    0    0  0.62987087428E+01  0.40857898525E+02 -0.13212937827E+02  0.43400729599E+02  0.00000000000E+00 0. -1.
         11    1    3    3    0    0  0.82760180319E+00 -0.17767281257E+01 -0.20491218440E+01  0.28355930896E+01  0.51100000000E-03 0. -1.
        -11    1    3    3    0    0  0.10174033829E+01 -0.10586203078E+02 -0.17532511388E+01  0.10778529356E+02  0.51100000000E-03 0.  1.
        -12    1    3    3    0    0 -0.81437139289E+01 -0.28494967322E+02  0.17015310810E+02  0.34173147955E+02  0.00000000000E+00 0.  1.
</event>
<event>
 7    1  0.2733256E-010  0.4778727E+02  0.7816164E-02  0.1312668E+00
        -11   -1    0    0    0    0  0.00000000000E+00  0.00000000000E+00  0.45593999997E+02  0.45594000000E+02  0.51100000000E-03 0.  1.
         11   -1    0    0    0    0 -0.00000000000E+00 -0.00000000000E+00 -0.45593999997E+02  0.45594000000E+02  0.51100000000E-03 0. -1.
    9900012    2    1    2    0    0 -0.29665843710E+01 -0.42433163126E+02 -0.86167997196E+01  0.47787271975E+02  0.20000004243E+02 0.  0.
         12    1    1    2    0    0  0.29665843710E+01  0.42433163126E+02  0.86167997196E+01  0.43400728025E+02  0.00000000000E+00 0. -1.
         11    1    3    3    0    0  0.27104811976E+01 -0.10099914752E+01 -0.40053537145E+00  0.29201403986E+01  0.51100000000E-03 0. -1.
        -11    1    3    3    0    0 -0.34299262499E+01 -0.52468489992E+01 -0.58008258680E+01  0.85406908100E+01  0.51100000000E-03 0.  1.
        -12    1    3    3    0    0 -0.22471393187E+01 -0.36176322651E+02 -0.24154384801E+01  0.36326440766E+02  0.00000000000E+00 0.  1.
</event>
<event>
 7    1  0.2733256E-010  0.4778727E+02  0.7816164E-02  0.1312668E+00
        -11   -1    0    0    0    0  0.00000000000E+00  0.00000000000E+00  0.45593999997E+02  0.45594000000E+02  0.51100000000E-03 0. -1.
         11   -1    0    0    0    0 -0.00000000000E+00 -0.00000000000E+00 -0.45593999997E+02  0.45594000000E+02  0.51100000000E-03 0.  1.
    9900012    2    1    2    0    0  0.34433024584E+02  0.11025424452E+02 -0.24008958176E+02  0.47787271445E+02  0.20000001828E+02 0.  0.
         12    1    1    2    0    0 -0.34433024584E+02 -0.11025424452E+02  0.24008958176E+02  0.43400728555E+02  0.00000000000E+00 0. -1.
         11    1    3    3    0    0  0.13757554754E+02  0.39454957522E+00 -0.42906690157E+01  0.14416512166E+02  0.51100000000E-03 0. -1.
        -11    1    3    3    0    0  0.78744062847E+01 -0.23129448829E+01 -0.92694315662E+01  0.12380563404E+02  0.51100000000E-03 0.  1.
         12    1    3    3    0    0  0.12801063546E+02  0.12943819759E+02 -0.10448857595E+02  0.20990195876E+02  0.00000000000E+00 0. -1.
</event>
<event>
 7    1  0.2733256E-010  0.4778727E+02  0.7816164E-02  0.1312668E+00
        -11   -1    0    0    0    0  0.00000000000E+00  0.00000000000E+00  0.45593999997E+02  0.45594000000E+02  0.51100000000E-03 0.  1.
         11   -1    0    0    0    0 -0.00000000000E+00 -0.00000000000E+00 -0.45593999997E+02  0.45594000000E+02  0.51100000000E-03 0. -1.
    9900012    2    1    2    0    0 -0.33721795481E+02  0.14443857275E+02  0.23191351182E+02  0.47787271053E+02  0.20000000040E+02 0.  0.
         12    1    1    2    0    0  0.33721795481E+02 -0.14443857275E+02 -0.23191351182E+02  0.43400728947E+02  0.00000000000E+00 0. -1.
         11    1    3    3    0    0 -0.17085367818E+02  0.13099605365E+02  0.16811962121E+02  0.27315774286E+02  0.51100000000E-03 0. -1.
        -11    1    3    3    0    0 -0.75841948692E+01  0.56182972923E+01  0.29126071361E+01  0.98776797311E+01  0.51100000000E-03 0.  1.
        -12    1    3    3    0    0 -0.90522327940E+01 -0.42740453827E+01  0.34667819251E+01  0.10593817037E+02  0.00000000000E+00 0.  1.
</event>
<event>
 7    1  0.2733256E-010  0.4778728E+02  0.7816164E-02  0.1312668E+00
        -11   -1    0    0    0    0  0.00000000000E+00  0.00000000000E+00  0.45593999997E+02  0.45594000000E+02  0.51100000000E-03 0. -1.
         11   -1    0    0    0    0 -0.00000000000E+00 -0.00000000000E+00 -0.45593999997E+02  0.45594000000E+02  0.51100000000E-03 0.  1.
    9900012    2    1    2    0    0  0.20702057201E+02 -0.35299050722E+02  0.14457689075E+02  0.47787275033E+02  0.20000018185E+02 0.  0.
         12    1    1    2    0    0 -0.20702057201E+02  0.35299050722E+02 -0.14457689075E+02  0.43400724967E+02  0.00000000000E+00 0. -1.
         11    1    3    3    0    0  0.11295183526E+02 -0.20357891959E+02  0.70018697779E+01  0.24311542866E+02  0.51100000000E-03 0. -1.
        -11    1    3    3    0    0  0.11995564584E+02 -0.90746831847E+01  0.22342721709E+01  0.15206426832E+02  0.51100000000E-03 0.  1.
        -12    1    3    3    0    0 -0.25886909080E+01 -0.58664755790E+01  0.52215471265E+01  0.82693053354E+01  0.00000000000E+00 0.  1.
</event>
<event>
 7    1  0.2733256E-010  0.4778727E+02  0.7816164E-02  0.1312668E+00
        -11   -1    0    0    0    0  0.00000000000E+00  0.00000000000E+00  0.45593999997E+02  0.45594000000E+02  0.51100000000E-03 0. -1.
         11   -1    0    0    0    0 -0.00000000000E+00 -0.00000000000E+00 -0.45593999997E+02  0.45594000000E+02  0.51100000000E-03 0.  1.
    9900012    2    1    2    0    0  0.19163517542E+02  0.62840079950E+01 -0.38430381540E+02  0.47787269748E+02  0.19999994090E+02 0.  0.
         12    1    1    2    0    0 -0.19163517542E+02 -0.62840079950E+01  0.38430381540E+02  0.43400730252E+02  0.00000000000E+00 0. -1.
         11    1    3    3    0    0  0.53715499950E+01 -0.36172807321E-01 -0.68524617119E+01  0.87069563910E+01  0.51100000000E-03 0. -1.
        -11    1    3    3    0    0  0.11284389077E+02  0.11126656221E+02 -0.29065786585E+02  0.33105284557E+02  0.51100000000E-03 0.  1.
         12    1    3    3    0    0  0.25075784699E+01 -0.48064754189E+01 -0.25121332434E+01  0.59750288006E+01  0.00000000000E+00 0. -1.
</event>
<event>
 7    1  0.2733256E-010  0.4778726E+02  0.7816164E-02  0.1312668E+00
        -11   -1    0    0    0    0  0.00000000000E+00  0.00000000000E+00  0.45593999997E+02  0.45594000000E+02  0.51100000000E-03 0.  1.
         11   -1    0    0    0    0 -0.00000000000E+00 -0.00000000000E+00 -0.45593999997E+02  0.45594000000E+02  0.51100000000E-03 0. -1.
    9900012    2    1    2    0    0  0.20462038603E+02 -0.23818441462E+02  0.29960157392E+02  0.47787260278E+02  0.19999950913E+02 0.  0.
         12    1    1    2    0    0 -0.20462038603E+02  0.23818441462E+02 -0.29960157392E+02  0.43400739722E+02  0.00000000000E+00 0. -1.
         11    1    3    3    0    0  0.23406424202E+01 -0.35698751595E+01  0.42175816794E+01  0.60008841913E+01  0.51100000000E-03 0. -1.
        -11    1    3    3    0    0  0.19283462026E+02 -0.21671342881E+02  0.18712817371E+02  0.34520552489E+02  0.51100000000E-03 0.  1.
         12    1    3    3    0    0 -0.11620658428E+01  0.14227765784E+01  0.70297583415E+01  0.72658235978E+01  0.00000000000E+00 0. -1.
</event>
<event>
 7    1  0.2733256E-010  0.4778727E+02  0.7816164E-02  0.1312668E+00
        -11   -1    0    0    0    0  0.00000000000E+00  0.00000000000E+00  0.45593999997E+02  0.45594000000E+02  0.51100000000E-03 0. -1.
         11   -1    0    0    0    0 -0.00000000000E+00 -0.00000000000E+00 -0.45593999997E+02  0.45594000000E+02  0.51100000000E-03 0.  1.
    9900012    2    1    2    0    0 -0.42450154294E+02 -0.51880442283E+01  0.73954025487E+01  0.47787269806E+02  0.19999994355E+02 0.  0.
         12    1    1    2    0    0  0.42450154294E+02  0.51880442283E+01 -0.73954025487E+01  0.43400730194E+02  0.00000000000E+00 0. -1.
         11    1    3    3    0    0 -0.90749309172E+01 -0.11146987127E+01 -0.13701630434E+01  0.92452296563E+01  0.51100000000E-03 0. -1.
        -11    1    3    3    0    0 -0.34329966782E+02 -0.64813392538E+01  0.79960977926E+01  0.35839809681E+02  0.51100000000E-03 0.  1.
         12    1    3    3    0    0  0.95474340557E+00  0.24079937382E+01  0.76946779941E+00  0.27022304691E+01  0.00000000000E+00 0. -1.
</event>
<event>
 7    1  0.2733256E-010  0.4778727E+02  0.7816164E-02  0.1312668E+00
        -11   -1    0    0    0    0  0.00000000000E+00  0.00000000000E+00  0.45593999997E+02  0.45594000000E+02  0.51100000000E-03 0.  1.
         11   -1    0    0    0    0 -0.00000000000E+00 -0.00000000000E+00 -0.45593999997E+02  0.45594000000E+02  0.51100000000E-03 0. -1.
    9900012    2    1    2    0    0  0.18361302145E+02  0.18180428979E+02  0.34870588933E+02  0.47787269743E+02  0.19999994067E+02 0.  0.
         12    1    1    2    0    0 -0.18361302145E+02 -0.18180428979E+02 -0.34870588933E+02  0.43400730257E+02  0.00000000000E+00 0. -1.
         11    1    3    3    0    0  0.12005146106E+02  0.38316014285E+01  0.62860697188E+01  0.14082591214E+02  0.51100000000E-03 0. -1.
        -11    1    3    3    0    0  0.12979380759E+01 -0.10117949825E+01  0.33564935293E+01  0.37382377411E+01  0.51100000000E-03 0.  1.
        -12    1    3    3    0    0  0.50582179630E+01  0.15360622533E+02  0.25228025684E+02  0.29966440788E+02  0.00000000000E+00 0.  1.
</event>
<event>
 7    1  0.2733256E-010  0.4778727E+02  0.7816164E-02  0.1312668E+00
        -11   -1    0    0    0    0  0.00000000000E+00  0.00000000000E+00  0.45593999997E+02  0.45594000000E+02  0.51100000000E-03 0.  1.
         11   -1    0    0    0    0 -0.00000000000E+00 -0.00000000000E+00 -0.45593999997E+02  0.45594000000E+02  0.51100000000E-03 0. -1.
    9900012    2    1    2    0    0  0.17285707919E+01 -0.40650447265E+02  0.15105512919E+02  0.47787270278E+02  0.19999996507E+02 0.  0.
         12    1    1    2    0    0 -0.17285707919E+01  0.40650447265E+02 -0.15105512919E+02  0.43400729722E+02  0.00000000000E+00 0. -1.
         11    1    3    3    0    0 -0.51662210874E+01 -0.12111361766E+02  0.88266938506E+01  0.15851985640E+02  0.51100000000E-03 0. -1.
        -11    1    3    3    0    0 -0.12953652848E+00 -0.18844154651E+02  0.65771286601E+01  0.19959397935E+02  0.51100000000E-03 0.  1.
        -12    1    3    3    0    0  0.70243284078E+01 -0.96949308476E+01 -0.29830959192E+00  0.11975886703E+02  0.00000000000E+00 0.  1.
</event>
<event>
 7    1  0.2733256E-010  0.4778727E+02  0.7816164E-02  0.1312668E+00
        -11   -1    0    0    0    0  0.00000000000E+00  0.00000000000E+00  0.45593999997E+02  0.45594000000E+02  0.51100000000E-03 0.  1.
         11   -1    0    0    0    0 -0.00000000000E+00 -0.00000000000E+00 -0.45593999997E+02  0.45594000000E+02  0.51100000000E-03 0. -1.
    9900012    2    1    2    0    0  0.24084186708E+02 -0.35725682003E+02  0.52202176014E+01  0.47787273327E+02  0.20000010405E+02 0.  0.
         12    1    1    2    0    0 -0.24084186708E+02  0.35725682003E+02 -0.52202176014E+01  0.43400726673E+02  0.00000000000E+00 0. -1.
         11    1    3    3    0    0 -0.19716895746E+01 -0.36291078736E+01  0.46722720820E+00  0.41564751006E+01  0.51100000000E-03 0. -1.
        -11    1    3    3    0    0  0.24796618847E+02 -0.32250931978E+02  0.21539130535E+01  0.40738608977E+02  0.51100000000E-03 0.  1.
         12    1    3    3    0    0  0.12592574357E+01  0.15435784823E+00  0.25990773397E+01  0.28921892491E+01  0.00000000000E+00 0. -1.
</event>
<event>
 7    1  0.2733256E-010  0.4778727E+02  0.7816164E-02  0.1312668E+00
        -11   -1    0    0    0    0  0.00000000000E+00  0.00000000000E+00  0.45593999997E+02  0.45594000000E+02  0.51100000000E-03 0.  1.
         11   -1    0    0    0    0 -0.00000000000E+00 -0.00000000000E+00 -0.45593999997E+02  0.45594000000E+02  0.51100000000E-03 0. -1.
    9900012    2    1    2    0    0  0.36428308239E+02 -0.19458342996E+02  0.13340698398E+02  0.47787274349E+02  0.20000015066E+02 0.  0.
         12    1    1    2    0    0 -0.36428308239E+02  0.19458342996E+02 -0.13340698398E+02  0.43400725651E+02  0.00000000000E+00 0. -1.
         11    1    3    3    0    0  0.92525350911E+01  0.42257949465E+00 -0.39220572611E+00  0.92704802807E+01  0.51100000000E-03 0. -1.
        -11    1    3    3    0    0  0.12284754466E+02 -0.16856867637E+01  0.59219212947E+01  0.13741393097E+02  0.51100000000E-03 0.  1.
        -12    1    3    3    0    0  0.14891018682E+02 -0.18195235727E+02  0.78109828293E+01  0.24775400971E+02  0.00000000000E+00 0.  1.
</event>
<event>
 7    1  0.2733256E-010  0.4778727E+02  0.7816164E-02  0.1312668E+00
        -11   -1    0    0    0    0  0.00000000000E+00  0.00000000000E+00  0.45593999997E+02  0.45594000000E+02  0.51100000000E-03 0.  1.
         11   -1    0    0    0    0 -0.00000000000E+00 -0.00000000000E+00 -0.45593999997E+02  0.45594000000E+02  0.51100000000E-03 0. -1.
    9900012    2    1    2    0    0  0.13308393204E+02  0.12045382973E+02  0.39514791425E+02  0.47787270490E+02  0.19999997473E+02 0.  0.
         12    1    1    2    0    0 -0.13308393204E+02 -0.12045382973E+02 -0.39514791425E+02  0.43400729510E+02  0.00000000000E+00 0. -1.
         11    1    3    3    0    0 -0.42767281240E+00  0.96235551941E+01  0.10740792026E+02  0.14427762551E+02  0.51100000000E-03 0. -1.
        -11    1    3    3    0    0 -0.87161448249E+00  0.41058726680E+00 -0.68915140897E-01  0.96594164808E+00  0.51100000000E-03 0.  1.
        -12    1    3    3    0    0  0.14607680499E+02  0.20112405123E+01  0.28842914539E+02  0.32393566291E+02  0.00000000000E+00 0.  1.
</event>
<event>
 7    1  0.2733256E-010  0.4778727E+02  0.7816164E-02  0.1312668E+00
        -11   -1    0    0    0    0  0.00000000000E+00  0.00000000000E+00  0.45593999997E+02  0.45594000000E+02  0.51100000000E-03 0.  1.
         11   -1    0    0    0    0 -0.00000000000E+00 -0.00000000000E+00 -0.45593999997E+02  0.45594000000E+02  0.51100000000E-03 0. -1.
    9900012    2    1    2    0    0  0.33712038715E+02 -0.15150360846E+02  0.22750572145E+02  0.47787268198E+02  0.19999987020E+02 0.  0.
         12    1    1    2    0    0 -0.33712038715E+02  0.15150360846E+02 -0.22750572145E+02  0.43400731802E+02  0.00000000000E+00 0. -1.
         11    1    3    3    0    0  0.12139041332E+02 -0.26800756424E+01  0.18344377959E+02  0.22159768340E+02  0.51100000000E-03 0. -1.
        -11    1    3    3    0    0  0.77638227505E+01 -0.24787470621E+01  0.21917432466E+01  0.84394827697E+01  0.51100000000E-03 0.  1.
         12    1    3    3    0    0  0.13809174633E+02 -0.99915381410E+01  0.22144509387E+01  0.17188017088E+02  0.00000000000E+00 0. -1.
</event>
<event>
 7    1  0.2733256E-010  0.4778727E+02  0.7816164E-02  0.1312668E+00
        -11   -1    0    0    0    0  0.00000000000E+00  0.00000000000E+00  0.45593999997E+02  0.45594000000E+02  0.51100000000E-03 0.  1.
         11   -1    0    0    0    0 -0.00000000000E+00 -0.00000000000E+00 -0.45593999997E+02  0.45594000000E+02  0.51100000000E-03 0. -1.
    9900012    2    1    2    0    0  0.23657679927E+02 -0.31160649303E+02  0.18787000340E+02  0.47787271132E+02  0.20000000399E+02 0.  0.
         12    1    1    2    0    0 -0.23657679927E+02  0.31160649303E+02 -0.18787000340E+02  0.43400728868E+02  0.00000000000E+00 0. -1.
         11    1    3    3    0    0  0.47811599030E+01 -0.13663916849E+01  0.63423158748E+00  0.50128600841E+01  0.51100000000E-03 0. -1.
        -11    1    3    3    0    0  0.21246813279E+02 -0.24765759584E+02  0.17880437015E+02  0.37208600490E+02  0.51100000000E-03 0.  1.
        -12    1    3    3    0    0 -0.23702932554E+01 -0.50284980339E+01  0.27233173775E+00  0.55658105581E+01  0.00000000000E+00 0.  1.
</event>
<event>
 7    1  0.2733256E-010  0.4778727E+02  0.7816164E-02  0.1312668E+00
        -11   -1    0    0    0    0  0.00000000000E+00  0.00000000000E+00  0.45593999997E+02  0.45594000000E+02  0.51100000000E-03 0. -1.
         11   -1    0    0    0    0 -0.00000000000E+00 -0.00000000000E+00 -0.45593999997E+02  0.45594000000E+02  0.51100000000E-03 0.  1.
    9900012    2    1    2    0    0  0.22081992980E+02  0.17635418233E+01 -0.37321558561E+02  0.47787271583E+02  0.20000002454E+02 0.  0.
         12    1    1    2    0    0 -0.22081992980E+02 -0.17635418233E+01  0.37321558561E+02  0.43400728417E+02  0.00000000000E+00 0. -1.
         11    1    3    3    0    0 -0.16339731673E+01 -0.41675359633E+00 -0.29108253140E+01  0.33639940756E+01  0.51100000000E-03 0. -1.
        -11    1    3    3    0    0  0.11440199691E+02 -0.63942787701E+01 -0.15333498574E+02  0.20171295168E+02  0.51100000000E-03 0.  1.
         12    1    3    3    0    0  0.12275766456E+02  0.85745741898E+01 -0.19077234673E+02  0.24251982339E+02  0.00000000000E+00 0. -1.
</event>
<event>
 7    1  0.2733256E-010  0.4778727E+02  0.7816164E-02  0.1312668E+00
        -11   -1    0    0    0    0  0.00000000000E+00  0.00000000000E+00  0.45593999997E+02  0.45594000000E+02  0.51100000000E-03 0.  1.
         11   -1    0    0    0    0 -0.00000000000E+00 -0.00000000000E+00 -0.45593999997E+02  0.45594000000E+02  0.51100000000E-03 0. -1.
    9900012    2    1    2    0    0  0.15164333716E+02  0.10222649125E+02  0.39359415033E+02  0.47787272771E+02  0.20000007874E+02 0.  0.
         12    1    1    2    0    0 -0.15164333716E+02 -0.10222649125E+02 -0.39359415033E+02  0.43400727229E+02  0.00000000000E+00 0. -1.
         11    1    3    3    0    0  0.42886152880E+01 -0.32262619667E+01  0.13212272449E+01  0.55269004931E+01  0.51100000000E-03 0. -1.
        -11    1    3    3    0    0  0.49382616061E+01  0.16554359185E+01  0.10583717466E+02  0.11795845516E+02  0.51100000000E-03 0.  1.
         12    1    3    3    0    0  0.59374568221E+01  0.11793475173E+02  0.27454470323E+02  0.30464526763E+02  0.00000000000E+00 0. -1.
</event>
<event>
 7    1  0.2733256E-010  0.4778727E+02  0.7816164E-02  0.1312668E+00
        -11   -1    0    0    0    0  0.00000000000E+00  0.00000000000E+00  0.45593999997E+02  0.45594000000E+02  0.51100000000E-03 0.  1.
         11   -1    0    0    0    0 -0.00000000000E+00 -0.00000000000E+00 -0.45593999997E+02  0.45594000000E+02  0.51100000000E-03 0. -1.
    9900012    2    1    2    0    0 -0.18109040278E+02 -0.11167607955E+02  0.37828171795E+02  0.47787269723E+02  0.19999993974E+02 0.  0.
         12    1    1    2    0    0  0.18109040278E+02  0.11167607955E+02 -0.37828171795E+02  0.43400730277E+02  0.00000000000E+00 0. -1.
         11    1    3    3    0    0 -0.62120890128E+01 -0.76891694226E+01  0.17212716327E+02  0.19849206028E+02  0.51100000000E-03 0. -1.
        -11    1    3    3    0    0 -0.96730908179E+01 -0.73890571021E+01  0.80548998260E+01  0.14596172865E+02  0.51100000000E-03 0.  1.
        -12    1    3    3    0    0 -0.22238604475E+01  0.39106185700E+01  0.12560555642E+02  0.13341890830E+02  0.00000000000E+00 0.  1.
</event>
<event>
 7    1  0.2733256E-010  0.4778727E+02  0.7816164E-02  0.1312668E+00
        -11   -1    0    0    0    0  0.00000000000E+00  0.00000000000E+00  0.45593999997E+02  0.45594000000E+02  0.51100000000E-03 0.  1.
         11   -1    0    0    0    0 -0.00000000000E+00 -0.00000000000E+00 -0.45593999997E+02  0.45594000000E+02  0.51100000000E-03 0. -1.
    9900012    2    1    2    0    0  0.75283257934E+01  0.38946936593E+02  0.17609189170E+02  0.47787273019E+02  0.20000009004E+02 0.  0.
         12    1    1    2    0    0 -0.75283257934E+01 -0.38946936593E+02 -0.17609189170E+02  0.43400726981E+02  0.00000000000E+00 0. -1.
         11    1    3    3    0    0  0.48169990966E+01  0.22332561547E+02  0.76635530543E+01  0.24097237004E+02  0.51100000000E-03 0. -1.
        -11    1    3    3    0    0  0.51330110324E+01  0.17731002942E+02  0.70658901944E+01  0.19765198509E+02  0.51100000000E-03 0.  1.
        -12    1    3    3    0    0 -0.24216843357E+01 -0.11166278963E+01  0.28797459209E+01  0.39248375061E+01  0.00000000000E+00 0.  1.
</event>
<event>
 7    1  0.2733256E-010  0.4778727E+02  0.7816164E-02  0.1312668E+00
        -11   -1    0    0    0    0  0.00000000000E+00  0.00000000000E+00  0.45593999997E+02  0.45594000000E+02  0.51100000000E-03 0.  1.
         11   -1    0    0    0    0 -0.00000000000E+00 -0.00000000000E+00 -0.45593999997E+02  0.45594000000E+02  0.51100000000E-03 0. -1.
    9900012    2    1    2    0    0 -0.34210650944E+02 -0.61709973198E+01  0.25984099479E+02  0.47787271070E+02  0.20000000116E+02 0.  0.
         12    1    1    2    0    0  0.34210650944E+02  0.61709973198E+01 -0.25984099479E+02  0.43400728930E+02  0.00000000000E+00 0. -1.
         11    1    3    3    0    0 -0.20166127496E+01 -0.21528838326E+01  0.19034149356E+01  0.35106444504E+01  0.51100000000E-03 0. -1.
        -11    1    3    3    0    0 -0.43977449623E+01  0.54573316359E+01  0.85509820967E+01  0.11056306997E+02  0.51100000000E-03 0.  1.
        -12    1    3    3    0    0 -0.27796293232E+02 -0.94754451231E+01  0.15529702447E+02  0.33220319622E+02  0.00000000000E+00 0.  1.
</event>
<event>
 7    1  0.2733256E-010  0.4778727E+02  0.7816164E-02  0.1312668E+00
        -11   -1    0    0    0    0  0.00000000000E+00  0.00000000000E+00  0.45593999997E+02  0.45594000000E+02  0.51100000000E-03 0. -1.
         11   -1    0    0    0    0 -0.00000000000E+00 -0.00000000000E+00 -0.45593999997E+02  0.45594000000E+02  0.51100000000E-03 0.  1.
    9900012    2    1    2    0    0  0.10147750897E+01  0.92529101659E+01 -0.42390765667E+02  0.47787272715E+02  0.20000007619E+02 0.  0.
         12    1    1    2    0    0 -0.10147750897E+01 -0.92529101659E+01  0.42390765667E+02  0.43400727285E+02  0.00000000000E+00 0. -1.
         11    1    3    3    0    0 -0.13554523502E+00  0.12250329392E+01  0.10541121461E+00  0.12370084875E+01  0.51100000000E-03 0. -1.
        -11    1    3    3    0    0  0.19420564730E+01 -0.52434807214E+01 -0.10362338485E+02  0.11774707323E+02  0.51100000000E-03 0.  1.
         12    1    3    3    0    0 -0.79173614833E+00  0.13271357948E+02 -0.32133838397E+02  0.34775556905E+02  0.00000000000E+00 0. -1.
</event>
<event>
 7    1  0.2733256E-010  0.4778727E+02  0.7816164E-02  0.1312668E+00
        -11   -1    0    0    0    0  0.00000000000E+00  0.00000000000E+00  0.45593999997E+02  0.45594000000E+02  0.51100000000E-03 0.  1.
         11   -1    0    0    0    0 -0.00000000000E+00 -0.00000000000E+00 -0.45593999997E+02  0.45594000000E+02  0.51100000000E-03 0. -1.
    9900012    2    1    2    0    0 -0.27178451034E+02 -0.24416502650E+02  0.23426258002E+02  0.47787269980E+02  0.19999995147E+02 0.  0.
         12    1    1    2    0    0  0.27178451034E+02  0.24416502650E+02 -0.23426258002E+02  0.43400730020E+02  0.00000000000E+00 0. -1.
         11    1    3    3    0    0 -0.15438987845E+01  0.24568708652E+01  0.10188513150E+01  0.30753692735E+01  0.51100000000E-03 0. -1.
        -11    1    3    3    0    0 -0.66629149905E+01 -0.41369414726E+01  0.97379688604E+01  0.12503469867E+02  0.51100000000E-03 0.  1.
         12    1    3    3    0    0 -0.18971637259E+02 -0.22736432042E+02  0.12669437827E+02  0.32208430840E+02  0.00000000000E+00 0. -1.
</event>
<event>
 7    1  0.2733256E-010  0.4778727E+02  0.7816164E-02  0.1312668E+00
        -11   -1    0    0    0    0  0.00000000000E+00  0.00000000000E+00  0.45593999997E+02  0.45594000000E+02  0.51100000000E-03 0.  1.
         11   -1    0    0    0    0 -0.00000000000E+00 -0.00000000000E+00 -0.45593999997E+02  0.45594000000E+02  0.51100000000E-03 0. -1.
    9900012    2    1    2    0    0  0.38193390529E+02  0.72580522919E+01  0.19292721484E+02  0.47787268377E+02  0.19999987837E+02 0.  0.
         12    1    1    2    0    0 -0.38193390529E+02 -0.72580522919E+01 -0.19292721484E+02  0.43400731623E+02  0.00000000000E+00 0. -1.
         11    1    3    3    0    0  0.77223122031E+01 -0.48429552013E+01  0.89819281942E+01  0.12797005712E+02  0.51100000000E-03 0. -1.
        -11    1    3    3    0    0  0.99017917256E+01  0.41867938686E+01  0.66717827021E+01  0.12652565232E+02  0.51100000000E-03 0.  1.
        -12    1    3    3    0    0  0.20569286600E+02  0.79142136246E+01  0.36390105882E+01  0.22337697433E+02  0.00000000000E+00 0.  1.
</event>
<event>
 7    1  0.2733256E-010  0.4778729E+02  0.7816164E-02  0.1312668E+00
        -11   -1    0    0    0    0  0.00000000000E+00  0.00000000000E+00  0.45593999997E+02  0.45594000000E+02  0.51100000000E-03 0.  1.
         11   -1    0    0    0    0 -0.00000000000E+00 -0.00000000000E+00 -0.45593999997E+02  0.45594000000E+02  0.51100000000E-03 0. -1.
    9900012    2    1    2    0    0 -0.32955241371E+02 -0.23149276888E+02 -0.16176679321E+02  0.47787286778E+02  0.20000071737E+02 0.  0.
         12    1    1    2    0    0  0.32955241371E+02  0.23149276888E+02  0.16176679321E+02  0.43400713222E+02  0.00000000000E+00 0. -1.
         11    1    3    3    0    0 -0.10940572664E+02 -0.86480878106E+01 -0.79514207180E+01  0.16053368640E+02  0.51100000000E-03 0. -1.
        -11    1    3    3    0    0 -0.18071493249E+02 -0.14749885260E+02 -0.82071562622E+00  0.23341198723E+02  0.51100000000E-03 0.  1.
         12    1    3    3    0    0 -0.39431754584E+01  0.24869618270E+00 -0.74045429768E+01  0.83927194152E+01  0.00000000000E+00 0. -1.
</event>
<event>
 7    1  0.2733256E-010  0.4778727E+02  0.7816164E-02  0.1312668E+00
        -11   -1    0    0    0    0  0.00000000000E+00  0.00000000000E+00  0.45593999997E+02  0.45594000000E+02  0.51100000000E-03 0.  1.
         11   -1    0    0    0    0 -0.00000000000E+00 -0.00000000000E+00 -0.45593999997E+02  0.45594000000E+02  0.51100000000E-03 0. -1.
    9900012    2    1    2    0    0 -0.15511810005E+02 -0.38145501609E+02 -0.13708669392E+02  0.47787272367E+02  0.20000006029E+02 0.  0.
         12    1    1    2    0    0  0.15511810005E+02  0.38145501609E+02  0.13708669392E+02  0.43400727633E+02  0.00000000000E+00 0. -1.
         11    1    3    3    0    0 -0.10274396799E+00 -0.54705723905E+01  0.77961881679E+00  0.55268005540E+01  0.51100000000E-03 0. -1.
        -11    1    3    3    0    0 -0.71697545010E+01 -0.27240065374E+02 -0.15810928857E+02  0.32301888687E+02  0.51100000000E-03 0.  1.
        -12    1    3    3    0    0 -0.82393115355E+01 -0.54348638441E+01  0.13226406480E+01  0.99585831254E+01  0.00000000000E+00 0.  1.
</event>
<event>
 7    1  0.2733256E-010  0.4778727E+02  0.7816164E-02  0.1312668E+00
        -11   -1    0    0    0    0  0.00000000000E+00  0.00000000000E+00  0.45593999997E+02  0.45594000000E+02  0.51100000000E-03 0.  1.
         11   -1    0    0    0    0 -0.00000000000E+00 -0.00000000000E+00 -0.45593999997E+02  0.45594000000E+02  0.51100000000E-03 0. -1.
    9900012    2    1    2    0    0  0.52286154087E+01 -0.42683099577E+02 -0.58683944477E+01  0.47787268877E+02  0.19999990118E+02 0.  0.
         12    1    1    2    0    0 -0.52286154087E+01  0.42683099577E+02  0.58683944477E+01  0.43400731123E+02  0.00000000000E+00 0. -1.
         11    1    3    3    0    0 -0.18322527563E+01 -0.23914770286E+01 -0.43493302518E+01  0.52908398617E+01  0.51100000000E-03 0. -1.
        -11    1    3    3    0    0  0.19638643942E+01 -0.10613177791E+02 -0.55129643047E+01  0.12119780603E+02  0.51100000000E-03 0.  1.
        -12    1    3    3    0    0  0.50970037708E+01 -0.29678444758E+02  0.39939001088E+01  0.30376648412E+02  0.00000000000E+00 0.  1.
</event>
<event>
 7    1  0.2733256E-010  0.4778730E+02  0.7816164E-02  0.1312668E+00
        -11   -1    0    0    0    0  0.00000000000E+00  0.00000000000E+00  0.45593999997E+02  0.45594000000E+02  0.51100000000E-03 0.  1.
         11   -1    0    0    0    0 -0.00000000000E+00 -0.00000000000E+00 -0.45593999997E+02  0.45594000000E+02  0.51100000000E-03 0. -1.
    9900012    2    1    2    0    0 -0.35565029778E+02 -0.23727672060E+02  0.74664041823E+01  0.47787297748E+02  0.20000121754E+02 0.  0.
         12    1    1    2    0    0  0.35565029778E+02  0.23727672060E+02 -0.74664041823E+01  0.43400702252E+02  0.00000000000E+00 0. -1.
         11    1    3    3    0    0 -0.76901732511E+01 -0.37148698455E+01 -0.32267823924E+01  0.91296849601E+01  0.51100000000E-03 0. -1.
        -11    1    3    3    0    0 -0.45685979984E+01 -0.96043217846E+01 -0.79783387042E+00  0.10665440627E+02  0.51100000000E-03 0.  1.
        -12    1    3    3    0    0 -0.23306258529E+02 -0.10408480430E+02  0.11491020445E+02  0.27992172162E+02  0.00000000000E+00 0.  1.
</event>
<event>
 7    1  0.2733256E-010  0.4778727E+02  0.7816164E-02  0.1312668E+00
        -11   -1    0    0    0    0  0.00000000000E+00  0.00000000000E+00  0.45593999997E+02  0.45594000000E+02  0.51100000000E-03 0. -1.
         11   -1    0    0    0    0 -0.00000000000E+00 -0.00000000000E+00 -0.45593999997E+02  0.45594000000E+02  0.51100000000E-03 0.  1.
    9900012    2    1    2    0    0  0.16566119806E+02  0.39315624472E+02  0.79667288217E+01  0.47787269348E+02  0.19999992265E+02 0.  0.
         12    1    1    2    0    0 -0.16566119806E+02 -0.39315624472E+02 -0.79667288217E+01  0.43400730652E+02  0.00000000000E+00 0. -1.
         11    1    3    3    0    0  0.27971171690E+01  0.14223553929E+02  0.67276132238E+01  0.15981055371E+02  0.51100000000E-03 0. -1.
        -11    1    3    3    0    0  0.49464798041E+01  0.90551203373E+01  0.71711726995E+01  0.12565372455E+02  0.51100000000E-03 0.  1.
        -12    1    3    3    0    0  0.88225228325E+01  0.16036950206E+02 -0.59320571017E+01  0.19240841522E+02  0.00000000000E+00 0.  1.
</event>
<event>
 7    1  0.2733256E-010  0.4778727E+02  0.7816164E-02  0.1312668E+00
        -11   -1    0    0    0    0  0.00000000000E+00  0.00000000000E+00  0.45593999997E+02  0.45594000000E+02  0.51100000000E-03 0.  1.
         11   -1    0    0    0    0 -0.00000000000E+00 -0.00000000000E+00 -0.45593999997E+02  0.45594000000E+02  0.51100000000E-03 0. -1.
    9900012    2    1    2    0    0  0.15899113696E+02  0.40354615887E+02  0.15318713351E+01  0.47787268791E+02  0.19999989723E+02 0.  0.
         12    1    1    2    0    0 -0.15899113696E+02 -0.40354615887E+02 -0.15318713351E+01  0.43400731209E+02  0.00000000000E+00 0. -1.
         11    1    3    3    0    0  0.19154618338E+01 -0.94851845306E+00 -0.14152408163E+01  0.25635108975E+01  0.51100000000E-03 0. -1.
        -11    1    3    3    0    0  0.78346325209E+00  0.74506139991E+01 -0.35864985740E+01  0.83059277575E+01  0.51100000000E-03 0.  1.
        -12    1    3    3    0    0  0.13200188610E+02  0.33852520341E+02  0.65336107254E+01  0.36917830135E+02  0.00000000000E+00 0.  1.
</event>
<event>
 7    1  0.2733256E-010  0.4778727E+02  0.7816164E-02  0.1312668E+00
        -11   -1    0    0    0    0  0.00000000000E+00  0.00000000000E+00  0.45593999997E+02  0.45594000000E+02  0.51100000000E-03 0.  1.
         11   -1    0    0    0    0 -0.00000000000E+00 -0.00000000000E+00 -0.45593999997E+02  0.45594000000E+02  0.51100000000E-03 0. -1.
    9900012    2    1    2    0    0  0.95029489033E+01  0.13398004469E+02  0.40172261315E+02  0.47787272577E+02  0.20000006989E+02 0.  0.
         12    1    1    2    0    0 -0.95029489033E+01 -0.13398004469E+02 -0.40172261315E+02  0.43400727423E+02  0.00000000000E+00 0. -1.
         11    1    3    3    0    0 -0.29978879727E+01  0.10267744574E+02  0.10982550888E+02  0.15330699110E+02  0.51100000000E-03 0. -1.
        -11    1    3    3    0    0  0.73755132319E+00  0.14328574912E+01  0.10866984990E+01  0.19437017346E+01  0.51100000000E-03 0.  1.
        -12    1    3    3    0    0  0.11763285553E+02  0.16974024040E+01  0.28103011928E+02  0.30512871732E+02  0.00000000000E+00 0.  1.
</event>
<event>
 7    1  0.2733256E-010  0.4778727E+02  0.7816164E-02  0.1312668E+00
        -11   -1    0    0    0    0  0.00000000000E+00  0.00000000000E+00  0.45593999997E+02  0.45594000000E+02  0.51100000000E-03 0.  1.
         11   -1    0    0    0    0 -0.00000000000E+00 -0.00000000000E+00 -0.45593999997E+02  0.45594000000E+02  0.51100000000E-03 0. -1.
    9900012    2    1    2    0    0  0.28093797265E+02  0.18515293469E+01  0.33029284160E+02  0.47787271690E+02  0.20000002945E+02 0.  0.
         12    1    1    2    0    0 -0.28093797265E+02 -0.18515293469E+01 -0.33029284160E+02  0.43400728310E+02  0.00000000000E+00 0. -1.
         11    1    3    3    0    0  0.13830688569E+02  0.19279355763E+01  0.13675422491E+02  0.19545384684E+02  0.51100000000E-03 0.  1.
        -11    1    3    3    0    0  0.13222985592E+02 -0.27740290032E+01  0.20957971813E+02  0.24935500148E+02  0.51100000000E-03 0. -1.
         12    1    3    3    0    0  0.10401231036E+01  0.26976227738E+01 -0.16041101438E+01  0.33063868578E+01  0.00000000000E+00 0. -1.
</event>
<event>
 7    1  0.2733256E-010  0.4778727E+02  0.7816164E-02  0.1312668E+00
        -11   -1    0    0    0    0  0.00000000000E+00  0.00000000000E+00  0.45593999997E+02  0.45594000000E+02  0.51100000000E-03 0. -1.
         11   -1    0    0    0    0 -0.00000000000E+00 -0.00000000000E+00 -0.45593999997E+02  0.45594000000E+02  0.51100000000E-03 0.  1.
    9900012    2    1    2    0    0  0.36629841347E+02  0.24967954205E+01  0.23143986755E+02  0.47787269736E+02  0.19999994035E+02 0.  0.
         12    1    1    2    0    0 -0.36629841347E+02 -0.24967954205E+01 -0.23143986755E+02  0.43400730264E+02  0.00000000000E+00 0. -1.
         11    1    3    3    0    0  0.70234878980E+01  0.75451099122E+00 -0.25108757322E+01  0.74968771027E+01  0.51100000000E-03 0. -1.
        -11    1    3    3    0    0  0.10711531949E+02 -0.12561089302E+01  0.42768322229E+01  0.11601983471E+02  0.51100000000E-03 0.  1.
        -12    1    3    3    0    0  0.18894821501E+02  0.29983933595E+01  0.21378030265E+02  0.28688409162E+02  0.00000000000E+00 0.  1.
</event>
<event>
 7    1  0.2733256E-010  0.4778728E+02  0.7816164E-02  0.1312668E+00
        -11   -1    0    0    0    0  0.00000000000E+00  0.00000000000E+00  0.45593999997E+02  0.45594000000E+02  0.51100000000E-03 0.  1.
         11   -1    0    0    0    0 -0.00000000000E+00 -0.00000000000E+00 -0.45593999997E+02  0.45594000000E+02  0.51100000000E-03 0. -1.
    9900012    2    1    2    0    0  0.37081176379E+02  0.21132969988E+02 -0.78744355165E+01  0.47787276539E+02  0.20000025053E+02 0.  0.
         12    1    1    2    0    0 -0.37081176379E+02 -0.21132969988E+02  0.78744355165E+01  0.43400723461E+02  0.00000000000E+00 0. -1.
         11    1    3    3    0    0  0.14466756883E+02  0.77771889169E+01  0.64539552524E+01  0.17647245134E+02  0.51100000000E-03 0. -1.
        -11    1    3    3    0    0  0.61937626940E+00  0.95113199255E+00 -0.61796924374E-01  0.11367049535E+01  0.51100000000E-03 0.  1.
         12    1    3    3    0    0  0.21995043227E+02  0.12404649079E+02 -0.14266593845E+02  0.29003326452E+02  0.00000000000E+00 0. -1.
</event>
<event>
 7    1  0.2733256E-010  0.4778727E+02  0.7816164E-02  0.1312668E+00
        -11   -1    0    0    0    0  0.00000000000E+00  0.00000000000E+00  0.45593999997E+02  0.45594000000E+02  0.51100000000E-03 0.  1.
         11   -1    0    0    0    0 -0.00000000000E+00 -0.00000000000E+00 -0.45593999997E+02  0.45594000000E+02  0.51100000000E-03 0. -1.
    9900012    2    1    2    0    0 -0.26353270570E+02  0.20332134428E+02  0.27851986045E+02  0.47787266287E+02  0.19999978310E+02 0.  0.
         12    1    1    2    0    0  0.26353270570E+02 -0.20332134428E+02 -0.27851986045E+02  0.43400733713E+02  0.00000000000E+00 0. -1.
         11    1    3    3    0    0 -0.31283612188E+01 -0.71355485722E-01  0.72197762946E+01  0.78687296005E+01  0.51100000000E-03 0. -1.
        -11    1    3    3    0    0 -0.11379896283E+02  0.36752731884E+01  0.13917277588E+02  0.18349394762E+02  0.51100000000E-03 0.  1.
         12    1    3    3    0    0 -0.11845013068E+02  0.16728216726E+02  0.67149321629E+01  0.21569141925E+02  0.00000000000E+00 0. -1.
</event>
<event>
 7    1  0.2733256E-010  0.4778727E+02  0.7816164E-02  0.1312668E+00
        -11   -1    0    0    0    0  0.00000000000E+00  0.00000000000E+00  0.45593999997E+02  0.45594000000E+02  0.51100000000E-03 0.  1.
         11   -1    0    0    0    0 -0.00000000000E+00 -0.00000000000E+00 -0.45593999997E+02  0.45594000000E+02  0.51100000000E-03 0. -1.
    9900012    2    1    2    0    0  0.83441567781E+01 -0.34762767771E+02  0.24607888101E+02  0.47787272676E+02  0.20000007440E+02 0.  0.
         12    1    1    2    0    0 -0.83441567781E+01  0.34762767771E+02 -0.24607888101E+02  0.43400727324E+02  0.00000000000E+00 0. -1.
         11    1    3    3    0    0  0.45732159575E+01 -0.15927938660E+02  0.11285922989E+02  0.20049578353E+02  0.51100000000E-03 0. -1.
        -11    1    3    3    0    0  0.29390288776E+01 -0.20377284165E+02  0.14872218499E+02  0.25397922829E+02  0.51100000000E-03 0.  1.
         12    1    3    3    0    0  0.83191194299E+00  0.15424550547E+01 -0.15502533873E+01  0.23397714934E+01  0.00000000000E+00 0. -1.
</event>
<event>
 7    1  0.2733256E-010  0.4778727E+02  0.7816164E-02  0.1312668E+00
        -11   -1    0    0    0    0  0.00000000000E+00  0.00000000000E+00  0.45593999997E+02  0.45594000000E+02  0.51100000000E-03 0.  1.
         11   -1    0    0    0    0 -0.00000000000E+00 -0.00000000000E+00 -0.45593999997E+02  0.45594000000E+02  0.51100000000E-03 0. -1.
    9900012    2    1    2    0    0  0.22041142937E+02 -0.24899527365E+02  0.27889506391E+02  0.47787274065E+02  0.20000013771E+02 0.  0.
         12    1    1    2    0    0 -0.22041142937E+02  0.24899527365E+02 -0.27889506391E+02  0.43400725935E+02  0.00000000000E+00 0. -1.
         11    1    3    3    0    0  0.73575299213E+01 -0.77601569568E+01  0.16701643609E+02  0.19831746823E+02  0.51100000000E-03 0.  1.
        -11    1    3    3    0    0 -0.18056023885E+01 -0.30367704830E+01  0.33986363840E+01  0.49023366350E+01  0.51100000000E-03 0. -1.
         12    1    3    3    0    0  0.16489215404E+02 -0.14102599925E+02  0.77892263981E+01  0.23053190607E+02  0.00000000000E+00 0. -1.
</event>
<event>
 7    1  0.2733256E-010  0.4778728E+02  0.7816164E-02  0.1312668E+00
        -11   -1    0    0    0    0  0.00000000000E+00  0.00000000000E+00  0.45593999997E+02  0.45594000000E+02  0.51100000000E-03 0.  1.
         11   -1    0    0    0    0 -0.00000000000E+00 -0.00000000000E+00 -0.45593999997E+02  0.45594000000E+02  0.51100000000E-03 0. -1.
    9900012    2    1    2    0    0  0.33515692457E+02 -0.19062642702E+02  0.19923274062E+02  0.47787276078E+02  0.20000022949E+02 0.  0.
         12    1    1    2    0    0 -0.33515692457E+02  0.19062642702E+02 -0.19923274062E+02  0.43400723922E+02  0.00000000000E+00 0. -1.
         11    1    3    3    0    0  0.26522937573E+01 -0.70062117402E+01  0.18919988266E+01  0.77266632478E+01  0.51100000000E-03 0. -1.
        -11    1    3    3    0    0  0.56187620968E+01 -0.34299199467E+01  0.10407736366E+02  0.12314861545E+02  0.51100000000E-03 0.  1.
        -12    1    3    3    0    0  0.25244636603E+02 -0.86265110146E+01  0.76235388699E+01  0.27745751285E+02  0.00000000000E+00 0.  1.
</event>
<event>
 7    1  0.2733256E-010  0.4778725E+02  0.7816164E-02  0.1312668E+00
        -11   -1    0    0    0    0  0.00000000000E+00  0.00000000000E+00  0.45593999997E+02  0.45594000000E+02  0.51100000000E-03 0.  1.
         11   -1    0    0    0    0 -0.00000000000E+00 -0.00000000000E+00 -0.45593999997E+02  0.45594000000E+02  0.51100000000E-03 0. -1.
    9900012    2    1    2    0    0 -0.22165992530E+02 -0.12236171653E+02  0.35250101175E+02  0.47787253988E+02  0.19999922235E+02 0.  0.
         12    1    1    2    0    0  0.22165992530E+02  0.12236171653E+02 -0.35250101175E+02  0.43400746012E+02  0.00000000000E+00 0. -1.
         11    1    3    3    0    0 -0.91642509334E+01  0.12813293400E+01  0.23403779743E+02  0.25166688430E+02  0.51100000000E-03 0. -1.
        -11    1    3    3    0    0  0.34916663049E-01 -0.13529896565E+01  0.14365588759E+01  0.19737025736E+01  0.51100000000E-03 0.  1.
        -12    1    3    3    0    0 -0.13036658259E+02 -0.12164511336E+02  0.10409762556E+02  0.20646862984E+02  0.00000000000E+00 0.  1.
</event>
<event>
 7    1  0.2733256E-010  0.4778728E+02  0.7816164E-02  0.1312668E+00
        -11   -1    0    0    0    0  0.00000000000E+00  0.00000000000E+00  0.45593999997E+02  0.45594000000E+02  0.51100000000E-03 0. -1.
         11   -1    0    0    0    0 -0.00000000000E+00 -0.00000000000E+00 -0.45593999997E+02  0.45594000000E+02  0.51100000000E-03 0.  1.
    9900012    2    1    2    0    0 -0.24814820859E+02  0.31089024147E+02 -0.17358573946E+02  0.47787275973E+02  0.20000022470E+02 0.  0.
         12    1    1    2    0    0  0.24814820859E+02 -0.31089024147E+02  0.17358573946E+02  0.43400724027E+02  0.00000000000E+00 0. -1.
         11    1    3    3    0    0 -0.43752796509E+01  0.92783607437E+01 -0.35878751683E+01  0.10867561760E+02  0.51100000000E-03 0. -1.
        -11    1    3    3    0    0 -0.37503151709E+01  0.12529062187E+02 -0.11985961244E+02  0.17739941667E+02  0.51100000000E-03 0.  1.
         12    1    3    3    0    0 -0.16689226037E+02  0.92816012163E+01 -0.17847375344E+01  0.19179772546E+02  0.00000000000E+00 0. -1.
</event>
<event>
 7    1  0.2733256E-010  0.4778727E+02  0.7816164E-02  0.1312668E+00
        -11   -1    0    0    0    0  0.00000000000E+00  0.00000000000E+00  0.45593999997E+02  0.45594000000E+02  0.51100000000E-03 0. -1.
         11   -1    0    0    0    0 -0.00000000000E+00 -0.00000000000E+00 -0.45593999997E+02  0.45594000000E+02  0.51100000000E-03 0.  1.
    9900012    2    1    2    0    0 -0.13076288515E+01  0.35347346133E+02 -0.25149126201E+02  0.47787270507E+02  0.19999997548E+02 0.  0.
         12    1    1    2    0    0  0.13076288515E+01 -0.35347346133E+02  0.25149126201E+02  0.43400729493E+02  0.00000000000E+00 0. -1.
         11    1    3    3    0    0 -0.41666524095E+01 -0.15198236693E+00 -0.53343335011E+01  0.67704656490E+01  0.51100000000E-03 0. -1.
        -11    1    3    3    0    0 -0.12186593474E+01  0.11318351474E+02 -0.59074862946E+01  0.12825311118E+02  0.51100000000E-03 0.  1.
         12    1    3    3    0    0  0.40776829055E+01  0.24180977026E+02 -0.13907306405E+02  0.28191493739E+02  0.00000000000E+00 0. -1.
</event>
<event>
 7    1  0.2733256E-010  0.4778727E+02  0.7816164E-02  0.1312668E+00
        -11   -1    0    0    0    0  0.00000000000E+00  0.00000000000E+00  0.45593999997E+02  0.45594000000E+02  0.51100000000E-03 0.  1.
         11   -1    0    0    0    0 -0.00000000000E+00 -0.00000000000E+00 -0.45593999997E+02  0.45594000000E+02  0.51100000000E-03 0. -1.
    9900012    2    1    2    0    0 -0.22639696703E+02  0.36108664658E+02  0.81994853648E+01  0.47787273158E+02  0.20000009636E+02 0.  0.
         12    1    1    2    0    0  0.22639696703E+02 -0.36108664658E+02 -0.81994853648E+01  0.43400726842E+02  0.00000000000E+00 0. -1.
         11    1    3    3    0    0 -0.31443307231E+01  0.91365961515E-01 -0.13356132433E+01  0.34174590608E+01  0.51100000000E-03 0. -1.
        -11    1    3    3    0    0 -0.10692310833E+02  0.15565487156E+02 -0.25174153777E+01  0.19051175338E+02  0.51100000000E-03 0.  1.
         12    1    3    3    0    0 -0.88030551476E+01  0.20451811540E+02  0.12052513986E+02  0.25318638759E+02  0.00000000000E+00 0. -1.
</event>
<event>
 7    1  0.2733256E-010  0.4778727E+02  0.7816164E-02  0.1312668E+00
        -11   -1    0    0    0    0  0.00000000000E+00  0.00000000000E+00  0.45593999997E+02  0.45594000000E+02  0.51100000000E-03 0.  1.
         11   -1    0    0    0    0 -0.00000000000E+00 -0.00000000000E+00 -0.45593999997E+02  0.45594000000E+02  0.51100000000E-03 0. -1.
    9900012    2    1    2    0    0 -0.40429918992E+02 -0.12432776418E+02  0.97196416936E+01  0.47787265976E+02  0.19999976892E+02 0.  0.
         12    1    1    2    0    0  0.40429918992E+02  0.12432776418E+02 -0.97196416936E+01  0.43400734024E+02  0.00000000000E+00 0. -1.
         11    1    3    3    0    0 -0.45172690671E+00 -0.23233940863E+01  0.13955436574E+01  0.27476825944E+01  0.51100000000E-03 0. -1.
        -11    1    3    3    0    0 -0.20420419263E+02  0.32277918151E+00 -0.21265967116E+01  0.20533390443E+02  0.51100000000E-03 0.  1.
        -12    1    3    3    0    0 -0.19557772822E+02 -0.10432161514E+02  0.10450694748E+02  0.24506192938E+02  0.00000000000E+00 0.  1.
</event>
<event>
 7    1  0.2733256E-010  0.4778727E+02  0.7816164E-02  0.1312668E+00
        -11   -1    0    0    0    0  0.00000000000E+00  0.00000000000E+00  0.45593999997E+02  0.45594000000E+02  0.51100000000E-03 0.  1.
         11   -1    0    0    0    0 -0.00000000000E+00 -0.00000000000E+00 -0.45593999997E+02  0.45594000000E+02  0.51100000000E-03 0. -1.
    9900012    2    1    2    0    0  0.22959133593E+02 -0.70380518598E-01  0.36830650745E+02  0.47787267252E+02  0.19999982711E+02 0.  0.
         12    1    1    2    0    0 -0.22959133593E+02  0.70380518598E-01 -0.36830650745E+02  0.43400732748E+02  0.00000000000E+00 0. -1.
         11    1    3    3    0    0  0.73864890834E+01  0.24811847399E+01  0.82802649627E+01  0.11370104960E+02  0.51100000000E-03 0. -1.
        -11    1    3    3    0    0  0.14906869621E+02  0.42817487907E+01  0.22081120073E+02  0.26983772874E+02  0.51100000000E-03 0.  1.
        -12    1    3    3    0    0  0.66577488911E+00 -0.68333140492E+01  0.64692657091E+01  0.94333894181E+01  0.00000000000E+00 0.  1.
</event>
<event>
 7    1  0.2733256E-010  0.4778727E+02  0.7816164E-02  0.1312668E+00
        -11   -1    0    0    0    0  0.00000000000E+00  0.00000000000E+00  0.45593999997E+02  0.45594000000E+02  0.51100000000E-03 0. -1.
         11   -1    0    0    0    0 -0.00000000000E+00 -0.00000000000E+00 -0.45593999997E+02  0.45594000000E+02  0.51100000000E-03 0.  1.
    9900012    2    1    2    0    0 -0.42396236156E+02 -0.61280119846E+01 -0.69735221323E+01  0.47787269799E+02  0.19999994320E+02 0.  0.
         12    1    1    2    0    0  0.42396236156E+02  0.61280119846E+01  0.69735221323E+01  0.43400730201E+02  0.00000000000E+00 0. -1.
         11    1    3    3    0    0 -0.54612106816E+01  0.46414991118E+00  0.30419414883E+01  0.62684659629E+01  0.51100000000E-03 0. -1.
        -11    1    3    3    0    0 -0.62652695328E+01  0.38233244677E+01  0.77055128130E+00  0.73800516152E+01  0.51100000000E-03 0.  1.
        -12    1    3    3    0    0 -0.30669755942E+02 -0.10415486363E+02 -0.10786014902E+02  0.34138752221E+02  0.00000000000E+00 0.  1.
</event>
<event>
 7    1  0.2733256E-010  0.4778727E+02  0.7816164E-02  0.1312668E+00
        -11   -1    0    0    0    0  0.00000000000E+00  0.00000000000E+00  0.45593999997E+02  0.45594000000E+02  0.51100000000E-03 0.  1.
         11   -1    0    0    0    0 -0.00000000000E+00 -0.00000000000E+00 -0.45593999997E+02  0.45594000000E+02  0.51100000000E-03 0. -1.
    9900012    2    1    2    0    0 -0.43147876540E+02 -0.44777581925E+01 -0.13543007153E+01  0.47787266149E+02  0.19999977681E+02 0.  0.
         12    1    1    2    0    0  0.43147876540E+02  0.44777581925E+01  0.13543007153E+01  0.43400733851E+02  0.00000000000E+00 0. -1.
         11    1    3    3    0    0 -0.27673283733E+02 -0.12223881617E+02 -0.23425162663E+01  0.30343389677E+02  0.51100000000E-03 0.  1.
        -11    1    3    3    0    0 -0.71172324358E+01  0.34991979438E+01  0.14306185418E+01  0.80589114320E+01  0.51100000000E-03 0. -1.
        -12    1    3    3    0    0 -0.83573603710E+01  0.42469254804E+01 -0.44240299077E+00  0.93849650406E+01  0.00000000000E+00 0.  1.
</event>
<event>
 7    1  0.2733256E-010  0.4778727E+02  0.7816164E-02  0.1312668E+00
        -11   -1    0    0    0    0  0.00000000000E+00  0.00000000000E+00  0.45593999997E+02  0.45594000000E+02  0.51100000000E-03 0.  1.
         11   -1    0    0    0    0 -0.00000000000E+00 -0.00000000000E+00 -0.45593999997E+02  0.45594000000E+02  0.51100000000E-03 0. -1.
    9900012    2    1    2    0    0 -0.22950840276E+02 -0.65146093532E+01  0.36255235095E+02  0.47787271018E+02  0.19999999878E+02 0.  0.
         12    1    1    2    0    0  0.22950840276E+02  0.65146093532E+01 -0.36255235095E+02  0.43400728982E+02  0.00000000000E+00 0. -1.
         11    1    3    3    0    0 -0.37628685094E+01 -0.11613651693E+01  0.12264271684E+01  0.41245693515E+01  0.51100000000E-03 0. -1.
        -11    1    3    3    0    0  0.24572677420E-01 -0.48078186229E+01  0.15637460022E+02  0.16359886305E+02  0.51100000000E-03 0.  1.
        -12    1    3    3    0    0 -0.19212544444E+02 -0.54542556094E+00  0.19391347905E+02  0.27302815361E+02  0.00000000000E+00 0.  1.
</event>
<event>
 7    1  0.2733256E-010  0.4778727E+02  0.7816164E-02  0.1312668E+00
        -11   -1    0    0    0    0  0.00000000000E+00  0.00000000000E+00  0.45593999997E+02  0.45594000000E+02  0.51100000000E-03 0.  1.
         11   -1    0    0    0    0 -0.00000000000E+00 -0.00000000000E+00 -0.45593999997E+02  0.45594000000E+02  0.51100000000E-03 0. -1.
    9900012    2    1    2    0    0  0.37001833374E+02 -0.17295531290E+02  0.14674887800E+02  0.47787269504E+02  0.19999992978E+02 0.  0.
         12    1    1    2    0    0 -0.37001833374E+02  0.17295531290E+02 -0.14674887800E+02  0.43400730496E+02  0.00000000000E+00 0. -1.
         11    1    3    3    0    0  0.17993251796E+02 -0.53507861096E+01  0.54205352367E+01  0.19538941238E+02  0.51100000000E-03 0. -1.
        -11    1    3    3    0    0  0.19222176552E+02 -0.10976948888E+02  0.12105722994E+02  0.25229625596E+02  0.51100000000E-03 0.  1.
         12    1    3    3    0    0 -0.21359497352E+00 -0.96779629260E+00 -0.28513704310E+01  0.30187026703E+01  0.00000000000E+00 0. -1.
</event>
<event>
 7    1  0.2733256E-010  0.4778727E+02  0.7816164E-02  0.1312668E+00
        -11   -1    0    0    0    0  0.00000000000E+00  0.00000000000E+00  0.45593999997E+02  0.45594000000E+02  0.51100000000E-03 0.  1.
         11   -1    0    0    0    0 -0.00000000000E+00 -0.00000000000E+00 -0.45593999997E+02  0.45594000000E+02  0.51100000000E-03 0. -1.
    9900012    2    1    2    0    0 -0.28635090218E+02 -0.52872560756E+01  0.32182290500E+02  0.47787270853E+02  0.19999999128E+02 0.  0.
         12    1    1    2    0    0  0.28635090218E+02  0.52872560756E+01 -0.32182290500E+02  0.43400729147E+02  0.00000000000E+00 0. -1.
         11    1    3    3    0    0 -0.75051318658E+01 -0.78523610138E+01  0.65773854259E+01  0.12698369073E+02  0.51100000000E-03 0. -1.
        -11    1    3    3    0    0 -0.16373866213E+02 -0.26236832641E+01  0.14998314100E+02  0.22359262840E+02  0.51100000000E-03 0.  1.
        -12    1    3    3    0    0 -0.47560921395E+01  0.51887882023E+01  0.10606590974E+02  0.12729638940E+02  0.00000000000E+00 0.  1.
</event>
<event>
 7    1  0.2733256E-010  0.4778727E+02  0.7816164E-02  0.1312668E+00
        -11   -1    0    0    0    0  0.00000000000E+00  0.00000000000E+00  0.45593999997E+02  0.45594000000E+02  0.51100000000E-03 0.  1.
         11   -1    0    0    0    0 -0.00000000000E+00 -0.00000000000E+00 -0.45593999997E+02  0.45594000000E+02  0.51100000000E-03 0. -1.
    9900012    2    1    2    0    0  0.42718676094E+02 -0.15770763256E+00  0.76624317331E+01  0.47787273981E+02  0.20000013390E+02 0.  0.
         12    1    1    2    0    0 -0.42718676094E+02  0.15770763256E+00 -0.76624317331E+01  0.43400726019E+02  0.00000000000E+00 0. -1.
         11    1    3    3    0    0  0.23964219908E+01  0.21387791193E+01 -0.21507358995E+01  0.38656021070E+01  0.51100000000E-03 0. -1.
        -11    1    3    3    0    0  0.17222746715E+02 -0.13606300532E+01 -0.29309595125E+01  0.17523265748E+02  0.51100000000E-03 0.  1.
         12    1    3    3    0    0  0.23099507388E+02 -0.93585669866E+00  0.12744127145E+02  0.26398406126E+02  0.00000000000E+00 0. -1.
</event>
<event>
 7    1  0.2733256E-010  0.4778725E+02  0.7816164E-02  0.1312668E+00
        -11   -1    0    0    0    0  0.00000000000E+00  0.00000000000E+00  0.45593999997E+02  0.45594000000E+02  0.51100000000E-03 0.  1.
         11   -1    0    0    0    0 -0.00000000000E+00 -0.00000000000E+00 -0.45593999997E+02  0.45594000000E+02  0.51100000000E-03 0. -1.
    9900012    2    1    2    0    0 -0.94786363241E+01  0.38092675397E+02 -0.18512925223E+02  0.47787252705E+02  0.19999916383E+02 0.  0.
         12    1    1    2    0    0  0.94786363241E+01 -0.38092675397E+02  0.18512925223E+02  0.43400747295E+02  0.00000000000E+00 0. -1.
         11    1    3    3    0    0  0.13220435135E+01  0.13616660771E+02 -0.27725742214E+01  0.13958811471E+02  0.51100000000E-03 0. -1.
        -11    1    3    3    0    0 -0.14354704466E+01  0.41359827960E+01  0.24156715400E+01  0.50002398284E+01  0.51100000000E-03 0.  1.
         12    1    3    3    0    0 -0.93652093909E+01  0.20340031830E+02 -0.18156022541E+02  0.28828201406E+02  0.00000000000E+00 0. -1.
</event>
<event>
 7    1  0.2733256E-010  0.4778727E+02  0.7816164E-02  0.1312668E+00
        -11   -1    0    0    0    0  0.00000000000E+00  0.00000000000E+00  0.45593999997E+02  0.45594000000E+02  0.51100000000E-03 0.  1.
         11   -1    0    0    0    0 -0.00000000000E+00 -0.00000000000E+00 -0.45593999997E+02  0.45594000000E+02  0.51100000000E-03 0. -1.
    9900012    2    1    2    0    0 -0.10430265206E+02 -0.25989011308E+02  0.33157264814E+02  0.47787270156E+02  0.19999995949E+02 0.  0.
         12    1    1    2    0    0  0.10430265206E+02  0.25989011308E+02 -0.33157264814E+02  0.43400729844E+02  0.00000000000E+00 0. -1.
         11    1    3    3    0    0 -0.18134395261E+01 -0.18421044328E+01 -0.49255013241E+00  0.26314478050E+01  0.51100000000E-03 0. -1.
        -11    1    3    3    0    0 -0.13051506929E+02 -0.16045430961E+02  0.25540689246E+02  0.32865247531E+02  0.51100000000E-03 0.  1.
        -12    1    3    3    0    0  0.44346812496E+01 -0.81014759141E+01  0.81091257004E+01  0.12290574820E+02  0.00000000000E+00 0.  1.
</event>
<event>
 7    1  0.2733256E-010  0.4778727E+02  0.7816164E-02  0.1312668E+00
        -11   -1    0    0    0    0  0.00000000000E+00  0.00000000000E+00  0.45593999997E+02  0.45594000000E+02  0.51100000000E-03 0.  1.
         11   -1    0    0    0    0 -0.00000000000E+00 -0.00000000000E+00 -0.45593999997E+02  0.45594000000E+02  0.51100000000E-03 0. -1.
    9900012    2    1    2    0    0  0.30048248384E+02 -0.19762869830E+02  0.24293107060E+02  0.47787270680E+02  0.19999998338E+02 0.  0.
         12    1    1    2    0    0 -0.30048248384E+02  0.19762869830E+02 -0.24293107060E+02  0.43400729320E+02  0.00000000000E+00 0. -1.
         11    1    3    3    0    0  0.13838457986E+01 -0.71995732861E+01  0.42815601698E+01  0.84900319460E+01  0.51100000000E-03 0. -1.
        -11    1    3    3    0    0  0.68709789984E+01 -0.84450957492E+01  0.10628613693E+02  0.15215039399E+02  0.51100000000E-03 0.  1.
         12    1    3    3    0    0  0.21793423587E+02 -0.41182007952E+01  0.93829331971E+01  0.24082199335E+02  0.00000000000E+00 0. -1.
</event>
<event>
 7    1  0.2733256E-010  0.4778727E+02  0.7816164E-02  0.1312668E+00
        -11   -1    0    0    0    0  0.00000000000E+00  0.00000000000E+00  0.45593999997E+02  0.45594000000E+02  0.51100000000E-03 0.  1.
         11   -1    0    0    0    0 -0.00000000000E+00 -0.00000000000E+00 -0.45593999997E+02  0.45594000000E+02  0.51100000000E-03 0. -1.
    9900012    2    1    2    0    0 -0.10017377260E+02 -0.29469222313E-01  0.42228836554E+02  0.47787270140E+02  0.19999995878E+02 0.  0.
         12    1    1    2    0    0  0.10017377260E+02  0.29469222313E-01 -0.42228836554E+02  0.43400729860E+02  0.00000000000E+00 0. -1.
         11    1    3    3    0    0  0.37358246166E+01  0.17176972734E+01  0.14327220251E+02  0.14905573114E+02  0.51100000000E-03 0. -1.
        -11    1    3    3    0    0 -0.16138925536E+01 -0.44192933799E+01  0.52950198028E+01  0.70832222982E+01  0.51100000000E-03 0.  1.
         12    1    3    3    0    0 -0.12139309324E+02  0.26721268842E+01  0.22606596501E+02  0.25798474728E+02  0.00000000000E+00 0. -1.
</event>
<event>
 7    1  0.2733256E-010  0.4778728E+02  0.7816164E-02  0.1312668E+00
        -11   -1    0    0    0    0  0.00000000000E+00  0.00000000000E+00  0.45593999997E+02  0.45594000000E+02  0.51100000000E-03 0.  1.
         11   -1    0    0    0    0 -0.00000000000E+00 -0.00000000000E+00 -0.45593999997E+02  0.45594000000E+02  0.51100000000E-03 0. -1.
    9900012    2    1    2    0    0 -0.36458004521E+02 -0.22045349025E+02  0.82728100592E+01  0.47787275426E+02  0.20000019977E+02 0.  0.
         12    1    1    2    0    0  0.36458004521E+02  0.22045349025E+02 -0.82728100592E+01  0.43400724574E+02  0.00000000000E+00 0. -1.
         11    1    3    3    0    0 -0.19785822072E+02 -0.15738208200E+02 -0.39348662076E+01  0.25586190118E+02  0.51100000000E-03 0. -1.
        -11    1    3    3    0    0 -0.10102985327E+02 -0.11235799551E+01  0.70614956290E+01  0.12377296361E+02  0.51100000000E-03 0.  1.
         12    1    3    3    0    0 -0.65691971221E+01 -0.51835608697E+01  0.51461806378E+01  0.98237889470E+01  0.00000000000E+00 0. -1.
</event>
<event>
 7    1  0.2733256E-010  0.4778728E+02  0.7816164E-02  0.1312668E+00
        -11   -1    0    0    0    0  0.00000000000E+00  0.00000000000E+00  0.45593999997E+02  0.45594000000E+02  0.51100000000E-03 0.  1.
         11   -1    0    0    0    0 -0.00000000000E+00 -0.00000000000E+00 -0.45593999997E+02  0.45594000000E+02  0.51100000000E-03 0. -1.
    9900012    2    1    2    0    0 -0.23779013862E+02  0.17269306101E+02  0.31936694461E+02  0.47787275506E+02  0.20000020344E+02 0.  0.
         12    1    1    2    0    0  0.23779013862E+02 -0.17269306101E+02 -0.31936694461E+02  0.43400724494E+02  0.00000000000E+00 0. -1.
         11    1    3    3    0    0 -0.60037574562E+01  0.44604006935E+00  0.20267612935E+01  0.63523080009E+01  0.51100000000E-03 0. -1.
        -11    1    3    3    0    0 -0.44678504204E+01  0.12013066075E+01  0.15969891785E+02  0.16626553125E+02  0.51100000000E-03 0.  1.
         12    1    3    3    0    0 -0.13307405986E+02  0.15621959424E+02  0.13940041383E+02  0.24808414380E+02  0.00000000000E+00 0. -1.
</event>
<event>
 7    1  0.2733256E-010  0.4778727E+02  0.7816164E-02  0.1312668E+00
        -11   -1    0    0    0    0  0.00000000000E+00  0.00000000000E+00  0.45593999997E+02  0.45594000000E+02  0.51100000000E-03 0.  1.
         11   -1    0    0    0    0 -0.00000000000E+00 -0.00000000000E+00 -0.45593999997E+02  0.45594000000E+02  0.51100000000E-03 0. -1.
    9900012    2    1    2    0    0  0.33849492713E+02  0.24471998671E+02 -0.11787986360E+02  0.47787268459E+02  0.19999988210E+02 0.  0.
         12    1    1    2    0    0 -0.33849492713E+02 -0.24471998671E+02  0.11787986360E+02  0.43400731541E+02  0.00000000000E+00 0. -1.
         11    1    3    3    0    0  0.31916538039E+01  0.49766915110E+01  0.41700483612E+00  0.59268883653E+01  0.51100000000E-03 0. -1.
        -11    1    3    3    0    0  0.29109309228E+02  0.21854479971E+02 -0.13410205132E+02  0.38791800428E+02  0.51100000000E-03 0.  1.
         12    1    3    3    0    0  0.15485296818E+01 -0.23591728114E+01  0.12052139359E+01  0.30685796650E+01  0.00000000000E+00 0. -1.
</event>
<event>
 7    1  0.2733256E-010  0.4778728E+02  0.7816164E-02  0.1312668E+00
        -11   -1    0    0    0    0  0.00000000000E+00  0.00000000000E+00  0.45593999997E+02  0.45594000000E+02  0.51100000000E-03 0.  1.
         11   -1    0    0    0    0 -0.00000000000E+00 -0.00000000000E+00 -0.45593999997E+02  0.45594000000E+02  0.51100000000E-03 0. -1.
    9900012    2    1    2    0    0  0.62582720313E+01 -0.25074485470E+02  0.34867277441E+02  0.47787276198E+02  0.20000023496E+02 0.  0.
         12    1    1    2    0    0 -0.62582720313E+01  0.25074485470E+02 -0.34867277441E+02  0.43400723802E+02  0.00000000000E+00 0. -1.
         11    1    3    3    0    0 -0.15587820047E+01 -0.38053490482E+01  0.67927880413E+00  0.41679614527E+01  0.51100000000E-03 0. -1.
        -11    1    3    3    0    0 -0.40280839248E+01 -0.97750131544E+01  0.12730185344E+02  0.16547929219E+02  0.51100000000E-03 0.  1.
         12    1    3    3    0    0  0.11845137961E+02 -0.11494123267E+02  0.21457813293E+02  0.27071385526E+02  0.00000000000E+00 0. -1.
</event>
<event>
 7    1  0.2733256E-010  0.4778728E+02  0.7816164E-02  0.1312668E+00
        -11   -1    0    0    0    0  0.00000000000E+00  0.00000000000E+00  0.45593999997E+02  0.45594000000E+02  0.51100000000E-03 0.  1.
         11   -1    0    0    0    0 -0.00000000000E+00 -0.00000000000E+00 -0.45593999997E+02  0.45594000000E+02  0.51100000000E-03 0. -1.
    9900012    2    1    2    0    0 -0.16703583866E+02  0.33971703947E+02  0.21225842723E+02  0.47787276707E+02  0.20000025820E+02 0.  0.
         12    1    1    2    0    0  0.16703583866E+02 -0.33971703947E+02 -0.21225842723E+02  0.43400723293E+02  0.00000000000E+00 0. -1.
         11    1    3    3    0    0  0.93428922131E+00  0.10944458986E+02  0.54890104779E+01  0.12279385780E+02  0.51100000000E-03 0. -1.
        -11    1    3    3    0    0 -0.18168064725E+02  0.24361165594E+02  0.14895399248E+02  0.33844022869E+02  0.51100000000E-03 0.  1.
         12    1    3    3    0    0  0.53019163731E+00 -0.13339206332E+01  0.84143299723E+00  0.16638680587E+01  0.00000000000E+00 0. -1.
</event>
<event>
 7    1  0.2733256E-010  0.4778727E+02  0.7816164E-02  0.1312668E+00
        -11   -1    0    0    0    0  0.00000000000E+00  0.00000000000E+00  0.45593999997E+02  0.45594000000E+02  0.51100000000E-03 0.  1.
         11   -1    0    0    0    0 -0.00000000000E+00 -0.00000000000E+00 -0.45593999997E+02  0.45594000000E+02  0.51100000000E-03 0. -1.
    9900012    2    1    2    0    0  0.24459113637E+02  0.27552591258E+02  0.22939698390E+02  0.47787270891E+02  0.19999999299E+02 0.  0.
         12    1    1    2    0    0 -0.24459113637E+02 -0.27552591258E+02 -0.22939698390E+02  0.43400729109E+02  0.00000000000E+00 0. -1.
         11    1    3    3    0    0  0.41637709729E+01 -0.33382629880E+00 -0.14369946795E+01  0.44173954637E+01  0.51100000000E-03 0. -1.
        -11    1    3    3    0    0  0.35625495132E+01  0.24119543337E+01  0.71920921730E+01  0.83806606439E+01  0.51100000000E-03 0.  1.
        -12    1    3    3    0    0  0.16732793151E+02  0.25474463223E+02  0.17184600897E+02  0.34989214783E+02  0.00000000000E+00 0.  1.
</event>
<event>
 7    1  0.2733256E-010  0.4778728E+02  0.7816164E-02  0.1312668E+00
        -11   -1    0    0    0    0  0.00000000000E+00  0.00000000000E+00  0.45593999997E+02  0.45594000000E+02  0.51100000000E-03 0.  1.
         11   -1    0    0    0    0 -0.00000000000E+00 -0.00000000000E+00 -0.45593999997E+02  0.45594000000E+02  0.51100000000E-03 0. -1.
    9900012    2    1    2    0    0 -0.37778215721E+02 -0.16181992194E+02  0.13948898997E+02  0.47787282982E+02  0.20000054429E+02 0.  0.
         12    1    1    2    0    0  0.37778215721E+02  0.16181992194E+02 -0.13948898997E+02  0.43400717018E+02  0.00000000000E+00 0. -1.
         11    1    3    3    0    0 -0.65045148994E+01 -0.57073799054E+01 -0.24322885993E+01  0.89888223674E+01  0.51100000000E-03 0. -1.
        -11    1    3    3    0    0 -0.17787735857E+02 -0.12022977469E+02  0.84223336110E+01  0.23062767351E+02  0.51100000000E-03 0.  1.
        -12    1    3    3    0    0 -0.13485964964E+02  0.15483651806E+01  0.79588539849E+01  0.15735693264E+02  0.00000000000E+00 0.  1.
</event>
<event>
 7    1  0.2733256E-010  0.4778727E+02  0.7816164E-02  0.1312668E+00
        -11   -1    0    0    0    0  0.00000000000E+00  0.00000000000E+00  0.45593999997E+02  0.45594000000E+02  0.51100000000E-03 0. -1.
         11   -1    0    0    0    0 -0.00000000000E+00 -0.00000000000E+00 -0.45593999997E+02  0.45594000000E+02  0.51100000000E-03 0.  1.
    9900012    2    1    2    0    0 -0.21019565000E+02  0.50510124639E+01 -0.37633606277E+02  0.47787272344E+02  0.20000005923E+02 0.  0.
         12    1    1    2    0    0  0.21019565000E+02 -0.50510124639E+01  0.37633606277E+02  0.43400727656E+02  0.00000000000E+00 0. -1.
         11    1    3    3    0    0  0.13119626473E+01 -0.11790690188E+01  0.10315956722E+01  0.20434381887E+01  0.51100000000E-03 0. -1.
        -11    1    3    3    0    0 -0.27041295458E+00  0.80177745837E+00  0.57737782169E-01  0.84811801736E+00  0.51100000000E-03 0.  1.
        -12    1    3    3    0    0 -0.22061114693E+02  0.54283040243E+01 -0.38722939731E+02  0.44895716138E+02  0.00000000000E+00 0.  1.
</event>
<event>
 7    1  0.2733256E-010  0.4778727E+02  0.7816164E-02  0.1312668E+00
        -11   -1    0    0    0    0  0.00000000000E+00  0.00000000000E+00  0.45593999997E+02  0.45594000000E+02  0.51100000000E-03 0. -1.
         11   -1    0    0    0    0 -0.00000000000E+00 -0.00000000000E+00 -0.45593999997E+02  0.45594000000E+02  0.51100000000E-03 0.  1.
    9900012    2    1    2    0    0 -0.31791307623E+01  0.18802876404E+02 -0.38986772919E+02  0.47787268484E+02  0.19999988325E+02 0.  0.
         12    1    1    2    0    0  0.31791307623E+01 -0.18802876404E+02  0.38986772919E+02  0.43400731516E+02  0.00000000000E+00 0. -1.
         11    1    3    3    0    0 -0.58810191234E+01  0.61081472040E+01 -0.17495820789E+02  0.19442211643E+02  0.51100000000E-03 0. -1.
        -11    1    3    3    0    0  0.24748798245E+01  0.58678979360E+00 -0.13725302465E+02  0.13958985652E+02  0.51100000000E-03 0.  1.
         12    1    3    3    0    0  0.22700853660E+00  0.12107939407E+02 -0.77656496644E+01  0.14386071189E+02  0.00000000000E+00 0. -1.
</event>
<event>
 7    1  0.2733256E-010  0.4778727E+02  0.7816164E-02  0.1312668E+00
        -11   -1    0    0    0    0  0.00000000000E+00  0.00000000000E+00  0.45593999997E+02  0.45594000000E+02  0.51100000000E-03 0. -1.
         11   -1    0    0    0    0 -0.00000000000E+00 -0.00000000000E+00 -0.45593999997E+02  0.45594000000E+02  0.51100000000E-03 0.  1.
    9900012    2    1    2    0    0 -0.27905682772E+02  0.31147306063E+02 -0.11607818822E+02  0.47787271161E+02  0.20000000531E+02 0.  0.
         12    1    1    2    0    0  0.27905682772E+02 -0.31147306063E+02  0.11607818822E+02  0.43400728839E+02  0.00000000000E+00 0. -1.
         11    1    3    3    0    0 -0.10871237879E+02  0.75839535582E+01 -0.75458611802E+01  0.15252546863E+02  0.51100000000E-03 0. -1.
        -11    1    3    3    0    0 -0.81539059928E+01  0.11768187944E+02 -0.90651113966E+01  0.16945579817E+02  0.51100000000E-03 0.  1.
        -12    1    3    3    0    0 -0.88805389007E+01  0.11795164560E+02  0.50031537547E+01  0.15589144481E+02  0.00000000000E+00 0.  1.
</event>
<event>
 7    1  0.2733256E-010  0.4778727E+02  0.7816164E-02  0.1312668E+00
        -11   -1    0    0    0    0  0.00000000000E+00  0.00000000000E+00  0.45593999997E+02  0.45594000000E+02  0.51100000000E-03 0. -1.
         11   -1    0    0    0    0 -0.00000000000E+00 -0.00000000000E+00 -0.45593999997E+02  0.45594000000E+02  0.51100000000E-03 0.  1.
    9900012    2    1    2    0    0  0.26122495564E+02  0.63114730511E+01 -0.34079371049E+02  0.47787274227E+02  0.20000014509E+02 0.  0.
         12    1    1    2    0    0 -0.26122495564E+02 -0.63114730511E+01  0.34079371049E+02  0.43400725773E+02  0.00000000000E+00 0. -1.
         11    1    3    3    0    0  0.20358324441E+02 -0.14121152051E+01 -0.18903966091E+02  0.27817537232E+02  0.51100000000E-03 0. -1.
        -11    1    3    3    0    0  0.80211274433E+01  0.55673188023E+01 -0.10404176368E+02  0.14268160717E+02  0.51100000000E-03 0.  1.
         12    1    3    3    0    0 -0.22569563205E+01  0.21562694539E+01 -0.47712285902E+01  0.57015762777E+01  0.00000000000E+00 0. -1.
</event>
<event>
 7    1  0.2733256E-010  0.4778727E+02  0.7816164E-02  0.1312668E+00
        -11   -1    0    0    0    0  0.00000000000E+00  0.00000000000E+00  0.45593999997E+02  0.45594000000E+02  0.51100000000E-03 0.  1.
         11   -1    0    0    0    0 -0.00000000000E+00 -0.00000000000E+00 -0.45593999997E+02  0.45594000000E+02  0.51100000000E-03 0. -1.
    9900012    2    1    2    0    0 -0.20991312274E+02 -0.35869684235E+02 -0.12504149122E+02  0.47787272087E+02  0.20000004755E+02 0.  0.
         12    1    1    2    0    0  0.20991312274E+02  0.35869684235E+02  0.12504149122E+02  0.43400727913E+02  0.00000000000E+00 0. -1.
         11    1    3    3    0    0 -0.64227273004E+01 -0.16237813522E+02 -0.14092749102E+02  0.22439331351E+02  0.51100000000E-03 0. -1.
        -11    1    3    3    0    0 -0.50903910279E+01 -0.77696397315E+01 -0.25077778914E+01  0.96212438170E+01  0.51100000000E-03 0.  1.
         12    1    3    3    0    0 -0.94781939460E+01 -0.11862230981E+02  0.40963778719E+01  0.15726696919E+02  0.00000000000E+00 0. -1.
</event>
<event>
 7    1  0.2733256E-010  0.4778728E+02  0.7816164E-02  0.1312668E+00
        -11   -1    0    0    0    0  0.00000000000E+00  0.00000000000E+00  0.45593999997E+02  0.45594000000E+02  0.51100000000E-03 0.  1.
         11   -1    0    0    0    0 -0.00000000000E+00 -0.00000000000E+00 -0.45593999997E+02  0.45594000000E+02  0.51100000000E-03 0. -1.
    9900012    2    1    2    0    0 -0.98544794612E+01  0.23511319361E+00  0.42266492455E+02  0.47787280788E+02  0.20000044423E+02 0.  0.
         12    1    1    2    0    0  0.98544794612E+01 -0.23511319361E+00 -0.42266492455E+02  0.43400719212E+02  0.00000000000E+00 0. -1.
         11    1    3    3    0    0  0.22176179236E+01  0.85468647958E+00  0.18255052392E+02  0.18409107972E+02  0.51100000000E-03 0. -1.
        -11    1    3    3    0    0  0.10196818124E+01  0.37161003573E+00  0.10436695369E+02  0.10492971719E+02  0.51100000000E-03 0.  1.
         12    1    3    3    0    0 -0.13091779197E+02 -0.99118332170E+00  0.13574744695E+02  0.18885201096E+02  0.00000000000E+00 0. -1.
</event>
<event>
 7    1  0.2733256E-010  0.4778728E+02  0.7816164E-02  0.1312668E+00
        -11   -1    0    0    0    0  0.00000000000E+00  0.00000000000E+00  0.45593999997E+02  0.45594000000E+02  0.51100000000E-03 0.  1.
         11   -1    0    0    0    0 -0.00000000000E+00 -0.00000000000E+00 -0.45593999997E+02  0.45594000000E+02  0.51100000000E-03 0. -1.
    9900012    2    1    2    0    0 -0.39137194514E+02  0.15892141570E+02 -0.99670648930E+01  0.47787279491E+02  0.20000038512E+02 0.  0.
         12    1    1    2    0    0  0.39137194514E+02 -0.15892141570E+02  0.99670648930E+01  0.43400720509E+02  0.00000000000E+00 0. -1.
         11    1    3    3    0    0 -0.86714267568E+01  0.95912062919E+01  0.21288454486E+01  0.13104078119E+02  0.51100000000E-03 0. -1.
        -11    1    3    3    0    0 -0.14224906433E+02  0.24705322992E+01 -0.65779355406E+00  0.14452826211E+02  0.51100000000E-03 0.  1.
         12    1    3    3    0    0 -0.16240861324E+02  0.38304029789E+01 -0.11438116788E+02  0.20230375161E+02  0.00000000000E+00 0. -1.
</event>
<event>
 7    1  0.2733256E-010  0.4778727E+02  0.7816164E-02  0.1312668E+00
        -11   -1    0    0    0    0  0.00000000000E+00  0.00000000000E+00  0.45593999997E+02  0.45594000000E+02  0.51100000000E-03 0. -1.
         11   -1    0    0    0    0 -0.00000000000E+00 -0.00000000000E+00 -0.45593999997E+02  0.45594000000E+02  0.51100000000E-03 0.  1.
    9900012    2    1    2    0    0  0.33363770083E+01 -0.31628073959E+02 -0.29532295660E+02  0.47787274650E+02  0.20000016441E+02 0.  0.
         12    1    1    2    0    0 -0.33363770083E+01  0.31628073959E+02  0.29532295660E+02  0.43400725350E+02  0.00000000000E+00 0. -1.
         11    1    3    3    0    0 -0.31675333621E+01 -0.12255174903E+02 -0.40243023022E+01  0.13282228306E+02  0.51100000000E-03 0. -1.
        -11    1    3    3    0    0  0.88409577775E+01 -0.17818135021E+02 -0.19409974850E+02  0.27792005937E+02  0.51100000000E-03 0.  1.
         12    1    3    3    0    0 -0.23370474071E+01 -0.15547640354E+01 -0.60980185079E+01  0.67130404074E+01  0.00000000000E+00 0. -1.
</event>
<event>
 7    1  0.2733256E-010  0.4778727E+02  0.7816164E-02  0.1312668E+00
        -11   -1    0    0    0    0  0.00000000000E+00  0.00000000000E+00  0.45593999997E+02  0.45594000000E+02  0.51100000000E-03 0. -1.
         11   -1    0    0    0    0 -0.00000000000E+00 -0.00000000000E+00 -0.45593999997E+02  0.45594000000E+02  0.51100000000E-03 0.  1.
    9900012    2    1    2    0    0 -0.13021004377E+02  0.38868931431E+02 -0.14257720192E+02  0.47787274538E+02  0.20000015928E+02 0.  0.
         12    1    1    2    0    0  0.13021004377E+02 -0.38868931431E+02  0.14257720192E+02  0.43400725462E+02  0.00000000000E+00 0. -1.
         11    1    3    3    0    0 -0.19339638678E+01  0.18778221898E+01 -0.20197498962E+01  0.33683560267E+01  0.51100000000E-03 0. -1.
        -11    1    3    3    0    0  0.12155795651E+01  0.60233689715E+01 -0.90579187799E+01  0.10945524215E+02  0.51100000000E-03 0.  1.
         12    1    3    3    0    0 -0.12302620075E+02  0.30967740269E+02 -0.31800515161E+01  0.33473394297E+02  0.00000000000E+00 0. -1.
</event>
<event>
 7    1  0.2733256E-010  0.4778727E+02  0.7816164E-02  0.1312668E+00
        -11   -1    0    0    0    0  0.00000000000E+00  0.00000000000E+00  0.45593999997E+02  0.45594000000E+02  0.51100000000E-03 0.  1.
         11   -1    0    0    0    0 -0.00000000000E+00 -0.00000000000E+00 -0.45593999997E+02  0.45594000000E+02  0.51100000000E-03 0. -1.
    9900012    2    1    2    0    0 -0.32266239186E+02  0.11479265080E+02 -0.26659698835E+02  0.47787271205E+02  0.20000000732E+02 0.  0.
         12    1    1    2    0    0  0.32266239186E+02 -0.11479265080E+02  0.26659698835E+02  0.43400728795E+02  0.00000000000E+00 0. -1.
         11    1    3    3    0    0  0.32578344506E+00 -0.18037282072E+01 -0.90982315504E+00  0.20463012322E+01  0.51100000000E-03 0. -1.
        -11    1    3    3    0    0 -0.60883050988E+01 -0.28610738423E+01 -0.54510338955E+01  0.86583470304E+01  0.51100000000E-03 0.  1.
        -12    1    3    3    0    0 -0.26503717532E+02  0.16144067129E+02 -0.20298841784E+02  0.37082622942E+02  0.00000000000E+00 0.  1.
</event>
<event>
 7    1  0.2733256E-010  0.4778727E+02  0.7816164E-02  0.1312668E+00
        -11   -1    0    0    0    0  0.00000000000E+00  0.00000000000E+00  0.45593999997E+02  0.45594000000E+02  0.51100000000E-03 0.  1.
         11   -1    0    0    0    0 -0.00000000000E+00 -0.00000000000E+00 -0.45593999997E+02  0.45594000000E+02  0.51100000000E-03 0. -1.
    9900012    2    1    2    0    0 -0.35510982010E+02  0.39812132215E+01  0.24632163435E+02  0.47787269850E+02  0.19999994556E+02 0.  0.
         12    1    1    2    0    0  0.35510982010E+02 -0.39812132215E+01 -0.24632163435E+02  0.43400730150E+02  0.00000000000E+00 0. -1.
         11    1    3    3    0    0 -0.25265828596E+01 -0.24948077263E+01  0.13604103155E+01  0.38024206797E+01  0.51100000000E-03 0. -1.
        -11    1    3    3    0    0 -0.27344862554E+02  0.16885304286E+01  0.24167768697E+02  0.36533186108E+02  0.51100000000E-03 0.  1.
         12    1    3    3    0    0 -0.56395365961E+01  0.47874905192E+01 -0.89601557775E+00  0.74516630631E+01  0.00000000000E+00 0. -1.
</event>
<event>
 7    1  0.2733256E-010  0.4778727E+02  0.7816164E-02  0.1312668E+00
        -11   -1    0    0    0    0  0.00000000000E+00  0.00000000000E+00  0.45593999997E+02  0.45594000000E+02  0.51100000000E-03 0. -1.
         11   -1    0    0    0    0 -0.00000000000E+00 -0.00000000000E+00 -0.45593999997E+02  0.45594000000E+02  0.51100000000E-03 0.  1.
    9900012    2    1    2    0    0 -0.35868090011E+02  0.22232374938E+02 -0.10140262116E+02  0.47787270833E+02  0.19999999038E+02 0.  0.
         12    1    1    2    0    0  0.35868090011E+02 -0.22232374938E+02  0.10140262116E+02  0.43400729167E+02  0.00000000000E+00 0. -1.
         11    1    3    3    0    0 -0.41459411088E+01  0.35991424486E+01 -0.83450693337E+01  0.99891359230E+01  0.51100000000E-03 0. -1.
        -11    1    3    3    0    0 -0.31395218882E+01  0.60332220009E+00  0.20318091093E+01  0.37879867848E+01  0.51100000000E-03 0.  1.
        -12    1    3    3    0    0 -0.28582627014E+02  0.18029910289E+02 -0.38270018913E+01  0.34010148126E+02  0.00000000000E+00 0.  1.
</event>
<event>
 7    1  0.2733256E-010  0.4778727E+02  0.7816164E-02  0.1312668E+00
        -11   -1    0    0    0    0  0.00000000000E+00  0.00000000000E+00  0.45593999997E+02  0.45594000000E+02  0.51100000000E-03 0. -1.
         11   -1    0    0    0    0 -0.00000000000E+00 -0.00000000000E+00 -0.45593999997E+02  0.45594000000E+02  0.51100000000E-03 0.  1.
    9900012    2    1    2    0    0  0.37279391016E+02 -0.12422522291E+02 -0.18426919960E+02  0.47787269202E+02  0.19999991599E+02 0.  0.
         12    1    1    2    0    0 -0.37279391016E+02  0.12422522291E+02  0.18426919960E+02  0.43400730798E+02  0.00000000000E+00 0. -1.
         11    1    3    3    0    0  0.28590876412E+01  0.34144074513E+01 -0.56617193620E+01  0.72033066559E+01  0.51100000000E-03 0. -1.
        -11    1    3    3    0    0  0.17055483799E+00 -0.87287068003E-02  0.54779644652E+00  0.57379992247E+00  0.51100000000E-03 0.  1.
        -12    1    3    3    0    0  0.34249748537E+02 -0.15828201036E+02 -0.13312997045E+02  0.40010162624E+02  0.00000000000E+00 0.  1.
</event>
<event>
 7    1  0.2733256E-010  0.4778727E+02  0.7816164E-02  0.1312668E+00
        -11   -1    0    0    0    0  0.00000000000E+00  0.00000000000E+00  0.45593999997E+02  0.45594000000E+02  0.51100000000E-03 0.  1.
         11   -1    0    0    0    0 -0.00000000000E+00 -0.00000000000E+00 -0.45593999997E+02  0.45594000000E+02  0.51100000000E-03 0. -1.
    9900012    2    1    2    0    0 -0.24462603514E+02 -0.35464278905E+02 -0.52430435148E+01  0.47787267815E+02  0.19999985276E+02 0.  0.
         12    1    1    2    0    0  0.24462603514E+02  0.35464278905E+02  0.52430435148E+01  0.43400732185E+02  0.00000000000E+00 0. -1.
         11    1    3    3    0    0  0.23399597279E+01 -0.39630920840E+01 -0.15231200016E+01  0.48478247900E+01  0.51100000000E-03 0. -1.
        -11    1    3    3    0    0 -0.85803724993E+01 -0.18374220607E+02 -0.27038544606E+01  0.20458387139E+02  0.51100000000E-03 0.  1.
        -12    1    3    3    0    0 -0.18222190742E+02 -0.13126966214E+02 -0.10160690526E+01  0.22481055886E+02  0.00000000000E+00 0.  1.
</event>
<event>
 7    1  0.2733256E-010  0.4778727E+02  0.7816164E-02  0.1312668E+00
        -11   -1    0    0    0    0  0.00000000000E+00  0.00000000000E+00  0.45593999997E+02  0.45594000000E+02  0.51100000000E-03 0.  1.
         11   -1    0    0    0    0 -0.00000000000E+00 -0.00000000000E+00 -0.45593999997E+02  0.45594000000E+02  0.51100000000E-03 0. -1.
    9900012    2    1    2    0    0  0.36504429219E+02 -0.23151202833E+02 -0.38822221274E+01  0.47787271966E+02  0.20000004202E+02 0.  0.
         12    1    1    2    0    0 -0.36504429219E+02  0.23151202833E+02  0.38822221274E+01  0.43400728034E+02  0.00000000000E+00 0. -1.
         11    1    3    3    0    0  0.11955577127E+02 -0.71731197940E+01  0.23480477756E+01  0.14138698690E+02  0.51100000000E-03 0.  1.
        -11    1    3    3    0    0  0.33801580151E+01  0.29856348848E+01  0.18154560588E+00  0.45135842676E+01  0.51100000000E-03 0. -1.
         12    1    3    3    0    0  0.21168694077E+02 -0.18963717924E+02 -0.64118155089E+01  0.29134989009E+02  0.00000000000E+00 0. -1.
</event>
<event>
 7    1  0.2733256E-010  0.4778725E+02  0.7816164E-02  0.1312668E+00
        -11   -1    0    0    0    0  0.00000000000E+00  0.00000000000E+00  0.45593999997E+02  0.45594000000E+02  0.51100000000E-03 0.  1.
         11   -1    0    0    0    0 -0.00000000000E+00 -0.00000000000E+00 -0.45593999997E+02  0.45594000000E+02  0.51100000000E-03 0. -1.
    9900012    2    1    2    0    0 -0.13749903547E+02 -0.28765838344E+02  0.29446427744E+02  0.47787246434E+02  0.19999887791E+02 0.  0.
         12    1    1    2    0    0  0.13749903547E+02  0.28765838344E+02 -0.29446427744E+02  0.43400753566E+02  0.00000000000E+00 0. -1.
         11    1    3    3    0    0 -0.90785814706E+01 -0.19494352293E+02  0.15707253796E+02  0.26630212821E+02  0.51100000000E-03 0. -1.
        -11    1    3    3    0    0 -0.84246979896E+01 -0.80809455537E+01  0.12317701473E+02  0.16970650756E+02  0.51100000000E-03 0.  1.
         12    1    3    3    0    0  0.37533759132E+01 -0.11905404978E+01  0.14214724753E+01  0.41863828564E+01  0.00000000000E+00 0. -1.
</event>
<event>
 7    1  0.2733256E-010  0.4778727E+02  0.7816164E-02  0.1312668E+00
        -11   -1    0    0    0    0  0.00000000000E+00  0.00000000000E+00  0.45593999997E+02  0.45594000000E+02  0.51100000000E-03 0. -1.
         11   -1    0    0    0    0 -0.00000000000E+00 -0.00000000000E+00 -0.45593999997E+02  0.45594000000E+02  0.51100000000E-03 0.  1.
    9900012    2    1    2    0    0 -0.20184451841E+02  0.10590854413E+02 -0.36932980061E+02  0.47787270633E+02  0.19999998126E+02 0.  0.
         12    1    1    2    0    0  0.20184451841E+02 -0.10590854413E+02  0.36932980061E+02  0.43400729367E+02  0.00000000000E+00 0. -1.
         11    1    3    3    0    0  0.17196118877E+01  0.73415388473E+00 -0.15441244885E+02  0.15554037766E+02  0.51100000000E-03 0.  1.
        -11    1    3    3    0    0 -0.12456049721E+02  0.56186642476E+01 -0.11974492086E+02  0.18168957690E+02  0.51100000000E-03 0. -1.
        -12    1    3    3    0    0 -0.94480140082E+01  0.42380362811E+01 -0.95172430906E+01  0.14064275177E+02  0.00000000000E+00 0.  1.
</event>
<event>
 7    1  0.2733256E-010  0.4778727E+02  0.7816164E-02  0.1312668E+00
        -11   -1    0    0    0    0  0.00000000000E+00  0.00000000000E+00  0.45593999997E+02  0.45594000000E+02  0.51100000000E-03 0.  1.
         11   -1    0    0    0    0 -0.00000000000E+00 -0.00000000000E+00 -0.45593999997E+02  0.45594000000E+02  0.51100000000E-03 0. -1.
    9900012    2    1    2    0    0 -0.19004140132E+02  0.16590868940E+02  0.35315847717E+02  0.47787269887E+02  0.19999994723E+02 0.  0.
         12    1    1    2    0    0  0.19004140132E+02 -0.16590868940E+02 -0.35315847717E+02  0.43400730113E+02  0.00000000000E+00 0. -1.
         11    1    3    3    0    0 -0.62903474874E+01  0.11544544623E+01  0.76780487404E+01  0.99926807884E+01  0.51100000000E-03 0. -1.
        -11    1    3    3    0    0 -0.12967321918E+02  0.18540568502E+02  0.24946774762E+02  0.33678564242E+02  0.51100000000E-03 0.  1.
         12    1    3    3    0    0  0.25352927287E+00 -0.31041540243E+01  0.26910242149E+01  0.41160248571E+01  0.00000000000E+00 0. -1.
</event>
<event>
 7    1  0.2733256E-010  0.4778724E+02  0.7816164E-02  0.1312668E+00
        -11   -1    0    0    0    0  0.00000000000E+00  0.00000000000E+00  0.45593999997E+02  0.45594000000E+02  0.51100000000E-03 0.  1.
         11   -1    0    0    0    0 -0.00000000000E+00 -0.00000000000E+00 -0.45593999997E+02  0.45594000000E+02  0.51100000000E-03 0. -1.
    9900012    2    1    2    0    0 -0.13315461687E+02 -0.15626519611E+02  0.38237886833E+02  0.47787243963E+02  0.19999876525E+02 0.  0.
         12    1    1    2    0    0  0.13315461687E+02  0.15626519611E+02 -0.38237886833E+02  0.43400756037E+02  0.00000000000E+00 0. -1.
         11    1    3    3    0    0 -0.30353993862E+01 -0.12650550199E+02  0.30692814049E+02  0.33336150112E+02  0.51100000000E-03 0. -1.
        -11    1    3    3    0    0 -0.40429586166E+01 -0.27611791630E+01  0.32353638001E+00  0.49065569186E+01  0.51100000000E-03 0.  1.
        -12    1    3    3    0    0 -0.62371036846E+01 -0.21479024952E+00  0.72215364041E+01  0.95445369327E+01  0.00000000000E+00 0.  1.
</event>
<event>
 7    1  0.2733256E-010  0.4778727E+02  0.7816164E-02  0.1312668E+00
        -11   -1    0    0    0    0  0.00000000000E+00  0.00000000000E+00  0.45593999997E+02  0.45594000000E+02  0.51100000000E-03 0.  1.
         11   -1    0    0    0    0 -0.00000000000E+00 -0.00000000000E+00 -0.45593999997E+02  0.45594000000E+02  0.51100000000E-03 0. -1.
    9900012    2    1    2    0    0 -0.42677701462E+01  0.22290672410E+02  0.36993716883E+02  0.47787273885E+02  0.20000012951E+02 0.  0.
         12    1    1    2    0    0  0.42677701462E+01 -0.22290672410E+02 -0.36993716883E+02  0.43400726115E+02  0.00000000000E+00 0. -1.
         11    1    3    3    0    0  0.10337081183E+01  0.45541617682E+01 -0.47556094865E+00  0.46941559797E+01  0.51100000000E-03 0. -1.
        -11    1    3    3    0    0 -0.39352883429E+01  0.11704353491E+02  0.13314784068E+02  0.18159346355E+02  0.51100000000E-03 0.  1.
        -12    1    3    3    0    0 -0.13661899215E+01  0.60321571512E+01  0.24154493763E+02  0.24933771550E+02  0.00000000000E+00 0.  1.
</event>
<event>
 7    1  0.2733256E-010  0.4778727E+02  0.7816164E-02  0.1312668E+00
        -11   -1    0    0    0    0  0.00000000000E+00  0.00000000000E+00  0.45593999997E+02  0.45594000000E+02  0.51100000000E-03 0. -1.
         11   -1    0    0    0    0 -0.00000000000E+00 -0.00000000000E+00 -0.45593999997E+02  0.45594000000E+02  0.51100000000E-03 0.  1.
    9900012    2    1    2    0    0 -0.58076078607E+01 -0.25588440779E+02 -0.34570601407E+02  0.47787273137E+02  0.20000009543E+02 0.  0.
         12    1    1    2    0    0  0.58076078607E+01  0.25588440779E+02  0.34570601407E+02  0.43400726863E+02  0.00000000000E+00 0. -1.
         11    1    3    3    0    0 -0.42712417610E+00 -0.10476390748E+01 -0.57457724208E+01  0.58560979897E+01  0.51100000000E-03 0. -1.
        -11    1    3    3    0    0  0.29740582601E+01 -0.21080093327E+02 -0.18478009013E+02  0.28189575636E+02  0.51100000000E-03 0.  1.
        -12    1    3    3    0    0 -0.83545419447E+01 -0.34607083776E+01 -0.10346819973E+02  0.13741599512E+02  0.00000000000E+00 0.  1.
</event>
<event>
 7    1  0.2733256E-010  0.4778727E+02  0.7816164E-02  0.1312668E+00
        -11   -1    0    0    0    0  0.00000000000E+00  0.00000000000E+00  0.45593999997E+02  0.45594000000E+02  0.51100000000E-03 0.  1.
         11   -1    0    0    0    0 -0.00000000000E+00 -0.00000000000E+00 -0.45593999997E+02  0.45594000000E+02  0.51100000000E-03 0. -1.
    9900012    2    1    2    0    0  0.34313540491E+02 -0.26528936594E+02 -0.15555751887E+01  0.47787270145E+02  0.19999995897E+02 0.  0.
         12    1    1    2    0    0 -0.34313540491E+02  0.26528936594E+02  0.15555751887E+01  0.43400729855E+02  0.00000000000E+00 0. -1.
         11    1    3    3    0    0  0.19788352959E+02 -0.16812777854E+02 -0.12693792345E+01  0.25997302473E+02  0.51100000000E-03 0. -1.
        -11    1    3    3    0    0  0.52444383035E+01 -0.11174747971E+02 -0.88764202821E+00  0.12376066983E+02  0.51100000000E-03 0.  1.
         12    1    3    3    0    0  0.92807492285E+01  0.14585892312E+01  0.60144607404E+00  0.94139006883E+01  0.00000000000E+00 0. -1.
</event>
<event>
 7    1  0.2733256E-010  0.4778727E+02  0.7816164E-02  0.1312668E+00
        -11   -1    0    0    0    0  0.00000000000E+00  0.00000000000E+00  0.45593999997E+02  0.45594000000E+02  0.51100000000E-03 0. -1.
         11   -1    0    0    0    0 -0.00000000000E+00 -0.00000000000E+00 -0.45593999997E+02  0.45594000000E+02  0.51100000000E-03 0.  1.
    9900012    2    1    2    0    0 -0.14874429532E+02  0.23751545250E+02  0.33139685590E+02  0.47787270551E+02  0.19999997752E+02 0.  0.
         12    1    1    2    0    0  0.14874429532E+02 -0.23751545250E+02 -0.33139685590E+02  0.43400729449E+02  0.00000000000E+00 0. -1.
         11    1    3    3    0    0 -0.93513230892E+01  0.81153197556E+01  0.14155538475E+02  0.18806512915E+02  0.51100000000E-03 0. -1.
        -11    1    3    3    0    0 -0.43218306192E+01  0.11028637314E+02  0.20757674051E+02  0.23899583535E+02  0.51100000000E-03 0.  1.
        -12    1    3    3    0    0 -0.12012758233E+01  0.46075881809E+01 -0.17735269360E+01  0.50811741007E+01  0.00000000000E+00 0.  1.
</event>
<event>
 7    1  0.2733256E-010  0.4778727E+02  0.7816164E-02  0.1312668E+00
        -11   -1    0    0    0    0  0.00000000000E+00  0.00000000000E+00  0.45593999997E+02  0.45594000000E+02  0.51100000000E-03 0.  1.
         11   -1    0    0    0    0 -0.00000000000E+00 -0.00000000000E+00 -0.45593999997E+02  0.45594000000E+02  0.51100000000E-03 0. -1.
    9900012    2    1    2    0    0 -0.16009877170E+01 -0.41698086223E+02  0.11930189904E+02  0.47787274344E+02  0.20000015043E+02 0.  0.
         12    1    1    2    0    0  0.16009877170E+01  0.41698086223E+02 -0.11930189904E+02  0.43400725656E+02  0.00000000000E+00 0. -1.
         11    1    3    3    0    0  0.52757132107E+01 -0.21041845664E+02  0.16986004459E+01  0.21759541874E+02  0.51100000000E-03 0. -1.
        -11    1    3    3    0    0 -0.35801626595E+01 -0.17548290786E+02  0.40472081536E+01  0.18361371634E+02  0.51100000000E-03 0.  1.
         12    1    3    3    0    0 -0.32965382682E+01 -0.31079497730E+01  0.61843813043E+01  0.76663608356E+01  0.00000000000E+00 0. -1.
</event>
<event>
 7    1  0.2733256E-010  0.4778727E+02  0.7816164E-02  0.1312668E+00
        -11   -1    0    0    0    0  0.00000000000E+00  0.00000000000E+00  0.45593999997E+02  0.45594000000E+02  0.51100000000E-03 0. -1.
         11   -1    0    0    0    0 -0.00000000000E+00 -0.00000000000E+00 -0.45593999997E+02  0.45594000000E+02  0.51100000000E-03 0.  1.
    9900012    2    1    2    0    0 -0.69735049729E+01  0.28508023873E+02 -0.31973211743E+02  0.47787268832E+02  0.19999989911E+02 0.  0.
         12    1    1    2    0    0  0.69735049729E+01 -0.28508023873E+02  0.31973211743E+02  0.43400731168E+02  0.00000000000E+00 0. -1.
         11    1    3    3    0    0  0.92682468436E-01 -0.98922277243E+00  0.48834625036E+00  0.11070835808E+01  0.51100000000E-03 0. -1.
        -11    1    3    3    0    0  0.55838586955E+00  0.16904140770E+02 -0.94832189941E+01  0.19390544415E+02  0.51100000000E-03 0.  1.
        -12    1    3    3    0    0 -0.76245733109E+01  0.12593105875E+02 -0.22978339000E+02  0.27289640836E+02  0.00000000000E+00 0.  1.
</event>
<event>
 7    1  0.2733256E-010  0.4778728E+02  0.7816164E-02  0.1312668E+00
        -11   -1    0    0    0    0  0.00000000000E+00  0.00000000000E+00  0.45593999997E+02  0.45594000000E+02  0.51100000000E-03 0. -1.
         11   -1    0    0    0    0 -0.00000000000E+00 -0.00000000000E+00 -0.45593999997E+02  0.45594000000E+02  0.51100000000E-03 0.  1.
    9900012    2    1    2    0    0 -0.19844406190E+02 -0.31201751872E+02 -0.22721642110E+02  0.47787276538E+02  0.20000025046E+02 0.  0.
         12    1    1    2    0    0  0.19844406190E+02  0.31201751872E+02  0.22721642110E+02  0.43400723462E+02  0.00000000000E+00 0. -1.
         11    1    3    3    0    0 -0.11223424318E+02 -0.75354401704E+01  0.72286337187E-01  0.13518629278E+02  0.51100000000E-03 0. -1.
        -11    1    3    3    0    0 -0.55307576999E+01 -0.87243902491E+01 -0.90770611559E+01  0.13751265594E+02  0.51100000000E-03 0.  1.
        -12    1    3    3    0    0 -0.30902241719E+01 -0.14941921452E+02 -0.13716867291E+02  0.20517381665E+02  0.00000000000E+00 0.  1.
</event>
<event>
 7    1  0.2733256E-010  0.4778726E+02  0.7816164E-02  0.1312668E+00
        -11   -1    0    0    0    0  0.00000000000E+00  0.00000000000E+00  0.45593999997E+02  0.45594000000E+02  0.51100000000E-03 0.  1.
         11   -1    0    0    0    0 -0.00000000000E+00 -0.00000000000E+00 -0.45593999997E+02  0.45594000000E+02  0.51100000000E-03 0. -1.
    9900012    2    1    2    0    0  0.58630815079E+01  0.30792055365E+02  0.30018294915E+02  0.47787257749E+02  0.19999939379E+02 0.  0.
         12    1    1    2    0    0 -0.58630815079E+01 -0.30792055365E+02 -0.30018294915E+02  0.43400742251E+02  0.00000000000E+00 0. -1.
         11    1    3    3    0    0  0.44426455691E+00  0.13155714430E+02  0.24846545150E+02  0.28117983557E+02  0.51100000000E-03 0. -1.
        -11    1    3    3    0    0  0.28581989837E+01  0.31198739390E+01  0.13499532796E+01  0.44413161274E+01  0.51100000000E-03 0.  1.
         12    1    3    3    0    0  0.25606179673E+01  0.14516466996E+02  0.38217964849E+01  0.15227958064E+02  0.00000000000E+00 0. -1.
</event>
<event>
 7    1  0.2733256E-010  0.4778730E+02  0.7816164E-02  0.1312668E+00
        -11   -1    0    0    0    0  0.00000000000E+00  0.00000000000E+00  0.45593999997E+02  0.45594000000E+02  0.51100000000E-03 0.  1.
         11   -1    0    0    0    0 -0.00000000000E+00 -0.00000000000E+00 -0.45593999997E+02  0.45594000000E+02  0.51100000000E-03 0. -1.
    9900012    2    1    2    0    0 -0.39489215898E+02  0.11960757484E+02  0.13459667291E+02  0.47787302592E+02  0.20000143840E+02 0.  0.
         12    1    1    2    0    0  0.39489215898E+02 -0.11960757484E+02 -0.13459667291E+02  0.43400697408E+02  0.00000000000E+00 0. -1.
         11    1    3    3    0    0 -0.12893671854E+01  0.14395422635E+01  0.23613556092E+01  0.30513521989E+01  0.51100000000E-03 0. -1.
        -11    1    3    3    0    0 -0.31280710937E+02  0.13724151418E+02  0.13518261726E+02  0.36736611292E+02  0.51100000000E-03 0.  1.
         12    1    3    3    0    0 -0.69191377763E+01 -0.32029361975E+01 -0.24199500436E+01  0.79993391019E+01  0.00000000000E+00 0. -1.
</event>
<event>
 7    1  0.2733256E-010  0.4778727E+02  0.7816164E-02  0.1312668E+00
        -11   -1    0    0    0    0  0.00000000000E+00  0.00000000000E+00  0.45593999997E+02  0.45594000000E+02  0.51100000000E-03 0. -1.
         11   -1    0    0    0    0 -0.00000000000E+00 -0.00000000000E+00 -0.45593999997E+02  0.45594000000E+02  0.51100000000E-03 0.  1.
    9900012    2    1    2    0    0 -0.30600061262E+02  0.11613530990E+02 -0.28502374090E+02  0.47787272125E+02  0.20000004928E+02 0.  0.
         12    1    1    2    0    0  0.30600061262E+02 -0.11613530990E+02  0.28502374090E+02  0.43400727875E+02  0.00000000000E+00 0. -1.
         11    1    3    3    0    0 -0.52408595010E+01  0.25757608728E+01 -0.12871353369E+02  0.14134103799E+02  0.51100000000E-03 0. -1.
        -11    1    3    3    0    0 -0.19236045689E+02  0.10531324022E+02 -0.16286675695E+02  0.27316479365E+02  0.51100000000E-03 0.  1.
        -12    1    3    3    0    0 -0.61231560720E+01 -0.14935539049E+01  0.65565497507E+00  0.63366889615E+01  0.00000000000E+00 0.  1.
</event>
<event>
 7    1  0.2733256E-010  0.4778727E+02  0.7816164E-02  0.1312668E+00
        -11   -1    0    0    0    0  0.00000000000E+00  0.00000000000E+00  0.45593999997E+02  0.45594000000E+02  0.51100000000E-03 0.  1.
         11   -1    0    0    0    0 -0.00000000000E+00 -0.00000000000E+00 -0.45593999997E+02  0.45594000000E+02  0.51100000000E-03 0. -1.
    9900012    2    1    2    0    0 -0.14432797226E+02 -0.29829320947E+02  0.28027296043E+02  0.47787270197E+02  0.19999996137E+02 0.  0.
         12    1    1    2    0    0  0.14432797226E+02  0.29829320947E+02 -0.28027296043E+02  0.43400729803E+02  0.00000000000E+00 0. -1.
         11    1    3    3    0    0 -0.16405567890E+01 -0.65867729716E+01  0.92632417514E+01  0.11484104352E+02  0.51100000000E-03 0.  1.
        -11    1    3    3    0    0  0.30094855260E+01 -0.93409597989E+01  0.80143918393E+01  0.12670477888E+02  0.51100000000E-03 0. -1.
         12    1    3    3    0    0 -0.15801725963E+02 -0.13901588176E+02  0.10749662452E+02  0.23632687957E+02  0.00000000000E+00 0. -1.
</event>
<event>
 7    1  0.2733256E-010  0.4778727E+02  0.7816164E-02  0.1312668E+00
        -11   -1    0    0    0    0  0.00000000000E+00  0.00000000000E+00  0.45593999997E+02  0.45594000000E+02  0.51100000000E-03 0.  1.
         11   -1    0    0    0    0 -0.00000000000E+00 -0.00000000000E+00 -0.45593999997E+02  0.45594000000E+02  0.51100000000E-03 0. -1.
    9900012    2    1    2    0    0 -0.62757275850E+01  0.24697039569E+02  0.35132537147E+02  0.47787266290E+02  0.19999978323E+02 0.  0.
         12    1    1    2    0    0  0.62757275850E+01 -0.24697039569E+02 -0.35132537147E+02  0.43400733710E+02  0.00000000000E+00 0. -1.
         11    1    3    3    0    0  0.38307628500E+01  0.71334839940E+01  0.17399033224E+02  0.19190823205E+02  0.51100000000E-03 0. -1.
        -11    1    3    3    0    0 -0.56357755203E+01  0.89872389387E+01  0.15309611490E+02  0.18625698207E+02  0.51100000000E-03 0.  1.
         12    1    3    3    0    0 -0.44707149146E+01  0.85763166364E+01  0.24238924327E+01  0.99707448779E+01  0.00000000000E+00 0. -1.
</event>
<event>
 7    1  0.2733256E-010  0.4778727E+02  0.7816164E-02  0.1312668E+00
        -11   -1    0    0    0    0  0.00000000000E+00  0.00000000000E+00  0.45593999997E+02  0.45594000000E+02  0.51100000000E-03 0. -1.
         11   -1    0    0    0    0 -0.00000000000E+00 -0.00000000000E+00 -0.45593999997E+02  0.45594000000E+02  0.51100000000E-03 0.  1.
    9900012    2    1    2    0    0 -0.20464984436E+01 -0.19345497920E+02  0.38796737527E+02  0.47787270877E+02  0.19999999236E+02 0.  0.
         12    1    1    2    0    0  0.20464984436E+01  0.19345497920E+02 -0.38796737527E+02  0.43400729123E+02  0.00000000000E+00 0. -1.
         11    1    3    3    0    0 -0.29925310238E+01 -0.94904898569E+01  0.38208608265E+01  0.10659437948E+02  0.51100000000E-03 0.  1.
        -11    1    3    3    0    0  0.59053200214E+00  0.15930232469E+00 -0.12529167352E+00  0.62434248676E+00  0.51100000000E-03 0. -1.
        -12    1    3    3    0    0  0.35550057810E+00 -0.10014310388E+02  0.35101168374E+02  0.36503490442E+02  0.00000000000E+00 0.  1.
</event>
<event>
 7    1  0.2733256E-010  0.4778727E+02  0.7816164E-02  0.1312668E+00
        -11   -1    0    0    0    0  0.00000000000E+00  0.00000000000E+00  0.45593999997E+02  0.45594000000E+02  0.51100000000E-03 0.  1.
         11   -1    0    0    0    0 -0.00000000000E+00 -0.00000000000E+00 -0.45593999997E+02  0.45594000000E+02  0.51100000000E-03 0. -1.
    9900012    2    1    2    0    0 -0.13454902410E+01 -0.62410002796E+01  0.42928577588E+02  0.47787271871E+02  0.20000003767E+02 0.  0.
         12    1    1    2    0    0  0.13454902410E+01  0.62410002796E+01 -0.42928577588E+02  0.43400728129E+02  0.00000000000E+00 0. -1.
         11    1    3    3    0    0 -0.60615806008E+01 -0.17695329945E+01  0.93179959330E+01  0.11256067469E+02  0.51100000000E-03 0. -1.
        -11    1    3    3    0    0  0.48764668684E+01  0.15043055604E+01  0.27549385887E+02  0.28018057166E+02  0.51100000000E-03 0.  1.
         12    1    3    3    0    0 -0.16037650864E+00 -0.59757728455E+01  0.60611957678E+01  0.85131472360E+01  0.00000000000E+00 0. -1.
</event>
<event>
 7    1  0.2733256E-010  0.4778727E+02  0.7816164E-02  0.1312668E+00
        -11   -1    0    0    0    0  0.00000000000E+00  0.00000000000E+00  0.45593999997E+02  0.45594000000E+02  0.51100000000E-03 0. -1.
         11   -1    0    0    0    0 -0.00000000000E+00 -0.00000000000E+00 -0.45593999997E+02  0.45594000000E+02  0.51100000000E-03 0.  1.
    9900012    2    1    2    0    0  0.14054396626E+02 -0.12884967966E+02 -0.38988137701E+02  0.47787270221E+02  0.19999996244E+02 0.  0.
         12    1    1    2    0    0 -0.14054396626E+02  0.12884967966E+02  0.38988137701E+02  0.43400729779E+02  0.00000000000E+00 0. -1.
         11    1    3    3    0    0  0.28570562425E+01 -0.24627817530E+01 -0.23777060525E+01  0.44588732510E+01  0.51100000000E-03 0. -1.
        -11    1    3    3    0    0 -0.13612677447E+01 -0.10271335298E+02 -0.13408542731E+02  0.16945276543E+02  0.51100000000E-03 0.  1.
         12    1    3    3    0    0  0.12558608128E+02 -0.15085091476E+00 -0.23201888918E+02  0.26383120427E+02  0.00000000000E+00 0. -1.
</event>
<event>
 7    1  0.2733256E-010  0.4778727E+02  0.7816164E-02  0.1312668E+00
        -11   -1    0    0    0    0  0.00000000000E+00  0.00000000000E+00  0.45593999997E+02  0.45594000000E+02  0.51100000000E-03 0. -1.
         11   -1    0    0    0    0 -0.00000000000E+00 -0.00000000000E+00 -0.45593999997E+02  0.45594000000E+02  0.51100000000E-03 0.  1.
    9900012    2    1    2    0    0 -0.19906927981E+02  0.22004294320E+02 -0.31672521581E+02  0.47787269897E+02  0.19999994769E+02 0.  0.
         12    1    1    2    0    0  0.19906927981E+02 -0.22004294320E+02  0.31672521581E+02  0.43400730103E+02  0.00000000000E+00 0. -1.
         11    1    3    3    0    0 -0.28678815550E+01  0.35380852246E+01 -0.82401219691E+01  0.94150093997E+01  0.51100000000E-03 0. -1.
        -11    1    3    3    0    0 -0.46697038853E+01  0.16933405822E+02 -0.16551935731E+02  0.24135304925E+02  0.51100000000E-03 0.  1.
         12    1    3    3    0    0 -0.12369342541E+02  0.15328032733E+01 -0.68804638811E+01  0.14236955573E+02  0.00000000000E+00 0. -1.
</event>
<event>
 7    1  0.2733256E-010  0.4778727E+02  0.7816164E-02  0.1312668E+00
        -11   -1    0    0    0    0  0.00000000000E+00  0.00000000000E+00  0.45593999997E+02  0.45594000000E+02  0.51100000000E-03 0.  1.
         11   -1    0    0    0    0 -0.00000000000E+00 -0.00000000000E+00 -0.45593999997E+02  0.45594000000E+02  0.51100000000E-03 0. -1.
    9900012    2    1    2    0    0  0.28935496242E+02 -0.60252810102E+01  0.31781384045E+02  0.47787270446E+02  0.19999997271E+02 0.  0.
         12    1    1    2    0    0 -0.28935496242E+02  0.60252810102E+01 -0.31781384045E+02  0.43400729554E+02  0.00000000000E+00 0. -1.
         11    1    3    3    0    0  0.24153225486E+01 -0.17400519661E+01  0.16687929453E+02  0.16951358458E+02  0.51100000000E-03 0. -1.
        -11    1    3    3    0    0  0.48651935792E+01 -0.89798212921E+00  0.22852899134E+01  0.54496817079E+01  0.51100000000E-03 0.  1.
         12    1    3    3    0    0  0.21654980115E+02 -0.33872469149E+01  0.12808164678E+02  0.25386230280E+02  0.00000000000E+00 0. -1.
</event>
<event>
 7    1  0.2733256E-010  0.4778727E+02  0.7816164E-02  0.1312668E+00
        -11   -1    0    0    0    0  0.00000000000E+00  0.00000000000E+00  0.45593999997E+02  0.45594000000E+02  0.51100000000E-03 0.  1.
         11   -1    0    0    0    0 -0.00000000000E+00 -0.00000000000E+00 -0.45593999997E+02  0.45594000000E+02  0.51100000000E-03 0. -1.
    9900012    2    1    2    0    0 -0.15315805539E+02 -0.13369856304E+02  0.38344443904E+02  0.47787270338E+02  0.19999996778E+02 0.  0.
         12    1    1    2    0    0  0.15315805539E+02  0.13369856304E+02 -0.38344443904E+02  0.43400729662E+02  0.00000000000E+00 0. -1.
         11    1    3    3    0    0  0.17892751566E+01 -0.17264131445E+01  0.46035684326E+00  0.25286234626E+01  0.51100000000E-03 0. -1.
        -11    1    3    3    0    0  0.18693854002E+01  0.83942440009E+00  0.31705243264E+01  0.37751105763E+01  0.51100000000E-03 0.  1.
         12    1    3    3    0    0 -0.18974466096E+02 -0.12482867560E+02  0.34713562735E+02  0.41483536299E+02  0.00000000000E+00 0. -1.
</event>
<event>
 7    1  0.2733256E-010  0.4778727E+02  0.7816164E-02  0.1312668E+00
        -11   -1    0    0    0    0  0.00000000000E+00  0.00000000000E+00  0.45593999997E+02  0.45594000000E+02  0.51100000000E-03 0. -1.
         11   -1    0    0    0    0 -0.00000000000E+00 -0.00000000000E+00 -0.45593999997E+02  0.45594000000E+02  0.51100000000E-03 0.  1.
    9900012    2    1    2    0    0 -0.87614239702E+01  0.34619117884E+02 -0.24665306468E+02  0.47787271709E+02  0.20000003029E+02 0.  0.
         12    1    1    2    0    0  0.87614239702E+01 -0.34619117884E+02  0.24665306468E+02  0.43400728291E+02  0.00000000000E+00 0. -1.
         11    1    3    3    0    0  0.40836993604E+01  0.93876558562E+01 -0.27102203287E+01  0.10590088641E+02  0.51100000000E-03 0. -1.
        -11    1    3    3    0    0 -0.14458979499E+01  0.11826715309E+02 -0.55660545291E+01  0.13150771048E+02  0.51100000000E-03 0.  1.
        -12    1    3    3    0    0 -0.11399225381E+02  0.13404746719E+02 -0.16389031610E+02  0.24046412019E+02  0.00000000000E+00 0.  1.
</event>
<event>
 7    1  0.2733256E-010  0.4778727E+02  0.7816164E-02  0.1312668E+00
        -11   -1    0    0    0    0  0.00000000000E+00  0.00000000000E+00  0.45593999997E+02  0.45594000000E+02  0.51100000000E-03 0. -1.
         11   -1    0    0    0    0 -0.00000000000E+00 -0.00000000000E+00 -0.45593999997E+02  0.45594000000E+02  0.51100000000E-03 0.  1.
    9900012    2    1    2    0    0 -0.29097782633E+02  0.11375924735E+02 -0.30125252157E+02  0.47787269185E+02  0.19999991521E+02 0.  0.
         12    1    1    2    0    0  0.29097782633E+02 -0.11375924735E+02  0.30125252157E+02  0.43400730815E+02  0.00000000000E+00 0. -1.
         11    1    3    3    0    0  0.17704530864E-01 -0.20138352421E+01 -0.13584630793E+01  0.24292525664E+01  0.51100000000E-03 0. -1.
        -11    1    3    3    0    0 -0.10877828652E+02 -0.79056606592E+00 -0.43431980782E+01  0.11739485538E+02  0.51100000000E-03 0.  1.
        -12    1    3    3    0    0 -0.18237658512E+02  0.14180326043E+02 -0.24423591000E+02  0.33618531081E+02  0.00000000000E+00 0.  1.
</event>
<event>
 7    1  0.2733256E-010  0.4778727E+02  0.7816164E-02  0.1312668E+00
        -11   -1    0    0    0    0  0.00000000000E+00  0.00000000000E+00  0.45593999997E+02  0.45594000000E+02  0.51100000000E-03 0. -1.
         11   -1    0    0    0    0 -0.00000000000E+00 -0.00000000000E+00 -0.45593999997E+02  0.45594000000E+02  0.51100000000E-03 0.  1.
    9900012    2    1    2    0    0 -0.43127897778E+02 -0.20098534521E+01  0.44236032933E+01  0.47787270239E+02  0.19999996329E+02 0.  0.
         12    1    1    2    0    0  0.43127897778E+02  0.20098534521E+01 -0.44236032933E+01  0.43400729761E+02  0.00000000000E+00 0. -1.
         11    1    3    3    0    0 -0.27863635241E+01  0.52805795590E+00  0.23147098079E+01  0.36606759825E+01  0.51100000000E-03 0. -1.
        -11    1    3    3    0    0 -0.32197700041E+02 -0.92293297641E+01  0.78545911845E+00  0.33503572379E+02  0.51100000000E-03 0.  1.
        -12    1    3    3    0    0 -0.81438342127E+01  0.66914183561E+01  0.13234343670E+01  0.10623021878E+02  0.00000000000E+00 0.  1.
</event>
<event>
 7    1  0.2733256E-010  0.4778725E+02  0.7816164E-02  0.1312668E+00
        -11   -1    0    0    0    0  0.00000000000E+00  0.00000000000E+00  0.45593999997E+02  0.45594000000E+02  0.51100000000E-03 0. -1.
         11   -1    0    0    0    0 -0.00000000000E+00 -0.00000000000E+00 -0.45593999997E+02  0.45594000000E+02  0.51100000000E-03 0.  1.
    9900012    2    1    2    0    0 -0.36037117517E+02  0.77826775137E+01 -0.22899365957E+02  0.47787252662E+02  0.19999916188E+02 0.  0.
         12    1    1    2    0    0  0.36037117517E+02 -0.77826775137E+01  0.22899365957E+02  0.43400747338E+02  0.00000000000E+00 0. -1.
         11    1    3    3    0    0 -0.88334317559E+01  0.97883335036E+01 -0.91746690783E+01  0.16062862208E+02  0.51100000000E-03 0. -1.
        -11    1    3    3    0    0  0.39387110819E+00  0.36366191330E+00 -0.12218122732E+01  0.13342450783E+01  0.51100000000E-03 0.  1.
        -12    1    3    3    0    0 -0.27597556870E+02 -0.23693179032E+01 -0.12502884605E+02  0.30390145376E+02  0.00000000000E+00 0.  1.
</event>
<event>
 7    1  0.2733256E-010  0.4778727E+02  0.7816164E-02  0.1312668E+00
        -11   -1    0    0    0    0  0.00000000000E+00  0.00000000000E+00  0.45593999997E+02  0.45594000000E+02  0.51100000000E-03 0.  1.
         11   -1    0    0    0    0 -0.00000000000E+00 -0.00000000000E+00 -0.45593999997E+02  0.45594000000E+02  0.51100000000E-03 0. -1.
    9900012    2    1    2    0    0 -0.53135474579E+01  0.15658224715E+02  0.40127414225E+02  0.47787272354E+02  0.20000005972E+02 0.  0.
         12    1    1    2    0    0  0.53135474579E+01 -0.15658224715E+02 -0.40127414225E+02  0.43400727646E+02  0.00000000000E+00 0. -1.
         11    1    3    3    0    0 -0.23128026048E+01  0.25963533134E+01  0.99771464867E-01  0.34785141976E+01  0.51100000000E-03 0. -1.
        -11    1    3    3    0    0 -0.55243557752E+01  0.11023942932E+02  0.16712481158E+02  0.20769035876E+02  0.51100000000E-03 0.  1.
         12    1    3    3    0    0  0.25236109222E+01  0.20379284700E+01  0.23315161602E+02  0.23539722281E+02  0.00000000000E+00 0. -1.
</event>
<event>
 7    1  0.2733256E-010  0.4778727E+02  0.7816164E-02  0.1312668E+00
        -11   -1    0    0    0    0  0.00000000000E+00  0.00000000000E+00  0.45593999997E+02  0.45594000000E+02  0.51100000000E-03 0. -1.
         11   -1    0    0    0    0 -0.00000000000E+00 -0.00000000000E+00 -0.45593999997E+02  0.45594000000E+02  0.51100000000E-03 0.  1.
    9900012    2    1    2    0    0 -0.37906052786E+01 -0.31962831115E+02 -0.29114121719E+02  0.47787270228E+02  0.19999996277E+02 0.  0.
         12    1    1    2    0    0  0.37906052786E+01  0.31962831115E+02  0.29114121719E+02  0.43400729772E+02  0.00000000000E+00 0. -1.
         11    1    3    3    0    0  0.29440325479E+00 -0.14367266947E+02 -0.17679697305E+02  0.22783255471E+02  0.51100000000E-03 0. -1.
        -11    1    3    3    0    0 -0.59935705120E+01 -0.12841600681E+02 -0.13412917632E+02  0.19512456411E+02  0.51100000000E-03 0.  1.
         12    1    3    3    0    0  0.19085619786E+01 -0.47539634872E+01  0.19784932167E+01  0.54915583465E+01  0.00000000000E+00 0. -1.
</event>
<event>
 7    1  0.2733256E-010  0.4778727E+02  0.7816164E-02  0.1312668E+00
        -11   -1    0    0    0    0  0.00000000000E+00  0.00000000000E+00  0.45593999997E+02  0.45594000000E+02  0.51100000000E-03 0. -1.
         11   -1    0    0    0    0 -0.00000000000E+00 -0.00000000000E+00 -0.45593999997E+02  0.45594000000E+02  0.51100000000E-03 0.  1.
    9900012    2    1    2    0    0  0.13678300342E+02  0.26995102627E+02 -0.31109354625E+02  0.47787269461E+02  0.19999992782E+02 0.  0.
         12    1    1    2    0    0 -0.13678300342E+02 -0.26995102627E+02  0.31109354625E+02  0.43400730539E+02  0.00000000000E+00 0. -1.
         11    1    3    3    0    0  0.18693072341E+01  0.53618117787E+00 -0.16246727847E+00  0.19514598814E+01  0.51100000000E-03 0. -1.
        -11    1    3    3    0    0  0.14455169235E+02  0.23789673114E+02 -0.31499142768E+02  0.42036846455E+02  0.51100000000E-03 0.  1.
        -12    1    3    3    0    0 -0.26461761275E+01  0.26692483359E+01  0.55225542160E+00  0.37989631253E+01  0.00000000000E+00 0.  1.
</event>
<event>
 7    1  0.2733256E-010  0.4778729E+02  0.7816164E-02  0.1312668E+00
        -11   -1    0    0    0    0  0.00000000000E+00  0.00000000000E+00  0.45593999997E+02  0.45594000000E+02  0.51100000000E-03 0.  1.
         11   -1    0    0    0    0 -0.00000000000E+00 -0.00000000000E+00 -0.45593999997E+02  0.45594000000E+02  0.51100000000E-03 0. -1.
    9900012    2    1    2    0    0  0.23560644657E+02  0.20386855318E+02  0.30214138688E+02  0.47787285454E+02  0.20000065700E+02 0.  0.
         12    1    1    2    0    0 -0.23560644657E+02 -0.20386855318E+02 -0.30214138688E+02  0.43400714546E+02  0.00000000000E+00 0. -1.
         11    1    3    3    0    0  0.13137335568E+02  0.18947608051E+01  0.85053804030E+01  0.15764555192E+02  0.51100000000E-03 0. -1.
        -11    1    3    3    0    0  0.29428412507E+01  0.36774028802E+01  0.16500955970E-01  0.47099765512E+01  0.51100000000E-03 0.  1.
        -12    1    3    3    0    0  0.74804678380E+01  0.14814691633E+02  0.21692257329E+02  0.27312753711E+02  0.00000000000E+00 0.  1.
</event>
<event>
 7    1  0.2733256E-010  0.4778727E+02  0.7816164E-02  0.1312668E+00
        -11   -1    0    0    0    0  0.00000000000E+00  0.00000000000E+00  0.45593999997E+02  0.45594000000E+02  0.51100000000E-03 0.  1.
         11   -1    0    0    0    0 -0.00000000000E+00 -0.00000000000E+00 -0.45593999997E+02  0.45594000000E+02  0.51100000000E-03 0. -1.
    9900012    2    1    2    0    0 -0.42817762954E+02 -0.50766962998E+01  0.49486900940E+01  0.47787271857E+02  0.20000003703E+02 0.  0.
         12    1    1    2    0    0  0.42817762954E+02  0.50766962998E+01 -0.49486900940E+01  0.43400728143E+02  0.00000000000E+00 0. -1.
         11    1    3    3    0    0 -0.29522996863E+01 -0.54838861321E-01 -0.33768551385E+01  0.44857810497E+01  0.51100000000E-03 0. -1.
        -11    1    3    3    0    0 -0.81233414378E+01  0.20631380672E+01  0.67131651426E+01  0.10738333264E+02  0.51100000000E-03 0.  1.
         12    1    3    3    0    0 -0.31742121830E+02 -0.70849955057E+01  0.16123800899E+01  0.32563157543E+02  0.00000000000E+00 0. -1.
</event>
<event>
 7    1  0.2733256E-010  0.4778727E+02  0.7816164E-02  0.1312668E+00
        -11   -1    0    0    0    0  0.00000000000E+00  0.00000000000E+00  0.45593999997E+02  0.45594000000E+02  0.51100000000E-03 0. -1.
         11   -1    0    0    0    0 -0.00000000000E+00 -0.00000000000E+00 -0.45593999997E+02  0.45594000000E+02  0.51100000000E-03 0.  1.
    9900012    2    1    2    0    0 -0.58391777534E+01  0.17864962944E+01 -0.42969009217E+02  0.47787270525E+02  0.19999997633E+02 0.  0.
         12    1    1    2    0    0  0.58391777534E+01 -0.17864962944E+01  0.42969009217E+02  0.43400729475E+02  0.00000000000E+00 0. -1.
         11    1    3    3    0    0 -0.22903025116E+01  0.67373230370E+01 -0.83205538481E+01  0.10948453037E+02  0.51100000000E-03 0. -1.
        -11    1    3    3    0    0 -0.43218805812E+01 -0.21425352357E+01 -0.46527695384E+01  0.67020424971E+01  0.51100000000E-03 0.  1.
         12    1    3    3    0    0  0.77300533942E+00 -0.28082915068E+01 -0.29995685830E+02  0.30136774991E+02  0.00000000000E+00 0. -1.
</event>
<event>
 7    1  0.2733256E-010  0.4778727E+02  0.7816164E-02  0.1312668E+00
        -11   -1    0    0    0    0  0.00000000000E+00  0.00000000000E+00  0.45593999997E+02  0.45594000000E+02  0.51100000000E-03 0.  1.
         11   -1    0    0    0    0 -0.00000000000E+00 -0.00000000000E+00 -0.45593999997E+02  0.45594000000E+02  0.51100000000E-03 0. -1.
    9900012    2    1    2    0    0 -0.10463287584E+02  0.42117700030E+02  0.49222412816E+00  0.47787270427E+02  0.19999997185E+02 0.  0.
         12    1    1    2    0    0  0.10463287584E+02 -0.42117700030E+02 -0.49222412816E+00  0.43400729573E+02  0.00000000000E+00 0. -1.
         11    1    3    3    0    0 -0.21339830603E+01  0.17914002156E+02  0.60246579965E+01  0.19020038412E+02  0.51100000000E-03 0. -1.
        -11    1    3    3    0    0 -0.40142020555E+01  0.23426751137E+02 -0.38857684727E+01  0.24083722384E+02  0.51100000000E-03 0.  1.
         12    1    3    3    0    0 -0.43151024683E+01  0.77694673687E+00 -0.16466653956E+01  0.46835096316E+01  0.00000000000E+00 0. -1.
</event>
<event>
 7    1  0.2733256E-010  0.4778727E+02  0.7816164E-02  0.1312668E+00
        -11   -1    0    0    0    0  0.00000000000E+00  0.00000000000E+00  0.45593999997E+02  0.45594000000E+02  0.51100000000E-03 0.  1.
         11   -1    0    0    0    0 -0.00000000000E+00 -0.00000000000E+00 -0.45593999997E+02  0.45594000000E+02  0.51100000000E-03 0. -1.
    9900012    2    1    2    0    0  0.32078263046E+02  0.23020504174E+02  0.18018451018E+02  0.47787272476E+02  0.20000006527E+02 0.  0.
         12    1    1    2    0    0 -0.32078263046E+02 -0.23020504174E+02 -0.18018451018E+02  0.43400727524E+02  0.00000000000E+00 0. -1.
         11    1    3    3    0    0 -0.67400839292E-01  0.25991269752E+01  0.34759767374E+01  0.43407854642E+01  0.51100000000E-03 0.  1.
        -11    1    3    3    0    0 -0.79466926904E+00 -0.12702097985E+01  0.59192508806E+00  0.16109958877E+01  0.51100000000E-03 0. -1.
        -12    1    3    3    0    0  0.32940333155E+02  0.21691586998E+02  0.13950549192E+02  0.41835491124E+02  0.00000000000E+00 0.  1.
</event>
<event>
 7    1  0.2733256E-010  0.4778727E+02  0.7816164E-02  0.1312668E+00
        -11   -1    0    0    0    0  0.00000000000E+00  0.00000000000E+00  0.45593999997E+02  0.45594000000E+02  0.51100000000E-03 0.  1.
         11   -1    0    0    0    0 -0.00000000000E+00 -0.00000000000E+00 -0.45593999997E+02  0.45594000000E+02  0.51100000000E-03 0. -1.
    9900012    2    1    2    0    0  0.89008285983E+01 -0.10649874717E+02  0.41121509336E+02  0.47787272917E+02  0.20000008538E+02 0.  0.
         12    1    1    2    0    0 -0.89008285983E+01  0.10649874717E+02 -0.41121509336E+02  0.43400727083E+02  0.00000000000E+00 0. -1.
         11    1    3    3    0    0  0.38686493005E+01 -0.25971922868E+01  0.12572477256E+02  0.13408170635E+02  0.51100000000E-03 0.  1.
        -11    1    3    3    0    0  0.27051185193E+01 -0.64852840211E+01  0.30278508962E+02  0.31083189673E+02  0.51100000000E-03 0. -1.
         12    1    3    3    0    0  0.23270607785E+01 -0.15673984090E+01 -0.17294768812E+01  0.32959126084E+01  0.00000000000E+00 0. -1.
</event>
<event>
 7    1  0.2733256E-010  0.4778727E+02  0.7816164E-02  0.1312668E+00
        -11   -1    0    0    0    0  0.00000000000E+00  0.00000000000E+00  0.45593999997E+02  0.45594000000E+02  0.51100000000E-03 0.  1.
         11   -1    0    0    0    0 -0.00000000000E+00 -0.00000000000E+00 -0.45593999997E+02  0.45594000000E+02  0.51100000000E-03 0. -1.
    9900012    2    1    2    0    0  0.36157429151E+02 -0.20482259236E+02 -0.12519618048E+02  0.47787268874E+02  0.19999990105E+02 0.  0.
         12    1    1    2    0    0 -0.36157429151E+02  0.20482259236E+02  0.12519618048E+02  0.43400731126E+02  0.00000000000E+00 0. -1.
         11    1    3    3    0    0 -0.11572562128E+00  0.14087071664E+00 -0.15922500742E+00  0.24205338737E+00  0.51100000000E-03 0. -1.
        -11    1    3    3    0    0  0.23811331023E+02 -0.17622916002E+02 -0.16707661638E+02  0.34010183934E+02  0.51100000000E-03 0.  1.
        -12    1    3    3    0    0  0.12461823748E+02 -0.30002139501E+01  0.43472685973E+01  0.13535031553E+02  0.00000000000E+00 0.  1.
</event>
<event>
 7    1  0.2733256E-010  0.4778727E+02  0.7816164E-02  0.1312668E+00
        -11   -1    0    0    0    0  0.00000000000E+00  0.00000000000E+00  0.45593999997E+02  0.45594000000E+02  0.51100000000E-03 0.  1.
         11   -1    0    0    0    0 -0.00000000000E+00 -0.00000000000E+00 -0.45593999997E+02  0.45594000000E+02  0.51100000000E-03 0. -1.
    9900012    2    1    2    0    0 -0.17256625261E+02  0.16417586054E+02  0.36280783219E+02  0.47787268690E+02  0.19999989266E+02 0.  0.
         12    1    1    2    0    0  0.17256625261E+02 -0.16417586054E+02 -0.36280783219E+02  0.43400731310E+02  0.00000000000E+00 0. -1.
         11    1    3    3    0    0  0.19978495931E+01  0.24029922759E+01  0.34285984202E+01  0.46390798940E+01  0.51100000000E-03 0. -1.
        -11    1    3    3    0    0 -0.64490194506E+01  0.12026116062E+02  0.23472337371E+02  0.27150836844E+02  0.51100000000E-03 0.  1.
        -12    1    3    3    0    0 -0.12805455403E+02  0.19884777162E+01  0.93798474285E+01  0.15997351952E+02  0.00000000000E+00 0.  1.
</event>
<event>
 7    1  0.2733256E-010  0.4778727E+02  0.7816164E-02  0.1312668E+00
        -11   -1    0    0    0    0  0.00000000000E+00  0.00000000000E+00  0.45593999997E+02  0.45594000000E+02  0.51100000000E-03 0.  1.
         11   -1    0    0    0    0 -0.00000000000E+00 -0.00000000000E+00 -0.45593999997E+02  0.45594000000E+02  0.51100000000E-03 0. -1.
    9900012    2    1    2    0    0  0.88977474686E+01  0.42374618764E+02 -0.29741099613E+01  0.47787267800E+02  0.19999985209E+02 0.  0.
         12    1    1    2    0    0 -0.88977474686E+01 -0.42374618764E+02  0.29741099613E+01  0.43400732200E+02  0.00000000000E+00 0. -1.
         11    1    3    3    0    0  0.13416371416E+01  0.13496859799E+02 -0.54583328727E+00  0.13574356298E+02  0.51100000000E-03 0. -1.
        -11    1    3    3    0    0  0.51946928629E+01  0.29937962797E+02  0.38798509640E+00  0.30387776869E+02  0.51100000000E-03 0.  1.
         12    1    3    3    0    0  0.23614174641E+01 -0.10602038321E+01 -0.28162617704E+01  0.38251346336E+01  0.00000000000E+00 0. -1.
</event>
<event>
 7    1  0.2733256E-010  0.4778727E+02  0.7816164E-02  0.1312668E+00
        -11   -1    0    0    0    0  0.00000000000E+00  0.00000000000E+00  0.45593999997E+02  0.45594000000E+02  0.51100000000E-03 0. -1.
         11   -1    0    0    0    0 -0.00000000000E+00 -0.00000000000E+00 -0.45593999997E+02  0.45594000000E+02  0.51100000000E-03 0.  1.
    9900012    2    1    2    0    0  0.23834019461E+01  0.42813025724E+02  0.67072480539E+01  0.47787274742E+02  0.20000016857E+02 0.  0.
         12    1    1    2    0    0 -0.23834019461E+01 -0.42813025724E+02 -0.67072480539E+01  0.43400725258E+02  0.00000000000E+00 0. -1.
         11    1    3    3    0    0 -0.31548994801E+01  0.21571597831E+02  0.94719756250E+01  0.23769845313E+02  0.51100000000E-03 0. -1.
        -11    1    3    3    0    0 -0.59425572093E-03  0.11563428956E+02 -0.50776702216E+01  0.12629157720E+02  0.51100000000E-03 0.  1.
        -12    1    3    3    0    0  0.55388956819E+01  0.96779989372E+01  0.23129426504E+01  0.11388271709E+02  0.00000000000E+00 0.  1.
</event>
<event>
 7    1  0.2733256E-010  0.4778725E+02  0.7816164E-02  0.1312668E+00
        -11   -1    0    0    0    0  0.00000000000E+00  0.00000000000E+00  0.45593999997E+02  0.45594000000E+02  0.51100000000E-03 0.  1.
         11   -1    0    0    0    0 -0.00000000000E+00 -0.00000000000E+00 -0.45593999997E+02  0.45594000000E+02  0.51100000000E-03 0. -1.
    9900012    2    1    2    0    0  0.32439569922E+01 -0.30785672160E+02  0.30419475378E+02  0.47787247131E+02  0.19999890970E+02 0.  0.
         12    1    1    2    0    0 -0.32439569922E+01  0.30785672160E+02 -0.30419475378E+02  0.43400752869E+02  0.00000000000E+00 0. -1.
         11    1    3    3    0    0 -0.32596648112E+01 -0.76310421011E+01  0.39917294374E+01  0.92082638099E+01  0.51100000000E-03 0. -1.
        -11    1    3    3    0    0  0.49855921628E+01 -0.16458746913E+02  0.81038109957E+01  0.19011002921E+02  0.51100000000E-03 0.  1.
        -12    1    3    3    0    0  0.15180296406E+01 -0.66958831462E+01  0.18323934945E+02  0.19567980400E+02  0.00000000000E+00 0.  1.
</event>
<event>
 7    1  0.2733256E-010  0.4778727E+02  0.7816164E-02  0.1312668E+00
        -11   -1    0    0    0    0  0.00000000000E+00  0.00000000000E+00  0.45593999997E+02  0.45594000000E+02  0.51100000000E-03 0.  1.
         11   -1    0    0    0    0 -0.00000000000E+00 -0.00000000000E+00 -0.45593999997E+02  0.45594000000E+02  0.51100000000E-03 0. -1.
    9900012    2    1    2    0    0  0.67188692696E+01 -0.23296875093E+02  0.35996325481E+02  0.47787273721E+02  0.20000012206E+02 0.  0.
         12    1    1    2    0    0 -0.67188692696E+01  0.23296875093E+02 -0.35996325481E+02  0.43400726279E+02  0.00000000000E+00 0. -1.
         11    1    3    3    0    0  0.84326433101E+01 -0.11952973505E+02  0.11205937829E+02  0.18427047829E+02  0.51100000000E-03 0. -1.
        -11    1    3    3    0    0  0.96072419420E+00  0.19431664834E+01  0.37827680300E+01  0.43598418767E+01  0.51100000000E-03 0.  1.
        -12    1    3    3    0    0 -0.26744982348E+01 -0.13287068072E+02  0.21007619622E+02  0.25000384016E+02  0.00000000000E+00 0.  1.
</event>
<event>
 7    1  0.2733256E-010  0.4778727E+02  0.7816164E-02  0.1312668E+00
        -11   -1    0    0    0    0  0.00000000000E+00  0.00000000000E+00  0.45593999997E+02  0.45594000000E+02  0.51100000000E-03 0. -1.
         11   -1    0    0    0    0 -0.00000000000E+00 -0.00000000000E+00 -0.45593999997E+02  0.45594000000E+02  0.51100000000E-03 0.  1.
    9900012    2    1    2    0    0 -0.22374137536E+02 -0.24263684752E+02 -0.28183236805E+02  0.47787271146E+02  0.20000000463E+02 0.  0.
         12    1    1    2    0    0  0.22374137536E+02  0.24263684752E+02  0.28183236805E+02  0.43400728854E+02  0.00000000000E+00 0. -1.
         11    1    3    3    0    0 -0.82805726133E+01 -0.13864236125E+02 -0.63531344958E+01  0.17353594565E+02  0.51100000000E-03 0. -1.
        -11    1    3    3    0    0 -0.14147393006E+02 -0.10189917998E+02 -0.13371374277E+02  0.21972182595E+02  0.51100000000E-03 0.  1.
         12    1    3    3    0    0  0.53828083386E-01 -0.20953062905E+00 -0.84587280322E+01  0.84614939857E+01  0.00000000000E+00 0. -1.
</event>
<event>
 7    1  0.2733256E-010  0.4778727E+02  0.7816164E-02  0.1312668E+00
        -11   -1    0    0    0    0  0.00000000000E+00  0.00000000000E+00  0.45593999997E+02  0.45594000000E+02  0.51100000000E-03 0.  1.
         11   -1    0    0    0    0 -0.00000000000E+00 -0.00000000000E+00 -0.45593999997E+02  0.45594000000E+02  0.51100000000E-03 0. -1.
    9900012    2    1    2    0    0  0.26330922490E+02 -0.80529341349E+01  0.33547816624E+02  0.47787271577E+02  0.20000002429E+02 0.  0.
         12    1    1    2    0    0 -0.26330922490E+02  0.80529341349E+01 -0.33547816624E+02  0.43400728423E+02  0.00000000000E+00 0. -1.
         11    1    3    3    0    0  0.71800808697E+00  0.45210711298E-01 -0.83424320661E+00  0.11016086466E+01  0.51100000000E-03 0. -1.
        -11    1    3    3    0    0  0.19399606050E+01  0.15512653928E+01 -0.12902701382E+01  0.27990478307E+01  0.51100000000E-03 0.  1.
        -12    1    3    3    0    0  0.23672953799E+02 -0.96494102390E+01  0.35672329969E+02  0.43886615100E+02  0.00000000000E+00 0.  1.
</event>
<event>
 7    1  0.2733256E-010  0.4778727E+02  0.7816164E-02  0.1312668E+00
        -11   -1    0    0    0    0  0.00000000000E+00  0.00000000000E+00  0.45593999997E+02  0.45594000000E+02  0.51100000000E-03 0.  1.
         11   -1    0    0    0    0 -0.00000000000E+00 -0.00000000000E+00 -0.45593999997E+02  0.45594000000E+02  0.51100000000E-03 0. -1.
    9900012    2    1    2    0    0  0.40292083266E+02 -0.14824770766E+01  0.16061554809E+02  0.47787271261E+02  0.20000000986E+02 0.  0.
         12    1    1    2    0    0 -0.40292083266E+02  0.14824770766E+01 -0.16061554809E+02  0.43400728739E+02  0.00000000000E+00 0. -1.
         11    1    3    3    0    0  0.27005852329E+01  0.18087087578E+00  0.48956968382E+01  0.55940792510E+01  0.51100000000E-03 0. -1.
        -11    1    3    3    0    0  0.34370475250E+02 -0.37374261998E+01  0.14130245895E+02  0.37349187044E+02  0.51100000000E-03 0.  1.
         12    1    3    3    0    0  0.32210227834E+01  0.20740782475E+01 -0.29643879240E+01  0.48440049661E+01  0.00000000000E+00 0. -1.
</event>
<event>
 7    1  0.2733256E-010  0.4778727E+02  0.7816164E-02  0.1312668E+00
        -11   -1    0    0    0    0  0.00000000000E+00  0.00000000000E+00  0.45593999997E+02  0.45594000000E+02  0.51100000000E-03 0. -1.
         11   -1    0    0    0    0 -0.00000000000E+00 -0.00000000000E+00 -0.45593999997E+02  0.45594000000E+02  0.51100000000E-03 0.  1.
    9900012    2    1    2    0    0 -0.94235295096E+01  0.31410627921E+02 -0.28428734998E+02  0.47787269264E+02  0.19999991883E+02 0.  0.
         12    1    1    2    0    0  0.94235295096E+01 -0.31410627921E+02  0.28428734998E+02  0.43400730736E+02  0.00000000000E+00 0. -1.
         11    1    3    3    0    0 -0.72285061737E+01  0.22890463958E+01 -0.47441802350E+01  0.89441758294E+01  0.51100000000E-03 0. -1.
        -11    1    3    3    0    0 -0.45625381859E+01  0.14512164792E+02 -0.76689214842E+01  0.17036197893E+02  0.51100000000E-03 0.  1.
        -12    1    3    3    0    0  0.23675148500E+01  0.14609416733E+02 -0.16015633279E+02  0.21806895542E+02  0.00000000000E+00 0.  1.
</event>
<event>
 7    1  0.2733256E-010  0.4778725E+02  0.7816164E-02  0.1312668E+00
        -11   -1    0    0    0    0  0.00000000000E+00  0.00000000000E+00  0.45593999997E+02  0.45594000000E+02  0.51100000000E-03 0.  1.
         11   -1    0    0    0    0 -0.00000000000E+00 -0.00000000000E+00 -0.45593999997E+02  0.45594000000E+02  0.51100000000E-03 0. -1.
    9900012    2    1    2    0    0 -0.20125827368E+02  0.19237429204E+02  0.33294107384E+02  0.47787248899E+02  0.19999899029E+02 0.  0.
         12    1    1    2    0    0  0.20125827368E+02 -0.19237429204E+02 -0.33294107384E+02  0.43400751101E+02  0.00000000000E+00 0. -1.
         11    1    3    3    0    0 -0.74454294823E+01  0.84531749691E+01  0.19294173836E+02  0.22341793382E+02  0.51100000000E-03 0. -1.
        -11    1    3    3    0    0 -0.31946942671E+01 -0.28474552429E+01  0.49100165276E+01  0.65132430772E+01  0.51100000000E-03 0.  1.
         12    1    3    3    0    0 -0.94857036181E+01  0.13631709478E+02  0.90899170207E+01  0.18932212440E+02  0.00000000000E+00 0. -1.
</event>
<event>
 7    1  0.2733256E-010  0.4778727E+02  0.7816164E-02  0.1312668E+00
        -11   -1    0    0    0    0  0.00000000000E+00  0.00000000000E+00  0.45593999997E+02  0.45594000000E+02  0.51100000000E-03 0.  1.
         11   -1    0    0    0    0 -0.00000000000E+00 -0.00000000000E+00 -0.45593999997E+02  0.45594000000E+02  0.51100000000E-03 0. -1.
    9900012    2    1    2    0    0  0.40187890546E+01  0.14799435490E+02  0.40601096936E+02  0.47787273869E+02  0.20000012876E+02 0.  0.
         12    1    1    2    0    0 -0.40187890546E+01 -0.14799435490E+02 -0.40601096936E+02  0.43400726131E+02  0.00000000000E+00 0. -1.
         11    1    3    3    0    0  0.39609588837E-01 -0.17357731252E+01  0.11666256149E+02  0.11794745019E+02  0.51100000000E-03 0. -1.
        -11    1    3    3    0    0  0.79217052228E+01  0.82841225962E+01  0.20819640677E+02  0.23766311010E+02  0.51100000000E-03 0.  1.
         12    1    3    3    0    0 -0.39425257570E+01  0.82510860193E+01  0.81152001099E+01  0.12226217840E+02  0.00000000000E+00 0. -1.
</event>
<event>
 7    1  0.2733256E-010  0.4778727E+02  0.7816164E-02  0.1312668E+00
        -11   -1    0    0    0    0  0.00000000000E+00  0.00000000000E+00  0.45593999997E+02  0.45594000000E+02  0.51100000000E-03 0. -1.
         11   -1    0    0    0    0 -0.00000000000E+00 -0.00000000000E+00 -0.45593999997E+02  0.45594000000E+02  0.51100000000E-03 0.  1.
    9900012    2    1    2    0    0 -0.27752331239E+02 -0.30542698853E+02 -0.13437811273E+02  0.47787272884E+02  0.20000008387E+02 0.  0.
         12    1    1    2    0    0  0.27752331239E+02  0.30542698853E+02  0.13437811273E+02  0.43400727116E+02  0.00000000000E+00 0. -1.
         11    1    3    3    0    0 -0.64491401297E+01 -0.51064841163E+00 -0.29797837966E+01  0.71225895536E+01  0.51100000000E-03 0. -1.
        -11    1    3    3    0    0 -0.15438067443E+02 -0.19642584339E+02 -0.13437254226E+02  0.28367672574E+02  0.51100000000E-03 0.  1.
        -12    1    3    3    0    0 -0.58651236663E+01 -0.10389466102E+02  0.29792267499E+01  0.12297010756E+02  0.00000000000E+00 0.  1.
</event>
<event>
 7    1  0.2733256E-010  0.4778727E+02  0.7816164E-02  0.1312668E+00
        -11   -1    0    0    0    0  0.00000000000E+00  0.00000000000E+00  0.45593999997E+02  0.45594000000E+02  0.51100000000E-03 0.  1.
         11   -1    0    0    0    0 -0.00000000000E+00 -0.00000000000E+00 -0.45593999997E+02  0.45594000000E+02  0.51100000000E-03 0. -1.
    9900012    2    1    2    0    0  0.19560697208E+02  0.35114947680E+02 -0.16368963724E+02  0.47787269600E+02  0.19999993416E+02 0.  0.
         12    1    1    2    0    0 -0.19560697208E+02 -0.35114947680E+02  0.16368963724E+02  0.43400730400E+02  0.00000000000E+00 0. -1.
         11    1    3    3    0    0  0.21107095781E+01  0.28022749597E+01 -0.43851834064E+01  0.56158413120E+01  0.51100000000E-03 0. -1.
        -11    1    3    3    0    0  0.15181369040E+02  0.10578398283E+02 -0.41993430847E+01  0.18973954748E+02  0.51100000000E-03 0.  1.
         12    1    3    3    0    0  0.22686185893E+01  0.21734274437E+02 -0.77844372332E+01  0.23197473540E+02  0.00000000000E+00 0. -1.
</event>
<event>
 7    1  0.2733256E-010  0.4778727E+02  0.7816164E-02  0.1312668E+00
        -11   -1    0    0    0    0  0.00000000000E+00  0.00000000000E+00  0.45593999997E+02  0.45594000000E+02  0.51100000000E-03 0. -1.
         11   -1    0    0    0    0 -0.00000000000E+00 -0.00000000000E+00 -0.45593999997E+02  0.45594000000E+02  0.51100000000E-03 0.  1.
    9900012    2    1    2    0    0  0.30636257506E+02  0.11655311127E+02 -0.28446385405E+02  0.47787269660E+02  0.19999993687E+02 0.  0.
         12    1    1    2    0    0 -0.30636257506E+02 -0.11655311127E+02  0.28446385405E+02  0.43400730340E+02  0.00000000000E+00 0. -1.
         11    1    3    3    0    0  0.15451466993E+02  0.87555334697E+01 -0.35820203640E+01  0.18117341658E+02  0.51100000000E-03 0. -1.
        -11    1    3    3    0    0  0.83627610053E+01  0.21411821562E+01 -0.94671622367E+01  0.12812009746E+02  0.51100000000E-03 0.  1.
         12    1    3    3    0    0  0.68220295072E+01  0.75859550095E+00 -0.15397202805E+02  0.16857918256E+02  0.00000000000E+00 0. -1.
</event>
<event>
 7    1  0.2733256E-010  0.4778727E+02  0.7816164E-02  0.1312668E+00
        -11   -1    0    0    0    0  0.00000000000E+00  0.00000000000E+00  0.45593999997E+02  0.45594000000E+02  0.51100000000E-03 0.  1.
         11   -1    0    0    0    0 -0.00000000000E+00 -0.00000000000E+00 -0.45593999997E+02  0.45594000000E+02  0.51100000000E-03 0. -1.
    9900012    2    1    2    0    0  0.24930092182E+02 -0.34777480475E+02  0.72553920378E+01  0.47787270075E+02  0.19999995580E+02 0.  0.
         12    1    1    2    0    0 -0.24930092182E+02  0.34777480475E+02 -0.72553920378E+01  0.43400729925E+02  0.00000000000E+00 0. -1.
         11    1    3    3    0    0 -0.50130194168E+00 -0.91832110569E+01 -0.15138281914E+01  0.93206408045E+01  0.51100000000E-03 0. -1.
        -11    1    3    3    0    0  0.67350136329E+01 -0.40084260530E+01 -0.17556851341E+01  0.80318315850E+01  0.51100000000E-03 0.  1.
        -12    1    3    3    0    0  0.18696380491E+02 -0.21585843365E+02  0.10524905363E+02  0.30434797685E+02  0.00000000000E+00 0.  1.
</event>
<event>
 7    1  0.2733256E-010  0.4778727E+02  0.7816164E-02  0.1312668E+00
        -11   -1    0    0    0    0  0.00000000000E+00  0.00000000000E+00  0.45593999997E+02  0.45594000000E+02  0.51100000000E-03 0.  1.
         11   -1    0    0    0    0 -0.00000000000E+00 -0.00000000000E+00 -0.45593999997E+02  0.45594000000E+02  0.51100000000E-03 0. -1.
    9900012    2    1    2    0    0  0.33779623424E+02  0.17982799025E+02  0.20473869523E+02  0.47787270136E+02  0.19999995858E+02 0.  0.
         12    1    1    2    0    0 -0.33779623424E+02 -0.17982799025E+02 -0.20473869523E+02  0.43400729864E+02  0.00000000000E+00 0. -1.
         11    1    3    3    0    0  0.12920758636E+02  0.77065226341E+01  0.86207235193E+01  0.17339358958E+02  0.51100000000E-03 0.  1.
        -11    1    3    3    0    0  0.55341121195E+01  0.11394274882E+02  0.48882074447E+01  0.13577572291E+02  0.51100000000E-03 0. -1.
         12    1    3    3    0    0  0.15324752669E+02 -0.11179984915E+01  0.69649385592E+01  0.16870338886E+02  0.00000000000E+00 0. -1.
</event>
<event>
 7    1  0.2733256E-010  0.4778728E+02  0.7816164E-02  0.1312668E+00
        -11   -1    0    0    0    0  0.00000000000E+00  0.00000000000E+00  0.45593999997E+02  0.45594000000E+02  0.51100000000E-03 0.  1.
         11   -1    0    0    0    0 -0.00000000000E+00 -0.00000000000E+00 -0.45593999997E+02  0.45594000000E+02  0.51100000000E-03 0. -1.
    9900012    2    1    2    0    0 -0.12143490735E+02 -0.40595225220E+01  0.41469006122E+02  0.47787279279E+02  0.20000037547E+02 0.  0.
         12    1    1    2    0    0  0.12143490735E+02  0.40595225220E+01 -0.41469006122E+02  0.43400720721E+02  0.00000000000E+00 0. -1.
         11    1    3    3    0    0  0.40731453150E+01  0.35889053537E+00  0.10862578825E+02  0.11606676276E+02  0.51100000000E-03 0. -1.
        -11    1    3    3    0    0 -0.38333800031E+01  0.16389105959E+01  0.13949132039E+02  0.14558815718E+02  0.51100000000E-03 0.  1.
         12    1    3    3    0    0 -0.12383256047E+02 -0.60573236533E+01  0.16657295257E+02  0.21621787286E+02  0.00000000000E+00 0. -1.
</event>
<event>
 7    1  0.2733256E-010  0.4778727E+02  0.7816164E-02  0.1312668E+00
        -11   -1    0    0    0    0  0.00000000000E+00  0.00000000000E+00  0.45593999997E+02  0.45594000000E+02  0.51100000000E-03 0.  1.
         11   -1    0    0    0    0 -0.00000000000E+00 -0.00000000000E+00 -0.45593999997E+02  0.45594000000E+02  0.51100000000E-03 0. -1.
    9900012    2    1    2    0    0 -0.13733093536E+02  0.24457209881E+02  0.33119032748E+02  0.47787270704E+02  0.19999998448E+02 0.  0.
         12    1    1    2    0    0  0.13733093536E+02 -0.24457209881E+02 -0.33119032748E+02  0.43400729296E+02  0.00000000000E+00 0. -1.
         11    1    3    3    0    0 -0.12048576829E+02  0.80885327128E+01  0.17024305673E+02  0.22370059208E+02  0.51100000000E-03 0. -1.
        -11    1    3    3    0    0  0.10102182670E+01 -0.93327070430E+00  0.37456211816E+01  0.39901395278E+01  0.51100000000E-03 0.  1.
         12    1    3    3    0    0 -0.26947349743E+01  0.17301947873E+02  0.12349105893E+02  0.21427071969E+02  0.00000000000E+00 0. -1.
</event>
<event>
 7    1  0.2733256E-010  0.4778727E+02  0.7816164E-02  0.1312668E+00
        -11   -1    0    0    0    0  0.00000000000E+00  0.00000000000E+00  0.45593999997E+02  0.45594000000E+02  0.51100000000E-03 0. -1.
         11   -1    0    0    0    0 -0.00000000000E+00 -0.00000000000E+00 -0.45593999997E+02  0.45594000000E+02  0.51100000000E-03 0.  1.
    9900012    2    1    2    0    0 -0.42228966515E+02  0.46728152628E+01 -0.88601773323E+01  0.47787267774E+02  0.19999985089E+02 0.  0.
         12    1    1    2    0    0  0.42228966515E+02 -0.46728152628E+01  0.88601773323E+01  0.43400732226E+02  0.00000000000E+00 0. -1.
         11    1    3    3    0    0 -0.26138148777E+02  0.32192587661E+01  0.38060720517E+00  0.26338399925E+02  0.51100000000E-03 0. -1.
        -11    1    3    3    0    0 -0.13869430757E+02  0.46391531587E+01 -0.44604938881E+01  0.15289828565E+02  0.51100000000E-03 0.  1.
         12    1    3    3    0    0 -0.22213869802E+01 -0.31855966619E+01 -0.47802906493E+01  0.61590392839E+01  0.00000000000E+00 0. -1.
</event>
<event>
 7    1  0.2733256E-010  0.4778727E+02  0.7816164E-02  0.1312668E+00
        -11   -1    0    0    0    0  0.00000000000E+00  0.00000000000E+00  0.45593999997E+02  0.45594000000E+02  0.51100000000E-03 0. -1.
         11   -1    0    0    0    0 -0.00000000000E+00 -0.00000000000E+00 -0.45593999997E+02  0.45594000000E+02  0.51100000000E-03 0.  1.
    9900012    2    1    2    0    0  0.23002178325E+02  0.23828650151E+02 -0.28048501434E+02  0.47787271798E+02  0.20000003437E+02 0.  0.
         12    1    1    2    0    0 -0.23002178325E+02 -0.23828650151E+02  0.28048501434E+02  0.43400728202E+02  0.00000000000E+00 0. -1.
         11    1    3    3    0    0  0.12167984199E+02  0.59687367437E+01 -0.15441337220E+02  0.20545572594E+02  0.51100000000E-03 0. -1.
        -11    1    3    3    0    0  0.11663523043E+02  0.16804495408E+02 -0.14390034188E+02  0.25010036383E+02  0.51100000000E-03 0.  1.
         12    1    3    3    0    0 -0.82932891654E+00  0.10554179989E+01  0.17828699740E+01  0.22316628214E+01  0.00000000000E+00 0. -1.
</event>
<event>
 7    1  0.2733256E-010  0.4778727E+02  0.7816164E-02  0.1312668E+00
        -11   -1    0    0    0    0  0.00000000000E+00  0.00000000000E+00  0.45593999997E+02  0.45594000000E+02  0.51100000000E-03 0.  1.
         11   -1    0    0    0    0 -0.00000000000E+00 -0.00000000000E+00 -0.45593999997E+02  0.45594000000E+02  0.51100000000E-03 0. -1.
    9900012    2    1    2    0    0 -0.30229631944E+02 -0.22732742570E+02  0.21284161824E+02  0.47787265251E+02  0.19999973585E+02 0.  0.
         12    1    1    2    0    0  0.30229631944E+02  0.22732742570E+02 -0.21284161824E+02  0.43400734749E+02  0.00000000000E+00 0. -1.
         11    1    3    3    0    0 -0.21646944091E+01 -0.39770605217E+01  0.10572975467E+02  0.11501770419E+02  0.51100000000E-03 0. -1.
        -11    1    3    3    0    0 -0.18816413854E+02 -0.12032493232E+02  0.10894282551E+02  0.24850024472E+02  0.51100000000E-03 0.  1.
        -12    1    3    3    0    0 -0.92485236805E+01 -0.67231888165E+01 -0.18309619440E+00  0.11435470360E+02  0.00000000000E+00 0.  1.
</event>
<event>
 7    1  0.2733256E-010  0.4778727E+02  0.7816164E-02  0.1312668E+00
        -11   -1    0    0    0    0  0.00000000000E+00  0.00000000000E+00  0.45593999997E+02  0.45594000000E+02  0.51100000000E-03 0.  1.
         11   -1    0    0    0    0 -0.00000000000E+00 -0.00000000000E+00 -0.45593999997E+02  0.45594000000E+02  0.51100000000E-03 0. -1.
    9900012    2    1    2    0    0  0.40767907042E+02  0.56294635047E+01  0.13780792900E+02  0.47787270088E+02  0.19999995640E+02 0.  0.
         12    1    1    2    0    0 -0.40767907042E+02 -0.56294635047E+01 -0.13780792900E+02  0.43400729912E+02  0.00000000000E+00 0. -1.
         11    1    3    3    0    0  0.36775904159E+01 -0.12976077149E+01 -0.10542621208E+01  0.40397928077E+01  0.51100000000E-03 0. -1.
        -11    1    3    3    0    0  0.57981978372E+01 -0.50103750707E+01  0.26801266727E+01  0.81182532450E+01  0.51100000000E-03 0.  1.
         12    1    3    3    0    0  0.31292118789E+02  0.11937446290E+02  0.12154928348E+02  0.35629224035E+02  0.00000000000E+00 0. -1.
</event>
<event>
 7    1  0.2733256E-010  0.4778727E+02  0.7816164E-02  0.1312668E+00
        -11   -1    0    0    0    0  0.00000000000E+00  0.00000000000E+00  0.45593999997E+02  0.45594000000E+02  0.51100000000E-03 0.  1.
         11   -1    0    0    0    0 -0.00000000000E+00 -0.00000000000E+00 -0.45593999997E+02  0.45594000000E+02  0.51100000000E-03 0. -1.
    9900012    2    1    2    0    0  0.36282626550E+02 -0.21296036703E+02 -0.10661763908E+02  0.47787269842E+02  0.19999994518E+02 0.  0.
         12    1    1    2    0    0 -0.36282626550E+02  0.21296036703E+02  0.10661763908E+02  0.43400730158E+02  0.00000000000E+00 0. -1.
         11    1    3    3    0    0  0.32852596323E+01 -0.19756897862E+01 -0.52250250679E+01  0.64805222169E+01  0.51100000000E-03 0. -1.
        -11    1    3    3    0    0  0.97482679479E+01 -0.11073495152E+02 -0.75041601846E+01  0.16551841082E+02  0.51100000000E-03 0.  1.
        -12    1    3    3    0    0  0.23249098970E+02 -0.82468517641E+01  0.20674213448E+01  0.24754906543E+02  0.00000000000E+00 0.  1.
</event>
<event>
 7    1  0.2733256E-010  0.4778727E+02  0.7816164E-02  0.1312668E+00
        -11   -1    0    0    0    0  0.00000000000E+00  0.00000000000E+00  0.45593999997E+02  0.45594000000E+02  0.51100000000E-03 0.  1.
         11   -1    0    0    0    0 -0.00000000000E+00 -0.00000000000E+00 -0.45593999997E+02  0.45594000000E+02  0.51100000000E-03 0. -1.
    9900012    2    1    2    0    0 -0.13566763525E+02  0.27818285433E+02  0.30425467766E+02  0.47787272290E+02  0.20000005680E+02 0.  0.
         12    1    1    2    0    0  0.13566763525E+02 -0.27818285433E+02 -0.30425467766E+02  0.43400727710E+02  0.00000000000E+00 0. -1.
         11    1    3    3    0    0 -0.78922183042E+01  0.16333380052E+02  0.27516440913E+02  0.32957866049E+02  0.51100000000E-03 0.  1.
        -11    1    3    3    0    0 -0.22671343294E+01  0.77409273640E+01  0.48451258896E+01  0.94094154797E+01  0.51100000000E-03 0. -1.
        -12    1    3    3    0    0 -0.34074108918E+01  0.37439780165E+01 -0.19360990371E+01  0.54199907616E+01  0.00000000000E+00 0.  1.
</event>
<event>
 7    1  0.2733256E-010  0.4778727E+02  0.7816164E-02  0.1312668E+00
        -11   -1    0    0    0    0  0.00000000000E+00  0.00000000000E+00  0.45593999997E+02  0.45594000000E+02  0.51100000000E-03 0.  1.
         11   -1    0    0    0    0 -0.00000000000E+00 -0.00000000000E+00 -0.45593999997E+02  0.45594000000E+02  0.51100000000E-03 0. -1.
    9900012    2    1    2    0    0 -0.34527045218E+02  0.17536327657E+02  0.19595493785E+02  0.47787274017E+02  0.20000013553E+02 0.  0.
         12    1    1    2    0    0  0.34527045218E+02 -0.17536327657E+02 -0.19595493785E+02  0.43400725983E+02  0.00000000000E+00 0. -1.
         11    1    3    3    0    0 -0.23243450980E+02  0.15675560604E+02  0.12674593845E+02  0.30767296649E+02  0.51100000000E-03 0. -1.
        -11    1    3    3    0    0 -0.83189489756E+01  0.24605417294E+01 -0.81536226530E+00  0.87134375275E+01  0.51100000000E-03 0.  1.
        -12    1    3    3    0    0 -0.29646452620E+01 -0.59977467677E+00  0.77362622061E+01  0.83065398400E+01  0.00000000000E+00 0.  1.
</event>
<event>
 7    1  0.2733256E-010  0.4778727E+02  0.7816164E-02  0.1312668E+00
        -11   -1    0    0    0    0  0.00000000000E+00  0.00000000000E+00  0.45593999997E+02  0.45594000000E+02  0.51100000000E-03 0.  1.
         11   -1    0    0    0    0 -0.00000000000E+00 -0.00000000000E+00 -0.45593999997E+02  0.45594000000E+02  0.51100000000E-03 0. -1.
    9900012    2    1    2    0    0 -0.29529415356E+02  0.31519151480E+02 -0.42637820462E+01  0.47787272833E+02  0.20000008156E+02 0.  0.
         12    1    1    2    0    0  0.29529415356E+02 -0.31519151480E+02  0.42637820462E+01  0.43400727167E+02  0.00000000000E+00 0. -1.
         11    1    3    3    0    0  0.11166785986E+01  0.15945956203E+01  0.90784242070E+00  0.21479954392E+01  0.51100000000E-03 0. -1.
        -11    1    3    3    0    0 -0.99853589194E+01  0.15312968747E+02  0.40172380877E+01  0.18717174111E+02  0.51100000000E-03 0.  1.
         12    1    3    3    0    0 -0.20660735035E+02  0.14611587113E+02 -0.91888625547E+01  0.26922103283E+02  0.00000000000E+00 0. -1.
</event>
<event>
 7    1  0.2733256E-010  0.4778727E+02  0.7816164E-02  0.1312668E+00
        -11   -1    0    0    0    0  0.00000000000E+00  0.00000000000E+00  0.45593999997E+02  0.45594000000E+02  0.51100000000E-03 0.  1.
         11   -1    0    0    0    0 -0.00000000000E+00 -0.00000000000E+00 -0.45593999997E+02  0.45594000000E+02  0.51100000000E-03 0. -1.
    9900012    2    1    2    0    0 -0.24171770603E+02 -0.30538253613E+02  0.19151087382E+02  0.47787267567E+02  0.19999984146E+02 0.  0.
         12    1    1    2    0    0  0.24171770603E+02  0.30538253613E+02 -0.19151087382E+02  0.43400732433E+02  0.00000000000E+00 0. -1.
         11    1    3    3    0    0  0.43923820163E+00  0.47440894159E+00  0.10432495133E+01  0.12273401524E+01  0.51100000000E-03 0. -1.
        -11    1    3    3    0    0 -0.31102534344E+01 -0.21135877181E+01  0.84785323760E+01  0.92750439881E+01  0.51100000000E-03 0.  1.
        -12    1    3    3    0    0 -0.21500755370E+02 -0.28899074836E+02  0.96293054924E+01  0.37284883427E+02  0.00000000000E+00 0.  1.
</event>
<event>
 7    1  0.2733256E-010  0.4778727E+02  0.7816164E-02  0.1312668E+00
        -11   -1    0    0    0    0  0.00000000000E+00  0.00000000000E+00  0.45593999997E+02  0.45594000000E+02  0.51100000000E-03 0. -1.
         11   -1    0    0    0    0 -0.00000000000E+00 -0.00000000000E+00 -0.45593999997E+02  0.45594000000E+02  0.51100000000E-03 0.  1.
    9900012    2    1    2    0    0 -0.19673794154E+02  0.22361376839E+02 -0.31567923065E+02  0.47787272850E+02  0.20000008231E+02 0.  0.
         12    1    1    2    0    0  0.19673794154E+02 -0.22361376839E+02  0.31567923065E+02  0.43400727150E+02  0.00000000000E+00 0. -1.
         11    1    3    3    0    0 -0.60618982156E+01  0.39774281924E+00 -0.11512469337E+01  0.61830558052E+01  0.51100000000E-03 0. -1.
        -11    1    3    3    0    0  0.17437255352E+01  0.41628631415E+01 -0.76268488369E+01  0.88622137031E+01  0.51100000000E-03 0.  1.
        -12    1    3    3    0    0 -0.15355621473E+02  0.17800770878E+02 -0.22789827294E+02  0.32742003341E+02  0.00000000000E+00 0.  1.
</event>
<event>
 7    1  0.2733256E-010  0.4778727E+02  0.7816164E-02  0.1312668E+00
        -11   -1    0    0    0    0  0.00000000000E+00  0.00000000000E+00  0.45593999997E+02  0.45594000000E+02  0.51100000000E-03 0. -1.
         11   -1    0    0    0    0 -0.00000000000E+00 -0.00000000000E+00 -0.45593999997E+02  0.45594000000E+02  0.51100000000E-03 0.  1.
    9900012    2    1    2    0    0 -0.14896480781E+02 -0.33761977457E+02 -0.22843966483E+02  0.47787273437E+02  0.20000010910E+02 0.  0.
         12    1    1    2    0    0  0.14896480781E+02  0.33761977457E+02  0.22843966483E+02  0.43400726563E+02  0.00000000000E+00 0. -1.
         11    1    3    3    0    0 -0.57637712235E+01 -0.20799282043E+02 -0.12585902890E+02  0.24984718210E+02  0.51100000000E-03 0. -1.
        -11    1    3    3    0    0  0.26510860664E+01 -0.56867622614E+01 -0.48687750546E+01  0.79418192590E+01  0.51100000000E-03 0.  1.
         12    1    3    3    0    0 -0.11783795624E+02 -0.72759331527E+01 -0.53892885382E+01  0.14860735968E+02  0.00000000000E+00 0. -1.
</event>
<event>
 7    1  0.2733256E-010  0.4778728E+02  0.7816164E-02  0.1312668E+00
        -11   -1    0    0    0    0  0.00000000000E+00  0.00000000000E+00  0.45593999997E+02  0.45594000000E+02  0.51100000000E-03 0.  1.
         11   -1    0    0    0    0 -0.00000000000E+00 -0.00000000000E+00 -0.45593999997E+02  0.45594000000E+02  0.51100000000E-03 0. -1.
    9900012    2    1    2    0    0  0.13970663396E+02 -0.22243650108E+02  0.34549435943E+02  0.47787275008E+02  0.20000018071E+02 0.  0.
         12    1    1    2    0    0 -0.13970663396E+02  0.22243650108E+02 -0.34549435943E+02  0.43400724992E+02  0.00000000000E+00 0. -1.
         11    1    3    3    0    0  0.25073991659E+01 -0.87119235259E+01  0.16448404777E+02  0.18781232177E+02  0.51100000000E-03 0. -1.
        -11    1    3    3    0    0  0.11887795704E+02 -0.15100887398E+02  0.19102070645E+02  0.27096966437E+02  0.51100000000E-03 0.  1.
         12    1    3    3    0    0 -0.42453147365E+00  0.15691608161E+01 -0.10010394791E+01  0.19090763939E+01  0.00000000000E+00 0. -1.
</event>
<event>
 7    1  0.2733256E-010  0.4778728E+02  0.7816164E-02  0.1312668E+00
        -11   -1    0    0    0    0  0.00000000000E+00  0.00000000000E+00  0.45593999997E+02  0.45594000000E+02  0.51100000000E-03 0.  1.
         11   -1    0    0    0    0 -0.00000000000E+00 -0.00000000000E+00 -0.45593999997E+02  0.45594000000E+02  0.51100000000E-03 0. -1.
    9900012    2    1    2    0    0  0.24558939711E+01 -0.28859212911E+02  0.32322394579E+02  0.47787276776E+02  0.20000026133E+02 0.  0.
         12    1    1    2    0    0 -0.24558939711E+01  0.28859212911E+02 -0.32322394579E+02  0.43400723224E+02  0.00000000000E+00 0. -1.
         11    1    3    3    0    0 -0.49375871479E+01 -0.67122824468E+01  0.93649883252E+01  0.12535450095E+02  0.51100000000E-03 0. -1.
        -11    1    3    3    0    0  0.27306626527E+01 -0.21422329315E+02  0.21064211403E+02  0.30167428032E+02  0.51100000000E-03 0.  1.
         12    1    3    3    0    0  0.46628184663E+01 -0.72460114875E+00  0.18931948512E+01  0.50843986488E+01  0.00000000000E+00 0. -1.
</event>
<event>
 7    1  0.2733256E-010  0.4778727E+02  0.7816164E-02  0.1312668E+00
        -11   -1    0    0    0    0  0.00000000000E+00  0.00000000000E+00  0.45593999997E+02  0.45594000000E+02  0.51100000000E-03 0.  1.
         11   -1    0    0    0    0 -0.00000000000E+00 -0.00000000000E+00 -0.45593999997E+02  0.45594000000E+02  0.51100000000E-03 0. -1.
    9900012    2    1    2    0    0  0.13069654729E+02  0.21842672201E+02  0.35152596851E+02  0.47787271101E+02  0.20000000258E+02 0.  0.
         12    1    1    2    0    0 -0.13069654729E+02 -0.21842672201E+02 -0.35152596851E+02  0.43400728899E+02  0.00000000000E+00 0. -1.
         11    1    3    3    0    0  0.28326848026E+01  0.69595782705E+01  0.16332308373E+01  0.76894262544E+01  0.51100000000E-03 0. -1.
        -11    1    3    3    0    0 -0.11417105182E+01 -0.10803305963E+01  0.66741571104E+01  0.68567478079E+01  0.51100000000E-03 0.  1.
        -12    1    3    3    0    0  0.11378680445E+02  0.15963424527E+02  0.26845208903E+02  0.33241097039E+02  0.00000000000E+00 0.  1.
</event>
<event>
 7    1  0.2733256E-010  0.4778726E+02  0.7816164E-02  0.1312668E+00
        -11   -1    0    0    0    0  0.00000000000E+00  0.00000000000E+00  0.45593999997E+02  0.45594000000E+02  0.51100000000E-03 0.  1.
         11   -1    0    0    0    0 -0.00000000000E+00 -0.00000000000E+00 -0.45593999997E+02  0.45594000000E+02  0.51100000000E-03 0. -1.
    9900012    2    1    2    0    0 -0.34926807293E+02 -0.97522936423E+01  0.23846071419E+02  0.47787260132E+02  0.19999950246E+02 0.  0.
         12    1    1    2    0    0  0.34926807293E+02  0.97522936423E+01 -0.23846071419E+02  0.43400739868E+02  0.00000000000E+00 0. -1.
         11    1    3    3    0    0 -0.11010635443E+02 -0.25425051966E+01  0.10054839557E+02  0.15126077625E+02  0.51100000000E-03 0. -1.
        -11    1    3    3    0    0 -0.25410312037E+02 -0.41095081866E+01  0.13827663098E+02  0.29219450412E+02  0.51100000000E-03 0.  1.
         12    1    3    3    0    0  0.14941401863E+01 -0.31002802591E+01 -0.36431236839E-01  0.34417320954E+01  0.00000000000E+00 0. -1.
</event>
<event>
 7    1  0.2733256E-010  0.4778727E+02  0.7816164E-02  0.1312668E+00
        -11   -1    0    0    0    0  0.00000000000E+00  0.00000000000E+00  0.45593999997E+02  0.45594000000E+02  0.51100000000E-03 0.  1.
         11   -1    0    0    0    0 -0.00000000000E+00 -0.00000000000E+00 -0.45593999997E+02  0.45594000000E+02  0.51100000000E-03 0. -1.
    9900012    2    1    2    0    0  0.20502988667E+02  0.33453460064E+02 -0.18550387396E+02  0.47787269510E+02  0.19999993005E+02 0.  0.
         12    1    1    2    0    0 -0.20502988667E+02 -0.33453460064E+02  0.18550387396E+02  0.43400730490E+02  0.00000000000E+00 0. -1.
         11    1    3    3    0    0  0.12498052363E+02  0.73158205967E+01 -0.90698051251E+01  0.17087536661E+02  0.51100000000E-03 0. -1.
        -11    1    3    3    0    0  0.88814631127E+01  0.12333622161E+02 -0.66068574306E+01  0.16572543196E+02  0.51100000000E-03 0.  1.
         12    1    3    3    0    0 -0.87652680849E+00  0.13804017306E+02 -0.28737248404E+01  0.14127189653E+02  0.00000000000E+00 0. -1.
</event>
<event>
 7    1  0.2733256E-010  0.4778727E+02  0.7816164E-02  0.1312668E+00
        -11   -1    0    0    0    0  0.00000000000E+00  0.00000000000E+00  0.45593999997E+02  0.45594000000E+02  0.51100000000E-03 0.  1.
         11   -1    0    0    0    0 -0.00000000000E+00 -0.00000000000E+00 -0.45593999997E+02  0.45594000000E+02  0.51100000000E-03 0. -1.
    9900012    2    1    2    0    0 -0.75934875039E+01 -0.14652826482E+02  0.40140462183E+02  0.47787273270E+02  0.20000010148E+02 0.  0.
         12    1    1    2    0    0  0.75934875039E+01  0.14652826482E+02 -0.40140462183E+02  0.43400726730E+02  0.00000000000E+00 0. -1.
         11    1    3    3    0    0  0.26717794004E+00 -0.77271833253E+01  0.17430598415E+02  0.19068468936E+02  0.51100000000E-03 0. -1.
        -11    1    3    3    0    0  0.16313274417E+00 -0.83236888317E+01  0.64443150540E+01  0.10528038983E+02  0.51100000000E-03 0.  1.
         12    1    3    3    0    0 -0.80237981881E+01  0.13980456753E+01  0.16265548714E+02  0.18190765351E+02  0.00000000000E+00 0. -1.
</event>
<event>
 7    1  0.2733256E-010  0.4778727E+02  0.7816164E-02  0.1312668E+00
        -11   -1    0    0    0    0  0.00000000000E+00  0.00000000000E+00  0.45593999997E+02  0.45594000000E+02  0.51100000000E-03 0.  1.
         11   -1    0    0    0    0 -0.00000000000E+00 -0.00000000000E+00 -0.45593999997E+02  0.45594000000E+02  0.51100000000E-03 0. -1.
    9900012    2    1    2    0    0 -0.30200142977E+02 -0.25850356694E+02  0.17416475804E+02  0.47787271821E+02  0.20000003541E+02 0.  0.
         12    1    1    2    0    0  0.30200142977E+02  0.25850356694E+02 -0.17416475804E+02  0.43400728179E+02  0.00000000000E+00 0. -1.
         11    1    3    3    0    0 -0.17128135231E+02 -0.17744542274E+02  0.18074089546E+02  0.30576371763E+02  0.51100000000E-03 0. -1.
        -11    1    3    3    0    0 -0.55895022328E+01  0.70715065503E+00 -0.57370713590E-01  0.56343490236E+01  0.51100000000E-03 0.  1.
        -12    1    3    3    0    0 -0.74825055125E+01 -0.88129650750E+01 -0.60024302858E+00  0.11576551034E+02  0.00000000000E+00 0.  1.
</event>
<event>
 7    1  0.2733256E-010  0.4778727E+02  0.7816164E-02  0.1312668E+00
        -11   -1    0    0    0    0  0.00000000000E+00  0.00000000000E+00  0.45593999997E+02  0.45594000000E+02  0.51100000000E-03 0.  1.
         11   -1    0    0    0    0 -0.00000000000E+00 -0.00000000000E+00 -0.45593999997E+02  0.45594000000E+02  0.51100000000E-03 0. -1.
    9900012    2    1    2    0    0 -0.11166077027E+02  0.13671458184E+02  0.39648877313E+02  0.47787268241E+02  0.19999987219E+02 0.  0.
         12    1    1    2    0    0  0.11166077027E+02 -0.13671458184E+02 -0.39648877313E+02  0.43400731759E+02  0.00000000000E+00 0. -1.
         11    1    3    3    0    0 -0.15712141025E+01  0.53670944326E+01  0.21023057046E+02  0.21754156942E+02  0.51100000000E-03 0. -1.
        -11    1    3    3    0    0 -0.46038163505E+01  0.11381609411E+02  0.13464129082E+02  0.18221386609E+02  0.51100000000E-03 0.  1.
         12    1    3    3    0    0 -0.49910465742E+01 -0.30772456596E+01  0.51616911843E+01  0.78117246904E+01  0.00000000000E+00 0. -1.
</event>
<event>
 7    1  0.2733256E-010  0.4778727E+02  0.7816164E-02  0.1312668E+00
        -11   -1    0    0    0    0  0.00000000000E+00  0.00000000000E+00  0.45593999997E+02  0.45594000000E+02  0.51100000000E-03 0.  1.
         11   -1    0    0    0    0 -0.00000000000E+00 -0.00000000000E+00 -0.45593999997E+02  0.45594000000E+02  0.51100000000E-03 0. -1.
    9900012    2    1    2    0    0 -0.20857146399E+02  0.37685640898E+02 -0.53286971039E+01  0.47787273063E+02  0.20000009204E+02 0.  0.
         12    1    1    2    0    0  0.20857146399E+02 -0.37685640898E+02  0.53286971039E+01  0.43400726937E+02  0.00000000000E+00 0. -1.
         11    1    3    3    0    0 -0.44985039561E+01  0.24286960605E+02 -0.49769108622E+01  0.25196480612E+02  0.51100000000E-03 0. -1.
        -11    1    3    3    0    0 -0.88993493966E+00  0.23306452210E+01 -0.23980984579E+01  0.34604577468E+01  0.51100000000E-03 0.  1.
        -12    1    3    3    0    0 -0.15468707504E+02  0.11068035073E+02  0.20463122161E+01  0.19130334704E+02  0.00000000000E+00 0.  1.
</event>
<event>
 7    1  0.2733256E-010  0.4778727E+02  0.7816164E-02  0.1312668E+00
        -11   -1    0    0    0    0  0.00000000000E+00  0.00000000000E+00  0.45593999997E+02  0.45594000000E+02  0.51100000000E-03 0. -1.
         11   -1    0    0    0    0 -0.00000000000E+00 -0.00000000000E+00 -0.45593999997E+02  0.45594000000E+02  0.51100000000E-03 0.  1.
    9900012    2    1    2    0    0  0.23267012698E+02  0.34616047176E+02 -0.11999946756E+02  0.47787270466E+02  0.19999997363E+02 0.  0.
         12    1    1    2    0    0 -0.23267012698E+02 -0.34616047176E+02  0.11999946756E+02  0.43400729534E+02  0.00000000000E+00 0. -1.
         11    1    3    3    0    0  0.67896455542E+01  0.80469236246E+01  0.74095850959E+00  0.10554680779E+02  0.51100000000E-03 0. -1.
        -11    1    3    3    0    0  0.13167111850E+02  0.65740911088E+01 -0.52575049046E+01  0.15627951448E+02  0.51100000000E-03 0.  1.
         12    1    3    3    0    0  0.33102552933E+01  0.19995032442E+02 -0.74834003613E+01  0.21604638239E+02  0.00000000000E+00 0. -1.
</event>
<event>
 7    1  0.2733256E-010  0.4778729E+02  0.7816164E-02  0.1312668E+00
        -11   -1    0    0    0    0  0.00000000000E+00  0.00000000000E+00  0.45593999997E+02  0.45594000000E+02  0.51100000000E-03 0.  1.
         11   -1    0    0    0    0 -0.00000000000E+00 -0.00000000000E+00 -0.45593999997E+02  0.45594000000E+02  0.51100000000E-03 0. -1.
    9900012    2    1    2    0    0  0.37932697742E+02 -0.16373857871E+02  0.13290181248E+02  0.47787289209E+02  0.20000082820E+02 0.  0.
         12    1    1    2    0    0 -0.37932697742E+02  0.16373857871E+02 -0.13290181248E+02  0.43400710791E+02  0.00000000000E+00 0. -1.
         11    1    3    3    0    0  0.18275176894E+02 -0.85315842233E+01  0.37449830726E+00  0.20172016982E+02  0.51100000000E-03 0. -1.
        -11    1    3    3    0    0  0.18116804808E+02 -0.77937520799E+01  0.61242419593E+01  0.20651090232E+02  0.51100000000E-03 0.  1.
        -12    1    3    3    0    0  0.15407160390E+01 -0.48521568198E-01  0.67914409814E+01  0.69641819950E+01  0.00000000000E+00 0.  1.
</event>
<event>
 7    1  0.2733256E-010  0.4778728E+02  0.7816164E-02  0.1312668E+00
        -11   -1    0    0    0    0  0.00000000000E+00  0.00000000000E+00  0.45593999997E+02  0.45594000000E+02  0.51100000000E-03 0. -1.
         11   -1    0    0    0    0 -0.00000000000E+00 -0.00000000000E+00 -0.45593999997E+02  0.45594000000E+02  0.51100000000E-03 0.  1.
    9900012    2    1    2    0    0 -0.41125229640E+02 -0.18383068459E+01 -0.13746220664E+02  0.47787280334E+02  0.20000042353E+02 0.  0.
         12    1    1    2    0    0  0.41125229640E+02  0.18383068459E+01  0.13746220664E+02  0.43400719666E+02  0.00000000000E+00 0. -1.
         11    1    3    3    0    0 -0.42596240845E+01  0.14064942976E+01  0.10283821588E+00  0.44870033999E+01  0.51100000000E-03 0. -1.
        -11    1    3    3    0    0 -0.23205631618E+02 -0.96856848823E+01 -0.12655313777E+02  0.28150857846E+02  0.51100000000E-03 0.  1.
        -12    1    3    3    0    0 -0.13659973938E+02  0.64408837388E+01 -0.11937451030E+01  0.15149419088E+02  0.00000000000E+00 0.  1.
</event>
<event>
 7    1  0.2733256E-010  0.4778727E+02  0.7816164E-02  0.1312668E+00
        -11   -1    0    0    0    0  0.00000000000E+00  0.00000000000E+00  0.45593999997E+02  0.45594000000E+02  0.51100000000E-03 0. -1.
         11   -1    0    0    0    0 -0.00000000000E+00 -0.00000000000E+00 -0.45593999997E+02  0.45594000000E+02  0.51100000000E-03 0.  1.
    9900012    2    1    2    0    0 -0.39053237290E+02  0.16870647557E+02 -0.85935465368E+01  0.47787272657E+02  0.20000007353E+02 0.  0.
         12    1    1    2    0    0  0.39053237290E+02 -0.16870647557E+02  0.85935465368E+01  0.43400727343E+02  0.00000000000E+00 0. -1.
         11    1    3    3    0    0 -0.43604771897E+01 -0.30066576860E+01  0.15686504607E+01  0.55239855442E+01  0.51100000000E-03 0. -1.
        -11    1    3    3    0    0 -0.11932432194E+02  0.21132882802E+01 -0.37837469495E+01  0.12695104043E+02  0.51100000000E-03 0.  1.
        -12    1    3    3    0    0 -0.22760327906E+02  0.17764016963E+02 -0.63784500481E+01  0.29568183070E+02  0.00000000000E+00 0.  1.
</event>
<event>
 7    1  0.2733256E-010  0.4778727E+02  0.7816164E-02  0.1312668E+00
        -11   -1    0    0    0    0  0.00000000000E+00  0.00000000000E+00  0.45593999997E+02  0.45594000000E+02  0.51100000000E-03 0.  1.
         11   -1    0    0    0    0 -0.00000000000E+00 -0.00000000000E+00 -0.45593999997E+02  0.45594000000E+02  0.51100000000E-03 0. -1.
    9900012    2    1    2    0    0 -0.14940866974E+02  0.19945940694E+02  0.35532426313E+02  0.47787269870E+02  0.19999994646E+02 0.  0.
         12    1    1    2    0    0  0.14940866974E+02 -0.19945940694E+02 -0.35532426313E+02  0.43400730130E+02  0.00000000000E+00 0. -1.
         11    1    3    3    0    0 -0.34578137505E+01  0.11447745436E+02  0.80398687496E+01  0.14409956324E+02  0.51100000000E-03 0. -1.
        -11    1    3    3    0    0 -0.57347866475E+01  0.10256487205E+02  0.12167147197E+02  0.16915164169E+02  0.51100000000E-03 0.  1.
         12    1    3    3    0    0 -0.57482665764E+01 -0.17582919475E+01  0.15325410367E+02  0.16462149377E+02  0.00000000000E+00 0. -1.
</event>
<event>
 7    1  0.2733256E-010  0.4778727E+02  0.7816164E-02  0.1312668E+00
        -11   -1    0    0    0    0  0.00000000000E+00  0.00000000000E+00  0.45593999997E+02  0.45594000000E+02  0.51100000000E-03 0.  1.
         11   -1    0    0    0    0 -0.00000000000E+00 -0.00000000000E+00 -0.45593999997E+02  0.45594000000E+02  0.51100000000E-03 0. -1.
    9900012    2    1    2    0    0 -0.34587006048E+01  0.27039789899E+02  0.33771440283E+02  0.47787273895E+02  0.20000012997E+02 0.  0.
         12    1    1    2    0    0  0.34587006048E+01 -0.27039789899E+02 -0.33771440283E+02  0.43400726105E+02  0.00000000000E+00 0. -1.
         11    1    3    3    0    0  0.39444796091E+01  0.48513387268E+01  0.23752014576E+01  0.66884967709E+01  0.51100000000E-03 0. -1.
        -11    1    3    3    0    0  0.24430009831E+01  0.88324161026E+01  0.16129127624E+02  0.18550703118E+02  0.51100000000E-03 0.  1.
         12    1    3    3    0    0 -0.98461811970E+01  0.13356035069E+02  0.15267111202E+02  0.22548074006E+02  0.00000000000E+00 0. -1.
</event>
<event>
 7    1  0.2733256E-010  0.4778727E+02  0.7816164E-02  0.1312668E+00
        -11   -1    0    0    0    0  0.00000000000E+00  0.00000000000E+00  0.45593999997E+02  0.45594000000E+02  0.51100000000E-03 0. -1.
         11   -1    0    0    0    0 -0.00000000000E+00 -0.00000000000E+00 -0.45593999997E+02  0.45594000000E+02  0.51100000000E-03 0.  1.
    9900012    2    1    2    0    0  0.43221737911E+02 -0.38401124553E+01 -0.87059964415E+00  0.47787273792E+02  0.20000012525E+02 0.  0.
         12    1    1    2    0    0 -0.43221737911E+02  0.38401124553E+01  0.87059964415E+00  0.43400726208E+02  0.00000000000E+00 0. -1.
         11    1    3    3    0    0  0.21714079427E+02  0.80625345950E+00  0.71219858034E+00  0.21740711052E+02  0.51100000000E-03 0. -1.
        -11    1    3    3    0    0  0.19393919680E+02 -0.32402791329E+01 -0.63355844660E+01  0.20658246785E+02  0.51100000000E-03 0.  1.
        -12    1    3    3    0    0  0.21137388037E+01 -0.14060867818E+01  0.47527862415E+01  0.53883159545E+01  0.00000000000E+00 0.  1.
</event>
<event>
 7    1  0.2733256E-010  0.4778727E+02  0.7816164E-02  0.1312668E+00
        -11   -1    0    0    0    0  0.00000000000E+00  0.00000000000E+00  0.45593999997E+02  0.45594000000E+02  0.51100000000E-03 0.  1.
         11   -1    0    0    0    0 -0.00000000000E+00 -0.00000000000E+00 -0.45593999997E+02  0.45594000000E+02  0.51100000000E-03 0. -1.
    9900012    2    1    2    0    0  0.26154076672E+00 -0.35710233277E+02  0.24664429927E+02  0.47787271114E+02  0.20000000316E+02 0.  0.
         12    1    1    2    0    0 -0.26154076672E+00  0.35710233277E+02 -0.24664429927E+02  0.43400728886E+02  0.00000000000E+00 0. -1.
         11    1    3    3    0    0 -0.42413140352E+01 -0.53323037290E+01  0.18970596847E+01  0.70725556563E+01  0.51100000000E-03 0. -1.
        -11    1    3    3    0    0 -0.41690817313E+01 -0.96440362728E+01  0.33894323659E+01  0.11039788501E+02  0.51100000000E-03 0.  1.
         12    1    3    3    0    0  0.86719365332E+01 -0.20733893275E+02  0.19377937876E+02  0.29674926957E+02  0.00000000000E+00 0. -1.
</event>
<event>
 7    1  0.2733256E-010  0.4778727E+02  0.7816164E-02  0.1312668E+00
        -11   -1    0    0    0    0  0.00000000000E+00  0.00000000000E+00  0.45593999997E+02  0.45594000000E+02  0.51100000000E-03 0.  1.
         11   -1    0    0    0    0 -0.00000000000E+00 -0.00000000000E+00 -0.45593999997E+02  0.45594000000E+02  0.51100000000E-03 0. -1.
    9900012    2    1    2    0    0  0.12523804689E+02 -0.22152995375E+02  0.35157108649E+02  0.47787272166E+02  0.20000005115E+02 0.  0.
         12    1    1    2    0    0 -0.12523804689E+02  0.22152995375E+02 -0.35157108649E+02  0.43400727834E+02  0.00000000000E+00 0. -1.
         11    1    3    3    0    0 -0.11590390897E+01 -0.44956165146E+01  0.13807213372E+01  0.48435865977E+01  0.51100000000E-03 0. -1.
        -11    1    3    3    0    0  0.68421546741E+01 -0.65175802438E+00  0.39280069516E+01  0.79163822532E+01  0.51100000000E-03 0.  1.
        -12    1    3    3    0    0  0.68406891046E+01 -0.17005620836E+02  0.29848380360E+02  0.35027303315E+02  0.00000000000E+00 0.  1.
</event>
<event>
 7    1  0.2733256E-010  0.4778727E+02  0.7816164E-02  0.1312668E+00
        -11   -1    0    0    0    0  0.00000000000E+00  0.00000000000E+00  0.45593999997E+02  0.45594000000E+02  0.51100000000E-03 0.  1.
         11   -1    0    0    0    0 -0.00000000000E+00 -0.00000000000E+00 -0.45593999997E+02  0.45594000000E+02  0.51100000000E-03 0. -1.
    9900012    2    1    2    0    0  0.38683805781E+02 -0.76047737278E+01 -0.18148109539E+02  0.47787270824E+02  0.19999998993E+02 0.  0.
         12    1    1    2    0    0 -0.38683805781E+02  0.76047737278E+01  0.18148109539E+02  0.43400729176E+02  0.00000000000E+00 0. -1.
         11    1    3    3    0    0  0.19542444783E+02 -0.25129371254E+01 -0.17260500293E+02  0.26194405351E+02  0.51100000000E-03 0. -1.
        -11    1    3    3    0    0  0.73652102435E+01 -0.42135711730E+01 -0.39998235394E+01  0.93807831533E+01  0.51100000000E-03 0.  1.
        -12    1    3    3    0    0  0.11776150755E+02 -0.87826542939E+00  0.31122142925E+01  0.12212082319E+02  0.00000000000E+00 0.  1.
</event>
<event>
 7    1  0.2733256E-010  0.4778727E+02  0.7816164E-02  0.1312668E+00
        -11   -1    0    0    0    0  0.00000000000E+00  0.00000000000E+00  0.45593999997E+02  0.45594000000E+02  0.51100000000E-03 0.  1.
         11   -1    0    0    0    0 -0.00000000000E+00 -0.00000000000E+00 -0.45593999997E+02  0.45594000000E+02  0.51100000000E-03 0. -1.
    9900012    2    1    2    0    0  0.52407047662E+01 -0.10164990658E+02  0.41866828149E+02  0.47787270504E+02  0.19999997537E+02 0.  0.
         12    1    1    2    0    0 -0.52407047662E+01  0.10164990658E+02 -0.41866828149E+02  0.43400729496E+02  0.00000000000E+00 0. -1.
         11    1    3    3    0    0 -0.30862956045E+01 -0.71928499919E+00  0.62107541411E+01  0.69725216910E+01  0.51100000000E-03 0. -1.
        -11    1    3    3    0    0 -0.37187218163E+01 -0.22136760355E+01  0.16502726567E+02  0.17060751388E+02  0.51100000000E-03 0.  1.
         12    1    3    3    0    0  0.12045722187E+02 -0.72320296233E+01  0.19153347441E+02  0.23753997425E+02  0.00000000000E+00 0. -1.
</event>
<event>
 7    1  0.2733256E-010  0.4778727E+02  0.7816164E-02  0.1312668E+00
        -11   -1    0    0    0    0  0.00000000000E+00  0.00000000000E+00  0.45593999997E+02  0.45594000000E+02  0.51100000000E-03 0.  1.
         11   -1    0    0    0    0 -0.00000000000E+00 -0.00000000000E+00 -0.45593999997E+02  0.45594000000E+02  0.51100000000E-03 0. -1.
    9900012    2    1    2    0    0  0.25174512920E+01  0.43061850364E+02  0.47919468472E+01  0.47787271062E+02  0.20000000079E+02 0.  0.
         12    1    1    2    0    0 -0.25174512920E+01 -0.43061850364E+02 -0.47919468472E+01  0.43400728938E+02  0.00000000000E+00 0. -1.
         11    1    3    3    0    0  0.73470835594E+00  0.10821048776E+02 -0.28930472620E+01  0.11225177758E+02  0.51100000000E-03 0. -1.
        -11    1    3    3    0    0  0.37165336834E+01  0.69189744480E+01 -0.37589349951E+01  0.87071477874E+01  0.51100000000E-03 0.  1.
        -12    1    3    3    0    0 -0.19337907473E+01  0.25321827140E+02  0.11443929104E+02  0.27854945516E+02  0.00000000000E+00 0.  1.
</event>
<event>
 7    1  0.2733256E-010  0.4778727E+02  0.7816164E-02  0.1312668E+00
        -11   -1    0    0    0    0  0.00000000000E+00  0.00000000000E+00  0.45593999997E+02  0.45594000000E+02  0.51100000000E-03 0.  1.
         11   -1    0    0    0    0 -0.00000000000E+00 -0.00000000000E+00 -0.45593999997E+02  0.45594000000E+02  0.51100000000E-03 0. -1.
    9900012    2    1    2    0    0 -0.10747981066E+01  0.13936814695E+02  0.41088113889E+02  0.47787273073E+02  0.20000009250E+02 0.  0.
         12    1    1    2    0    0  0.10747981066E+01 -0.13936814695E+02 -0.41088113889E+02  0.43400726927E+02  0.00000000000E+00 0. -1.
         11    1    3    3    0    0 -0.37295932691E+00  0.71588401270E+01  0.87576044345E+01  0.11317408109E+02  0.51100000000E-03 0. -1.
        -11    1    3    3    0    0  0.22389869072E+01 -0.30726043907E+01  0.17080638343E+01  0.41679062412E+01  0.51100000000E-03 0.  1.
        -12    1    3    3    0    0 -0.29408256869E+01  0.98505789589E+01  0.30622445620E+02  0.32301958723E+02  0.00000000000E+00 0.  1.
</event>
<event>
 7    1  0.2733256E-010  0.4778727E+02  0.7816164E-02  0.1312668E+00
        -11   -1    0    0    0    0  0.00000000000E+00  0.00000000000E+00  0.45593999997E+02  0.45594000000E+02  0.51100000000E-03 0.  1.
         11   -1    0    0    0    0 -0.00000000000E+00 -0.00000000000E+00 -0.45593999997E+02  0.45594000000E+02  0.51100000000E-03 0. -1.
    9900012    2    1    2    0    0 -0.40709766984E+02 -0.10919542468E+02 -0.10349002882E+02  0.47787269635E+02  0.19999993572E+02 0.  0.
         12    1    1    2    0    0  0.40709766984E+02  0.10919542468E+02  0.10349002882E+02  0.43400730365E+02  0.00000000000E+00 0. -1.
         11    1    3    3    0    0  0.11981283057E+01  0.20890699901E+01 -0.10394311519E+01  0.26230025240E+01  0.51100000000E-03 0. -1.
        -11    1    3    3    0    0 -0.85058340751E+01 -0.17600410343E+01  0.92475168691E-01  0.86865130906E+01  0.51100000000E-03 0.  1.
         12    1    3    3    0    0 -0.33402061214E+02 -0.11248571424E+02 -0.94020468991E+01  0.36477754020E+02  0.00000000000E+00 0. -1.
</event>
<event>
 7    1  0.2733256E-010  0.4778727E+02  0.7816164E-02  0.1312668E+00
        -11   -1    0    0    0    0  0.00000000000E+00  0.00000000000E+00  0.45593999997E+02  0.45594000000E+02  0.51100000000E-03 0.  1.
         11   -1    0    0    0    0 -0.00000000000E+00 -0.00000000000E+00 -0.45593999997E+02  0.45594000000E+02  0.51100000000E-03 0. -1.
    9900012    2    1    2    0    0 -0.36787604689E+02  0.89679833396E+01  0.21210159088E+02  0.47787269217E+02  0.19999991669E+02 0.  0.
         12    1    1    2    0    0  0.36787604689E+02 -0.89679833396E+01 -0.21210159088E+02  0.43400730783E+02  0.00000000000E+00 0. -1.
         11    1    3    3    0    0 -0.90530836724E+01  0.13147487096E+01  0.96144245000E+01  0.13271173530E+02  0.51100000000E-03 0.  1.
        -11    1    3    3    0    0 -0.12337148094E+02 -0.35025279049E+01  0.12915350705E+01  0.12889568958E+02  0.51100000000E-03 0. -1.
        -12    1    3    3    0    0 -0.15397372923E+02  0.11155762535E+02  0.10304199517E+02  0.21626526729E+02  0.00000000000E+00 0.  1.
</event>
<event>
 7    1  0.2733256E-010  0.4778728E+02  0.7816164E-02  0.1312668E+00
        -11   -1    0    0    0    0  0.00000000000E+00  0.00000000000E+00  0.45593999997E+02  0.45594000000E+02  0.51100000000E-03 0.  1.
         11   -1    0    0    0    0 -0.00000000000E+00 -0.00000000000E+00 -0.45593999997E+02  0.45594000000E+02  0.51100000000E-03 0. -1.
    9900012    2    1    2    0    0 -0.24203666577E+02  0.35556390434E+02 -0.57920689851E+01  0.47787280655E+02  0.20000043820E+02 0.  0.
         12    1    1    2    0    0  0.24203666577E+02 -0.35556390434E+02  0.57920689851E+01  0.43400719345E+02  0.00000000000E+00 0. -1.
         11    1    3    3    0    0 -0.49043928897E+01  0.53006980647E+01 -0.46427701333E+01  0.85852072987E+01  0.51100000000E-03 0. -1.
        -11    1    3    3    0    0  0.20339187763E+01  0.14919327556E+01 -0.22408104643E+01  0.33740066292E+01  0.51100000000E-03 0.  1.
        -12    1    3    3    0    0 -0.21333192464E+02  0.28763759614E+02  0.10915116125E+01  0.35828066727E+02  0.00000000000E+00 0.  1.
</event>
<event>
 7    1  0.2733256E-010  0.4778727E+02  0.7816164E-02  0.1312668E+00
        -11   -1    0    0    0    0  0.00000000000E+00  0.00000000000E+00  0.45593999997E+02  0.45594000000E+02  0.51100000000E-03 0.  1.
         11   -1    0    0    0    0 -0.00000000000E+00 -0.00000000000E+00 -0.45593999997E+02  0.45594000000E+02  0.51100000000E-03 0. -1.
    9900012    2    1    2    0    0  0.28335258424E+01  0.30155962948E+02  0.31083960543E+02  0.47787267598E+02  0.19999984285E+02 0.  0.
         12    1    1    2    0    0 -0.28335258424E+01 -0.30155962948E+02 -0.31083960543E+02  0.43400732402E+02  0.00000000000E+00 0. -1.
         11    1    3    3    0    0 -0.35964870290E+01  0.68708167009E+01  0.15015360211E+01  0.78992057683E+01  0.51100000000E-03 0. -1.
        -11    1    3    3    0    0  0.32329058927E+01  0.87255434614E+01  0.36876792158E+01  0.10009284064E+02  0.51100000000E-03 0.  1.
        -12    1    3    3    0    0  0.31971069786E+01  0.14559602786E+02  0.25894745306E+02  0.29878777766E+02  0.00000000000E+00 0.  1.
</event>
<event>
 7    1  0.2733256E-010  0.4778727E+02  0.7816164E-02  0.1312668E+00
        -11   -1    0    0    0    0  0.00000000000E+00  0.00000000000E+00  0.45593999997E+02  0.45594000000E+02  0.51100000000E-03 0.  1.
         11   -1    0    0    0    0 -0.00000000000E+00 -0.00000000000E+00 -0.45593999997E+02  0.45594000000E+02  0.51100000000E-03 0. -1.
    9900012    2    1    2    0    0 -0.84248945990E+01  0.99554133327E+01  0.41394855999E+02  0.47787271817E+02  0.20000003521E+02 0.  0.
         12    1    1    2    0    0  0.84248945990E+01 -0.99554133327E+01 -0.41394855999E+02  0.43400728183E+02  0.00000000000E+00 0. -1.
         11    1    3    3    0    0 -0.63692593251E+01  0.13249645466E+02  0.19451148814E+02  0.24381709533E+02  0.51100000000E-03 0.  1.
        -11    1    3    3    0    0  0.66477457485E+00 -0.88792814122E+00 -0.53540579369E-01  0.11104992004E+01  0.51100000000E-03 0. -1.
        -12    1    3    3    0    0 -0.27204098488E+01 -0.24063039919E+01  0.21997247765E+02  0.22295063083E+02  0.00000000000E+00 0.  1.
</event>
<event>
 7    1  0.2733256E-010  0.4778727E+02  0.7816164E-02  0.1312668E+00
        -11   -1    0    0    0    0  0.00000000000E+00  0.00000000000E+00  0.45593999997E+02  0.45594000000E+02  0.51100000000E-03 0.  1.
         11   -1    0    0    0    0 -0.00000000000E+00 -0.00000000000E+00 -0.45593999997E+02  0.45594000000E+02  0.51100000000E-03 0. -1.
    9900012    2    1    2    0    0 -0.28052762893E+02  0.32443956174E+02  0.66374318498E+01  0.47787270747E+02  0.19999998644E+02 0.  0.
         12    1    1    2    0    0  0.28052762893E+02 -0.32443956174E+02 -0.66374318498E+01  0.43400729253E+02  0.00000000000E+00 0. -1.
         11    1    3    3    0    0 -0.32209517913E+01  0.10022848571E+02  0.41351868466E+01  0.11310693809E+02  0.51100000000E-03 0. -1.
        -11    1    3    3    0    0  0.18519622783E+01  0.14258749787E+01 -0.50229156144E+00  0.23906444338E+01  0.51100000000E-03 0.  1.
        -12    1    3    3    0    0 -0.26683773380E+02  0.20995232624E+02  0.30045365647E+01  0.34085932504E+02  0.00000000000E+00 0.  1.
</event>
<event>
 7    1  0.2733256E-010  0.4778726E+02  0.7816164E-02  0.1312668E+00
        -11   -1    0    0    0    0  0.00000000000E+00  0.00000000000E+00  0.45593999997E+02  0.45594000000E+02  0.51100000000E-03 0.  1.
         11   -1    0    0    0    0 -0.00000000000E+00 -0.00000000000E+00 -0.45593999997E+02  0.45594000000E+02  0.51100000000E-03 0. -1.
    9900012    2    1    2    0    0  0.30006915006E+02  0.29682793818E+02  0.10106470213E+02  0.47787263403E+02  0.19999965158E+02 0.  0.
         12    1    1    2    0    0 -0.30006915006E+02 -0.29682793818E+02 -0.10106470213E+02  0.43400736597E+02  0.00000000000E+00 0. -1.
         11    1    3    3    0    0  0.42752211099E+01  0.75535197064E+00  0.27078580388E+01  0.51166949838E+01  0.51100000000E-03 0. -1.
        -11    1    3    3    0    0  0.12668162220E+02  0.18622661832E+02  0.11845379674E+02  0.25447964312E+02  0.51100000000E-03 0.  1.
         12    1    3    3    0    0  0.13063531676E+02  0.10304780016E+02 -0.44467674995E+01  0.17222604107E+02  0.00000000000E+00 0. -1.
</event>
<event>
 7    1  0.2733256E-010  0.4778727E+02  0.7816164E-02  0.1312668E+00
        -11   -1    0    0    0    0  0.00000000000E+00  0.00000000000E+00  0.45593999997E+02  0.45594000000E+02  0.51100000000E-03 0.  1.
         11   -1    0    0    0    0 -0.00000000000E+00 -0.00000000000E+00 -0.45593999997E+02  0.45594000000E+02  0.51100000000E-03 0. -1.
    9900012    2    1    2    0    0 -0.58160568222E+01  0.39447582974E+01  0.42827982411E+02  0.47787265993E+02  0.19999976966E+02 0.  0.
         12    1    1    2    0    0  0.58160568222E+01 -0.39447582974E+01 -0.42827982411E+02  0.43400734007E+02  0.00000000000E+00 0. -1.
         11    1    3    3    0    0 -0.58940539644E+01 -0.86718007918E+00  0.72394461181E+01  0.93755775173E+01  0.51100000000E-03 0. -1.
        -11    1    3    3    0    0 -0.61905839235E+01  0.46690054469E+01  0.14942630368E+02  0.16834641183E+02  0.51100000000E-03 0.  1.
         12    1    3    3    0    0  0.62685810656E+01  0.14293292959E+00  0.20645905925E+02  0.21577047293E+02  0.00000000000E+00 0. -1.
</event>
<event>
 7    1  0.2733256E-010  0.4778727E+02  0.7816164E-02  0.1312668E+00
        -11   -1    0    0    0    0  0.00000000000E+00  0.00000000000E+00  0.45593999997E+02  0.45594000000E+02  0.51100000000E-03 0.  1.
         11   -1    0    0    0    0 -0.00000000000E+00 -0.00000000000E+00 -0.45593999997E+02  0.45594000000E+02  0.51100000000E-03 0. -1.
    9900012    2    1    2    0    0 -0.40041402124E+02  0.15692822271E+02  0.58347577365E+01  0.47787274744E+02  0.20000016868E+02 0.  0.
         12    1    1    2    0    0  0.40041402124E+02 -0.15692822271E+02 -0.58347577365E+01  0.43400725256E+02  0.00000000000E+00 0. -1.
         11    1    3    3    0    0 -0.68984963677E+01  0.13491049512E+01  0.35065336704E+01  0.78552603360E+01  0.51100000000E-03 0. -1.
        -11    1    3    3    0    0 -0.26014316288E+02  0.29471192004E+01  0.36107077800E+01  0.26428533339E+02  0.51100000000E-03 0.  1.
         12    1    3    3    0    0 -0.71285894684E+01  0.11396598119E+02 -0.12824837139E+01  0.13503481069E+02  0.00000000000E+00 0. -1.
</event>
<event>
 7    1  0.2733256E-010  0.4778727E+02  0.7816164E-02  0.1312668E+00
        -11   -1    0    0    0    0  0.00000000000E+00  0.00000000000E+00  0.45593999997E+02  0.45594000000E+02  0.51100000000E-03 0.  1.
         11   -1    0    0    0    0 -0.00000000000E+00 -0.00000000000E+00 -0.45593999997E+02  0.45594000000E+02  0.51100000000E-03 0. -1.
    9900012    2    1    2    0    0 -0.13115583774E+01  0.77890441333E+01  0.42675917158E+02  0.47787270753E+02  0.19999998672E+02 0.  0.
         12    1    1    2    0    0  0.13115583774E+01 -0.77890441333E+01 -0.42675917158E+02  0.43400729247E+02  0.00000000000E+00 0. -1.
         11    1    3    3    0    0  0.34363101864E+01 -0.49968979669E+01  0.18809214692E+02  0.19762686421E+02  0.51100000000E-03 0. -1.
        -11    1    3    3    0    0  0.88953198680E+00  0.33471916627E+00  0.96564673996E+00  0.13549088395E+01  0.51100000000E-03 0.  1.
        -12    1    3    3    0    0 -0.56374005507E+01  0.12451222934E+02  0.22901055726E+02  0.26669675493E+02  0.00000000000E+00 0.  1.
</event>
<event>
 7    1  0.2733256E-010  0.4778727E+02  0.7816164E-02  0.1312668E+00
        -11   -1    0    0    0    0  0.00000000000E+00  0.00000000000E+00  0.45593999997E+02  0.45594000000E+02  0.51100000000E-03 0. -1.
         11   -1    0    0    0    0 -0.00000000000E+00 -0.00000000000E+00 -0.45593999997E+02  0.45594000000E+02  0.51100000000E-03 0.  1.
    9900012    2    1    2    0    0 -0.38808668456E+02 -0.17355630394E+02  0.87345740922E+01  0.47787269150E+02  0.19999991363E+02 0.  0.
         12    1    1    2    0    0  0.38808668456E+02  0.17355630394E+02 -0.87345740922E+01  0.43400730850E+02  0.00000000000E+00 0. -1.
         11    1    3    3    0    0 -0.12646408219E+02 -0.52523065736E+01  0.15810052502E+01  0.13784699600E+02  0.51100000000E-03 0. -1.
        -11    1    3    3    0    0 -0.27506559383E+02 -0.13598595357E+02  0.50582148679E+01  0.31098523160E+02  0.51100000000E-03 0.  1.
         12    1    3    3    0    0  0.13442991462E+01  0.14952715368E+01  0.20953539741E+01  0.29040463908E+01  0.00000000000E+00 0. -1.
</event>
<event>
 7    1  0.2733256E-010  0.4778727E+02  0.7816164E-02  0.1312668E+00
        -11   -1    0    0    0    0  0.00000000000E+00  0.00000000000E+00  0.45593999997E+02  0.45594000000E+02  0.51100000000E-03 0. -1.
         11   -1    0    0    0    0 -0.00000000000E+00 -0.00000000000E+00 -0.45593999997E+02  0.45594000000E+02  0.51100000000E-03 0.  1.
    9900012    2    1    2    0    0 -0.42245782766E+02 -0.68112986444E+00  0.99223610761E+01  0.47787270182E+02  0.19999996069E+02 0.  0.
         12    1    1    2    0    0  0.42245782766E+02  0.68112986444E+00 -0.99223610761E+01  0.43400729818E+02  0.00000000000E+00 0. -1.
         11    1    3    3    0    0 -0.11160950462E+02  0.63003874379E+01  0.58921434538E+01  0.14105993471E+02  0.51100000000E-03 0. -1.
        -11    1    3    3    0    0 -0.15512832576E+02  0.93485909439E+00 -0.78583374844E+00  0.15560831308E+02  0.51100000000E-03 0.  1.
        -12    1    3    3    0    0 -0.15571999728E+02 -0.79163763967E+01  0.48160513707E+01  0.18120445403E+02  0.00000000000E+00 0.  1.
</event>
<event>
 7    1  0.2733256E-010  0.4778727E+02  0.7816164E-02  0.1312668E+00
        -11   -1    0    0    0    0  0.00000000000E+00  0.00000000000E+00  0.45593999997E+02  0.45594000000E+02  0.51100000000E-03 0. -1.
         11   -1    0    0    0    0 -0.00000000000E+00 -0.00000000000E+00 -0.45593999997E+02  0.45594000000E+02  0.51100000000E-03 0.  1.
    9900012    2    1    2    0    0  0.62563455385E+01 -0.36583067799E+02  0.22498006957E+02  0.47787273899E+02  0.20000013015E+02 0.  0.
         12    1    1    2    0    0 -0.62563455385E+01  0.36583067799E+02 -0.22498006957E+02  0.43400726101E+02  0.00000000000E+00 0. -1.
         11    1    3    3    0    0  0.64299960620E+01 -0.61551027170E+01  0.57532774888E+01  0.10598600895E+02  0.51100000000E-03 0.  1.
        -11    1    3    3    0    0  0.44867121136E+01 -0.54767748115E+01  0.71243755646E+01  0.10044021872E+02  0.51100000000E-03 0. -1.
        -12    1    3    3    0    0 -0.46603626371E+01 -0.24951190270E+02  0.96203539039E+01  0.27144651131E+02  0.00000000000E+00 0.  1.
</event>
<event>
 7    1  0.2733256E-010  0.4778728E+02  0.7816164E-02  0.1312668E+00
        -11   -1    0    0    0    0  0.00000000000E+00  0.00000000000E+00  0.45593999997E+02  0.45594000000E+02  0.51100000000E-03 0.  1.
         11   -1    0    0    0    0 -0.00000000000E+00 -0.00000000000E+00 -0.45593999997E+02  0.45594000000E+02  0.51100000000E-03 0. -1.
    9900012    2    1    2    0    0  0.30475969599E+02  0.26871697096E+02 -0.15256137974E+02  0.47787279111E+02  0.20000036777E+02 0.  0.
         12    1    1    2    0    0 -0.30475969599E+02 -0.26871697096E+02  0.15256137974E+02  0.43400720889E+02  0.00000000000E+00 0. -1.
         11    1    3    3    0    0  0.20477599227E+02  0.18365772355E+02 -0.13947961739E+02  0.30841194874E+02  0.51100000000E-03 0. -1.
        -11    1    3    3    0    0  0.10458629757E+02  0.24080819469E+01 -0.21806848106E+00  0.10734493430E+02  0.51100000000E-03 0.  1.
         12    1    3    3    0    0 -0.46025938497E+00  0.60978427944E+01 -0.10901077533E+01  0.62115908076E+01  0.00000000000E+00 0. -1.
</event>
<event>
 7    1  0.2733256E-010  0.4778727E+02  0.7816164E-02  0.1312668E+00
        -11   -1    0    0    0    0  0.00000000000E+00  0.00000000000E+00  0.45593999997E+02  0.45594000000E+02  0.51100000000E-03 0. -1.
         11   -1    0    0    0    0 -0.00000000000E+00 -0.00000000000E+00 -0.45593999997E+02  0.45594000000E+02  0.51100000000E-03 0.  1.
    9900012    2    1    2    0    0 -0.75802653996E+01 -0.20218871481E+02 -0.37647845409E+02  0.47787268999E+02  0.19999990675E+02 0.  0.
         12    1    1    2    0    0  0.75802653996E+01  0.20218871481E+02  0.37647845409E+02  0.43400731001E+02  0.00000000000E+00 0. -1.
         11    1    3    3    0    0  0.20440150618E+01 -0.72080008959E+01 -0.32469982066E+01  0.81655539985E+01  0.51100000000E-03 0. -1.
        -11    1    3    3    0    0 -0.56798305150E+01 -0.39243239655E+01 -0.48026176497E+01  0.84098709750E+01  0.51100000000E-03 0.  1.
        -12    1    3    3    0    0 -0.39444499463E+01 -0.90865466198E+01 -0.29598229552E+02  0.31211844026E+02  0.00000000000E+00 0.  1.
</event>
<event>
 7    1  0.2733256E-010  0.4778725E+02  0.7816164E-02  0.1312668E+00
        -11   -1    0    0    0    0  0.00000000000E+00  0.00000000000E+00  0.45593999997E+02  0.45594000000E+02  0.51100000000E-03 0.  1.
         11   -1    0    0    0    0 -0.00000000000E+00 -0.00000000000E+00 -0.45593999997E+02  0.45594000000E+02  0.51100000000E-03 0. -1.
    9900012    2    1    2    0    0  0.28127774989E+02 -0.21828159936E+02  0.24819042992E+02  0.47787249003E+02  0.19999899506E+02 0.  0.
         12    1    1    2    0    0 -0.28127774989E+02  0.21828159936E+02 -0.24819042992E+02  0.43400750997E+02  0.00000000000E+00 0. -1.
         11    1    3    3    0    0  0.12382834892E+02 -0.71890923307E+01  0.91421312478E+01  0.16988119746E+02  0.51100000000E-03 0.  1.
        -11    1    3    3    0    0  0.17734048750E+02 -0.11106964467E+02  0.85591135081E+01  0.22607953668E+02  0.51100000000E-03 0. -1.
         12    1    3    3    0    0 -0.19891086525E+01 -0.35321031385E+01  0.71177982361E+01  0.81911755898E+01  0.00000000000E+00 0. -1.
</event>
<event>
 7    1  0.2733256E-010  0.4778727E+02  0.7816164E-02  0.1312668E+00
        -11   -1    0    0    0    0  0.00000000000E+00  0.00000000000E+00  0.45593999997E+02  0.45594000000E+02  0.51100000000E-03 0. -1.
         11   -1    0    0    0    0 -0.00000000000E+00 -0.00000000000E+00 -0.45593999997E+02  0.45594000000E+02  0.51100000000E-03 0.  1.
    9900012    2    1    2    0    0 -0.31786937808E+01 -0.18873822861E+01 -0.43243001937E+02  0.47787268180E+02  0.19999986938E+02 0.  0.
         12    1    1    2    0    0  0.31786937808E+01  0.18873822861E+01  0.43243001937E+02  0.43400731820E+02  0.00000000000E+00 0. -1.
         11    1    3    3    0    0  0.27759757049E+01  0.58369502572E+01 -0.13192528590E+02  0.14690773985E+02  0.51100000000E-03 0. -1.
        -11    1    3    3    0    0  0.82318638373E+00  0.11095606765E+01 -0.10558164294E+02  0.10648173281E+02  0.51100000000E-03 0.  1.
         12    1    3    3    0    0 -0.67778558695E+01 -0.88338932198E+01 -0.19492309053E+02  0.22448320914E+02  0.00000000000E+00 0. -1.
</event>
<event>
 7    1  0.2733256E-010  0.4778728E+02  0.7816164E-02  0.1312668E+00
        -11   -1    0    0    0    0  0.00000000000E+00  0.00000000000E+00  0.45593999997E+02  0.45594000000E+02  0.51100000000E-03 0.  1.
         11   -1    0    0    0    0 -0.00000000000E+00 -0.00000000000E+00 -0.45593999997E+02  0.45594000000E+02  0.51100000000E-03 0. -1.
    9900012    2    1    2    0    0 -0.27013312961E+02 -0.33551269406E+02  0.53118592139E+01  0.47787278760E+02  0.20000035179E+02 0.  0.
         12    1    1    2    0    0  0.27013312961E+02  0.33551269406E+02 -0.53118592139E+01  0.43400721240E+02  0.00000000000E+00 0. -1.
         11    1    3    3    0    0 -0.85392214093E+01 -0.19508140905E+02  0.41600893092E+01  0.21697746592E+02  0.51100000000E-03 0. -1.
        -11    1    3    3    0    0 -0.17918139385E+01 -0.75453040781E+01  0.24673549814E+01  0.81381847906E+01  0.51100000000E-03 0.  1.
        -12    1    3    3    0    0 -0.16682277613E+02 -0.64978244228E+01 -0.13155850767E+01  0.17951347378E+02  0.00000000000E+00 0.  1.
</event>
<event>
 7    1  0.2733256E-010  0.4778727E+02  0.7816164E-02  0.1312668E+00
        -11   -1    0    0    0    0  0.00000000000E+00  0.00000000000E+00  0.45593999997E+02  0.45594000000E+02  0.51100000000E-03 0. -1.
         11   -1    0    0    0    0 -0.00000000000E+00 -0.00000000000E+00 -0.45593999997E+02  0.45594000000E+02  0.51100000000E-03 0.  1.
    9900012    2    1    2    0    0  0.52233256153E+01 -0.42530368370E+02 -0.68926041952E+01  0.47787270090E+02  0.19999995648E+02 0.  0.
         12    1    1    2    0    0 -0.52233256153E+01  0.42530368370E+02  0.68926041952E+01  0.43400729910E+02  0.00000000000E+00 0. -1.
         11    1    3    3    0    0  0.46629123494E+01 -0.14038313939E+02 -0.63922443078E+01  0.16114521320E+02  0.51100000000E-03 0. -1.
        -11    1    3    3    0    0 -0.21068827332E+01 -0.25019977025E+02 -0.47695733840E+01  0.25557524053E+02  0.51100000000E-03 0.  1.
         12    1    3    3    0    0  0.26672959990E+01 -0.34720774056E+01  0.42692134967E+01  0.61152247168E+01  0.00000000000E+00 0. -1.
</event>
<event>
 7    1  0.2733256E-010  0.4778727E+02  0.7816164E-02  0.1312668E+00
        -11   -1    0    0    0    0  0.00000000000E+00  0.00000000000E+00  0.45593999997E+02  0.45594000000E+02  0.51100000000E-03 0.  1.
         11   -1    0    0    0    0 -0.00000000000E+00 -0.00000000000E+00 -0.45593999997E+02  0.45594000000E+02  0.51100000000E-03 0. -1.
    9900012    2    1    2    0    0  0.10793917864E+02  0.21992077591E+02  0.35825455188E+02  0.47787269833E+02  0.19999994476E+02 0.  0.
         12    1    1    2    0    0 -0.10793917864E+02 -0.21992077591E+02 -0.35825455188E+02  0.43400730167E+02  0.00000000000E+00 0. -1.
         11    1    3    3    0    0  0.21496681476E+01 -0.28830675286E+01  0.37428217170E+01  0.51905554795E+01  0.51100000000E-03 0. -1.
        -11    1    3    3    0    0 -0.10066400456E+01  0.58020273354E+01  0.11511827111E+02  0.12930545583E+02  0.51100000000E-03 0.  1.
        -12    1    3    3    0    0  0.96508897615E+01  0.19073117785E+02  0.20570806359E+02  0.29666168770E+02  0.00000000000E+00 0.  1.
</event>
<event>
 7    1  0.2733256E-010  0.4778727E+02  0.7816164E-02  0.1312668E+00
        -11   -1    0    0    0    0  0.00000000000E+00  0.00000000000E+00  0.45593999997E+02  0.45594000000E+02  0.51100000000E-03 0.  1.
         11   -1    0    0    0    0 -0.00000000000E+00 -0.00000000000E+00 -0.45593999997E+02  0.45594000000E+02  0.51100000000E-03 0. -1.
    9900012    2    1    2    0    0 -0.37710444165E+02 -0.16489187609E+02  0.13771423415E+02  0.47787274084E+02  0.20000013860E+02 0.  0.
         12    1    1    2    0    0  0.37710444165E+02  0.16489187609E+02 -0.13771423415E+02  0.43400725916E+02  0.00000000000E+00 0. -1.
         11    1    3    3    0    0 -0.84950625544E+01 -0.60094571126E+01 -0.29638034898E+01  0.10819602302E+02  0.51100000000E-03 0. -1.
        -11    1    3    3    0    0 -0.72564064371E+01 -0.63292529981E-01 -0.34021021153E+00  0.72646530250E+01  0.51100000000E-03 0.  1.
        -12    1    3    3    0    0 -0.21958975174E+02 -0.10416437967E+02  0.17075437116E+02  0.29703018757E+02  0.00000000000E+00 0.  1.
</event>
<event>
 7    1  0.2733256E-010  0.4778726E+02  0.7816164E-02  0.1312668E+00
        -11   -1    0    0    0    0  0.00000000000E+00  0.00000000000E+00  0.45593999997E+02  0.45594000000E+02  0.51100000000E-03 0. -1.
         11   -1    0    0    0    0 -0.00000000000E+00 -0.00000000000E+00 -0.45593999997E+02  0.45594000000E+02  0.51100000000E-03 0.  1.
    9900012    2    1    2    0    0  0.23552197472E+02 -0.74112596542E+01 -0.35693021345E+02  0.47787256364E+02  0.19999933065E+02 0.  0.
         12    1    1    2    0    0 -0.23552197472E+02  0.74112596542E+01  0.35693021345E+02  0.43400743636E+02  0.00000000000E+00 0. -1.
         11    1    3    3    0    0  0.29400012571E+01 -0.50630214703E+01 -0.31990207827E+01  0.66716960385E+01  0.51100000000E-03 0. -1.
        -11    1    3    3    0    0  0.60773826744E+01 -0.74164001064E+01 -0.15114426504E+02  0.17899258631E+02  0.51100000000E-03 0.  1.
         12    1    3    3    0    0  0.14534813541E+02  0.50681619226E+01 -0.17379574058E+02  0.23216301695E+02  0.00000000000E+00 0. -1.
</event>
<event>
 7    1  0.2733256E-010  0.4778728E+02  0.7816164E-02  0.1312668E+00
        -11   -1    0    0    0    0  0.00000000000E+00  0.00000000000E+00  0.45593999997E+02  0.45594000000E+02  0.51100000000E-03 0.  1.
         11   -1    0    0    0    0 -0.00000000000E+00 -0.00000000000E+00 -0.45593999997E+02  0.45594000000E+02  0.51100000000E-03 0. -1.
    9900012    2    1    2    0    0 -0.13812858048E+02 -0.47258343223E+01  0.40871671975E+02  0.47787284251E+02  0.20000060215E+02 0.  0.
         12    1    1    2    0    0  0.13812858048E+02  0.47258343223E+01 -0.40871671975E+02  0.43400715749E+02  0.00000000000E+00 0. -1.
         11    1    3    3    0    0 -0.55386784187E+01  0.36971480781E+01  0.27112345676E+02  0.27918186740E+02  0.51100000000E-03 0. -1.
        -11    1    3    3    0    0 -0.23206853216E+00  0.11948652949E+01 -0.49286384288E-01  0.12181905784E+01  0.51100000000E-03 0.  1.
        -12    1    3    3    0    0 -0.80421110969E+01 -0.96178476954E+01  0.13808612683E+02  0.18650906933E+02  0.00000000000E+00 0.  1.
</event>
<event>
 7    1  0.2733256E-010  0.4778732E+02  0.7816164E-02  0.1312668E+00
        -11   -1    0    0    0    0  0.00000000000E+00  0.00000000000E+00  0.45593999997E+02  0.45594000000E+02  0.51100000000E-03 0. -1.
         11   -1    0    0    0    0 -0.00000000000E+00 -0.00000000000E+00 -0.45593999997E+02  0.45594000000E+02  0.51100000000E-03 0.  1.
    9900012    2    1    2    0    0  0.41815241351E+02 -0.11274531686E+02  0.28266158534E+01  0.47787317619E+02  0.20000212349E+02 0.  0.
         12    1    1    2    0    0 -0.41815241351E+02  0.11274531686E+02 -0.28266158534E+01  0.43400682381E+02  0.00000000000E+00 0. -1.
         11    1    3    3    0    0  0.12840831981E+02 -0.10318917658E+02 -0.16954780672E+01  0.16560243771E+02  0.51100000000E-03 0. -1.
        -11    1    3    3    0    0  0.17475167449E+02 -0.52406465541E+01  0.29074150963E+00  0.18246380040E+02  0.51100000000E-03 0.  1.
         12    1    3    3    0    0  0.11499241921E+02  0.42850325263E+01  0.42313524109E+01  0.12980693808E+02  0.00000000000E+00 0. -1.
</event>
<event>
 7    1  0.2733256E-010  0.4778728E+02  0.7816164E-02  0.1312668E+00
        -11   -1    0    0    0    0  0.00000000000E+00  0.00000000000E+00  0.45593999997E+02  0.45594000000E+02  0.51100000000E-03 0.  1.
         11   -1    0    0    0    0 -0.00000000000E+00 -0.00000000000E+00 -0.45593999997E+02  0.45594000000E+02  0.51100000000E-03 0. -1.
    9900012    2    1    2    0    0  0.39083721364E+02  0.26633313973E+01 -0.18681335257E+02  0.47787275389E+02  0.20000019807E+02 0.  0.
         12    1    1    2    0    0 -0.39083721364E+02 -0.26633313973E+01  0.18681335257E+02  0.43400724611E+02  0.00000000000E+00 0. -1.
         11    1    3    3    0    0  0.41745719873E+01  0.91579360372E+00 -0.42800000482E+00  0.42952198392E+01  0.51100000000E-03 0. -1.
        -11    1    3    3    0    0  0.36141631302E+02 -0.13113897688E+01 -0.17031482112E+02  0.39975100244E+02  0.51100000000E-03 0.  1.
         12    1    3    3    0    0 -0.12324819251E+01  0.30589275623E+01 -0.12218531398E+01  0.35169553057E+01  0.00000000000E+00 0. -1.
</event>
<event>
 7    1  0.2733256E-010  0.4778727E+02  0.7816164E-02  0.1312668E+00
        -11   -1    0    0    0    0  0.00000000000E+00  0.00000000000E+00  0.45593999997E+02  0.45594000000E+02  0.51100000000E-03 0.  1.
         11   -1    0    0    0    0 -0.00000000000E+00 -0.00000000000E+00 -0.45593999997E+02  0.45594000000E+02  0.51100000000E-03 0. -1.
    9900012    2    1    2    0    0  0.36588250236E+02 -0.21040490280E+02  0.10110460705E+02  0.47787266110E+02  0.19999977502E+02 0.  0.
         12    1    1    2    0    0 -0.36588250236E+02  0.21040490280E+02 -0.10110460705E+02  0.43400733890E+02  0.00000000000E+00 0. -1.
         11    1    3    3    0    0  0.33289055351E+01  0.20883619766E+01  0.33369540231E-01  0.39298831528E+01  0.51100000000E-03 0.  1.
        -11    1    3    3    0    0  0.83019900330E+01 -0.22127501787E+00 -0.63044018263E+00  0.83288328250E+01  0.51100000000E-03 0. -1.
         12    1    3    3    0    0  0.24957354668E+02 -0.22907577239E+02  0.10707531347E+02  0.35528550132E+02  0.00000000000E+00 0. -1.
</event>
<event>
 7    1  0.2733256E-010  0.4778727E+02  0.7816164E-02  0.1312668E+00
        -11   -1    0    0    0    0  0.00000000000E+00  0.00000000000E+00  0.45593999997E+02  0.45594000000E+02  0.51100000000E-03 0. -1.
         11   -1    0    0    0    0 -0.00000000000E+00 -0.00000000000E+00 -0.45593999997E+02  0.45594000000E+02  0.51100000000E-03 0.  1.
    9900012    2    1    2    0    0 -0.12914445845E+02 -0.13663248952E+02 -0.39117210602E+02  0.47787269030E+02  0.19999990816E+02 0.  0.
         12    1    1    2    0    0  0.12914445845E+02  0.13663248952E+02  0.39117210602E+02  0.43400730970E+02  0.00000000000E+00 0. -1.
         11    1    3    3    0    0 -0.15276570339E+01 -0.82607639897E+01 -0.13016146571E+02  0.15491740688E+02  0.51100000000E-03 0.  1.
        -11    1    3    3    0    0 -0.11719831906E+02 -0.83411173140E+01 -0.25500012205E+02  0.29277624915E+02  0.51100000000E-03 0. -1.
         12    1    3    3    0    0  0.33304309477E+00  0.29386323514E+01 -0.60105182565E+00  0.30179034273E+01  0.00000000000E+00 0. -1.
</event>
<event>
 7    1  0.2733256E-010  0.4778727E+02  0.7816164E-02  0.1312668E+00
        -11   -1    0    0    0    0  0.00000000000E+00  0.00000000000E+00  0.45593999997E+02  0.45594000000E+02  0.51100000000E-03 0. -1.
         11   -1    0    0    0    0 -0.00000000000E+00 -0.00000000000E+00 -0.45593999997E+02  0.45594000000E+02  0.51100000000E-03 0.  1.
    9900012    2    1    2    0    0  0.39842478817E+02  0.11852634850E+02 -0.12478593049E+02  0.47787270102E+02  0.19999995705E+02 0.  0.
         12    1    1    2    0    0 -0.39842478817E+02 -0.11852634850E+02  0.12478593049E+02  0.43400729898E+02  0.00000000000E+00 0. -1.
         11    1    3    3    0    0  0.17421948278E+01  0.25342661354E+00  0.18481098781E+01  0.25524455428E+01  0.51100000000E-03 0. -1.
        -11    1    3    3    0    0  0.30267514625E+02  0.31902400578E+01 -0.59433098718E+01  0.31010046851E+02  0.51100000000E-03 0.  1.
         12    1    3    3    0    0  0.78327693641E+01  0.84089681789E+01 -0.83833930556E+01  0.14224777709E+02  0.00000000000E+00 0. -1.
</event>
<event>
 7    1  0.2733256E-010  0.4778727E+02  0.7816164E-02  0.1312668E+00
        -11   -1    0    0    0    0  0.00000000000E+00  0.00000000000E+00  0.45593999997E+02  0.45594000000E+02  0.51100000000E-03 0.  1.
         11   -1    0    0    0    0 -0.00000000000E+00 -0.00000000000E+00 -0.45593999997E+02  0.45594000000E+02  0.51100000000E-03 0. -1.
    9900012    2    1    2    0    0 -0.17085774265E+02  0.39887312556E+02  0.83764171750E+00  0.47787273867E+02  0.20000012871E+02 0.  0.
         12    1    1    2    0    0  0.17085774265E+02 -0.39887312556E+02 -0.83764171750E+00  0.43400726133E+02  0.00000000000E+00 0. -1.
         11    1    3    3    0    0 -0.62800871267E+01  0.31202067338E+01 -0.19322299947E+01  0.72738364976E+01  0.51100000000E-03 0. -1.
        -11    1    3    3    0    0  0.19512377897E+01  0.15425458723E+02  0.71147342810E+00  0.15564649062E+02  0.51100000000E-03 0.  1.
         12    1    3    3    0    0 -0.12756924928E+02  0.21341647100E+02  0.20583982841E+01  0.24948788308E+02  0.00000000000E+00 0. -1.
</event>
<event>
 7    1  0.2733256E-010  0.4778727E+02  0.7816164E-02  0.1312668E+00
        -11   -1    0    0    0    0  0.00000000000E+00  0.00000000000E+00  0.45593999997E+02  0.45594000000E+02  0.51100000000E-03 0. -1.
         11   -1    0    0    0    0 -0.00000000000E+00 -0.00000000000E+00 -0.45593999997E+02  0.45594000000E+02  0.51100000000E-03 0.  1.
    9900012    2    1    2    0    0 -0.38654135590E+02  0.19700596862E+02  0.11693985555E+01  0.47787271805E+02  0.20000003466E+02 0.  0.
         12    1    1    2    0    0  0.38654135590E+02 -0.19700596862E+02 -0.11693985555E+01  0.43400728195E+02  0.00000000000E+00 0. -1.
         11    1    3    3    0    0 -0.64959029445E+01  0.34782568750E+01  0.37240315617E+01  0.82561151450E+01  0.51100000000E-03 0. -1.
        -11    1    3    3    0    0 -0.94005213275E+01  0.97099520588E+01  0.54077693458E+01  0.14556680246E+02  0.51100000000E-03 0.  1.
         12    1    3    3    0    0 -0.22757711318E+02  0.65123879280E+01 -0.79624023520E+01  0.24974476414E+02  0.00000000000E+00 0. -1.
</event>
<event>
 7    1  0.2733256E-010  0.4778727E+02  0.7816164E-02  0.1312668E+00
        -11   -1    0    0    0    0  0.00000000000E+00  0.00000000000E+00  0.45593999997E+02  0.45594000000E+02  0.51100000000E-03 0. -1.
         11   -1    0    0    0    0 -0.00000000000E+00 -0.00000000000E+00 -0.45593999997E+02  0.45594000000E+02  0.51100000000E-03 0.  1.
    9900012    2    1    2    0    0 -0.40949782081E+02 -0.17656996560E+01 -0.14269576823E+02  0.47787272236E+02  0.20000005431E+02 0.  0.
         12    1    1    2    0    0  0.40949782081E+02  0.17656996560E+01  0.14269576823E+02  0.43400727764E+02  0.00000000000E+00 0. -1.
         11    1    3    3    0    0 -0.73349916267E+01 -0.72617030682E+01 -0.55625529854E+01  0.11725034311E+02  0.51100000000E-03 0. -1.
        -11    1    3    3    0    0 -0.13106762511E+02  0.47980401934E+01 -0.65853941637E+01  0.15432946244E+02  0.51100000000E-03 0.  1.
        -12    1    3    3    0    0 -0.20508027943E+02  0.69796321885E+00 -0.21216296739E+01  0.20629291681E+02  0.00000000000E+00 0.  1.
</event>
<event>
 7    1  0.2733256E-010  0.4778727E+02  0.7816164E-02  0.1312668E+00
        -11   -1    0    0    0    0  0.00000000000E+00  0.00000000000E+00  0.45593999997E+02  0.45594000000E+02  0.51100000000E-03 0.  1.
         11   -1    0    0    0    0 -0.00000000000E+00 -0.00000000000E+00 -0.45593999997E+02  0.45594000000E+02  0.51100000000E-03 0. -1.
    9900012    2    1    2    0    0 -0.11818240889E+02 -0.38175703805E+02  0.16928334720E+02  0.47787266191E+02  0.19999977873E+02 0.  0.
         12    1    1    2    0    0  0.11818240889E+02  0.38175703805E+02 -0.16928334720E+02  0.43400733809E+02  0.00000000000E+00 0. -1.
         11    1    3    3    0    0 -0.43538521040E+01 -0.18933908340E+02  0.27105477395E+01  0.19616217333E+02  0.51100000000E-03 0. -1.
        -11    1    3    3    0    0 -0.89386268713E+01 -0.20048559950E+02  0.11027534056E+02  0.24565225707E+02  0.51100000000E-03 0.  1.
         12    1    3    3    0    0  0.14742380858E+01  0.80676448542E+00  0.31902529254E+01  0.36058231510E+01  0.00000000000E+00 0. -1.
</event>
<event>
 7    1  0.2733256E-010  0.4778728E+02  0.7816164E-02  0.1312668E+00
        -11   -1    0    0    0    0  0.00000000000E+00  0.00000000000E+00  0.45593999997E+02  0.45594000000E+02  0.51100000000E-03 0.  1.
         11   -1    0    0    0    0 -0.00000000000E+00 -0.00000000000E+00 -0.45593999997E+02  0.45594000000E+02  0.51100000000E-03 0. -1.
    9900012    2    1    2    0    0  0.26425100139E+02 -0.33379789791E+02  0.84336398671E+01  0.47787279208E+02  0.20000037221E+02 0.  0.
         12    1    1    2    0    0 -0.26425100139E+02  0.33379789791E+02 -0.84336398671E+01  0.43400720792E+02  0.00000000000E+00 0. -1.
         11    1    3    3    0    0 -0.91027962507E+00 -0.90289575660E+00  0.20938231578E+00  0.12991039059E+01  0.51100000000E-03 0.  1.
        -11    1    3    3    0    0  0.18139049756E+02 -0.29974070058E+02  0.19742638238E+01  0.35090849516E+02  0.51100000000E-03 0. -1.
        -12    1    3    3    0    0  0.91963300081E+01 -0.25028239772E+01  0.62499937275E+01  0.11397325786E+02  0.00000000000E+00 0.  1.
</event>
<event>
 7    1  0.3350395E-010  0.4778727E+02  0.7816164E-02  0.1312668E+00
        -11   -1    0    0    0    0  0.00000000000E+00  0.00000000000E+00  0.45593999997E+02  0.45594000000E+02  0.51100000000E-03 0. -1.
         11   -1    0    0    0    0 -0.00000000000E+00 -0.00000000000E+00 -0.45593999997E+02  0.45594000000E+02  0.51100000000E-03 0.  1.
    9900012    2    1    2    0    0 -0.12765614341E+02 -0.48227781362E+01 -0.41199556433E+02  0.47787267877E+02  0.19999985560E+02 0.  0.
         12    1    1    2    0    0  0.12765614341E+02  0.48227781362E+01  0.41199556433E+02  0.43400732123E+02  0.00000000000E+00 0. -1.
         11    1    3    3    0    0  0.12322792799E+01 -0.11841502801E+01  0.10801421344E+01  0.20217396967E+01  0.51100000000E-03 0. -1.
        -11    1    3    3    0    0  0.33592248190E+00 -0.19431800318E+01 -0.12699392397E+02  0.12851589788E+02  0.51100000000E-03 0.  1.
        -12    1    3    3    0    0 -0.14333816103E+02 -0.16954478243E+01 -0.29580306171E+02  0.32913938393E+02  0.00000000000E+00 0.  1.
</event>
<event>
 7    1  0.2733256E-010  0.4778727E+02  0.7816164E-02  0.1312668E+00
        -11   -1    0    0    0    0  0.00000000000E+00  0.00000000000E+00  0.45593999997E+02  0.45594000000E+02  0.51100000000E-03 0.  1.
         11   -1    0    0    0    0 -0.00000000000E+00 -0.00000000000E+00 -0.45593999997E+02  0.45594000000E+02  0.51100000000E-03 0. -1.
    9900012    2    1    2    0    0  0.32652820960E+02  0.19784159232E+02  0.20639856527E+02  0.47787270161E+02  0.19999995971E+02 0.  0.
         12    1    1    2    0    0 -0.32652820960E+02 -0.19784159232E+02 -0.20639856527E+02  0.43400729839E+02  0.00000000000E+00 0. -1.
         11    1    3    3    0    0  0.58836637732E+01  0.17856773904E+01  0.90685416821E+01  0.10956486282E+02  0.51100000000E-03 0. -1.
        -11    1    3    3    0    0  0.10272299927E+02  0.94783137282E+01  0.11754498815E+02  0.18262716654E+02  0.51100000000E-03 0.  1.
         12    1    3    3    0    0  0.16496857260E+02  0.85201681129E+01 -0.18318397035E+00  0.18568067225E+02  0.00000000000E+00 0. -1.
</event>
<event>
 7    1  0.2733256E-010  0.4778732E+02  0.7816164E-02  0.1312668E+00
        -11   -1    0    0    0    0  0.00000000000E+00  0.00000000000E+00  0.45593999997E+02  0.45594000000E+02  0.51100000000E-03 0.  1.
         11   -1    0    0    0    0 -0.00000000000E+00 -0.00000000000E+00 -0.45593999997E+02  0.45594000000E+02  0.51100000000E-03 0. -1.
    9900012    2    1    2    0    0  0.18070568913E+01 -0.41853566405E+02  0.11341613845E+02  0.47787323968E+02  0.20000241298E+02 0.  0.
         12    1    1    2    0    0 -0.18070568913E+01  0.41853566405E+02 -0.11341613845E+02  0.43400676032E+02  0.00000000000E+00 0. -1.
         11    1    3    3    0    0 -0.17094521905E+01 -0.25830741920E+02  0.55567188737E+01  0.26476906539E+02  0.51100000000E-03 0. -1.
        -11    1    3    3    0    0  0.40857631010E+01 -0.16203079819E+02  0.83474474735E+01  0.18679216668E+02  0.51100000000E-03 0.  1.
         12    1    3    3    0    0 -0.56925401911E+00  0.18025533447E+00 -0.25625525018E+01  0.26312007617E+01  0.00000000000E+00 0. -1.
</event>
<event>
 7    1  0.2733256E-010  0.4778727E+02  0.7816164E-02  0.1312668E+00
        -11   -1    0    0    0    0  0.00000000000E+00  0.00000000000E+00  0.45593999997E+02  0.45594000000E+02  0.51100000000E-03 0. -1.
         11   -1    0    0    0    0 -0.00000000000E+00 -0.00000000000E+00 -0.45593999997E+02  0.45594000000E+02  0.51100000000E-03 0.  1.
    9900012    2    1    2    0    0  0.22258133611E+02  0.19722033773E+02 -0.31610767530E+02  0.47787265538E+02  0.19999974893E+02 0.  0.
         12    1    1    2    0    0 -0.22258133611E+02 -0.19722033773E+02  0.31610767530E+02  0.43400734462E+02  0.00000000000E+00 0. -1.
         11    1    3    3    0    0  0.12620113794E+02  0.68668478305E+01 -0.13103701594E+02  0.19445510202E+02  0.51100000000E-03 0. -1.
        -11    1    3    3    0    0  0.97941298581E+01  0.19983071889E+01 -0.55380707557E+01  0.11427529884E+02  0.51100000000E-03 0.  1.
        -12    1    3    3    0    0 -0.15611004128E+00  0.10856878754E+02 -0.12968995181E+02  0.16914225452E+02  0.00000000000E+00 0.  1.
</event>
<event>
 7    1  0.2733256E-010  0.4778726E+02  0.7816164E-02  0.1312668E+00
        -11   -1    0    0    0    0  0.00000000000E+00  0.00000000000E+00  0.45593999997E+02  0.45594000000E+02  0.51100000000E-03 0.  1.
         11   -1    0    0    0    0 -0.00000000000E+00 -0.00000000000E+00 -0.45593999997E+02  0.45594000000E+02  0.51100000000E-03 0. -1.
    9900012    2    1    2    0    0  0.22341218517E+02 -0.28872558381E+02  0.23470618595E+02  0.47787255657E+02  0.19999929840E+02 0.  0.
         12    1    1    2    0    0 -0.22341218517E+02  0.28872558381E+02 -0.23470618595E+02  0.43400744343E+02  0.00000000000E+00 0. -1.
         11    1    3    3    0    0  0.41707702404E+01 -0.33536288675E+01 -0.18893197192E+00  0.53551700748E+01  0.51100000000E-03 0. -1.
        -11    1    3    3    0    0  0.15375215631E+02 -0.27691861344E+02  0.21569103413E+02  0.38320525344E+02  0.51100000000E-03 0.  1.
        -12    1    3    3    0    0  0.27952326465E+01  0.21729318296E+01  0.20904471538E+01  0.41115602375E+01  0.00000000000E+00 0.  1.
</event>
<event>
 7    1  0.2733256E-010  0.4778727E+02  0.7816164E-02  0.1312668E+00
        -11   -1    0    0    0    0  0.00000000000E+00  0.00000000000E+00  0.45593999997E+02  0.45594000000E+02  0.51100000000E-03 0.  1.
         11   -1    0    0    0    0 -0.00000000000E+00 -0.00000000000E+00 -0.45593999997E+02  0.45594000000E+02  0.51100000000E-03 0. -1.
    9900012    2    1    2    0    0 -0.37988666964E+01  0.22416818486E+02  0.36968607685E+02  0.47787273124E+02  0.20000009482E+02 0.  0.
         12    1    1    2    0    0  0.37988666964E+01 -0.22416818486E+02 -0.36968607685E+02  0.43400726876E+02  0.00000000000E+00 0. -1.
         11    1    3    3    0    0  0.13437617807E+01  0.11399685609E+01 -0.14716986596E+01  0.22958922555E+01  0.51100000000E-03 0. -1.
        -11    1    3    3    0    0  0.59351140487E+00  0.74143856142E+01  0.53600323959E+01  0.91681687032E+01  0.51100000000E-03 0.  1.
        -12    1    3    3    0    0 -0.57361398819E+01  0.13862464311E+02  0.33080273948E+02  0.36323212165E+02  0.00000000000E+00 0.  1.
</event>
<event>
 7    1  0.2733256E-010  0.4778727E+02  0.7816164E-02  0.1312668E+00
        -11   -1    0    0    0    0  0.00000000000E+00  0.00000000000E+00  0.45593999997E+02  0.45594000000E+02  0.51100000000E-03 0.  1.
         11   -1    0    0    0    0 -0.00000000000E+00 -0.00000000000E+00 -0.45593999997E+02  0.45594000000E+02  0.51100000000E-03 0. -1.
    9900012    2    1    2    0    0 -0.39310795344E+02 -0.18306897789E+02 -0.17725903586E+01  0.47787271736E+02  0.20000003155E+02 0.  0.
         12    1    1    2    0    0  0.39310795344E+02  0.18306897789E+02  0.17725903586E+01  0.43400728264E+02  0.00000000000E+00 0. -1.
         11    1    3    3    0    0 -0.20169594510E+02 -0.17422888140E+02  0.28618148932E+01  0.26805961251E+02  0.51100000000E-03 0. -1.
        -11    1    3    3    0    0 -0.11512989314E+02 -0.39388744880E+01 -0.36594797108E+01  0.12706512000E+02  0.51100000000E-03 0.  1.
         12    1    3    3    0    0 -0.76282115199E+01  0.30548648388E+01 -0.97492554102E+00  0.82747984862E+01  0.00000000000E+00 0. -1.
</event>
<event>
 7    1  0.2733256E-010  0.4778727E+02  0.7816164E-02  0.1312668E+00
        -11   -1    0    0    0    0  0.00000000000E+00  0.00000000000E+00  0.45593999997E+02  0.45594000000E+02  0.51100000000E-03 0.  1.
         11   -1    0    0    0    0 -0.00000000000E+00 -0.00000000000E+00 -0.45593999997E+02  0.45594000000E+02  0.51100000000E-03 0. -1.
    9900012    2    1    2    0    0 -0.26408946457E+02 -0.33716767375E+02  0.70263990841E+01  0.47787272595E+02  0.20000007069E+02 0.  0.
         12    1    1    2    0    0  0.26408946457E+02  0.33716767375E+02 -0.70263990841E+01  0.43400727405E+02  0.00000000000E+00 0. -1.
         11    1    3    3    0    0 -0.11171628930E+02 -0.10953998574E+02  0.30151886340E+00  0.15648843139E+02  0.51100000000E-03 0. -1.
        -11    1    3    3    0    0 -0.13493061811E+02 -0.23249123294E+02  0.97652001495E+01  0.28599713026E+02  0.51100000000E-03 0.  1.
         12    1    3    3    0    0 -0.17442557167E+01  0.48635449302E+00 -0.30403199287E+01  0.35387164293E+01  0.00000000000E+00 0. -1.
</event>
<event>
 7    1  0.2733256E-010  0.4778727E+02  0.7816164E-02  0.1312668E+00
        -11   -1    0    0    0    0  0.00000000000E+00  0.00000000000E+00  0.45593999997E+02  0.45594000000E+02  0.51100000000E-03 0.  1.
         11   -1    0    0    0    0 -0.00000000000E+00 -0.00000000000E+00 -0.45593999997E+02  0.45594000000E+02  0.51100000000E-03 0. -1.
    9900012    2    1    2    0    0 -0.90401816879E+01 -0.19994613059E+02  0.37444811199E+02  0.47787270489E+02  0.19999997468E+02 0.  0.
         12    1    1    2    0    0  0.90401816879E+01  0.19994613059E+02 -0.37444811199E+02  0.43400729511E+02  0.00000000000E+00 0. -1.
         11    1    3    3    0    0  0.29479586754E+01 -0.21692711048E+01  0.86621446444E+01  0.94036667093E+01  0.51100000000E-03 0. -1.
        -11    1    3    3    0    0  0.90760519338E+00 -0.82378888660E+01  0.15329131827E+02  0.17426096608E+02  0.51100000000E-03 0.  1.
         12    1    3    3    0    0 -0.12895745557E+02 -0.95874530883E+01  0.13453534727E+02  0.20957507171E+02  0.00000000000E+00 0. -1.
</event>
<event>
 7    1  0.2733256E-010  0.4778727E+02  0.7816164E-02  0.1312668E+00
        -11   -1    0    0    0    0  0.00000000000E+00  0.00000000000E+00  0.45593999997E+02  0.45594000000E+02  0.51100000000E-03 0.  1.
         11   -1    0    0    0    0 -0.00000000000E+00 -0.00000000000E+00 -0.45593999997E+02  0.45594000000E+02  0.51100000000E-03 0. -1.
    9900012    2    1    2    0    0  0.29367933644E+02  0.31836691886E+02 -0.27519351008E+01  0.47787267016E+02  0.19999981633E+02 0.  0.
         12    1    1    2    0    0 -0.29367933644E+02 -0.31836691886E+02  0.27519351008E+01  0.43400732984E+02  0.00000000000E+00 0. -1.
         11    1    3    3    0    0  0.14413755804E+02  0.20063235312E+02 -0.58588361459E+01  0.25389283740E+02  0.51100000000E-03 0. -1.
        -11    1    3    3    0    0  0.14688379033E+02  0.11522557836E+02 -0.59497078111E+00  0.18678110402E+02  0.51100000000E-03 0.  1.
         12    1    3    3    0    0  0.26579880630E+00  0.25089873811E+00  0.37018718262E+01  0.37198728741E+01  0.00000000000E+00 0. -1.
</event>
<event>
 7    1  0.2733256E-010  0.4778727E+02  0.7816164E-02  0.1312668E+00
        -11   -1    0    0    0    0  0.00000000000E+00  0.00000000000E+00  0.45593999997E+02  0.45594000000E+02  0.51100000000E-03 0. -1.
         11   -1    0    0    0    0 -0.00000000000E+00 -0.00000000000E+00 -0.45593999997E+02  0.45594000000E+02  0.51100000000E-03 0.  1.
    9900012    2    1    2    0    0 -0.36351961019E+02 -0.23547884259E+02 -0.27668275236E+01  0.47787271232E+02  0.20000000857E+02 0.  0.
         12    1    1    2    0    0  0.36351961019E+02  0.23547884259E+02  0.27668275236E+01  0.43400728768E+02  0.00000000000E+00 0. -1.
         11    1    3    3    0    0 -0.13893811796E+01 -0.46409187897E+01 -0.54110880576E+01  0.72628081004E+01  0.51100000000E-03 0. -1.
        -11    1    3    3    0    0 -0.11906171791E+02 -0.70227623618E+01 -0.25874632507E+01  0.14063110760E+02  0.51100000000E-03 0.  1.
         12    1    3    3    0    0 -0.23056408048E+02 -0.11884203108E+02  0.52317237848E+01  0.26461352372E+02  0.00000000000E+00 0. -1.
</event>
<event>
 7    1  0.2733256E-010  0.4778727E+02  0.7816164E-02  0.1312668E+00
        -11   -1    0    0    0    0  0.00000000000E+00  0.00000000000E+00  0.45593999997E+02  0.45594000000E+02  0.51100000000E-03 0.  1.
         11   -1    0    0    0    0 -0.00000000000E+00 -0.00000000000E+00 -0.45593999997E+02  0.45594000000E+02  0.51100000000E-03 0. -1.
    9900012    2    1    2    0    0  0.99964524900E+00  0.12623517680E+02  0.41512297452E+02  0.47787270409E+02  0.19999997103E+02 0.  0.
         12    1    1    2    0    0 -0.99964524900E+00 -0.12623517680E+02 -0.41512297452E+02  0.43400729591E+02  0.00000000000E+00 0. -1.
         11    1    3    3    0    0  0.13047325142E+01 -0.29219017244E+01  0.46563959651E+01  0.56499433861E+01  0.51100000000E-03 0. -1.
        -11    1    3    3    0    0 -0.62158485287E+00  0.13105033120E+02  0.37384988115E+02  0.39620267508E+02  0.51100000000E-03 0.  1.
         12    1    3    3    0    0  0.31649758767E+00  0.24403862849E+01 -0.52908662748E+00  0.25170595149E+01  0.00000000000E+00 0. -1.
</event>
<event>
 7    1  0.2733256E-010  0.4778728E+02  0.7816164E-02  0.1312668E+00
        -11   -1    0    0    0    0  0.00000000000E+00  0.00000000000E+00  0.45593999997E+02  0.45594000000E+02  0.51100000000E-03 0.  1.
         11   -1    0    0    0    0 -0.00000000000E+00 -0.00000000000E+00 -0.45593999997E+02  0.45594000000E+02  0.51100000000E-03 0. -1.
    9900012    2    1    2    0    0  0.16395675163E+01  0.26341918925E+02  0.34453414458E+02  0.47787278323E+02  0.20000033187E+02 0.  0.
         12    1    1    2    0    0 -0.16395675163E+01 -0.26341918925E+02 -0.34453414458E+02  0.43400721677E+02  0.00000000000E+00 0. -1.
         11    1    3    3    0    0 -0.45459850626E+01  0.72040664352E+01  0.67804623987E+01  0.10887571997E+02  0.51100000000E-03 0. -1.
        -11    1    3    3    0    0 -0.22226114075E+01  0.21860762527E+00 -0.12758250559E+00  0.22369774964E+01  0.51100000000E-03 0.  1.
        -12    1    3    3    0    0  0.84081639864E+01  0.18919244864E+02  0.27800534564E+02  0.34662728830E+02  0.00000000000E+00 0.  1.
</event>
<event>
 7    1  0.2733256E-010  0.4778726E+02  0.7816164E-02  0.1312668E+00
        -11   -1    0    0    0    0  0.00000000000E+00  0.00000000000E+00  0.45593999997E+02  0.45594000000E+02  0.51100000000E-03 0.  1.
         11   -1    0    0    0    0 -0.00000000000E+00 -0.00000000000E+00 -0.45593999997E+02  0.45594000000E+02  0.51100000000E-03 0. -1.
    9900012    2    1    2    0    0  0.28940592247E+02 -0.63014373625E+01  0.31723154009E+02  0.47787257002E+02  0.19999935976E+02 0.  0.
         12    1    1    2    0    0 -0.28940592247E+02  0.63014373625E+01 -0.31723154009E+02  0.43400742998E+02  0.00000000000E+00 0. -1.
         11    1    3    3    0    0  0.15846069268E+01  0.64465036963E+00 -0.17703271958E+01  0.24618309960E+01  0.51100000000E-03 0. -1.
        -11    1    3    3    0    0  0.65947472349E+01 -0.71459382102E+01  0.94707272305E+01  0.13573864539E+02  0.51100000000E-03 0.  1.
        -12    1    3    3    0    0  0.20761238085E+02  0.19985047808E+00  0.24022753975E+02  0.31751561467E+02  0.00000000000E+00 0.  1.
</event>
<event>
 7    1  0.2733256E-010  0.4778727E+02  0.7816164E-02  0.1312668E+00
        -11   -1    0    0    0    0  0.00000000000E+00  0.00000000000E+00  0.45593999997E+02  0.45594000000E+02  0.51100000000E-03 0.  1.
         11   -1    0    0    0    0 -0.00000000000E+00 -0.00000000000E+00 -0.45593999997E+02  0.45594000000E+02  0.51100000000E-03 0. -1.
    9900012    2    1    2    0    0  0.36390753216E+02  0.22572986880E+02  0.70566708730E+01  0.47787271203E+02  0.20000000722E+02 0.  0.
         12    1    1    2    0    0 -0.36390753216E+02 -0.22572986880E+02 -0.70566708730E+01  0.43400728797E+02  0.00000000000E+00 0. -1.
         11    1    3    3    0    0  0.20525998862E+01  0.12833191764E+01  0.30049882722E+01  0.38587600572E+01  0.51100000000E-03 0. -1.
        -11    1    3    3    0    0  0.35649116066E+02  0.18613599075E+02  0.55431002541E+01  0.40596200654E+02  0.51100000000E-03 0.  1.
         12    1    3    3    0    0 -0.13109627360E+01  0.26760686281E+01 -0.14914176533E+01  0.33323104919E+01  0.00000000000E+00 0. -1.
</event>
<event>
 7    1  0.2733256E-010  0.4778727E+02  0.7816164E-02  0.1312668E+00
        -11   -1    0    0    0    0  0.00000000000E+00  0.00000000000E+00  0.45593999997E+02  0.45594000000E+02  0.51100000000E-03 0.  1.
         11   -1    0    0    0    0 -0.00000000000E+00 -0.00000000000E+00 -0.45593999997E+02  0.45594000000E+02  0.51100000000E-03 0. -1.
    9900012    2    1    2    0    0 -0.13844411844E+02  0.40904480417E+02  0.43334701676E+01  0.47787271651E+02  0.20000002768E+02 0.  0.
         12    1    1    2    0    0  0.13844411844E+02 -0.40904480417E+02 -0.43334701676E+01  0.43400728349E+02  0.00000000000E+00 0. -1.
         11    1    3    3    0    0  0.96517079306E+00 -0.39409331698E+00 -0.13482714834E+01  0.17043181793E+01  0.51100000000E-03 0. -1.
        -11    1    3    3    0    0 -0.14052940242E+02  0.34505896204E+02  0.98871837788E-01  0.37257908934E+02  0.51100000000E-03 0.  1.
        -12    1    3    3    0    0 -0.75664239509E+00  0.67926775305E+01  0.55828698132E+01  0.88250445381E+01  0.00000000000E+00 0.  1.
</event>
<event>
 7    1  0.2733256E-010  0.4778723E+02  0.7816164E-02  0.1312668E+00
        -11   -1    0    0    0    0  0.00000000000E+00  0.00000000000E+00  0.45593999997E+02  0.45594000000E+02  0.51100000000E-03 0.  1.
         11   -1    0    0    0    0 -0.00000000000E+00 -0.00000000000E+00 -0.45593999997E+02  0.45594000000E+02  0.51100000000E-03 0. -1.
    9900012    2    1    2    0    0 -0.38405595933E+02  0.13591158107E+02 -0.14963880026E+02  0.47787227160E+02  0.19999799914E+02 0.  0.
         12    1    1    2    0    0  0.38405595933E+02 -0.13591158107E+02  0.14963880026E+02  0.43400772840E+02  0.00000000000E+00 0. -1.
         11    1    3    3    0    0 -0.44365911433E+01  0.31325426722E+01  0.21918066445E+01  0.58566356548E+01  0.51100000000E-03 0. -1.
        -11    1    3    3    0    0 -0.95242069982E+00  0.27791262907E+01 -0.52252200973E+01  0.59944618987E+01  0.51100000000E-03 0.  1.
        -12    1    3    3    0    0 -0.33016584090E+02  0.76794891441E+01 -0.11930466573E+02  0.35936129607E+02  0.00000000000E+00 0.  1.
</event>
<event>
 7    1  0.2733256E-010  0.4778727E+02  0.7816164E-02  0.1312668E+00
        -11   -1    0    0    0    0  0.00000000000E+00  0.00000000000E+00  0.45593999997E+02  0.45594000000E+02  0.51100000000E-03 0.  1.
         11   -1    0    0    0    0 -0.00000000000E+00 -0.00000000000E+00 -0.45593999997E+02  0.45594000000E+02  0.51100000000E-03 0. -1.
    9900012    2    1    2    0    0  0.10022742538E+02  0.13427588684E+02  0.40035832717E+02  0.47787269508E+02  0.19999992995E+02 0.  0.
         12    1    1    2    0    0 -0.10022742538E+02 -0.13427588684E+02 -0.40035832717E+02  0.43400730492E+02  0.00000000000E+00 0. -1.
         11    1    3    3    0    0  0.12580329748E+01  0.37866085978E+00 -0.11012734352E+01  0.17143029057E+01  0.51100000000E-03 0. -1.
        -11    1    3    3    0    0  0.18352685957E+01 -0.25571079725E+01  0.32946721110E+01  0.45565202273E+01  0.51100000000E-03 0.  1.
        -12    1    3    3    0    0  0.69294409672E+01  0.15606035797E+02  0.37842434042E+02  0.41516446375E+02  0.00000000000E+00 0.  1.
</event>
<event>
 7    1  0.2733256E-010  0.4778728E+02  0.7816164E-02  0.1312668E+00
        -11   -1    0    0    0    0  0.00000000000E+00  0.00000000000E+00  0.45593999997E+02  0.45594000000E+02  0.51100000000E-03 0.  1.
         11   -1    0    0    0    0 -0.00000000000E+00 -0.00000000000E+00 -0.45593999997E+02  0.45594000000E+02  0.51100000000E-03 0. -1.
    9900012    2    1    2    0    0 -0.37021937256E+02  0.22156705206E+02 -0.46988753142E+01  0.47787275893E+02  0.20000022108E+02 0.  0.
         12    1    1    2    0    0  0.37021937256E+02 -0.22156705206E+02  0.46988753142E+01  0.43400724107E+02  0.00000000000E+00 0. -1.
         11    1    3    3    0    0 -0.57571773100E+01  0.11122185425E+01 -0.85611395671E+00  0.59257954768E+01  0.51100000000E-03 0. -1.
        -11    1    3    3    0    0 -0.24495829678E+02  0.74431124240E+01 -0.65576909530E+01  0.26428183916E+02  0.51100000000E-03 0.  1.
         12    1    3    3    0    0 -0.67689302675E+01  0.13601374240E+02  0.27149295955E+01  0.15433296501E+02  0.00000000000E+00 0. -1.
</event>
<event>
 7    1  0.2733256E-010  0.4778726E+02  0.7816164E-02  0.1312668E+00
        -11   -1    0    0    0    0  0.00000000000E+00  0.00000000000E+00  0.45593999997E+02  0.45594000000E+02  0.51100000000E-03 0.  1.
         11   -1    0    0    0    0 -0.00000000000E+00 -0.00000000000E+00 -0.45593999997E+02  0.45594000000E+02  0.51100000000E-03 0. -1.
    9900012    2    1    2    0    0  0.22017198574E+02  0.19720445744E+01  0.37349411548E+02  0.47787256506E+02  0.19999933712E+02 0.  0.
         12    1    1    2    0    0 -0.22017198574E+02 -0.19720445744E+01 -0.37349411548E+02  0.43400743494E+02  0.00000000000E+00 0. -1.
         11    1    3    3    0    0  0.42947566461E+01  0.64242713863E+00  0.13672206245E+02  0.14345273477E+02  0.51100000000E-03 0. -1.
        -11    1    3    3    0    0  0.31352844351E+01  0.76536663702E+00  0.17150150600E+02  0.17451173612E+02  0.51100000000E-03 0.  1.
         12    1    3    3    0    0  0.14587157493E+02  0.56425079878E+00  0.65270547036E+01  0.15990809416E+02  0.00000000000E+00 0. -1.
</event>
<event>
 7    1  0.2733256E-010  0.4778730E+02  0.7816164E-02  0.1312668E+00
        -11   -1    0    0    0    0  0.00000000000E+00  0.00000000000E+00  0.45593999997E+02  0.45594000000E+02  0.51100000000E-03 0.  1.
         11   -1    0    0    0    0 -0.00000000000E+00 -0.00000000000E+00 -0.45593999997E+02  0.45594000000E+02  0.51100000000E-03 0. -1.
    9900012    2    1    2    0    0  0.11235000277E+02 -0.61809259642E+01  0.41463140719E+02  0.47787295913E+02  0.20000113384E+02 0.  0.
         12    1    1    2    0    0 -0.11235000277E+02  0.61809259642E+01 -0.41463140719E+02  0.43400704087E+02  0.00000000000E+00 0. -1.
         11    1    3    3    0    0 -0.10196177412E+01 -0.33672649621E+01  0.51695914045E+01  0.62532207073E+01  0.51100000000E-03 0. -1.
        -11    1    3    3    0    0 -0.33862969227E+01 -0.20169714022E+01  0.38573731201E+01  0.55149350073E+01  0.51100000000E-03 0.  1.
        -12    1    3    3    0    0  0.15640914941E+02 -0.79668959995E+00  0.32436176194E+02  0.36019140198E+02  0.00000000000E+00 0.  1.
</event>
<event>
 7    1  0.2733256E-010  0.4778727E+02  0.7816164E-02  0.1312668E+00
        -11   -1    0    0    0    0  0.00000000000E+00  0.00000000000E+00  0.45593999997E+02  0.45594000000E+02  0.51100000000E-03 0.  1.
         11   -1    0    0    0    0 -0.00000000000E+00 -0.00000000000E+00 -0.45593999997E+02  0.45594000000E+02  0.51100000000E-03 0. -1.
    9900012    2    1    2    0    0 -0.28791975865E+02  0.83014985038E+01  0.31396349980E+02  0.47787267936E+02  0.19999985828E+02 0.  0.
         12    1    1    2    0    0  0.28791975865E+02 -0.83014985038E+01 -0.31396349980E+02  0.43400732064E+02  0.00000000000E+00 0. -1.
         11    1    3    3    0    0 -0.33092052053E+01 -0.37657794769E+01  0.19465931817E+01  0.53778396625E+01  0.51100000000E-03 0. -1.
        -11    1    3    3    0    0 -0.54173063907E+01  0.53869047645E+00  0.67823899766E+00  0.54861101301E+01  0.51100000000E-03 0.  1.
        -12    1    3    3    0    0 -0.20065464269E+02  0.11528587504E+02  0.28771517801E+02  0.36923318143E+02  0.00000000000E+00 0.  1.
</event>
<event>
 7    1  0.2733256E-010  0.4778727E+02  0.7816164E-02  0.1312668E+00
        -11   -1    0    0    0    0  0.00000000000E+00  0.00000000000E+00  0.45593999997E+02  0.45594000000E+02  0.51100000000E-03 0.  1.
         11   -1    0    0    0    0 -0.00000000000E+00 -0.00000000000E+00 -0.45593999997E+02  0.45594000000E+02  0.51100000000E-03 0. -1.
    9900012    2    1    2    0    0 -0.26432890556E+02 -0.63637574793E+01  0.33829397710E+02  0.47787271183E+02  0.20000000634E+02 0.  0.
         12    1    1    2    0    0  0.26432890556E+02  0.63637574793E+01 -0.33829397710E+02  0.43400728817E+02  0.00000000000E+00 0. -1.
         11    1    3    3    0    0 -0.13111109078E+02 -0.37622540652E+01  0.31609129960E+01  0.14001682332E+02  0.51100000000E-03 0. -1.
        -11    1    3    3    0    0 -0.32320562542E+01  0.87901025368E+00  0.53859393799E+01  0.63424908295E+01  0.51100000000E-03 0.  1.
        -12    1    3    3    0    0 -0.10089725224E+02 -0.34805136678E+01  0.25282545334E+02  0.27443098022E+02  0.00000000000E+00 0.  1.
</event>
<event>
 7    1  0.2733256E-010  0.4778727E+02  0.7816164E-02  0.1312668E+00
        -11   -1    0    0    0    0  0.00000000000E+00  0.00000000000E+00  0.45593999997E+02  0.45594000000E+02  0.51100000000E-03 0. -1.
         11   -1    0    0    0    0 -0.00000000000E+00 -0.00000000000E+00 -0.45593999997E+02  0.45594000000E+02  0.51100000000E-03 0.  1.
    9900012    2    1    2    0    0  0.20144006397E+01 -0.43211093129E+02  0.35166357020E+01  0.47787272979E+02  0.20000008820E+02 0.  0.
         12    1    1    2    0    0 -0.20144006397E+01  0.43211093129E+02 -0.35166357020E+01  0.43400727021E+02  0.00000000000E+00 0. -1.
         11    1    3    3    0    0 -0.49063649803E+01 -0.59673847521E+01  0.25165133413E+01  0.81249577081E+01  0.51100000000E-03 0.  1.
        -11    1    3    3    0    0 -0.67627357805E+00 -0.52917301542E+00  0.19789738936E+01  0.21572454579E+01  0.51100000000E-03 0. -1.
        -12    1    3    3    0    0  0.75970391980E+01 -0.36714535361E+02 -0.97885153292E+00  0.37505069813E+02  0.00000000000E+00 0.  1.
</event>
<event>
 7    1  0.2777220E-010  0.4778727E+02  0.7816164E-02  0.1312668E+00
        -11   -1    0    0    0    0  0.00000000000E+00  0.00000000000E+00  0.45593999997E+02  0.45594000000E+02  0.51100000000E-03 0.  1.
         11   -1    0    0    0    0 -0.00000000000E+00 -0.00000000000E+00 -0.45593999997E+02  0.45594000000E+02  0.51100000000E-03 0. -1.
    9900012    2    1    2    0    0  0.50020101923E+00  0.42763177054E+02  0.73948502456E+01  0.47787270479E+02  0.19999997422E+02 0.  0.
         12    1    1    2    0    0 -0.50020101923E+00 -0.42763177054E+02 -0.73948502456E+01  0.43400729521E+02  0.00000000000E+00 0. -1.
         11    1    3    3    0    0  0.11847321245E+01 -0.70090309792E+00  0.91766019019E+00  0.16543747596E+01  0.51100000000E-03 0. -1.
        -11    1    3    3    0    0  0.16018629824E+01  0.77317061427E+01 -0.39654509420E+01  0.88357255688E+01  0.51100000000E-03 0.  1.
        -12    1    3    3    0    0 -0.22863940876E+01  0.35732374009E+02  0.10442640997E+02  0.37297170151E+02  0.00000000000E+00 0.  1.
</event>
<event>
 7    1  0.2733256E-010  0.4778727E+02  0.7816164E-02  0.1312668E+00
        -11   -1    0    0    0    0  0.00000000000E+00  0.00000000000E+00  0.45593999997E+02  0.45594000000E+02  0.51100000000E-03 0.  1.
         11   -1    0    0    0    0 -0.00000000000E+00 -0.00000000000E+00 -0.45593999997E+02  0.45594000000E+02  0.51100000000E-03 0. -1.
    9900012    2    1    2    0    0  0.16045551375E+02  0.40305646839E+02  0.12722021323E+01  0.47787269772E+02  0.19999994200E+02 0.  0.
         12    1    1    2    0    0 -0.16045551375E+02 -0.40305646839E+02 -0.12722021323E+01  0.43400730228E+02  0.00000000000E+00 0. -1.
         11    1    3    3    0    0 -0.80368986587E+00  0.14797251892E+02  0.33086547288E+01  0.15183931551E+02  0.51100000000E-03 0. -1.
        -11    1    3    3    0    0 -0.36522339042E+00  0.75777346112E+01 -0.15433969731E+01  0.77419328620E+01  0.51100000000E-03 0.  1.
         12    1    3    3    0    0  0.17214464631E+02  0.17930660336E+02 -0.49305562336E+00  0.24861405360E+02  0.00000000000E+00 0. -1.
</event>
<event>
 7    1  0.2733256E-010  0.4778727E+02  0.7816164E-02  0.1312668E+00
        -11   -1    0    0    0    0  0.00000000000E+00  0.00000000000E+00  0.45593999997E+02  0.45594000000E+02  0.51100000000E-03 0. -1.
         11   -1    0    0    0    0 -0.00000000000E+00 -0.00000000000E+00 -0.45593999997E+02  0.45594000000E+02  0.51100000000E-03 0.  1.
    9900012    2    1    2    0    0 -0.38015528447E+02  0.10168068791E+01 -0.20914329355E+02  0.47787268765E+02  0.19999989608E+02 0.  0.
         12    1    1    2    0    0  0.38015528447E+02 -0.10168068791E+01  0.20914329355E+02  0.43400731235E+02  0.00000000000E+00 0. -1.
         11    1    3    3    0    0 -0.45937673543E+01 -0.17254605848E+01 -0.68906063960E+01  0.84593362329E+01  0.51100000000E-03 0. -1.
        -11    1    3    3    0    0 -0.49382180703E+01 -0.53806520631E+00 -0.89135926088E+01  0.10204295435E+02  0.51100000000E-03 0.  1.
         12    1    3    3    0    0 -0.28483543023E+02  0.32803326702E+01 -0.51101303501E+01  0.29123637097E+02  0.00000000000E+00 0. -1.
</event>
<event>
 7    1  0.2733256E-010  0.4778727E+02  0.7816164E-02  0.1312668E+00
        -11   -1    0    0    0    0  0.00000000000E+00  0.00000000000E+00  0.45593999997E+02  0.45594000000E+02  0.51100000000E-03 0.  1.
         11   -1    0    0    0    0 -0.00000000000E+00 -0.00000000000E+00 -0.45593999997E+02  0.45594000000E+02  0.51100000000E-03 0. -1.
    9900012    2    1    2    0    0 -0.93388426404E+01  0.27530528283E-01  0.42384061721E+02  0.47787269272E+02  0.19999991918E+02 0.  0.
         12    1    1    2    0    0  0.93388426404E+01 -0.27530528283E-01 -0.42384061721E+02  0.43400730728E+02  0.00000000000E+00 0. -1.
         11    1    3    3    0    0 -0.80093915524E+01 -0.66026134164E+01  0.27907561143E+02  0.29775439983E+02  0.51100000000E-03 0. -1.
        -11    1    3    3    0    0 -0.42084137985E+01  0.24663316157E+01  0.10489091115E+02  0.11567824818E+02  0.51100000000E-03 0.  1.
        -12    1    3    3    0    0  0.28789627104E+01  0.41638123290E+01  0.39874094626E+01  0.64440044709E+01  0.00000000000E+00 0.  1.
</event>
<event>
 7    1  0.2733256E-010  0.4778727E+02  0.7816164E-02  0.1312668E+00
        -11   -1    0    0    0    0  0.00000000000E+00  0.00000000000E+00  0.45593999997E+02  0.45594000000E+02  0.51100000000E-03 0.  1.
         11   -1    0    0    0    0 -0.00000000000E+00 -0.00000000000E+00 -0.45593999997E+02  0.45594000000E+02  0.51100000000E-03 0. -1.
    9900012    2    1    2    0    0  0.35246534302E+02 -0.15484953899E+02  0.20037999956E+02  0.47787269363E+02  0.19999992334E+02 0.  0.
         12    1    1    2    0    0 -0.35246534302E+02  0.15484953899E+02 -0.20037999956E+02  0.43400730637E+02  0.00000000000E+00 0. -1.
         11    1    3    3    0    0  0.11503070455E+02 -0.26569413440E+00  0.95403025686E-01  0.11506534025E+02  0.51100000000E-03 0. -1.
        -11    1    3    3    0    0  0.65832977464E+00 -0.98458888574E-01 -0.12965349533E+01  0.14574276625E+01  0.51100000000E-03 0.  1.
        -12    1    3    3    0    0  0.23085134072E+02 -0.15120800876E+02  0.21239131884E+02  0.34823307675E+02  0.00000000000E+00 0.  1.
</event>
<event>
 7    1  0.2733256E-010  0.4778727E+02  0.7816164E-02  0.1312668E+00
        -11   -1    0    0    0    0  0.00000000000E+00  0.00000000000E+00  0.45593999997E+02  0.45594000000E+02  0.51100000000E-03 0.  1.
         11   -1    0    0    0    0 -0.00000000000E+00 -0.00000000000E+00 -0.45593999997E+02  0.45594000000E+02  0.51100000000E-03 0. -1.
    9900012    2    1    2    0    0 -0.15026473631E+02  0.30547149082E+02  0.26920251635E+02  0.47787272185E+02  0.20000005199E+02 0.  0.
         12    1    1    2    0    0  0.15026473631E+02 -0.30547149082E+02 -0.26920251635E+02  0.43400727815E+02  0.00000000000E+00 0. -1.
         11    1    3    3    0    0 -0.91766494234E+01  0.10623383323E+02  0.11016308144E+02  0.17844500925E+02  0.51100000000E-03 0.  1.
        -11    1    3    3    0    0 -0.32973102700E+01 -0.15656406954E+01  0.14965064636E+01  0.39449990698E+01  0.51100000000E-03 0. -1.
        -12    1    3    3    0    0 -0.25525139375E+01  0.21489406454E+02  0.14407437028E+02  0.25997772190E+02  0.00000000000E+00 0.  1.
</event>
<event>
 7    1  0.2733256E-010  0.4778726E+02  0.7816164E-02  0.1312668E+00
        -11   -1    0    0    0    0  0.00000000000E+00  0.00000000000E+00  0.45593999997E+02  0.45594000000E+02  0.51100000000E-03 0.  1.
         11   -1    0    0    0    0 -0.00000000000E+00 -0.00000000000E+00 -0.45593999997E+02  0.45594000000E+02  0.51100000000E-03 0. -1.
    9900012    2    1    2    0    0  0.26220826758E+02 -0.31502909688E+01  0.34440787508E+02  0.47787263448E+02  0.19999965366E+02 0.  0.
         12    1    1    2    0    0 -0.26220826758E+02  0.31502909688E+01 -0.34440787508E+02  0.43400736552E+02  0.00000000000E+00 0. -1.
         11    1    3    3    0    0  0.66125898097E+01 -0.13955848067E+01  0.26277697597E+01  0.72511499167E+01  0.51100000000E-03 0. -1.
        -11    1    3    3    0    0  0.22124226633E+02 -0.27276343162E+01  0.29548993543E+02  0.37014381161E+02  0.51100000000E-03 0.  1.
         12    1    3    3    0    0 -0.25159896847E+01  0.97292815413E+00  0.22640242057E+01  0.35217323707E+01  0.00000000000E+00 0. -1.
</event>
<event>
 7    1  0.2733256E-010  0.4778728E+02  0.7816164E-02  0.1312668E+00
        -11   -1    0    0    0    0  0.00000000000E+00  0.00000000000E+00  0.45593999997E+02  0.45594000000E+02  0.51100000000E-03 0.  1.
         11   -1    0    0    0    0 -0.00000000000E+00 -0.00000000000E+00 -0.45593999997E+02  0.45594000000E+02  0.51100000000E-03 0. -1.
    9900012    2    1    2    0    0 -0.36049962193E+02  0.54759592077E+01  0.23537987588E+02  0.47787276930E+02  0.20000026834E+02 0.  0.
         12    1    1    2    0    0  0.36049962193E+02 -0.54759592077E+01 -0.23537987588E+02  0.43400723070E+02  0.00000000000E+00 0. -1.
         11    1    3    3    0    0 -0.20984738628E+02  0.68114786243E+01  0.94949259182E+01  0.24018932424E+02  0.51100000000E-03 0. -1.
        -11    1    3    3    0    0 -0.10782476411E+02  0.45083500179E+01  0.10465527369E+02  0.15688029857E+02  0.51100000000E-03 0.  1.
        -12    1    3    3    0    0 -0.42827471543E+01 -0.58438694346E+01  0.35775343008E+01  0.80803146492E+01  0.00000000000E+00 0.  1.
</event>
<event>
 7    1  0.2733256E-010  0.4778727E+02  0.7816164E-02  0.1312668E+00
        -11   -1    0    0    0    0  0.00000000000E+00  0.00000000000E+00  0.45593999997E+02  0.45594000000E+02  0.51100000000E-03 0.  1.
         11   -1    0    0    0    0 -0.00000000000E+00 -0.00000000000E+00 -0.45593999997E+02  0.45594000000E+02  0.51100000000E-03 0. -1.
    9900012    2    1    2    0    0  0.16207202293E+02 -0.50955496048E+01  0.39937264128E+02  0.47787273071E+02  0.20000009239E+02 0.  0.
         12    1    1    2    0    0 -0.16207202293E+02  0.50955496048E+01 -0.39937264128E+02  0.43400726929E+02  0.00000000000E+00 0. -1.
         11    1    3    3    0    0  0.73764128786E+01  0.15505043460E+01  0.60603725275E+01  0.96717964265E+01  0.51100000000E-03 0. -1.
        -11    1    3    3    0    0 -0.24466802798E+01 -0.17318708046E+01  0.12523130634E+01  0.32486780612E+01  0.51100000000E-03 0.  1.
        -12    1    3    3    0    0  0.11277469694E+02 -0.49141831461E+01  0.32624578537E+02  0.34866798583E+02  0.00000000000E+00 0.  1.
</event>
<event>
 7    1  0.2733256E-010  0.4778727E+02  0.7816164E-02  0.1312668E+00
        -11   -1    0    0    0    0  0.00000000000E+00  0.00000000000E+00  0.45593999997E+02  0.45594000000E+02  0.51100000000E-03 0. -1.
         11   -1    0    0    0    0 -0.00000000000E+00 -0.00000000000E+00 -0.45593999997E+02  0.45594000000E+02  0.51100000000E-03 0.  1.
    9900012    2    1    2    0    0 -0.17051609964E+02  0.23638398027E+02 -0.32157302225E+02  0.47787270168E+02  0.19999996002E+02 0.  0.
         12    1    1    2    0    0  0.17051609964E+02 -0.23638398027E+02  0.32157302225E+02  0.43400729832E+02  0.00000000000E+00 0. -1.
         11    1    3    3    0    0  0.32040002916E+01  0.33016793411E+01 -0.85652510053E+01  0.97226657550E+01  0.51100000000E-03 0. -1.
        -11    1    3    3    0    0 -0.47603182902E+01  0.24874478623E+01 -0.83874710357E+01  0.99598041009E+01  0.51100000000E-03 0.  1.
        -12    1    3    3    0    0 -0.15495291965E+02  0.17849270823E+02 -0.15204580184E+02  0.28104800312E+02  0.00000000000E+00 0.  1.
</event>
<event>
 7    1  0.2733256E-010  0.4778727E+02  0.7816164E-02  0.1312668E+00
        -11   -1    0    0    0    0  0.00000000000E+00  0.00000000000E+00  0.45593999997E+02  0.45594000000E+02  0.51100000000E-03 0.  1.
         11   -1    0    0    0    0 -0.00000000000E+00 -0.00000000000E+00 -0.45593999997E+02  0.45594000000E+02  0.51100000000E-03 0. -1.
    9900012    2    1    2    0    0 -0.23457195312E+02 -0.12514003590E+02  0.34304269318E+02  0.47787271997E+02  0.20000004344E+02 0.  0.
         12    1    1    2    0    0  0.23457195312E+02  0.12514003590E+02 -0.34304269318E+02  0.43400728003E+02  0.00000000000E+00 0. -1.
         11    1    3    3    0    0 -0.17434134578E+02 -0.43106374171E+01  0.14239110866E+02  0.22919051506E+02  0.51100000000E-03 0. -1.
        -11    1    3    3    0    0 -0.69773354022E+01 -0.14788694988E+01  0.14215880775E+02  0.15904764405E+02  0.51100000000E-03 0.  1.
         12    1    3    3    0    0  0.95427466815E+00 -0.67244966740E+01  0.58492776764E+01  0.89634560855E+01  0.00000000000E+00 0. -1.
</event>
<event>
 7    1  0.2733256E-010  0.4778727E+02  0.7816164E-02  0.1312668E+00
        -11   -1    0    0    0    0  0.00000000000E+00  0.00000000000E+00  0.45593999997E+02  0.45594000000E+02  0.51100000000E-03 0.  1.
         11   -1    0    0    0    0 -0.00000000000E+00 -0.00000000000E+00 -0.45593999997E+02  0.45594000000E+02  0.51100000000E-03 0. -1.
    9900012    2    1    2    0    0 -0.72600181984E+01 -0.17228495476E+02  0.39167521240E+02  0.47787266818E+02  0.19999980731E+02 0.  0.
         12    1    1    2    0    0  0.72600181984E+01  0.17228495476E+02 -0.39167521240E+02  0.43400733182E+02  0.00000000000E+00 0. -1.
         11    1    3    3    0    0  0.51557232675E+00  0.19961062365E+01  0.14447145000E+01  0.25174302730E+01  0.51100000000E-03 0. -1.
        -11    1    3    3    0    0 -0.92911069160E+00  0.21665511933E+01  0.55787128075E+01  0.60563378043E+01  0.51100000000E-03 0.  1.
         12    1    3    3    0    0 -0.68464798335E+01 -0.21391152906E+02  0.32144093933E+02  0.39213498741E+02  0.00000000000E+00 0. -1.
</event>
<event>
 7    1  0.2733256E-010  0.4778727E+02  0.7816164E-02  0.1312668E+00
        -11   -1    0    0    0    0  0.00000000000E+00  0.00000000000E+00  0.45593999997E+02  0.45594000000E+02  0.51100000000E-03 0. -1.
         11   -1    0    0    0    0 -0.00000000000E+00 -0.00000000000E+00 -0.45593999997E+02  0.45594000000E+02  0.51100000000E-03 0.  1.
    9900012    2    1    2    0    0 -0.20770986096E+01  0.55438741605E+01 -0.42995050171E+02  0.47787271682E+02  0.20000002907E+02 0.  0.
         12    1    1    2    0    0  0.20770986096E+01 -0.55438741605E+01  0.42995050171E+02  0.43400728318E+02  0.00000000000E+00 0. -1.
         11    1    3    3    0    0 -0.42487963099E+01  0.52876082413E+01 -0.16476317663E+02  0.17817971686E+02  0.51100000000E-03 0. -1.
        -11    1    3    3    0    0  0.92837640669E+00  0.30264804619E+01 -0.26738196723E+02  0.26924944401E+02  0.51100000000E-03 0.  1.
         12    1    3    3    0    0  0.12433212936E+01 -0.27702145427E+01  0.21946421472E+00  0.30443555957E+01  0.00000000000E+00 0. -1.
</event>
<event>
 7    1  0.2733256E-010  0.4778727E+02  0.7816164E-02  0.1312668E+00
        -11   -1    0    0    0    0  0.00000000000E+00  0.00000000000E+00  0.45593999997E+02  0.45594000000E+02  0.51100000000E-03 0. -1.
         11   -1    0    0    0    0 -0.00000000000E+00 -0.00000000000E+00 -0.45593999997E+02  0.45594000000E+02  0.51100000000E-03 0.  1.
    9900012    2    1    2    0    0  0.28368555001E+02 -0.51047604657E+01 -0.32446721334E+02  0.47787271693E+02  0.20000002958E+02 0.  0.
         12    1    1    2    0    0 -0.28368555001E+02  0.51047604657E+01  0.32446721334E+02  0.43400728307E+02  0.00000000000E+00 0. -1.
         11    1    3    3    0    0  0.67946063472E+01 -0.97349131986E-01 -0.15535134170E+02  0.16956312872E+02  0.51100000000E-03 0.  1.
        -11    1    3    3    0    0  0.75652039773E+00 -0.49030838903E+01 -0.32570747415E+01  0.59347359571E+01  0.51100000000E-03 0. -1.
         12    1    3    3    0    0  0.20817428256E+02 -0.10432744337E+00 -0.13654512422E+02  0.24896222864E+02  0.00000000000E+00 0. -1.
</event>
<event>
 7    1  0.2733256E-010  0.4778727E+02  0.7816164E-02  0.1312668E+00
        -11   -1    0    0    0    0  0.00000000000E+00  0.00000000000E+00  0.45593999997E+02  0.45594000000E+02  0.51100000000E-03 0.  1.
         11   -1    0    0    0    0 -0.00000000000E+00 -0.00000000000E+00 -0.45593999997E+02  0.45594000000E+02  0.51100000000E-03 0. -1.
    9900012    2    1    2    0    0 -0.23721779159E+02  0.66732921440E+00  0.36338067869E+02  0.47787270615E+02  0.19999998040E+02 0.  0.
         12    1    1    2    0    0  0.23721779159E+02 -0.66732921440E+00 -0.36338067869E+02  0.43400729385E+02  0.00000000000E+00 0. -1.
         11    1    3    3    0    0 -0.10421151734E+02  0.36820927550E+01  0.13861177026E+02  0.17728238472E+02  0.51100000000E-03 0. -1.
        -11    1    3    3    0    0 -0.12457675308E+02  0.23513375964E+01  0.20826985029E+02  0.24382078833E+02  0.51100000000E-03 0.  1.
         12    1    3    3    0    0 -0.84295211733E+00 -0.53661011370E+01  0.16499058143E+01  0.56769533097E+01  0.00000000000E+00 0. -1.
</event>
<event>
 7    1  0.2733256E-010  0.4778727E+02  0.7816164E-02  0.1312668E+00
        -11   -1    0    0    0    0  0.00000000000E+00  0.00000000000E+00  0.45593999997E+02  0.45594000000E+02  0.51100000000E-03 0. -1.
         11   -1    0    0    0    0 -0.00000000000E+00 -0.00000000000E+00 -0.45593999997E+02  0.45594000000E+02  0.51100000000E-03 0.  1.
    9900012    2    1    2    0    0 -0.34598929137E+02  0.18667874016E+02 -0.18386071648E+02  0.47787273643E+02  0.20000011846E+02 0.  0.
         12    1    1    2    0    0  0.34598929137E+02 -0.18667874016E+02  0.18386071648E+02  0.43400726357E+02  0.00000000000E+00 0. -1.
         11    1    3    3    0    0 -0.53808179410E+01 -0.18165906518E+01 -0.40441948986E+01  0.69719951197E+01  0.51100000000E-03 0. -1.
        -11    1    3    3    0    0 -0.14246943554E+02  0.25184754856E+01 -0.82250267478E+01  0.16642391194E+02  0.51100000000E-03 0.  1.
         12    1    3    3    0    0 -0.14971167642E+02  0.17965989182E+02 -0.61168500015E+01  0.24172887329E+02  0.00000000000E+00 0. -1.
</event>
<event>
 7    1  0.2733256E-010  0.4778727E+02  0.7816164E-02  0.1312668E+00
        -11   -1    0    0    0    0  0.00000000000E+00  0.00000000000E+00  0.45593999997E+02  0.45594000000E+02  0.51100000000E-03 0.  1.
         11   -1    0    0    0    0 -0.00000000000E+00 -0.00000000000E+00 -0.45593999997E+02  0.45594000000E+02  0.51100000000E-03 0. -1.
    9900012    2    1    2    0    0  0.50524250803E+01  0.40687459593E+02  0.14234720005E+02  0.47787267046E+02  0.19999981772E+02 0.  0.
         12    1    1    2    0    0 -0.50524250803E+01 -0.40687459593E+02 -0.14234720005E+02  0.43400732954E+02  0.00000000000E+00 0. -1.
         11    1    3    3    0    0 -0.38662860160E+01  0.13199486856E+02  0.97005356468E+01  0.16830775767E+02  0.51100000000E-03 0. -1.
        -11    1    3    3    0    0  0.12825531891E+01  0.17300277960E+02  0.54715685592E+01  0.18190179299E+02  0.51100000000E-03 0.  1.
        -12    1    3    3    0    0  0.76361579071E+01  0.10187694777E+02 -0.93738420115E+00  0.12766311981E+02  0.00000000000E+00 0.  1.
</event>
<event>
 7    1  0.2733256E-010  0.4778727E+02  0.7816164E-02  0.1312668E+00
        -11   -1    0    0    0    0  0.00000000000E+00  0.00000000000E+00  0.45593999997E+02  0.45594000000E+02  0.51100000000E-03 0.  1.
         11   -1    0    0    0    0 -0.00000000000E+00 -0.00000000000E+00 -0.45593999997E+02  0.45594000000E+02  0.51100000000E-03 0. -1.
    9900012    2    1    2    0    0  0.35497492174E+02  0.23573154749E+02 -0.82375965884E+01  0.47787267598E+02  0.19999984287E+02 0.  0.
         12    1    1    2    0    0 -0.35497492174E+02 -0.23573154749E+02  0.82375965884E+01  0.43400732402E+02  0.00000000000E+00 0. -1.
         11    1    3    3    0    0  0.19784063735E+01  0.58098707136E+01  0.42253338316E+01  0.74513177182E+01  0.51100000000E-03 0. -1.
        -11    1    3    3    0    0  0.11692580775E+02  0.51389980488E+01 -0.15665369462E+01  0.12867780865E+02  0.51100000000E-03 0.  1.
        -12    1    3    3    0    0  0.21826505026E+02  0.12624285986E+02 -0.10896393474E+02  0.27468169015E+02  0.00000000000E+00 0.  1.
</event>
<event>
 7    1  0.2733256E-010  0.4778727E+02  0.7816164E-02  0.1312668E+00
        -11   -1    0    0    0    0  0.00000000000E+00  0.00000000000E+00  0.45593999997E+02  0.45594000000E+02  0.51100000000E-03 0. -1.
         11   -1    0    0    0    0 -0.00000000000E+00 -0.00000000000E+00 -0.45593999997E+02  0.45594000000E+02  0.51100000000E-03 0.  1.
    9900012    2    1    2    0    0  0.10027036547E+02  0.39582668132E+02 -0.14706948860E+02  0.47787269325E+02  0.19999992159E+02 0.  0.
         12    1    1    2    0    0 -0.10027036547E+02 -0.39582668132E+02  0.14706948860E+02  0.43400730675E+02  0.00000000000E+00 0. -1.
         11    1    3    3    0    0 -0.33244284855E+01  0.12182531496E+02 -0.25402574841E+01  0.12880947432E+02  0.51100000000E-03 0. -1.
        -11    1    3    3    0    0  0.66646791517E+01  0.12736674747E+02  0.53734391568E+00  0.14385046770E+02  0.51100000000E-03 0.  1.
        -12    1    3    3    0    0  0.66867858809E+01  0.14663461889E+02 -0.12704035291E+02  0.20521275123E+02  0.00000000000E+00 0.  1.
</event>
<event>
 7    1  0.2733256E-010  0.4778727E+02  0.7816164E-02  0.1312668E+00
        -11   -1    0    0    0    0  0.00000000000E+00  0.00000000000E+00  0.45593999997E+02  0.45594000000E+02  0.51100000000E-03 0. -1.
         11   -1    0    0    0    0 -0.00000000000E+00 -0.00000000000E+00 -0.45593999997E+02  0.45594000000E+02  0.51100000000E-03 0.  1.
    9900012    2    1    2    0    0 -0.34237165475E+02  0.20053399825E+02 -0.17586965453E+02  0.47787266156E+02  0.19999977712E+02 0.  0.
         12    1    1    2    0    0  0.34237165475E+02 -0.20053399825E+02  0.17586965453E+02  0.43400733844E+02  0.00000000000E+00 0. -1.
         11    1    3    3    0    0 -0.64364000262E+01  0.28905053971E+01 -0.10298089808E+02  0.12483305680E+02  0.51100000000E-03 0. -1.
        -11    1    3    3    0    0 -0.72718404379E+01  0.11178609972E+01 -0.55027922478E+01  0.91874914611E+01  0.51100000000E-03 0.  1.
        -12    1    3    3    0    0 -0.20528925011E+02  0.16045033431E+02 -0.17860833976E+01  0.26116469015E+02  0.00000000000E+00 0.  1.
</event>
<event>
 7    1  0.2733256E-010  0.4778727E+02  0.7816164E-02  0.1312668E+00
        -11   -1    0    0    0    0  0.00000000000E+00  0.00000000000E+00  0.45593999997E+02  0.45594000000E+02  0.51100000000E-03 0.  1.
         11   -1    0    0    0    0 -0.00000000000E+00 -0.00000000000E+00 -0.45593999997E+02  0.45594000000E+02  0.51100000000E-03 0. -1.
    9900012    2    1    2    0    0  0.49998771984E+01  0.23484918758E+02  0.36153599571E+02  0.47787274856E+02  0.20000017379E+02 0.  0.
         12    1    1    2    0    0 -0.49998771984E+01 -0.23484918758E+02 -0.36153599571E+02  0.43400725144E+02  0.00000000000E+00 0. -1.
         11    1    3    3    0    0  0.37732312228E+01  0.12688053672E+02  0.71639851882E+01  0.15051467167E+02  0.51100000000E-03 0. -1.
        -11    1    3    3    0    0 -0.47485818165E+00 -0.15706323197E+01  0.64372356144E+00  0.17625993479E+01  0.51100000000E-03 0.  1.
        -12    1    3    3    0    0  0.17015041573E+01  0.12367497406E+02  0.28345890822E+02  0.30973208341E+02  0.00000000000E+00 0.  1.
</event>
<event>
 7    1  0.2733256E-010  0.4778728E+02  0.7816164E-02  0.1312668E+00
        -11   -1    0    0    0    0  0.00000000000E+00  0.00000000000E+00  0.45593999997E+02  0.45594000000E+02  0.51100000000E-03 0. -1.
         11   -1    0    0    0    0 -0.00000000000E+00 -0.00000000000E+00 -0.45593999997E+02  0.45594000000E+02  0.51100000000E-03 0.  1.
    9900012    2    1    2    0    0 -0.22002239045E+02  0.24067164507E+02 -0.28640809934E+02  0.47787275075E+02  0.20000018376E+02 0.  0.
         12    1    1    2    0    0  0.22002239045E+02 -0.24067164507E+02  0.28640809934E+02  0.43400724925E+02  0.00000000000E+00 0. -1.
         11    1    3    3    0    0 -0.39922413363E+01 -0.93421875953E+00 -0.44621249397E+01  0.60598114506E+01  0.51100000000E-03 0. -1.
        -11    1    3    3    0    0 -0.58121791870E+01  0.14534393790E+02 -0.19463230062E+02  0.24976936451E+02  0.51100000000E-03 0.  1.
         12    1    3    3    0    0 -0.12197818521E+02  0.10466989476E+02 -0.47154549321E+01  0.16750527174E+02  0.00000000000E+00 0. -1.
</event>
<event>
 7    1  0.2733256E-010  0.4778728E+02  0.7816164E-02  0.1312668E+00
        -11   -1    0    0    0    0  0.00000000000E+00  0.00000000000E+00  0.45593999997E+02  0.45594000000E+02  0.51100000000E-03 0.  1.
         11   -1    0    0    0    0 -0.00000000000E+00 -0.00000000000E+00 -0.45593999997E+02  0.45594000000E+02  0.51100000000E-03 0. -1.
    9900012    2    1    2    0    0 -0.91450219624E+01 -0.39233341196E+02  0.16147330569E+02  0.47787276820E+02  0.20000026332E+02 0.  0.
         12    1    1    2    0    0  0.91450219624E+01  0.39233341196E+02 -0.16147330569E+02  0.43400723180E+02  0.00000000000E+00 0. -1.
         11    1    3    3    0    0  0.27300326827E+00 -0.37838942144E+01  0.39679376963E+01  0.54897100135E+01  0.51100000000E-03 0. -1.
        -11    1    3    3    0    0  0.26854886058E+01 -0.22910335905E+02  0.74308287800E+01  0.24234532324E+02  0.51100000000E-03 0.  1.
         12    1    3    3    0    0 -0.12103513836E+02 -0.12539111076E+02  0.47485640926E+01  0.18063034482E+02  0.00000000000E+00 0. -1.
</event>
<event>
 7    1  0.2733256E-010  0.4778727E+02  0.7816164E-02  0.1312668E+00
        -11   -1    0    0    0    0  0.00000000000E+00  0.00000000000E+00  0.45593999997E+02  0.45594000000E+02  0.51100000000E-03 0. -1.
         11   -1    0    0    0    0 -0.00000000000E+00 -0.00000000000E+00 -0.45593999997E+02  0.45594000000E+02  0.51100000000E-03 0.  1.
    9900012    2    1    2    0    0  0.15354116922E+02 -0.37111916969E+02 -0.16449329870E+02  0.47787265666E+02  0.19999975477E+02 0.  0.
         12    1    1    2    0    0 -0.15354116922E+02  0.37111916969E+02  0.16449329870E+02  0.43400734334E+02  0.00000000000E+00 0. -1.
         11    1    3    3    0    0  0.14732347753E+02 -0.22656211163E+02 -0.16935026158E+02  0.31892649401E+02  0.51100000000E-03 0.  1.
        -11    1    3    3    0    0  0.27378883246E+01 -0.24688970247E+01 -0.28795723445E+00  0.36978919166E+01  0.51100000000E-03 0. -1.
        -12    1    3    3    0    0 -0.21161191563E+01 -0.11986808782E+02  0.77365352303E+00  0.12196724348E+02  0.00000000000E+00 0.  1.
</event>
<event>
 7    1  0.2733256E-010  0.4778727E+02  0.7816164E-02  0.1312668E+00
        -11   -1    0    0    0    0  0.00000000000E+00  0.00000000000E+00  0.45593999997E+02  0.45594000000E+02  0.51100000000E-03 0. -1.
         11   -1    0    0    0    0 -0.00000000000E+00 -0.00000000000E+00 -0.45593999997E+02  0.45594000000E+02  0.51100000000E-03 0.  1.
    9900012    2    1    2    0    0 -0.26291780188E+02  0.22049117890E+02 -0.26574461186E+02  0.47787270829E+02  0.19999999018E+02 0.  0.
         12    1    1    2    0    0  0.26291780188E+02 -0.22049117890E+02  0.26574461186E+02  0.43400729171E+02  0.00000000000E+00 0. -1.
         11    1    3    3    0    0 -0.14043953276E+02  0.56160877295E+01 -0.47013659169E+01  0.15839062686E+02  0.51100000000E-03 0. -1.
        -11    1    3    3    0    0 -0.26418622753E+00  0.56946461191E+01 -0.13308331430E+01  0.58540503842E+01  0.51100000000E-03 0.  1.
        -12    1    3    3    0    0 -0.11983640684E+02  0.10738384042E+02 -0.20542262126E+02  0.26094157759E+02  0.00000000000E+00 0.  1.
</event>
<event>
 7    1  0.2733256E-010  0.4778728E+02  0.7816164E-02  0.1312668E+00
        -11   -1    0    0    0    0  0.00000000000E+00  0.00000000000E+00  0.45593999997E+02  0.45594000000E+02  0.51100000000E-03 0.  1.
         11   -1    0    0    0    0 -0.00000000000E+00 -0.00000000000E+00 -0.45593999997E+02  0.45594000000E+02  0.51100000000E-03 0. -1.
    9900012    2    1    2    0    0  0.21058300733E+02 -0.13799725929E+02  0.35351638801E+02  0.47787276143E+02  0.20000023245E+02 0.  0.
         12    1    1    2    0    0 -0.21058300733E+02  0.13799725929E+02 -0.35351638801E+02  0.43400723857E+02  0.00000000000E+00 0. -1.
         11    1    3    3    0    0  0.68924976099E+00 -0.54411201634E+01  0.58850291580E+01  0.80445274764E+01  0.51100000000E-03 0. -1.
        -11    1    3    3    0    0  0.14753418827E+01  0.15912148149E+01  0.11888238931E+02  0.12084652391E+02  0.51100000000E-03 0.  1.
        -12    1    3    3    0    0  0.18893709089E+02 -0.99498205803E+01  0.17578370711E+02  0.27658096276E+02  0.00000000000E+00 0.  1.
</event>
<event>
 7    1  0.2733256E-010  0.4778727E+02  0.7816164E-02  0.1312668E+00
        -11   -1    0    0    0    0  0.00000000000E+00  0.00000000000E+00  0.45593999997E+02  0.45594000000E+02  0.51100000000E-03 0. -1.
         11   -1    0    0    0    0 -0.00000000000E+00 -0.00000000000E+00 -0.45593999997E+02  0.45594000000E+02  0.51100000000E-03 0.  1.
    9900012    2    1    2    0    0 -0.14310466672E+02 -0.21015185730E+02 -0.35173792100E+02  0.47787272605E+02  0.20000007117E+02 0.  0.
         12    1    1    2    0    0  0.14310466672E+02  0.21015185730E+02  0.35173792100E+02  0.43400727395E+02  0.00000000000E+00 0. -1.
         11    1    3    3    0    0 -0.17178989657E+01 -0.92338472257E+00  0.24376725791E+00  0.19655123859E+01  0.51100000000E-03 0.  1.
        -11    1    3    3    0    0  0.74761519117E+00 -0.36314499372E+01 -0.18047109248E+02  0.18424019909E+02  0.51100000000E-03 0. -1.
        -12    1    3    3    0    0 -0.13340182898E+02 -0.16460351071E+02 -0.17370450110E+02  0.27397740311E+02  0.00000000000E+00 0.  1.
</event>
<event>
 7    1  0.2733256E-010  0.4778727E+02  0.7816164E-02  0.1312668E+00
        -11   -1    0    0    0    0  0.00000000000E+00  0.00000000000E+00  0.45593999997E+02  0.45594000000E+02  0.51100000000E-03 0.  1.
         11   -1    0    0    0    0 -0.00000000000E+00 -0.00000000000E+00 -0.45593999997E+02  0.45594000000E+02  0.51100000000E-03 0. -1.
    9900012    2    1    2    0    0  0.14998374805E+02 -0.40718663159E+02 -0.81395990608E+00  0.47787270664E+02  0.19999998263E+02 0.  0.
         12    1    1    2    0    0 -0.14998374805E+02  0.40718663159E+02  0.81395990608E+00  0.43400729336E+02  0.00000000000E+00 0. -1.
         11    1    3    3    0    0  0.14108639174E+01 -0.37460670965E+01 -0.19226572294E+01  0.44407394393E+01  0.51100000000E-03 0. -1.
        -11    1    3    3    0    0  0.17838117109E+02 -0.28827054330E+02  0.27578109741E+01  0.34011806846E+02  0.51100000000E-03 0.  1.
        -12    1    3    3    0    0 -0.42506062223E+01 -0.81455417326E+01 -0.16491136508E+01  0.93347243777E+01  0.00000000000E+00 0.  1.
</event>
<event>
 7    1  0.2733256E-010  0.4778727E+02  0.7816164E-02  0.1312668E+00
        -11   -1    0    0    0    0  0.00000000000E+00  0.00000000000E+00  0.45593999997E+02  0.45594000000E+02  0.51100000000E-03 0. -1.
         11   -1    0    0    0    0 -0.00000000000E+00 -0.00000000000E+00 -0.45593999997E+02  0.45594000000E+02  0.51100000000E-03 0.  1.
    9900012    2    1    2    0    0  0.35717477998E+02 -0.24640776947E+02  0.84690293822E+00  0.47787269964E+02  0.19999995074E+02 0.  0.
         12    1    1    2    0    0 -0.35717477998E+02  0.24640776947E+02 -0.84690293822E+00  0.43400730036E+02  0.00000000000E+00 0. -1.
         11    1    3    3    0    0  0.19688083622E+01  0.33213592377E+00 -0.31330582278E+01  0.37151816589E+01  0.51100000000E-03 0. -1.
        -11    1    3    3    0    0  0.94325936249E+00 -0.27968602542E+00 -0.23305091499E+01  0.25296710570E+01  0.51100000000E-03 0.  1.
        -12    1    3    3    0    0  0.32805410273E+02 -0.24693226845E+02  0.63104703159E+01  0.41542417248E+02  0.00000000000E+00 0.  1.
</event>
<event>
 7    1  0.2733256E-010  0.4778727E+02  0.7816164E-02  0.1312668E+00
        -11   -1    0    0    0    0  0.00000000000E+00  0.00000000000E+00  0.45593999997E+02  0.45594000000E+02  0.51100000000E-03 0.  1.
         11   -1    0    0    0    0 -0.00000000000E+00 -0.00000000000E+00 -0.45593999997E+02  0.45594000000E+02  0.51100000000E-03 0. -1.
    9900012    2    1    2    0    0 -0.18464395149E+02 -0.18661161565E+01  0.39232725354E+02  0.47787274011E+02  0.20000013524E+02 0.  0.
         12    1    1    2    0    0  0.18464395149E+02  0.18661161565E+01 -0.39232725354E+02  0.43400725989E+02  0.00000000000E+00 0. -1.
         11    1    3    3    0    0 -0.26154810809E+01 -0.48834575452E+01  0.68992252283E+01  0.88480623807E+01  0.51100000000E-03 0. -1.
        -11    1    3    3    0    0 -0.98095690724E+00 -0.46718605949E+01  0.52075214432E+01  0.70644771721E+01  0.51100000000E-03 0.  1.
        -12    1    3    3    0    0 -0.14867957161E+02  0.76892019837E+01  0.27125978682E+02  0.31874734458E+02  0.00000000000E+00 0.  1.
</event>
<event>
 7    1  0.2733256E-010  0.4778727E+02  0.7816164E-02  0.1312668E+00
        -11   -1    0    0    0    0  0.00000000000E+00  0.00000000000E+00  0.45593999997E+02  0.45594000000E+02  0.51100000000E-03 0.  1.
         11   -1    0    0    0    0 -0.00000000000E+00 -0.00000000000E+00 -0.45593999997E+02  0.45594000000E+02  0.51100000000E-03 0. -1.
    9900012    2    1    2    0    0  0.23061380153E+02 -0.36765316568E+02  0.32808720451E+00  0.47787269612E+02  0.19999993471E+02 0.  0.
         12    1    1    2    0    0 -0.23061380153E+02  0.36765316568E+02 -0.32808720451E+00  0.43400730388E+02  0.00000000000E+00 0. -1.
         11    1    3    3    0    0  0.46768491893E+01 -0.35707842834E+01 -0.62035207874E+01  0.85502683677E+01  0.51100000000E-03 0. -1.
        -11    1    3    3    0    0  0.13879381654E+01 -0.65136346744E+01 -0.95632682352E+00  0.67281773369E+01  0.51100000000E-03 0.  1.
        -12    1    3    3    0    0  0.16996592799E+02 -0.26680897611E+02  0.74879348155E+01  0.32508823908E+02  0.00000000000E+00 0.  1.
</event>
<event>
 7    1  0.2733256E-010  0.4778728E+02  0.7816164E-02  0.1312668E+00
        -11   -1    0    0    0    0  0.00000000000E+00  0.00000000000E+00  0.45593999997E+02  0.45594000000E+02  0.51100000000E-03 0.  1.
         11   -1    0    0    0    0 -0.00000000000E+00 -0.00000000000E+00 -0.45593999997E+02  0.45594000000E+02  0.51100000000E-03 0. -1.
    9900012    2    1    2    0    0 -0.24712235719E+02  0.21212878480E+01  0.35615001381E+02  0.47787276737E+02  0.20000025954E+02 0.  0.
         12    1    1    2    0    0  0.24712235719E+02 -0.21212878480E+01 -0.35615001381E+02  0.43400723263E+02  0.00000000000E+00 0. -1.
         11    1    3    3    0    0 -0.15260600161E+02 -0.39956762823E+01  0.14772936474E+02  0.21612288138E+02  0.51100000000E-03 0. -1.
        -11    1    3    3    0    0 -0.88213062447E+01  0.20807488131E+01  0.20064422519E+02  0.22016494062E+02  0.51100000000E-03 0.  1.
        -12    1    3    3    0    0 -0.63032931356E+00  0.40362153172E+01  0.77764238774E+00  0.41584945369E+01  0.00000000000E+00 0.  1.
</event>
<event>
 7    1  0.2733256E-010  0.4778726E+02  0.7816164E-02  0.1312668E+00
        -11   -1    0    0    0    0  0.00000000000E+00  0.00000000000E+00  0.45593999997E+02  0.45594000000E+02  0.51100000000E-03 0. -1.
         11   -1    0    0    0    0 -0.00000000000E+00 -0.00000000000E+00 -0.45593999997E+02  0.45594000000E+02  0.51100000000E-03 0.  1.
    9900012    2    1    2    0    0  0.24751287758E+02 -0.35270906989E+02 -0.51923725662E+01  0.47787264311E+02  0.19999969299E+02 0.  0.
         12    1    1    2    0    0 -0.24751287758E+02  0.35270906989E+02  0.51923725662E+01  0.43400735689E+02  0.00000000000E+00 0. -1.
         11    1    3    3    0    0  0.13637619060E+02 -0.12876030267E+02 -0.49267103438E+01  0.19391990205E+02  0.51100000000E-03 0. -1.
        -11    1    3    3    0    0  0.91567835035E+01 -0.65389497311E+01 -0.40822163967E+01  0.11969504530E+02  0.51100000000E-03 0.  1.
         12    1    3    3    0    0  0.19568851954E+01 -0.15855926990E+02  0.38165541743E+01  0.16425769576E+02  0.00000000000E+00 0. -1.
</event>
<event>
 7    1  0.2733256E-010  0.4778727E+02  0.7816164E-02  0.1312668E+00
        -11   -1    0    0    0    0  0.00000000000E+00  0.00000000000E+00  0.45593999997E+02  0.45594000000E+02  0.51100000000E-03 0.  1.
         11   -1    0    0    0    0 -0.00000000000E+00 -0.00000000000E+00 -0.45593999997E+02  0.45594000000E+02  0.51100000000E-03 0. -1.
    9900012    2    1    2    0    0  0.17588126580E+02 -0.31672853091E+02  0.23897941495E+02  0.47787269278E+02  0.19999991947E+02 0.  0.
         12    1    1    2    0    0 -0.17588126580E+02  0.31672853091E+02 -0.23897941495E+02  0.43400730722E+02  0.00000000000E+00 0. -1.
         11    1    3    3    0    0  0.83521341472E+01 -0.62355765321E+01  0.19414364029E+01  0.10602345734E+02  0.51100000000E-03 0. -1.
        -11    1    3    3    0    0  0.95859034686E+01 -0.12583121599E+02  0.65596598320E+01  0.17124649831E+02  0.51100000000E-03 0.  1.
        -12    1    3    3    0    0 -0.34991103579E+00 -0.12854154960E+02  0.15396845260E+02  0.20060273713E+02  0.00000000000E+00 0.  1.
</event>
<event>
 7    1  0.2733256E-010  0.4778726E+02  0.7816164E-02  0.1312668E+00
        -11   -1    0    0    0    0  0.00000000000E+00  0.00000000000E+00  0.45593999997E+02  0.45594000000E+02  0.51100000000E-03 0.  1.
         11   -1    0    0    0    0 -0.00000000000E+00 -0.00000000000E+00 -0.45593999997E+02  0.45594000000E+02  0.51100000000E-03 0. -1.
    9900012    2    1    2    0    0 -0.15872006702E+02  0.12834947652E+02  0.38301019166E+02  0.47787256376E+02  0.19999933121E+02 0.  0.
         12    1    1    2    0    0  0.15872006702E+02 -0.12834947652E+02 -0.38301019166E+02  0.43400743624E+02  0.00000000000E+00 0. -1.
         11    1    3    3    0    0 -0.23924872295E+01  0.78241188876E+01  0.12022416752E+02  0.14542329124E+02  0.51100000000E-03 0.  1.
        -11    1    3    3    0    0  0.25998566840E+01  0.12637558329E+01  0.85204967340E+01  0.89975106801E+01  0.51100000000E-03 0. -1.
        -12    1    3    3    0    0 -0.16079376156E+02  0.37470729317E+01  0.17758105679E+02  0.24247416572E+02  0.00000000000E+00 0.  1.
</event>
<event>
 7    1  0.2733256E-010  0.4778727E+02  0.7816164E-02  0.1312668E+00
        -11   -1    0    0    0    0  0.00000000000E+00  0.00000000000E+00  0.45593999997E+02  0.45594000000E+02  0.51100000000E-03 0.  1.
         11   -1    0    0    0    0 -0.00000000000E+00 -0.00000000000E+00 -0.45593999997E+02  0.45594000000E+02  0.51100000000E-03 0. -1.
    9900012    2    1    2    0    0 -0.18103148480E+02 -0.16372615014E+02  0.35886445479E+02  0.47787268712E+02  0.19999989365E+02 0.  0.
         12    1    1    2    0    0  0.18103148480E+02  0.16372615014E+02 -0.35886445479E+02  0.43400731288E+02  0.00000000000E+00 0. -1.
         11    1    3    3    0    0 -0.90169606794E+01 -0.12072426030E+02  0.18697045864E+02  0.24013091731E+02  0.51100000000E-03 0. -1.
        -11    1    3    3    0    0 -0.95591776998E+00 -0.24023196754E+01  0.14892313391E+02  0.15115089050E+02  0.51100000000E-03 0.  1.
         12    1    3    3    0    0 -0.81302700303E+01 -0.18978693081E+01  0.22970862233E+01  0.86590879308E+01  0.00000000000E+00 0. -1.
</event>
<event>
 7    1  0.2733256E-010  0.4778727E+02  0.7816164E-02  0.1312668E+00
        -11   -1    0    0    0    0  0.00000000000E+00  0.00000000000E+00  0.45593999997E+02  0.45594000000E+02  0.51100000000E-03 0.  1.
         11   -1    0    0    0    0 -0.00000000000E+00 -0.00000000000E+00 -0.45593999997E+02  0.45594000000E+02  0.51100000000E-03 0. -1.
    9900012    2    1    2    0    0  0.23333843591E+02 -0.78730392255E+01  0.35737524873E+02  0.47787266280E+02  0.19999978277E+02 0.  0.
         12    1    1    2    0    0 -0.23333843591E+02  0.78730392255E+01 -0.35737524873E+02  0.43400733720E+02  0.00000000000E+00 0. -1.
         11    1    3    3    0    0 -0.29980417388E+00 -0.39897601064E+01  0.53613558300E+01  0.66897088760E+01  0.51100000000E-03 0. -1.
        -11    1    3    3    0    0  0.38767169743E+01 -0.54851658671E+01  0.13443435637E+02  0.15028038497E+02  0.51100000000E-03 0.  1.
         12    1    3    3    0    0  0.19756930791E+02  0.16018867480E+01  0.16932733406E+02  0.26069518907E+02  0.00000000000E+00 0. -1.
</event>
<event>
 7    1  0.2733256E-010  0.4778727E+02  0.7816164E-02  0.1312668E+00
        -11   -1    0    0    0    0  0.00000000000E+00  0.00000000000E+00  0.45593999997E+02  0.45594000000E+02  0.51100000000E-03 0. -1.
         11   -1    0    0    0    0 -0.00000000000E+00 -0.00000000000E+00 -0.45593999997E+02  0.45594000000E+02  0.51100000000E-03 0.  1.
    9900012    2    1    2    0    0  0.30138890496E+02  0.28975547754E+02  0.11648535035E+02  0.47787268941E+02  0.19999990411E+02 0.  0.
         12    1    1    2    0    0 -0.30138890496E+02 -0.28975547754E+02 -0.11648535035E+02  0.43400731059E+02  0.00000000000E+00 0. -1.
         11    1    3    3    0    0  0.20986279869E+01  0.50472124082E+01  0.75470891943E+01  0.93186451853E+01  0.51100000000E-03 0. -1.
        -11    1    3    3    0    0  0.32582585470E+01  0.33177828579E+01  0.41548890436E+01  0.62359470072E+01  0.51100000000E-03 0.  1.
        -12    1    3    3    0    0  0.24782003962E+02  0.20610552488E+02 -0.53443202486E-01  0.32232676749E+02  0.00000000000E+00 0.  1.
</event>
<event>
 7    1  0.2733256E-010  0.4778727E+02  0.7816164E-02  0.1312668E+00
        -11   -1    0    0    0    0  0.00000000000E+00  0.00000000000E+00  0.45593999997E+02  0.45594000000E+02  0.51100000000E-03 0.  1.
         11   -1    0    0    0    0 -0.00000000000E+00 -0.00000000000E+00 -0.45593999997E+02  0.45594000000E+02  0.51100000000E-03 0. -1.
    9900012    2    1    2    0    0  0.20318169819E+02  0.25138700105E+01  0.38268467959E+02  0.47787271813E+02  0.20000003506E+02 0.  0.
         12    1    1    2    0    0 -0.20318169819E+02 -0.25138700105E+01 -0.38268467959E+02  0.43400728187E+02  0.00000000000E+00 0. -1.
         11    1    3    3    0    0  0.12350426270E+02 -0.23707624706E+01  0.18170718148E+02  0.22098156983E+02  0.51100000000E-03 0. -1.
        -11    1    3    3    0    0  0.10807607775E+02  0.16293721243E+01  0.10464437602E+02  0.15131546316E+02  0.51100000000E-03 0.  1.
         12    1    3    3    0    0 -0.28398642270E+01  0.32552603569E+01  0.96333122088E+01  0.10557568514E+02  0.00000000000E+00 0. -1.
</event>
<event>
 7    1  0.2733256E-010  0.4778726E+02  0.7816164E-02  0.1312668E+00
        -11   -1    0    0    0    0  0.00000000000E+00  0.00000000000E+00  0.45593999997E+02  0.45594000000E+02  0.51100000000E-03 0. -1.
         11   -1    0    0    0    0 -0.00000000000E+00 -0.00000000000E+00 -0.45593999997E+02  0.45594000000E+02  0.51100000000E-03 0.  1.
    9900012    2    1    2    0    0  0.23003211240E+01  0.35910865084E+02 -0.24264010521E+02  0.47787263659E+02  0.19999966328E+02 0.  0.
         12    1    1    2    0    0 -0.23003211240E+01 -0.35910865084E+02  0.24264010521E+02  0.43400736341E+02  0.00000000000E+00 0. -1.
         11    1    3    3    0    0 -0.35665401210E+01  0.65641904249E+01 -0.24040662999E+00  0.74743962952E+01  0.51100000000E-03 0. -1.
        -11    1    3    3    0    0 -0.42506373505E+00  0.24028635618E+02 -0.19249428723E+02  0.30791175932E+02  0.51100000000E-03 0.  1.
         12    1    3    3    0    0  0.62919249800E+01  0.53180390416E+01 -0.47741751675E+01  0.95216914323E+01  0.00000000000E+00 0. -1.
</event>
<event>
 7    1  0.2733256E-010  0.4778727E+02  0.7816164E-02  0.1312668E+00
        -11   -1    0    0    0    0  0.00000000000E+00  0.00000000000E+00  0.45593999997E+02  0.45594000000E+02  0.51100000000E-03 0.  1.
         11   -1    0    0    0    0 -0.00000000000E+00 -0.00000000000E+00 -0.45593999997E+02  0.45594000000E+02  0.51100000000E-03 0. -1.
    9900012    2    1    2    0    0 -0.13352562504E+02  0.41254866294E+02 -0.18352918255E+01  0.47787271729E+02  0.20000003120E+02 0.  0.
         12    1    1    2    0    0  0.13352562504E+02 -0.41254866294E+02  0.18352918255E+01  0.43400728271E+02  0.00000000000E+00 0. -1.
         11    1    3    3    0    0 -0.17707937081E+01  0.13494735260E+01 -0.32575651100E+01  0.39456963721E+01  0.51100000000E-03 0. -1.
        -11    1    3    3    0    0 -0.54650242093E+01  0.27565619016E+01 -0.51664554022E+00  0.61426416142E+01  0.51100000000E-03 0.  1.
        -12    1    3    3    0    0 -0.61167445864E+01  0.37148830867E+02  0.19389188247E+01  0.37698933742E+02  0.00000000000E+00 0.  1.
</event>
<event>
 7    1  0.2733256E-010  0.4778727E+02  0.7816164E-02  0.1312668E+00
        -11   -1    0    0    0    0  0.00000000000E+00  0.00000000000E+00  0.45593999997E+02  0.45594000000E+02  0.51100000000E-03 0. -1.
         11   -1    0    0    0    0 -0.00000000000E+00 -0.00000000000E+00 -0.45593999997E+02  0.45594000000E+02  0.51100000000E-03 0.  1.
    9900012    2    1    2    0    0  0.32810719939E+02 -0.22829299400E+02 -0.16908664303E+02  0.47787272097E+02  0.20000004800E+02 0.  0.
         12    1    1    2    0    0 -0.32810719939E+02  0.22829299400E+02  0.16908664303E+02  0.43400727903E+02  0.00000000000E+00 0. -1.
         11    1    3    3    0    0  0.19861455717E+02 -0.15213439750E+02 -0.80303060548E+01  0.26275691958E+02  0.51100000000E-03 0. -1.
        -11    1    3    3    0    0  0.15160443622E+02 -0.58535938654E+01 -0.91853058487E+01  0.18667443739E+02  0.51100000000E-03 0.  1.
         12    1    3    3    0    0 -0.22111794007E+01 -0.17622657839E+01  0.30694760044E+00  0.28441364005E+01  0.00000000000E+00 0. -1.
</event>
<event>
 7    1  0.2733256E-010  0.4778727E+02  0.7816164E-02  0.1312668E+00
        -11   -1    0    0    0    0  0.00000000000E+00  0.00000000000E+00  0.45593999997E+02  0.45594000000E+02  0.51100000000E-03 0.  1.
         11   -1    0    0    0    0 -0.00000000000E+00 -0.00000000000E+00 -0.45593999997E+02  0.45594000000E+02  0.51100000000E-03 0. -1.
    9900012    2    1    2    0    0  0.41816042106E+02 -0.61093038261E+01  0.98852539986E+01  0.47787271696E+02  0.20000002972E+02 0.  0.
         12    1    1    2    0    0 -0.41816042106E+02  0.61093038261E+01 -0.98852539986E+01  0.43400728304E+02  0.00000000000E+00 0. -1.
         11    1    3    3    0    0  0.27384009672E+02 -0.26723540222E+01 -0.17205455818E+01  0.27567838855E+02  0.51100000000E-03 0. -1.
        -11    1    3    3    0    0  0.20723192575E+01 -0.28552862500E+01  0.44470018966E+00  0.35559703590E+01  0.51100000000E-03 0.  1.
        -12    1    3    3    0    0  0.12359713176E+02 -0.58166355379E+00  0.11161099391E+02  0.16663462482E+02  0.00000000000E+00 0.  1.
</event>
<event>
 7    1  0.2733256E-010  0.4778726E+02  0.7816164E-02  0.1312668E+00
        -11   -1    0    0    0    0  0.00000000000E+00  0.00000000000E+00  0.45593999997E+02  0.45594000000E+02  0.51100000000E-03 0.  1.
         11   -1    0    0    0    0 -0.00000000000E+00 -0.00000000000E+00 -0.45593999997E+02  0.45594000000E+02  0.51100000000E-03 0. -1.
    9900012    2    1    2    0    0  0.33748067312E+02  0.26985676550E+02  0.40577355001E+01  0.47787262638E+02  0.19999961673E+02 0.  0.
         12    1    1    2    0    0 -0.33748067312E+02 -0.26985676550E+02 -0.40577355001E+01  0.43400737362E+02  0.00000000000E+00 0. -1.
         11    1    3    3    0    0  0.55927451893E+01  0.48117226073E+01 -0.50843072659E-01  0.73779440552E+01  0.51100000000E-03 0. -1.
        -11    1    3    3    0    0  0.28459424556E+02  0.13472375887E+02  0.35014514669E+01  0.31681286601E+02  0.51100000000E-03 0.  1.
         12    1    3    3    0    0 -0.30410243290E+00  0.87015780557E+01  0.60712710578E+00  0.87280319816E+01  0.00000000000E+00 0. -1.
</event>
<event>
 7    1  0.2733256E-010  0.4778728E+02  0.7816164E-02  0.1312668E+00
        -11   -1    0    0    0    0  0.00000000000E+00  0.00000000000E+00  0.45593999997E+02  0.45594000000E+02  0.51100000000E-03 0.  1.
         11   -1    0    0    0    0 -0.00000000000E+00 -0.00000000000E+00 -0.45593999997E+02  0.45594000000E+02  0.51100000000E-03 0. -1.
    9900012    2    1    2    0    0 -0.71691288019E+01  0.35196786464E+02  0.24360051767E+02  0.47787282181E+02  0.20000050774E+02 0.  0.
         12    1    1    2    0    0  0.71691288019E+01 -0.35196786464E+02 -0.24360051767E+02  0.43400717819E+02  0.00000000000E+00 0. -1.
         11    1    3    3    0    0  0.37952208260E+01  0.19216419933E+01  0.71452190122E+00  0.43135775033E+01  0.51100000000E-03 0. -1.
        -11    1    3    3    0    0 -0.27856218993E+00  0.14681164223E+02  0.12609365265E+02  0.19354851394E+02  0.51100000000E-03 0.  1.
        -12    1    3    3    0    0 -0.10685787438E+02  0.18593980247E+02  0.11036164601E+02  0.24118853283E+02  0.00000000000E+00 0.  1.
</event>
<event>
 7    1  0.2733256E-010  0.4778728E+02  0.7816164E-02  0.1312668E+00
        -11   -1    0    0    0    0  0.00000000000E+00  0.00000000000E+00  0.45593999997E+02  0.45594000000E+02  0.51100000000E-03 0. -1.
         11   -1    0    0    0    0 -0.00000000000E+00 -0.00000000000E+00 -0.45593999997E+02  0.45594000000E+02  0.51100000000E-03 0.  1.
    9900012    2    1    2    0    0 -0.40486609775E+02 -0.17088999654E+00 -0.15634183820E+02  0.47787280211E+02  0.20000041794E+02 0.  0.
         12    1    1    2    0    0  0.40486609775E+02  0.17088999654E+00  0.15634183820E+02  0.43400719789E+02  0.00000000000E+00 0. -1.
         11    1    3    3    0    0 -0.19376803537E+02 -0.31596192280E+01 -0.52675198248E+01  0.20327087208E+02  0.51100000000E-03 0. -1.
        -11    1    3    3    0    0 -0.16350308397E+02 -0.13315070234E+01 -0.12568443860E+02  0.20665702914E+02  0.51100000000E-03 0.  1.
        -12    1    3    3    0    0 -0.47594978406E+01  0.43202362549E+01  0.22017798646E+01  0.67944900886E+01  0.00000000000E+00 0.  1.
</event>
<event>
 7    1  0.2733256E-010  0.4778727E+02  0.7816164E-02  0.1312668E+00
        -11   -1    0    0    0    0  0.00000000000E+00  0.00000000000E+00  0.45593999997E+02  0.45594000000E+02  0.51100000000E-03 0.  1.
         11   -1    0    0    0    0 -0.00000000000E+00 -0.00000000000E+00 -0.45593999997E+02  0.45594000000E+02  0.51100000000E-03 0. -1.
    9900012    2    1    2    0    0  0.18628894441E+02  0.30368865482E+02  0.24785470911E+02  0.47787271123E+02  0.20000000357E+02 0.  0.
         12    1    1    2    0    0 -0.18628894441E+02 -0.30368865482E+02 -0.24785470911E+02  0.43400728877E+02  0.00000000000E+00 0. -1.
         11    1    3    3    0    0  0.73895541055E+01  0.66698521115E+01  0.12887607532E+02  0.16284436288E+02  0.51100000000E-03 0. -1.
        -11    1    3    3    0    0  0.61356148838E+01  0.17748204236E+02  0.13956745121E+02  0.23397334426E+02  0.51100000000E-03 0.  1.
         12    1    3    3    0    0  0.51037254521E+01  0.59508091344E+01 -0.20588817416E+01  0.81055004084E+01  0.00000000000E+00 0. -1.
</event>
<event>
 7    1  0.2733256E-010  0.4778725E+02  0.7816164E-02  0.1312668E+00
        -11   -1    0    0    0    0  0.00000000000E+00  0.00000000000E+00  0.45593999997E+02  0.45594000000E+02  0.51100000000E-03 0.  1.
         11   -1    0    0    0    0 -0.00000000000E+00 -0.00000000000E+00 -0.45593999997E+02  0.45594000000E+02  0.51100000000E-03 0. -1.
    9900012    2    1    2    0    0 -0.19261933705E+02  0.38233431404E+02  0.71279410926E+01  0.47787252181E+02  0.19999913996E+02 0.  0.
         12    1    1    2    0    0  0.19261933705E+02 -0.38233431404E+02 -0.71279410926E+01  0.43400747819E+02  0.00000000000E+00 0. -1.
         11    1    3    3    0    0 -0.68166452026E+01  0.77314171308E+01 -0.11855829405E+01  0.10375310590E+02  0.51100000000E-03 0. -1.
        -11    1    3    3    0    0 -0.12919193871E+02  0.30131466507E+02  0.11060558241E+02  0.34599809147E+02  0.51100000000E-03 0.  1.
         12    1    3    3    0    0  0.47390536878E+00  0.37054776654E+00 -0.27470342079E+01  0.28121324445E+01  0.00000000000E+00 0. -1.
</event>
<event>
 7    1  0.2733256E-010  0.4778727E+02  0.7816164E-02  0.1312668E+00
        -11   -1    0    0    0    0  0.00000000000E+00  0.00000000000E+00  0.45593999997E+02  0.45594000000E+02  0.51100000000E-03 0.  1.
         11   -1    0    0    0    0 -0.00000000000E+00 -0.00000000000E+00 -0.45593999997E+02  0.45594000000E+02  0.51100000000E-03 0. -1.
    9900012    2    1    2    0    0 -0.18959723131E+02  0.24045359934E+01  0.38966274218E+02  0.47787269349E+02  0.19999992272E+02 0.  0.
         12    1    1    2    0    0  0.18959723131E+02 -0.24045359934E+01 -0.38966274218E+02  0.43400730651E+02  0.00000000000E+00 0. -1.
         11    1    3    3    0    0 -0.86464527628E+01 -0.11944438041E+01  0.84865897541E+01  0.12174154890E+02  0.51100000000E-03 0. -1.
        -11    1    3    3    0    0 -0.10230571708E+02 -0.22660963220E+01  0.26576100725E+02  0.28567270083E+02  0.51100000000E-03 0.  1.
         12    1    3    3    0    0 -0.82698660371E-01  0.58650761195E+01  0.39035837394E+01  0.70458443757E+01  0.00000000000E+00 0. -1.
</event>
<event>
 7    1  0.2733256E-010  0.4778727E+02  0.7816164E-02  0.1312668E+00
        -11   -1    0    0    0    0  0.00000000000E+00  0.00000000000E+00  0.45593999997E+02  0.45594000000E+02  0.51100000000E-03 0.  1.
         11   -1    0    0    0    0 -0.00000000000E+00 -0.00000000000E+00 -0.45593999997E+02  0.45594000000E+02  0.51100000000E-03 0. -1.
    9900012    2    1    2    0    0 -0.23776385298E+01  0.39208763242E+02 -0.18456521027E+02  0.47787269034E+02  0.19999990834E+02 0.  0.
         12    1    1    2    0    0  0.23776385298E+01 -0.39208763242E+02  0.18456521027E+02  0.43400730966E+02  0.00000000000E+00 0. -1.
         11    1    3    3    0    0  0.22638103229E+01  0.13146754491E+02 -0.64070327021E+01  0.14799056022E+02  0.51100000000E-03 0. -1.
        -11    1    3    3    0    0 -0.80046885424E+01  0.24197024491E+02 -0.13544452302E+02  0.28862141662E+02  0.51100000000E-03 0.  1.
        -12    1    3    3    0    0  0.33632396897E+01  0.18649842598E+01  0.14949639768E+01  0.41260713508E+01  0.00000000000E+00 0.  1.
</event>
<event>
 7    1  0.2733256E-010  0.4778727E+02  0.7816164E-02  0.1312668E+00
        -11   -1    0    0    0    0  0.00000000000E+00  0.00000000000E+00  0.45593999997E+02  0.45594000000E+02  0.51100000000E-03 0.  1.
         11   -1    0    0    0    0 -0.00000000000E+00 -0.00000000000E+00 -0.45593999997E+02  0.45594000000E+02  0.51100000000E-03 0. -1.
    9900012    2    1    2    0    0 -0.14344250626E+02 -0.16453515520E+02  0.37511964632E+02  0.47787272016E+02  0.20000004429E+02 0.  0.
         12    1    1    2    0    0  0.14344250626E+02  0.16453515520E+02 -0.37511964632E+02  0.43400727984E+02  0.00000000000E+00 0. -1.
         11    1    3    3    0    0 -0.96219449254E+00 -0.14169430922E+01  0.14327635640E+02  0.14429646193E+02  0.51100000000E-03 0. -1.
        -11    1    3    3    0    0 -0.27171966546E+01 -0.82036763193E+01  0.17411278772E+02  0.19438006368E+02  0.51100000000E-03 0.  1.
         12    1    3    3    0    0 -0.10664859478E+02 -0.68328961088E+01  0.57730502203E+01  0.13919619455E+02  0.00000000000E+00 0. -1.
</event>
<event>
 7    1  0.2733256E-010  0.4778729E+02  0.7816164E-02  0.1312668E+00
        -11   -1    0    0    0    0  0.00000000000E+00  0.00000000000E+00  0.45593999997E+02  0.45594000000E+02  0.51100000000E-03 0.  1.
         11   -1    0    0    0    0 -0.00000000000E+00 -0.00000000000E+00 -0.45593999997E+02  0.45594000000E+02  0.51100000000E-03 0. -1.
    9900012    2    1    2    0    0 -0.36632026586E+02  0.22792235722E+02  0.47148995478E+01  0.47787289652E+02  0.20000084838E+02 0.  0.
         12    1    1    2    0    0  0.36632026586E+02 -0.22792235722E+02 -0.47148995478E+01  0.43400710348E+02  0.00000000000E+00 0. -1.
         11    1    3    3    0    0 -0.17563292308E+01  0.49652933732E+01  0.24145489772E+01  0.57938655209E+01  0.51100000000E-03 0. -1.
        -11    1    3    3    0    0 -0.23800436118E+02  0.19447221623E+02  0.18664229013E+01  0.30791861311E+02  0.51100000000E-03 0.  1.
         12    1    3    3    0    0 -0.11075261237E+02 -0.16202792745E+01  0.43392766922E+00  0.11201562820E+02  0.00000000000E+00 0. -1.
</event>
<event>
 7    1  0.2733256E-010  0.4778729E+02  0.7816164E-02  0.1312668E+00
        -11   -1    0    0    0    0  0.00000000000E+00  0.00000000000E+00  0.45593999997E+02  0.45594000000E+02  0.51100000000E-03 0. -1.
         11   -1    0    0    0    0 -0.00000000000E+00 -0.00000000000E+00 -0.45593999997E+02  0.45594000000E+02  0.51100000000E-03 0.  1.
    9900012    2    1    2    0    0 -0.12205390426E+01  0.31592708272E+02 -0.29732694515E+02  0.47787285091E+02  0.20000064044E+02 0.  0.
         12    1    1    2    0    0  0.12205390426E+01 -0.31592708272E+02  0.29732694515E+02  0.43400714909E+02  0.00000000000E+00 0. -1.
         11    1    3    3    0    0 -0.50472155588E+00  0.77670341330E+01 -0.40708280905E+01  0.87836896960E+01  0.51100000000E-03 0. -1.
        -11    1    3    3    0    0  0.73248140825E+01  0.14236779278E+02 -0.96949755416E+01  0.18717140181E+02  0.51100000000E-03 0.  1.
         12    1    3    3    0    0 -0.80406315692E+01  0.95888948610E+01 -0.15966890883E+02  0.20286455214E+02  0.00000000000E+00 0. -1.
</event>
<event>
 7    1  0.2733256E-010  0.4778727E+02  0.7816164E-02  0.1312668E+00
        -11   -1    0    0    0    0  0.00000000000E+00  0.00000000000E+00  0.45593999997E+02  0.45594000000E+02  0.51100000000E-03 0.  1.
         11   -1    0    0    0    0 -0.00000000000E+00 -0.00000000000E+00 -0.45593999997E+02  0.45594000000E+02  0.51100000000E-03 0. -1.
    9900012    2    1    2    0    0  0.39377422410E+02  0.84942305575E+01  0.16152087418E+02  0.47787271015E+02  0.19999999868E+02 0.  0.
         12    1    1    2    0    0 -0.39377422410E+02 -0.84942305575E+01 -0.16152087418E+02  0.43400728985E+02  0.00000000000E+00 0. -1.
         11    1    3    3    0    0  0.18521900815E+02 -0.60821604691E+00  0.13637765588E+02  0.23009115304E+02  0.51100000000E-03 0. -1.
        -11    1    3    3    0    0  0.15940627586E+02  0.53832332918E+01  0.57960603619E+01  0.17795424257E+02  0.51100000000E-03 0.  1.
         12    1    3    3    0    0  0.49148940084E+01  0.37192133126E+01 -0.32817385312E+01  0.69827314545E+01  0.00000000000E+00 0. -1.
</event>
<event>
 7    1  0.2733256E-010  0.4778728E+02  0.7816164E-02  0.1312668E+00
        -11   -1    0    0    0    0  0.00000000000E+00  0.00000000000E+00  0.45593999997E+02  0.45594000000E+02  0.51100000000E-03 0. -1.
         11   -1    0    0    0    0 -0.00000000000E+00 -0.00000000000E+00 -0.45593999997E+02  0.45594000000E+02  0.51100000000E-03 0.  1.
    9900012    2    1    2    0    0  0.28043348739E+02 -0.23419864277E+02  0.23424407356E+02  0.47787282134E+02  0.20000050561E+02 0.  0.
         12    1    1    2    0    0 -0.28043348739E+02  0.23419864277E+02 -0.23424407356E+02  0.43400717866E+02  0.00000000000E+00 0. -1.
         11    1    3    3    0    0  0.11790717682E+02 -0.62177663819E+01  0.48471151543E+01  0.14183658478E+02  0.51100000000E-03 0. -1.
        -11    1    3    3    0    0  0.14802275192E+02 -0.17371841573E+02  0.20842920753E+02  0.30908179763E+02  0.51100000000E-03 0.  1.
         12    1    3    3    0    0  0.14503558654E+01  0.16974367768E+00 -0.22656285505E+01  0.26954438932E+01  0.00000000000E+00 0. -1.
</event>
<event>
 7    1  0.2733256E-010  0.4778727E+02  0.7816164E-02  0.1312668E+00
        -11   -1    0    0    0    0  0.00000000000E+00  0.00000000000E+00  0.45593999997E+02  0.45594000000E+02  0.51100000000E-03 0.  1.
         11   -1    0    0    0    0 -0.00000000000E+00 -0.00000000000E+00 -0.45593999997E+02  0.45594000000E+02  0.51100000000E-03 0. -1.
    9900012    2    1    2    0    0 -0.16697466804E+02  0.31635066795E+02  0.24577232381E+02  0.47787271892E+02  0.20000003865E+02 0.  0.
         12    1    1    2    0    0  0.16697466804E+02 -0.31635066795E+02 -0.24577232381E+02  0.43400728108E+02  0.00000000000E+00 0. -1.
         11    1    3    3    0    0  0.23839207554E+00  0.77585186302E+00  0.10235749556E-02  0.81165152859E+00  0.51100000000E-03 0.  1.
        -11    1    3    3    0    0 -0.27475569635E+01 -0.15323774504E+01 -0.10358406684E+01  0.33121316504E+01  0.51100000000E-03 0. -1.
        -12    1    3    3    0    0 -0.14188301916E+02  0.32391592382E+02  0.25612049475E+02  0.43663488713E+02  0.00000000000E+00 0.  1.
</event>
<event>
 7    1  0.2733256E-010  0.4778727E+02  0.7816164E-02  0.1312668E+00
        -11   -1    0    0    0    0  0.00000000000E+00  0.00000000000E+00  0.45593999997E+02  0.45594000000E+02  0.51100000000E-03 0. -1.
         11   -1    0    0    0    0 -0.00000000000E+00 -0.00000000000E+00 -0.45593999997E+02  0.45594000000E+02  0.51100000000E-03 0.  1.
    9900012    2    1    2    0    0 -0.31928336571E+02 -0.14984728922E+02 -0.25291547257E+02  0.47787272590E+02  0.20000007047E+02 0.  0.
         12    1    1    2    0    0  0.31928336571E+02  0.14984728922E+02  0.25291547257E+02  0.43400727410E+02  0.00000000000E+00 0. -1.
         11    1    3    3    0    0 -0.53977239596E+01 -0.13554907100E+01  0.10116148329E+01  0.56565133997E+01  0.51100000000E-03 0. -1.
        -11    1    3    3    0    0 -0.39087256809E+01 -0.47162156534E+01  0.24562175670E+00  0.61303472044E+01  0.51100000000E-03 0.  1.
        -12    1    3    3    0    0 -0.22621886931E+02 -0.89130225585E+01 -0.26548783846E+02  0.36000411986E+02  0.00000000000E+00 0.  1.
</event>
<event>
 7    1  0.2733256E-010  0.4778728E+02  0.7816164E-02  0.1312668E+00
        -11   -1    0    0    0    0  0.00000000000E+00  0.00000000000E+00  0.45593999997E+02  0.45594000000E+02  0.51100000000E-03 0.  1.
         11   -1    0    0    0    0 -0.00000000000E+00 -0.00000000000E+00 -0.45593999997E+02  0.45594000000E+02  0.51100000000E-03 0. -1.
    9900012    2    1    2    0    0 -0.37883431879E+02  0.66009548163E+01  0.20122012004E+02  0.47787281313E+02  0.20000046820E+02 0.  0.
         12    1    1    2    0    0  0.37883431879E+02 -0.66009548163E+01 -0.20122012004E+02  0.43400718687E+02  0.00000000000E+00 0. -1.
         11    1    3    3    0    0 -0.10870381752E+02  0.95747934466E+00 -0.33845548334E+00  0.10917715810E+02  0.51100000000E-03 0. -1.
        -11    1    3    3    0    0 -0.11362904283E+02 -0.42693585562E+01  0.77024629547E+01  0.14376054815E+02  0.51100000000E-03 0.  1.
        -12    1    3    3    0    0 -0.15650145844E+02  0.99128340278E+01  0.12758004533E+02  0.22493510688E+02  0.00000000000E+00 0.  1.
</event>
<event>
 7    1  0.2733256E-010  0.4778727E+02  0.7816164E-02  0.1312668E+00
        -11   -1    0    0    0    0  0.00000000000E+00  0.00000000000E+00  0.45593999997E+02  0.45594000000E+02  0.51100000000E-03 0. -1.
         11   -1    0    0    0    0 -0.00000000000E+00 -0.00000000000E+00 -0.45593999997E+02  0.45594000000E+02  0.51100000000E-03 0.  1.
    9900012    2    1    2    0    0 -0.85371301798E+01 -0.41720918589E+02 -0.83729129084E+01  0.47787270626E+02  0.19999998094E+02 0.  0.
         12    1    1    2    0    0  0.85371301798E+01  0.41720918589E+02  0.83729129084E+01  0.43400729374E+02  0.00000000000E+00 0. -1.
         11    1    3    3    0    0 -0.75255551632E+01 -0.13464907775E+02  0.11069566272E+01  0.15464898162E+02  0.51100000000E-03 0.  1.
        -11    1    3    3    0    0 -0.55013631771E+01 -0.88279767168E+01 -0.39259136790E+00  0.10409240989E+02  0.51100000000E-03 0. -1.
         12    1    3    3    0    0  0.44897881605E+01 -0.19428034097E+02 -0.90872781677E+01  0.21913131476E+02  0.00000000000E+00 0. -1.
</event>
<event>
 7    1  0.2733256E-010  0.4778728E+02  0.7816164E-02  0.1312668E+00
        -11   -1    0    0    0    0  0.00000000000E+00  0.00000000000E+00  0.45593999997E+02  0.45594000000E+02  0.51100000000E-03 0.  1.
         11   -1    0    0    0    0 -0.00000000000E+00 -0.00000000000E+00 -0.45593999997E+02  0.45594000000E+02  0.51100000000E-03 0. -1.
    9900012    2    1    2    0    0 -0.39821982387E+02 -0.13290279146E+02 -0.11009131841E+02  0.47787276677E+02  0.20000025683E+02 0.  0.
         12    1    1    2    0    0  0.39821982387E+02  0.13290279146E+02  0.11009131841E+02  0.43400723323E+02  0.00000000000E+00 0. -1.
         11    1    3    3    0    0 -0.18720978451E+02 -0.14573107425E+02 -0.88808820583E+01  0.25332204022E+02  0.51100000000E-03 0. -1.
        -11    1    3    3    0    0 -0.83109881890E+01 -0.29013596647E+01  0.16296996773E+00  0.88043723259E+01  0.51100000000E-03 0.  1.
         12    1    3    3    0    0 -0.12790015747E+02  0.41841879437E+01 -0.22912197507E+01  0.13650700330E+02  0.00000000000E+00 0. -1.
</event>
<event>
 7    1  0.2733256E-010  0.4778727E+02  0.7816164E-02  0.1312668E+00
        -11   -1    0    0    0    0  0.00000000000E+00  0.00000000000E+00  0.45593999997E+02  0.45594000000E+02  0.51100000000E-03 0. -1.
         11   -1    0    0    0    0 -0.00000000000E+00 -0.00000000000E+00 -0.45593999997E+02  0.45594000000E+02  0.51100000000E-03 0.  1.
    9900012    2    1    2    0    0 -0.33607326780E+02 -0.27025886918E+02 -0.48756965306E+01  0.47787269665E+02  0.19999993709E+02 0.  0.
         12    1    1    2    0    0  0.33607326780E+02  0.27025886918E+02  0.48756965306E+01  0.43400730335E+02  0.00000000000E+00 0. -1.
         11    1    3    3    0    0 -0.14809773207E+02 -0.14262726023E+02 -0.60527446318E+01  0.21433395762E+02  0.51100000000E-03 0. -1.
        -11    1    3    3    0    0 -0.36244324500E+01 -0.99898529314E+00 -0.49359892105E+01  0.62047136878E+01  0.51100000000E-03 0.  1.
         12    1    3    3    0    0 -0.15173121122E+02 -0.11764175601E+02  0.61130373116E+01  0.20149160214E+02  0.00000000000E+00 0. -1.
</event>
<event>
 7    1  0.2733256E-010  0.4778727E+02  0.7816164E-02  0.1312668E+00
        -11   -1    0    0    0    0  0.00000000000E+00  0.00000000000E+00  0.45593999997E+02  0.45594000000E+02  0.51100000000E-03 0. -1.
         11   -1    0    0    0    0 -0.00000000000E+00 -0.00000000000E+00 -0.45593999997E+02  0.45594000000E+02  0.51100000000E-03 0.  1.
    9900012    2    1    2    0    0 -0.31863403955E+02  0.23744434403E+02 -0.17451319747E+02  0.47787271462E+02  0.20000001904E+02 0.  0.
         12    1    1    2    0    0  0.31863403955E+02 -0.23744434403E+02  0.17451319747E+02  0.43400728538E+02  0.00000000000E+00 0. -1.
         11    1    3    3    0    0 -0.32646926670E+01  0.42326476137E+01 -0.19759714955E+01  0.56989461871E+01  0.51100000000E-03 0. -1.
        -11    1    3    3    0    0 -0.28133143127E+01  0.63728865378E+01  0.31788848895E+01  0.76572664605E+01  0.51100000000E-03 0.  1.
        -12    1    3    3    0    0 -0.25785396975E+02  0.13138900251E+02 -0.18654233141E+02  0.34431058814E+02  0.00000000000E+00 0.  1.
</event>
<event>
 7    1  0.2733256E-010  0.4778727E+02  0.7816164E-02  0.1312668E+00
        -11   -1    0    0    0    0  0.00000000000E+00  0.00000000000E+00  0.45593999997E+02  0.45594000000E+02  0.51100000000E-03 0.  1.
         11   -1    0    0    0    0 -0.00000000000E+00 -0.00000000000E+00 -0.45593999997E+02  0.45594000000E+02  0.51100000000E-03 0. -1.
    9900012    2    1    2    0    0  0.38560018906E+02 -0.17458599107E+02 -0.95888172207E+01  0.47787272396E+02  0.20000006163E+02 0.  0.
         12    1    1    2    0    0 -0.38560018906E+02  0.17458599107E+02  0.95888172207E+01  0.43400727604E+02  0.00000000000E+00 0. -1.
         11    1    3    3    0    0  0.18541776198E+01 -0.46837076796E+01 -0.13859204782E+01  0.52245447750E+01  0.51100000000E-03 0. -1.
        -11    1    3    3    0    0  0.24022783473E+02 -0.13943828255E+02 -0.71003669749E+00  0.27785403085E+02  0.51100000000E-03 0.  1.
        -12    1    3    3    0    0  0.12683057813E+02  0.11689368270E+01 -0.74928600450E+01  0.14777324536E+02  0.00000000000E+00 0.  1.
</event>
<event>
 7    1  0.2733256E-010  0.4778726E+02  0.7816164E-02  0.1312668E+00
        -11   -1    0    0    0    0  0.00000000000E+00  0.00000000000E+00  0.45593999997E+02  0.45594000000E+02  0.51100000000E-03 0.  1.
         11   -1    0    0    0    0 -0.00000000000E+00 -0.00000000000E+00 -0.45593999997E+02  0.45594000000E+02  0.51100000000E-03 0. -1.
    9900012    2    1    2    0    0 -0.13544181102E+02  0.94780567069E+01  0.40129110549E+02  0.47787263668E+02  0.19999966369E+02 0.  0.
         12    1    1    2    0    0  0.13544181102E+02 -0.94780567069E+01 -0.40129110549E+02  0.43400736332E+02  0.00000000000E+00 0. -1.
         11    1    3    3    0    0 -0.10150385346E+02  0.55431515052E+01  0.14710871110E+02  0.18712738452E+02  0.51100000000E-03 0.  1.
        -11    1    3    3    0    0 -0.17321214451E+01 -0.47540768518E+01  0.11751447946E+02  0.12794452724E+02  0.51100000000E-03 0. -1.
         12    1    3    3    0    0 -0.16616743107E+01  0.86889820535E+01  0.13666791493E+02  0.16280072492E+02  0.00000000000E+00 0. -1.
</event>
<event>
 7    1  0.2733256E-010  0.4778727E+02  0.7816164E-02  0.1312668E+00
        -11   -1    0    0    0    0  0.00000000000E+00  0.00000000000E+00  0.45593999997E+02  0.45594000000E+02  0.51100000000E-03 0.  1.
         11   -1    0    0    0    0 -0.00000000000E+00 -0.00000000000E+00 -0.45593999997E+02  0.45594000000E+02  0.51100000000E-03 0. -1.
    9900012    2    1    2    0    0  0.35080668665E+02  0.16040779693E+02  0.19891292773E+02  0.47787268955E+02  0.19999990471E+02 0.  0.
         12    1    1    2    0    0 -0.35080668665E+02 -0.16040779693E+02 -0.19891292773E+02  0.43400731045E+02  0.00000000000E+00 0. -1.
         11    1    3    3    0    0  0.42880322164E+01  0.33100378239E+01 -0.22007231939E+01  0.58469439472E+01  0.51100000000E-03 0. -1.
        -11    1    3    3    0    0  0.73912965898E+01  0.85487460659E+01  0.10764904304E+02  0.15607545916E+02  0.51100000000E-03 0.  1.
        -12    1    3    3    0    0  0.23401339858E+02  0.41819958029E+01  0.11327111662E+02  0.26332779091E+02  0.00000000000E+00 0.  1.
</event>
<event>
 7    1  0.2733256E-010  0.4778727E+02  0.7816164E-02  0.1312668E+00
        -11   -1    0    0    0    0  0.00000000000E+00  0.00000000000E+00  0.45593999997E+02  0.45594000000E+02  0.51100000000E-03 0. -1.
         11   -1    0    0    0    0 -0.00000000000E+00 -0.00000000000E+00 -0.45593999997E+02  0.45594000000E+02  0.51100000000E-03 0.  1.
    9900012    2    1    2    0    0  0.11105996152E+02 -0.38526475017E+02  0.16612968161E+02  0.47787272600E+02  0.20000007091E+02 0.  0.
         12    1    1    2    0    0 -0.11105996152E+02  0.38526475017E+02 -0.16612968161E+02  0.43400727400E+02  0.00000000000E+00 0. -1.
         11    1    3    3    0    0  0.20145082150E+01 -0.28154503834E+01  0.64179272299E+01  0.72921049361E+01  0.51100000000E-03 0. -1.
        -11    1    3    3    0    0  0.20672351608E+01 -0.61703364986E+01  0.76219574378E+01  0.10022013229E+02  0.51100000000E-03 0.  1.
        -12    1    3    3    0    0  0.70242527763E+01 -0.29540688135E+02  0.25730834936E+01  0.30473154435E+02  0.00000000000E+00 0.  1.
</event>
<event>
 7    1  0.2733256E-010  0.4778727E+02  0.7816164E-02  0.1312668E+00
        -11   -1    0    0    0    0  0.00000000000E+00  0.00000000000E+00  0.45593999997E+02  0.45594000000E+02  0.51100000000E-03 0.  1.
         11   -1    0    0    0    0 -0.00000000000E+00 -0.00000000000E+00 -0.45593999997E+02  0.45594000000E+02  0.51100000000E-03 0. -1.
    9900012    2    1    2    0    0  0.37722450707E+02  0.87477478495E+00  0.21444687604E+02  0.47787272532E+02  0.20000006784E+02 0.  0.
         12    1    1    2    0    0 -0.37722450707E+02 -0.87477478495E+00 -0.21444687604E+02  0.43400727468E+02  0.00000000000E+00 0. -1.
         11    1    3    3    0    0  0.27126092845E+02  0.29019772392E+01  0.13802427254E+02  0.30573736823E+02  0.51100000000E-03 0.  1.
        -11    1    3    3    0    0  0.11013095068E+02 -0.22577582137E+01  0.18399525758E+01  0.11391714572E+02  0.51100000000E-03 0. -1.
         12    1    3    3    0    0 -0.41673720625E+00  0.23055575941E+00  0.58023077741E+01  0.58218211380E+01  0.00000000000E+00 0. -1.
</event>
<event>
 7    1  0.2733256E-010  0.4778722E+02  0.7816164E-02  0.1312668E+00
        -11   -1    0    0    0    0  0.00000000000E+00  0.00000000000E+00  0.45593999997E+02  0.45594000000E+02  0.51100000000E-03 0. -1.
         11   -1    0    0    0    0 -0.00000000000E+00 -0.00000000000E+00 -0.45593999997E+02  0.45594000000E+02  0.51100000000E-03 0.  1.
    9900012    2    1    2    0    0 -0.19286152715E+02 -0.26895694633E+02 -0.28076574356E+02  0.47787215400E+02  0.19999746292E+02 0.  0.
         12    1    1    2    0    0  0.19286152715E+02  0.26895694633E+02  0.28076574356E+02  0.43400784600E+02  0.00000000000E+00 0. -1.
         11    1    3    3    0    0 -0.79894961123E+01 -0.52404655376E+01 -0.14329712247E+02  0.17223100200E+02  0.51100000000E-03 0. -1.
        -11    1    3    3    0    0 -0.10040066394E+02 -0.62195089802E+01 -0.58195698474E+01  0.13166344163E+02  0.51100000000E-03 0.  1.
         12    1    3    3    0    0 -0.12565902086E+01 -0.15435720115E+02 -0.79272922622E+01  0.17397771036E+02  0.00000000000E+00 0. -1.
</event>
<event>
 7    1  0.2733256E-010  0.4778723E+02  0.7816164E-02  0.1312668E+00
        -11   -1    0    0    0    0  0.00000000000E+00  0.00000000000E+00  0.45593999997E+02  0.45594000000E+02  0.51100000000E-03 0.  1.
         11   -1    0    0    0    0 -0.00000000000E+00 -0.00000000000E+00 -0.45593999997E+02  0.45594000000E+02  0.51100000000E-03 0. -1.
    9900012    2    1    2    0    0 -0.26362733784E+02  0.23841775220E+02  0.24903876888E+02  0.47787227400E+02  0.19999801006E+02 0.  0.
         12    1    1    2    0    0  0.26362733784E+02 -0.23841775220E+02 -0.24903876888E+02  0.43400772600E+02  0.00000000000E+00 0. -1.
         11    1    3    3    0    0 -0.75946646077E-01  0.38123200177E+01  0.85202885243E+00  0.39071095758E+01  0.51100000000E-03 0. -1.
        -11    1    3    3    0    0 -0.62366813719E+01  0.14432327790E+02  0.83233602476E+01  0.17789508314E+02  0.51100000000E-03 0.  1.
        -12    1    3    3    0    0 -0.20050105766E+02  0.55971274124E+01  0.15728487788E+02  0.26090609510E+02  0.00000000000E+00 0.  1.
</event>
<event>
 7    1  0.2733256E-010  0.4778727E+02  0.7816164E-02  0.1312668E+00
        -11   -1    0    0    0    0  0.00000000000E+00  0.00000000000E+00  0.45593999997E+02  0.45594000000E+02  0.51100000000E-03 0. -1.
         11   -1    0    0    0    0 -0.00000000000E+00 -0.00000000000E+00 -0.45593999997E+02  0.45594000000E+02  0.51100000000E-03 0.  1.
    9900012    2    1    2    0    0 -0.13164397630E+02  0.39697100869E+02 -0.11595792017E+02  0.47787267577E+02  0.19999984191E+02 0.  0.
         12    1    1    2    0    0  0.13164397630E+02 -0.39697100869E+02  0.11595792017E+02  0.43400732423E+02  0.00000000000E+00 0. -1.
         11    1    3    3    0    0 -0.41964416975E+01  0.11649070535E+02 -0.33784057062E+01  0.12834507884E+02  0.51100000000E-03 0. -1.
        -11    1    3    3    0    0 -0.12311752175E+01  0.25875897247E+02 -0.56228715703E+01  0.26508386139E+02  0.51100000000E-03 0.  1.
         12    1    3    3    0    0 -0.77367807149E+01  0.21721330867E+01 -0.25945147401E+01  0.84443735537E+01  0.00000000000E+00 0. -1.
</event>
<event>
 7    1  0.2733256E-010  0.4778727E+02  0.7816164E-02  0.1312668E+00
        -11   -1    0    0    0    0  0.00000000000E+00  0.00000000000E+00  0.45593999997E+02  0.45594000000E+02  0.51100000000E-03 0.  1.
         11   -1    0    0    0    0 -0.00000000000E+00 -0.00000000000E+00 -0.45593999997E+02  0.45594000000E+02  0.51100000000E-03 0. -1.
    9900012    2    1    2    0    0 -0.33495254450E+02 -0.27591751941E+02 -0.62141935297E+00  0.47787274109E+02  0.20000013971E+02 0.  0.
         12    1    1    2    0    0  0.33495254450E+02  0.27591751941E+02  0.62141935297E+00  0.43400725891E+02  0.00000000000E+00 0. -1.
         11    1    3    3    0    0 -0.19150865634E+02 -0.14673525378E+02 -0.39810482275E+01  0.24452336223E+02  0.51100000000E-03 0. -1.
        -11    1    3    3    0    0 -0.76057285831E+01 -0.12638531352E+02 -0.17769014438E+01  0.14857219155E+02  0.51100000000E-03 0.  1.
         12    1    3    3    0    0 -0.67386602334E+01 -0.27969521140E+00  0.51365303184E+01  0.84777187299E+01  0.00000000000E+00 0. -1.
</event>
<event>
 7    1  0.2733256E-010  0.4778727E+02  0.7816164E-02  0.1312668E+00
        -11   -1    0    0    0    0  0.00000000000E+00  0.00000000000E+00  0.45593999997E+02  0.45594000000E+02  0.51100000000E-03 0. -1.
         11   -1    0    0    0    0 -0.00000000000E+00 -0.00000000000E+00 -0.45593999997E+02  0.45594000000E+02  0.51100000000E-03 0.  1.
    9900012    2    1    2    0    0 -0.29176436988E+02 -0.69838098872E+01 -0.31362162776E+02  0.47787270400E+02  0.19999997062E+02 0.  0.
         12    1    1    2    0    0  0.29176436988E+02  0.69838098872E+01  0.31362162776E+02  0.43400729600E+02  0.00000000000E+00 0. -1.
         11    1    3    3    0    0 -0.74894614875E+01 -0.19557883435E+01 -0.18163703352E+02  0.19744296927E+02  0.51100000000E-03 0. -1.
        -11    1    3    3    0    0 -0.15765157254E+02 -0.56949903577E+01 -0.14238836253E+02  0.21993579893E+02  0.51100000000E-03 0.  1.
        -12    1    3    3    0    0 -0.59218182465E+01  0.66696881395E+00  0.10403768289E+01  0.60493935803E+01  0.00000000000E+00 0.  1.
</event>
<event>
 7    1  0.2733256E-010  0.4778727E+02  0.7816164E-02  0.1312668E+00
        -11   -1    0    0    0    0  0.00000000000E+00  0.00000000000E+00  0.45593999997E+02  0.45594000000E+02  0.51100000000E-03 0. -1.
         11   -1    0    0    0    0 -0.00000000000E+00 -0.00000000000E+00 -0.45593999997E+02  0.45594000000E+02  0.51100000000E-03 0.  1.
    9900012    2    1    2    0    0 -0.41125818425E+02  0.13693077192E+02 -0.21886254972E+01  0.47787269757E+02  0.19999994128E+02 0.  0.
         12    1    1    2    0    0  0.41125818425E+02 -0.13693077192E+02  0.21886254972E+01  0.43400730243E+02  0.00000000000E+00 0. -1.
         11    1    3    3    0    0 -0.50492320276E+01 -0.52868344187E+00 -0.21356557695E+01  0.55077469148E+01  0.51100000000E-03 0. -1.
        -11    1    3    3    0    0 -0.71070643851E+01  0.10914512951E+02 -0.13414504333E+01  0.13093374151E+02  0.51100000000E-03 0.  1.
         12    1    3    3    0    0 -0.28969522012E+02  0.33072476819E+01  0.12884807055E+01  0.29186148690E+02  0.00000000000E+00 0. -1.
</event>
<event>
 7    1  0.2733256E-010  0.4778727E+02  0.7816164E-02  0.1312668E+00
        -11   -1    0    0    0    0  0.00000000000E+00  0.00000000000E+00  0.45593999997E+02  0.45594000000E+02  0.51100000000E-03 0.  1.
         11   -1    0    0    0    0 -0.00000000000E+00 -0.00000000000E+00 -0.45593999997E+02  0.45594000000E+02  0.51100000000E-03 0. -1.
    9900012    2    1    2    0    0  0.12841197434E+01  0.36367345757E+02  0.23651441402E+02  0.47787268654E+02  0.19999989101E+02 0.  0.
         12    1    1    2    0    0 -0.12841197434E+01 -0.36367345757E+02 -0.23651441402E+02  0.43400731346E+02  0.00000000000E+00 0. -1.
         11    1    3    3    0    0  0.33102992021E+00  0.20656424929E+01  0.58914390692E+01  0.62518408716E+01  0.51100000000E-03 0.  1.
        -11    1    3    3    0    0  0.11887153462E+01  0.28032706649E+01 -0.26209585798E+01  0.40175607939E+01  0.51100000000E-03 0. -1.
        -12    1    3    3    0    0 -0.23562552294E+00  0.31498432600E+02  0.20380960913E+02  0.37517866988E+02  0.00000000000E+00 0.  1.
</event>
<event>
 7    1  0.2733256E-010  0.4778727E+02  0.7816164E-02  0.1312668E+00
        -11   -1    0    0    0    0  0.00000000000E+00  0.00000000000E+00  0.45593999997E+02  0.45594000000E+02  0.51100000000E-03 0.  1.
         11   -1    0    0    0    0 -0.00000000000E+00 -0.00000000000E+00 -0.45593999997E+02  0.45594000000E+02  0.51100000000E-03 0. -1.
    9900012    2    1    2    0    0  0.42409792746E+02 -0.36785824548E+01  0.84558261177E+01  0.47787268613E+02  0.19999988913E+02 0.  0.
         12    1    1    2    0    0 -0.42409792746E+02  0.36785824548E+01 -0.84558261177E+01  0.43400731387E+02  0.00000000000E+00 0. -1.
         11    1    3    3    0    0 -0.14762303555E+01 -0.16944702095E+01  0.18812308546E+01  0.29307874612E+01  0.51100000000E-03 0. -1.
        -11    1    3    3    0    0  0.18521794152E+02 -0.26470760413E+01  0.53242426571E+01  0.19452800063E+02  0.51100000000E-03 0.  1.
         12    1    3    3    0    0  0.25364228949E+02  0.66296379598E+00  0.12503526061E+01  0.25403681088E+02  0.00000000000E+00 0. -1.
</event>
<event>
 7    1  0.2733256E-010  0.4778727E+02  0.7816164E-02  0.1312668E+00
        -11   -1    0    0    0    0  0.00000000000E+00  0.00000000000E+00  0.45593999997E+02  0.45594000000E+02  0.51100000000E-03 0. -1.
         11   -1    0    0    0    0 -0.00000000000E+00 -0.00000000000E+00 -0.45593999997E+02  0.45594000000E+02  0.51100000000E-03 0.  1.
    9900012    2    1    2    0    0  0.20455879401E+02  0.37640144520E+00 -0.38275824387E+02  0.47787269446E+02  0.19999992712E+02 0.  0.
         12    1    1    2    0    0 -0.20455879401E+02 -0.37640144520E+00  0.38275824387E+02  0.43400730554E+02  0.00000000000E+00 0. -1.
         11    1    3    3    0    0 -0.10803497103E+01 -0.23151302862E+01 -0.45571564442E+00  0.25951224919E+01  0.51100000000E-03 0. -1.
        -11    1    3    3    0    0  0.39538244837E+01 -0.23081214595E+01 -0.16427546518E+02  0.17053575507E+02  0.51100000000E-03 0.  1.
         12    1    3    3    0    0  0.17582404628E+02  0.49996531909E+01 -0.21392562224E+02  0.28138571446E+02  0.00000000000E+00 0. -1.
</event>
<event>
 7    1  0.2733256E-010  0.4778727E+02  0.7816164E-02  0.1312668E+00
        -11   -1    0    0    0    0  0.00000000000E+00  0.00000000000E+00  0.45593999997E+02  0.45594000000E+02  0.51100000000E-03 0. -1.
         11   -1    0    0    0    0 -0.00000000000E+00 -0.00000000000E+00 -0.45593999997E+02  0.45594000000E+02  0.51100000000E-03 0.  1.
    9900012    2    1    2    0    0  0.26322634024E+02 -0.29313211285E+02 -0.18206534303E+02  0.47787270638E+02  0.19999998147E+02 0.  0.
         12    1    1    2    0    0 -0.26322634024E+02  0.29313211285E+02  0.18206534303E+02  0.43400729362E+02  0.00000000000E+00 0. -1.
         11    1    3    3    0    0  0.22563391034E+01 -0.11534218984E+02 -0.42692916659E-01  0.11752918644E+02  0.51100000000E-03 0. -1.
        -11    1    3    3    0    0 -0.15876959460E+00  0.29499492729E+00  0.43250491595E+00  0.54707454221E+00  0.51100000000E-03 0.  1.
        -12    1    3    3    0    0  0.24225064515E+02 -0.18073987229E+02 -0.18596346303E+02  0.35487277452E+02  0.00000000000E+00 0.  1.
</event>
<event>
 7    1  0.2733256E-010  0.4778727E+02  0.7816164E-02  0.1312668E+00
        -11   -1    0    0    0    0  0.00000000000E+00  0.00000000000E+00  0.45593999997E+02  0.45594000000E+02  0.51100000000E-03 0.  1.
         11   -1    0    0    0    0 -0.00000000000E+00 -0.00000000000E+00 -0.45593999997E+02  0.45594000000E+02  0.51100000000E-03 0. -1.
    9900012    2    1    2    0    0 -0.39643003329E+02 -0.32526157498E+01  0.17363077207E+02  0.47787266455E+02  0.19999979074E+02 0.  0.
         12    1    1    2    0    0  0.39643003329E+02  0.32526157498E+01 -0.17363077207E+02  0.43400733545E+02  0.00000000000E+00 0. -1.
         11    1    3    3    0    0 -0.10777958044E+02  0.67130139912E+01  0.25697778973E+01  0.12955025865E+02  0.51100000000E-03 0. -1.
        -11    1    3    3    0    0 -0.14421353245E+02 -0.12854097309E+01  0.48668811637E+01  0.15274627331E+02  0.51100000000E-03 0.  1.
        -12    1    3    3    0    0 -0.14443692040E+02 -0.86802200101E+01  0.99264181461E+01  0.19557613259E+02  0.00000000000E+00 0.  1.
</event>
<event>
 7    1  0.2733256E-010  0.4778727E+02  0.7816164E-02  0.1312668E+00
        -11   -1    0    0    0    0  0.00000000000E+00  0.00000000000E+00  0.45593999997E+02  0.45594000000E+02  0.51100000000E-03 0. -1.
         11   -1    0    0    0    0 -0.00000000000E+00 -0.00000000000E+00 -0.45593999997E+02  0.45594000000E+02  0.51100000000E-03 0.  1.
    9900012    2    1    2    0    0  0.34211226846E+01 -0.37803012422E+02 -0.21044036085E+02  0.47787270936E+02  0.19999999504E+02 0.  0.
         12    1    1    2    0    0 -0.34211226846E+01  0.37803012422E+02  0.21044036085E+02  0.43400729064E+02  0.00000000000E+00 0. -1.
         11    1    3    3    0    0 -0.10676516437E+01 -0.20102279545E+01  0.77980813860E+00  0.24060335524E+01  0.51100000000E-03 0. -1.
        -11    1    3    3    0    0  0.44701891953E+01 -0.69617714523E+00 -0.38980343638E+01  0.59717607305E+01  0.51100000000E-03 0.  1.
         12    1    3    3    0    0  0.18585133060E-01 -0.35096607322E+02 -0.17925809860E+02  0.39409476653E+02  0.00000000000E+00 0. -1.
</event>
<event>
 7    1  0.2733256E-010  0.4778727E+02  0.7816164E-02  0.1312668E+00
        -11   -1    0    0    0    0  0.00000000000E+00  0.00000000000E+00  0.45593999997E+02  0.45594000000E+02  0.51100000000E-03 0.  1.
         11   -1    0    0    0    0 -0.00000000000E+00 -0.00000000000E+00 -0.45593999997E+02  0.45594000000E+02  0.51100000000E-03 0. -1.
    9900012    2    1    2    0    0  0.40111496026E+01 -0.43125213740E+02 -0.27838670725E+01  0.47787270776E+02  0.19999998777E+02 0.  0.
         12    1    1    2    0    0 -0.40111496026E+01  0.43125213740E+02  0.27838670725E+01  0.43400729224E+02  0.00000000000E+00 0. -1.
         11    1    3    3    0    0  0.67067134630E+00 -0.16545399239E+01 -0.44110041725E+01  0.47585985842E+01  0.51100000000E-03 0. -1.
        -11    1    3    3    0    0  0.67303639665E+01 -0.26288925700E+02  0.34966099052E+01  0.27361134747E+02  0.51100000000E-03 0.  1.
         12    1    3    3    0    0 -0.33898857103E+01 -0.15181748117E+02 -0.18694728052E+01  0.15667537445E+02  0.00000000000E+00 0. -1.
</event>
<event>
 7    1  0.2733256E-010  0.4778727E+02  0.7816164E-02  0.1312668E+00
        -11   -1    0    0    0    0  0.00000000000E+00  0.00000000000E+00  0.45593999997E+02  0.45594000000E+02  0.51100000000E-03 0. -1.
         11   -1    0    0    0    0 -0.00000000000E+00 -0.00000000000E+00 -0.45593999997E+02  0.45594000000E+02  0.51100000000E-03 0.  1.
    9900012    2    1    2    0    0 -0.15532521326E+02 -0.12023910915E+02 -0.38701288032E+02  0.47787270193E+02  0.19999996117E+02 0.  0.
         12    1    1    2    0    0  0.15532521326E+02  0.12023910915E+02  0.38701288032E+02  0.43400729807E+02  0.00000000000E+00 0. -1.
         11    1    3    3    0    0  0.93125300603E+00 -0.21186951897E+01 -0.89053828070E+01  0.92011925677E+01  0.51100000000E-03 0. -1.
        -11    1    3    3    0    0  0.12717826463E+01 -0.61811327971E+01 -0.63453265481E+01  0.89491342049E+01  0.51100000000E-03 0.  1.
         12    1    3    3    0    0 -0.17735556979E+02 -0.37240829281E+01 -0.23450578677E+02  0.29636943420E+02  0.00000000000E+00 0. -1.
</event>
<event>
 7    1  0.2733256E-010  0.4778727E+02  0.7816164E-02  0.1312668E+00
        -11   -1    0    0    0    0  0.00000000000E+00  0.00000000000E+00  0.45593999997E+02  0.45594000000E+02  0.51100000000E-03 0.  1.
         11   -1    0    0    0    0 -0.00000000000E+00 -0.00000000000E+00 -0.45593999997E+02  0.45594000000E+02  0.51100000000E-03 0. -1.
    9900012    2    1    2    0    0  0.28925835083E+02  0.15944528450E+02  0.28154779676E+02  0.47787267963E+02  0.19999985951E+02 0.  0.
         12    1    1    2    0    0 -0.28925835083E+02 -0.15944528450E+02 -0.28154779676E+02  0.43400732037E+02  0.00000000000E+00 0. -1.
         11    1    3    3    0    0 -0.42886790747E+00  0.31230844075E+01  0.23147070213E+01  0.39109401368E+01  0.51100000000E-03 0. -1.
        -11    1    3    3    0    0 -0.13003703227E+00  0.39281043165E+01  0.43707747881E+00  0.39544848128E+01  0.51100000000E-03 0.  1.
        -12    1    3    3    0    0  0.29484740022E+02  0.88933397262E+01  0.25402995176E+02  0.39921843013E+02  0.00000000000E+00 0.  1.
</event>
<event>
 7    1  0.2733256E-010  0.4778728E+02  0.7816164E-02  0.1312668E+00
        -11   -1    0    0    0    0  0.00000000000E+00  0.00000000000E+00  0.45593999997E+02  0.45594000000E+02  0.51100000000E-03 0.  1.
         11   -1    0    0    0    0 -0.00000000000E+00 -0.00000000000E+00 -0.45593999997E+02  0.45594000000E+02  0.51100000000E-03 0. -1.
    9900012    2    1    2    0    0  0.31588177622E+02  0.23001980189E+02  0.18886993300E+02  0.47787279107E+02  0.20000036759E+02 0.  0.
         12    1    1    2    0    0 -0.31588177622E+02 -0.23001980189E+02 -0.18886993300E+02  0.43400720893E+02  0.00000000000E+00 0. -1.
         11    1    3    3    0    0  0.16022310678E+02  0.48634403955E+01  0.78464434288E+01  0.18491461994E+02  0.51100000000E-03 0. -1.
        -11    1    3    3    0    0  0.15505416723E+02  0.15335604669E+02  0.13430290249E+02  0.25611938910E+02  0.51100000000E-03 0.  1.
         12    1    3    3    0    0  0.60450221969E-01  0.28029351247E+01 -0.23897403769E+01  0.36838782026E+01  0.00000000000E+00 0. -1.
</event>
<event>
 7    1  0.2733256E-010  0.4778727E+02  0.7816164E-02  0.1312668E+00
        -11   -1    0    0    0    0  0.00000000000E+00  0.00000000000E+00  0.45593999997E+02  0.45594000000E+02  0.51100000000E-03 0.  1.
         11   -1    0    0    0    0 -0.00000000000E+00 -0.00000000000E+00 -0.45593999997E+02  0.45594000000E+02  0.51100000000E-03 0. -1.
    9900012    2    1    2    0    0 -0.12528848495E+00 -0.38427580157E+02 -0.20172475330E+02  0.47787269881E+02  0.19999994696E+02 0.  0.
         12    1    1    2    0    0  0.12528848495E+00  0.38427580157E+02  0.20172475330E+02  0.43400730119E+02  0.00000000000E+00 0. -1.
         11    1    3    3    0    0 -0.18229063047E+01 -0.44144187380E+01 -0.11351277575E+02  0.12315095738E+02  0.51100000000E-03 0. -1.
        -11    1    3    3    0    0  0.24548537027E+01 -0.89698030896E+01 -0.26094318011E+01  0.96588202568E+01  0.51100000000E-03 0.  1.
         12    1    3    3    0    0 -0.75723588299E+00 -0.25043358329E+02 -0.62117659534E+01  0.25813353886E+02  0.00000000000E+00 0. -1.
</event>
<event>
 7    1  0.2733256E-010  0.4778727E+02  0.7816164E-02  0.1312668E+00
        -11   -1    0    0    0    0  0.00000000000E+00  0.00000000000E+00  0.45593999997E+02  0.45594000000E+02  0.51100000000E-03 0. -1.
         11   -1    0    0    0    0 -0.00000000000E+00 -0.00000000000E+00 -0.45593999997E+02  0.45594000000E+02  0.51100000000E-03 0.  1.
    9900012    2    1    2    0    0 -0.13047999688E+02 -0.35133164244E+02 -0.21886842255E+02  0.47787269712E+02  0.19999993925E+02 0.  0.
         12    1    1    2    0    0  0.13047999688E+02  0.35133164244E+02  0.21886842255E+02  0.43400730288E+02  0.00000000000E+00 0. -1.
         11    1    3    3    0    0 -0.60192857513E+01 -0.23355544329E+02 -0.11894644673E+02  0.26892300460E+02  0.51100000000E-03 0. -1.
        -11    1    3    3    0    0 -0.25020701901E+00 -0.49376110312E+01  0.21554495307E+01  0.53933819805E+01  0.51100000000E-03 0.  1.
        -12    1    3    3    0    0 -0.67785069178E+01 -0.68400088834E+01 -0.12147647113E+02  0.15501587271E+02  0.00000000000E+00 0.  1.
</event>
<event>
 7    1  0.2733256E-010  0.4778728E+02  0.7816164E-02  0.1312668E+00
        -11   -1    0    0    0    0  0.00000000000E+00  0.00000000000E+00  0.45593999997E+02  0.45594000000E+02  0.51100000000E-03 0. -1.
         11   -1    0    0    0    0 -0.00000000000E+00 -0.00000000000E+00 -0.45593999997E+02  0.45594000000E+02  0.51100000000E-03 0.  1.
    9900012    2    1    2    0    0 -0.38646106011E+02 -0.10413631756E+02 -0.16782658901E+02  0.47787275629E+02  0.20000020903E+02 0.  0.
         12    1    1    2    0    0  0.38646106011E+02  0.10413631756E+02  0.16782658901E+02  0.43400724371E+02  0.00000000000E+00 0. -1.
         11    1    3    3    0    0 -0.36910695276E+01  0.14525575782E+01 -0.73684937684E+00  0.40344596963E+01  0.51100000000E-03 0. -1.
        -11    1    3    3    0    0 -0.11348126260E+02  0.36033478848E+01 -0.82055180804E+01  0.14460104177E+02  0.51100000000E-03 0.  1.
         12    1    3    3    0    0 -0.23606910224E+02 -0.15469537219E+02 -0.78402914436E+01  0.29292711756E+02  0.00000000000E+00 0. -1.
</event>
<event>
 7    1  0.2733256E-010  0.4778727E+02  0.7816164E-02  0.1312668E+00
        -11   -1    0    0    0    0  0.00000000000E+00  0.00000000000E+00  0.45593999997E+02  0.45594000000E+02  0.51100000000E-03 0. -1.
         11   -1    0    0    0    0 -0.00000000000E+00 -0.00000000000E+00 -0.45593999997E+02  0.45594000000E+02  0.51100000000E-03 0.  1.
    9900012    2    1    2    0    0  0.14788548485E+02  0.40534283622E+02  0.46790998048E+01  0.47787270859E+02  0.19999999153E+02 0.  0.
         12    1    1    2    0    0 -0.14788548485E+02 -0.40534283622E+02 -0.46790998048E+01  0.43400729141E+02  0.00000000000E+00 0. -1.
         11    1    3    3    0    0 -0.24055190882E+01  0.45154636913E+01  0.12399182565E+01  0.52643453511E+01  0.51100000000E-03 0. -1.
        -11    1    3    3    0    0  0.82449763442E+01  0.41756484697E+01 -0.21756279146E+00  0.92446205378E+01  0.51100000000E-03 0.  1.
         12    1    3    3    0    0  0.89490912289E+01  0.31843171461E+02  0.36567443398E+01  0.33278304970E+02  0.00000000000E+00 0. -1.
</event>
<event>
 7    1  0.2733256E-010  0.4778727E+02  0.7816164E-02  0.1312668E+00
        -11   -1    0    0    0    0  0.00000000000E+00  0.00000000000E+00  0.45593999997E+02  0.45594000000E+02  0.51100000000E-03 0.  1.
         11   -1    0    0    0    0 -0.00000000000E+00 -0.00000000000E+00 -0.45593999997E+02  0.45594000000E+02  0.51100000000E-03 0. -1.
    9900012    2    1    2    0    0  0.31121594053E+02 -0.28242406135E+02 -0.10836786558E+02  0.47787273467E+02  0.20000011046E+02 0.  0.
         12    1    1    2    0    0 -0.31121594053E+02  0.28242406135E+02  0.10836786558E+02  0.43400726533E+02  0.00000000000E+00 0. -1.
         11    1    3    3    0    0  0.11757460106E+01  0.13751455716E+01  0.82356548059E-01  0.18111286223E+01  0.51100000000E-03 0. -1.
        -11    1    3    3    0    0  0.70119918605E+01 -0.10830703120E+02 -0.99854612781E+01  0.16315072697E+02  0.51100000000E-03 0.  1.
        -12    1    3    3    0    0  0.22933856182E+02 -0.18786848587E+02 -0.93368182771E+00  0.29661072148E+02  0.00000000000E+00 0.  1.
</event>
<event>
 7    1  0.2733256E-010  0.4778727E+02  0.7816164E-02  0.1312668E+00
        -11   -1    0    0    0    0  0.00000000000E+00  0.00000000000E+00  0.45593999997E+02  0.45594000000E+02  0.51100000000E-03 0.  1.
         11   -1    0    0    0    0 -0.00000000000E+00 -0.00000000000E+00 -0.45593999997E+02  0.45594000000E+02  0.51100000000E-03 0. -1.
    9900012    2    1    2    0    0  0.35119247249E+02 -0.47028584712E+01  0.25062822575E+02  0.47787268663E+02  0.19999989142E+02 0.  0.
         12    1    1    2    0    0 -0.35119247249E+02  0.47028584712E+01 -0.25062822575E+02  0.43400731337E+02  0.00000000000E+00 0. -1.
         11    1    3    3    0    0  0.17875212740E+01 -0.24372111360E+01  0.27176190726E+01  0.40645644430E+01  0.51100000000E-03 0.  1.
        -11    1    3    3    0    0  0.25771459905E+02 -0.43791276153E+01  0.24236876278E+02  0.35647876182E+02  0.51100000000E-03 0. -1.
         12    1    3    3    0    0  0.75602660709E+01  0.21134802802E+01 -0.18916727759E+01  0.80748280383E+01  0.00000000000E+00 0. -1.
</event>
<event>
 7    1  0.2733256E-010  0.4778727E+02  0.7816164E-02  0.1312668E+00
        -11   -1    0    0    0    0  0.00000000000E+00  0.00000000000E+00  0.45593999997E+02  0.45594000000E+02  0.51100000000E-03 0. -1.
         11   -1    0    0    0    0 -0.00000000000E+00 -0.00000000000E+00 -0.45593999997E+02  0.45594000000E+02  0.51100000000E-03 0.  1.
    9900012    2    1    2    0    0 -0.40045319014E+02 -0.15305550235E+02 -0.67628347792E+01  0.47787269854E+02  0.19999994573E+02 0.  0.
         12    1    1    2    0    0  0.40045319014E+02  0.15305550235E+02  0.67628347792E+01  0.43400730146E+02  0.00000000000E+00 0. -1.
         11    1    3    3    0    0 -0.39568456699E+01 -0.50351263689E+01  0.16303208018E+01  0.66081064901E+01  0.51100000000E-03 0. -1.
        -11    1    3    3    0    0 -0.11232793659E+02 -0.86178880220E+01 -0.80079407701E+01  0.16265631343E+02  0.51100000000E-03 0.  1.
        -12    1    3    3    0    0 -0.24855679685E+02 -0.16525358442E+01 -0.38521481084E+00  0.24913532021E+02  0.00000000000E+00 0.  1.
</event>
<event>
 7    1  0.2733256E-010  0.4778727E+02  0.7816164E-02  0.1312668E+00
        -11   -1    0    0    0    0  0.00000000000E+00  0.00000000000E+00  0.45593999997E+02  0.45594000000E+02  0.51100000000E-03 0. -1.
         11   -1    0    0    0    0 -0.00000000000E+00 -0.00000000000E+00 -0.45593999997E+02  0.45594000000E+02  0.51100000000E-03 0.  1.
    9900012    2    1    2    0    0  0.97224920222E+01  0.14244152563E+02 -0.39827132726E+02  0.47787271498E+02  0.20000002067E+02 0.  0.
         12    1    1    2    0    0 -0.97224920222E+01 -0.14244152563E+02  0.39827132726E+02  0.43400728502E+02  0.00000000000E+00 0. -1.
         11    1    3    3    0    0  0.55073465018E+01  0.77182916587E+01 -0.65032102383E+01  0.11497592587E+02  0.51100000000E-03 0. -1.
        -11    1    3    3    0    0  0.81623329525E+01  0.58906211903E+01 -0.20180017035E+02  0.22551190324E+02  0.51100000000E-03 0.  1.
        -12    1    3    3    0    0 -0.39471874321E+01  0.63523971379E+00 -0.13143905453E+02  0.13738488587E+02  0.00000000000E+00 0.  1.
</event>
<event>
 7    1  0.2733256E-010  0.4778727E+02  0.7816164E-02  0.1312668E+00
        -11   -1    0    0    0    0  0.00000000000E+00  0.00000000000E+00  0.45593999997E+02  0.45594000000E+02  0.51100000000E-03 0.  1.
         11   -1    0    0    0    0 -0.00000000000E+00 -0.00000000000E+00 -0.45593999997E+02  0.45594000000E+02  0.51100000000E-03 0. -1.
    9900012    2    1    2    0    0 -0.22939450623E+02  0.18506546039E+02  0.31857697279E+02  0.47787268242E+02  0.19999987223E+02 0.  0.
         12    1    1    2    0    0  0.22939450623E+02 -0.18506546039E+02 -0.31857697279E+02  0.43400731758E+02  0.00000000000E+00 0. -1.
         11    1    3    3    0    0 -0.13576696603E+02  0.89481015248E+01  0.75176604917E+01  0.17913973068E+02  0.51100000000E-03 0.  1.
        -11    1    3    3    0    0 -0.16209364708E+01 -0.22537892096E+01  0.19189661811E+01  0.33748233004E+01  0.51100000000E-03 0. -1.
        -12    1    3    3    0    0 -0.77418175491E+01  0.11812233724E+02  0.22421070606E+02  0.26498471874E+02  0.00000000000E+00 0.  1.
</event>
<event>
 7    1  0.2733256E-010  0.4778727E+02  0.7816164E-02  0.1312668E+00
        -11   -1    0    0    0    0  0.00000000000E+00  0.00000000000E+00  0.45593999997E+02  0.45594000000E+02  0.51100000000E-03 0.  1.
         11   -1    0    0    0    0 -0.00000000000E+00 -0.00000000000E+00 -0.45593999997E+02  0.45594000000E+02  0.51100000000E-03 0. -1.
    9900012    2    1    2    0    0  0.14990574208E+02 -0.22576085795E+02  0.33900238674E+02  0.47787272505E+02  0.20000006662E+02 0.  0.
         12    1    1    2    0    0 -0.14990574208E+02  0.22576085795E+02 -0.33900238674E+02  0.43400727495E+02  0.00000000000E+00 0. -1.
         11    1    3    3    0    0  0.68626581708E+01 -0.41092710781E+01  0.99846631173E+00  0.80609627960E+01  0.51100000000E-03 0. -1.
        -11    1    3    3    0    0  0.47193032868E+01 -0.10570664052E+02  0.10123361612E+02  0.15378335820E+02  0.51100000000E-03 0.  1.
         12    1    3    3    0    0  0.34086127505E+01 -0.78961506652E+01  0.22778410750E+02  0.24347973889E+02  0.00000000000E+00 0. -1.
</event>
<event>
 7    1  0.2733256E-010  0.4778727E+02  0.7816164E-02  0.1312668E+00
        -11   -1    0    0    0    0  0.00000000000E+00  0.00000000000E+00  0.45593999997E+02  0.45594000000E+02  0.51100000000E-03 0.  1.
         11   -1    0    0    0    0 -0.00000000000E+00 -0.00000000000E+00 -0.45593999997E+02  0.45594000000E+02  0.51100000000E-03 0. -1.
    9900012    2    1    2    0    0  0.28618355688E+02 -0.67024989054E+01  0.31932575262E+02  0.47787272625E+02  0.20000007206E+02 0.  0.
         12    1    1    2    0    0 -0.28618355688E+02  0.67024989054E+01 -0.31932575262E+02  0.43400727375E+02  0.00000000000E+00 0. -1.
         11    1    3    3    0    0  0.29055695812E+01  0.19157520360E+01  0.27369469586E+01  0.44275635930E+01  0.51100000000E-03 0. -1.
        -11    1    3    3    0    0  0.46199207853E+01 -0.98773249158E+01  0.91720018527E+01  0.14248888862E+02  0.51100000000E-03 0.  1.
        -12    1    3    3    0    0  0.21092865321E+02  0.12590739744E+01  0.20023626450E+02  0.29110820170E+02  0.00000000000E+00 0.  1.
</event>
<event>
 7    1  0.2733256E-010  0.4778727E+02  0.7816164E-02  0.1312668E+00
        -11   -1    0    0    0    0  0.00000000000E+00  0.00000000000E+00  0.45593999997E+02  0.45594000000E+02  0.51100000000E-03 0.  1.
         11   -1    0    0    0    0 -0.00000000000E+00 -0.00000000000E+00 -0.45593999997E+02  0.45594000000E+02  0.51100000000E-03 0. -1.
    9900012    2    1    2    0    0 -0.24303139807E+02 -0.21005979501E+02  0.29184404412E+02  0.47787271433E+02  0.20000001773E+02 0.  0.
         12    1    1    2    0    0  0.24303139807E+02  0.21005979501E+02 -0.29184404412E+02  0.43400728567E+02  0.00000000000E+00 0. -1.
         11    1    3    3    0    0 -0.27255722129E+01 -0.76283205285E+01  0.28595134684E+01  0.85905084547E+01  0.51100000000E-03 0. -1.
        -11    1    3    3    0    0 -0.44678177552E+01 -0.74504692259E+01  0.20739117643E+01  0.89315170854E+01  0.51100000000E-03 0.  1.
        -12    1    3    3    0    0 -0.17109749839E+02 -0.59271897461E+01  0.24250979179E+02  0.30265245893E+02  0.00000000000E+00 0.  1.
</event>
<event>
 7    1  0.2733256E-010  0.4778726E+02  0.7816164E-02  0.1312668E+00
        -11   -1    0    0    0    0  0.00000000000E+00  0.00000000000E+00  0.45593999997E+02  0.45594000000E+02  0.51100000000E-03 0. -1.
         11   -1    0    0    0    0 -0.00000000000E+00 -0.00000000000E+00 -0.45593999997E+02  0.45594000000E+02  0.51100000000E-03 0.  1.
    9900012    2    1    2    0    0 -0.79252585749E+01  0.42061648804E+02 -0.71855269079E+01  0.47787264747E+02  0.19999971285E+02 0.  0.
         12    1    1    2    0    0  0.79252585749E+01 -0.42061648804E+02  0.71855269079E+01  0.43400735253E+02  0.00000000000E+00 0. -1.
         11    1    3    3    0    0 -0.11035347960E+02  0.22313960036E+02 -0.89323942591E+01  0.26447672574E+02  0.51100000000E-03 0. -1.
        -11    1    3    3    0    0  0.18149029287E+01  0.82432014854E+01 -0.28126544383E+01  0.88969246720E+01  0.51100000000E-03 0.  1.
        -12    1    3    3    0    0  0.12951864565E+01  0.11504487282E+02  0.45595217894E+01  0.12442667501E+02  0.00000000000E+00 0.  1.
</event>
<event>
 7    1  0.2733256E-010  0.4778732E+02  0.7816164E-02  0.1312668E+00
        -11   -1    0    0    0    0  0.00000000000E+00  0.00000000000E+00  0.45593999997E+02  0.45594000000E+02  0.51100000000E-03 0.  1.
         11   -1    0    0    0    0 -0.00000000000E+00 -0.00000000000E+00 -0.45593999997E+02  0.45594000000E+02  0.51100000000E-03 0. -1.
    9900012    2    1    2    0    0 -0.30604385789E+02 -0.30458345602E+01  0.30622111004E+02  0.47787317747E+02  0.20000212932E+02 0.  0.
         12    1    1    2    0    0  0.30604385789E+02  0.30458345602E+01 -0.30622111004E+02  0.43400682253E+02  0.00000000000E+00 0. -1.
         11    1    3    3    0    0 -0.14338396092E+02 -0.52671005564E+01  0.85488360177E+01  0.17504700748E+02  0.51100000000E-03 0. -1.
        -11    1    3    3    0    0 -0.10478331538E+02 -0.40713972865E+01  0.79335408756E+01  0.13759098036E+02  0.51100000000E-03 0.  1.
         12    1    3    3    0    0 -0.57876581589E+01  0.62926632828E+01  0.14139734111E+02  0.16523518962E+02  0.00000000000E+00 0. -1.
</event>
<event>
 7    1  0.2740701E-010  0.4778727E+02  0.7816164E-02  0.1312668E+00
        -11   -1    0    0    0    0  0.00000000000E+00  0.00000000000E+00  0.45593999997E+02  0.45594000000E+02  0.51100000000E-03 0. -1.
         11   -1    0    0    0    0 -0.00000000000E+00 -0.00000000000E+00 -0.45593999997E+02  0.45594000000E+02  0.51100000000E-03 0.  1.
    9900012    2    1    2    0    0  0.34775284093E+02  0.12318177436E+02 -0.22859691544E+02  0.47787269861E+02  0.19999994606E+02 0.  0.
         12    1    1    2    0    0 -0.34775284093E+02 -0.12318177436E+02  0.22859691544E+02  0.43400730139E+02  0.00000000000E+00 0. -1.
         11    1    3    3    0    0  0.48437807983E+01 -0.84631308446E+00  0.83409790771E+00  0.49874019127E+01  0.51100000000E-03 0. -1.
        -11    1    3    3    0    0  0.26653020648E+02  0.72272701327E+01 -0.13979615633E+02  0.30952327808E+02  0.51100000000E-03 0.  1.
        -12    1    3    3    0    0  0.32784826461E+01  0.59372203878E+01 -0.97141738189E+01  0.11847540140E+02  0.00000000000E+00 0.  1.
</event>
<event>
 7    1  0.2733256E-010  0.4778727E+02  0.7816164E-02  0.1312668E+00
        -11   -1    0    0    0    0  0.00000000000E+00  0.00000000000E+00  0.45593999997E+02  0.45594000000E+02  0.51100000000E-03 0. -1.
         11   -1    0    0    0    0 -0.00000000000E+00 -0.00000000000E+00 -0.45593999997E+02  0.45594000000E+02  0.51100000000E-03 0.  1.
    9900012    2    1    2    0    0 -0.24395934350E+02  0.16734151592E+02 -0.31755787234E+02  0.47787268841E+02  0.19999989953E+02 0.  0.
         12    1    1    2    0    0  0.24395934350E+02 -0.16734151592E+02  0.31755787234E+02  0.43400731159E+02  0.00000000000E+00 0. -1.
         11    1    3    3    0    0 -0.46378340170E+01  0.38987476159E+01 -0.89242426600E+01  0.10786651225E+02  0.51100000000E-03 0.  1.
        -11    1    3    3    0    0  0.97739181526E+00  0.12296469310E+01 -0.97492364937E+01  0.98749652559E+01  0.51100000000E-03 0. -1.
         12    1    3    3    0    0 -0.20735492149E+02  0.11605757045E+02 -0.13082308080E+02  0.27125652360E+02  0.00000000000E+00 0. -1.
</event>
<event>
 7    1  0.2733256E-010  0.4778728E+02  0.7816164E-02  0.1312668E+00
        -11   -1    0    0    0    0  0.00000000000E+00  0.00000000000E+00  0.45593999997E+02  0.45594000000E+02  0.51100000000E-03 0.  1.
         11   -1    0    0    0    0 -0.00000000000E+00 -0.00000000000E+00 -0.45593999997E+02  0.45594000000E+02  0.51100000000E-03 0. -1.
    9900012    2    1    2    0    0  0.20038260784E+02 -0.30012030484E+02  0.24111594272E+02  0.47787275958E+02  0.20000022405E+02 0.  0.
         12    1    1    2    0    0 -0.20038260784E+02  0.30012030484E+02 -0.24111594272E+02  0.43400724042E+02  0.00000000000E+00 0. -1.
         11    1    3    3    0    0  0.82847921021E+01 -0.86461607346E+01  0.31116705369E+01  0.12372403542E+02  0.51100000000E-03 0. -1.
        -11    1    3    3    0    0 -0.10659375522E+00 -0.58873488326E+01 -0.10480948638E+01  0.59808646206E+01  0.51100000000E-03 0.  1.
        -12    1    3    3    0    0  0.11860062437E+02 -0.15478520917E+02  0.22048018599E+02  0.29434007795E+02  0.00000000000E+00 0.  1.
</event>
<event>
 7    1  0.2733256E-010  0.4778727E+02  0.7816164E-02  0.1312668E+00
        -11   -1    0    0    0    0  0.00000000000E+00  0.00000000000E+00  0.45593999997E+02  0.45594000000E+02  0.51100000000E-03 0.  1.
         11   -1    0    0    0    0 -0.00000000000E+00 -0.00000000000E+00 -0.45593999997E+02  0.45594000000E+02  0.51100000000E-03 0. -1.
    9900012    2    1    2    0    0 -0.15392838219E+02  0.39669232381E+02  0.85461134313E+01  0.47787268198E+02  0.19999987022E+02 0.  0.
         12    1    1    2    0    0  0.15392838219E+02 -0.39669232381E+02 -0.85461134313E+01  0.43400731802E+02  0.00000000000E+00 0. -1.
         11    1    3    3    0    0 -0.29087722501E+01  0.23066045559E+02 -0.20694802658E+01  0.23340654716E+02  0.51100000000E-03 0.  1.
        -11    1    3    3    0    0 -0.59075640562E+01  0.11070193327E+02  0.28588162208E+01  0.12869394850E+02  0.51100000000E-03 0. -1.
        -12    1    3    3    0    0 -0.65765019128E+01  0.55329934960E+01  0.77567774763E+01  0.11577218632E+02  0.00000000000E+00 0.  1.
</event>
<event>
 7    1  0.2733256E-010  0.4778727E+02  0.7816164E-02  0.1312668E+00
        -11   -1    0    0    0    0  0.00000000000E+00  0.00000000000E+00  0.45593999997E+02  0.45594000000E+02  0.51100000000E-03 0.  1.
         11   -1    0    0    0    0 -0.00000000000E+00 -0.00000000000E+00 -0.45593999997E+02  0.45594000000E+02  0.51100000000E-03 0. -1.
    9900012    2    1    2    0    0  0.24231395663E+01 -0.29838866824E+01  0.43230175606E+02  0.47787271112E+02  0.20000000307E+02 0.  0.
         12    1    1    2    0    0 -0.24231395663E+01  0.29838866824E+01 -0.43230175606E+02  0.43400728888E+02  0.00000000000E+00 0. -1.
         11    1    3    3    0    0  0.54632931594E+01  0.45315192954E+01  0.11844435474E+02  0.13808435510E+02  0.51100000000E-03 0. -1.
        -11    1    3    3    0    0 -0.31391644630E+01  0.77614069390E+00  0.17574524036E+02  0.17869545133E+02  0.51100000000E-03 0.  1.
        -12    1    3    3    0    0  0.99010869928E-01 -0.82915466716E+01  0.13811216096E+02  0.16109290468E+02  0.00000000000E+00 0.  1.
</event>
<event>
 7    1  0.2866805E-010  0.4778727E+02  0.7816164E-02  0.1312668E+00
        -11   -1    0    0    0    0  0.00000000000E+00  0.00000000000E+00  0.45593999997E+02  0.45594000000E+02  0.51100000000E-03 0. -1.
         11   -1    0    0    0    0 -0.00000000000E+00 -0.00000000000E+00 -0.45593999997E+02  0.45594000000E+02  0.51100000000E-03 0.  1.
    9900012    2    1    2    0    0 -0.14607579814E+02  0.77934618844E+00 -0.40861162364E+02  0.47787270073E+02  0.19999995569E+02 0.  0.
         12    1    1    2    0    0  0.14607579814E+02 -0.77934618844E+00  0.40861162364E+02  0.43400729927E+02  0.00000000000E+00 0. -1.
         11    1    3    3    0    0  0.47044673123E+00 -0.30391400864E+01 -0.10036063819E+01  0.32349526461E+01  0.51100000000E-03 0. -1.
        -11    1    3    3    0    0 -0.20825404407E+00 -0.27404382077E+01 -0.11908584074E+02  0.12221609805E+02  0.51100000000E-03 0.  1.
        -12    1    3    3    0    0 -0.14869772501E+02  0.65589244825E+01 -0.27948971908E+02  0.32330707622E+02  0.00000000000E+00 0.  1.
</event>
<event>
 7    1  0.2733256E-010  0.4778727E+02  0.7816164E-02  0.1312668E+00
        -11   -1    0    0    0    0  0.00000000000E+00  0.00000000000E+00  0.45593999997E+02  0.45594000000E+02  0.51100000000E-03 0.  1.
         11   -1    0    0    0    0 -0.00000000000E+00 -0.00000000000E+00 -0.45593999997E+02  0.45594000000E+02  0.51100000000E-03 0. -1.
    9900012    2    1    2    0    0  0.43169774311E+01 -0.71344093672E+01  0.42592103310E+02  0.47787270103E+02  0.19999995709E+02 0.  0.
         12    1    1    2    0    0 -0.43169774311E+01  0.71344093672E+01 -0.42592103310E+02  0.43400729897E+02  0.00000000000E+00 0. -1.
         11    1    3    3    0    0  0.28296079262E+01 -0.30226742752E+01  0.13347855797E+02  0.13975281587E+02  0.51100000000E-03 0. -1.
        -11    1    3    3    0    0  0.62237591459E+01  0.31421917207E+01  0.19821682761E+02  0.21012083535E+02  0.51100000000E-03 0.  1.
         12    1    3    3    0    0 -0.47363896410E+01 -0.72539268127E+01  0.94225647520E+01  0.12799904982E+02  0.00000000000E+00 0. -1.
</event>
<event>
 7    1  0.2733256E-010  0.4778727E+02  0.7816164E-02  0.1312668E+00
        -11   -1    0    0    0    0  0.00000000000E+00  0.00000000000E+00  0.45593999997E+02  0.45594000000E+02  0.51100000000E-03 0.  1.
         11   -1    0    0    0    0 -0.00000000000E+00 -0.00000000000E+00 -0.45593999997E+02  0.45594000000E+02  0.51100000000E-03 0. -1.
    9900012    2    1    2    0    0 -0.19771630002E+02 -0.24010176845E+02  0.30269083262E+02  0.47787270207E+02  0.19999996181E+02 0.  0.
         12    1    1    2    0    0  0.19771630002E+02  0.24010176845E+02 -0.30269083262E+02  0.43400729793E+02  0.00000000000E+00 0. -1.
         11    1    3    3    0    0 -0.72711575489E+01 -0.64354335287E+01  0.21203650325E+01  0.99388372024E+01  0.51100000000E-03 0. -1.
        -11    1    3    3    0    0 -0.17944641019E+01 -0.50491222858E+01  0.14963031229E+00  0.53606088051E+01  0.51100000000E-03 0.  1.
        -12    1    3    3    0    0 -0.10706008351E+02 -0.12525621030E+02  0.27999087917E+02  0.32487824199E+02  0.00000000000E+00 0.  1.
</event>
<event>
 7    1  0.2733256E-010  0.4778727E+02  0.7816164E-02  0.1312668E+00
        -11   -1    0    0    0    0  0.00000000000E+00  0.00000000000E+00  0.45593999997E+02  0.45594000000E+02  0.51100000000E-03 0. -1.
         11   -1    0    0    0    0 -0.00000000000E+00 -0.00000000000E+00 -0.45593999997E+02  0.45594000000E+02  0.51100000000E-03 0.  1.
    9900012    2    1    2    0    0  0.27852163165E+02  0.33235398172E+02  0.18133975171E+01  0.47787273103E+02  0.20000009386E+02 0.  0.
         12    1    1    2    0    0 -0.27852163165E+02 -0.33235398172E+02 -0.18133975171E+01  0.43400726897E+02  0.00000000000E+00 0. -1.
         11    1    3    3    0    0  0.19259540809E+02  0.21767087182E+02  0.92972210729E+01  0.30515148967E+02  0.51100000000E-03 0. -1.
        -11    1    3    3    0    0  0.32275550113E+01  0.10339240395E+01 -0.63513583898E-01  0.33897115669E+01  0.51100000000E-03 0.  1.
        -12    1    3    3    0    0  0.53650673449E+01  0.10434386950E+02 -0.74203099718E+01  0.13882412569E+02  0.00000000000E+00 0.  1.
</event>
<event>
 7    1  0.2733256E-010  0.4778727E+02  0.7816164E-02  0.1312668E+00
        -11   -1    0    0    0    0  0.00000000000E+00  0.00000000000E+00  0.45593999997E+02  0.45594000000E+02  0.51100000000E-03 0.  1.
         11   -1    0    0    0    0 -0.00000000000E+00 -0.00000000000E+00 -0.45593999997E+02  0.45594000000E+02  0.51100000000E-03 0. -1.
    9900012    2    1    2    0    0 -0.38785869675E+02 -0.15970948224E+02  0.11144876779E+02  0.47787272448E+02  0.20000006398E+02 0.  0.
         12    1    1    2    0    0  0.38785869675E+02  0.15970948224E+02 -0.11144876779E+02  0.43400727552E+02  0.00000000000E+00 0. -1.
         11    1    3    3    0    0 -0.19397035659E+02 -0.16731619031E+02  0.30652115664E+01  0.25798984282E+02  0.51100000000E-03 0. -1.
        -11    1    3    3    0    0 -0.24217434621E+01  0.23007908221E+01  0.65572749868E+00  0.34041825182E+01  0.51100000000E-03 0.  1.
        -12    1    3    3    0    0 -0.16967090555E+02 -0.15401200148E+01  0.74239377140E+01  0.18584105648E+02  0.00000000000E+00 0.  1.
</event>
<event>
 7    1  0.2733256E-010  0.4778727E+02  0.7816164E-02  0.1312668E+00
        -11   -1    0    0    0    0  0.00000000000E+00  0.00000000000E+00  0.45593999997E+02  0.45594000000E+02  0.51100000000E-03 0.  1.
         11   -1    0    0    0    0 -0.00000000000E+00 -0.00000000000E+00 -0.45593999997E+02  0.45594000000E+02  0.51100000000E-03 0. -1.
    9900012    2    1    2    0    0 -0.31932345028E+02 -0.25110662329E+02  0.15277531239E+02  0.47787274403E+02  0.20000015311E+02 0.  0.
         12    1    1    2    0    0  0.31932345028E+02  0.25110662329E+02 -0.15277531239E+02  0.43400725597E+02  0.00000000000E+00 0. -1.
         11    1    3    3    0    0 -0.13391336275E+01 -0.10441226871E+02  0.23904857678E+01  0.10794763541E+02  0.51100000000E-03 0. -1.
        -11    1    3    3    0    0 -0.64180137610E+01 -0.55098239645E+00  0.77216209999E+00  0.64877358768E+01  0.51100000000E-03 0.  1.
         12    1    3    3    0    0 -0.24175197640E+02 -0.14118453062E+02  0.12114883371E+02  0.30504774985E+02  0.00000000000E+00 0. -1.
</event>
<event>
 7    1  0.2733256E-010  0.4778727E+02  0.7816164E-02  0.1312668E+00
        -11   -1    0    0    0    0  0.00000000000E+00  0.00000000000E+00  0.45593999997E+02  0.45594000000E+02  0.51100000000E-03 0.  1.
         11   -1    0    0    0    0 -0.00000000000E+00 -0.00000000000E+00 -0.45593999997E+02  0.45594000000E+02  0.51100000000E-03 0. -1.
    9900012    2    1    2    0    0 -0.26625092565E+02 -0.17592085761E+02  0.29415064101E+02  0.47787273836E+02  0.20000012726E+02 0.  0.
         12    1    1    2    0    0  0.26625092565E+02  0.17592085761E+02 -0.29415064101E+02  0.43400726164E+02  0.00000000000E+00 0. -1.
         11    1    3    3    0    0 -0.75507196929E+01 -0.43183830888E+01  0.37713179599E+00  0.87065509264E+01  0.51100000000E-03 0. -1.
        -11    1    3    3    0    0 -0.39294598728E+01 -0.54461992587E+01  0.18090273370E+01  0.69551650896E+01  0.51100000000E-03 0.  1.
         12    1    3    3    0    0 -0.15144912999E+02 -0.78275034137E+01  0.27228904968E+02  0.32125557820E+02  0.00000000000E+00 0. -1.
</event>
<event>
 7    1  0.2733256E-010  0.4778728E+02  0.7816164E-02  0.1312668E+00
        -11   -1    0    0    0    0  0.00000000000E+00  0.00000000000E+00  0.45593999997E+02  0.45594000000E+02  0.51100000000E-03 0. -1.
         11   -1    0    0    0    0 -0.00000000000E+00 -0.00000000000E+00 -0.45593999997E+02  0.45594000000E+02  0.51100000000E-03 0.  1.
    9900012    2    1    2    0    0 -0.84566662838E+01 -0.25032870278E+02 -0.34430549379E+02  0.47787279620E+02  0.20000039100E+02 0.  0.
         12    1    1    2    0    0  0.84566662838E+01  0.25032870278E+02  0.34430549379E+02  0.43400720380E+02  0.00000000000E+00 0. -1.
         11    1    3    3    0    0 -0.20198678651E+01 -0.60287963651E+01 -0.12319956300E+02  0.13863894665E+02  0.51100000000E-03 0. -1.
        -11    1    3    3    0    0 -0.58952443386E+01  0.50832454523E+00 -0.31179399898E+01  0.66883368409E+01  0.51100000000E-03 0.  1.
        -12    1    3    3    0    0 -0.54155408002E+00 -0.19512398458E+02 -0.18992653089E+02  0.27235048114E+02  0.00000000000E+00 0.  1.
</event>
<event>
 7    1  0.2733256E-010  0.4778728E+02  0.7816164E-02  0.1312668E+00
        -11   -1    0    0    0    0  0.00000000000E+00  0.00000000000E+00  0.45593999997E+02  0.45594000000E+02  0.51100000000E-03 0.  1.
         11   -1    0    0    0    0 -0.00000000000E+00 -0.00000000000E+00 -0.45593999997E+02  0.45594000000E+02  0.51100000000E-03 0. -1.
    9900012    2    1    2    0    0  0.33155505097E+02 -0.25836228694E+02 -0.10808508046E+02  0.47787284826E+02  0.20000062837E+02 0.  0.
         12    1    1    2    0    0 -0.33155505097E+02  0.25836228694E+02  0.10808508046E+02  0.43400715174E+02  0.00000000000E+00 0. -1.
         11    1    3    3    0    0  0.16730789225E+02 -0.47591702037E+01 -0.21673936644E+01  0.17529021783E+02  0.51100000000E-03 0. -1.
        -11    1    3    3    0    0  0.13927954995E+02 -0.96737260146E+01 -0.74566391690E+01  0.18524858254E+02  0.51100000000E-03 0.  1.
         12    1    3    3    0    0  0.24967608775E+01 -0.11403332476E+02 -0.11844752124E+01  0.11733404790E+02  0.00000000000E+00 0. -1.
</event>
<event>
 7    1  0.2733256E-010  0.4778727E+02  0.7816164E-02  0.1312668E+00
        -11   -1    0    0    0    0  0.00000000000E+00  0.00000000000E+00  0.45593999997E+02  0.45594000000E+02  0.51100000000E-03 0.  1.
         11   -1    0    0    0    0 -0.00000000000E+00 -0.00000000000E+00 -0.45593999997E+02  0.45594000000E+02  0.51100000000E-03 0. -1.
    9900012    2    1    2    0    0 -0.25619023485E+02  0.60050683447E+00  0.35027535435E+02  0.47787271764E+02  0.20000003279E+02 0.  0.
         12    1    1    2    0    0  0.25619023485E+02 -0.60050683447E+00 -0.35027535435E+02  0.43400728236E+02  0.00000000000E+00 0. -1.
         11    1    3    3    0    0  0.24732928588E+01 -0.21066585588E+01  0.75904583325E+01  0.82565274666E+01  0.51100000000E-03 0.  1.
        -11    1    3    3    0    0 -0.25290409572E+01 -0.11721386883E+00  0.12400500057E+01  0.28191331172E+01  0.51100000000E-03 0. -1.
        -12    1    3    3    0    0 -0.25563275386E+02  0.28243792621E+01  0.26197027097E+02  0.36711611180E+02  0.00000000000E+00 0.  1.
</event>
<event>
 7    1  0.2733256E-010  0.4778727E+02  0.7816164E-02  0.1312668E+00
        -11   -1    0    0    0    0  0.00000000000E+00  0.00000000000E+00  0.45593999997E+02  0.45594000000E+02  0.51100000000E-03 0.  1.
         11   -1    0    0    0    0 -0.00000000000E+00 -0.00000000000E+00 -0.45593999997E+02  0.45594000000E+02  0.51100000000E-03 0. -1.
    9900012    2    1    2    0    0 -0.17219903754E+02  0.37983520928E+02 -0.12014578632E+02  0.47787273657E+02  0.20000011912E+02 0.  0.
         12    1    1    2    0    0  0.17219903754E+02 -0.37983520928E+02  0.12014578632E+02  0.43400726343E+02  0.00000000000E+00 0. -1.
         11    1    3    3    0    0 -0.16521803483E+01  0.33972220548E+01  0.17438183781E+01  0.41607355587E+01  0.51100000000E-03 0. -1.
        -11    1    3    3    0    0  0.87568082274E+00  0.15959465860E+02 -0.89515072595E+01  0.18319411833E+02  0.51100000000E-03 0.  1.
        -12    1    3    3    0    0 -0.16443404228E+02  0.18626833013E+02 -0.48068897506E+01  0.25307126265E+02  0.00000000000E+00 0.  1.
</event>
<event>
 7    1  0.3057534E-010  0.4778727E+02  0.7816164E-02  0.1312668E+00
        -11   -1    0    0    0    0  0.00000000000E+00  0.00000000000E+00  0.45593999997E+02  0.45594000000E+02  0.51100000000E-03 0.  1.
         11   -1    0    0    0    0 -0.00000000000E+00 -0.00000000000E+00 -0.45593999997E+02  0.45594000000E+02  0.51100000000E-03 0. -1.
    9900012    2    1    2    0    0 -0.25300144511E+02  0.35080720967E+02  0.35873475100E+01  0.47787270075E+02  0.19999995581E+02 0.  0.
         12    1    1    2    0    0  0.25300144511E+02 -0.35080720967E+02 -0.35873475100E+01  0.43400729925E+02  0.00000000000E+00 0. -1.
         11    1    3    3    0    0 -0.11177974380E+01 -0.40470173938E+00 -0.20561032544E+01  0.23750400974E+01  0.51100000000E-03 0. -1.
        -11    1    3    3    0    0 -0.41191765428E+01  0.52161370412E+01  0.62055981887E+01  0.90931375314E+01  0.51100000000E-03 0.  1.
        -12    1    3    3    0    0 -0.20063170530E+02  0.30269285665E+02 -0.56214742433E+00  0.36319092446E+02  0.00000000000E+00 0.  1.
</event>
<event>
 7    1  0.2733256E-010  0.4778727E+02  0.7816164E-02  0.1312668E+00
        -11   -1    0    0    0    0  0.00000000000E+00  0.00000000000E+00  0.45593999997E+02  0.45594000000E+02  0.51100000000E-03 0. -1.
         11   -1    0    0    0    0 -0.00000000000E+00 -0.00000000000E+00 -0.45593999997E+02  0.45594000000E+02  0.51100000000E-03 0.  1.
    9900012    2    1    2    0    0  0.30520329495E+02  0.28188033600E+02 -0.12552599647E+02  0.47787268340E+02  0.19999987669E+02 0.  0.
         12    1    1    2    0    0 -0.30520329495E+02 -0.28188033600E+02  0.12552599647E+02  0.43400731660E+02  0.00000000000E+00 0. -1.
         11    1    3    3    0    0  0.17981772376E+01 -0.18842688374E+01  0.12375204280E+01  0.28836378934E+01  0.51100000000E-03 0. -1.
        -11    1    3    3    0    0  0.55592374887E+00  0.47052375170E+01 -0.63514074756E+00  0.47803467799E+01  0.51100000000E-03 0.  1.
         12    1    3    3    0    0  0.28166228509E+02  0.25367064920E+02 -0.13154979328E+02  0.40123283667E+02  0.00000000000E+00 0. -1.
</event>
<event>
 7    1  0.2733256E-010  0.4778727E+02  0.7816164E-02  0.1312668E+00
        -11   -1    0    0    0    0  0.00000000000E+00  0.00000000000E+00  0.45593999997E+02  0.45594000000E+02  0.51100000000E-03 0. -1.
         11   -1    0    0    0    0 -0.00000000000E+00 -0.00000000000E+00 -0.45593999997E+02  0.45594000000E+02  0.51100000000E-03 0.  1.
    9900012    2    1    2    0    0  0.30608855167E+02  0.19845385534E+02 -0.23513443547E+02  0.47787269947E+02  0.19999994998E+02 0.  0.
         12    1    1    2    0    0 -0.30608855167E+02 -0.19845385534E+02  0.23513443547E+02  0.43400730053E+02  0.00000000000E+00 0. -1.
         11    1    3    3    0    0  0.26043314596E+01  0.15874717763E+01  0.12944792225E+01  0.33133496210E+01  0.51100000000E-03 0. -1.
        -11    1    3    3    0    0  0.13362223093E+02  0.87483511253E+00 -0.48980854965E+01  0.14258526721E+02  0.51100000000E-03 0.  1.
        -12    1    3    3    0    0  0.14642300615E+02  0.17383078646E+02 -0.19909837273E+02  0.30215393606E+02  0.00000000000E+00 0.  1.
</event>
<event>
 7    1  0.2733256E-010  0.4778727E+02  0.7816164E-02  0.1312668E+00
        -11   -1    0    0    0    0  0.00000000000E+00  0.00000000000E+00  0.45593999997E+02  0.45594000000E+02  0.51100000000E-03 0.  1.
         11   -1    0    0    0    0 -0.00000000000E+00 -0.00000000000E+00 -0.45593999997E+02  0.45594000000E+02  0.51100000000E-03 0. -1.
    9900012    2    1    2    0    0  0.15898944096E+02 -0.80028917159E+00  0.40375814439E+02  0.47787270999E+02  0.19999999795E+02 0.  0.
         12    1    1    2    0    0 -0.15898944096E+02  0.80028917159E+00 -0.40375814439E+02  0.43400729001E+02  0.00000000000E+00 0. -1.
         11    1    3    3    0    0 -0.39962909606E+00 -0.43816742373E+01  0.37043170057E+01  0.57515856315E+01  0.51100000000E-03 0. -1.
        -11    1    3    3    0    0  0.54502208310E+01  0.66775063154E+01  0.10847903096E+02  0.13855359957E+02  0.51100000000E-03 0.  1.
        -12    1    3    3    0    0  0.10848352361E+02 -0.30961212497E+01  0.25823594337E+02  0.28180325410E+02  0.00000000000E+00 0.  1.
</event>
<event>
 7    1  0.2733256E-010  0.4778728E+02  0.7816164E-02  0.1312668E+00
        -11   -1    0    0    0    0  0.00000000000E+00  0.00000000000E+00  0.45593999997E+02  0.45594000000E+02  0.51100000000E-03 0.  1.
         11   -1    0    0    0    0 -0.00000000000E+00 -0.00000000000E+00 -0.45593999997E+02  0.45594000000E+02  0.51100000000E-03 0. -1.
    9900012    2    1    2    0    0  0.34655185174E+02  0.18845979366E+02  0.18096115826E+02  0.47787283350E+02  0.20000056107E+02 0.  0.
         12    1    1    2    0    0 -0.34655185174E+02 -0.18845979366E+02 -0.18096115826E+02  0.43400716650E+02  0.00000000000E+00 0. -1.
         11    1    3    3    0    0  0.50817980176E+01  0.83652768644E+01  0.45240966328E+01  0.10782855777E+02  0.51100000000E-03 0. -1.
        -11    1    3    3    0    0  0.21777224828E+02  0.13625621487E+02  0.79479992096E+01  0.26890068312E+02  0.51100000000E-03 0.  1.
         12    1    3    3    0    0  0.77961623284E+01 -0.31449189856E+01  0.56240199840E+01  0.10114359261E+02  0.00000000000E+00 0. -1.
</event>
<event>
 7    1  0.2733256E-010  0.4778727E+02  0.7816164E-02  0.1312668E+00
        -11   -1    0    0    0    0  0.00000000000E+00  0.00000000000E+00  0.45593999997E+02  0.45594000000E+02  0.51100000000E-03 0. -1.
         11   -1    0    0    0    0 -0.00000000000E+00 -0.00000000000E+00 -0.45593999997E+02  0.45594000000E+02  0.51100000000E-03 0.  1.
    9900012    2    1    2    0    0  0.56837445338E+01 -0.40848972705E+02 -0.13515907405E+02  0.47787271020E+02  0.19999999890E+02 0.  0.
         12    1    1    2    0    0 -0.56837445338E+01  0.40848972705E+02  0.13515907405E+02  0.43400728980E+02  0.00000000000E+00 0. -1.
         11    1    3    3    0    0 -0.12452302483E+01 -0.16757668076E+02 -0.21287742772E+01  0.16938173393E+02  0.51100000000E-03 0. -1.
        -11    1    3    3    0    0  0.90373375738E+01 -0.23516394585E+02 -0.73249777849E+01  0.26236417143E+02  0.51100000000E-03 0.  1.
         12    1    3    3    0    0 -0.21083627918E+01 -0.57491004473E+00 -0.40621553428E+01  0.46126804843E+01  0.00000000000E+00 0. -1.
</event>
<event>
 7    1  0.2733256E-010  0.4778727E+02  0.7816164E-02  0.1312668E+00
        -11   -1    0    0    0    0  0.00000000000E+00  0.00000000000E+00  0.45593999997E+02  0.45594000000E+02  0.51100000000E-03 0.  1.
         11   -1    0    0    0    0 -0.00000000000E+00 -0.00000000000E+00 -0.45593999997E+02  0.45594000000E+02  0.51100000000E-03 0. -1.
    9900012    2    1    2    0    0  0.20421086422E+02 -0.13918929960E+02  0.35677248102E+02  0.47787269430E+02  0.19999992639E+02 0.  0.
         12    1    1    2    0    0 -0.20421086422E+02  0.13918929960E+02 -0.35677248102E+02  0.43400730570E+02  0.00000000000E+00 0. -1.
         11    1    3    3    0    0  0.10570719571E+02 -0.58290720318E+01  0.20574385676E+02  0.23854214286E+02  0.51100000000E-03 0. -1.
        -11    1    3    3    0    0  0.28523155544E+01 -0.99931557529E+01  0.12434640020E+02  0.16205528026E+02  0.51100000000E-03 0.  1.
         12    1    3    3    0    0  0.69980512959E+01  0.19032978243E+01  0.26682224065E+01  0.77275271180E+01  0.00000000000E+00 0. -1.
</event>
<event>
 7    1  0.2733256E-010  0.4778727E+02  0.7816164E-02  0.1312668E+00
        -11   -1    0    0    0    0  0.00000000000E+00  0.00000000000E+00  0.45593999997E+02  0.45594000000E+02  0.51100000000E-03 0.  1.
         11   -1    0    0    0    0 -0.00000000000E+00 -0.00000000000E+00 -0.45593999997E+02  0.45594000000E+02  0.51100000000E-03 0. -1.
    9900012    2    1    2    0    0  0.19850026395E+02 -0.40766361070E+01  0.38379430675E+02  0.47787271794E+02  0.20000003420E+02 0.  0.
         12    1    1    2    0    0 -0.19850026395E+02  0.40766361070E+01 -0.38379430675E+02  0.43400728206E+02  0.00000000000E+00 0. -1.
         11    1    3    3    0    0 -0.10672177190E+01 -0.68765802319E-01 -0.79230834147E+00  0.13309527281E+01  0.51100000000E-03 0. -1.
        -11    1    3    3    0    0  0.55105183540E+01  0.18906486203E+01  0.21523821918E+02  0.22298324488E+02  0.51100000000E-03 0.  1.
        -12    1    3    3    0    0  0.15406725760E+02 -0.58985189250E+01  0.17647917098E+02  0.24157994579E+02  0.00000000000E+00 0.  1.
</event>
<event>
 7    1  0.2733256E-010  0.4778727E+02  0.7816164E-02  0.1312668E+00
        -11   -1    0    0    0    0  0.00000000000E+00  0.00000000000E+00  0.45593999997E+02  0.45594000000E+02  0.51100000000E-03 0.  1.
         11   -1    0    0    0    0 -0.00000000000E+00 -0.00000000000E+00 -0.45593999997E+02  0.45594000000E+02  0.51100000000E-03 0. -1.
    9900012    2    1    2    0    0 -0.40339415208E+02 -0.49716950334E+01  0.15219626344E+02  0.47787271932E+02  0.20000004045E+02 0.  0.
         12    1    1    2    0    0  0.40339415208E+02  0.49716950334E+01 -0.15219626344E+02  0.43400728068E+02  0.00000000000E+00 0. -1.
         11    1    3    3    0    0 -0.53355755624E+01  0.32686171206E+01  0.58388634244E+01  0.85583030334E+01  0.51100000000E-03 0. -1.
        -11    1    3    3    0    0 -0.18997358451E+02 -0.16401780315E+00  0.96284560134E+01  0.21298678256E+02  0.51100000000E-03 0.  1.
         12    1    3    3    0    0 -0.16006481194E+02 -0.80762943508E+01 -0.24769309365E+00  0.17930290643E+02  0.00000000000E+00 0. -1.
</event>
<event>
 7    1  0.2733256E-010  0.4778728E+02  0.7816164E-02  0.1312668E+00
        -11   -1    0    0    0    0  0.00000000000E+00  0.00000000000E+00  0.45593999997E+02  0.45594000000E+02  0.51100000000E-03 0. -1.
         11   -1    0    0    0    0 -0.00000000000E+00 -0.00000000000E+00 -0.45593999997E+02  0.45594000000E+02  0.51100000000E-03 0.  1.
    9900012    2    1    2    0    0  0.16047644361E+00 -0.15789236076E+02 -0.40426440634E+02  0.47787276148E+02  0.20000023269E+02 0.  0.
         12    1    1    2    0    0 -0.16047644361E+00  0.15789236076E+02  0.40426440634E+02  0.43400723852E+02  0.00000000000E+00 0. -1.
         11    1    3    3    0    0 -0.41857299430E+01 -0.40492024375E+01 -0.66603322777E+01  0.88473952012E+01  0.51100000000E-03 0.  1.
        -11    1    3    3    0    0 -0.23691164298E+00  0.34586346136E+01 -0.72233618932E+01  0.80121930717E+01  0.51100000000E-03 0. -1.
        -12    1    3    3    0    0  0.45831180296E+01 -0.15198668252E+02 -0.26542746463E+02  0.30927687875E+02  0.00000000000E+00 0.  1.
</event>
<event>
 7    1  0.2733256E-010  0.4778727E+02  0.7816164E-02  0.1312668E+00
        -11   -1    0    0    0    0  0.00000000000E+00  0.00000000000E+00  0.45593999997E+02  0.45594000000E+02  0.51100000000E-03 0.  1.
         11   -1    0    0    0    0 -0.00000000000E+00 -0.00000000000E+00 -0.45593999997E+02  0.45594000000E+02  0.51100000000E-03 0. -1.
    9900012    2    1    2    0    0 -0.31535725952E+02  0.21884069129E+02  0.20253613059E+02  0.47787270341E+02  0.19999996794E+02 0.  0.
         12    1    1    2    0    0  0.31535725952E+02 -0.21884069129E+02 -0.20253613059E+02  0.43400729659E+02  0.00000000000E+00 0. -1.
         11    1    3    3    0    0 -0.51696078655E+00 -0.84994545145E+00  0.25719550571E+01  0.27576455179E+01  0.51100000000E-03 0. -1.
        -11    1    3    3    0    0 -0.49966984604E+01 -0.21034571520E+01  0.27771215539E+01  0.60912996873E+01  0.51100000000E-03 0.  1.
        -12    1    3    3    0    0 -0.26022066705E+02  0.24837471733E+02  0.14904536448E+02  0.38938325136E+02  0.00000000000E+00 0.  1.
</event>
<event>
 7    1  0.2733256E-010  0.4778727E+02  0.7816164E-02  0.1312668E+00
        -11   -1    0    0    0    0  0.00000000000E+00  0.00000000000E+00  0.45593999997E+02  0.45594000000E+02  0.51100000000E-03 0.  1.
         11   -1    0    0    0    0 -0.00000000000E+00 -0.00000000000E+00 -0.45593999997E+02  0.45594000000E+02  0.51100000000E-03 0. -1.
    9900012    2    1    2    0    0  0.26116126315E+02  0.32945675353E+02  0.10777451031E+02  0.47787273867E+02  0.20000012871E+02 0.  0.
         12    1    1    2    0    0 -0.26116126315E+02 -0.32945675353E+02 -0.10777451031E+02  0.43400726133E+02  0.00000000000E+00 0. -1.
         11    1    3    3    0    0  0.96463723773E+01  0.13410531655E+02  0.10653073739E+02  0.19656623303E+02  0.51100000000E-03 0.  1.
        -11    1    3    3    0    0  0.97824534731E+01  0.44821615439E+01  0.35028378312E+01  0.11316184922E+02  0.51100000000E-03 0. -1.
         12    1    3    3    0    0  0.66873004642E+01  0.15052982154E+02 -0.33784605400E+01  0.16814465642E+02  0.00000000000E+00 0. -1.
</event>
<event>
 7    1  0.2733256E-010  0.4778727E+02  0.7816164E-02  0.1312668E+00
        -11   -1    0    0    0    0  0.00000000000E+00  0.00000000000E+00  0.45593999997E+02  0.45594000000E+02  0.51100000000E-03 0.  1.
         11   -1    0    0    0    0 -0.00000000000E+00 -0.00000000000E+00 -0.45593999997E+02  0.45594000000E+02  0.51100000000E-03 0. -1.
    9900012    2    1    2    0    0  0.26678052688E+02 -0.33359283746E+02 -0.76852551815E+01  0.47787268964E+02  0.19999990513E+02 0.  0.
         12    1    1    2    0    0 -0.26678052688E+02  0.33359283746E+02  0.76852551815E+01  0.43400731036E+02  0.00000000000E+00 0. -1.
         11    1    3    3    0    0 -0.92233820466E+00 -0.15951498667E+01  0.88011424506E+00  0.20420118037E+01  0.51100000000E-03 0. -1.
        -11    1    3    3    0    0  0.20808599564E+02 -0.12733699680E+02 -0.19053762287E+01  0.24469887253E+02  0.51100000000E-03 0.  1.
        -12    1    3    3    0    0  0.67917913286E+01 -0.19030434200E+02 -0.66599931979E+01  0.21275369907E+02  0.00000000000E+00 0.  1.
</event>
<event>
 7    1  0.2733256E-010  0.4778725E+02  0.7816164E-02  0.1312668E+00
        -11   -1    0    0    0    0  0.00000000000E+00  0.00000000000E+00  0.45593999997E+02  0.45594000000E+02  0.51100000000E-03 0. -1.
         11   -1    0    0    0    0 -0.00000000000E+00 -0.00000000000E+00 -0.45593999997E+02  0.45594000000E+02  0.51100000000E-03 0.  1.
    9900012    2    1    2    0    0  0.71016016873E+01 -0.26635758554E+02 -0.33522058526E+02  0.47787253600E+02  0.19999920464E+02 0.  0.
         12    1    1    2    0    0 -0.71016016873E+01  0.26635758554E+02  0.33522058526E+02  0.43400746400E+02  0.00000000000E+00 0. -1.
         11    1    3    3    0    0  0.31756703447E+01 -0.42352817301E+00  0.41978412821E+00  0.32311727325E+01  0.51100000000E-03 0. -1.
        -11    1    3    3    0    0  0.30616497597E+01 -0.16623934002E+02 -0.12409672541E+02  0.20969712773E+02  0.51100000000E-03 0.  1.
         12    1    3    3    0    0  0.86428158292E+00 -0.95882963783E+01 -0.21532170113E+02  0.23586368094E+02  0.00000000000E+00 0. -1.
</event>
<event>
 7    1  0.2733256E-010  0.4778727E+02  0.7816164E-02  0.1312668E+00
        -11   -1    0    0    0    0  0.00000000000E+00  0.00000000000E+00  0.45593999997E+02  0.45594000000E+02  0.51100000000E-03 0. -1.
         11   -1    0    0    0    0 -0.00000000000E+00 -0.00000000000E+00 -0.45593999997E+02  0.45594000000E+02  0.51100000000E-03 0.  1.
    9900012    2    1    2    0    0  0.38282274814E+02  0.19204608474E+02 -0.70195172616E+01  0.47787272193E+02  0.20000005236E+02 0.  0.
         12    1    1    2    0    0 -0.38282274814E+02 -0.19204608474E+02  0.70195172616E+01  0.43400727807E+02  0.00000000000E+00 0. -1.
         11    1    3    3    0    0  0.48741982598E+01  0.21839215643E+01  0.43676320846E+01  0.68995313147E+01  0.51100000000E-03 0. -1.
        -11    1    3    3    0    0  0.10754342193E+02  0.96331599560E+01  0.93682697133E-01  0.14438227850E+02  0.51100000000E-03 0.  1.
        -12    1    3    3    0    0  0.22653734362E+02  0.73875269537E+01 -0.11480832043E+02  0.26449513028E+02  0.00000000000E+00 0.  1.
</event>
<event>
 7    1  0.2733256E-010  0.4778727E+02  0.7816164E-02  0.1312668E+00
        -11   -1    0    0    0    0  0.00000000000E+00  0.00000000000E+00  0.45593999997E+02  0.45594000000E+02  0.51100000000E-03 0.  1.
         11   -1    0    0    0    0 -0.00000000000E+00 -0.00000000000E+00 -0.45593999997E+02  0.45594000000E+02  0.51100000000E-03 0. -1.
    9900012    2    1    2    0    0 -0.40923381994E+02 -0.14166813327E+02 -0.28638281586E+01  0.47787270681E+02  0.19999998344E+02 0.  0.
         12    1    1    2    0    0  0.40923381994E+02  0.14166813327E+02  0.28638281586E+01  0.43400729319E+02  0.00000000000E+00 0. -1.
         11    1    3    3    0    0 -0.31703478120E+01 -0.34103564534E+01 -0.86347153487E-02  0.46563624437E+01  0.51100000000E-03 0. -1.
        -11    1    3    3    0    0 -0.69211645415E+01  0.36067870879E+00  0.60151493732E+01  0.91768529456E+01  0.51100000000E-03 0.  1.
         12    1    3    3    0    0 -0.30831869640E+02 -0.11117135583E+02 -0.88703428164E+01  0.33954055292E+02  0.00000000000E+00 0. -1.
</event>
<event>
 7    1  0.2733256E-010  0.4778727E+02  0.7816164E-02  0.1312668E+00
        -11   -1    0    0    0    0  0.00000000000E+00  0.00000000000E+00  0.45593999997E+02  0.45594000000E+02  0.51100000000E-03 0. -1.
         11   -1    0    0    0    0 -0.00000000000E+00 -0.00000000000E+00 -0.45593999997E+02  0.45594000000E+02  0.51100000000E-03 0.  1.
    9900012    2    1    2    0    0  0.67766684454E+01  0.41767429579E+02 -0.96530742816E+01  0.47787271297E+02  0.20000001153E+02 0.  0.
         12    1    1    2    0    0 -0.67766684454E+01 -0.41767429579E+02  0.96530742816E+01  0.43400728703E+02  0.00000000000E+00 0. -1.
         11    1    3    3    0    0  0.37630735810E+01  0.26479025641E+02 -0.52872774810E+01  0.27262700253E+02  0.51100000000E-03 0. -1.
        -11    1    3    3    0    0  0.68752980671E+01  0.10568052639E+02 -0.63429737885E+01  0.14113354557E+02  0.51100000000E-03 0.  1.
         12    1    3    3    0    0 -0.38617032027E+01  0.47203512985E+01  0.19771769879E+01  0.64112164874E+01  0.00000000000E+00 0. -1.
</event>
<event>
 7    1  0.2733256E-010  0.4778727E+02  0.7816164E-02  0.1312668E+00
        -11   -1    0    0    0    0  0.00000000000E+00  0.00000000000E+00  0.45593999997E+02  0.45594000000E+02  0.51100000000E-03 0. -1.
         11   -1    0    0    0    0 -0.00000000000E+00 -0.00000000000E+00 -0.45593999997E+02  0.45594000000E+02  0.51100000000E-03 0.  1.
    9900012    2    1    2    0    0  0.22463038744E+02  0.26976703764E+02 -0.25520432890E+02  0.47787272466E+02  0.20000006482E+02 0.  0.
         12    1    1    2    0    0 -0.22463038744E+02 -0.26976703764E+02  0.25520432890E+02  0.43400727534E+02  0.00000000000E+00 0. -1.
         11    1    3    3    0    0  0.32111223146E+00 -0.25362141123E+01 -0.37780051186E+00  0.25842268818E+01  0.51100000000E-03 0. -1.
        -11    1    3    3    0    0  0.27442752503E+01  0.74337238932E+01 -0.75789016047E+01  0.10964991900E+02  0.51100000000E-03 0.  1.
        -12    1    3    3    0    0  0.19397651262E+02  0.22079193983E+02 -0.17563730773E+02  0.34238053685E+02  0.00000000000E+00 0.  1.
</event>
<event>
 7    1  0.2733256E-010  0.4778727E+02  0.7816164E-02  0.1312668E+00
        -11   -1    0    0    0    0  0.00000000000E+00  0.00000000000E+00  0.45593999997E+02  0.45594000000E+02  0.51100000000E-03 0.  1.
         11   -1    0    0    0    0 -0.00000000000E+00 -0.00000000000E+00 -0.45593999997E+02  0.45594000000E+02  0.51100000000E-03 0. -1.
    9900012    2    1    2    0    0 -0.27408162542E+02 -0.24885871612E+02  0.22651919113E+02  0.47787269369E+02  0.19999992359E+02 0.  0.
         12    1    1    2    0    0  0.27408162542E+02  0.24885871612E+02 -0.22651919113E+02  0.43400730631E+02  0.00000000000E+00 0. -1.
         11    1    3    3    0    0 -0.96777650602E+01 -0.11051837969E+02  0.10760384579E+02  0.18209561653E+02  0.51100000000E-03 0. -1.
        -11    1    3    3    0    0 -0.14556906508E+02 -0.12882110050E+02  0.15364821411E+02  0.24777611340E+02  0.51100000000E-03 0.  1.
         12    1    3    3    0    0 -0.31734909739E+01 -0.95192359295E+00 -0.34732868769E+01  0.48000963758E+01  0.00000000000E+00 0. -1.
</event>
<event>
 7    1  0.2733256E-010  0.4778725E+02  0.7816164E-02  0.1312668E+00
        -11   -1    0    0    0    0  0.00000000000E+00  0.00000000000E+00  0.45593999997E+02  0.45594000000E+02  0.51100000000E-03 0.  1.
         11   -1    0    0    0    0 -0.00000000000E+00 -0.00000000000E+00 -0.45593999997E+02  0.45594000000E+02  0.51100000000E-03 0. -1.
    9900012    2    1    2    0    0  0.12696227588E+02 -0.24736621091E+01  0.41428395224E+02  0.47787249661E+02  0.19999902504E+02 0.  0.
         12    1    1    2    0    0 -0.12696227588E+02  0.24736621091E+01 -0.41428395224E+02  0.43400750339E+02  0.00000000000E+00 0. -1.
         11    1    3    3    0    0 -0.30886384519E+01  0.39600189798E-01  0.88232567930E+01  0.93483215797E+01  0.51100000000E-03 0. -1.
        -11    1    3    3    0    0 -0.16222257505E+01 -0.12510924326E+01  0.80933506620E+01  0.83486031083E+01  0.51100000000E-03 0.  1.
        -12    1    3    3    0    0  0.17407091790E+02 -0.12621698663E+01  0.24511787769E+02  0.30090324973E+02  0.00000000000E+00 0.  1.
</event>
<event>
 7    1  0.2733256E-010  0.4778727E+02  0.7816164E-02  0.1312668E+00
        -11   -1    0    0    0    0  0.00000000000E+00  0.00000000000E+00  0.45593999997E+02  0.45594000000E+02  0.51100000000E-03 0.  1.
         11   -1    0    0    0    0 -0.00000000000E+00 -0.00000000000E+00 -0.45593999997E+02  0.45594000000E+02  0.51100000000E-03 0. -1.
    9900012    2    1    2    0    0  0.12850747342E+02 -0.16202423669E+02  0.38157085191E+02  0.47787269703E+02  0.19999993883E+02 0.  0.
         12    1    1    2    0    0 -0.12850747342E+02  0.16202423669E+02 -0.38157085191E+02  0.43400730297E+02  0.00000000000E+00 0. -1.
         11    1    3    3    0    0  0.30389840840E+01  0.52604327870E+00 -0.77014095074E+00  0.31788776540E+01  0.51100000000E-03 0. -1.
        -11    1    3    3    0    0  0.24422152298E+01 -0.42935220049E+00  0.99840104431E+00  0.26731186744E+01  0.51100000000E-03 0.  1.
        -12    1    3    3    0    0  0.73695480287E+01 -0.16299114747E+02  0.37928825098E+02  0.41935273375E+02  0.00000000000E+00 0.  1.
</event>
<event>
 7    1  0.2733256E-010  0.4778727E+02  0.7816164E-02  0.1312668E+00
        -11   -1    0    0    0    0  0.00000000000E+00  0.00000000000E+00  0.45593999997E+02  0.45594000000E+02  0.51100000000E-03 0.  1.
         11   -1    0    0    0    0 -0.00000000000E+00 -0.00000000000E+00 -0.45593999997E+02  0.45594000000E+02  0.51100000000E-03 0. -1.
    9900012    2    1    2    0    0  0.28008263508E+02  0.36194936216E+01  0.32955419578E+02  0.47787271453E+02  0.20000001865E+02 0.  0.
         12    1    1    2    0    0 -0.28008263508E+02 -0.36194936216E+01 -0.32955419578E+02  0.43400728547E+02  0.00000000000E+00 0. -1.
         11    1    3    3    0    0  0.87371665097E+01  0.15715955829E+01  0.40328438756E+01  0.97504780027E+01  0.51100000000E-03 0. -1.
        -11    1    3    3    0    0  0.17650583627E+02  0.56652334270E+00  0.12912452941E+02  0.21876825462E+02  0.51100000000E-03 0.  1.
         12    1    3    3    0    0  0.16205133714E+01  0.14813746960E+01  0.16010122761E+02  0.16159967989E+02  0.00000000000E+00 0. -1.
</event>
<event>
 7    1  0.2733256E-010  0.4778727E+02  0.7816164E-02  0.1312668E+00
        -11   -1    0    0    0    0  0.00000000000E+00  0.00000000000E+00  0.45593999997E+02  0.45594000000E+02  0.51100000000E-03 0.  1.
         11   -1    0    0    0    0 -0.00000000000E+00 -0.00000000000E+00 -0.45593999997E+02  0.45594000000E+02  0.51100000000E-03 0. -1.
    9900012    2    1    2    0    0  0.10987617516E+02 -0.14754983119E+02  0.39308858774E+02  0.47787266785E+02  0.19999980577E+02 0.  0.
         12    1    1    2    0    0 -0.10987617516E+02  0.14754983119E+02 -0.39308858774E+02  0.43400733215E+02  0.00000000000E+00 0. -1.
         11    1    3    3    0    0  0.26986520291E+01 -0.13509174610E+02  0.18859957526E+02  0.23355481574E+02  0.51100000000E-03 0.  1.
        -11    1    3    3    0    0  0.13539605904E+01 -0.27771549408E+01  0.15427579442E+02  0.15733912627E+02  0.51100000000E-03 0. -1.
        -12    1    3    3    0    0  0.69350048964E+01  0.15313464313E+01  0.50213218063E+01  0.86978725840E+01  0.00000000000E+00 0.  1.
</event>
<event>
 7    1  0.2733256E-010  0.4778727E+02  0.7816164E-02  0.1312668E+00
        -11   -1    0    0    0    0  0.00000000000E+00  0.00000000000E+00  0.45593999997E+02  0.45594000000E+02  0.51100000000E-03 0.  1.
         11   -1    0    0    0    0 -0.00000000000E+00 -0.00000000000E+00 -0.45593999997E+02  0.45594000000E+02  0.51100000000E-03 0. -1.
    9900012    2    1    2    0    0 -0.39813844576E+02  0.83330786202E+01  0.15134086338E+02  0.47787274332E+02  0.20000014988E+02 0.  0.
         12    1    1    2    0    0  0.39813844576E+02 -0.83330786202E+01 -0.15134086338E+02  0.43400725668E+02  0.00000000000E+00 0. -1.
         11    1    3    3    0    0 -0.12766683425E+02  0.36804484673E+01 -0.24085140240E+01  0.13503142103E+02  0.51100000000E-03 0. -1.
        -11    1    3    3    0    0 -0.20377655422E+02  0.49861641956E+01  0.76120561929E+01  0.22317125120E+02  0.51100000000E-03 0.  1.
        -12    1    3    3    0    0 -0.66695057295E+01 -0.33353404271E+00  0.99305441695E+01  0.11967007109E+02  0.00000000000E+00 0.  1.
</event>
<event>
 7    1  0.2733256E-010  0.4778728E+02  0.7816164E-02  0.1312668E+00
        -11   -1    0    0    0    0  0.00000000000E+00  0.00000000000E+00  0.45593999997E+02  0.45594000000E+02  0.51100000000E-03 0.  1.
         11   -1    0    0    0    0 -0.00000000000E+00 -0.00000000000E+00 -0.45593999997E+02  0.45594000000E+02  0.51100000000E-03 0. -1.
    9900012    2    1    2    0    0 -0.21930075631E+02 -0.19011248285E+02  0.32268663523E+02  0.47787280834E+02  0.20000044636E+02 0.  0.
         12    1    1    2    0    0  0.21930075631E+02  0.19011248285E+02 -0.32268663523E+02  0.43400719166E+02  0.00000000000E+00 0. -1.
         11    1    3    3    0    0 -0.10478433690E+02 -0.50487222960E+01  0.14666601341E+02  0.18718877225E+02  0.51100000000E-03 0. -1.
        -11    1    3    3    0    0 -0.39766550777E+01 -0.60364260451E+01  0.16626554132E+02  0.18129934572E+02  0.51100000000E-03 0.  1.
         12    1    3    3    0    0 -0.74749868639E+01 -0.79260999435E+01  0.97550805002E+00  0.10938469038E+02  0.00000000000E+00 0. -1.
</event>
<event>
 7    1  0.2733256E-010  0.4778727E+02  0.7816164E-02  0.1312668E+00
        -11   -1    0    0    0    0  0.00000000000E+00  0.00000000000E+00  0.45593999997E+02  0.45594000000E+02  0.51100000000E-03 0.  1.
         11   -1    0    0    0    0 -0.00000000000E+00 -0.00000000000E+00 -0.45593999997E+02  0.45594000000E+02  0.51100000000E-03 0. -1.
    9900012    2    1    2    0    0  0.26417898054E+01 -0.21268415647E+02  0.37739880315E+02  0.47787272775E+02  0.20000007889E+02 0.  0.
         12    1    1    2    0    0 -0.26417898054E+01  0.21268415647E+02 -0.37739880315E+02  0.43400727225E+02  0.00000000000E+00 0. -1.
         11    1    3    3    0    0 -0.42254070739E+01 -0.13670629584E+02  0.29072622541E+02  0.32403048620E+02  0.51100000000E-03 0. -1.
        -11    1    3    3    0    0  0.54161417869E-01  0.14113870728E+01  0.10639916391E+01  0.17683397291E+01  0.51100000000E-03 0.  1.
        -12    1    3    3    0    0  0.68130354615E+01 -0.90091731357E+01  0.76032661344E+01  0.13615884426E+02  0.00000000000E+00 0.  1.
</event>
<event>
 7    1  0.2733256E-010  0.4778727E+02  0.7816164E-02  0.1312668E+00
        -11   -1    0    0    0    0  0.00000000000E+00  0.00000000000E+00  0.45593999997E+02  0.45594000000E+02  0.51100000000E-03 0. -1.
         11   -1    0    0    0    0 -0.00000000000E+00 -0.00000000000E+00 -0.45593999997E+02  0.45594000000E+02  0.51100000000E-03 0.  1.
    9900012    2    1    2    0    0 -0.10351862314E+02  0.40649677954E+02  0.11138472250E+02  0.47787274946E+02  0.20000017789E+02 0.  0.
         12    1    1    2    0    0  0.10351862314E+02 -0.40649677954E+02 -0.11138472250E+02  0.43400725054E+02  0.00000000000E+00 0. -1.
         11    1    3    3    0    0  0.43282398321E+01  0.14665413449E+02  0.30552964105E+01  0.15593038449E+02  0.51100000000E-03 0. -1.
        -11    1    3    3    0    0 -0.93934531961E+00  0.33305816499E+01  0.41583102417E+01  0.54098695071E+01  0.51100000000E-03 0.  1.
        -12    1    3    3    0    0 -0.13740756826E+02  0.22653682856E+02  0.39248655978E+01  0.26784366990E+02  0.00000000000E+00 0.  1.
</event>
<event>
 7    1  0.2733256E-010  0.4778729E+02  0.7816164E-02  0.1312668E+00
        -11   -1    0    0    0    0  0.00000000000E+00  0.00000000000E+00  0.45593999997E+02  0.45594000000E+02  0.51100000000E-03 0.  1.
         11   -1    0    0    0    0 -0.00000000000E+00 -0.00000000000E+00 -0.45593999997E+02  0.45594000000E+02  0.51100000000E-03 0. -1.
    9900012    2    1    2    0    0 -0.84773337751E+01 -0.16655020307E+02  0.39170988390E+02  0.47787294697E+02  0.20000107843E+02 0.  0.
         12    1    1    2    0    0  0.84773337751E+01  0.16655020307E+02 -0.39170988390E+02  0.43400705303E+02  0.00000000000E+00 0. -1.
         11    1    3    3    0    0 -0.40920550204E+01 -0.11385170343E+01  0.19546618630E+02  0.20002785692E+02  0.51100000000E-03 0. -1.
        -11    1    3    3    0    0  0.81928513307E+00 -0.17816914367E+01  0.10077780401E+02  0.10266806251E+02  0.51100000000E-03 0.  1.
         12    1    3    3    0    0 -0.52045638877E+01 -0.13734811836E+02  0.95465893583E+01  0.17517702755E+02  0.00000000000E+00 0. -1.
</event>
<event>
 7    1  0.2733256E-010  0.4778727E+02  0.7816164E-02  0.1312668E+00
        -11   -1    0    0    0    0  0.00000000000E+00  0.00000000000E+00  0.45593999997E+02  0.45594000000E+02  0.51100000000E-03 0.  1.
         11   -1    0    0    0    0 -0.00000000000E+00 -0.00000000000E+00 -0.45593999997E+02  0.45594000000E+02  0.51100000000E-03 0. -1.
    9900012    2    1    2    0    0  0.28041543727E+02 -0.23370653907E+02  0.23475681012E+02  0.47787271462E+02  0.20000001906E+02 0.  0.
         12    1    1    2    0    0 -0.28041543727E+02  0.23370653907E+02 -0.23475681012E+02  0.43400728538E+02  0.00000000000E+00 0. -1.
         11    1    3    3    0    0  0.20580524785E+02 -0.17377219017E+02  0.18315632875E+02  0.32572813036E+02  0.51100000000E-03 0.  1.
        -11    1    3    3    0    0  0.49589476019E+01 -0.35718269877E+01  0.84470691914E+01  0.10426029327E+02  0.51100000000E-03 0. -1.
        -12    1    3    3    0    0  0.25020713406E+01 -0.24216079022E+01 -0.32870210550E+01  0.47884290996E+01  0.00000000000E+00 0.  1.
</event>
<event>
 7    1  0.2733256E-010  0.4778727E+02  0.7816164E-02  0.1312668E+00
        -11   -1    0    0    0    0  0.00000000000E+00  0.00000000000E+00  0.45593999997E+02  0.45594000000E+02  0.51100000000E-03 0.  1.
         11   -1    0    0    0    0 -0.00000000000E+00 -0.00000000000E+00 -0.45593999997E+02  0.45594000000E+02  0.51100000000E-03 0. -1.
    9900012    2    1    2    0    0 -0.24624357343E+02 -0.11886642394E+02  0.33704186381E+02  0.47787269343E+02  0.19999992244E+02 0.  0.
         12    1    1    2    0    0  0.24624357343E+02  0.11886642394E+02 -0.33704186381E+02  0.43400730657E+02  0.00000000000E+00 0. -1.
         11    1    3    3    0    0 -0.60868882558E+01 -0.48455300035E+01  0.19267992577E+02  0.20779434734E+02  0.51100000000E-03 0. -1.
        -11    1    3    3    0    0  0.96977332159E+00 -0.24000704772E+01  0.63422303510E+00  0.26651524741E+01  0.51100000000E-03 0.  1.
        -12    1    3    3    0    0 -0.19507242409E+02 -0.46410419135E+01  0.13801970768E+02  0.24342682135E+02  0.00000000000E+00 0.  1.
</event>
<event>
 7    1  0.2733256E-010  0.4778727E+02  0.7816164E-02  0.1312668E+00
        -11   -1    0    0    0    0  0.00000000000E+00  0.00000000000E+00  0.45593999997E+02  0.45594000000E+02  0.51100000000E-03 0.  1.
         11   -1    0    0    0    0 -0.00000000000E+00 -0.00000000000E+00 -0.45593999997E+02  0.45594000000E+02  0.51100000000E-03 0. -1.
    9900012    2    1    2    0    0 -0.26263446493E+02 -0.33305127477E+02  0.91990837995E+01  0.47787270966E+02  0.19999999641E+02 0.  0.
         12    1    1    2    0    0  0.26263446493E+02  0.33305127477E+02 -0.91990837995E+01  0.43400729034E+02  0.00000000000E+00 0. -1.
         11    1    3    3    0    0 -0.90598326560E+01 -0.20895570329E+02  0.12405376963E+02  0.25934509924E+02  0.51100000000E-03 0. -1.
        -11    1    3    3    0    0 -0.45075159268E+01 -0.49461789069E+01  0.35371720424E+00  0.67013059721E+01  0.51100000000E-03 0.  1.
         12    1    3    3    0    0 -0.12696097910E+02 -0.74633782416E+01 -0.35600103679E+01  0.15151455070E+02  0.00000000000E+00 0. -1.
</event>
<event>
 7    1  0.2733256E-010  0.4778728E+02  0.7816164E-02  0.1312668E+00
        -11   -1    0    0    0    0  0.00000000000E+00  0.00000000000E+00  0.45593999997E+02  0.45594000000E+02  0.51100000000E-03 0.  1.
         11   -1    0    0    0    0 -0.00000000000E+00 -0.00000000000E+00 -0.45593999997E+02  0.45594000000E+02  0.51100000000E-03 0. -1.
    9900012    2    1    2    0    0 -0.29709942984E+02  0.79851748279E+01 -0.30613382299E+02  0.47787275295E+02  0.20000019380E+02 0.  0.
         12    1    1    2    0    0  0.29709942984E+02 -0.79851748279E+01  0.30613382299E+02  0.43400724705E+02  0.00000000000E+00 0. -1.
         11    1    3    3    0    0 -0.10806642941E+02  0.83360489500E+01 -0.13930295708E+02  0.19501958428E+02  0.51100000000E-03 0. -1.
        -11    1    3    3    0    0 -0.97827033833E+01  0.57924375908E+01 -0.11346201533E+02  0.16062064257E+02  0.51100000000E-03 0.  1.
        -12    1    3    3    0    0 -0.91205966601E+01 -0.61433117129E+01 -0.53368850586E+01  0.12223252610E+02  0.00000000000E+00 0.  1.
</event>
<event>
 7    1  0.2733256E-010  0.4778729E+02  0.7816164E-02  0.1312668E+00
        -11   -1    0    0    0    0  0.00000000000E+00  0.00000000000E+00  0.45593999997E+02  0.45594000000E+02  0.51100000000E-03 0.  1.
         11   -1    0    0    0    0 -0.00000000000E+00 -0.00000000000E+00 -0.45593999997E+02  0.45594000000E+02  0.51100000000E-03 0. -1.
    9900012    2    1    2    0    0 -0.30404857003E+02  0.13002739441E+02  0.28108631592E+02  0.47787288804E+02  0.20000080972E+02 0.  0.
         12    1    1    2    0    0  0.30404857003E+02 -0.13002739441E+02 -0.28108631592E+02  0.43400711196E+02  0.00000000000E+00 0. -1.
         11    1    3    3    0    0 -0.72549539618E+01 -0.25166661763E+01  0.61434273506E+01  0.98341072550E+01  0.51100000000E-03 0. -1.
        -11    1    3    3    0    0  0.12134410625E+01  0.36517451279E+01  0.29072597245E+01  0.48228457428E+01  0.51100000000E-03 0.  1.
        -12    1    3    3    0    0 -0.24363344104E+02  0.11867660489E+02  0.19057944517E+02  0.33130335806E+02  0.00000000000E+00 0.  1.
</event>
<event>
 7    1  0.2733256E-010  0.4778728E+02  0.7816164E-02  0.1312668E+00
        -11   -1    0    0    0    0  0.00000000000E+00  0.00000000000E+00  0.45593999997E+02  0.45594000000E+02  0.51100000000E-03 0.  1.
         11   -1    0    0    0    0 -0.00000000000E+00 -0.00000000000E+00 -0.45593999997E+02  0.45594000000E+02  0.51100000000E-03 0. -1.
    9900012    2    1    2    0    0  0.92527976267E+01 -0.65129064785E+01  0.41899764565E+02  0.47787280129E+02  0.20000041419E+02 0.  0.
         12    1    1    2    0    0 -0.92527976267E+01  0.65129064785E+01 -0.41899764565E+02  0.43400719871E+02  0.00000000000E+00 0. -1.
         11    1    3    3    0    0  0.27998526363E+01  0.25637057456E+01  0.68655247287E+00  0.38578642399E+01  0.51100000000E-03 0. -1.
        -11    1    3    3    0    0 -0.25200673566E+01 -0.32584181612E+01  0.74492137678E+01  0.85122743385E+01  0.51100000000E-03 0.  1.
         12    1    3    3    0    0  0.89730123471E+01 -0.58181940630E+01  0.33763998325E+02  0.35417141550E+02  0.00000000000E+00 0. -1.
</event>
<event>
 7    1  0.2733256E-010  0.4778727E+02  0.7816164E-02  0.1312668E+00
        -11   -1    0    0    0    0  0.00000000000E+00  0.00000000000E+00  0.45593999997E+02  0.45594000000E+02  0.51100000000E-03 0.  1.
         11   -1    0    0    0    0 -0.00000000000E+00 -0.00000000000E+00 -0.45593999997E+02  0.45594000000E+02  0.51100000000E-03 0. -1.
    9900012    2    1    2    0    0 -0.40166690603E+02 -0.70056989114E+01  0.14872147138E+02  0.47787267152E+02  0.19999982253E+02 0.  0.
         12    1    1    2    0    0  0.40166690603E+02  0.70056989114E+01 -0.14872147138E+02  0.43400732848E+02  0.00000000000E+00 0. -1.
         11    1    3    3    0    0 -0.10133440680E+02 -0.68947367246E+01  0.23901832067E+01  0.12487473345E+02  0.51100000000E-03 0. -1.
        -11    1    3    3    0    0 -0.79380747777E+00 -0.50235188792E+00 -0.23358674424E+01  0.25176903505E+01  0.51100000000E-03 0.  1.
        -12    1    3    3    0    0 -0.29239442445E+02  0.39138970107E+00  0.14817831374E+02  0.32782103456E+02  0.00000000000E+00 0.  1.
</event>
<event>
 7    1  0.2733256E-010  0.4778728E+02  0.7816164E-02  0.1312668E+00
        -11   -1    0    0    0    0  0.00000000000E+00  0.00000000000E+00  0.45593999997E+02  0.45594000000E+02  0.51100000000E-03 0.  1.
         11   -1    0    0    0    0 -0.00000000000E+00 -0.00000000000E+00 -0.45593999997E+02  0.45594000000E+02  0.51100000000E-03 0. -1.
    9900012    2    1    2    0    0  0.76434472066E+01 -0.10010858154E+02  0.41532918965E+02  0.47787275076E+02  0.20000018379E+02 0.  0.
         12    1    1    2    0    0 -0.76434472066E+01  0.10010858154E+02 -0.41532918965E+02  0.43400724924E+02  0.00000000000E+00 0. -1.
         11    1    3    3    0    0 -0.95517394817E+00  0.49988701014E+01  0.96992586311E+01  0.10953386591E+02  0.51100000000E-03 0. -1.
        -11    1    3    3    0    0  0.37040770209E+01 -0.13043946347E+01  0.79175147678E+01  0.88379110823E+01  0.51100000000E-03 0.  1.
         12    1    3    3    0    0  0.48945441339E+01 -0.13705333621E+02  0.23916145566E+02  0.27995977402E+02  0.00000000000E+00 0. -1.
</event>
<event>
 7    1  0.2733256E-010  0.4778727E+02  0.7816164E-02  0.1312668E+00
        -11   -1    0    0    0    0  0.00000000000E+00  0.00000000000E+00  0.45593999997E+02  0.45594000000E+02  0.51100000000E-03 0.  1.
         11   -1    0    0    0    0 -0.00000000000E+00 -0.00000000000E+00 -0.45593999997E+02  0.45594000000E+02  0.51100000000E-03 0. -1.
    9900012    2    1    2    0    0 -0.46259366826E+01  0.38501831130E+00  0.43151779385E+02  0.47787267363E+02  0.19999983215E+02 0.  0.
         12    1    1    2    0    0  0.46259366826E+01 -0.38501831130E+00 -0.43151779385E+02  0.43400732637E+02  0.00000000000E+00 0. -1.
         11    1    3    3    0    0 -0.31257657908E+01  0.26657990769E+01  0.25790850877E+02  0.26115989082E+02  0.51100000000E-03 0. -1.
        -11    1    3    3    0    0 -0.34490493035E+01  0.24943614645E+01  0.15678888237E+02  0.16246393964E+02  0.51100000000E-03 0.  1.
         12    1    3    3    0    0  0.19488784117E+01 -0.47751422301E+01  0.16820402710E+01  0.54248843172E+01  0.00000000000E+00 0. -1.
</event>
<event>
 7    1  0.2733256E-010  0.4778727E+02  0.7816164E-02  0.1312668E+00
        -11   -1    0    0    0    0  0.00000000000E+00  0.00000000000E+00  0.45593999997E+02  0.45594000000E+02  0.51100000000E-03 0.  1.
         11   -1    0    0    0    0 -0.00000000000E+00 -0.00000000000E+00 -0.45593999997E+02  0.45594000000E+02  0.51100000000E-03 0. -1.
    9900012    2    1    2    0    0  0.30138840442E+02  0.14083779056E+01  0.31197594977E+02  0.47787272312E+02  0.20000005780E+02 0.  0.
         12    1    1    2    0    0 -0.30138840442E+02 -0.14083779056E+01 -0.31197594977E+02  0.43400727688E+02  0.00000000000E+00 0. -1.
         11    1    3    3    0    0  0.23602061681E+01  0.47585418233E+01  0.27076345190E+01  0.59620112705E+01  0.51100000000E-03 0. -1.
        -11    1    3    3    0    0  0.15565579610E+02  0.25304868704E+01  0.21236540424E+02  0.26451489218E+02  0.51100000000E-03 0.  1.
        -12    1    3    3    0    0  0.12213054664E+02 -0.58806507881E+01  0.72534200334E+01  0.15373771824E+02  0.00000000000E+00 0.  1.
</event>
<event>
 7    1  0.2733256E-010  0.4778728E+02  0.7816164E-02  0.1312668E+00
        -11   -1    0    0    0    0  0.00000000000E+00  0.00000000000E+00  0.45593999997E+02  0.45594000000E+02  0.51100000000E-03 0.  1.
         11   -1    0    0    0    0 -0.00000000000E+00 -0.00000000000E+00 -0.45593999997E+02  0.45594000000E+02  0.51100000000E-03 0. -1.
    9900012    2    1    2    0    0  0.26134406982E+02 -0.17320305420E+02  0.30010373286E+02  0.47787277507E+02  0.20000029466E+02 0.  0.
         12    1    1    2    0    0 -0.26134406982E+02  0.17320305420E+02 -0.30010373286E+02  0.43400722493E+02  0.00000000000E+00 0. -1.
         11    1    3    3    0    0  0.89265423992E+01 -0.15499479242E+02  0.18033017660E+02  0.25398951595E+02  0.51100000000E-03 0. -1.
        -11    1    3    3    0    0  0.15272441818E+01 -0.19739691136E+01 -0.24302477028E+00  0.25076064588E+01  0.51100000000E-03 0.  1.
        -12    1    3    3    0    0  0.15680620401E+02  0.15314293530E+00  0.12220380396E+02  0.19880719453E+02  0.00000000000E+00 0.  1.
</event>
<event>
 7    1  0.2733256E-010  0.4778728E+02  0.7816164E-02  0.1312668E+00
        -11   -1    0    0    0    0  0.00000000000E+00  0.00000000000E+00  0.45593999997E+02  0.45594000000E+02  0.51100000000E-03 0.  1.
         11   -1    0    0    0    0 -0.00000000000E+00 -0.00000000000E+00 -0.45593999997E+02  0.45594000000E+02  0.51100000000E-03 0. -1.
    9900012    2    1    2    0    0  0.10173196103E+02 -0.87805113445E+01  0.41267795760E+02  0.47787282664E+02  0.20000052978E+02 0.  0.
         12    1    1    2    0    0 -0.10173196103E+02  0.87805113445E+01 -0.41267795760E+02  0.43400717336E+02  0.00000000000E+00 0. -1.
         11    1    3    3    0    0  0.43671541599E+00 -0.41032723910E+01  0.11107433333E+02  0.11849162003E+02  0.51100000000E-03 0. -1.
        -11    1    3    3    0    0  0.52706405696E+01 -0.85765811285E+01  0.27783159066E+02  0.29550656911E+02  0.51100000000E-03 0.  1.
         12    1    3    3    0    0  0.44658401170E+01  0.38993421751E+01  0.23772033607E+01  0.63874637507E+01  0.00000000000E+00 0. -1.
</event>
<event>
 7    1  0.2733256E-010  0.4778726E+02  0.7816164E-02  0.1312668E+00
        -11   -1    0    0    0    0  0.00000000000E+00  0.00000000000E+00  0.45593999997E+02  0.45594000000E+02  0.51100000000E-03 0.  1.
         11   -1    0    0    0    0 -0.00000000000E+00 -0.00000000000E+00 -0.45593999997E+02  0.45594000000E+02  0.51100000000E-03 0. -1.
    9900012    2    1    2    0    0 -0.17951278167E+02 -0.32123475895E+02 -0.23009950423E+02  0.47787263717E+02  0.19999966591E+02 0.  0.
         12    1    1    2    0    0  0.17951278167E+02  0.32123475895E+02  0.23009950423E+02  0.43400736283E+02  0.00000000000E+00 0. -1.
         11    1    3    3    0    0 -0.11361324831E+02 -0.61657401301E+01 -0.96581823799E+01  0.16136187295E+02  0.51100000000E-03 0. -1.
        -11    1    3    3    0    0 -0.50595688301E+01 -0.11734904141E+02 -0.11564386573E+02  0.17234913665E+02  0.51100000000E-03 0.  1.
        -12    1    3    3    0    0 -0.15303845061E+01 -0.14222831624E+02 -0.17873814700E+01  0.14416162758E+02  0.00000000000E+00 0.  1.
</event>
<event>
 7    1  0.2733256E-010  0.4778726E+02  0.7816164E-02  0.1312668E+00
        -11   -1    0    0    0    0  0.00000000000E+00  0.00000000000E+00  0.45593999997E+02  0.45594000000E+02  0.51100000000E-03 0.  1.
         11   -1    0    0    0    0 -0.00000000000E+00 -0.00000000000E+00 -0.45593999997E+02  0.45594000000E+02  0.51100000000E-03 0. -1.
    9900012    2    1    2    0    0  0.17698574891E+02 -0.24103387679E+02  0.31454905433E+02  0.47787263525E+02  0.19999965715E+02 0.  0.
         12    1    1    2    0    0 -0.17698574891E+02  0.24103387679E+02 -0.31454905433E+02  0.43400736475E+02  0.00000000000E+00 0. -1.
         11    1    3    3    0    0  0.78017717167E+01 -0.11503798032E+02  0.63224554001E+01  0.15270181847E+02  0.51100000000E-03 0. -1.
        -11    1    3    3    0    0  0.60349554828E+01 -0.13278694851E+02  0.12238487283E+02  0.19040089177E+02  0.51100000000E-03 0.  1.
        -12    1    3    3    0    0  0.38618476917E+01  0.67910520449E+00  0.12893962750E+02  0.13476992501E+02  0.00000000000E+00 0.  1.
</event>
<event>
 7    1  0.2733256E-010  0.4778727E+02  0.7816164E-02  0.1312668E+00
        -11   -1    0    0    0    0  0.00000000000E+00  0.00000000000E+00  0.45593999997E+02  0.45594000000E+02  0.51100000000E-03 0. -1.
         11   -1    0    0    0    0 -0.00000000000E+00 -0.00000000000E+00 -0.45593999997E+02  0.45594000000E+02  0.51100000000E-03 0.  1.
    9900012    2    1    2    0    0 -0.38157292830E+01 -0.42817441439E+02  0.59774916523E+01  0.47787268579E+02  0.19999988761E+02 0.  0.
         12    1    1    2    0    0  0.38157292830E+01  0.42817441439E+02 -0.59774916523E+01  0.43400731421E+02  0.00000000000E+00 0. -1.
         11    1    3    3    0    0  0.43404553873E+00 -0.52729419929E+01  0.71345909675E+01  0.88822689289E+01  0.51100000000E-03 0.  1.
        -11    1    3    3    0    0 -0.20267906985E+01 -0.59037502954E+01  0.29813584109E+01  0.69174161594E+01  0.51100000000E-03 0. -1.
        -12    1    3    3    0    0 -0.22229841232E+01 -0.31640749151E+02 -0.41384577261E+01  0.31987583491E+02  0.00000000000E+00 0.  1.
</event>
<event>
 7    1  0.2733256E-010  0.4778727E+02  0.7816164E-02  0.1312668E+00
        -11   -1    0    0    0    0  0.00000000000E+00  0.00000000000E+00  0.45593999997E+02  0.45594000000E+02  0.51100000000E-03 0.  1.
         11   -1    0    0    0    0 -0.00000000000E+00 -0.00000000000E+00 -0.45593999997E+02  0.45594000000E+02  0.51100000000E-03 0. -1.
    9900012    2    1    2    0    0  0.23331163932E+02 -0.11548387976E+02  0.34726283478E+02  0.47787271441E+02  0.20000001807E+02 0.  0.
         12    1    1    2    0    0 -0.23331163932E+02  0.11548387976E+02 -0.34726283478E+02  0.43400728559E+02  0.00000000000E+00 0. -1.
         11    1    3    3    0    0  0.64401333219E+01 -0.12010067519E+02  0.99162363407E+01  0.16853746836E+02  0.51100000000E-03 0. -1.
        -11    1    3    3    0    0  0.34672550211E+01 -0.26345820062E+01  0.87548721412E+01  0.97780706788E+01  0.51100000000E-03 0.  1.
        -12    1    3    3    0    0  0.13423775589E+02  0.30962615487E+01  0.16055174996E+02  0.21155453926E+02  0.00000000000E+00 0.  1.
</event>
<event>
 7    1  0.2733256E-010  0.4778728E+02  0.7816164E-02  0.1312668E+00
        -11   -1    0    0    0    0  0.00000000000E+00  0.00000000000E+00  0.45593999997E+02  0.45594000000E+02  0.51100000000E-03 0.  1.
         11   -1    0    0    0    0 -0.00000000000E+00 -0.00000000000E+00 -0.45593999997E+02  0.45594000000E+02  0.51100000000E-03 0. -1.
    9900012    2    1    2    0    0  0.26738815295E+02 -0.29742420257E+02  0.16853695754E+02  0.47787275735E+02  0.20000021387E+02 0.  0.
         12    1    1    2    0    0 -0.26738815295E+02  0.29742420257E+02 -0.16853695754E+02  0.43400724265E+02  0.00000000000E+00 0. -1.
         11    1    3    3    0    0  0.64287169818E+01 -0.17559738780E+02  0.34946782358E+00  0.18702806102E+02  0.51100000000E-03 0. -1.
        -11    1    3    3    0    0  0.55944867942E+01 -0.25675604560E+01  0.26452371673E+01  0.66998454548E+01  0.51100000000E-03 0.  1.
         12    1    3    3    0    0  0.14715611519E+02 -0.96151210206E+01  0.13858990763E+02  0.22384624178E+02  0.00000000000E+00 0. -1.
</event>
<event>
 7    1  0.2733256E-010  0.4778727E+02  0.7816164E-02  0.1312668E+00
        -11   -1    0    0    0    0  0.00000000000E+00  0.00000000000E+00  0.45593999997E+02  0.45594000000E+02  0.51100000000E-03 0.  1.
         11   -1    0    0    0    0 -0.00000000000E+00 -0.00000000000E+00 -0.45593999997E+02  0.45594000000E+02  0.51100000000E-03 0. -1.
    9900012    2    1    2    0    0 -0.43199725621E+02  0.19403915471E+01  0.36935021572E+01  0.47787269923E+02  0.19999994886E+02 0.  0.
         12    1    1    2    0    0  0.43199725621E+02 -0.19403915471E+01 -0.36935021572E+01  0.43400730077E+02  0.00000000000E+00 0. -1.
         11    1    3    3    0    0 -0.49161040203E+00  0.24400816315E+01 -0.12159721639E+01  0.27702468699E+01  0.51100000000E-03 0. -1.
        -11    1    3    3    0    0 -0.15222284999E+02  0.59020186500E+01 -0.24716961885E+00  0.16328284595E+02  0.51100000000E-03 0.  1.
        -12    1    3    3    0    0 -0.27485830219E+02 -0.64017087344E+01  0.51566439399E+01  0.28688738457E+02  0.00000000000E+00 0.  1.
</event>
<event>
 7    1  0.2733256E-010  0.4778728E+02  0.7816164E-02  0.1312668E+00
        -11   -1    0    0    0    0  0.00000000000E+00  0.00000000000E+00  0.45593999997E+02  0.45594000000E+02  0.51100000000E-03 0.  1.
         11   -1    0    0    0    0 -0.00000000000E+00 -0.00000000000E+00 -0.45593999997E+02  0.45594000000E+02  0.51100000000E-03 0. -1.
    9900012    2    1    2    0    0 -0.32582817392E+02 -0.16596860313E+02  0.23377910976E+02  0.47787280155E+02  0.20000041541E+02 0.  0.
         12    1    1    2    0    0  0.32582817392E+02  0.16596860313E+02 -0.23377910976E+02  0.43400719845E+02  0.00000000000E+00 0. -1.
         11    1    3    3    0    0 -0.48016388653E+01 -0.37275411915E+01  0.12436914352E+02  0.13842945423E+02  0.51100000000E-03 0. -1.
        -11    1    3    3    0    0 -0.39512089335E+01 -0.59913083166E+01  0.38678070209E+01  0.81527761403E+01  0.51100000000E-03 0.  1.
        -12    1    3    3    0    0 -0.23829969593E+02 -0.68780108045E+01  0.70731896023E+01  0.25791558592E+02  0.00000000000E+00 0.  1.
</event>
<event>
 7    1  0.2733256E-010  0.4778727E+02  0.7816164E-02  0.1312668E+00
        -11   -1    0    0    0    0  0.00000000000E+00  0.00000000000E+00  0.45593999997E+02  0.45594000000E+02  0.51100000000E-03 0. -1.
         11   -1    0    0    0    0 -0.00000000000E+00 -0.00000000000E+00 -0.45593999997E+02  0.45594000000E+02  0.51100000000E-03 0.  1.
    9900012    2    1    2    0    0  0.77741527435E+01 -0.35878273216E+02 -0.23150276515E+02  0.47787271405E+02  0.20000001645E+02 0.  0.
         12    1    1    2    0    0 -0.77741527435E+01  0.35878273216E+02  0.23150276515E+02  0.43400728595E+02  0.00000000000E+00 0. -1.
         11    1    3    3    0    0 -0.41930581059E+01 -0.89849134512E+01 -0.85011508191E+01  0.13060626766E+02  0.51100000000E-03 0.  1.
        -11    1    3    3    0    0  0.44602802791E+00 -0.88866549568E+00  0.16636207592E+01  0.19381180708E+01  0.51100000000E-03 0. -1.
        -12    1    3    3    0    0  0.11521182822E+02 -0.26004694269E+02 -0.16312746455E+02  0.32788526569E+02  0.00000000000E+00 0.  1.
</event>
<event>
 7    1  0.2733256E-010  0.4778727E+02  0.7816164E-02  0.1312668E+00
        -11   -1    0    0    0    0  0.00000000000E+00  0.00000000000E+00  0.45593999997E+02  0.45594000000E+02  0.51100000000E-03 0. -1.
         11   -1    0    0    0    0 -0.00000000000E+00 -0.00000000000E+00 -0.45593999997E+02  0.45594000000E+02  0.51100000000E-03 0.  1.
    9900012    2    1    2    0    0  0.91986253209E+01  0.46554121533E+01 -0.42158461875E+02  0.47787268695E+02  0.19999989288E+02 0.  0.
         12    1    1    2    0    0 -0.91986253209E+01 -0.46554121533E+01  0.42158461875E+02  0.43400731305E+02  0.00000000000E+00 0. -1.
         11    1    3    3    0    0 -0.11006718027E+01  0.14834593556E+01 -0.19602277591E+02  0.19689119256E+02  0.51100000000E-03 0. -1.
        -11    1    3    3    0    0  0.13219868564E+01  0.53427870838E+01 -0.15579794268E+02  0.16523408025E+02  0.51100000000E-03 0.  1.
         12    1    3    3    0    0  0.89773102672E+01 -0.21708342861E+01 -0.69763900168E+01  0.11574741414E+02  0.00000000000E+00 0. -1.
</event>
<event>
 7    1  0.2733256E-010  0.4778727E+02  0.7816164E-02  0.1312668E+00
        -11   -1    0    0    0    0  0.00000000000E+00  0.00000000000E+00  0.45593999997E+02  0.45594000000E+02  0.51100000000E-03 0.  1.
         11   -1    0    0    0    0 -0.00000000000E+00 -0.00000000000E+00 -0.45593999997E+02  0.45594000000E+02  0.51100000000E-03 0. -1.
    9900012    2    1    2    0    0  0.43391452103E+02 -0.61550710997E-01  0.89537252995E+00  0.47787267332E+02  0.19999983075E+02 0.  0.
         12    1    1    2    0    0 -0.43391452103E+02  0.61550710997E-01 -0.89537252995E+00  0.43400732668E+02  0.00000000000E+00 0. -1.
         11    1    3    3    0    0  0.11004872515E+02 -0.50213542683E+00 -0.72511003304E+01  0.13188548643E+02  0.51100000000E-03 0. -1.
        -11    1    3    3    0    0 -0.34376494221E+00  0.82454437861E+00  0.20734605568E+00  0.91708255665E+00  0.51100000000E-03 0.  1.
        -12    1    3    3    0    0  0.32730344531E+02 -0.38395966278E+00  0.79391268046E+01  0.33681636132E+02  0.00000000000E+00 0.  1.
</event>
<event>
 7    1  0.2733256E-010  0.4778727E+02  0.7816164E-02  0.1312668E+00
        -11   -1    0    0    0    0  0.00000000000E+00  0.00000000000E+00  0.45593999997E+02  0.45594000000E+02  0.51100000000E-03 0.  1.
         11   -1    0    0    0    0 -0.00000000000E+00 -0.00000000000E+00 -0.45593999997E+02  0.45594000000E+02  0.51100000000E-03 0. -1.
    9900012    2    1    2    0    0 -0.78327218236E+01  0.22928830923E+01  0.42626452082E+02  0.47787271191E+02  0.20000000668E+02 0.  0.
         12    1    1    2    0    0  0.78327218236E+01 -0.22928830923E+01 -0.42626452082E+02  0.43400728809E+02  0.00000000000E+00 0. -1.
         11    1    3    3    0    0 -0.30799212436E+01  0.12719037229E+01  0.82596261679E+01  0.89064627458E+01  0.51100000000E-03 0. -1.
        -11    1    3    3    0    0  0.52533895329E+01  0.46840646566E+01  0.94663100010E+01  0.11796168386E+02  0.51100000000E-03 0.  1.
        -12    1    3    3    0    0 -0.10006190113E+02 -0.36630852872E+01  0.24900515913E+02  0.27084640059E+02  0.00000000000E+00 0.  1.
</event>
<event>
 7    1  0.2733256E-010  0.4778727E+02  0.7816164E-02  0.1312668E+00
        -11   -1    0    0    0    0  0.00000000000E+00  0.00000000000E+00  0.45593999997E+02  0.45594000000E+02  0.51100000000E-03 0.  1.
         11   -1    0    0    0    0 -0.00000000000E+00 -0.00000000000E+00 -0.45593999997E+02  0.45594000000E+02  0.51100000000E-03 0. -1.
    9900012    2    1    2    0    0 -0.34901618968E+02 -0.12923801674E+02  0.22326563410E+02  0.47787273163E+02  0.20000009659E+02 0.  0.
         12    1    1    2    0    0  0.34901618968E+02  0.12923801674E+02 -0.22326563410E+02  0.43400726837E+02  0.00000000000E+00 0. -1.
         11    1    3    3    0    0 -0.12580864540E+02 -0.71918056149E+01  0.36570284984E+01  0.14945704342E+02  0.51100000000E-03 0. -1.
        -11    1    3    3    0    0 -0.56118568097E+01 -0.49420356319E+01 -0.38339554809E+00  0.74875660563E+01  0.51100000000E-03 0.  1.
        -12    1    3    3    0    0 -0.16708897618E+02 -0.78996042704E+00  0.19052930460E+02  0.25354002764E+02  0.00000000000E+00 0.  1.
</event>
<event>
 7    1  0.2733256E-010  0.4778727E+02  0.7816164E-02  0.1312668E+00
        -11   -1    0    0    0    0  0.00000000000E+00  0.00000000000E+00  0.45593999997E+02  0.45594000000E+02  0.51100000000E-03 0.  1.
         11   -1    0    0    0    0 -0.00000000000E+00 -0.00000000000E+00 -0.45593999997E+02  0.45594000000E+02  0.51100000000E-03 0. -1.
    9900012    2    1    2    0    0 -0.11700659210E+02 -0.25409596024E+02  0.33182385388E+02  0.47787266181E+02  0.19999977823E+02 0.  0.
         12    1    1    2    0    0  0.11700659210E+02  0.25409596024E+02 -0.33182385388E+02  0.43400733819E+02  0.00000000000E+00 0. -1.
         11    1    3    3    0    0 -0.13791295567E+02 -0.18199423051E+02  0.16344767108E+02  0.28081492924E+02  0.51100000000E-03 0. -1.
        -11    1    3    3    0    0  0.91956949954E+00 -0.81809473922E+01  0.11415598094E+02  0.14074423200E+02  0.51100000000E-03 0.  1.
        -12    1    3    3    0    0  0.11710668577E+01  0.97077441924E+00  0.54220201863E+01  0.56313500565E+01  0.00000000000E+00 0.  1.
</event>
<event>
 7    1  0.2733256E-010  0.4778727E+02  0.7816164E-02  0.1312668E+00
        -11   -1    0    0    0    0  0.00000000000E+00  0.00000000000E+00  0.45593999997E+02  0.45594000000E+02  0.51100000000E-03 0.  1.
         11   -1    0    0    0    0 -0.00000000000E+00 -0.00000000000E+00 -0.45593999997E+02  0.45594000000E+02  0.51100000000E-03 0. -1.
    9900012    2    1    2    0    0 -0.98613259737E+01 -0.38280573747E+01  0.42091845708E+02  0.47787271338E+02  0.20000001340E+02 0.  0.
         12    1    1    2    0    0  0.98613259737E+01  0.38280573747E+01 -0.42091845708E+02  0.43400728662E+02  0.00000000000E+00 0. -1.
         11    1    3    3    0    0  0.12462013489E+01  0.35428411903E+01  0.19809682534E+01  0.42460542841E+01  0.51100000000E-03 0.  1.
        -11    1    3    3    0    0 -0.46019666092E+01  0.19808225120E+01  0.76993497773E+01  0.91859535025E+01  0.51100000000E-03 0. -1.
        -12    1    3    3    0    0 -0.65055607134E+01 -0.93517210770E+01  0.32411527678E+02  0.34355263552E+02  0.00000000000E+00 0.  1.
</event>
<event>
 7    1  0.2733256E-010  0.4778728E+02  0.7816164E-02  0.1312668E+00
        -11   -1    0    0    0    0  0.00000000000E+00  0.00000000000E+00  0.45593999997E+02  0.45594000000E+02  0.51100000000E-03 0. -1.
         11   -1    0    0    0    0 -0.00000000000E+00 -0.00000000000E+00 -0.45593999997E+02  0.45594000000E+02  0.51100000000E-03 0.  1.
    9900012    2    1    2    0    0 -0.43405952222E+01 -0.42836247227E+02  0.54623899631E+01  0.47787279413E+02  0.20000038155E+02 0.  0.
         12    1    1    2    0    0  0.43405952222E+01  0.42836247227E+02 -0.54623899631E+01  0.43400720587E+02  0.00000000000E+00 0. -1.
         11    1    3    3    0    0 -0.55696313530E+01 -0.26218853654E+02  0.46536348232E+01  0.27204878197E+02  0.51100000000E-03 0. -1.
        -11    1    3    3    0    0  0.66294337822E+01 -0.82334761099E+01 -0.71643052151E-01  0.10570934401E+02  0.51100000000E-03 0.  1.
         12    1    3    3    0    0 -0.54003976514E+01 -0.83839174627E+01  0.88039819206E+00  0.10011466815E+02  0.00000000000E+00 0. -1.
</event>
<event>
 7    1  0.2733256E-010  0.4778727E+02  0.7816164E-02  0.1312668E+00
        -11   -1    0    0    0    0  0.00000000000E+00  0.00000000000E+00  0.45593999997E+02  0.45594000000E+02  0.51100000000E-03 0. -1.
         11   -1    0    0    0    0 -0.00000000000E+00 -0.00000000000E+00 -0.45593999997E+02  0.45594000000E+02  0.51100000000E-03 0.  1.
    9900012    2    1    2    0    0 -0.29499932701E+02  0.12418420190E+02 -0.29311430334E+02  0.47787272614E+02  0.20000007156E+02 0.  0.
         12    1    1    2    0    0  0.29499932701E+02 -0.12418420190E+02  0.29311430334E+02  0.43400727386E+02  0.00000000000E+00 0. -1.
         11    1    3    3    0    0  0.63612947386E+00  0.99756210978E+00  0.87181549962E+00  0.14696439694E+01  0.51100000000E-03 0. -1.
        -11    1    3    3    0    0 -0.19675135908E+02  0.44211965298E+01 -0.99451827612E+01  0.22484764001E+02  0.51100000000E-03 0.  1.
        -12    1    3    3    0    0 -0.10460926267E+02  0.69996615505E+01 -0.20238063073E+02  0.23832864644E+02  0.00000000000E+00 0.  1.
</event>
<event>
 7    1  0.2733256E-010  0.4778727E+02  0.7816164E-02  0.1312668E+00
        -11   -1    0    0    0    0  0.00000000000E+00  0.00000000000E+00  0.45593999997E+02  0.45594000000E+02  0.51100000000E-03 0.  1.
         11   -1    0    0    0    0 -0.00000000000E+00 -0.00000000000E+00 -0.45593999997E+02  0.45594000000E+02  0.51100000000E-03 0. -1.
    9900012    2    1    2    0    0  0.15039651394E+02 -0.14161623965E+02  0.38169104494E+02  0.47787271374E+02  0.20000001501E+02 0.  0.
         12    1    1    2    0    0 -0.15039651394E+02  0.14161623965E+02 -0.38169104494E+02  0.43400728626E+02  0.00000000000E+00 0. -1.
         11    1    3    3    0    0 -0.20250257388E+01 -0.32353463901E+01  0.24810170837E+01  0.45523226531E+01  0.51100000000E-03 0. -1.
        -11    1    3    3    0    0  0.65321069998E+01 -0.68003614482E+01  0.53158231187E+01  0.10824569893E+02  0.51100000000E-03 0.  1.
         12    1    3    3    0    0  0.10532570133E+02 -0.41259161271E+01  0.30372264292E+02  0.32410378827E+02  0.00000000000E+00 0. -1.
</event>
<event>
 7    1  0.2733256E-010  0.4778727E+02  0.7816164E-02  0.1312668E+00
        -11   -1    0    0    0    0  0.00000000000E+00  0.00000000000E+00  0.45593999997E+02  0.45594000000E+02  0.51100000000E-03 0.  1.
         11   -1    0    0    0    0 -0.00000000000E+00 -0.00000000000E+00 -0.45593999997E+02  0.45594000000E+02  0.51100000000E-03 0. -1.
    9900012    2    1    2    0    0 -0.41552124073E+01 -0.82712805923E+01  0.42402163998E+02  0.47787269770E+02  0.19999994190E+02 0.  0.
         12    1    1    2    0    0  0.41552124073E+01  0.82712805923E+01 -0.42402163998E+02  0.43400730230E+02  0.00000000000E+00 0. -1.
         11    1    3    3    0    0  0.75156811454E+00 -0.58211872548E+01  0.15097132205E+02  0.16197977552E+02  0.51100000000E-03 0.  1.
        -11    1    3    3    0    0 -0.86096699885E+01 -0.56070128518E+01  0.22575401744E+02  0.24803503272E+02  0.51100000000E-03 0. -1.
         12    1    3    3    0    0  0.37028894667E+01  0.31569195143E+01  0.47296300491E+01  0.67857889463E+01  0.00000000000E+00 0. -1.
</event>
<event>
 7    1  0.2733256E-010  0.4778727E+02  0.7816164E-02  0.1312668E+00
        -11   -1    0    0    0    0  0.00000000000E+00  0.00000000000E+00  0.45593999997E+02  0.45594000000E+02  0.51100000000E-03 0.  1.
         11   -1    0    0    0    0 -0.00000000000E+00 -0.00000000000E+00 -0.45593999997E+02  0.45594000000E+02  0.51100000000E-03 0. -1.
    9900012    2    1    2    0    0 -0.25349543075E+02  0.35216781137E+02 -0.89572715850E+00  0.47787270341E+02  0.19999996794E+02 0.  0.
         12    1    1    2    0    0  0.25349543075E+02 -0.35216781137E+02  0.89572715850E+00  0.43400729659E+02  0.00000000000E+00 0. -1.
         11    1    3    3    0    0  0.88481319562E+00  0.64123699862E+01 -0.24799801373E+01  0.69319322684E+01  0.51100000000E-03 0. -1.
        -11    1    3    3    0    0 -0.16389976834E+02  0.21235255043E+02 -0.42083389935E+01  0.27152854633E+02  0.51100000000E-03 0.  1.
        -12    1    3    3    0    0 -0.98443794360E+01  0.75691561085E+01  0.57925919723E+01  0.13702483440E+02  0.00000000000E+00 0.  1.
</event>
<event>
 7    1  0.2733256E-010  0.4778727E+02  0.7816164E-02  0.1312668E+00
        -11   -1    0    0    0    0  0.00000000000E+00  0.00000000000E+00  0.45593999997E+02  0.45594000000E+02  0.51100000000E-03 0. -1.
         11   -1    0    0    0    0 -0.00000000000E+00 -0.00000000000E+00 -0.45593999997E+02  0.45594000000E+02  0.51100000000E-03 0.  1.
    9900012    2    1    2    0    0  0.31331658672E+02  0.10738284572E+02 -0.28047100601E+02  0.47787269098E+02  0.19999991126E+02 0.  0.
         12    1    1    2    0    0 -0.31331658672E+02 -0.10738284572E+02  0.28047100601E+02  0.43400730902E+02  0.00000000000E+00 0. -1.
         11    1    3    3    0    0  0.85944220787E+01  0.29558942949E+00 -0.73292762161E+01  0.11299104128E+02  0.51100000000E-03 0. -1.
        -11    1    3    3    0    0  0.12608467387E+02  0.53454387904E+01 -0.21086251997E+02  0.25143134038E+02  0.51100000000E-03 0.  1.
         12    1    3    3    0    0  0.10128769206E+02  0.50972563522E+01  0.36842761175E+00  0.11345030932E+02  0.00000000000E+00 0. -1.
</event>
<event>
 7    1  0.2733256E-010  0.4778727E+02  0.7816164E-02  0.1312668E+00
        -11   -1    0    0    0    0  0.00000000000E+00  0.00000000000E+00  0.45593999997E+02  0.45594000000E+02  0.51100000000E-03 0.  1.
         11   -1    0    0    0    0 -0.00000000000E+00 -0.00000000000E+00 -0.45593999997E+02  0.45594000000E+02  0.51100000000E-03 0. -1.
    9900012    2    1    2    0    0 -0.34137781935E+02 -0.23651642672E+02  0.12602972971E+02  0.47787270925E+02  0.19999999454E+02 0.  0.
         12    1    1    2    0    0  0.34137781935E+02  0.23651642672E+02 -0.12602972971E+02  0.43400729075E+02  0.00000000000E+00 0. -1.
         11    1    3    3    0    0 -0.10368602307E+02 -0.52137737560E+01 -0.46551659404E+01  0.12504476029E+02  0.51100000000E-03 0. -1.
        -11    1    3    3    0    0 -0.12560598719E+01  0.37880772311E-01  0.21080084260E+01  0.24541436673E+01  0.51100000000E-03 0.  1.
         12    1    3    3    0    0 -0.22513119757E+02 -0.18475749689E+02  0.15150130485E+02  0.32828651228E+02  0.00000000000E+00 0. -1.
</event>
<event>
 7    1  0.2733256E-010  0.4778727E+02  0.7816164E-02  0.1312668E+00
        -11   -1    0    0    0    0  0.00000000000E+00  0.00000000000E+00  0.45593999997E+02  0.45594000000E+02  0.51100000000E-03 0.  1.
         11   -1    0    0    0    0 -0.00000000000E+00 -0.00000000000E+00 -0.45593999997E+02  0.45594000000E+02  0.51100000000E-03 0. -1.
    9900012    2    1    2    0    0  0.61345990661E+01 -0.29132045446E+02  0.31580281219E+02  0.47787267985E+02  0.19999986051E+02 0.  0.
         12    1    1    2    0    0 -0.61345990661E+01  0.29132045446E+02 -0.31580281219E+02  0.43400732015E+02  0.00000000000E+00 0. -1.
         11    1    3    3    0    0 -0.12582939153E+01  0.48195114268E+00 -0.27567671935E-01  0.13477168541E+01  0.51100000000E-03 0. -1.
        -11    1    3    3    0    0  0.57821122297E+00 -0.14731310404E+02  0.24501286194E+02  0.28594734828E+02  0.51100000000E-03 0.  1.
         12    1    3    3    0    0  0.68146817584E+01 -0.14882686184E+02  0.71065626971E+01  0.17844816303E+02  0.00000000000E+00 0. -1.
</event>
<event>
 7    1  0.2733256E-010  0.4778727E+02  0.7816164E-02  0.1312668E+00
        -11   -1    0    0    0    0  0.00000000000E+00  0.00000000000E+00  0.45593999997E+02  0.45594000000E+02  0.51100000000E-03 0. -1.
         11   -1    0    0    0    0 -0.00000000000E+00 -0.00000000000E+00 -0.45593999997E+02  0.45594000000E+02  0.51100000000E-03 0.  1.
    9900012    2    1    2    0    0 -0.33243119227E+02 -0.20672741738E+02 -0.18739160032E+02  0.47787270218E+02  0.19999996234E+02 0.  0.
         12    1    1    2    0    0  0.33243119227E+02  0.20672741738E+02  0.18739160032E+02  0.43400729782E+02  0.00000000000E+00 0. -1.
         11    1    3    3    0    0 -0.34400753163E+01 -0.49971755268E+01 -0.72038792672E+01  0.94181610830E+01  0.51100000000E-03 0. -1.
        -11    1    3    3    0    0 -0.31207635958E+01 -0.34396369349E+01  0.30849777105E+01  0.55756035907E+01  0.51100000000E-03 0.  1.
        -12    1    3    3    0    0 -0.26682280315E+02 -0.12235929276E+02 -0.14620258475E+02  0.32793505545E+02  0.00000000000E+00 0.  1.
</event>
<event>
 7    1  0.2733256E-010  0.4778729E+02  0.7816164E-02  0.1312668E+00
        -11   -1    0    0    0    0  0.00000000000E+00  0.00000000000E+00  0.45593999997E+02  0.45594000000E+02  0.51100000000E-03 0. -1.
         11   -1    0    0    0    0 -0.00000000000E+00 -0.00000000000E+00 -0.45593999997E+02  0.45594000000E+02  0.51100000000E-03 0.  1.
    9900012    2    1    2    0    0  0.46954395133E+01 -0.43127698686E+02 -0.12555276835E+01  0.47787286919E+02  0.20000072379E+02 0.  0.
         12    1    1    2    0    0 -0.46954395133E+01  0.43127698686E+02  0.12555276835E+01  0.43400713081E+02  0.00000000000E+00 0. -1.
         11    1    3    3    0    0  0.37010571032E+01 -0.15816492107E+02  0.55729813270E+01  0.17173158340E+02  0.51100000000E-03 0. -1.
        -11    1    3    3    0    0  0.37396616435E+01 -0.26754620336E+02 -0.58013508199E+01  0.27630607125E+02  0.51100000000E-03 0.  1.
         12    1    3    3    0    0 -0.27452792333E+01 -0.55658624353E+00 -0.10271581906E+01  0.29835214536E+01  0.00000000000E+00 0. -1.
</event>
<event>
 7    1  0.2733256E-010  0.4778727E+02  0.7816164E-02  0.1312668E+00
        -11   -1    0    0    0    0  0.00000000000E+00  0.00000000000E+00  0.45593999997E+02  0.45594000000E+02  0.51100000000E-03 0.  1.
         11   -1    0    0    0    0 -0.00000000000E+00 -0.00000000000E+00 -0.45593999997E+02  0.45594000000E+02  0.51100000000E-03 0. -1.
    9900012    2    1    2    0    0  0.92348600363E+01 -0.36275800103E+02  0.21963768948E+02  0.47787268907E+02  0.19999990254E+02 0.  0.
         12    1    1    2    0    0 -0.92348600363E+01  0.36275800103E+02 -0.21963768948E+02  0.43400731093E+02  0.00000000000E+00 0. -1.
         11    1    3    3    0    0  0.87685810577E+01 -0.64798753902E+01  0.89709106882E+01  0.14119278936E+02  0.51100000000E-03 0. -1.
        -11    1    3    3    0    0  0.40614888513E+01 -0.10895796080E+02  0.67297983293E+01  0.13435187000E+02  0.51100000000E-03 0.  1.
        -12    1    3    3    0    0 -0.35952098727E+01 -0.18900128633E+02  0.62630599305E+01  0.20232802971E+02  0.00000000000E+00 0.  1.
</event>
<event>
 7    1  0.2733256E-010  0.4778727E+02  0.7816164E-02  0.1312668E+00
        -11   -1    0    0    0    0  0.00000000000E+00  0.00000000000E+00  0.45593999997E+02  0.45594000000E+02  0.51100000000E-03 0.  1.
         11   -1    0    0    0    0 -0.00000000000E+00 -0.00000000000E+00 -0.45593999997E+02  0.45594000000E+02  0.51100000000E-03 0. -1.
    9900012    2    1    2    0    0 -0.18889022847E+02  0.36303860778E+02  0.14451907230E+02  0.47787272885E+02  0.20000008394E+02 0.  0.
         12    1    1    2    0    0  0.18889022847E+02 -0.36303860778E+02 -0.14451907230E+02  0.43400727115E+02  0.00000000000E+00 0. -1.
         11    1    3    3    0    0 -0.99067365169E+01  0.19557536239E+02  0.90352896203E+01  0.23712383072E+02  0.51100000000E-03 0.  1.
        -11    1    3    3    0    0 -0.59942345475E+01  0.15767388904E+02  0.91529065979E+01  0.19191589307E+02  0.51100000000E-03 0. -1.
         12    1    3    3    0    0 -0.29880517826E+01  0.97893563450E+00 -0.37362889887E+01  0.48833005067E+01  0.00000000000E+00 0. -1.
</event>
<event>
 7    1  0.2733256E-010  0.4778727E+02  0.7816164E-02  0.1312668E+00
        -11   -1    0    0    0    0  0.00000000000E+00  0.00000000000E+00  0.45593999997E+02  0.45594000000E+02  0.51100000000E-03 0.  1.
         11   -1    0    0    0    0 -0.00000000000E+00 -0.00000000000E+00 -0.45593999997E+02  0.45594000000E+02  0.51100000000E-03 0. -1.
    9900012    2    1    2    0    0  0.21401291315E+02 -0.27901893459E+01  0.37653985311E+02  0.47787273780E+02  0.20000012475E+02 0.  0.
         12    1    1    2    0    0 -0.21401291315E+02  0.27901893459E+01 -0.37653985311E+02  0.43400726220E+02  0.00000000000E+00 0. -1.
         11    1    3    3    0    0  0.12746564995E+02 -0.77735479449E+01  0.13323683529E+02  0.20010584946E+02  0.51100000000E-03 0. -1.
        -11    1    3    3    0    0  0.54219951301E+01 -0.16978177707E+01  0.77369551709E+01  0.95990151553E+01  0.51100000000E-03 0.  1.
        -12    1    3    3    0    0  0.32327311899E+01  0.66811763697E+01  0.16593346611E+02  0.18177673679E+02  0.00000000000E+00 0.  1.
</event>
<event>
 7    1  0.2733256E-010  0.4778727E+02  0.7816164E-02  0.1312668E+00
        -11   -1    0    0    0    0  0.00000000000E+00  0.00000000000E+00  0.45593999997E+02  0.45594000000E+02  0.51100000000E-03 0.  1.
         11   -1    0    0    0    0 -0.00000000000E+00 -0.00000000000E+00 -0.45593999997E+02  0.45594000000E+02  0.51100000000E-03 0. -1.
    9900012    2    1    2    0    0 -0.38851444699E+02  0.15342888641E+01  0.19283023389E+02  0.47787265115E+02  0.19999972966E+02 0.  0.
         12    1    1    2    0    0  0.38851444699E+02 -0.15342888641E+01 -0.19283023389E+02  0.43400734885E+02  0.00000000000E+00 0. -1.
         11    1    3    3    0    0 -0.54477932425E+01 -0.46837894703E+01 -0.20195953572E+01  0.74629150258E+01  0.51100000000E-03 0. -1.
        -11    1    3    3    0    0 -0.81831225453E+01  0.82872793704E+00  0.32493938029E+01  0.88435764786E+01  0.51100000000E-03 0.  1.
         12    1    3    3    0    0 -0.25220528911E+02  0.53893503974E+01  0.18053224943E+02  0.31480773611E+02  0.00000000000E+00 0. -1.
</event>
<event>
 7    1  0.2733256E-010  0.4778727E+02  0.7816164E-02  0.1312668E+00
        -11   -1    0    0    0    0  0.00000000000E+00  0.00000000000E+00  0.45593999997E+02  0.45594000000E+02  0.51100000000E-03 0. -1.
         11   -1    0    0    0    0 -0.00000000000E+00 -0.00000000000E+00 -0.45593999997E+02  0.45594000000E+02  0.51100000000E-03 0.  1.
    9900012    2    1    2    0    0  0.45979211664E+01  0.34489006615E+02 -0.25942067009E+02  0.47787270777E+02  0.19999998782E+02 0.  0.
         12    1    1    2    0    0 -0.45979211664E+01 -0.34489006615E+02  0.25942067009E+02  0.43400729223E+02  0.00000000000E+00 0. -1.
         11    1    3    3    0    0  0.92073129249E+01  0.17958217441E+02 -0.18403912624E+02  0.27312564601E+02  0.51100000000E-03 0.  1.
        -11    1    3    3    0    0  0.14953963758E+01  0.64115818278E+01 -0.24664919926E+00  0.65882795891E+01  0.51100000000E-03 0. -1.
        -12    1    3    3    0    0 -0.61047881342E+01  0.10119207346E+02 -0.72915051861E+01  0.13886426587E+02  0.00000000000E+00 0.  1.
</event>
<event>
 7    1  0.2733256E-010  0.4778727E+02  0.7816164E-02  0.1312668E+00
        -11   -1    0    0    0    0  0.00000000000E+00  0.00000000000E+00  0.45593999997E+02  0.45594000000E+02  0.51100000000E-03 0.  1.
         11   -1    0    0    0    0 -0.00000000000E+00 -0.00000000000E+00 -0.45593999997E+02  0.45594000000E+02  0.51100000000E-03 0. -1.
    9900012    2    1    2    0    0 -0.20385859388E+02 -0.15987550565E+01  0.38281640777E+02  0.47787270729E+02  0.19999998560E+02 0.  0.
         12    1    1    2    0    0  0.20385859388E+02  0.15987550565E+01 -0.38281640777E+02  0.43400729271E+02  0.00000000000E+00 0. -1.
         11    1    3    3    0    0 -0.14440007430E+01 -0.28473527186E+01  0.10138762841E+01  0.33497016331E+01  0.51100000000E-03 0. -1.
        -11    1    3    3    0    0  0.63545699961E-01 -0.52013264316E+00  0.15409097973E+02  0.15418004950E+02  0.51100000000E-03 0.  1.
         12    1    3    3    0    0 -0.19005404345E+02  0.17687303053E+01  0.21858666520E+02  0.29019564146E+02  0.00000000000E+00 0. -1.
</event>
<event>
 7    1  0.2733256E-010  0.4778727E+02  0.7816164E-02  0.1312668E+00
        -11   -1    0    0    0    0  0.00000000000E+00  0.00000000000E+00  0.45593999997E+02  0.45594000000E+02  0.51100000000E-03 0. -1.
         11   -1    0    0    0    0 -0.00000000000E+00 -0.00000000000E+00 -0.45593999997E+02  0.45594000000E+02  0.51100000000E-03 0.  1.
    9900012    2    1    2    0    0 -0.31132849252E+02 -0.26168369996E+02 -0.15152089638E+02  0.47787266006E+02  0.19999977029E+02 0.  0.
         12    1    1    2    0    0  0.31132849252E+02  0.26168369996E+02  0.15152089638E+02  0.43400733994E+02  0.00000000000E+00 0. -1.
         11    1    3    3    0    0  0.49513555906E+00  0.79341648466E+00  0.30181405793E+00  0.98273136037E+00  0.51100000000E-03 0. -1.
        -11    1    3    3    0    0 -0.14269777717E+02 -0.58513666271E+01 -0.11391578088E+02  0.19173760692E+02  0.51100000000E-03 0.  1.
        -12    1    3    3    0    0 -0.17358207094E+02 -0.21110419854E+02 -0.40623256082E+01  0.27630773954E+02  0.00000000000E+00 0.  1.
</event>
<event>
 7    1  0.2733256E-010  0.4778727E+02  0.7816164E-02  0.1312668E+00
        -11   -1    0    0    0    0  0.00000000000E+00  0.00000000000E+00  0.45593999997E+02  0.45594000000E+02  0.51100000000E-03 0.  1.
         11   -1    0    0    0    0 -0.00000000000E+00 -0.00000000000E+00 -0.45593999997E+02  0.45594000000E+02  0.51100000000E-03 0. -1.
    9900012    2    1    2    0    0  0.26374480427E+02 -0.24586202919E+02  0.24156344492E+02  0.47787267621E+02  0.19999984393E+02 0.  0.
         12    1    1    2    0    0 -0.26374480427E+02  0.24586202919E+02 -0.24156344492E+02  0.43400732379E+02  0.00000000000E+00 0. -1.
         11    1    3    3    0    0  0.57178111797E+01  0.18686560041E+01  0.15265705600E+01  0.62060984430E+01  0.51100000000E-03 0. -1.
        -11    1    3    3    0    0  0.76030364261E+01 -0.10233620975E+02  0.14293710828E+02  0.19153154588E+02  0.51100000000E-03 0.  1.
        -12    1    3    3    0    0  0.13053632821E+02 -0.16221237948E+02  0.83360631040E+01  0.22428014591E+02  0.00000000000E+00 0.  1.
</event>
<event>
 7    1  0.2733256E-010  0.4778726E+02  0.7816164E-02  0.1312668E+00
        -11   -1    0    0    0    0  0.00000000000E+00  0.00000000000E+00  0.45593999997E+02  0.45594000000E+02  0.51100000000E-03 0.  1.
         11   -1    0    0    0    0 -0.00000000000E+00 -0.00000000000E+00 -0.45593999997E+02  0.45594000000E+02  0.51100000000E-03 0. -1.
    9900012    2    1    2    0    0 -0.70355033075E+01  0.22777566408E+02  0.36267179652E+02  0.47787260857E+02  0.19999953551E+02 0.  0.
         12    1    1    2    0    0  0.70355033075E+01 -0.22777566408E+02 -0.36267179652E+02  0.43400739143E+02  0.00000000000E+00 0. -1.
         11    1    3    3    0    0 -0.22345779104E+01  0.76394003489E+01 -0.71130689157E-01  0.79598263778E+01  0.51100000000E-03 0. -1.
        -11    1    3    3    0    0  0.34215527368E+00  0.33839446813E+01  0.92151758916E+01  0.98228111461E+01  0.51100000000E-03 0.  1.
         12    1    3    3    0    0 -0.51430806708E+01  0.11754221378E+02  0.27123134450E+02  0.30004623333E+02  0.00000000000E+00 0. -1.
</event>
<event>
 7    1  0.2733256E-010  0.4778727E+02  0.7816164E-02  0.1312668E+00
        -11   -1    0    0    0    0  0.00000000000E+00  0.00000000000E+00  0.45593999997E+02  0.45594000000E+02  0.51100000000E-03 0.  1.
         11   -1    0    0    0    0 -0.00000000000E+00 -0.00000000000E+00 -0.45593999997E+02  0.45594000000E+02  0.51100000000E-03 0. -1.
    9900012    2    1    2    0    0 -0.26726968017E+02  0.33998844839E+02 -0.36566806451E+01  0.47787267482E+02  0.19999983758E+02 0.  0.
         12    1    1    2    0    0  0.26726968017E+02 -0.33998844839E+02  0.36566806451E+01  0.43400732518E+02  0.00000000000E+00 0. -1.
         11    1    3    3    0    0 -0.65695068953E+01  0.99603665985E+01 -0.37462159845E+00  0.11937657443E+02  0.51100000000E-03 0. -1.
        -11    1    3    3    0    0 -0.10926072443E+02  0.22613027266E+02  0.18670417613E+01  0.25183603920E+02  0.51100000000E-03 0.  1.
         12    1    3    3    0    0 -0.92313886783E+01  0.14254509742E+01 -0.51491008079E+01  0.10666006119E+02  0.00000000000E+00 0. -1.
</event>
<event>
 7    1  0.2733256E-010  0.4778727E+02  0.7816164E-02  0.1312668E+00
        -11   -1    0    0    0    0  0.00000000000E+00  0.00000000000E+00  0.45593999997E+02  0.45594000000E+02  0.51100000000E-03 0.  1.
         11   -1    0    0    0    0 -0.00000000000E+00 -0.00000000000E+00 -0.45593999997E+02  0.45594000000E+02  0.51100000000E-03 0. -1.
    9900012    2    1    2    0    0 -0.26094199602E+01  0.11955986772E+02  0.41639749798E+02  0.47787268952E+02  0.19999990461E+02 0.  0.
         12    1    1    2    0    0  0.26094199602E+01 -0.11955986772E+02 -0.41639749798E+02  0.43400731048E+02  0.00000000000E+00 0. -1.
         11    1    3    3    0    0 -0.76000177619E+01  0.42244669825E+01  0.29252453810E+02  0.30517412168E+02  0.51100000000E-03 0. -1.
        -11    1    3    3    0    0  0.21339382861E+01  0.54127266141E+01  0.12280454711E+02  0.13588998130E+02  0.51100000000E-03 0.  1.
         12    1    3    3    0    0  0.28566595155E+01  0.23187931749E+01  0.10684127739E+00  0.36808586544E+01  0.00000000000E+00 0. -1.
</event>
<event>
 7    1  0.2733256E-010  0.4778728E+02  0.7816164E-02  0.1312668E+00
        -11   -1    0    0    0    0  0.00000000000E+00  0.00000000000E+00  0.45593999997E+02  0.45594000000E+02  0.51100000000E-03 0.  1.
         11   -1    0    0    0    0 -0.00000000000E+00 -0.00000000000E+00 -0.45593999997E+02  0.45594000000E+02  0.51100000000E-03 0. -1.
    9900012    2    1    2    0    0 -0.44424352361E+01  0.37934745803E+02 -0.20611714113E+02  0.47787275022E+02  0.20000018136E+02 0.  0.
         12    1    1    2    0    0  0.44424352361E+01 -0.37934745803E+02  0.20611714113E+02  0.43400724978E+02  0.00000000000E+00 0. -1.
         11    1    3    3    0    0 -0.60668431891E+01  0.37274667439E+01 -0.33924961475E+01  0.78873078411E+01  0.51100000000E-03 0. -1.
        -11    1    3    3    0    0 -0.45302328876E+01  0.19543566283E+02 -0.88162242281E+01  0.21913461684E+02  0.51100000000E-03 0.  1.
         12    1    3    3    0    0  0.61546408406E+01  0.14663712776E+02 -0.84029937372E+01  0.17986505497E+02  0.00000000000E+00 0. -1.
</event>
<event>
 7    1  0.2733256E-010  0.4778727E+02  0.7816164E-02  0.1312668E+00
        -11   -1    0    0    0    0  0.00000000000E+00  0.00000000000E+00  0.45593999997E+02  0.45594000000E+02  0.51100000000E-03 0.  1.
         11   -1    0    0    0    0 -0.00000000000E+00 -0.00000000000E+00 -0.45593999997E+02  0.45594000000E+02  0.51100000000E-03 0. -1.
    9900012    2    1    2    0    0  0.16940589437E+02  0.31521036448E+02  0.24557354955E+02  0.47787274296E+02  0.20000014827E+02 0.  0.
         12    1    1    2    0    0 -0.16940589437E+02 -0.31521036448E+02 -0.24557354955E+02  0.43400725704E+02  0.00000000000E+00 0. -1.
         11    1    3    3    0    0  0.19505438141E+02  0.27807873614E+02  0.20724568458E+02  0.39790045112E+02  0.51100000000E-03 0. -1.
        -11    1    3    3    0    0 -0.20807627369E+00 -0.12486707609E+01  0.16656404260E+01  0.20920881183E+01  0.51100000000E-03 0.  1.
        -12    1    3    3    0    0 -0.23567724308E+01  0.49618335953E+01  0.21671460711E+01  0.59051410662E+01  0.00000000000E+00 0.  1.
</event>
<event>
 7    1  0.2733256E-010  0.4778727E+02  0.7816164E-02  0.1312668E+00
        -11   -1    0    0    0    0  0.00000000000E+00  0.00000000000E+00  0.45593999997E+02  0.45594000000E+02  0.51100000000E-03 0. -1.
         11   -1    0    0    0    0 -0.00000000000E+00 -0.00000000000E+00 -0.45593999997E+02  0.45594000000E+02  0.51100000000E-03 0.  1.
    9900012    2    1    2    0    0 -0.21036330241E+02 -0.37944738469E+02 -0.11370039901E+01  0.47787272523E+02  0.20000006740E+02 0.  0.
         12    1    1    2    0    0  0.21036330241E+02  0.37944738469E+02  0.11370039901E+01  0.43400727477E+02  0.00000000000E+00 0. -1.
         11    1    3    3    0    0 -0.10133309067E+02 -0.14832419806E+02  0.32644906381E+01  0.18257643039E+02  0.51100000000E-03 0. -1.
        -11    1    3    3    0    0 -0.60753977759E+01 -0.57459397154E+01  0.44237228802E+01  0.94602117170E+01  0.51100000000E-03 0.  1.
        -12    1    3    3    0    0 -0.48276233984E+01 -0.17366378947E+02 -0.88252175085E+01  0.20069417766E+02  0.00000000000E+00 0.  1.
</event>
<event>
 7    1  0.2733256E-010  0.4778727E+02  0.7816164E-02  0.1312668E+00
        -11   -1    0    0    0    0  0.00000000000E+00  0.00000000000E+00  0.45593999997E+02  0.45594000000E+02  0.51100000000E-03 0.  1.
         11   -1    0    0    0    0 -0.00000000000E+00 -0.00000000000E+00 -0.45593999997E+02  0.45594000000E+02  0.51100000000E-03 0. -1.
    9900012    2    1    2    0    0  0.80398186878E+01  0.31199495214E+02  0.29078790798E+02  0.47787271199E+02  0.20000000706E+02 0.  0.
         12    1    1    2    0    0 -0.80398186878E+01 -0.31199495214E+02 -0.29078790798E+02  0.43400728801E+02  0.00000000000E+00 0. -1.
         11    1    3    3    0    0 -0.23539242957E+01  0.65409583984E+01  0.82460248309E+01  0.10785268756E+02  0.51100000000E-03 0. -1.
        -11    1    3    3    0    0 -0.83268351052E+00  0.83326418668E+01  0.17154103344E+00  0.83759004827E+01  0.51100000000E-03 0.  1.
        -12    1    3    3    0    0  0.11226426494E+02  0.16325894949E+02  0.20661224934E+02  0.28626101961E+02  0.00000000000E+00 0.  1.
</event>
<event>
 7    1  0.2733256E-010  0.4778727E+02  0.7816164E-02  0.1312668E+00
        -11   -1    0    0    0    0  0.00000000000E+00  0.00000000000E+00  0.45593999997E+02  0.45594000000E+02  0.51100000000E-03 0.  1.
         11   -1    0    0    0    0 -0.00000000000E+00 -0.00000000000E+00 -0.45593999997E+02  0.45594000000E+02  0.51100000000E-03 0. -1.
    9900012    2    1    2    0    0 -0.29925019156E+02  0.90835363695E+01  0.30093285094E+02  0.47787271755E+02  0.20000003239E+02 0.  0.
         12    1    1    2    0    0  0.29925019156E+02 -0.90835363695E+01 -0.30093285094E+02  0.43400728245E+02  0.00000000000E+00 0. -1.
         11    1    3    3    0    0 -0.21744564740E+02  0.64866691864E+01  0.13443514821E+02  0.26374818746E+02  0.51100000000E-03 0. -1.
        -11    1    3    3    0    0 -0.77894087244E+01  0.60056862673E+01  0.10622004206E+02  0.14476537204E+02  0.51100000000E-03 0.  1.
        -12    1    3    3    0    0 -0.39104569074E+00 -0.34088190843E+01  0.60277660674E+01  0.69359158043E+01  0.00000000000E+00 0.  1.
</event>
<event>
 7    1  0.2733256E-010  0.4778727E+02  0.7816164E-02  0.1312668E+00
        -11   -1    0    0    0    0  0.00000000000E+00  0.00000000000E+00  0.45593999997E+02  0.45594000000E+02  0.51100000000E-03 0. -1.
         11   -1    0    0    0    0 -0.00000000000E+00 -0.00000000000E+00 -0.45593999997E+02  0.45594000000E+02  0.51100000000E-03 0.  1.
    9900012    2    1    2    0    0 -0.10402644571E+02 -0.37012583307E+02 -0.20136466831E+02  0.47787266901E+02  0.19999981109E+02 0.  0.
         12    1    1    2    0    0  0.10402644571E+02  0.37012583307E+02  0.20136466831E+02  0.43400733099E+02  0.00000000000E+00 0. -1.
         11    1    3    3    0    0  0.35058234950E+01 -0.50556812540E+01 -0.37635418522E+01  0.72121396862E+01  0.51100000000E-03 0. -1.
        -11    1    3    3    0    0 -0.51892721128E+01 -0.24077536456E+02 -0.14756399389E+02  0.28712499544E+02  0.51100000000E-03 0.  1.
         12    1    3    3    0    0 -0.87191959536E+01 -0.78793655964E+01 -0.16165255890E+01  0.11862627671E+02  0.00000000000E+00 0. -1.
</event>
<event>
 7    1  0.2733256E-010  0.4778727E+02  0.7816164E-02  0.1312668E+00
        -11   -1    0    0    0    0  0.00000000000E+00  0.00000000000E+00  0.45593999997E+02  0.45594000000E+02  0.51100000000E-03 0.  1.
         11   -1    0    0    0    0 -0.00000000000E+00 -0.00000000000E+00 -0.45593999997E+02  0.45594000000E+02  0.51100000000E-03 0. -1.
    9900012    2    1    2    0    0 -0.23823965858E+02  0.15743949630E+01  0.36243116704E+02  0.47787267550E+02  0.19999984070E+02 0.  0.
         12    1    1    2    0    0  0.23823965858E+02 -0.15743949630E+01 -0.36243116704E+02  0.43400732450E+02  0.00000000000E+00 0. -1.
         11    1    3    3    0    0  0.30244888889E+01  0.95176024860E-01  0.75873179503E+00  0.31196579480E+01  0.51100000000E-03 0. -1.
        -11    1    3    3    0    0 -0.33537573480E+01  0.13585150442E+01  0.42161944778E+01  0.55560370418E+01  0.51100000000E-03 0.  1.
         12    1    3    3    0    0 -0.23494697399E+02  0.12070389401E+00  0.31268190432E+02  0.39111572561E+02  0.00000000000E+00 0. -1.
</event>
<event>
 7    1  0.2733256E-010  0.4778727E+02  0.7816164E-02  0.1312668E+00
        -11   -1    0    0    0    0  0.00000000000E+00  0.00000000000E+00  0.45593999997E+02  0.45594000000E+02  0.51100000000E-03 0. -1.
         11   -1    0    0    0    0 -0.00000000000E+00 -0.00000000000E+00 -0.45593999997E+02  0.45594000000E+02  0.51100000000E-03 0.  1.
    9900012    2    1    2    0    0 -0.20307963893E+02 -0.22159145183E+02 -0.31307866652E+02  0.47787266976E+02  0.19999981451E+02 0.  0.
         12    1    1    2    0    0  0.20307963893E+02  0.22159145183E+02  0.31307866652E+02  0.43400733024E+02  0.00000000000E+00 0. -1.
         11    1    3    3    0    0 -0.21460893042E+01  0.51420185430E+00 -0.17839183650E+01  0.28376870586E+01  0.51100000000E-03 0. -1.
        -11    1    3    3    0    0 -0.17801696260E+02 -0.22188173061E+02 -0.18553375041E+02  0.33962378291E+02  0.51100000000E-03 0.  1.
        -12    1    3    3    0    0 -0.36017832837E+00 -0.48517397568E+00 -0.10970573247E+02  0.10987201626E+02  0.00000000000E+00 0.  1.
</event>
<event>
 7    1  0.2733256E-010  0.4778727E+02  0.7816164E-02  0.1312668E+00
        -11   -1    0    0    0    0  0.00000000000E+00  0.00000000000E+00  0.45593999997E+02  0.45594000000E+02  0.51100000000E-03 0.  1.
         11   -1    0    0    0    0 -0.00000000000E+00 -0.00000000000E+00 -0.45593999997E+02  0.45594000000E+02  0.51100000000E-03 0. -1.
    9900012    2    1    2    0    0  0.70575947745E+01  0.72517153745E+01  0.42204576322E+02  0.47787270946E+02  0.19999999551E+02 0.  0.
         12    1    1    2    0    0 -0.70575947745E+01 -0.72517153745E+01 -0.42204576322E+02  0.43400729054E+02  0.00000000000E+00 0. -1.
         11    1    3    3    0    0 -0.22134754158E+01 -0.20771260366E+01  0.52633224776E+01  0.60758941525E+01  0.51100000000E-03 0. -1.
        -11    1    3    3    0    0 -0.20997635386E+01 -0.16786956672E+01  0.19921142193E+01  0.33459745046E+01  0.51100000000E-03 0.  1.
        -12    1    3    3    0    0  0.11370833729E+02  0.11007537078E+02  0.34949139625E+02  0.38365402289E+02  0.00000000000E+00 0.  1.
</event>
<event>
 7    1  0.2733256E-010  0.4778727E+02  0.7816164E-02  0.1312668E+00
        -11   -1    0    0    0    0  0.00000000000E+00  0.00000000000E+00  0.45593999997E+02  0.45594000000E+02  0.51100000000E-03 0.  1.
         11   -1    0    0    0    0 -0.00000000000E+00 -0.00000000000E+00 -0.45593999997E+02  0.45594000000E+02  0.51100000000E-03 0. -1.
    9900012    2    1    2    0    0  0.38946893170E+01 -0.43006025189E+02 -0.43516008315E+01  0.47787271467E+02  0.20000001925E+02 0.  0.
         12    1    1    2    0    0 -0.38946893170E+01  0.43006025189E+02  0.43516008315E+01  0.43400728533E+02  0.00000000000E+00 0. -1.
         11    1    3    3    0    0  0.30968383716E+01 -0.33224346928E+01 -0.38134387544E+01  0.59305392320E+01  0.51100000000E-03 0. -1.
        -11    1    3    3    0    0  0.21820987602E+01 -0.93413593114E+01  0.52512833033E+01  0.10936111072E+02  0.51100000000E-03 0.  1.
         12    1    3    3    0    0 -0.13842478148E+01 -0.30342231185E+02 -0.57894453804E+01  0.30920621163E+02  0.00000000000E+00 0. -1.
</event>
<event>
 7    1  0.2733256E-010  0.4778727E+02  0.7816164E-02  0.1312668E+00
        -11   -1    0    0    0    0  0.00000000000E+00  0.00000000000E+00  0.45593999997E+02  0.45594000000E+02  0.51100000000E-03 0.  1.
         11   -1    0    0    0    0 -0.00000000000E+00 -0.00000000000E+00 -0.45593999997E+02  0.45594000000E+02  0.51100000000E-03 0. -1.
    9900012    2    1    2    0    0 -0.37258563990E+02 -0.19864832707E+02  0.10040462884E+02  0.47787273463E+02  0.20000011025E+02 0.  0.
         12    1    1    2    0    0  0.37258563990E+02  0.19864832707E+02 -0.10040462884E+02  0.43400726537E+02  0.00000000000E+00 0. -1.
         11    1    3    3    0    0 -0.24592806266E+02 -0.11883036844E+02  0.42196174214E+01  0.27637254859E+02  0.51100000000E-03 0. -1.
        -11    1    3    3    0    0 -0.13938844969E+02 -0.59320266281E+01  0.77912320961E+01  0.17034777275E+02  0.51100000000E-03 0.  1.
         12    1    3    3    0    0  0.12730872454E+01 -0.20497692342E+01 -0.19703866335E+01  0.31152413283E+01  0.00000000000E+00 0. -1.
</event>
<event>
 7    1  0.2733256E-010  0.4778727E+02  0.7816164E-02  0.1312668E+00
        -11   -1    0    0    0    0  0.00000000000E+00  0.00000000000E+00  0.45593999997E+02  0.45594000000E+02  0.51100000000E-03 0.  1.
         11   -1    0    0    0    0 -0.00000000000E+00 -0.00000000000E+00 -0.45593999997E+02  0.45594000000E+02  0.51100000000E-03 0. -1.
    9900012    2    1    2    0    0 -0.43317241190E+02  0.26500130356E+01  0.46590560753E+00  0.47787273953E+02  0.20000013262E+02 0.  0.
         12    1    1    2    0    0  0.43317241190E+02 -0.26500130356E+01 -0.46590560753E+00  0.43400726047E+02  0.00000000000E+00 0. -1.
         11    1    3    3    0    0 -0.35400208254E+02  0.79596991991E+01  0.11324703346E+01  0.36301708570E+02  0.51100000000E-03 0.  1.
        -11    1    3    3    0    0 -0.22900426835E+01 -0.99484117537E+00 -0.31074975856E+01  0.39862947661E+01  0.51100000000E-03 0. -1.
         12    1    3    3    0    0 -0.56269902519E+01 -0.43148449882E+01  0.24409328585E+01  0.74992706170E+01  0.00000000000E+00 0. -1.
</event>
<event>
 7    1  0.2733256E-010  0.4778727E+02  0.7816164E-02  0.1312668E+00
        -11   -1    0    0    0    0  0.00000000000E+00  0.00000000000E+00  0.45593999997E+02  0.45594000000E+02  0.51100000000E-03 0.  1.
         11   -1    0    0    0    0 -0.00000000000E+00 -0.00000000000E+00 -0.45593999997E+02  0.45594000000E+02  0.51100000000E-03 0. -1.
    9900012    2    1    2    0    0 -0.26733010103E+02  0.31389125118E+02  0.13553322184E+02  0.47787267897E+02  0.19999985649E+02 0.  0.
         12    1    1    2    0    0  0.26733010103E+02 -0.31389125118E+02 -0.13553322184E+02  0.43400732103E+02  0.00000000000E+00 0. -1.
         11    1    3    3    0    0 -0.24474417137E+01  0.26240424443E+01 -0.32467836853E+01  0.48391294931E+01  0.51100000000E-03 0. -1.
        -11    1    3    3    0    0 -0.70932427445E+01  0.32022196753E+01  0.74009391814E+01  0.10739748810E+02  0.51100000000E-03 0.  1.
        -12    1    3    3    0    0 -0.17192325645E+02  0.25562862998E+02  0.93991666884E+01  0.32208389593E+02  0.00000000000E+00 0.  1.
</event>
<event>
 7    1  0.2733256E-010  0.4778727E+02  0.7816164E-02  0.1312668E+00
        -11   -1    0    0    0    0  0.00000000000E+00  0.00000000000E+00  0.45593999997E+02  0.45594000000E+02  0.51100000000E-03 0. -1.
         11   -1    0    0    0    0 -0.00000000000E+00 -0.00000000000E+00 -0.45593999997E+02  0.45594000000E+02  0.51100000000E-03 0.  1.
    9900012    2    1    2    0    0 -0.36314791851E+02 -0.19002639740E+02 -0.14274429382E+02  0.47787265462E+02  0.19999974546E+02 0.  0.
         12    1    1    2    0    0  0.36314791851E+02  0.19002639740E+02  0.14274429382E+02  0.43400734538E+02  0.00000000000E+00 0. -1.
         11    1    3    3    0    0 -0.53921435040E+01  0.16785116780E+01 -0.36427802560E+01  0.67203021715E+01  0.51100000000E-03 0.  1.
        -11    1    3    3    0    0 -0.30620112282E+02 -0.18735256432E+02 -0.64873488072E+01  0.36478580078E+02  0.51100000000E-03 0. -1.
        -12    1    3    3    0    0 -0.30253606548E+00 -0.19458949866E+01 -0.41443003185E+01  0.45883832120E+01  0.00000000000E+00 0.  1.
</event>
<event>
 7    1  0.2733256E-010  0.4778728E+02  0.7816164E-02  0.1312668E+00
        -11   -1    0    0    0    0  0.00000000000E+00  0.00000000000E+00  0.45593999997E+02  0.45594000000E+02  0.51100000000E-03 0.  1.
         11   -1    0    0    0    0 -0.00000000000E+00 -0.00000000000E+00 -0.45593999997E+02  0.45594000000E+02  0.51100000000E-03 0. -1.
    9900012    2    1    2    0    0  0.42534263047E+02 -0.34884595836E+01  0.78923911897E+01  0.47787277403E+02  0.20000028993E+02 0.  0.
         12    1    1    2    0    0 -0.42534263047E+02  0.34884595836E+01 -0.78923911897E+01  0.43400722597E+02  0.00000000000E+00 0. -1.
         11    1    3    3    0    0  0.14373188663E+02  0.36755081040E+01 -0.23483729248E+01  0.15020411706E+02  0.51100000000E-03 0. -1.
        -11    1    3    3    0    0  0.34469951503E+01  0.26011637861E+01  0.28879552697E+01  0.51950086149E+01  0.51100000000E-03 0.  1.
         12    1    3    3    0    0  0.24714079234E+02 -0.97651314737E+01  0.73528088448E+01  0.27571857082E+02  0.00000000000E+00 0. -1.
</event>
<event>
 7    1  0.2733256E-010  0.4778727E+02  0.7816164E-02  0.1312668E+00
        -11   -1    0    0    0    0  0.00000000000E+00  0.00000000000E+00  0.45593999997E+02  0.45594000000E+02  0.51100000000E-03 0.  1.
         11   -1    0    0    0    0 -0.00000000000E+00 -0.00000000000E+00 -0.45593999997E+02  0.45594000000E+02  0.51100000000E-03 0. -1.
    9900012    2    1    2    0    0 -0.23148262058E+02  0.29718161683E+02  0.21554856747E+02  0.47787273975E+02  0.20000013361E+02 0.  0.
         12    1    1    2    0    0  0.23148262058E+02 -0.29718161683E+02 -0.21554856747E+02  0.43400726025E+02  0.00000000000E+00 0. -1.
         11    1    3    3    0    0 -0.21570061764E+02  0.16833151255E+02  0.91252525256E+01  0.28842551544E+02  0.51100000000E-03 0. -1.
        -11    1    3    3    0    0 -0.23121660612E+01  0.26263604008E+01  0.55845785039E+01  0.65902502363E+01  0.51100000000E-03 0.  1.
        -12    1    3    3    0    0  0.73396576695E+00  0.10258650027E+02  0.68450257179E+01  0.12354472194E+02  0.00000000000E+00 0.  1.
</event>
<event>
 7    1  0.2733256E-010  0.4778727E+02  0.7816164E-02  0.1312668E+00
        -11   -1    0    0    0    0  0.00000000000E+00  0.00000000000E+00  0.45593999997E+02  0.45594000000E+02  0.51100000000E-03 0.  1.
         11   -1    0    0    0    0 -0.00000000000E+00 -0.00000000000E+00 -0.45593999997E+02  0.45594000000E+02  0.51100000000E-03 0. -1.
    9900012    2    1    2    0    0  0.33776123998E+02 -0.15438626792E+02  0.22459862209E+02  0.47787272356E+02  0.20000005982E+02 0.  0.
         12    1    1    2    0    0 -0.33776123998E+02  0.15438626792E+02 -0.22459862209E+02  0.43400727644E+02  0.00000000000E+00 0. -1.
         11    1    3    3    0    0  0.60544577745E+01 -0.34265163251E+00  0.12379131177E+02  0.13784656617E+02  0.51100000000E-03 0.  1.
        -11    1    3    3    0    0  0.32620145929E+01  0.54430092709E+00  0.12162546957E+00  0.33093497427E+01  0.51100000000E-03 0. -1.
        -12    1    3    3    0    0  0.24459651631E+02 -0.15640276086E+02  0.99591055621E+01  0.30693265997E+02  0.00000000000E+00 0.  1.
</event>
<event>
 7    1  0.2733256E-010  0.4778726E+02  0.7816164E-02  0.1312668E+00
        -11   -1    0    0    0    0  0.00000000000E+00  0.00000000000E+00  0.45593999997E+02  0.45594000000E+02  0.51100000000E-03 0.  1.
         11   -1    0    0    0    0 -0.00000000000E+00 -0.00000000000E+00 -0.45593999997E+02  0.45594000000E+02  0.51100000000E-03 0. -1.
    9900012    2    1    2    0    0  0.28537923969E+02 -0.30360822729E+02  0.12142140201E+02  0.47787260030E+02  0.19999949782E+02 0.  0.
         12    1    1    2    0    0 -0.28537923969E+02  0.30360822729E+02 -0.12142140201E+02  0.43400739970E+02  0.00000000000E+00 0. -1.
         11    1    3    3    0    0  0.26075883147E+01 -0.18850368881E+01  0.77388190249E+01  0.83810620478E+01  0.51100000000E-03 0. -1.
        -11    1    3    3    0    0  0.12108270575E+02 -0.10158649407E+02  0.45902305930E+01  0.16458389691E+02  0.51100000000E-03 0.  1.
        -12    1    3    3    0    0  0.13822065080E+02 -0.18317136435E+02 -0.18690941684E+00  0.22947808291E+02  0.00000000000E+00 0.  1.
</event>
<event>
 7    1  0.2733256E-010  0.4778727E+02  0.7816164E-02  0.1312668E+00
        -11   -1    0    0    0    0  0.00000000000E+00  0.00000000000E+00  0.45593999997E+02  0.45594000000E+02  0.51100000000E-03 0.  1.
         11   -1    0    0    0    0 -0.00000000000E+00 -0.00000000000E+00 -0.45593999997E+02  0.45594000000E+02  0.51100000000E-03 0. -1.
    9900012    2    1    2    0    0 -0.44569350676E+01  0.41447365690E+01  0.42971852150E+02  0.47787272026E+02  0.20000004476E+02 0.  0.
         12    1    1    2    0    0  0.44569350676E+01 -0.41447365690E+01 -0.42971852150E+02  0.43400727974E+02  0.00000000000E+00 0. -1.
         11    1    3    3    0    0 -0.12019788572E+00 -0.50136613542E+01  0.15941887443E+02  0.16712122043E+02  0.51100000000E-03 0. -1.
        -11    1    3    3    0    0 -0.65894269304E+01  0.13066713500E+01  0.15972817519E+02  0.17327978446E+02  0.51100000000E-03 0.  1.
        -12    1    3    3    0    0  0.22526897485E+01  0.78517265731E+01  0.11057147189E+02  0.13747171536E+02  0.00000000000E+00 0.  1.
</event>
<event>
 7    1  0.2733256E-010  0.4778727E+02  0.7816164E-02  0.1312668E+00
        -11   -1    0    0    0    0  0.00000000000E+00  0.00000000000E+00  0.45593999997E+02  0.45594000000E+02  0.51100000000E-03 0.  1.
         11   -1    0    0    0    0 -0.00000000000E+00 -0.00000000000E+00 -0.45593999997E+02  0.45594000000E+02  0.51100000000E-03 0. -1.
    9900012    2    1    2    0    0  0.35107235109E+02 -0.23125700508E+02  0.10784570701E+02  0.47787274819E+02  0.20000017211E+02 0.  0.
         12    1    1    2    0    0 -0.35107235109E+02  0.23125700508E+02 -0.10784570701E+02  0.43400725181E+02  0.00000000000E+00 0. -1.
         11    1    3    3    0    0  0.10710808007E+02 -0.41133173071E+01  0.25407330469E-01  0.11473510065E+02  0.51100000000E-03 0. -1.
        -11    1    3    3    0    0  0.17765206985E+02 -0.77374977680E+01  0.12586908415E+02  0.23106313307E+02  0.51100000000E-03 0.  1.
        -12    1    3    3    0    0  0.66312201172E+01 -0.11274885433E+02 -0.18277450442E+01  0.13207451447E+02  0.00000000000E+00 0.  1.
</event>
<event>
 7    1  0.2733256E-010  0.4778727E+02  0.7816164E-02  0.1312668E+00
        -11   -1    0    0    0    0  0.00000000000E+00  0.00000000000E+00  0.45593999997E+02  0.45594000000E+02  0.51100000000E-03 0.  1.
         11   -1    0    0    0    0 -0.00000000000E+00 -0.00000000000E+00 -0.45593999997E+02  0.45594000000E+02  0.51100000000E-03 0. -1.
    9900012    2    1    2    0    0 -0.26347800456E+02 -0.12902953050E+02  0.31983287775E+02  0.47787268634E+02  0.19999989008E+02 0.  0.
         12    1    1    2    0    0  0.26347800456E+02  0.12902953050E+02 -0.31983287775E+02  0.43400731366E+02  0.00000000000E+00 0. -1.
         11    1    3    3    0    0 -0.60608562548E+00 -0.21157584797E+00  0.46563005552E-01  0.64364003874E+00  0.51100000000E-03 0. -1.
        -11    1    3    3    0    0 -0.26193340530E+02 -0.57131391431E+01  0.29183336568E+02  0.39628249778E+02  0.51100000000E-03 0.  1.
         12    1    3    3    0    0  0.45162569895E+00 -0.69782380585E+01  0.27533882009E+01  0.75153788167E+01  0.00000000000E+00 0. -1.
</event>
<event>
 7    1  0.2733256E-010  0.4778727E+02  0.7816164E-02  0.1312668E+00
        -11   -1    0    0    0    0  0.00000000000E+00  0.00000000000E+00  0.45593999997E+02  0.45594000000E+02  0.51100000000E-03 0.  1.
         11   -1    0    0    0    0 -0.00000000000E+00 -0.00000000000E+00 -0.45593999997E+02  0.45594000000E+02  0.51100000000E-03 0. -1.
    9900012    2    1    2    0    0  0.24269796434E+02  0.35558155918E+02 -0.54970814820E+01  0.47787269868E+02  0.19999994634E+02 0.  0.
         12    1    1    2    0    0 -0.24269796434E+02 -0.35558155918E+02  0.54970814820E+01  0.43400730132E+02  0.00000000000E+00 0. -1.
         11    1    3    3    0    0 -0.78848317465E-01 -0.85883750037E-01 -0.11362716897E+01  0.11422375802E+01  0.51100000000E-03 0. -1.
        -11    1    3    3    0    0  0.10794874252E+02  0.36764803990E+01  0.12514169142E+01  0.11472221354E+02  0.51100000000E-03 0.  1.
         12    1    3    3    0    0  0.13553770499E+02  0.31967559269E+02 -0.56122267066E+01  0.35172810933E+02  0.00000000000E+00 0. -1.
</event>
<event>
 7    1  0.2733256E-010  0.4778731E+02  0.7816164E-02  0.1312668E+00
        -11   -1    0    0    0    0  0.00000000000E+00  0.00000000000E+00  0.45593999997E+02  0.45594000000E+02  0.51100000000E-03 0.  1.
         11   -1    0    0    0    0 -0.00000000000E+00 -0.00000000000E+00 -0.45593999997E+02  0.45594000000E+02  0.51100000000E-03 0. -1.
    9900012    2    1    2    0    0 -0.14124386755E+02 -0.31042967864E+02  0.26841305070E+02  0.47787310917E+02  0.20000181796E+02 0.  0.
         12    1    1    2    0    0  0.14124386755E+02  0.31042967864E+02 -0.26841305070E+02  0.43400689083E+02  0.00000000000E+00 0. -1.
         11    1    3    3    0    0 -0.17149624398E+01 -0.87306529471E+01  0.34285317203E+01  0.95352098598E+01  0.51100000000E-03 0.  1.
        -11    1    3    3    0    0 -0.65580738218E+01 -0.15259327350E+02  0.44557676809E+01  0.17196199269E+02  0.51100000000E-03 0. -1.
        -12    1    3    3    0    0 -0.58513504935E+01 -0.70529875670E+01  0.18957005668E+02  0.21055901789E+02  0.00000000000E+00 0.  1.
</event>
<event>
 7    1  0.2733256E-010  0.4778727E+02  0.7816164E-02  0.1312668E+00
        -11   -1    0    0    0    0  0.00000000000E+00  0.00000000000E+00  0.45593999997E+02  0.45594000000E+02  0.51100000000E-03 0.  1.
         11   -1    0    0    0    0 -0.00000000000E+00 -0.00000000000E+00 -0.45593999997E+02  0.45594000000E+02  0.51100000000E-03 0. -1.
    9900012    2    1    2    0    0  0.24706641692E+02  0.98338244825E+01  0.34300164538E+02  0.47787268036E+02  0.19999986284E+02 0.  0.
         12    1    1    2    0    0 -0.24706641692E+02 -0.98338244825E+01 -0.34300164538E+02  0.43400731964E+02  0.00000000000E+00 0. -1.
         11    1    3    3    0    0  0.28229562830E+01  0.28737247135E+00 -0.10611698587E+01  0.30294796324E+01  0.51100000000E-03 0. -1.
        -11    1    3    3    0    0  0.85468349872E+01 -0.21153495616E+00  0.42904849614E+01  0.95656362465E+01  0.51100000000E-03 0.  1.
        -12    1    3    3    0    0  0.13336850422E+02  0.97579869673E+01  0.31070849435E+02  0.35192152157E+02  0.00000000000E+00 0.  1.
</event>
<event>
 7    1  0.2733256E-010  0.4778728E+02  0.7816164E-02  0.1312668E+00
        -11   -1    0    0    0    0  0.00000000000E+00  0.00000000000E+00  0.45593999997E+02  0.45594000000E+02  0.51100000000E-03 0. -1.
         11   -1    0    0    0    0 -0.00000000000E+00 -0.00000000000E+00 -0.45593999997E+02  0.45594000000E+02  0.51100000000E-03 0.  1.
    9900012    2    1    2    0    0  0.32014806185E+02 -0.13997220335E+02 -0.25743978320E+02  0.47787280975E+02  0.20000045278E+02 0.  0.
         12    1    1    2    0    0 -0.32014806185E+02  0.13997220335E+02  0.25743978320E+02  0.43400719025E+02  0.00000000000E+00 0. -1.
         11    1    3    3    0    0  0.22036001713E+01 -0.59047455724E+01 -0.95516937366E+00  0.63744978456E+01  0.51100000000E-03 0.  1.
        -11    1    3    3    0    0  0.36590755282E+01  0.17914660813E+01 -0.39306827568E-01  0.40742765897E+01  0.51100000000E-03 0. -1.
        -12    1    3    3    0    0  0.26152130485E+02 -0.98839408436E+01 -0.24749502119E+02  0.37338506540E+02  0.00000000000E+00 0.  1.
</event>
<event>
 7    1  0.2733256E-010  0.4778727E+02  0.7816164E-02  0.1312668E+00
        -11   -1    0    0    0    0  0.00000000000E+00  0.00000000000E+00  0.45593999997E+02  0.45594000000E+02  0.51100000000E-03 0. -1.
         11   -1    0    0    0    0 -0.00000000000E+00 -0.00000000000E+00 -0.45593999997E+02  0.45594000000E+02  0.51100000000E-03 0.  1.
    9900012    2    1    2    0    0 -0.25564562139E+02  0.35059506469E+02 -0.95259981979E+00  0.47787271001E+02  0.19999999801E+02 0.  0.
         12    1    1    2    0    0  0.25564562139E+02 -0.35059506469E+02  0.95259981979E+00  0.43400728999E+02  0.00000000000E+00 0. -1.
         11    1    3    3    0    0 -0.78289287076E+01  0.27272617704E+01  0.85751223778E+00  0.83345911100E+01  0.51100000000E-03 0. -1.
        -11    1    3    3    0    0 -0.13503727169E+02  0.14620923730E+02  0.40744609969E+01  0.20315592309E+02  0.51100000000E-03 0.  1.
         12    1    3    3    0    0 -0.42319062621E+01  0.17711320969E+02 -0.58845730545E+01  0.19137087582E+02  0.00000000000E+00 0. -1.
</event>
<event>
 7    1  0.2733256E-010  0.4778727E+02  0.7816164E-02  0.1312668E+00
        -11   -1    0    0    0    0  0.00000000000E+00  0.00000000000E+00  0.45593999997E+02  0.45594000000E+02  0.51100000000E-03 0. -1.
         11   -1    0    0    0    0 -0.00000000000E+00 -0.00000000000E+00 -0.45593999997E+02  0.45594000000E+02  0.51100000000E-03 0.  1.
    9900012    2    1    2    0    0  0.26338800985E+02  0.13089773729E+02 -0.31914706346E+02  0.47787273108E+02  0.20000009407E+02 0.  0.
         12    1    1    2    0    0 -0.26338800985E+02 -0.13089773729E+02  0.31914706346E+02  0.43400726892E+02  0.00000000000E+00 0. -1.
         11    1    3    3    0    0  0.12939426762E+02  0.11224761051E+02 -0.13456786905E+02  0.21783230698E+02  0.51100000000E-03 0. -1.
        -11    1    3    3    0    0  0.28517809050E+01  0.13859169605E+01 -0.14314864635E+02  0.14661813323E+02  0.51100000000E-03 0.  1.
         12    1    3    3    0    0  0.10547593319E+02  0.47909571719E+00 -0.41430548067E+01  0.11342229087E+02  0.00000000000E+00 0. -1.
</event>
<event>
 7    1  0.2733256E-010  0.4778727E+02  0.7816164E-02  0.1312668E+00
        -11   -1    0    0    0    0  0.00000000000E+00  0.00000000000E+00  0.45593999997E+02  0.45594000000E+02  0.51100000000E-03 0.  1.
         11   -1    0    0    0    0 -0.00000000000E+00 -0.00000000000E+00 -0.45593999997E+02  0.45594000000E+02  0.51100000000E-03 0. -1.
    9900012    2    1    2    0    0  0.56201111228E+01 -0.27333228207E+02  0.33240519147E+02  0.47787272743E+02  0.20000007747E+02 0.  0.
         12    1    1    2    0    0 -0.56201111228E+01  0.27333228207E+02 -0.33240519147E+02  0.43400727257E+02  0.00000000000E+00 0. -1.
         11    1    3    3    0    0  0.25826040769E+01 -0.40416036567E+01  0.45427573385E+01  0.66061371794E+01  0.51100000000E-03 0.  1.
        -11    1    3    3    0    0  0.74531953890E+01 -0.40466390154E+01  0.35148178565E+01  0.91803787315E+01  0.51100000000E-03 0. -1.
         12    1    3    3    0    0 -0.44156883431E+01 -0.19244985534E+02  0.25182943952E+02  0.32000756833E+02  0.00000000000E+00 0. -1.
</event>
<event>
 7    1  0.2733256E-010  0.4778727E+02  0.7816164E-02  0.1312668E+00
        -11   -1    0    0    0    0  0.00000000000E+00  0.00000000000E+00  0.45593999997E+02  0.45594000000E+02  0.51100000000E-03 0.  1.
         11   -1    0    0    0    0 -0.00000000000E+00 -0.00000000000E+00 -0.45593999997E+02  0.45594000000E+02  0.51100000000E-03 0. -1.
    9900012    2    1    2    0    0  0.17432488234E+02 -0.24474079841E+02  0.31316944351E+02  0.47787271509E+02  0.20000002117E+02 0.  0.
         12    1    1    2    0    0 -0.17432488234E+02  0.24474079841E+02 -0.31316944351E+02  0.43400728491E+02  0.00000000000E+00 0. -1.
         11    1    3    3    0    0  0.81043642144E+01 -0.10512546361E+02  0.18266328187E+02  0.22579926838E+02  0.51100000000E-03 0.  1.
        -11    1    3    3    0    0  0.32770312456E+01 -0.15062417206E+02  0.94255551000E+01  0.18068105464E+02  0.51100000000E-03 0. -1.
         12    1    3    3    0    0  0.60510927737E+01  0.11008837255E+01  0.36250610641E+01  0.71392392068E+01  0.00000000000E+00 0. -1.
</event>
<event>
 7    1  0.2733256E-010  0.4778727E+02  0.7816164E-02  0.1312668E+00
        -11   -1    0    0    0    0  0.00000000000E+00  0.00000000000E+00  0.45593999997E+02  0.45594000000E+02  0.51100000000E-03 0.  1.
         11   -1    0    0    0    0 -0.00000000000E+00 -0.00000000000E+00 -0.45593999997E+02  0.45594000000E+02  0.51100000000E-03 0. -1.
    9900012    2    1    2    0    0 -0.22755850684E+01 -0.79055528865E+01  0.42613930611E+02  0.47787272633E+02  0.20000007244E+02 0.  0.
         12    1    1    2    0    0  0.22755850684E+01  0.79055528865E+01 -0.42613930611E+02  0.43400727367E+02  0.00000000000E+00 0. -1.
         11    1    3    3    0    0 -0.41416889782E+01  0.26093162273E+00  0.34982661145E+01  0.54276642281E+01  0.51100000000E-03 0. -1.
        -11    1    3    3    0    0 -0.19892840262E+01 -0.98090257478E+01  0.16040011623E+02  0.18906512375E+02  0.51100000000E-03 0.  1.
        -12    1    3    3    0    0  0.38553879360E+01  0.16425412385E+01  0.23075652873E+02  0.23453096030E+02  0.00000000000E+00 0.  1.
</event>
<event>
 7    1  0.2733256E-010  0.4778727E+02  0.7816164E-02  0.1312668E+00
        -11   -1    0    0    0    0  0.00000000000E+00  0.00000000000E+00  0.45593999997E+02  0.45594000000E+02  0.51100000000E-03 0.  1.
         11   -1    0    0    0    0 -0.00000000000E+00 -0.00000000000E+00 -0.45593999997E+02  0.45594000000E+02  0.51100000000E-03 0. -1.
    9900012    2    1    2    0    0  0.30982636229E+02  0.23083695587E+02  0.19769738682E+02  0.47787270545E+02  0.19999997721E+02 0.  0.
         12    1    1    2    0    0 -0.30982636229E+02 -0.23083695587E+02 -0.19769738682E+02  0.43400729455E+02  0.00000000000E+00 0. -1.
         11    1    3    3    0    0  0.91404706170E+00 -0.15105566647E+01  0.18703180062E+00  0.17754561734E+01  0.51100000000E-03 0. -1.
        -11    1    3    3    0    0  0.38943803971E+00  0.70568854949E+01  0.45344392900E+01  0.83971682614E+01  0.51100000000E-03 0.  1.
         12    1    3    3    0    0  0.29679151128E+02  0.17537366757E+02  0.15048267592E+02  0.37614646110E+02  0.00000000000E+00 0. -1.
</event>
<event>
 7    1  0.2733256E-010  0.4778727E+02  0.7816164E-02  0.1312668E+00
        -11   -1    0    0    0    0  0.00000000000E+00  0.00000000000E+00  0.45593999997E+02  0.45594000000E+02  0.51100000000E-03 0.  1.
         11   -1    0    0    0    0 -0.00000000000E+00 -0.00000000000E+00 -0.45593999997E+02  0.45594000000E+02  0.51100000000E-03 0. -1.
    9900012    2    1    2    0    0  0.33261391277E+02  0.22865371424E+02 -0.15952357673E+02  0.47787273331E+02  0.20000010426E+02 0.  0.
         12    1    1    2    0    0 -0.33261391277E+02 -0.22865371424E+02  0.15952357673E+02  0.43400726669E+02  0.00000000000E+00 0. -1.
         11    1    3    3    0    0  0.42409482715E+01  0.33246270950E+01 -0.64704557653E+01  0.84205454475E+01  0.51100000000E-03 0. -1.
        -11    1    3    3    0    0  0.12716167810E+02  0.11421877405E+02  0.29078925881E+01  0.17338282694E+02  0.51100000000E-03 0.  1.
        -12    1    3    3    0    0  0.16304275196E+02  0.81188669240E+01 -0.12389794496E+02  0.22028445189E+02  0.00000000000E+00 0.  1.
</event>
<event>
 7    1  0.2733256E-010  0.4778727E+02  0.7816164E-02  0.1312668E+00
        -11   -1    0    0    0    0  0.00000000000E+00  0.00000000000E+00  0.45593999997E+02  0.45594000000E+02  0.51100000000E-03 0.  1.
         11   -1    0    0    0    0 -0.00000000000E+00 -0.00000000000E+00 -0.45593999997E+02  0.45594000000E+02  0.51100000000E-03 0. -1.
    9900012    2    1    2    0    0 -0.27969813988E+02  0.20124423475E+01  0.33124958969E+02  0.47787270450E+02  0.19999997292E+02 0.  0.
         12    1    1    2    0    0  0.27969813988E+02 -0.20124423475E+01 -0.33124958969E+02  0.43400729550E+02  0.00000000000E+00 0. -1.
         11    1    3    3    0    0 -0.15435737064E+02  0.16605175109E+01  0.17180744606E+02  0.23155934069E+02  0.51100000000E-03 0.  1.
        -11    1    3    3    0    0 -0.81437818333E+01  0.50642868093E+01  0.27941714760E+01  0.99887725940E+01  0.51100000000E-03 0. -1.
        -12    1    3    3    0    0 -0.43902950900E+01 -0.47123619726E+01  0.13150042887E+02  0.14642563788E+02  0.00000000000E+00 0.  1.
</event>
<event>
 7    1  0.2733256E-010  0.4778727E+02  0.7816164E-02  0.1312668E+00
        -11   -1    0    0    0    0  0.00000000000E+00  0.00000000000E+00  0.45593999997E+02  0.45594000000E+02  0.51100000000E-03 0. -1.
         11   -1    0    0    0    0 -0.00000000000E+00 -0.00000000000E+00 -0.45593999997E+02  0.45594000000E+02  0.51100000000E-03 0.  1.
    9900012    2    1    2    0    0 -0.31277287487E+02 -0.13063923985E+02 -0.27105134301E+02  0.47787272726E+02  0.20000007668E+02 0.  0.
         12    1    1    2    0    0  0.31277287487E+02  0.13063923985E+02  0.27105134301E+02  0.43400727274E+02  0.00000000000E+00 0. -1.
         11    1    3    3    0    0 -0.77616262639E+01  0.22117341340E+01 -0.82085753445E+01  0.11511529854E+02  0.51100000000E-03 0. -1.
        -11    1    3    3    0    0 -0.12025047517E+02 -0.94002336621E+01 -0.17613231063E+02  0.23306481275E+02  0.51100000000E-03 0.  1.
         12    1    3    3    0    0 -0.11490613706E+02 -0.58754244565E+01 -0.12833278934E+01  0.12969261597E+02  0.00000000000E+00 0. -1.
</event>
<event>
 7    1  0.2733256E-010  0.4778727E+02  0.7816164E-02  0.1312668E+00
        -11   -1    0    0    0    0  0.00000000000E+00  0.00000000000E+00  0.45593999997E+02  0.45594000000E+02  0.51100000000E-03 0.  1.
         11   -1    0    0    0    0 -0.00000000000E+00 -0.00000000000E+00 -0.45593999997E+02  0.45594000000E+02  0.51100000000E-03 0. -1.
    9900012    2    1    2    0    0  0.12756987501E+02  0.11346100394E+01  0.41468005497E+02  0.47787267865E+02  0.19999985502E+02 0.  0.
         12    1    1    2    0    0 -0.12756987501E+02 -0.11346100394E+01 -0.41468005497E+02  0.43400732135E+02  0.00000000000E+00 0. -1.
         11    1    3    3    0    0 -0.10664213770E+01 -0.94507584154E+00  0.10139662160E+02  0.10239295478E+02  0.51100000000E-03 0.  1.
        -11    1    3    3    0    0  0.38599817530E+00  0.60570967999E+01  0.14022794807E+02  0.15279927706E+02  0.51100000000E-03 0. -1.
        -12    1    3    3    0    0  0.13437410702E+02 -0.39774109189E+01  0.17305548529E+02  0.22268044680E+02  0.00000000000E+00 0.  1.
</event>
<event>
 7    1  0.2733256E-010  0.4778721E+02  0.7816164E-02  0.1312668E+00
        -11   -1    0    0    0    0  0.00000000000E+00  0.00000000000E+00  0.45593999997E+02  0.45594000000E+02  0.51100000000E-03 0. -1.
         11   -1    0    0    0    0 -0.00000000000E+00 -0.00000000000E+00 -0.45593999997E+02  0.45594000000E+02  0.51100000000E-03 0.  1.
    9900012    2    1    2    0    0  0.41460395647E+02 -0.78026314393E+00  0.12808413903E+02  0.47787208711E+02  0.19999715797E+02 0.  0.
         12    1    1    2    0    0 -0.41460395647E+02  0.78026314393E+00 -0.12808413903E+02  0.43400791289E+02  0.00000000000E+00 0. -1.
         11    1    3    3    0    0  0.73808552323E+01 -0.31613592690E+01  0.24088728026E+01  0.83829520355E+01  0.51100000000E-03 0. -1.
        -11    1    3    3    0    0  0.28544922070E+02  0.17655254050E+01  0.11681973051E+01  0.28623318136E+02  0.51100000000E-03 0.  1.
         12    1    3    3    0    0  0.55346183445E+01  0.61557072010E+00  0.92313437951E+01  0.10780938540E+02  0.00000000000E+00 0. -1.
</event>
<event>
 7    1  0.2733256E-010  0.4778727E+02  0.7816164E-02  0.1312668E+00
        -11   -1    0    0    0    0  0.00000000000E+00  0.00000000000E+00  0.45593999997E+02  0.45594000000E+02  0.51100000000E-03 0.  1.
         11   -1    0    0    0    0 -0.00000000000E+00 -0.00000000000E+00 -0.45593999997E+02  0.45594000000E+02  0.51100000000E-03 0. -1.
    9900012    2    1    2    0    0  0.34585770635E+02 -0.25168190521E+02  0.73491511288E+01  0.47787269973E+02  0.19999995116E+02 0.  0.
         12    1    1    2    0    0 -0.34585770635E+02  0.25168190521E+02 -0.73491511288E+01  0.43400730027E+02  0.00000000000E+00 0. -1.
         11    1    3    3    0    0  0.18792905791E+02 -0.99688292356E+01  0.53090874342E+01  0.21925721745E+02  0.51100000000E-03 0. -1.
        -11    1    3    3    0    0  0.14266647924E+02 -0.17712271891E+02  0.25199303315E+01  0.22882566894E+02  0.51100000000E-03 0.  1.
         12    1    3    3    0    0  0.15262169202E+01  0.25129106054E+01 -0.47986663694E+00  0.29789813339E+01  0.00000000000E+00 0. -1.
</event>
<event>
 7    1  0.2733256E-010  0.4778727E+02  0.7816164E-02  0.1312668E+00
        -11   -1    0    0    0    0  0.00000000000E+00  0.00000000000E+00  0.45593999997E+02  0.45594000000E+02  0.51100000000E-03 0.  1.
         11   -1    0    0    0    0 -0.00000000000E+00 -0.00000000000E+00 -0.45593999997E+02  0.45594000000E+02  0.51100000000E-03 0. -1.
    9900012    2    1    2    0    0  0.10064686750E+01 -0.63904784215E+01  0.42915870974E+02  0.47787272183E+02  0.20000005190E+02 0.  0.
         12    1    1    2    0    0 -0.10064686750E+01  0.63904784215E+01 -0.42915870974E+02  0.43400727817E+02  0.00000000000E+00 0. -1.
         11    1    3    3    0    0  0.16184923722E+01 -0.36177257342E+01  0.23713128444E+02  0.24042044795E+02  0.51100000000E-03 0. -1.
        -11    1    3    3    0    0  0.84989186082E+00  0.45953350722E+01  0.13581713834E+02  0.14363229843E+02  0.51100000000E-03 0.  1.
         12    1    3    3    0    0 -0.14619155580E+01 -0.73680877595E+01  0.56210286949E+01  0.93819975442E+01  0.00000000000E+00 0. -1.
</event>
<event>
 7    1  0.2733256E-010  0.4778726E+02  0.7816164E-02  0.1312668E+00
        -11   -1    0    0    0    0  0.00000000000E+00  0.00000000000E+00  0.45593999997E+02  0.45594000000E+02  0.51100000000E-03 0.  1.
         11   -1    0    0    0    0 -0.00000000000E+00 -0.00000000000E+00 -0.45593999997E+02  0.45594000000E+02  0.51100000000E-03 0. -1.
    9900012    2    1    2    0    0 -0.13083422392E+02 -0.12941805771E+01  0.41361495649E+02  0.47787260753E+02  0.19999953077E+02 0.  0.
         12    1    1    2    0    0  0.13083422392E+02  0.12941805771E+01 -0.41361495649E+02  0.43400739247E+02  0.00000000000E+00 0. -1.
         11    1    3    3    0    0  0.12881443035E+01  0.13377252588E+01  0.25592881994E+01  0.31620849076E+01  0.51100000000E-03 0. -1.
        -11    1    3    3    0    0 -0.74956135175E+01  0.25526799919E+01  0.33695352485E+02  0.34613251458E+02  0.51100000000E-03 0.  1.
         12    1    3    3    0    0 -0.68759531779E+01 -0.51845858277E+01  0.51068549650E+01  0.10011924388E+02  0.00000000000E+00 0. -1.
</event>
<event>
 7    1  0.2733256E-010  0.4778727E+02  0.7816164E-02  0.1312668E+00
        -11   -1    0    0    0    0  0.00000000000E+00  0.00000000000E+00  0.45593999997E+02  0.45594000000E+02  0.51100000000E-03 0. -1.
         11   -1    0    0    0    0 -0.00000000000E+00 -0.00000000000E+00 -0.45593999997E+02  0.45594000000E+02  0.51100000000E-03 0.  1.
    9900012    2    1    2    0    0 -0.32375336736E+02 -0.15470043962E+02 -0.24415959518E+02  0.47787265351E+02  0.19999974039E+02 0.  0.
         12    1    1    2    0    0  0.32375336736E+02  0.15470043962E+02  0.24415959518E+02  0.43400734649E+02  0.00000000000E+00 0. -1.
         11    1    3    3    0    0 -0.26831976253E+01 -0.71797427482E+01 -0.55705676601E+01  0.94752034143E+01  0.51100000000E-03 0. -1.
        -11    1    3    3    0    0 -0.84607137201E+01 -0.35566107031E+01 -0.12771631416E+02  0.15727292381E+02  0.51100000000E-03 0.  1.
        -12    1    3    3    0    0 -0.21231425390E+02 -0.47336905105E+01 -0.60737604417E+01  0.22584769555E+02  0.00000000000E+00 0.  1.
</event>
<event>
 7    1  0.2733256E-010  0.4778727E+02  0.7816164E-02  0.1312668E+00
        -11   -1    0    0    0    0  0.00000000000E+00  0.00000000000E+00  0.45593999997E+02  0.45594000000E+02  0.51100000000E-03 0.  1.
         11   -1    0    0    0    0 -0.00000000000E+00 -0.00000000000E+00 -0.45593999997E+02  0.45594000000E+02  0.51100000000E-03 0. -1.
    9900012    2    1    2    0    0 -0.21684607653E+02 -0.80402865702E+01  0.36725396715E+02  0.47787272114E+02  0.20000004875E+02 0.  0.
         12    1    1    2    0    0  0.21684607653E+02  0.80402865702E+01 -0.36725396715E+02  0.43400727886E+02  0.00000000000E+00 0. -1.
         11    1    3    3    0    0 -0.13645863989E+02 -0.10072009124E+02  0.25539462515E+02  0.30658100359E+02  0.51100000000E-03 0. -1.
        -11    1    3    3    0    0 -0.61829397195E+01  0.24448472306E+01  0.12936305163E+02  0.14544896462E+02  0.51100000000E-03 0.  1.
         12    1    3    3    0    0 -0.18558039450E+01 -0.41312467725E+00 -0.17503709631E+01  0.25842752930E+01  0.00000000000E+00 0. -1.
</event>
<event>
 7    1  0.2733256E-010  0.4778728E+02  0.7816164E-02  0.1312668E+00
        -11   -1    0    0    0    0  0.00000000000E+00  0.00000000000E+00  0.45593999997E+02  0.45594000000E+02  0.51100000000E-03 0.  1.
         11   -1    0    0    0    0 -0.00000000000E+00 -0.00000000000E+00 -0.45593999997E+02  0.45594000000E+02  0.51100000000E-03 0. -1.
    9900012    2    1    2    0    0  0.30738879965E+02  0.23198488921E+02  0.20014346245E+02  0.47787277825E+02  0.20000030915E+02 0.  0.
         12    1    1    2    0    0 -0.30738879965E+02 -0.23198488921E+02 -0.20014346245E+02  0.43400722175E+02  0.00000000000E+00 0. -1.
         11    1    3    3    0    0  0.10982278122E+02  0.88380388319E+01 -0.56033461080E+00  0.14107988456E+02  0.51100000000E-03 0. -1.
        -11    1    3    3    0    0 -0.22499074810E+00  0.42753076552E+01  0.32298128392E+01  0.53628879925E+01  0.51100000000E-03 0.  1.
        -12    1    3    3    0    0  0.19981592591E+02  0.10085142434E+02  0.17344868017E+02  0.28316401376E+02  0.00000000000E+00 0.  1.
</event>
<event>
 7    1  0.2733256E-010  0.4778727E+02  0.7816164E-02  0.1312668E+00
        -11   -1    0    0    0    0  0.00000000000E+00  0.00000000000E+00  0.45593999997E+02  0.45594000000E+02  0.51100000000E-03 0.  1.
         11   -1    0    0    0    0 -0.00000000000E+00 -0.00000000000E+00 -0.45593999997E+02  0.45594000000E+02  0.51100000000E-03 0. -1.
    9900012    2    1    2    0    0  0.41276167679E+02 -0.12927332455E+02  0.35756440452E+01  0.47787272207E+02  0.20000005300E+02 0.  0.
         12    1    1    2    0    0 -0.41276167679E+02  0.12927332455E+02 -0.35756440452E+01  0.43400727793E+02  0.00000000000E+00 0. -1.
         11    1    3    3    0    0  0.27405237288E+01  0.28591092512E+00  0.26915600063E+01  0.38518451285E+01  0.51100000000E-03 0. -1.
        -11    1    3    3    0    0  0.25490954413E+01  0.64772456306E+00  0.44899065908E+01  0.52035272781E+01  0.51100000000E-03 0.  1.
         12    1    3    3    0    0  0.35986548508E+02 -0.13860967943E+02 -0.36058225519E+01  0.38731899800E+02  0.00000000000E+00 0. -1.
</event>
<event>
 7    1  0.2733256E-010  0.4778727E+02  0.7816164E-02  0.1312668E+00
        -11   -1    0    0    0    0  0.00000000000E+00  0.00000000000E+00  0.45593999997E+02  0.45594000000E+02  0.51100000000E-03 0. -1.
         11   -1    0    0    0    0 -0.00000000000E+00 -0.00000000000E+00 -0.45593999997E+02  0.45594000000E+02  0.51100000000E-03 0.  1.
    9900012    2    1    2    0    0  0.16113536192E+02  0.39811906395E+02  0.62441347045E+01  0.47787272384E+02  0.20000006106E+02 0.  0.
         12    1    1    2    0    0 -0.16113536192E+02 -0.39811906395E+02 -0.62441347045E+01  0.43400727616E+02  0.00000000000E+00 0. -1.
         11    1    3    3    0    0  0.10599929146E+02  0.25011970190E+02  0.83694973922E+01  0.28425439971E+02  0.51100000000E-03 0. -1.
        -11    1    3    3    0    0  0.23909777976E+01  0.90981478122E+01  0.41903862066E+01  0.10298174851E+02  0.51100000000E-03 0.  1.
        -12    1    3    3    0    0  0.31226292480E+01  0.57017883928E+01 -0.63157488943E+01  0.90636575615E+01  0.00000000000E+00 0.  1.
</event>
<event>
 7    1  0.2733256E-010  0.4778727E+02  0.7816164E-02  0.1312668E+00
        -11   -1    0    0    0    0  0.00000000000E+00  0.00000000000E+00  0.45593999997E+02  0.45594000000E+02  0.51100000000E-03 0.  1.
         11   -1    0    0    0    0 -0.00000000000E+00 -0.00000000000E+00 -0.45593999997E+02  0.45594000000E+02  0.51100000000E-03 0. -1.
    9900012    2    1    2    0    0 -0.39515483545E+02 -0.13966994625E+02  0.11272668918E+02  0.47787269094E+02  0.19999991106E+02 0.  0.
         12    1    1    2    0    0  0.39515483545E+02  0.13966994625E+02 -0.11272668918E+02  0.43400730906E+02  0.00000000000E+00 0. -1.
         11    1    3    3    0    0 -0.21035335252E+02 -0.45596118397E+01 -0.61520635115E+00  0.21532623352E+02  0.51100000000E-03 0. -1.
        -11    1    3    3    0    0 -0.15379832519E+02 -0.77889885494E+01  0.41044080603E+01  0.17721561915E+02  0.51100000000E-03 0.  1.
         12    1    3    3    0    0 -0.31003157748E+01 -0.16183942358E+01  0.77834672089E+01  0.85330838270E+01  0.00000000000E+00 0. -1.
</event>
<event>
 7    1  0.2733256E-010  0.4778727E+02  0.7816164E-02  0.1312668E+00
        -11   -1    0    0    0    0  0.00000000000E+00  0.00000000000E+00  0.45593999997E+02  0.45594000000E+02  0.51100000000E-03 0.  1.
         11   -1    0    0    0    0 -0.00000000000E+00 -0.00000000000E+00 -0.45593999997E+02  0.45594000000E+02  0.51100000000E-03 0. -1.
    9900012    2    1    2    0    0 -0.45387685839E+01  0.36161796480E+02  0.23565805738E+02  0.47787272529E+02  0.20000006767E+02 0.  0.
         12    1    1    2    0    0  0.45387685839E+01 -0.36161796480E+02 -0.23565805738E+02  0.43400727471E+02  0.00000000000E+00 0. -1.
         11    1    3    3    0    0 -0.26912559718E+01  0.38513673824E+01  0.37669825478E+00  0.47135752096E+01  0.51100000000E-03 0. -1.
        -11    1    3    3    0    0 -0.75866929554E+01  0.90479670065E+01  0.11228648521E+02  0.16294359908E+02  0.51100000000E-03 0.  1.
         12    1    3    3    0    0  0.57391803433E+01  0.23262462092E+02  0.11960458963E+02  0.26779337411E+02  0.00000000000E+00 0. -1.
</event>
<event>
 7    1  0.2733256E-010  0.4778726E+02  0.7816164E-02  0.1312668E+00
        -11   -1    0    0    0    0  0.00000000000E+00  0.00000000000E+00  0.45593999997E+02  0.45594000000E+02  0.51100000000E-03 0. -1.
         11   -1    0    0    0    0 -0.00000000000E+00 -0.00000000000E+00 -0.45593999997E+02  0.45594000000E+02  0.51100000000E-03 0.  1.
    9900012    2    1    2    0    0  0.60907851658E+01  0.37124615098E+02 -0.21639990352E+02  0.47787263917E+02  0.19999967504E+02 0.  0.
         12    1    1    2    0    0 -0.60907851658E+01 -0.37124615098E+02  0.21639990352E+02  0.43400736083E+02  0.00000000000E+00 0. -1.
         11    1    3    3    0    0 -0.24262662096E+01  0.87921207031E+00 -0.21826840907E+01  0.33799248047E+01  0.51100000000E-03 0. -1.
        -11    1    3    3    0    0  0.16726935495E+01 -0.71438976879E+00  0.44897017441E+00  0.18734542777E+01  0.51100000000E-03 0.  1.
        -12    1    3    3    0    0  0.68443578259E+01  0.36959792797E+02 -0.19906276435E+02  0.42533884835E+02  0.00000000000E+00 0.  1.
</event>
<event>
 7    1  0.2733256E-010  0.4778727E+02  0.7816164E-02  0.1312668E+00
        -11   -1    0    0    0    0  0.00000000000E+00  0.00000000000E+00  0.45593999997E+02  0.45594000000E+02  0.51100000000E-03 0.  1.
         11   -1    0    0    0    0 -0.00000000000E+00 -0.00000000000E+00 -0.45593999997E+02  0.45594000000E+02  0.51100000000E-03 0. -1.
    9900012    2    1    2    0    0 -0.14590558397E+01 -0.73921682451E+01  0.42741670036E+02  0.47787270136E+02  0.19999995856E+02 0.  0.
         12    1    1    2    0    0  0.14590558397E+01  0.73921682451E+01 -0.42741670036E+02  0.43400729864E+02  0.00000000000E+00 0. -1.
         11    1    3    3    0    0 -0.51581155225E+01 -0.17060872079E+01  0.15881109335E+02  0.16784710997E+02  0.51100000000E-03 0. -1.
        -11    1    3    3    0    0 -0.39464579307E+01 -0.48650471306E+01  0.19001183744E+02  0.20007203645E+02  0.51100000000E-03 0.  1.
         12    1    3    3    0    0  0.76455176134E+01 -0.82103390656E+00  0.78593769576E+01  0.10995355493E+02  0.00000000000E+00 0. -1.
</event>
<event>
 7    1  0.2733256E-010  0.4778729E+02  0.7816164E-02  0.1312668E+00
        -11   -1    0    0    0    0  0.00000000000E+00  0.00000000000E+00  0.45593999997E+02  0.45594000000E+02  0.51100000000E-03 0. -1.
         11   -1    0    0    0    0 -0.00000000000E+00 -0.00000000000E+00 -0.45593999997E+02  0.45594000000E+02  0.51100000000E-03 0.  1.
    9900012    2    1    2    0    0  0.25843046942E+02  0.27338786736E+02  0.21641375923E+02  0.47787291627E+02  0.20000093843E+02 0.  0.
         12    1    1    2    0    0 -0.25843046942E+02 -0.27338786736E+02 -0.21641375923E+02  0.43400708373E+02  0.00000000000E+00 0. -1.
         11    1    3    3    0    0  0.10294591320E+02  0.17414366170E+02  0.11318835255E+02  0.23180914377E+02  0.51100000000E-03 0. -1.
        -11    1    3    3    0    0  0.14617111762E+02  0.12717613374E+02  0.92795732153E+01  0.21482740177E+02  0.51100000000E-03 0.  1.
        -12    1    3    3    0    0  0.93134386015E+00 -0.27931928088E+01  0.10429674527E+01  0.31236370725E+01  0.00000000000E+00 0.  1.
</event>
<event>
 7    1  0.2733256E-010  0.4778727E+02  0.7816164E-02  0.1312668E+00
        -11   -1    0    0    0    0  0.00000000000E+00  0.00000000000E+00  0.45593999997E+02  0.45594000000E+02  0.51100000000E-03 0.  1.
         11   -1    0    0    0    0 -0.00000000000E+00 -0.00000000000E+00 -0.45593999997E+02  0.45594000000E+02  0.51100000000E-03 0. -1.
    9900012    2    1    2    0    0  0.22840113924E+02 -0.23342983228E+02  0.28584220184E+02  0.47787270587E+02  0.19999997916E+02 0.  0.
         12    1    1    2    0    0 -0.22840113924E+02  0.23342983228E+02 -0.28584220184E+02  0.43400729413E+02  0.00000000000E+00 0. -1.
         11    1    3    3    0    0 -0.24621373436E+01 -0.67435827544E+01  0.72593785728E+01  0.10209633009E+02  0.51100000000E-03 0. -1.
        -11    1    3    3    0    0  0.53100483724E+01 -0.65407288458E+01  0.43044676524E+01  0.94607710882E+01  0.51100000000E-03 0.  1.
         12    1    3    3    0    0  0.19992202895E+02 -0.10058671628E+02  0.17020373958E+02  0.28116866490E+02  0.00000000000E+00 0. -1.
</event>
<event>
 7    1  0.2733256E-010  0.4778727E+02  0.7816164E-02  0.1312668E+00
        -11   -1    0    0    0    0  0.00000000000E+00  0.00000000000E+00  0.45593999997E+02  0.45594000000E+02  0.51100000000E-03 0.  1.
         11   -1    0    0    0    0 -0.00000000000E+00 -0.00000000000E+00 -0.45593999997E+02  0.45594000000E+02  0.51100000000E-03 0. -1.
    9900012    2    1    2    0    0 -0.40092318690E+02  0.16086697777E+02  0.41769946932E+01  0.47787272495E+02  0.20000006614E+02 0.  0.
         12    1    1    2    0    0  0.40092318690E+02 -0.16086697777E+02 -0.41769946932E+01  0.43400727505E+02  0.00000000000E+00 0. -1.
         11    1    3    3    0    0 -0.19142326973E+02  0.33443843638E+01 -0.36677981254E+01  0.19775397141E+02  0.51100000000E-03 0. -1.
        -11    1    3    3    0    0 -0.15216869679E+02  0.10159316859E+02  0.44609140214E+00  0.18302017366E+02  0.51100000000E-03 0.  1.
         12    1    3    3    0    0 -0.57331220372E+01  0.25829965542E+01  0.73987014165E+01  0.97098579878E+01  0.00000000000E+00 0. -1.
</event>
<event>
 7    1  0.2733256E-010  0.4778727E+02  0.7816164E-02  0.1312668E+00
        -11   -1    0    0    0    0  0.00000000000E+00  0.00000000000E+00  0.45593999997E+02  0.45594000000E+02  0.51100000000E-03 0. -1.
         11   -1    0    0    0    0 -0.00000000000E+00 -0.00000000000E+00 -0.45593999997E+02  0.45594000000E+02  0.51100000000E-03 0.  1.
    9900012    2    1    2    0    0  0.88915540945E+01 -0.19605978075E+01 -0.42434888911E+02  0.47787268729E+02  0.19999989442E+02 0.  0.
         12    1    1    2    0    0 -0.88915540945E+01  0.19605978075E+01  0.42434888911E+02  0.43400731271E+02  0.00000000000E+00 0. -1.
         11    1    3    3    0    0  0.17127232592E+01  0.31220219387E+01 -0.16156964521E+01  0.39103602436E+01  0.51100000000E-03 0.  1.
        -11    1    3    3    0    0  0.55568371354E+00 -0.22219087063E+01  0.13288311067E+00  0.22941928582E+01  0.51100000000E-03 0. -1.
        -12    1    3    3    0    0  0.66231471218E+01 -0.28607110399E+01 -0.40952075570E+02  0.41582715627E+02  0.00000000000E+00 0.  1.
</event>
<event>
 7    1  0.2733256E-010  0.4778727E+02  0.7816164E-02  0.1312668E+00
        -11   -1    0    0    0    0  0.00000000000E+00  0.00000000000E+00  0.45593999997E+02  0.45594000000E+02  0.51100000000E-03 0.  1.
         11   -1    0    0    0    0 -0.00000000000E+00 -0.00000000000E+00 -0.45593999997E+02  0.45594000000E+02  0.51100000000E-03 0. -1.
    9900012    2    1    2    0    0  0.40760918691E+02  0.14564840925E+02  0.31679999041E+01  0.47787270661E+02  0.19999998254E+02 0.  0.
         12    1    1    2    0    0 -0.40760918691E+02 -0.14564840925E+02 -0.31679999041E+01  0.43400729339E+02  0.00000000000E+00 0. -1.
         11    1    3    3    0    0  0.18021975722E+02  0.59912631254E+01 -0.22613274283E+01  0.19125910299E+02  0.51100000000E-03 0. -1.
        -11    1    3    3    0    0  0.18381325285E+02  0.10406016985E+02 -0.43753365742E+00  0.21126990905E+02  0.51100000000E-03 0.  1.
        -12    1    3    3    0    0  0.43576176846E+01 -0.18324391858E+01  0.58668609898E+01  0.75343694580E+01  0.00000000000E+00 0.  1.
</event>
<event>
 7    1  0.2733256E-010  0.4778728E+02  0.7816164E-02  0.1312668E+00
        -11   -1    0    0    0    0  0.00000000000E+00  0.00000000000E+00  0.45593999997E+02  0.45594000000E+02  0.51100000000E-03 0.  1.
         11   -1    0    0    0    0 -0.00000000000E+00 -0.00000000000E+00 -0.45593999997E+02  0.45594000000E+02  0.51100000000E-03 0. -1.
    9900012    2    1    2    0    0  0.38426306454E+02  0.17825189956E+02  0.94500986751E+01  0.47787276623E+02  0.20000025437E+02 0.  0.
         12    1    1    2    0    0 -0.38426306454E+02 -0.17825189956E+02 -0.94500986751E+01  0.43400723377E+02  0.00000000000E+00 0. -1.
         11    1    3    3    0    0  0.15995915978E+01  0.16389544521E+01  0.20018045100E+01  0.30417242698E+01  0.51100000000E-03 0. -1.
        -11    1    3    3    0    0  0.28351004970E+02  0.11540750978E+02  0.13378628483E+02  0.33405929358E+02  0.51100000000E-03 0.  1.
         12    1    3    3    0    0  0.84757098862E+01  0.46454845261E+01 -0.59303343181E+01  0.11339622996E+02  0.00000000000E+00 0. -1.
</event>
<event>
 7    1  0.2733256E-010  0.4778727E+02  0.7816164E-02  0.1312668E+00
        -11   -1    0    0    0    0  0.00000000000E+00  0.00000000000E+00  0.45593999997E+02  0.45594000000E+02  0.51100000000E-03 0. -1.
         11   -1    0    0    0    0 -0.00000000000E+00 -0.00000000000E+00 -0.45593999997E+02  0.45594000000E+02  0.51100000000E-03 0.  1.
    9900012    2    1    2    0    0 -0.15198485494E+00 -0.42075455822E+02  0.10642194136E+02  0.47787269844E+02  0.19999994527E+02 0.  0.
         12    1    1    2    0    0  0.15198485494E+00  0.42075455822E+02 -0.10642194136E+02  0.43400730156E+02  0.00000000000E+00 0. -1.
         11    1    3    3    0    0 -0.86801617388E+00  0.13046534139E+01  0.27997832467E+01  0.32084823668E+01  0.51100000000E-03 0. -1.
        -11    1    3    3    0    0  0.13289324175E+01 -0.24659589749E+02  0.76293729826E+01  0.25847026141E+02  0.51100000000E-03 0.  1.
        -12    1    3    3    0    0 -0.61290109854E+00 -0.18720519487E+02  0.21303790680E+00  0.18731761337E+02  0.00000000000E+00 0.  1.
</event>
