<event>
 7    1  0.1884848E-013  0.7246155E+02  0.7816164E-02  0.1226708E+00
        -11   -1    0    0    0    0  0.00000000000E+00  0.00000000000E+00  0.45593999997E+02  0.45594000000E+02  0.51100000000E-03 0. -1.
         11   -1    0    0    0    0 -0.00000000000E+00 -0.00000000000E+00 -0.45593999997E+02  0.45594000000E+02  0.51100000000E-03 0.  1.
    9900012    2    1    2    0    0  0.17740662768E+02  0.16275295320E+01  0.57706085167E+01  0.72461551045E+02  0.69999974924E+02 0.  0.
        -12    1    1    2    0    0 -0.17740662768E+02 -0.16275295320E+01 -0.57706085167E+01  0.18726448955E+02  0.00000000000E+00 0.  1.
         11    1    3    3    0    0 -0.24128822238E+02 -0.88964904524E+01 -0.68532318309E+01  0.26614176518E+02  0.51100000000E-03 0. -1.
        -11    1    3    3    0    0  0.98713733929E+01  0.64897724139E+01  0.38214530108E+01  0.12416306295E+02  0.51100000000E-03 0.  1.
         12    1    3    3    0    0  0.31998111613E+02  0.40342475705E+01  0.88023873368E+01  0.33431068231E+02  0.00000000000E+00 0. -1.
</event>
<event>
 7    1  0.1884848E-013  0.7246156E+02  0.7816164E-02  0.1226708E+00
        -11   -1    0    0    0    0  0.00000000000E+00  0.00000000000E+00  0.45593999997E+02  0.45594000000E+02  0.51100000000E-03 0.  1.
         11   -1    0    0    0    0 -0.00000000000E+00 -0.00000000000E+00 -0.45593999997E+02  0.45594000000E+02  0.51100000000E-03 0. -1.
    9900012    2    1    2    0    0 -0.11481466922E+02  0.10543509131E+02 -0.10377371109E+02  0.72461561508E+02  0.69999988554E+02 0.  0.
        -12    1    1    2    0    0  0.11481466922E+02 -0.10543509131E+02  0.10377371109E+02  0.18726438492E+02  0.00000000000E+00 0.  1.
         11    1    3    3    0    0  0.27815840207E+01 -0.17724024311E+02 -0.74196870501E+01  0.19414685257E+02  0.51100000000E-03 0.  1.
        -11    1    3    3    0    0 -0.26256948013E+01  0.32918210160E+02 -0.14447371298E+02  0.36044824470E+02  0.51100000000E-03 0. -1.
        -12    1    3    3    0    0 -0.11637356142E+02 -0.46506767186E+01  0.11489687239E+02  0.17002051781E+02  0.00000000000E+00 0.  1.
</event>
<event>
 7    1  0.1884848E-013  0.7246160E+02  0.7816164E-02  0.1226708E+00
        -11   -1    0    0    0    0  0.00000000000E+00  0.00000000000E+00  0.45593999997E+02  0.45594000000E+02  0.51100000000E-03 0.  1.
         11   -1    0    0    0    0 -0.00000000000E+00 -0.00000000000E+00 -0.45593999997E+02  0.45594000000E+02  0.51100000000E-03 0. -1.
    9900012    2    1    2    0    0  0.22322899531E+01  0.20461823977E+01 -0.18479941444E+02  0.72461595737E+02  0.70000033144E+02 0.  0.
        -12    1    1    2    0    0 -0.22322899531E+01 -0.20461823977E+01  0.18479941444E+02  0.18726404263E+02  0.00000000000E+00 0.  1.
         11    1    3    3    0    0 -0.66093046006E+01  0.17122804592E+02  0.10405377144E+02  0.21098464830E+02  0.51100000000E-03 0. -1.
        -11    1    3    3    0    0  0.16101344310E+02 -0.25233869467E+02 -0.21538701427E+02  0.36877054062E+02  0.51100000000E-03 0.  1.
        -12    1    3    3    0    0 -0.72597497560E+01  0.10157247273E+02 -0.73466171601E+01  0.14486076845E+02  0.00000000000E+00 0.  1.
</event>
<event>
 8    1  0.1884848E-013  0.7246154E+02  0.7816164E-02  0.1226708E+00
        -11   -1    0    0    0    0  0.00000000000E+00  0.00000000000E+00  0.45593999997E+02  0.45594000000E+02  0.51100000000E-03 0. -1.
         11   -1    0    0    0    0 -0.00000000000E+00 -0.00000000000E+00 -0.45593999997E+02  0.45594000000E+02  0.51100000000E-03 0.  1.
    9900012    2    1    2    0    0 -0.17760689531E+02 -0.55736291629E+01  0.20427605872E+01  0.72461539964E+02  0.69999960489E+02 0.  0.
        -24    2    3    3    0    0 -0.19981832580E+01 -0.85787179751E+01 -0.79549321262E+01  0.53555429243E+02  0.52223710303E+02 0.  0.
        -12    1    1    2    0    0  0.17760689531E+02  0.55736291629E+01 -0.20427605872E+01  0.18726460036E+02  0.00000000000E+00 0.  1.
         11    1    4    4    0    0  0.24359579356E+02 -0.57895541237E+01 -0.10023385399E+02  0.26969914691E+02  0.51100000000E-03 0.  1.
        -11    1    3    3    0    0 -0.15762506273E+02  0.30050888123E+01  0.99976927134E+01  0.18906110722E+02  0.51100000000E-03 0. -1.
        -12    1    4    4    0    0 -0.26357762614E+02 -0.27891638515E+01  0.20684532726E+01  0.26585514551E+02  0.00000000000E+00 0.  1.
</event>
<event>
 7    1  0.1884848E-013  0.7246158E+02  0.7816164E-02  0.1226708E+00
        -11   -1    0    0    0    0  0.00000000000E+00  0.00000000000E+00  0.45593999997E+02  0.45594000000E+02  0.51100000000E-03 0.  1.
         11   -1    0    0    0    0 -0.00000000000E+00 -0.00000000000E+00 -0.45593999997E+02  0.45594000000E+02  0.51100000000E-03 0. -1.
    9900012    2    1    2    0    0 -0.38551930381E+01 -0.11656947974E+02 -0.14139730090E+02  0.72461577051E+02  0.70000008802E+02 0.  0.
        -12    1    1    2    0    0  0.38551930381E+01  0.11656947974E+02  0.14139730090E+02  0.18726422949E+02  0.00000000000E+00 0.  1.
         11    1    3    3    0    0  0.45660161480E+00 -0.23956836140E+02 -0.37516724875E+02  0.44515650377E+02  0.51100000000E-03 0. -1.
        -11    1    3    3    0    0 -0.15143929638E+01  0.96777474247E+00  0.10138516196E+02  0.10296576369E+02  0.51100000000E-03 0.  1.
         12    1    3    3    0    0 -0.27974016892E+01  0.11332113423E+02  0.13238478589E+02  0.17649350305E+02  0.00000000000E+00 0. -1.
</event>
<event>
 8    1  0.1884848E-013  0.7246157E+02  0.7816164E-02  0.1226708E+00
        -11   -1    0    0    0    0  0.00000000000E+00  0.00000000000E+00  0.45593999997E+02  0.45594000000E+02  0.51100000000E-03 0. -1.
         11   -1    0    0    0    0 -0.00000000000E+00 -0.00000000000E+00 -0.45593999997E+02  0.45594000000E+02  0.51100000000E-03 0.  1.
    9900012    2    1    2    0    0  0.15124532367E+02 -0.10662992533E+02 -0.28685320593E+01  0.72461565068E+02  0.69999993192E+02 0.  0.
        -24    2    3    3    0    0 -0.50947891868E+00  0.21128120632E+01  0.40148738817E+01  0.51130255461E+02  0.50926027409E+02 0.  0.
        -12    1    1    2    0    0 -0.15124532367E+02  0.10662992533E+02  0.28685320593E+01  0.18726434932E+02  0.00000000000E+00 0.  1.
         11    1    4    4    0    0 -0.99385198612E+01 -0.17244993225E+02  0.16836561311E+02  0.26069786447E+02  0.51100000000E-03 0. -1.
        -11    1    3    3    0    0  0.15634011286E+02 -0.12775804596E+02 -0.68834059410E+01  0.21331309607E+02  0.51100000000E-03 0.  1.
        -12    1    4    4    0    0  0.94290409426E+01  0.19357805288E+02 -0.12821687429E+02  0.25060469014E+02  0.00000000000E+00 0.  1.
</event>
<event>
 7    1  0.1884848E-013  0.7246159E+02  0.7816164E-02  0.1226708E+00
        -11   -1    0    0    0    0  0.00000000000E+00  0.00000000000E+00  0.45593999997E+02  0.45594000000E+02  0.51100000000E-03 0.  1.
         11   -1    0    0    0    0 -0.00000000000E+00 -0.00000000000E+00 -0.45593999997E+02  0.45594000000E+02  0.51100000000E-03 0. -1.
    9900012    2    1    2    0    0  0.11169948102E+02 -0.14866053668E+02 -0.22160921735E+01  0.72461591995E+02  0.70000028269E+02 0.  0.
        -12    1    1    2    0    0 -0.11169948102E+02  0.14866053668E+02  0.22160921735E+01  0.18726408005E+02  0.00000000000E+00 0.  1.
         11    1    3    3    0    0  0.10060795605E+02  0.11091388928E+02 -0.17839994603E+02  0.23291713640E+02  0.51100000000E-03 0. -1.
        -11    1    3    3    0    0  0.10136341430E+02 -0.33194382860E+02  0.90718883514E+01  0.35873550557E+02  0.51100000000E-03 0.  1.
         12    1    3    3    0    0 -0.90271889329E+01  0.72369402642E+01  0.65520140784E+01  0.13296327798E+02  0.00000000000E+00 0. -1.
</event>
<event>
 7    1  0.1884848E-013  0.7246157E+02  0.7816164E-02  0.1226708E+00
        -11   -1    0    0    0    0  0.00000000000E+00  0.00000000000E+00  0.45593999997E+02  0.45594000000E+02  0.51100000000E-03 0.  1.
         11   -1    0    0    0    0 -0.00000000000E+00 -0.00000000000E+00 -0.45593999997E+02  0.45594000000E+02  0.51100000000E-03 0. -1.
    9900012    2    1    2    0    0 -0.96288723535E+01 -0.33343461958E+00 -0.16057799386E+02  0.72461567276E+02  0.69999996069E+02 0.  0.
        -12    1    1    2    0    0  0.96288723535E+01  0.33343461958E+00  0.16057799386E+02  0.18726432724E+02  0.00000000000E+00 0.  1.
         11    1    3    3    0    0 -0.23164743109E+02  0.46945222393E+01 -0.15477721964E+02  0.28252499709E+02  0.51100000000E-03 0. -1.
        -11    1    3    3    0    0  0.18509721883E+02  0.90804098504E+01 -0.13331987886E+02  0.24552098657E+02  0.51100000000E-03 0.  1.
        -12    1    3    3    0    0 -0.49738511273E+01 -0.14108366709E+02  0.12751910464E+02  0.19656968910E+02  0.00000000000E+00 0.  1.
</event>
<event>
 7    1  0.2515888E-013  0.7246143E+02  0.7816164E-02  0.1226708E+00
        -11   -1    0    0    0    0  0.00000000000E+00  0.00000000000E+00  0.45593999997E+02  0.45594000000E+02  0.51100000000E-03 0. -1.
         11   -1    0    0    0    0 -0.00000000000E+00 -0.00000000000E+00 -0.45593999997E+02  0.45594000000E+02  0.51100000000E-03 0.  1.
    9900012    2    1    2    0    0  0.13828595610E+02 -0.11233448078E+02  0.57674839746E+01  0.72461433746E+02  0.69999822120E+02 0.  0.
        -12    1    1    2    0    0 -0.13828595610E+02  0.11233448078E+02 -0.57674839746E+01  0.18726566254E+02  0.00000000000E+00 0.  1.
         11    1    3    3    0    0  0.16546315637E+02  0.10056308461E+02  0.15094373465E+02  0.24550967631E+02  0.51100000000E-03 0. -1.
        -11    1    3    3    0    0 -0.13206358658E+02 -0.66487406697E+01 -0.21556858465E+02  0.26140233523E+02  0.51100000000E-03 0.  1.
         12    1    3    3    0    0  0.10488638631E+02 -0.14641015869E+02  0.12229968975E+02  0.21770232592E+02  0.00000000000E+00 0. -1.
</event>
<event>
 7    1  0.1884848E-013  0.7246157E+02  0.7816164E-02  0.1226708E+00
        -11   -1    0    0    0    0  0.00000000000E+00  0.00000000000E+00  0.45593999997E+02  0.45594000000E+02  0.51100000000E-03 0.  1.
         11   -1    0    0    0    0 -0.00000000000E+00 -0.00000000000E+00 -0.45593999997E+02  0.45594000000E+02  0.51100000000E-03 0. -1.
    9900012    2    1    2    0    0 -0.96589074996E+01  0.15807964176E+02 -0.27373417628E+01  0.72461567734E+02  0.69999996665E+02 0.  0.
        -12    1    1    2    0    0  0.96589074996E+01 -0.15807964176E+02  0.27373417628E+01  0.18726432266E+02  0.00000000000E+00 0.  1.
         11    1    3    3    0    0 -0.13740029537E+02  0.10522811085E+02 -0.18458111662E+02  0.25302566099E+02  0.51100000000E-03 0. -1.
        -11    1    3    3    0    0  0.10961078925E+02  0.21129728759E+02  0.17852205600E+02  0.29754191868E+02  0.51100000000E-03 0.  1.
        -12    1    3    3    0    0 -0.68799568884E+01 -0.15844575669E+02 -0.21314357009E+01  0.17404809768E+02  0.00000000000E+00 0.  1.
</event>
<event>
 7    1  0.1884848E-013  0.7246162E+02  0.7816164E-02  0.1226708E+00
        -11   -1    0    0    0    0  0.00000000000E+00  0.00000000000E+00  0.45593999997E+02  0.45594000000E+02  0.51100000000E-03 0. -1.
         11   -1    0    0    0    0 -0.00000000000E+00 -0.00000000000E+00 -0.45593999997E+02  0.45594000000E+02  0.51100000000E-03 0.  1.
    9900012    2    1    2    0    0 -0.69677950437E+01 -0.11549557829E+02  0.12989795340E+02  0.72461621899E+02  0.70000067224E+02 0.  0.
        -12    1    1    2    0    0  0.69677950437E+01  0.11549557829E+02 -0.12989795340E+02  0.18726378101E+02  0.00000000000E+00 0.  1.
         11    1    3    3    0    0  0.32285278664E+01  0.97463814813E+01  0.99155486064E+01  0.14273522641E+02  0.51100000000E-03 0. -1.
        -11    1    3    3    0    0  0.39657492516E+01 -0.36761542289E+02  0.40450830985E+01  0.37195441335E+02  0.51100000000E-03 0.  1.
        -12    1    3    3    0    0 -0.14162072162E+02  0.15465602978E+02 -0.97083636495E+00  0.20992657922E+02  0.00000000000E+00 0.  1.
</event>
<event>
 7    1  0.1884848E-013  0.7246160E+02  0.7816164E-02  0.1226708E+00
        -11   -1    0    0    0    0  0.00000000000E+00  0.00000000000E+00  0.45593999997E+02  0.45594000000E+02  0.51100000000E-03 0. -1.
         11   -1    0    0    0    0 -0.00000000000E+00 -0.00000000000E+00 -0.45593999997E+02  0.45594000000E+02  0.51100000000E-03 0.  1.
    9900012    2    1    2    0    0  0.97363415682E+00  0.18688538328E+02  0.68452064798E+00  0.72461601606E+02  0.70000040789E+02 0.  0.
        -12    1    1    2    0    0 -0.97363415682E+00 -0.18688538328E+02 -0.68452064798E+00  0.18726398394E+02  0.00000000000E+00 0.  1.
         11    1    3    3    0    0  0.95138497892E+01  0.10419716357E+02  0.28912997980E+02  0.32172119595E+02  0.51100000000E-03 0. -1.
        -11    1    3    3    0    0 -0.16719795959E+02  0.81598251963E+01 -0.25699955066E+02  0.31727307084E+02  0.51100000000E-03 0.  1.
         12    1    3    3    0    0  0.81795803268E+01  0.10899677435E+00 -0.25285222668E+01  0.85621749265E+01  0.00000000000E+00 0. -1.
</event>
<event>
 7    1  0.1884848E-013  0.7246158E+02  0.7816164E-02  0.1226708E+00
        -11   -1    0    0    0    0  0.00000000000E+00  0.00000000000E+00  0.45593999997E+02  0.45594000000E+02  0.51100000000E-03 0.  1.
         11   -1    0    0    0    0 -0.00000000000E+00 -0.00000000000E+00 -0.45593999997E+02  0.45594000000E+02  0.51100000000E-03 0. -1.
    9900012    2    1    2    0    0  0.18478526159E+02 -0.25992206740E+00  0.30258062696E+01  0.72461575033E+02  0.70000006173E+02 0.  0.
        -12    1    1    2    0    0 -0.18478526159E+02  0.25992206740E+00 -0.30258062696E+01  0.18726424967E+02  0.00000000000E+00 0.  1.
         11    1    3    3    0    0  0.99674780893E+01 -0.90918359271E+01 -0.11130803266E+01  0.13537025082E+02  0.51100000000E-03 0. -1.
        -11    1    3    3    0    0  0.18861236881E+02  0.29337155921E+02 -0.26367707221E+01  0.34976671287E+02  0.51100000000E-03 0.  1.
        -12    1    3    3    0    0 -0.10350188812E+02 -0.20505242061E+02  0.67756573183E+01  0.23947878664E+02  0.00000000000E+00 0.  1.
</event>
<event>
 7    1  0.1884848E-013  0.7246156E+02  0.7816164E-02  0.1226708E+00
        -11   -1    0    0    0    0  0.00000000000E+00  0.00000000000E+00  0.45593999997E+02  0.45594000000E+02  0.51100000000E-03 0. -1.
         11   -1    0    0    0    0 -0.00000000000E+00 -0.00000000000E+00 -0.45593999997E+02  0.45594000000E+02  0.51100000000E-03 0.  1.
    9900012    2    1    2    0    0 -0.10213986137E+01  0.57555858987E+01  0.17790715979E+02  0.72461558821E+02  0.69999985054E+02 0.  0.
        -12    1    1    2    0    0  0.10213986137E+01 -0.57555858987E+01 -0.17790715979E+02  0.18726441179E+02  0.00000000000E+00 0.  1.
         11    1    3    3    0    0  0.12403244681E+02 -0.23576659939E+02  0.58743780578E+01  0.27280170276E+02  0.51100000000E-03 0. -1.
        -11    1    3    3    0    0 -0.11749595452E+02  0.23396881581E+02  0.21436836125E+02  0.33837922576E+02  0.51100000000E-03 0.  1.
         12    1    3    3    0    0 -0.16750478426E+01  0.59353642567E+01 -0.95204982035E+01  0.11343465968E+02  0.00000000000E+00 0. -1.
</event>
<event>
 7    1  0.1884848E-013  0.7246156E+02  0.7816164E-02  0.1226708E+00
        -11   -1    0    0    0    0  0.00000000000E+00  0.00000000000E+00  0.45593999997E+02  0.45594000000E+02  0.51100000000E-03 0. -1.
         11   -1    0    0    0    0 -0.00000000000E+00 -0.00000000000E+00 -0.45593999997E+02  0.45594000000E+02  0.51100000000E-03 0.  1.
    9900012    2    1    2    0    0 -0.43079274474E+01 -0.15313371556E+02  0.98803757436E+01  0.72461563816E+02  0.69999991561E+02 0.  0.
        -12    1    1    2    0    0  0.43079274474E+01  0.15313371556E+02 -0.98803757436E+01  0.18726436184E+02  0.00000000000E+00 0.  1.
         11    1    3    3    0    0  0.18393302739E+01 -0.29814666174E+02  0.32799556297E+02  0.44363367190E+02  0.51100000000E-03 0. -1.
        -11    1    3    3    0    0 -0.14765872544E+01  0.82027462364E+01 -0.10423750361E+02  0.13346157784E+02  0.51100000000E-03 0.  1.
         12    1    3    3    0    0 -0.46706704669E+01  0.62985483812E+01 -0.12495430192E+02  0.14752038842E+02  0.00000000000E+00 0. -1.
</event>
<event>
 7    1  0.1884848E-013  0.7246156E+02  0.7816164E-02  0.1226708E+00
        -11   -1    0    0    0    0  0.00000000000E+00  0.00000000000E+00  0.45593999997E+02  0.45594000000E+02  0.51100000000E-03 0.  1.
         11   -1    0    0    0    0 -0.00000000000E+00 -0.00000000000E+00 -0.45593999997E+02  0.45594000000E+02  0.51100000000E-03 0. -1.
    9900012    2    1    2    0    0  0.13778202092E+02  0.65817026114E+01 -0.10840751487E+02  0.72461560003E+02  0.69999986594E+02 0.  0.
        -12    1    1    2    0    0 -0.13778202092E+02 -0.65817026114E+01  0.10840751487E+02  0.18726439997E+02  0.00000000000E+00 0.  1.
         11    1    3    3    0    0  0.76070903985E+00  0.35898141624E+02  0.14382227462E+01  0.35934993186E+02  0.51100000000E-03 0. -1.
        -11    1    3    3    0    0  0.86857026734E+01 -0.15936588032E+02 -0.13185529229E+02  0.22433779226E+02  0.51100000000E-03 0.  1.
         12    1    3    3    0    0  0.43317903788E+01 -0.13379850981E+02  0.90655499580E+00  0.14092787592E+02  0.00000000000E+00 0. -1.
</event>
<event>
 7    1  0.1884848E-013  0.7246157E+02  0.7816164E-02  0.1226708E+00
        -11   -1    0    0    0    0  0.00000000000E+00  0.00000000000E+00  0.45593999997E+02  0.45594000000E+02  0.51100000000E-03 0.  1.
         11   -1    0    0    0    0 -0.00000000000E+00 -0.00000000000E+00 -0.45593999997E+02  0.45594000000E+02  0.51100000000E-03 0. -1.
    9900012    2    1    2    0    0  0.41818331546E+01  0.65517790181E+01 -0.17037181831E+02  0.72461572108E+02  0.70000002363E+02 0.  0.
        -12    1    1    2    0    0 -0.41818331546E+01 -0.65517790181E+01  0.17037181831E+02  0.18726427892E+02  0.00000000000E+00 0.  1.
         11    1    3    3    0    0 -0.18339081766E+02 -0.64370615081E+01  0.10258630169E+02  0.21977196684E+02  0.51100000000E-03 0. -1.
        -11    1    3    3    0    0 -0.80830267982E+01  0.42861659031E+01 -0.12248649319E+02  0.15288425385E+02  0.51100000000E-03 0.  1.
         12    1    3    3    0    0  0.30603941719E+02  0.87026746231E+01 -0.15047162682E+02  0.35195950039E+02  0.00000000000E+00 0. -1.
</event>
<event>
 7    1  0.1884848E-013  0.7246157E+02  0.7816164E-02  0.1226708E+00
        -11   -1    0    0    0    0  0.00000000000E+00  0.00000000000E+00  0.45593999997E+02  0.45594000000E+02  0.51100000000E-03 0.  1.
         11   -1    0    0    0    0 -0.00000000000E+00 -0.00000000000E+00 -0.45593999997E+02  0.45594000000E+02  0.51100000000E-03 0. -1.
    9900012    2    1    2    0    0  0.82539518930E+01  0.15274624527E+02  0.70169303744E+01  0.72461569796E+02  0.69999999351E+02 0.  0.
        -12    1    1    2    0    0 -0.82539518930E+01 -0.15274624527E+02 -0.70169303744E+01  0.18726430204E+02  0.00000000000E+00 0.  1.
         11    1    3    3    0    0  0.76570906194E+01  0.64278925241E+01 -0.11490464543E+02  0.15230877018E+02  0.51100000000E-03 0. -1.
        -11    1    3    3    0    0 -0.25234481791E+02  0.10436879946E+02  0.41097403762E+01  0.27615167943E+02  0.51100000000E-03 0.  1.
        -12    1    3    3    0    0  0.25831343065E+02 -0.15901479423E+01  0.14397654541E+02  0.29615524836E+02  0.00000000000E+00 0.  1.
</event>
<event>
 7    1  0.1884848E-013  0.7246159E+02  0.7816164E-02  0.1226708E+00
        -11   -1    0    0    0    0  0.00000000000E+00  0.00000000000E+00  0.45593999997E+02  0.45594000000E+02  0.51100000000E-03 0.  1.
         11   -1    0    0    0    0 -0.00000000000E+00 -0.00000000000E+00 -0.45593999997E+02  0.45594000000E+02  0.51100000000E-03 0. -1.
    9900012    2    1    2    0    0  0.55649972419E+01  0.17700709649E+02  0.25286700439E+01  0.72461588476E+02  0.70000023685E+02 0.  0.
        -12    1    1    2    0    0 -0.55649972419E+01 -0.17700709649E+02 -0.25286700439E+01  0.18726411524E+02  0.00000000000E+00 0.  1.
         11    1    3    3    0    0  0.11123871085E+02  0.18048105342E+02  0.61235832897E+01  0.22067462177E+02  0.51100000000E-03 0. -1.
        -11    1    3    3    0    0 -0.13915149561E+02 -0.22237175115E+02  0.19890238463E+01  0.26307405051E+02  0.51100000000E-03 0.  1.
        -12    1    3    3    0    0  0.83562757171E+01  0.21889779422E+02 -0.55839370921E+01  0.24086721248E+02  0.00000000000E+00 0.  1.
</event>
<event>
 7    1  0.1884848E-013  0.7246155E+02  0.7816164E-02  0.1226708E+00
        -11   -1    0    0    0    0  0.00000000000E+00  0.00000000000E+00  0.45593999997E+02  0.45594000000E+02  0.51100000000E-03 0. -1.
         11   -1    0    0    0    0 -0.00000000000E+00 -0.00000000000E+00 -0.45593999997E+02  0.45594000000E+02  0.51100000000E-03 0.  1.
    9900012    2    1    2    0    0  0.60343813780E+01 -0.12369261437E+02  0.12699121967E+02  0.72461545829E+02  0.69999968129E+02 0.  0.
        -12    1    1    2    0    0 -0.60343813780E+01  0.12369261437E+02 -0.12699121967E+02  0.18726454171E+02  0.00000000000E+00 0.  1.
         11    1    3    3    0    0 -0.24711860240E+01 -0.17051317990E+02 -0.19782283974E+02  0.26233432201E+02  0.51100000000E-03 0.  1.
        -11    1    3    3    0    0  0.19397067250E+02  0.53755480942E+01  0.27874317530E+02  0.34381976576E+02  0.51100000000E-03 0. -1.
        -12    1    3    3    0    0 -0.10891499848E+02 -0.69349154117E+00  0.46070884101E+01  0.11846137052E+02  0.00000000000E+00 0.  1.
</event>
<event>
 7    1  0.1884848E-013  0.7246154E+02  0.7816164E-02  0.1226708E+00
        -11   -1    0    0    0    0  0.00000000000E+00  0.00000000000E+00  0.45593999997E+02  0.45594000000E+02  0.51100000000E-03 0. -1.
         11   -1    0    0    0    0 -0.00000000000E+00 -0.00000000000E+00 -0.45593999997E+02  0.45594000000E+02  0.51100000000E-03 0.  1.
    9900012    2    1    2    0    0  0.16725315886E+02  0.54317616940E+01  0.64373824246E+01  0.72461544942E+02  0.69999966973E+02 0.  0.
        -12    1    1    2    0    0 -0.16725315886E+02 -0.54317616940E+01 -0.64373824246E+01  0.18726455058E+02  0.00000000000E+00 0.  1.
         11    1    3    3    0    0  0.11848942101E+02 -0.22133669748E+02  0.19502987546E+01  0.25181350855E+02  0.51100000000E-03 0. -1.
        -11    1    3    3    0    0  0.10530694138E+02  0.31659441437E+02 -0.67599646605E+01  0.34042809425E+02  0.51100000000E-03 0.  1.
        -12    1    3    3    0    0 -0.56543203538E+01 -0.40940099950E+01  0.11247048331E+02  0.13237384661E+02  0.00000000000E+00 0.  1.
</event>
<event>
 7    1  0.1884848E-013  0.7246226E+02  0.7816164E-02  0.1226706E+00
        -11   -1    0    0    0    0  0.00000000000E+00  0.00000000000E+00  0.45593999997E+02  0.45594000000E+02  0.51100000000E-03 0.  1.
         11   -1    0    0    0    0 -0.00000000000E+00 -0.00000000000E+00 -0.45593999997E+02  0.45594000000E+02  0.51100000000E-03 0. -1.
    9900012    2    1    2    0    0  0.18312828721E+02  0.10736337265E+01  0.37604347439E+01  0.72462262242E+02  0.70000901384E+02 0.  0.
        -12    1    1    2    0    0 -0.18312828721E+02 -0.10736337265E+01 -0.37604347439E+01  0.18725737758E+02  0.00000000000E+00 0.  1.
         11    1    3    3    0    0 -0.16035832239E+02 -0.74544324199E+01 -0.89145717177E+01  0.19803688229E+02  0.51100000000E-03 0. -1.
        -11    1    3    3    0    0  0.31128245407E+02  0.17358157047E+02 -0.14749918086E+01  0.35671401420E+02  0.51100000000E-03 0.  1.
        -12    1    3    3    0    0  0.32204155526E+01 -0.88300909011E+01  0.14149998270E+02  0.16987172593E+02  0.00000000000E+00 0.  1.
</event>
<event>
 7    1  0.1884848E-013  0.7246157E+02  0.7816164E-02  0.1226708E+00
        -11   -1    0    0    0    0  0.00000000000E+00  0.00000000000E+00  0.45593999997E+02  0.45594000000E+02  0.51100000000E-03 0. -1.
         11   -1    0    0    0    0 -0.00000000000E+00 -0.00000000000E+00 -0.45593999997E+02  0.45594000000E+02  0.51100000000E-03 0.  1.
    9900012    2    1    2    0    0 -0.96564797466E+01 -0.16028425300E+02  0.72191127672E+00  0.72461570159E+02  0.69999999824E+02 0.  0.
        -12    1    1    2    0    0  0.96564797466E+01  0.16028425300E+02 -0.72191127672E+00  0.18726429841E+02  0.00000000000E+00 0.  1.
         11    1    3    3    0    0 -0.20954895756E+02  0.14401144604E+02  0.97138584558E+01  0.27218737450E+02  0.51100000000E-03 0. -1.
        -11    1    3    3    0    0  0.13593999931E+02 -0.37359454491E+01 -0.11691308242E+02  0.18315043303E+02  0.51100000000E-03 0.  1.
         12    1    3    3    0    0 -0.22955839221E+01 -0.26693624455E+02  0.26993610632E+01  0.26927789405E+02  0.00000000000E+00 0. -1.
</event>
<event>
 7    1  0.1884848E-013  0.7246156E+02  0.7816164E-02  0.1226708E+00
        -11   -1    0    0    0    0  0.00000000000E+00  0.00000000000E+00  0.45593999997E+02  0.45594000000E+02  0.51100000000E-03 0. -1.
         11   -1    0    0    0    0 -0.00000000000E+00 -0.00000000000E+00 -0.45593999997E+02  0.45594000000E+02  0.51100000000E-03 0.  1.
    9900012    2    1    2    0    0 -0.10895074432E+02 -0.14946155423E+02  0.29307637460E+01  0.72461559202E+02  0.69999985551E+02 0.  0.
        -12    1    1    2    0    0  0.10895074432E+02  0.14946155423E+02 -0.29307637460E+01  0.18726440798E+02  0.00000000000E+00 0.  1.
         11    1    3    3    0    0 -0.12901685134E+01 -0.26747043541E+02 -0.73953240392E+01  0.27780563186E+02  0.51100000000E-03 0. -1.
        -11    1    3    3    0    0  0.60778238033E+00  0.24701967597E+02 -0.96024933313E+00  0.24728094986E+02  0.51100000000E-03 0.  1.
         12    1    3    3    0    0 -0.10212688299E+02 -0.12901079479E+02  0.11286337118E+02  0.19952901031E+02  0.00000000000E+00 0. -1.
</event>
<event>
 7    1  0.1884848E-013  0.7246162E+02  0.7816164E-02  0.1226708E+00
        -11   -1    0    0    0    0  0.00000000000E+00  0.00000000000E+00  0.45593999997E+02  0.45594000000E+02  0.51100000000E-03 0. -1.
         11   -1    0    0    0    0 -0.00000000000E+00 -0.00000000000E+00 -0.45593999997E+02  0.45594000000E+02  0.51100000000E-03 0.  1.
    9900012    2    1    2    0    0  0.23997775792E+00  0.12283425174E+02 -0.14132842704E+02  0.72461618443E+02  0.70000062722E+02 0.  0.
        -12    1    1    2    0    0 -0.23997775792E+00 -0.12283425174E+02  0.14132842704E+02  0.18726381557E+02  0.00000000000E+00 0.  1.
         11    1    3    3    0    0 -0.13946216885E+02 -0.15368415601E+02  0.66394215135E+01  0.21789150552E+02  0.51100000000E-03 0. -1.
        -11    1    3    3    0    0  0.23255938276E+02  0.23627191754E+02 -0.23191785166E+02  0.40459136851E+02  0.51100000000E-03 0.  1.
         12    1    3    3    0    0 -0.90697436335E+01  0.40246490214E+01  0.24195209484E+01  0.10213331040E+02  0.00000000000E+00 0. -1.
</event>
<event>
 7    1  0.1884848E-013  0.7246157E+02  0.7816164E-02  0.1226708E+00
        -11   -1    0    0    0    0  0.00000000000E+00  0.00000000000E+00  0.45593999997E+02  0.45594000000E+02  0.51100000000E-03 0.  1.
         11   -1    0    0    0    0 -0.00000000000E+00 -0.00000000000E+00 -0.45593999997E+02  0.45594000000E+02  0.51100000000E-03 0. -1.
    9900012    2    1    2    0    0 -0.11391073790E+02 -0.13133277906E+02 -0.69598701375E+01  0.72461565663E+02  0.69999993967E+02 0.  0.
        -12    1    1    2    0    0  0.11391073790E+02  0.13133277906E+02  0.69598701375E+01  0.18726434337E+02  0.00000000000E+00 0.  1.
         11    1    3    3    0    0 -0.35095503689E+02 -0.14959936429E+02  0.11669408329E+02  0.39895728696E+02  0.51100000000E-03 0. -1.
        -11    1    3    3    0    0  0.18654198589E+01  0.31836526505E+01 -0.66880208935E+01  0.76383937567E+01  0.51100000000E-03 0.  1.
         12    1    3    3    0    0  0.21839010040E+02 -0.13569941271E+01 -0.11941257573E+02  0.24927443210E+02  0.00000000000E+00 0. -1.
</event>
<event>
 7    1  0.1884848E-013  0.7246159E+02  0.7816164E-02  0.1226708E+00
        -11   -1    0    0    0    0  0.00000000000E+00  0.00000000000E+00  0.45593999997E+02  0.45594000000E+02  0.51100000000E-03 0.  1.
         11   -1    0    0    0    0 -0.00000000000E+00 -0.00000000000E+00 -0.45593999997E+02  0.45594000000E+02  0.51100000000E-03 0. -1.
    9900012    2    1    2    0    0 -0.14212158699E+02  0.10790950873E+02  0.56787595338E+01  0.72461591229E+02  0.70000027271E+02 0.  0.
        -12    1    1    2    0    0  0.14212158699E+02 -0.10790950873E+02 -0.56787595338E+01  0.18726408771E+02  0.00000000000E+00 0.  1.
         11    1    3    3    0    0 -0.21798215715E+02 -0.49293054276E+01 -0.21916297351E+02  0.31301507155E+02  0.51100000000E-03 0. -1.
        -11    1    3    3    0    0  0.16633968317E+02  0.12900933357E+02  0.19560261410E+02  0.28735462588E+02  0.51100000000E-03 0.  1.
        -12    1    3    3    0    0 -0.90479112999E+01  0.28193229443E+01  0.80347954744E+01  0.12424621486E+02  0.00000000000E+00 0.  1.
</event>
<event>
 7    1  0.1884848E-013  0.7246175E+02  0.7816164E-02  0.1226708E+00
        -11   -1    0    0    0    0  0.00000000000E+00  0.00000000000E+00  0.45593999997E+02  0.45594000000E+02  0.51100000000E-03 0.  1.
         11   -1    0    0    0    0 -0.00000000000E+00 -0.00000000000E+00 -0.45593999997E+02  0.45594000000E+02  0.51100000000E-03 0. -1.
    9900012    2    1    2    0    0 -0.67814591885E+01 -0.17192686519E+02  0.30159480002E+01  0.72461745681E+02  0.70000228473E+02 0.  0.
        -12    1    1    2    0    0  0.67814591885E+01  0.17192686519E+02 -0.30159480002E+01  0.18726254319E+02  0.00000000000E+00 0.  1.
         11    1    3    3    0    0  0.11009301738E+01  0.68703843671E+00 -0.64028794002E+01  0.65330646664E+01  0.51100000000E-03 0. -1.
        -11    1    3    3    0    0 -0.25189703692E+02 -0.13924036456E+02  0.28052596535E+02  0.40191393804E+02  0.51100000000E-03 0.  1.
        -12    1    3    3    0    0  0.17307314329E+02 -0.39556885002E+01 -0.18633769134E+02  0.25737287211E+02  0.00000000000E+00 0.  1.
</event>
<event>
 7    1  0.1884848E-013  0.7246156E+02  0.7816164E-02  0.1226708E+00
        -11   -1    0    0    0    0  0.00000000000E+00  0.00000000000E+00  0.45593999997E+02  0.45594000000E+02  0.51100000000E-03 0.  1.
         11   -1    0    0    0    0 -0.00000000000E+00 -0.00000000000E+00 -0.45593999997E+02  0.45594000000E+02  0.51100000000E-03 0. -1.
    9900012    2    1    2    0    0 -0.36234397073E+01  0.18243039518E+02 -0.21775376793E+01  0.72461562097E+02  0.69999989322E+02 0.  0.
        -12    1    1    2    0    0  0.36234397073E+01 -0.18243039518E+02  0.21775376793E+01  0.18726437903E+02  0.00000000000E+00 0.  1.
         11    1    3    3    0    0  0.11915572335E+02  0.16486859457E+02 -0.13631827394E+02  0.24487223551E+02  0.51100000000E-03 0. -1.
        -11    1    3    3    0    0 -0.17494553533E+02 -0.13603876072E+02 -0.75942061277E+01  0.23426412753E+02  0.51100000000E-03 0.  1.
         12    1    3    3    0    0  0.19555414902E+01  0.15360056133E+02  0.19048495843E+02  0.24547925794E+02  0.00000000000E+00 0. -1.
</event>
<event>
 7    1  0.1884848E-013  0.7246176E+02  0.7816164E-02  0.1226708E+00
        -11   -1    0    0    0    0  0.00000000000E+00  0.00000000000E+00  0.45593999997E+02  0.45594000000E+02  0.51100000000E-03 0. -1.
         11   -1    0    0    0    0 -0.00000000000E+00 -0.00000000000E+00 -0.45593999997E+02  0.45594000000E+02  0.51100000000E-03 0.  1.
    9900012    2    1    2    0    0 -0.10303041706E+02 -0.24596989770E+01  0.15442450849E+02  0.72461759703E+02  0.70000246740E+02 0.  0.
        -12    1    1    2    0    0  0.10303041706E+02  0.24596989770E+01 -0.15442450849E+02  0.18726240297E+02  0.00000000000E+00 0.  1.
         11    1    3    3    0    0  0.11349338850E+02 -0.23938094948E+01 -0.15136241181E+01  0.11697387506E+02  0.51100000000E-03 0.  1.
        -11    1    3    3    0    0 -0.33292720872E+02 -0.10971631854E+02 -0.30399983396E+01  0.35185558952E+02  0.51100000000E-03 0. -1.
        -12    1    3    3    0    0  0.11640340317E+02  0.10905742372E+02  0.19996073306E+02  0.25578813245E+02  0.00000000000E+00 0.  1.
</event>
<event>
 7    1  0.1884848E-013  0.7246156E+02  0.7816164E-02  0.1226708E+00
        -11   -1    0    0    0    0  0.00000000000E+00  0.00000000000E+00  0.45593999997E+02  0.45594000000E+02  0.51100000000E-03 0.  1.
         11   -1    0    0    0    0 -0.00000000000E+00 -0.00000000000E+00 -0.45593999997E+02  0.45594000000E+02  0.51100000000E-03 0. -1.
    9900012    2    1    2    0    0  0.77361214238E+01 -0.15842857532E+02  0.63115502829E+01  0.72461564770E+02  0.69999992803E+02 0.  0.
        -12    1    1    2    0    0 -0.77361214238E+01  0.15842857532E+02 -0.63115502829E+01  0.18726435230E+02  0.00000000000E+00 0.  1.
         11    1    3    3    0    0 -0.36140837862E+01  0.14095198273E+02  0.27560113515E+02  0.31165623261E+02  0.51100000000E-03 0. -1.
        -11    1    3    3    0    0  0.33771671772E+01 -0.87819378164E+01  0.11400078280E+01  0.94777269460E+01  0.51100000000E-03 0.  1.
         12    1    3    3    0    0  0.79730380328E+01 -0.21156117989E+02 -0.22388571061E+02  0.31818214563E+02  0.00000000000E+00 0. -1.
</event>
<event>
 7    1  0.1884848E-013  0.7246156E+02  0.7816164E-02  0.1226708E+00
        -11   -1    0    0    0    0  0.00000000000E+00  0.00000000000E+00  0.45593999997E+02  0.45594000000E+02  0.51100000000E-03 0.  1.
         11   -1    0    0    0    0 -0.00000000000E+00 -0.00000000000E+00 -0.45593999997E+02  0.45594000000E+02  0.51100000000E-03 0. -1.
    9900012    2    1    2    0    0 -0.12921506085E+02 -0.36974900322E+01  0.13040052213E+02  0.72461555763E+02  0.69999981070E+02 0.  0.
        -12    1    1    2    0    0  0.12921506085E+02  0.36974900322E+01 -0.13040052213E+02  0.18726444237E+02  0.00000000000E+00 0.  1.
         11    1    3    3    0    0 -0.56162587956E+01 -0.16063608868E+01 -0.10669486756E+01  0.59381089494E+01  0.51100000000E-03 0. -1.
        -11    1    3    3    0    0  0.23390909822E+02 -0.15782824097E+02  0.16739610290E+02  0.32809247960E+02  0.51100000000E-03 0.  1.
        -12    1    3    3    0    0 -0.30696157111E+02  0.13691694952E+02 -0.26326094009E+01  0.33714198853E+02  0.00000000000E+00 0.  1.
</event>
<event>
 7    1  0.1884848E-013  0.7246172E+02  0.7816164E-02  0.1226708E+00
        -11   -1    0    0    0    0  0.00000000000E+00  0.00000000000E+00  0.45593999997E+02  0.45594000000E+02  0.51100000000E-03 0. -1.
         11   -1    0    0    0    0 -0.00000000000E+00 -0.00000000000E+00 -0.45593999997E+02  0.45594000000E+02  0.51100000000E-03 0.  1.
    9900012    2    1    2    0    0 -0.17070157041E+02 -0.48109807809E+01  0.60114541299E+01  0.72461724923E+02  0.70000201433E+02 0.  0.
        -12    1    1    2    0    0  0.17070157041E+02  0.48109807809E+01 -0.60114541299E+01  0.18726275077E+02  0.00000000000E+00 0.  1.
         11    1    3    3    0    0 -0.71595059475E+01 -0.26385214685E+02  0.23360625346E+02  0.35960490767E+02  0.51100000000E-03 0. -1.
        -11    1    3    3    0    0 -0.13682161967E+02  0.42043834125E+01 -0.70046620172E+01  0.15935610632E+02  0.51100000000E-03 0.  1.
         12    1    3    3    0    0  0.37715108732E+01  0.17369850492E+02 -0.10344509199E+02  0.20565623524E+02  0.00000000000E+00 0. -1.
</event>
<event>
 7    1  0.1884848E-013  0.7246154E+02  0.7816164E-02  0.1226708E+00
        -11   -1    0    0    0    0  0.00000000000E+00  0.00000000000E+00  0.45593999997E+02  0.45594000000E+02  0.51100000000E-03 0. -1.
         11   -1    0    0    0    0 -0.00000000000E+00 -0.00000000000E+00 -0.45593999997E+02  0.45594000000E+02  0.51100000000E-03 0.  1.
    9900012    2    1    2    0    0 -0.73766365019E+00  0.16184139144E+02 -0.93920151956E+01  0.72461535920E+02  0.69999955221E+02 0.  0.
        -12    1    1    2    0    0  0.73766365019E+00 -0.16184139144E+02  0.93920151956E+01  0.18726464080E+02  0.00000000000E+00 0.  1.
         11    1    3    3    0    0  0.11838692729E+02 -0.13009174225E+02  0.13224273036E+01  0.17639219761E+02  0.51100000000E-03 0. -1.
        -11    1    3    3    0    0 -0.33591888636E+01  0.39376857610E+02 -0.11206713215E+02  0.41078114445E+02  0.51100000000E-03 0.  1.
        -12    1    3    3    0    0 -0.92171675152E+01 -0.10183544240E+02  0.49227071541E+00  0.13744201714E+02  0.00000000000E+00 0.  1.
</event>
<event>
 7    1  0.1884848E-013  0.7246158E+02  0.7816164E-02  0.1226708E+00
        -11   -1    0    0    0    0  0.00000000000E+00  0.00000000000E+00  0.45593999997E+02  0.45594000000E+02  0.51100000000E-03 0.  1.
         11   -1    0    0    0    0 -0.00000000000E+00 -0.00000000000E+00 -0.45593999997E+02  0.45594000000E+02  0.51100000000E-03 0. -1.
    9900012    2    1    2    0    0 -0.76872678728E+01 -0.21373926143E+01 -0.16941555857E+02  0.72461578842E+02  0.70000011135E+02 0.  0.
        -12    1    1    2    0    0  0.76872678728E+01  0.21373926143E+01  0.16941555857E+02  0.18726421158E+02  0.00000000000E+00 0.  1.
         11    1    3    3    0    0  0.23907020790E+01 -0.26299209375E+02 -0.15142003339E+02  0.30440830073E+02  0.51100000000E-03 0. -1.
        -11    1    3    3    0    0 -0.17383211817E+01  0.23932034050E+02 -0.13590661453E+02  0.27576622224E+02  0.51100000000E-03 0.  1.
        -12    1    3    3    0    0 -0.83396487701E+01  0.22978271056E+00  0.11791108935E+02  0.14444126544E+02  0.00000000000E+00 0.  1.
</event>
<event>
 7    1  0.1884848E-013  0.7246157E+02  0.7816164E-02  0.1226708E+00
        -11   -1    0    0    0    0  0.00000000000E+00  0.00000000000E+00  0.45593999997E+02  0.45594000000E+02  0.51100000000E-03 0. -1.
         11   -1    0    0    0    0 -0.00000000000E+00 -0.00000000000E+00 -0.45593999997E+02  0.45594000000E+02  0.51100000000E-03 0.  1.
    9900012    2    1    2    0    0  0.18616840749E+01  0.41631831414E+01  0.18162635972E+02  0.72461566626E+02  0.69999995221E+02 0.  0.
        -12    1    1    2    0    0 -0.18616840749E+01 -0.41631831414E+01 -0.18162635972E+02  0.18726433374E+02  0.00000000000E+00 0.  1.
         11    1    3    3    0    0  0.13315201787E+02  0.10738814028E+02 -0.15368140294E+02  0.22995574829E+02  0.51100000000E-03 0.  1.
        -11    1    3    3    0    0  0.29810527762E+01  0.59448359679E+00  0.33206591493E+02  0.33345431550E+02  0.51100000000E-03 0. -1.
        -12    1    3    3    0    0 -0.14434570488E+02 -0.71701144838E+01  0.32418477332E+00  0.16120560246E+02  0.00000000000E+00 0.  1.
</event>
<event>
 7    1  0.1884848E-013  0.7246162E+02  0.7816164E-02  0.1226708E+00
        -11   -1    0    0    0    0  0.00000000000E+00  0.00000000000E+00  0.45593999997E+02  0.45594000000E+02  0.51100000000E-03 0. -1.
         11   -1    0    0    0    0 -0.00000000000E+00 -0.00000000000E+00 -0.45593999997E+02  0.45594000000E+02  0.51100000000E-03 0.  1.
    9900012    2    1    2    0    0 -0.15058981182E+02  0.33976307493E+01  0.10600027233E+02  0.72461617907E+02  0.70000062025E+02 0.  0.
        -12    1    1    2    0    0  0.15058981182E+02 -0.33976307493E+01 -0.10600027233E+02  0.18726382093E+02  0.00000000000E+00 0.  1.
         11    1    3    3    0    0 -0.78880014751E+01  0.23352349599E+02 -0.22712489210E+01  0.24753007312E+02  0.51100000000E-03 0.  1.
        -11    1    3    3    0    0 -0.51955077004E+01  0.88731239821E+00  0.23601942144E+02  0.24183306160E+02  0.51100000000E-03 0. -1.
         12    1    3    3    0    0 -0.19754720066E+01 -0.20842031248E+02 -0.10730665991E+02  0.23525304436E+02  0.00000000000E+00 0. -1.
</event>
<event>
 7    1  0.1884848E-013  0.7246153E+02  0.7816164E-02  0.1226708E+00
        -11   -1    0    0    0    0  0.00000000000E+00  0.00000000000E+00  0.45593999997E+02  0.45594000000E+02  0.51100000000E-03 0.  1.
         11   -1    0    0    0    0 -0.00000000000E+00 -0.00000000000E+00 -0.45593999997E+02  0.45594000000E+02  0.51100000000E-03 0. -1.
    9900012    2    1    2    0    0  0.17331152365E+02  0.52483110089E+01  0.47714709234E+01  0.72461533555E+02  0.69999952140E+02 0.  0.
        -12    1    1    2    0    0 -0.17331152365E+02 -0.52483110089E+01 -0.47714709234E+01  0.18726466445E+02  0.00000000000E+00 0.  1.
         11    1    3    3    0    0  0.12023032372E+01  0.22533333718E+02 -0.61442812071E+01  0.23386937665E+02  0.51100000000E-03 0. -1.
        -11    1    3    3    0    0  0.22020946184E+01 -0.24151415348E+02 -0.71204492344E+01  0.25275301810E+02  0.51100000000E-03 0.  1.
        -12    1    3    3    0    0  0.13926754509E+02  0.68663926387E+01  0.18036201365E+02  0.23799294080E+02  0.00000000000E+00 0.  1.
</event>
<event>
 7    1  0.1884848E-013  0.7246158E+02  0.7816164E-02  0.1226708E+00
        -11   -1    0    0    0    0  0.00000000000E+00  0.00000000000E+00  0.45593999997E+02  0.45594000000E+02  0.51100000000E-03 0.  1.
         11   -1    0    0    0    0 -0.00000000000E+00 -0.00000000000E+00 -0.45593999997E+02  0.45594000000E+02  0.51100000000E-03 0. -1.
    9900012    2    1    2    0    0  0.43433718027E+01  0.12920030001E+02 -0.12840819164E+02  0.72461583081E+02  0.70000016656E+02 0.  0.
        -12    1    1    2    0    0 -0.43433718027E+01 -0.12920030001E+02  0.12840819164E+02  0.18726416919E+02  0.00000000000E+00 0.  1.
         11    1    3    3    0    0 -0.17723973943E+02  0.88340260409E+01  0.62083607559E+01  0.20753867398E+02  0.51100000000E-03 0. -1.
        -11    1    3    3    0    0  0.33953456797E+02 -0.28639335693E+01 -0.15808751342E+02  0.37562693769E+02  0.51100000000E-03 0.  1.
        -12    1    3    3    0    0 -0.11886111051E+02  0.69499375297E+01 -0.32404285773E+01  0.14145021914E+02  0.00000000000E+00 0.  1.
</event>
<event>
 7    1  0.1884848E-013  0.7246156E+02  0.7816164E-02  0.1226708E+00
        -11   -1    0    0    0    0  0.00000000000E+00  0.00000000000E+00  0.45593999997E+02  0.45594000000E+02  0.51100000000E-03 0. -1.
         11   -1    0    0    0    0 -0.00000000000E+00 -0.00000000000E+00 -0.45593999997E+02  0.45594000000E+02  0.51100000000E-03 0.  1.
    9900012    2    1    2    0    0 -0.17137367978E+02  0.62737477622E+01  0.41988600172E+01  0.72461555659E+02  0.69999980935E+02 0.  0.
        -12    1    1    2    0    0  0.17137367978E+02 -0.62737477622E+01 -0.41988600172E+01  0.18726444341E+02  0.00000000000E+00 0.  1.
         11    1    3    3    0    0  0.20300949384E+02 -0.11411007208E+02 -0.26663856717E+01  0.23440333705E+02  0.51100000000E-03 0.  1.
        -11    1    3    3    0    0 -0.19828064536E+02  0.17859837138E+02  0.13861829798E+02  0.30071186399E+02  0.51100000000E-03 0. -1.
        -12    1    3    3    0    0 -0.17610252826E+02 -0.17508216786E+00 -0.69965841089E+01  0.18950035555E+02  0.00000000000E+00 0.  1.
</event>
<event>
 7    1  0.1884848E-013  0.7246159E+02  0.7816164E-02  0.1226708E+00
        -11   -1    0    0    0    0  0.00000000000E+00  0.00000000000E+00  0.45593999997E+02  0.45594000000E+02  0.51100000000E-03 0.  1.
         11   -1    0    0    0    0 -0.00000000000E+00 -0.00000000000E+00 -0.45593999997E+02  0.45594000000E+02  0.51100000000E-03 0. -1.
    9900012    2    1    2    0    0  0.62532599965E+01  0.17442571333E+00 -0.17650629864E+02  0.72461590319E+02  0.70000026086E+02 0.  0.
        -12    1    1    2    0    0 -0.62532599965E+01 -0.17442571333E+00  0.17650629864E+02  0.18726409681E+02  0.00000000000E+00 0.  1.
         11    1    3    3    0    0 -0.12787921899E-02 -0.28454445697E+01 -0.19722172372E+02  0.19926380498E+02  0.51100000000E-03 0. -1.
        -11    1    3    3    0    0 -0.19314655269E+02 -0.12070065206E+02  0.40901710550E-01  0.22775953448E+02  0.51100000000E-03 0.  1.
        -12    1    3    3    0    0  0.25569194058E+02  0.15089935489E+02  0.20306407966E+01  0.29759256373E+02  0.00000000000E+00 0.  1.
</event>
<event>
 7    1  0.1884848E-013  0.7246164E+02  0.7816164E-02  0.1226708E+00
        -11   -1    0    0    0    0  0.00000000000E+00  0.00000000000E+00  0.45593999997E+02  0.45594000000E+02  0.51100000000E-03 0. -1.
         11   -1    0    0    0    0 -0.00000000000E+00 -0.00000000000E+00 -0.45593999997E+02  0.45594000000E+02  0.51100000000E-03 0.  1.
    9900012    2    1    2    0    0  0.16544219251E+02  0.79362989091E+01  0.37390679302E+01  0.72461637300E+02  0.70000087287E+02 0.  0.
        -12    1    1    2    0    0 -0.16544219251E+02 -0.79362989091E+01 -0.37390679302E+01  0.18726362700E+02  0.00000000000E+00 0.  1.
         11    1    3    3    0    0  0.52862917924E+01 -0.75607107005E+01  0.20301769467E+02  0.22299575579E+02  0.51100000000E-03 0. -1.
        -11    1    3    3    0    0  0.80113863282E+01  0.13179812352E+02 -0.31300375085E+02  0.34894172082E+02  0.51100000000E-03 0.  1.
        -12    1    3    3    0    0  0.32465411305E+01  0.23171972574E+01  0.14737673548E+02  0.15267889639E+02  0.00000000000E+00 0.  1.
</event>
<event>
 7    1  0.1884848E-013  0.7246120E+02  0.7816164E-02  0.1226709E+00
        -11   -1    0    0    0    0  0.00000000000E+00  0.00000000000E+00  0.45593999997E+02  0.45594000000E+02  0.51100000000E-03 0.  1.
         11   -1    0    0    0    0 -0.00000000000E+00 -0.00000000000E+00 -0.45593999997E+02  0.45594000000E+02  0.51100000000E-03 0. -1.
    9900012    2    1    2    0    0  0.69338692617E+01  0.82718673447E+01 -0.15303292691E+02  0.72461198365E+02  0.69999515491E+02 0.  0.
        -12    1    1    2    0    0 -0.69338692617E+01 -0.82718673447E+01  0.15303292691E+02  0.18726801635E+02  0.00000000000E+00 0.  1.
         11    1    3    3    0    0 -0.90052392567E+01  0.26915787001E+02 -0.27952585640E+02  0.39835925597E+02  0.51100000000E-03 0. -1.
        -11    1    3    3    0    0 -0.72868017972E+00 -0.11046728333E+02  0.14754160248E+01  0.11168618284E+02  0.51100000000E-03 0.  1.
         12    1    3    3    0    0  0.16667788698E+02 -0.75971913228E+01  0.11173876925E+02  0.21456654483E+02  0.00000000000E+00 0. -1.
</event>
<event>
 7    1  0.1884848E-013  0.7246161E+02  0.7816164E-02  0.1226708E+00
        -11   -1    0    0    0    0  0.00000000000E+00  0.00000000000E+00  0.45593999997E+02  0.45594000000E+02  0.51100000000E-03 0.  1.
         11   -1    0    0    0    0 -0.00000000000E+00 -0.00000000000E+00 -0.45593999997E+02  0.45594000000E+02  0.51100000000E-03 0. -1.
    9900012    2    1    2    0    0  0.55000382406E+01  0.16437954796E+02 -0.70866665054E+01  0.72461611649E+02  0.70000053872E+02 0.  0.
        -12    1    1    2    0    0 -0.55000382406E+01 -0.16437954796E+02  0.70866665054E+01  0.18726388351E+02  0.00000000000E+00 0.  1.
         11    1    3    3    0    0  0.27752492411E+02  0.78390015408E+01 -0.20652598437E+02  0.35470841584E+02  0.51100000000E-03 0.  1.
        -11    1    3    3    0    0 -0.19492615444E+02  0.16561411313E+02  0.12585352159E+02  0.28506727114E+02  0.51100000000E-03 0. -1.
        -12    1    3    3    0    0 -0.27598387269E+01 -0.79624580572E+01  0.98057977204E+00  0.84840429513E+01  0.00000000000E+00 0.  1.
</event>
<event>
 7    1  0.1884848E-013  0.7246153E+02  0.7816164E-02  0.1226708E+00
        -11   -1    0    0    0    0  0.00000000000E+00  0.00000000000E+00  0.45593999997E+02  0.45594000000E+02  0.51100000000E-03 0.  1.
         11   -1    0    0    0    0 -0.00000000000E+00 -0.00000000000E+00 -0.45593999997E+02  0.45594000000E+02  0.51100000000E-03 0. -1.
    9900012    2    1    2    0    0 -0.15197916875E+01  0.46179255844E+01 -0.18084401099E+02  0.72461532993E+02  0.69999951408E+02 0.  0.
        -12    1    1    2    0    0  0.15197916875E+01 -0.46179255844E+01  0.18084401099E+02  0.18726467007E+02  0.00000000000E+00 0.  1.
         11    1    3    3    0    0  0.36854915779E+01 -0.23408499703E+02 -0.10671719263E+02  0.25988964943E+02  0.51100000000E-03 0. -1.
        -11    1    3    3    0    0  0.59944713407E+01  0.32348161573E+02 -0.11184714474E+01  0.32917901246E+02  0.51100000000E-03 0.  1.
         12    1    3    3    0    0 -0.11199754606E+02 -0.43217362847E+01 -0.62942103881E+01  0.13554666804E+02  0.00000000000E+00 0. -1.
</event>
<event>
 7    1  0.1884848E-013  0.7246152E+02  0.7816164E-02  0.1226708E+00
        -11   -1    0    0    0    0  0.00000000000E+00  0.00000000000E+00  0.45593999997E+02  0.45594000000E+02  0.51100000000E-03 0.  1.
         11   -1    0    0    0    0 -0.00000000000E+00 -0.00000000000E+00 -0.45593999997E+02  0.45594000000E+02  0.51100000000E-03 0. -1.
    9900012    2    1    2    0    0  0.61350637251E+01 -0.16699750808E+02  0.58446902724E+01  0.72461519062E+02  0.69999933260E+02 0.  0.
        -12    1    1    2    0    0 -0.61350637251E+01  0.16699750808E+02 -0.58446902724E+01  0.18726480938E+02  0.00000000000E+00 0.  1.
         11    1    3    3    0    0 -0.88422065320E+01 -0.69896829014E+00 -0.23301130595E+01  0.91707469792E+01  0.51100000000E-03 0. -1.
        -11    1    3    3    0    0 -0.35344980489E+00 -0.21789188385E+02  0.29324675879E+02  0.36535329106E+02  0.51100000000E-03 0.  1.
        -12    1    3    3    0    0  0.15330720062E+02  0.57884058677E+01 -0.21149872547E+02  0.26755442976E+02  0.00000000000E+00 0.  1.
</event>
<event>
 7    1  0.1884848E-013  0.7246158E+02  0.7816164E-02  0.1226708E+00
        -11   -1    0    0    0    0  0.00000000000E+00  0.00000000000E+00  0.45593999997E+02  0.45594000000E+02  0.51100000000E-03 0.  1.
         11   -1    0    0    0    0 -0.00000000000E+00 -0.00000000000E+00 -0.45593999997E+02  0.45594000000E+02  0.51100000000E-03 0. -1.
    9900012    2    1    2    0    0  0.11739128434E+02  0.14326573905E+02  0.27605965237E+01  0.72461581511E+02  0.70000014612E+02 0.  0.
        -12    1    1    2    0    0 -0.11739128434E+02 -0.14326573905E+02 -0.27605965237E+01  0.18726418489E+02  0.00000000000E+00 0.  1.
         11    1    3    3    0    0 -0.16853589249E+01 -0.88986673148E+01  0.73666130625E+01  0.11674489409E+02  0.51100000000E-03 0. -1.
        -11    1    3    3    0    0 -0.34644370312E+01  0.30654609887E+02  0.14621061196E+02  0.34139169030E+02  0.51100000000E-03 0.  1.
        -12    1    3    3    0    0  0.16888924391E+02 -0.74293686671E+01 -0.19227077735E+02  0.26647923072E+02  0.00000000000E+00 0.  1.
</event>
<event>
 7    1  0.1884848E-013  0.7246157E+02  0.7816164E-02  0.1226708E+00
        -11   -1    0    0    0    0  0.00000000000E+00  0.00000000000E+00  0.45593999997E+02  0.45594000000E+02  0.51100000000E-03 0.  1.
         11   -1    0    0    0    0 -0.00000000000E+00 -0.00000000000E+00 -0.45593999997E+02  0.45594000000E+02  0.51100000000E-03 0. -1.
    9900012    2    1    2    0    0 -0.94243740218E+01 -0.13132654414E+02  0.94548179780E+01  0.72461574269E+02  0.70000005178E+02 0.  0.
        -12    1    1    2    0    0  0.94243740218E+01  0.13132654414E+02 -0.94548179780E+01  0.18726425731E+02  0.00000000000E+00 0.  1.
         11    1    3    3    0    0 -0.15935246662E+02  0.24111423827E+02  0.60815908643E+01  0.29534362916E+02  0.51100000000E-03 0. -1.
        -11    1    3    3    0    0 -0.72651521474E+00 -0.14440758531E+02  0.10607926967E+02  0.17932970922E+02  0.51100000000E-03 0.  1.
         12    1    3    3    0    0  0.72373878546E+01 -0.22803319710E+02 -0.72346998529E+01  0.24994240431E+02  0.00000000000E+00 0. -1.
</event>
<event>
 7    1  0.1884848E-013  0.7246130E+02  0.7816164E-02  0.1226709E+00
        -11   -1    0    0    0    0  0.00000000000E+00  0.00000000000E+00  0.45593999997E+02  0.45594000000E+02  0.51100000000E-03 0. -1.
         11   -1    0    0    0    0 -0.00000000000E+00 -0.00000000000E+00 -0.45593999997E+02  0.45594000000E+02  0.51100000000E-03 0.  1.
    9900012    2    1    2    0    0 -0.17852725035E+02  0.55758827147E+01 -0.93752484014E+00  0.72461302159E+02  0.69999650703E+02 0.  0.
        -12    1    1    2    0    0  0.17852725035E+02 -0.55758827147E+01  0.93752484014E+00  0.18726697841E+02  0.00000000000E+00 0.  1.
         11    1    3    3    0    0 -0.14805522674E+02 -0.17030045603E+02  0.10352829409E+02  0.24827545829E+02  0.51100000000E-03 0. -1.
        -11    1    3    3    0    0 -0.13425448644E+02  0.30442154373E+02 -0.79875320307E+01  0.34216488750E+02  0.51100000000E-03 0.  1.
         12    1    3    3    0    0  0.10378246283E+02 -0.78362260559E+01 -0.33028222184E+01  0.13417267580E+02  0.00000000000E+00 0. -1.
</event>
<event>
 7    1  0.1884848E-013  0.7246160E+02  0.7816164E-02  0.1226708E+00
        -11   -1    0    0    0    0  0.00000000000E+00  0.00000000000E+00  0.45593999997E+02  0.45594000000E+02  0.51100000000E-03 0.  1.
         11   -1    0    0    0    0 -0.00000000000E+00 -0.00000000000E+00 -0.45593999997E+02  0.45594000000E+02  0.51100000000E-03 0. -1.
    9900012    2    1    2    0    0  0.65905167889E+01  0.56539408030E+01 -0.16591445731E+02  0.72461600730E+02  0.70000039648E+02 0.  0.
        -12    1    1    2    0    0 -0.65905167889E+01 -0.56539408030E+01  0.16591445731E+02  0.18726399270E+02  0.00000000000E+00 0.  1.
         11    1    3    3    0    0 -0.15615572890E+02  0.24619509432E+02 -0.76089954791E+01  0.30130767893E+02  0.51100000000E-03 0. -1.
        -11    1    3    3    0    0  0.27543447661E+02 -0.11383066041E+02 -0.56631129437E+00  0.29808327868E+02  0.51100000000E-03 0.  1.
         12    1    3    3    0    0 -0.53373579826E+01 -0.75825025885E+01 -0.84161389579E+01  0.12522504969E+02  0.00000000000E+00 0. -1.
</event>
<event>
 7    1  0.1884848E-013  0.7246152E+02  0.7816164E-02  0.1226708E+00
        -11   -1    0    0    0    0  0.00000000000E+00  0.00000000000E+00  0.45593999997E+02  0.45594000000E+02  0.51100000000E-03 0.  1.
         11   -1    0    0    0    0 -0.00000000000E+00 -0.00000000000E+00 -0.45593999997E+02  0.45594000000E+02  0.51100000000E-03 0. -1.
    9900012    2    1    2    0    0  0.75505789577E+01  0.11061034889E+01 -0.17101058015E+02  0.72461524284E+02  0.69999940063E+02 0.  0.
        -12    1    1    2    0    0 -0.75505789577E+01 -0.11061034889E+01  0.17101058015E+02  0.18726475716E+02  0.00000000000E+00 0.  1.
         11    1    3    3    0    0  0.20635218432E+02  0.45925305347E+01 -0.12075319904E+02  0.24345778433E+02  0.51100000000E-03 0. -1.
        -11    1    3    3    0    0 -0.25198677716E+02 -0.41585158978E+01 -0.17307733498E+02  0.30851649100E+02  0.51100000000E-03 0.  1.
        -12    1    3    3    0    0  0.12114038242E+02  0.67208885197E+00  0.12281995387E+02  0.17264096751E+02  0.00000000000E+00 0.  1.
</event>
<event>
 7    1  0.1884848E-013  0.7246140E+02  0.7816164E-02  0.1226708E+00
        -11   -1    0    0    0    0  0.00000000000E+00  0.00000000000E+00  0.45593999997E+02  0.45594000000E+02  0.51100000000E-03 0.  1.
         11   -1    0    0    0    0 -0.00000000000E+00 -0.00000000000E+00 -0.45593999997E+02  0.45594000000E+02  0.51100000000E-03 0. -1.
    9900012    2    1    2    0    0  0.11696069187E+02 -0.12256191024E+02 -0.79795580266E+01  0.72461398623E+02  0.69999776366E+02 0.  0.
        -12    1    1    2    0    0 -0.11696069187E+02  0.12256191024E+02  0.79795580266E+01  0.18726601377E+02  0.00000000000E+00 0.  1.
         11    1    3    3    0    0 -0.15968547426E+02 -0.75426770390E+01 -0.19762364096E+02  0.26503537853E+02  0.51100000000E-03 0. -1.
        -11    1    3    3    0    0  0.20441688921E+02 -0.36788817606E+01  0.23992606050E+02  0.31733924471E+02  0.51100000000E-03 0.  1.
         12    1    3    3    0    0  0.72229276912E+01 -0.10346322240E+01 -0.12209799981E+02  0.14223936300E+02  0.00000000000E+00 0. -1.
</event>
<event>
 7    1  0.1884848E-013  0.7246158E+02  0.7816164E-02  0.1226708E+00
        -11   -1    0    0    0    0  0.00000000000E+00  0.00000000000E+00  0.45593999997E+02  0.45594000000E+02  0.51100000000E-03 0. -1.
         11   -1    0    0    0    0 -0.00000000000E+00 -0.00000000000E+00 -0.45593999997E+02  0.45594000000E+02  0.51100000000E-03 0.  1.
    9900012    2    1    2    0    0 -0.13865481171E+02  0.11524683039E+02  0.50605222188E+01  0.72461580899E+02  0.70000013814E+02 0.  0.
        -12    1    1    2    0    0  0.13865481171E+02 -0.11524683039E+02 -0.50605222188E+01  0.18726419101E+02  0.00000000000E+00 0.  1.
         11    1    3    3    0    0  0.18014289241E+01  0.12906938012E+02  0.30825427334E+02  0.33467016084E+02  0.51100000000E-03 0. -1.
        -11    1    3    3    0    0 -0.59107686169E+01 -0.90990441375E+01 -0.53339453158E+00  0.10863438675E+02  0.51100000000E-03 0.  1.
         12    1    3    3    0    0 -0.97561414779E+01  0.77167891645E+01 -0.25231510583E+02  0.28131126139E+02  0.00000000000E+00 0. -1.
</event>
<event>
 7    1  0.1884848E-013  0.7246171E+02  0.7816164E-02  0.1226708E+00
        -11   -1    0    0    0    0  0.00000000000E+00  0.00000000000E+00  0.45593999997E+02  0.45594000000E+02  0.51100000000E-03 0.  1.
         11   -1    0    0    0    0 -0.00000000000E+00 -0.00000000000E+00 -0.45593999997E+02  0.45594000000E+02  0.51100000000E-03 0. -1.
    9900012    2    1    2    0    0  0.13600032571E+02  0.11448225601E+02 -0.58865186828E+01  0.72461712126E+02  0.70000184762E+02 0.  0.
        -12    1    1    2    0    0 -0.13600032571E+02 -0.11448225601E+02  0.58865186828E+01  0.18726287874E+02  0.00000000000E+00 0.  1.
         11    1    3    3    0    0  0.28765162243E+02 -0.18486685754E+02  0.82037156975E+01  0.35163803272E+02  0.51100000000E-03 0. -1.
        -11    1    3    3    0    0 -0.85098223990E+01  0.17890415058E+02 -0.39417887715E+01  0.20199547698E+02  0.51100000000E-03 0.  1.
         12    1    3    3    0    0 -0.66553072735E+01  0.12044496297E+02 -0.10148445609E+02  0.17098361156E+02  0.00000000000E+00 0. -1.
</event>
<event>
 7    1  0.1884848E-013  0.7246155E+02  0.7816164E-02  0.1226708E+00
        -11   -1    0    0    0    0  0.00000000000E+00  0.00000000000E+00  0.45593999997E+02  0.45594000000E+02  0.51100000000E-03 0. -1.
         11   -1    0    0    0    0 -0.00000000000E+00 -0.00000000000E+00 -0.45593999997E+02  0.45594000000E+02  0.51100000000E-03 0.  1.
    9900012    2    1    2    0    0  0.17882216866E+02  0.55238464875E+01  0.62705376690E+00  0.72461554622E+02  0.69999979584E+02 0.  0.
        -12    1    1    2    0    0 -0.17882216866E+02 -0.55238464875E+01 -0.62705376690E+00  0.18726445378E+02  0.00000000000E+00 0.  1.
         11    1    3    3    0    0 -0.15002893313E+02  0.19270540063E+02 -0.76232837690E+01  0.25584272078E+02  0.51100000000E-03 0. -1.
        -11    1    3    3    0    0  0.15356596746E+02  0.86174785554E+01  0.15098254316E+01  0.17673866961E+02  0.51100000000E-03 0.  1.
         12    1    3    3    0    0  0.17528513433E+02 -0.22364172131E+02  0.67405121043E+01  0.29203415583E+02  0.00000000000E+00 0. -1.
</event>
<event>
 7    1  0.1884848E-013  0.7246157E+02  0.7816164E-02  0.1226708E+00
        -11   -1    0    0    0    0  0.00000000000E+00  0.00000000000E+00  0.45593999997E+02  0.45594000000E+02  0.51100000000E-03 0.  1.
         11   -1    0    0    0    0 -0.00000000000E+00 -0.00000000000E+00 -0.45593999997E+02  0.45594000000E+02  0.51100000000E-03 0. -1.
    9900012    2    1    2    0    0 -0.24166856248E+01 -0.91912557726E+01 -0.16135661115E+02  0.72461571838E+02  0.70000002011E+02 0.  0.
        -12    1    1    2    0    0  0.24166856248E+01  0.91912557726E+01  0.16135661115E+02  0.18726428162E+02  0.00000000000E+00 0.  1.
         11    1    3    3    0    0  0.10409116055E+02 -0.33709820329E+02 -0.21697854529E+02  0.41418577657E+02  0.51100000000E-03 0. -1.
        -11    1    3    3    0    0 -0.12513443812E+02  0.10694928243E+02  0.10351702062E+01  0.16493615242E+02  0.51100000000E-03 0.  1.
         12    1    3    3    0    0 -0.31235786868E+00  0.13823636314E+02  0.45270232076E+01  0.14549378938E+02  0.00000000000E+00 0. -1.
</event>
<event>
 7    1  0.1884848E-013  0.7246163E+02  0.7816164E-02  0.1226708E+00
        -11   -1    0    0    0    0  0.00000000000E+00  0.00000000000E+00  0.45593999997E+02  0.45594000000E+02  0.51100000000E-03 0. -1.
         11   -1    0    0    0    0 -0.00000000000E+00 -0.00000000000E+00 -0.45593999997E+02  0.45594000000E+02  0.51100000000E-03 0.  1.
    9900012    2    1    2    0    0  0.33734023609E+01  0.18196299817E+02 -0.28621533888E+01  0.72461625750E+02  0.70000072241E+02 0.  0.
        -12    1    1    2    0    0 -0.33734023609E+01 -0.18196299817E+02  0.28621533888E+01  0.18726374250E+02  0.00000000000E+00 0.  1.
         11    1    3    3    0    0  0.34488754902E+02  0.55059823880E+01  0.80551864345E+01  0.35842378346E+02  0.51100000000E-03 0. -1.
        -11    1    3    3    0    0 -0.60310913095E+01  0.12302034324E+01 -0.60197757054E+01  0.86095971261E+01  0.51100000000E-03 0.  1.
         12    1    3    3    0    0 -0.25084261232E+02  0.11460113997E+02 -0.48975641179E+01  0.28009650277E+02  0.00000000000E+00 0. -1.
</event>
<event>
 7    1  0.1884848E-013  0.7246155E+02  0.7816164E-02  0.1226708E+00
        -11   -1    0    0    0    0  0.00000000000E+00  0.00000000000E+00  0.45593999997E+02  0.45594000000E+02  0.51100000000E-03 0.  1.
         11   -1    0    0    0    0 -0.00000000000E+00 -0.00000000000E+00 -0.45593999997E+02  0.45594000000E+02  0.51100000000E-03 0. -1.
    9900012    2    1    2    0    0  0.17984807092E+02 -0.50644019719E+01  0.12564317288E+01  0.72461546140E+02  0.69999968534E+02 0.  0.
        -12    1    1    2    0    0 -0.17984807092E+02  0.50644019719E+01 -0.12564317288E+01  0.18726453860E+02  0.00000000000E+00 0.  1.
         11    1    3    3    0    0 -0.22336489319E+02 -0.48718330454E+01 -0.44206765451E+01  0.23285100251E+02  0.51100000000E-03 0. -1.
        -11    1    3    3    0    0  0.16277536979E+02  0.22948104986E+01  0.15956669077E+02  0.22909379162E+02  0.51100000000E-03 0.  1.
        -12    1    3    3    0    0  0.24043759433E+02 -0.24873794251E+01 -0.10279560803E+02  0.26267066726E+02  0.00000000000E+00 0.  1.
</event>
<event>
 7    1  0.1884848E-013  0.7246140E+02  0.7816164E-02  0.1226708E+00
        -11   -1    0    0    0    0  0.00000000000E+00  0.00000000000E+00  0.45593999997E+02  0.45594000000E+02  0.51100000000E-03 0.  1.
         11   -1    0    0    0    0 -0.00000000000E+00 -0.00000000000E+00 -0.45593999997E+02  0.45594000000E+02  0.51100000000E-03 0. -1.
    9900012    2    1    2    0    0 -0.13646098502E+02 -0.46221880908E+01 -0.11962642927E+02  0.72461402529E+02  0.69999781454E+02 0.  0.
        -12    1    1    2    0    0  0.13646098502E+02  0.46221880908E+01  0.11962642927E+02  0.18726597471E+02  0.00000000000E+00 0.  1.
         11    1    3    3    0    0 -0.24764207150E+00  0.94526854201E+01 -0.18385919669E+02  0.20675024319E+02  0.51100000000E-03 0.  1.
        -11    1    3    3    0    0 -0.25104087499E+02 -0.23388577906E+02 -0.24422427934E+01  0.34397751900E+02  0.51100000000E-03 0. -1.
        -12    1    3    3    0    0  0.11705631069E+02  0.93137043953E+01  0.88655195361E+01  0.17388626309E+02  0.00000000000E+00 0.  1.
</event>
<event>
 7    1  0.1884848E-013  0.7246157E+02  0.7816164E-02  0.1226708E+00
        -11   -1    0    0    0    0  0.00000000000E+00  0.00000000000E+00  0.45593999997E+02  0.45594000000E+02  0.51100000000E-03 0.  1.
         11   -1    0    0    0    0 -0.00000000000E+00 -0.00000000000E+00 -0.45593999997E+02  0.45594000000E+02  0.51100000000E-03 0. -1.
    9900012    2    1    2    0    0 -0.16179512159E+02 -0.78731295844E+01  0.51880892964E+01  0.72461573387E+02  0.70000004029E+02 0.  0.
        -12    1    1    2    0    0  0.16179512159E+02  0.78731295844E+01 -0.51880892964E+01  0.18726426613E+02  0.00000000000E+00 0.  1.
         11    1    3    3    0    0  0.11391131620E+02 -0.11421706254E+02 -0.42900410483E+01  0.16691845488E+02  0.51100000000E-03 0. -1.
        -11    1    3    3    0    0 -0.22985297111E+02 -0.28710988666E+01  0.27583842656E+02  0.36019931537E+02  0.51100000000E-03 0.  1.
        -12    1    3    3    0    0 -0.45853466677E+01  0.64196755359E+01 -0.18105712311E+02  0.19749796362E+02  0.00000000000E+00 0.  1.
</event>
<event>
 7    1  0.1884848E-013  0.7246156E+02  0.7816164E-02  0.1226708E+00
        -11   -1    0    0    0    0  0.00000000000E+00  0.00000000000E+00  0.45593999997E+02  0.45594000000E+02  0.51100000000E-03 0. -1.
         11   -1    0    0    0    0 -0.00000000000E+00 -0.00000000000E+00 -0.45593999997E+02  0.45594000000E+02  0.51100000000E-03 0.  1.
    9900012    2    1    2    0    0 -0.92113041721E+01  0.16139829041E+02  0.23103052042E+01  0.72461555699E+02  0.69999980987E+02 0.  0.
        -12    1    1    2    0    0  0.92113041721E+01 -0.16139829041E+02 -0.23103052042E+01  0.18726444301E+02  0.00000000000E+00 0.  1.
         11    1    3    3    0    0  0.33294144318E+01  0.22042416822E+02  0.35566171584E+01  0.22574380738E+02  0.51100000000E-03 0. -1.
        -11    1    3    3    0    0  0.45449963910E+01 -0.19607513366E+02  0.12813345399E+02  0.23859869932E+02  0.51100000000E-03 0.  1.
        -12    1    3    3    0    0 -0.17085714995E+02  0.13704925585E+02 -0.14059657353E+02  0.26027305029E+02  0.00000000000E+00 0.  1.
</event>
<event>
 7    1  0.1884848E-013  0.7246159E+02  0.7816164E-02  0.1226708E+00
        -11   -1    0    0    0    0  0.00000000000E+00  0.00000000000E+00  0.45593999997E+02  0.45594000000E+02  0.51100000000E-03 0.  1.
         11   -1    0    0    0    0 -0.00000000000E+00 -0.00000000000E+00 -0.45593999997E+02  0.45594000000E+02  0.51100000000E-03 0. -1.
    9900012    2    1    2    0    0 -0.11602741498E+02 -0.80309750041E+01 -0.12310898342E+02  0.72461591168E+02  0.70000027191E+02 0.  0.
        -12    1    1    2    0    0  0.11602741498E+02  0.80309750041E+01  0.12310898342E+02  0.18726408832E+02  0.00000000000E+00 0.  1.
         11    1    3    3    0    0  0.83663247360E+01  0.28494830874E+01 -0.71078808764E+01  0.11341821470E+02  0.51100000000E-03 0. -1.
        -11    1    3    3    0    0 -0.24677744513E+02 -0.28521822518E+02 -0.14771775778E+02  0.40505441534E+02  0.51100000000E-03 0.  1.
        -12    1    3    3    0    0  0.47086782790E+01  0.17641364427E+02  0.95687583128E+01  0.20614328163E+02  0.00000000000E+00 0.  1.
</event>
<event>
 7    1  0.1884848E-013  0.7246160E+02  0.7816164E-02  0.1226708E+00
        -11   -1    0    0    0    0  0.00000000000E+00  0.00000000000E+00  0.45593999997E+02  0.45594000000E+02  0.51100000000E-03 0. -1.
         11   -1    0    0    0    0 -0.00000000000E+00 -0.00000000000E+00 -0.45593999997E+02  0.45594000000E+02  0.51100000000E-03 0.  1.
    9900012    2    1    2    0    0  0.10721544288E+02  0.13781372019E+02  0.67675969101E+01  0.72461598996E+02  0.70000037389E+02 0.  0.
        -12    1    1    2    0    0 -0.10721544288E+02 -0.13781372019E+02 -0.67675969101E+01  0.18726401004E+02  0.00000000000E+00 0.  1.
         11    1    3    3    0    0 -0.20898581845E+01  0.58358814211E+01  0.12119619296E+01  0.63161595272E+01  0.51100000000E-03 0. -1.
        -11    1    3    3    0    0 -0.10937708031E+02 -0.69772760231E+01  0.27582852394E+02  0.30481626993E+02  0.51100000000E-03 0.  1.
        -12    1    3    3    0    0  0.23749110504E+02  0.14922766621E+02 -0.22027217413E+02  0.35663812476E+02  0.00000000000E+00 0.  1.
</event>
<event>
 7    1  0.1884848E-013  0.7246160E+02  0.7816164E-02  0.1226708E+00
        -11   -1    0    0    0    0  0.00000000000E+00  0.00000000000E+00  0.45593999997E+02  0.45594000000E+02  0.51100000000E-03 0.  1.
         11   -1    0    0    0    0 -0.00000000000E+00 -0.00000000000E+00 -0.45593999997E+02  0.45594000000E+02  0.51100000000E-03 0. -1.
    9900012    2    1    2    0    0 -0.14307364550E+01 -0.95284553160E+01 -0.16057383425E+02  0.72461600720E+02  0.70000039635E+02 0.  0.
        -12    1    1    2    0    0  0.14307364550E+01  0.95284553160E+01  0.16057383425E+02  0.18726399280E+02  0.00000000000E+00 0.  1.
         11    1    3    3    0    0  0.21726727651E+02  0.63524784650E+01  0.20156526654E+01  0.22725922049E+02  0.51100000000E-03 0.  1.
        -11    1    3    3    0    0 -0.29547378937E+02 -0.14746866977E+01 -0.16559487514E+02  0.33903376379E+02  0.51100000000E-03 0. -1.
         12    1    3    3    0    0  0.63899148311E+01 -0.14406247083E+02 -0.15135485771E+01  0.15832302292E+02  0.00000000000E+00 0. -1.
</event>
<event>
 7    1  0.1884848E-013  0.7246159E+02  0.7816164E-02  0.1226708E+00
        -11   -1    0    0    0    0  0.00000000000E+00  0.00000000000E+00  0.45593999997E+02  0.45594000000E+02  0.51100000000E-03 0.  1.
         11   -1    0    0    0    0 -0.00000000000E+00 -0.00000000000E+00 -0.45593999997E+02  0.45594000000E+02  0.51100000000E-03 0. -1.
    9900012    2    1    2    0    0  0.15439516228E+02  0.66842632808E+01 -0.82231523197E+01  0.72461594284E+02  0.70000031251E+02 0.  0.
        -12    1    1    2    0    0 -0.15439516228E+02 -0.66842632808E+01  0.82231523197E+01  0.18726405716E+02  0.00000000000E+00 0.  1.
         11    1    3    3    0    0  0.46496440516E+00  0.19614137829E+02  0.17669924824E+02  0.26403727733E+02  0.51100000000E-03 0. -1.
        -11    1    3    3    0    0  0.33069277886E+01 -0.69483813437E+01 -0.31034522862E+02  0.31974323828E+02  0.51100000000E-03 0.  1.
        -12    1    3    3    0    0  0.11667624035E+02 -0.59814932042E+01  0.51414457185E+01  0.14083542723E+02  0.00000000000E+00 0.  1.
</event>
<event>
 7    1  0.1884848E-013  0.7246157E+02  0.7816164E-02  0.1226708E+00
        -11   -1    0    0    0    0  0.00000000000E+00  0.00000000000E+00  0.45593999997E+02  0.45594000000E+02  0.51100000000E-03 0.  1.
         11   -1    0    0    0    0 -0.00000000000E+00 -0.00000000000E+00 -0.45593999997E+02  0.45594000000E+02  0.51100000000E-03 0. -1.
    9900012    2    1    2    0    0  0.17798239246E+02 -0.58094539051E+01  0.38992199622E+00  0.72461571774E+02  0.70000001928E+02 0.  0.
        -12    1    1    2    0    0 -0.17798239246E+02  0.58094539051E+01 -0.38992199622E+00  0.18726428226E+02  0.00000000000E+00 0.  1.
         11    1    3    3    0    0  0.50829544318E+01 -0.62482550378E+01  0.23126279957E+02  0.24488812582E+02  0.51100000000E-03 0.  1.
        -11    1    3    3    0    0 -0.34705735694E+00 -0.71572174482E+01 -0.30257222552E+02  0.31094142973E+02  0.51100000000E-03 0. -1.
         12    1    3    3    0    0  0.13062342171E+02  0.75960185808E+01  0.75208645911E+01  0.16878616219E+02  0.00000000000E+00 0. -1.
</event>
<event>
 7    1  0.1884848E-013  0.7246154E+02  0.7816164E-02  0.1226708E+00
        -11   -1    0    0    0    0  0.00000000000E+00  0.00000000000E+00  0.45593999997E+02  0.45594000000E+02  0.51100000000E-03 0. -1.
         11   -1    0    0    0    0 -0.00000000000E+00 -0.00000000000E+00 -0.45593999997E+02  0.45594000000E+02  0.51100000000E-03 0.  1.
    9900012    2    1    2    0    0  0.70503509845E+01 -0.42752557928E+01  0.16813532419E+02  0.72461544556E+02  0.69999966471E+02 0.  0.
        -12    1    1    2    0    0 -0.70503509845E+01  0.42752557928E+01 -0.16813532419E+02  0.18726455444E+02  0.00000000000E+00 0.  1.
         11    1    3    3    0    0  0.57755757413E+01 -0.13543659653E+02  0.40139766472E+02  0.42754986197E+02  0.51100000000E-03 0. -1.
        -11    1    3    3    0    0  0.74166631535E+01  0.27950265964E+01 -0.17034374260E+02  0.18788000764E+02  0.51100000000E-03 0.  1.
         12    1    3    3    0    0 -0.61418879102E+01  0.64733772641E+01 -0.62918597934E+01  0.10918557595E+02  0.00000000000E+00 0. -1.
</event>
<event>
 7    1  0.1884848E-013  0.7246158E+02  0.7816164E-02  0.1226708E+00
        -11   -1    0    0    0    0  0.00000000000E+00  0.00000000000E+00  0.45593999997E+02  0.45594000000E+02  0.51100000000E-03 0.  1.
         11   -1    0    0    0    0 -0.00000000000E+00 -0.00000000000E+00 -0.45593999997E+02  0.45594000000E+02  0.51100000000E-03 0. -1.
    9900012    2    1    2    0    0 -0.16910474888E+02  0.75310524930E+01 -0.28280231713E+01  0.72461584762E+02  0.70000018847E+02 0.  0.
        -12    1    1    2    0    0  0.16910474888E+02 -0.75310524930E+01  0.28280231713E+01  0.18726415238E+02  0.00000000000E+00 0.  1.
         11    1    3    3    0    0  0.82990289450E+01  0.63061431367E+01  0.36614990825E+00  0.10429544032E+02  0.51100000000E-03 0. -1.
        -11    1    3    3    0    0 -0.17824153005E+02 -0.21913757473E+02  0.14719002641E+02  0.31852193582E+02  0.51100000000E-03 0.  1.
        -12    1    3    3    0    0 -0.73853508283E+01  0.23138666830E+02 -0.17913175721E+02  0.30179847149E+02  0.00000000000E+00 0.  1.
</event>
<event>
 7    1  0.1884848E-013  0.7246155E+02  0.7816164E-02  0.1226708E+00
        -11   -1    0    0    0    0  0.00000000000E+00  0.00000000000E+00  0.45593999997E+02  0.45594000000E+02  0.51100000000E-03 0.  1.
         11   -1    0    0    0    0 -0.00000000000E+00 -0.00000000000E+00 -0.45593999997E+02  0.45594000000E+02  0.51100000000E-03 0. -1.
    9900012    2    1    2    0    0 -0.11884877419E+02 -0.83350367882E+01 -0.11830337036E+02  0.72461547482E+02  0.69999970283E+02 0.  0.
        -12    1    1    2    0    0  0.11884877419E+02  0.83350367882E+01  0.11830337036E+02  0.18726452518E+02  0.00000000000E+00 0.  1.
         11    1    3    3    0    0 -0.23109234416E+02 -0.39564504727E+01 -0.22511568827E+02  0.32503245176E+02  0.51100000000E-03 0. -1.
        -11    1    3    3    0    0  0.20519754546E+02 -0.13891672897E+02  0.40931376370E+01  0.25115586366E+02  0.51100000000E-03 0.  1.
         12    1    3    3    0    0 -0.92953975486E+01  0.95130865818E+01  0.65880941538E+01  0.14842715940E+02  0.00000000000E+00 0. -1.
</event>
<event>
 7    1  0.2514116E-013  0.7246157E+02  0.7816164E-02  0.1226708E+00
        -11   -1    0    0    0    0  0.00000000000E+00  0.00000000000E+00  0.45593999997E+02  0.45594000000E+02  0.51100000000E-03 0. -1.
         11   -1    0    0    0    0 -0.00000000000E+00 -0.00000000000E+00 -0.45593999997E+02  0.45594000000E+02  0.51100000000E-03 0.  1.
    9900012    2    1    2    0    0  0.70917128878E+01  0.14534340503E+01  0.17270622966E+02  0.72461567348E+02  0.69999996162E+02 0.  0.
        -12    1    1    2    0    0 -0.70917128878E+01 -0.14534340503E+01 -0.17270622966E+02  0.18726432652E+02  0.00000000000E+00 0.  1.
         11    1    3    3    0    0  0.22946954995E+02 -0.15787207515E+02 -0.60307073684E+01  0.28498563057E+02  0.51100000000E-03 0. -1.
        -11    1    3    3    0    0 -0.14417116201E+02  0.33379479657E+01 -0.21230880838E+01  0.14950004663E+02  0.51100000000E-03 0.  1.
         12    1    3    3    0    0 -0.14381259070E+01  0.13902693600E+02  0.25424418419E+02  0.29012999627E+02  0.00000000000E+00 0. -1.
</event>
<event>
 7    1  0.1884848E-013  0.7246156E+02  0.7816164E-02  0.1226708E+00
        -11   -1    0    0    0    0  0.00000000000E+00  0.00000000000E+00  0.45593999997E+02  0.45594000000E+02  0.51100000000E-03 0.  1.
         11   -1    0    0    0    0 -0.00000000000E+00 -0.00000000000E+00 -0.45593999997E+02  0.45594000000E+02  0.51100000000E-03 0. -1.
    9900012    2    1    2    0    0  0.98657495900E+01  0.12532156465E+02 -0.98128263163E+01  0.72461560911E+02  0.69999987777E+02 0.  0.
        -12    1    1    2    0    0 -0.98657495900E+01 -0.12532156465E+02  0.98128263163E+01  0.18726439089E+02  0.00000000000E+00 0.  1.
         11    1    3    3    0    0 -0.13862541344E+02 -0.68424272427E+01 -0.14557398651E+02  0.21234564248E+02  0.51100000000E-03 0. -1.
        -11    1    3    3    0    0  0.16070429318E+02  0.19620687282E+02  0.21212743689E+02  0.33063734861E+02  0.51100000000E-03 0.  1.
        -12    1    3    3    0    0  0.76578616157E+01 -0.24610357489E+00 -0.16468171355E+02  0.18163261801E+02  0.00000000000E+00 0.  1.
</event>
<event>
 7    1  0.1884848E-013  0.7246159E+02  0.7816164E-02  0.1226708E+00
        -11   -1    0    0    0    0  0.00000000000E+00  0.00000000000E+00  0.45593999997E+02  0.45594000000E+02  0.51100000000E-03 0.  1.
         11   -1    0    0    0    0 -0.00000000000E+00 -0.00000000000E+00 -0.45593999997E+02  0.45594000000E+02  0.51100000000E-03 0. -1.
    9900012    2    1    2    0    0 -0.10867990067E+02  0.13770192510E+02 -0.65534067872E+01  0.72461586826E+02  0.70000021535E+02 0.  0.
        -12    1    1    2    0    0  0.10867990067E+02 -0.13770192510E+02  0.65534067872E+01  0.18726413174E+02  0.00000000000E+00 0.  1.
         11    1    3    3    0    0 -0.10244812351E+02  0.14675215689E+02 -0.26218815918E+02  0.31744990850E+02  0.51100000000E-03 0. -1.
        -11    1    3    3    0    0 -0.17911068163E+01 -0.67939229333E+01  0.28878012498E+02  0.29720448492E+02  0.51100000000E-03 0.  1.
        -12    1    3    3    0    0  0.11679291002E+01  0.58888997537E+01 -0.92126033671E+01  0.10996147484E+02  0.00000000000E+00 0.  1.
</event>
<event>
 7    1  0.1884848E-013  0.7246161E+02  0.7816164E-02  0.1226708E+00
        -11   -1    0    0    0    0  0.00000000000E+00  0.00000000000E+00  0.45593999997E+02  0.45594000000E+02  0.51100000000E-03 0.  1.
         11   -1    0    0    0    0 -0.00000000000E+00 -0.00000000000E+00 -0.45593999997E+02  0.45594000000E+02  0.51100000000E-03 0. -1.
    9900012    2    1    2    0    0 -0.82680231136E+00 -0.14679361203E+02 -0.11597864050E+02  0.72461609587E+02  0.70000051186E+02 0.  0.
        -12    1    1    2    0    0  0.82680231136E+00  0.14679361203E+02  0.11597864050E+02  0.18726390413E+02  0.00000000000E+00 0.  1.
         11    1    3    3    0    0  0.14007972566E+02  0.10703100826E+02 -0.23787066419E+02  0.29607502289E+02  0.51100000000E-03 0. -1.
        -11    1    3    3    0    0  0.21975744137E+01 -0.17071853957E+01  0.13378143374E+02  0.13664499101E+02  0.51100000000E-03 0.  1.
         12    1    3    3    0    0 -0.17032349291E+02 -0.23675276632E+02 -0.11889410049E+01  0.29189608197E+02  0.00000000000E+00 0. -1.
</event>
<event>
 7    1  0.1884848E-013  0.7246164E+02  0.7816164E-02  0.1226708E+00
        -11   -1    0    0    0    0  0.00000000000E+00  0.00000000000E+00  0.45593999997E+02  0.45594000000E+02  0.51100000000E-03 0. -1.
         11   -1    0    0    0    0 -0.00000000000E+00 -0.00000000000E+00 -0.45593999997E+02  0.45594000000E+02  0.51100000000E-03 0.  1.
    9900012    2    1    2    0    0 -0.13250331281E+02 -0.93263927376E+01  0.93874309279E+01  0.72461635164E+02  0.70000084505E+02 0.  0.
        -12    1    1    2    0    0  0.13250331281E+02  0.93263927376E+01 -0.93874309279E+01  0.18726364836E+02  0.00000000000E+00 0.  1.
         11    1    3    3    0    0  0.18797530798E+02 -0.11332170026E+02 -0.14465744390E+02  0.26287316383E+02  0.51100000000E-03 0.  1.
        -11    1    3    3    0    0 -0.33034128451E+02  0.63680969534E+01  0.24550677798E+02  0.41647834060E+02  0.51100000000E-03 0. -1.
         12    1    3    3    0    0  0.98626637161E+00 -0.43623196651E+01 -0.69750248086E+00  0.45264847207E+01  0.00000000000E+00 0. -1.
</event>
<event>
 7    1  0.1884848E-013  0.7246157E+02  0.7816164E-02  0.1226708E+00
        -11   -1    0    0    0    0  0.00000000000E+00  0.00000000000E+00  0.45593999997E+02  0.45594000000E+02  0.51100000000E-03 0. -1.
         11   -1    0    0    0    0 -0.00000000000E+00 -0.00000000000E+00 -0.45593999997E+02  0.45594000000E+02  0.51100000000E-03 0.  1.
    9900012    2    1    2    0    0  0.18412225702E+02  0.33618616753E+01 -0.60573961726E+00  0.72461572425E+02  0.70000002775E+02 0.  0.
        -12    1    1    2    0    0 -0.18412225702E+02 -0.33618616753E+01  0.60573961726E+00  0.18726427575E+02  0.00000000000E+00 0.  1.
         11    1    3    3    0    0  0.88359631223E+01  0.34259382633E+02 -0.32227679929E+01  0.35526972521E+02  0.51100000000E-03 0. -1.
        -11    1    3    3    0    0  0.11766053193E+02 -0.13904222025E+02 -0.38571801421E+01  0.18618411231E+02  0.51100000000E-03 0.  1.
         12    1    3    3    0    0 -0.21897906129E+01 -0.16993298934E+02  0.64742085178E+01  0.18316188673E+02  0.00000000000E+00 0. -1.
</event>
<event>
 7    1  0.1884848E-013  0.7246150E+02  0.7816164E-02  0.1226708E+00
        -11   -1    0    0    0    0  0.00000000000E+00  0.00000000000E+00  0.45593999997E+02  0.45594000000E+02  0.51100000000E-03 0.  1.
         11   -1    0    0    0    0 -0.00000000000E+00 -0.00000000000E+00 -0.45593999997E+02  0.45594000000E+02  0.51100000000E-03 0. -1.
    9900012    2    1    2    0    0 -0.74627945842E+01 -0.11249970622E+02  0.12977924570E+02  0.72461503580E+02  0.69999913093E+02 0.  0.
        -12    1    1    2    0    0  0.74627945842E+01  0.11249970622E+02 -0.12977924570E+02  0.18726496420E+02  0.00000000000E+00 0.  1.
         11    1    3    3    0    0  0.97792537423E+01  0.14258842618E+02  0.30354226692E+02  0.34933185868E+02  0.51100000000E-03 0.  1.
        -11    1    3    3    0    0 -0.10071112645E+02 -0.22988132696E+02 -0.10252494782E+02  0.27110794977E+02  0.51100000000E-03 0. -1.
        -12    1    3    3    0    0 -0.71709356817E+01 -0.25206805436E+01 -0.71238073389E+01  0.10417522736E+02  0.00000000000E+00 0.  1.
</event>
<event>
 7    1  0.1884848E-013  0.7246159E+02  0.7816164E-02  0.1226708E+00
        -11   -1    0    0    0    0  0.00000000000E+00  0.00000000000E+00  0.45593999997E+02  0.45594000000E+02  0.51100000000E-03 0.  1.
         11   -1    0    0    0    0 -0.00000000000E+00 -0.00000000000E+00 -0.45593999997E+02  0.45594000000E+02  0.51100000000E-03 0. -1.
    9900012    2    1    2    0    0  0.15903931794E+02  0.93196907639E+00 -0.98425070957E+01  0.72461586601E+02  0.70000021242E+02 0.  0.
        -12    1    1    2    0    0 -0.15903931794E+02 -0.93196907639E+00  0.98425070957E+01  0.18726413399E+02  0.00000000000E+00 0.  1.
         11    1    3    3    0    0 -0.13763554304E+02  0.25952042433E+01 -0.20117418288E+02  0.24512874800E+02  0.51100000000E-03 0. -1.
        -11    1    3    3    0    0  0.33149393852E+02  0.20018172118E+01 -0.33864546691E+01  0.33381996051E+02  0.51100000000E-03 0.  1.
        -12    1    3    3    0    0 -0.34819077536E+01 -0.36650523787E+01  0.13661365861E+02  0.14566715750E+02  0.00000000000E+00 0.  1.
</event>
<event>
 7    1  0.1884848E-013  0.7246151E+02  0.7816164E-02  0.1226708E+00
        -11   -1    0    0    0    0  0.00000000000E+00  0.00000000000E+00  0.45593999997E+02  0.45594000000E+02  0.51100000000E-03 0.  1.
         11   -1    0    0    0    0 -0.00000000000E+00 -0.00000000000E+00 -0.45593999997E+02  0.45594000000E+02  0.51100000000E-03 0. -1.
    9900012    2    1    2    0    0 -0.95263226732E+01 -0.80678121820E+01 -0.13958544246E+02  0.72461511420E+02  0.69999923305E+02 0.  0.
        -12    1    1    2    0    0  0.95263226732E+01  0.80678121820E+01  0.13958544246E+02  0.18726488580E+02  0.00000000000E+00 0.  1.
         11    1    3    3    0    0  0.12658791977E+02 -0.25469347516E+02  0.96763151137E+01  0.30042698808E+02  0.51100000000E-03 0. -1.
        -11    1    3    3    0    0 -0.37178227780E+01  0.14504558850E+02 -0.16827250464E+02  0.22524670743E+02  0.51100000000E-03 0.  1.
         12    1    3    3    0    0 -0.18467291872E+02  0.28969764836E+01 -0.68076088953E+01  0.19894141869E+02  0.00000000000E+00 0. -1.
</event>
<event>
 7    1  0.1884848E-013  0.7246215E+02  0.7816164E-02  0.1226706E+00
        -11   -1    0    0    0    0  0.00000000000E+00  0.00000000000E+00  0.45593999997E+02  0.45594000000E+02  0.51100000000E-03 0. -1.
         11   -1    0    0    0    0 -0.00000000000E+00 -0.00000000000E+00 -0.45593999997E+02  0.45594000000E+02  0.51100000000E-03 0.  1.
    9900012    2    1    2    0    0  0.50129201463E+01  0.50075739205E+01  0.17333560920E+02  0.72462148908E+02  0.70000753748E+02 0.  0.
        -12    1    1    2    0    0 -0.50129201463E+01 -0.50075739205E+01 -0.17333560920E+02  0.18725851092E+02  0.00000000000E+00 0.  1.
         11    1    3    3    0    0 -0.16864011359E+02  0.13972784592E+02  0.98868523667E+01  0.24028804347E+02  0.51100000000E-03 0. -1.
        -11    1    3    3    0    0  0.20253421010E+01 -0.11409646452E+02 -0.14616933007E+02  0.18653063383E+02  0.51100000000E-03 0.  1.
        -12    1    3    3    0    0  0.19851589404E+02  0.24444357812E+01  0.22063641560E+02  0.29780281178E+02  0.00000000000E+00 0.  1.
</event>
<event>
 7    1  0.1884848E-013  0.7246157E+02  0.7816164E-02  0.1226708E+00
        -11   -1    0    0    0    0  0.00000000000E+00  0.00000000000E+00  0.45593999997E+02  0.45594000000E+02  0.51100000000E-03 0.  1.
         11   -1    0    0    0    0 -0.00000000000E+00 -0.00000000000E+00 -0.45593999997E+02  0.45594000000E+02  0.51100000000E-03 0. -1.
    9900012    2    1    2    0    0  0.32813230739E+01  0.83421783027E+01 -0.16441420293E+02  0.72461566244E+02  0.69999994724E+02 0.  0.
        -12    1    1    2    0    0 -0.32813230739E+01 -0.83421783027E+01  0.16441420293E+02  0.18726433756E+02  0.00000000000E+00 0.  1.
         11    1    3    3    0    0  0.92473580895E+01  0.14603590235E+02 -0.25886792238E+02  0.31127230716E+02  0.51100000000E-03 0. -1.
        -11    1    3    3    0    0 -0.11283660697E+02 -0.20685970174E+02  0.10761779669E+02  0.25904560654E+02  0.51100000000E-03 0.  1.
        -12    1    3    3    0    0  0.53176256817E+01  0.14424558243E+02 -0.13164077238E+01  0.15429774874E+02  0.00000000000E+00 0.  1.
</event>
<event>
 7    1  0.1884848E-013  0.7246157E+02  0.7816164E-02  0.1226708E+00
        -11   -1    0    0    0    0  0.00000000000E+00  0.00000000000E+00  0.45593999997E+02  0.45594000000E+02  0.51100000000E-03 0. -1.
         11   -1    0    0    0    0 -0.00000000000E+00 -0.00000000000E+00 -0.45593999997E+02  0.45594000000E+02  0.51100000000E-03 0.  1.
    9900012    2    1    2    0    0  0.60995534152E+01  0.14250875651E+02  0.10506535083E+02  0.72461567128E+02  0.69999995875E+02 0.  0.
        -12    1    1    2    0    0 -0.60995534152E+01 -0.14250875651E+02 -0.10506535083E+02  0.18726432872E+02  0.00000000000E+00 0.  1.
         11    1    3    3    0    0  0.23768982178E+02  0.15260132610E+02  0.12166227603E+02  0.30754727367E+02  0.51100000000E-03 0. -1.
        -11    1    3    3    0    0 -0.12670400179E+02 -0.61916018165E+00  0.17661762211E+02  0.21745349956E+02  0.51100000000E-03 0.  1.
         12    1    3    3    0    0 -0.49990285835E+01 -0.39009677824E+00 -0.19321454732E+02  0.19961489805E+02  0.00000000000E+00 0. -1.
</event>
<event>
 7    1  0.1884848E-013  0.7246155E+02  0.7816164E-02  0.1226708E+00
        -11   -1    0    0    0    0  0.00000000000E+00  0.00000000000E+00  0.45593999997E+02  0.45594000000E+02  0.51100000000E-03 0.  1.
         11   -1    0    0    0    0 -0.00000000000E+00 -0.00000000000E+00 -0.45593999997E+02  0.45594000000E+02  0.51100000000E-03 0. -1.
    9900012    2    1    2    0    0 -0.83208835761E+01 -0.12465730123E+02  0.11227121340E+02  0.72461553873E+02  0.69999978608E+02 0.  0.
        -12    1    1    2    0    0  0.83208835761E+01  0.12465730123E+02 -0.11227121340E+02  0.18726446127E+02  0.00000000000E+00 0.  1.
         11    1    3    3    0    0 -0.26574431788E+02 -0.21522885844E+02 -0.10244689007E+01  0.34212345384E+02  0.51100000000E-03 0. -1.
        -11    1    3    3    0    0  0.32154962222E+01  0.17837115924E+02  0.99729392074E+01  0.20687233676E+02  0.51100000000E-03 0.  1.
         12    1    3    3    0    0  0.15038051989E+02 -0.87799602028E+01  0.22786510334E+01  0.17561974813E+02  0.00000000000E+00 0. -1.
</event>
<event>
 7    1  0.2288494E-013  0.7246157E+02  0.7816164E-02  0.1226708E+00
        -11   -1    0    0    0    0  0.00000000000E+00  0.00000000000E+00  0.45593999997E+02  0.45594000000E+02  0.51100000000E-03 0.  1.
         11   -1    0    0    0    0 -0.00000000000E+00 -0.00000000000E+00 -0.45593999997E+02  0.45594000000E+02  0.51100000000E-03 0. -1.
    9900012    2    1    2    0    0  0.97261137933E+01  0.15271749764E+02  0.47807504279E+01  0.72461569346E+02  0.69999998765E+02 0.  0.
        -12    1    1    2    0    0 -0.97261137933E+01 -0.15271749764E+02 -0.47807504279E+01  0.18726430654E+02  0.00000000000E+00 0.  1.
         11    1    3    3    0    0 -0.16172388492E+02  0.59709908502E+01 -0.11712635384E+02  0.20841897926E+02  0.51100000000E-03 0. -1.
        -11    1    3    3    0    0  0.22049780507E+02  0.66394698547E+01  0.29715673528E+02  0.37593837711E+02  0.51100000000E-03 0.  1.
         12    1    3    3    0    0  0.38487217787E+01  0.26612890595E+01 -0.13222287716E+02  0.14025833709E+02  0.00000000000E+00 0. -1.
</event>
<event>
 7    1  0.1884848E-013  0.7246158E+02  0.7816164E-02  0.1226708E+00
        -11   -1    0    0    0    0  0.00000000000E+00  0.00000000000E+00  0.45593999997E+02  0.45594000000E+02  0.51100000000E-03 0.  1.
         11   -1    0    0    0    0 -0.00000000000E+00 -0.00000000000E+00 -0.45593999997E+02  0.45594000000E+02  0.51100000000E-03 0. -1.
    9900012    2    1    2    0    0  0.13600208090E+02  0.99281065395E+01 -0.81942554336E+01  0.72461580650E+02  0.70000013490E+02 0.  0.
        -12    1    1    2    0    0 -0.13600208090E+02 -0.99281065395E+01  0.81942554336E+01  0.18726419350E+02  0.00000000000E+00 0.  1.
         11    1    3    3    0    0 -0.24792444899E+02  0.10167906406E+01 -0.82072361723E+01  0.26135376659E+02  0.51100000000E-03 0. -1.
        -11    1    3    3    0    0  0.11445180668E+01  0.59389735218E+01  0.59577106606E+01  0.84897376093E+01  0.51100000000E-03 0.  1.
         12    1    3    3    0    0  0.37248134922E+02  0.29723423771E+01 -0.59447299219E+01  0.37836466382E+02  0.00000000000E+00 0. -1.
</event>
<event>
 7    1  0.1884848E-013  0.7246155E+02  0.7816164E-02  0.1226708E+00
        -11   -1    0    0    0    0  0.00000000000E+00  0.00000000000E+00  0.45593999997E+02  0.45594000000E+02  0.51100000000E-03 0.  1.
         11   -1    0    0    0    0 -0.00000000000E+00 -0.00000000000E+00 -0.45593999997E+02  0.45594000000E+02  0.51100000000E-03 0. -1.
    9900012    2    1    2    0    0  0.13121388729E+02 -0.28449366155E+01 -0.13054328759E+02  0.72461547964E+02  0.69999970910E+02 0.  0.
        -12    1    1    2    0    0 -0.13121388729E+02  0.28449366155E+01  0.13054328759E+02  0.18726452036E+02  0.00000000000E+00 0.  1.
         11    1    3    3    0    0 -0.17909428433E+02  0.20818167380E+02 -0.64429884441E+01  0.28207371735E+02  0.51100000000E-03 0.  1.
        -11    1    3    3    0    0  0.16055183072E+02 -0.21082687861E+02 -0.10602816666E+02  0.28542395702E+02  0.51100000000E-03 0. -1.
        -12    1    3    3    0    0  0.14975634091E+02 -0.25804161344E+01  0.39914763514E+01  0.15711780526E+02  0.00000000000E+00 0.  1.
</event>
<event>
 7    1  0.1884848E-013  0.7246154E+02  0.7816164E-02  0.1226708E+00
        -11   -1    0    0    0    0  0.00000000000E+00  0.00000000000E+00  0.45593999997E+02  0.45594000000E+02  0.51100000000E-03 0.  1.
         11   -1    0    0    0    0 -0.00000000000E+00 -0.00000000000E+00 -0.45593999997E+02  0.45594000000E+02  0.51100000000E-03 0. -1.
    9900012    2    1    2    0    0 -0.15794600819E+02 -0.63382130534E+01  0.78126669436E+01  0.72461544796E+02  0.69999966783E+02 0.  0.
        -12    1    1    2    0    0  0.15794600819E+02  0.63382130534E+01 -0.78126669436E+01  0.18726455204E+02  0.00000000000E+00 0.  1.
         11    1    3    3    0    0 -0.14937363098E+02 -0.25753332286E+02  0.17745688112E+02  0.34659318905E+02  0.51100000000E-03 0. -1.
        -11    1    3    3    0    0  0.13040212302E+02  0.21679214443E+01  0.68947939328E+00  0.13237159905E+02  0.51100000000E-03 0.  1.
         12    1    3    3    0    0 -0.13897450023E+02  0.17247197788E+02 -0.10622500562E+02  0.24565065985E+02  0.00000000000E+00 0. -1.
</event>
<event>
 8    1  0.1884848E-013  0.7246159E+02  0.7816164E-02  0.1226708E+00
        -11   -1    0    0    0    0  0.00000000000E+00  0.00000000000E+00  0.45593999997E+02  0.45594000000E+02  0.51100000000E-03 0. -1.
         11   -1    0    0    0    0 -0.00000000000E+00 -0.00000000000E+00 -0.45593999997E+02  0.45594000000E+02  0.51100000000E-03 0.  1.
    9900012    2    1    2    0    0  0.60904752918E+01  0.10919633116E+02 -0.13940806691E+02  0.72461591699E+02  0.70000027883E+02 0.  0.
        -24    2    3    3    0    0  0.17349454412E+02  0.13770664559E+02 -0.15909321624E+02  0.60681606876E+02  0.54208081756E+02 0.  0.
        -12    1    1    2    0    0 -0.60904752918E+01 -0.10919633116E+02  0.13940806691E+02  0.18726408301E+02  0.00000000000E+00 0.  1.
         11    1    4    4    0    0  0.32369861269E+02 -0.66353052852E+01 -0.66548938865E+01  0.33706420867E+02  0.51100000000E-03 0. -1.
        -11    1    3    3    0    0 -0.11258979120E+02 -0.28510314431E+01  0.19685149338E+01  0.11779984823E+02  0.51100000000E-03 0.  1.
        -12    1    4    4    0    0 -0.15020406857E+02  0.20405969845E+02 -0.92544277380E+01  0.26975186009E+02  0.00000000000E+00 0.  1.
</event>
<event>
 7    1  0.1884848E-013  0.7246153E+02  0.7816164E-02  0.1226708E+00
        -11   -1    0    0    0    0  0.00000000000E+00  0.00000000000E+00  0.45593999997E+02  0.45594000000E+02  0.51100000000E-03 0.  1.
         11   -1    0    0    0    0 -0.00000000000E+00 -0.00000000000E+00 -0.45593999997E+02  0.45594000000E+02  0.51100000000E-03 0. -1.
    9900012    2    1    2    0    0 -0.66733024573E+01  0.17477148143E+02  0.83483031435E+00  0.72461531711E+02  0.69999949738E+02 0.  0.
        -12    1    1    2    0    0  0.66733024573E+01 -0.17477148143E+02 -0.83483031435E+00  0.18726468289E+02  0.00000000000E+00 0.  1.
         11    1    3    3    0    0 -0.18447960465E+02  0.99624275852E+01  0.84833158513E+01  0.22617335316E+02  0.51100000000E-03 0. -1.
        -11    1    3    3    0    0  0.21181143404E+02 -0.12890115416E+02 -0.11002569168E+02  0.27126600227E+02  0.51100000000E-03 0.  1.
        -12    1    3    3    0    0 -0.94064853959E+01  0.20404835974E+02  0.33540836307E+01  0.22717596168E+02  0.00000000000E+00 0.  1.
</event>
<event>
 7    1  0.1884848E-013  0.7246165E+02  0.7816164E-02  0.1226708E+00
        -11   -1    0    0    0    0  0.00000000000E+00  0.00000000000E+00  0.45593999997E+02  0.45594000000E+02  0.51100000000E-03 0.  1.
         11   -1    0    0    0    0 -0.00000000000E+00 -0.00000000000E+00 -0.45593999997E+02  0.45594000000E+02  0.51100000000E-03 0. -1.
    9900012    2    1    2    0    0  0.11783181452E-01 -0.11359127910E+02  0.14887784237E+02  0.72461653714E+02  0.70000108669E+02 0.  0.
        -12    1    1    2    0    0 -0.11783181452E-01  0.11359127910E+02 -0.14887784237E+02  0.18726346286E+02  0.00000000000E+00 0.  1.
         11    1    3    3    0    0 -0.16543394103E+02 -0.10255149805E+02 -0.12032610324E+02  0.22883087586E+02  0.51100000000E-03 0. -1.
        -11    1    3    3    0    0  0.26165268601E+01 -0.68997508488E+01  0.32618927682E+02  0.33443193896E+02  0.51100000000E-03 0.  1.
        -12    1    3    3    0    0  0.13938650425E+02  0.57957727439E+01 -0.56985331204E+01  0.16135372232E+02  0.00000000000E+00 0.  1.
</event>
<event>
 7    1  0.3471206E-013  0.7246159E+02  0.7816164E-02  0.1226708E+00
        -11   -1    0    0    0    0  0.00000000000E+00  0.00000000000E+00  0.45593999997E+02  0.45594000000E+02  0.51100000000E-03 0. -1.
         11   -1    0    0    0    0 -0.00000000000E+00 -0.00000000000E+00 -0.45593999997E+02  0.45594000000E+02  0.51100000000E-03 0.  1.
    9900012    2    1    2    0    0 -0.11293460521E+02  0.70966651997E+00  0.14920875700E+02  0.72461590606E+02  0.70000026460E+02 0.  0.
        -12    1    1    2    0    0  0.11293460521E+02 -0.70966651997E+00 -0.14920875700E+02  0.18726409394E+02  0.00000000000E+00 0.  1.
         11    1    3    3    0    0 -0.12504233597E+02  0.81865437415E+01  0.31007811161E+02  0.34421791202E+02  0.51100000000E-03 0. -1.
        -11    1    3    3    0    0  0.90857067294E+01 -0.17646525188E+02 -0.37143102479E+01  0.20192721928E+02  0.51100000000E-03 0.  1.
        -12    1    3    3    0    0 -0.78749336540E+01  0.10169647966E+02 -0.12372625212E+02  0.17847077477E+02  0.00000000000E+00 0.  1.
</event>
<event>
 7    1  0.1884848E-013  0.7246151E+02  0.7816164E-02  0.1226708E+00
        -11   -1    0    0    0    0  0.00000000000E+00  0.00000000000E+00  0.45593999997E+02  0.45594000000E+02  0.51100000000E-03 0. -1.
         11   -1    0    0    0    0 -0.00000000000E+00 -0.00000000000E+00 -0.45593999997E+02  0.45594000000E+02  0.51100000000E-03 0.  1.
    9900012    2    1    2    0    0  0.49885633760E+01  0.10555790496E+02  0.14641407294E+02  0.72461513808E+02  0.69999926416E+02 0.  0.
        -12    1    1    2    0    0 -0.49885633760E+01 -0.10555790496E+02 -0.14641407294E+02  0.18726486192E+02  0.00000000000E+00 0.  1.
         11    1    3    3    0    0  0.23740995372E+02  0.59241221924E+01  0.91742312234E+01  0.26132290444E+02  0.51100000000E-03 0. -1.
        -11    1    3    3    0    0 -0.14495750460E+02 -0.13325753499E+02  0.15739597449E+02  0.25207884001E+02  0.51100000000E-03 0.  1.
         12    1    3    3    0    0 -0.42566815367E+01  0.17957421803E+02 -0.10272421378E+02  0.21121339363E+02  0.00000000000E+00 0. -1.
</event>
<event>
 7    1  0.1884848E-013  0.7246160E+02  0.7816164E-02  0.1226708E+00
        -11   -1    0    0    0    0  0.00000000000E+00  0.00000000000E+00  0.45593999997E+02  0.45594000000E+02  0.51100000000E-03 0.  1.
         11   -1    0    0    0    0 -0.00000000000E+00 -0.00000000000E+00 -0.45593999997E+02  0.45594000000E+02  0.51100000000E-03 0. -1.
    9900012    2    1    2    0    0  0.14116062550E+02  0.11243691240E+02 -0.49994362829E+01  0.72461596775E+02  0.70000034496E+02 0.  0.
        -12    1    1    2    0    0 -0.14116062550E+02 -0.11243691240E+02  0.49994362829E+01  0.18726403225E+02  0.00000000000E+00 0.  1.
         11    1    3    3    0    0  0.21274067653E+02 -0.14985892002E+02 -0.81730803045E+01  0.27275669662E+02  0.51100000000E-03 0.  1.
        -11    1    3    3    0    0 -0.13690603429E+02  0.27593443961E+02  0.12895930887E+02  0.33393649180E+02  0.51100000000E-03 0. -1.
         12    1    3    3    0    0  0.65325983263E+01 -0.13638607189E+01 -0.97222868651E+01  0.11792277933E+02  0.00000000000E+00 0. -1.
</event>
<event>
 7    1  0.1884848E-013  0.7246158E+02  0.7816164E-02  0.1226708E+00
        -11   -1    0    0    0    0  0.00000000000E+00  0.00000000000E+00  0.45593999997E+02  0.45594000000E+02  0.51100000000E-03 0. -1.
         11   -1    0    0    0    0 -0.00000000000E+00 -0.00000000000E+00 -0.45593999997E+02  0.45594000000E+02  0.51100000000E-03 0.  1.
    9900012    2    1    2    0    0 -0.30199567388E+01  0.88120068578E+01  0.16245218693E+02  0.72461581924E+02  0.70000015150E+02 0.  0.
        -12    1    1    2    0    0  0.30199567388E+01 -0.88120068578E+01 -0.16245218693E+02  0.18726418076E+02  0.00000000000E+00 0.  1.
         11    1    3    3    0    0  0.31435843118E+02  0.19947938259E+01  0.12843181421E+02  0.34016742116E+02  0.51100000000E-03 0.  1.
        -11    1    3    3    0    0 -0.17608224720E+02  0.84922177095E+01 -0.40211054859E+01  0.19958372404E+02  0.51100000000E-03 0. -1.
         12    1    3    3    0    0 -0.16847575137E+02 -0.16750046776E+01  0.74231427582E+01  0.18486467404E+02  0.00000000000E+00 0. -1.
</event>
<event>
 7    1  0.1884848E-013  0.7246157E+02  0.7816164E-02  0.1226708E+00
        -11   -1    0    0    0    0  0.00000000000E+00  0.00000000000E+00  0.45593999997E+02  0.45594000000E+02  0.51100000000E-03 0.  1.
         11   -1    0    0    0    0 -0.00000000000E+00 -0.00000000000E+00 -0.45593999997E+02  0.45594000000E+02  0.51100000000E-03 0. -1.
    9900012    2    1    2    0    0 -0.77267782943E+01 -0.15667020883E+02 -0.67468949578E+01  0.72461568473E+02  0.69999997628E+02 0.  0.
        -12    1    1    2    0    0  0.77267782943E+01  0.15667020883E+02  0.67468949578E+01  0.18726431527E+02  0.00000000000E+00 0.  1.
         11    1    3    3    0    0 -0.21024098078E+02  0.13355849181E+02 -0.15606642753E+02  0.29393174474E+02  0.51100000000E-03 0. -1.
        -11    1    3    3    0    0  0.52116230850E+01 -0.32699614465E+02  0.54695881851E+01  0.33561021982E+02  0.51100000000E-03 0.  1.
         12    1    3    3    0    0  0.80856966990E+01  0.36767444008E+01  0.33901596101E+01  0.95073720175E+01  0.00000000000E+00 0. -1.
</event>
<event>
 7    1  0.1884848E-013  0.7246157E+02  0.7816164E-02  0.1226708E+00
        -11   -1    0    0    0    0  0.00000000000E+00  0.00000000000E+00  0.45593999997E+02  0.45594000000E+02  0.51100000000E-03 0.  1.
         11   -1    0    0    0    0 -0.00000000000E+00 -0.00000000000E+00 -0.45593999997E+02  0.45594000000E+02  0.51100000000E-03 0. -1.
    9900012    2    1    2    0    0 -0.10244879816E+02  0.52839446592E+01 -0.14758104714E+02  0.72461567121E+02  0.69999995866E+02 0.  0.
        -12    1    1    2    0    0  0.10244879816E+02 -0.52839446592E+01  0.14758104714E+02  0.18726432879E+02  0.00000000000E+00 0.  1.
         11    1    3    3    0    0 -0.28857003329E+01 -0.76101045016E+01  0.24770100861E+02  0.26072952534E+02  0.51100000000E-03 0.  1.
        -11    1    3    3    0    0 -0.82850858177E+01  0.17327680802E+01 -0.31477478907E+02  0.32595656319E+02  0.51100000000E-03 0. -1.
        -12    1    3    3    0    0  0.92590633440E+00  0.11161281081E+02 -0.80507266682E+01  0.13792958268E+02  0.00000000000E+00 0.  1.
</event>
<event>
 7    1  0.1884848E-013  0.7246165E+02  0.7816164E-02  0.1226708E+00
        -11   -1    0    0    0    0  0.00000000000E+00  0.00000000000E+00  0.45593999997E+02  0.45594000000E+02  0.51100000000E-03 0.  1.
         11   -1    0    0    0    0 -0.00000000000E+00 -0.00000000000E+00 -0.45593999997E+02  0.45594000000E+02  0.51100000000E-03 0. -1.
    9900012    2    1    2    0    0 -0.17611618474E+02 -0.59901801277E+01 -0.21505053895E+01  0.72461653943E+02  0.70000108968E+02 0.  0.
        -12    1    1    2    0    0  0.17611618474E+02  0.59901801277E+01  0.21505053895E+01  0.18726346057E+02  0.00000000000E+00 0.  1.
         11    1    3    3    0    0 -0.20164967176E+02 -0.18988413348E+02 -0.79519345926E+01  0.28816991632E+02  0.51100000000E-03 0. -1.
        -11    1    3    3    0    0  0.62700656455E+01  0.26902746577E+02  0.87032556067E+01  0.28962357553E+02  0.51100000000E-03 0.  1.
        -12    1    3    3    0    0 -0.37167169432E+01 -0.13904513357E+02 -0.29018264036E+01  0.14682304758E+02  0.00000000000E+00 0.  1.
</event>
<event>
 7    1  0.1884848E-013  0.7246156E+02  0.7816164E-02  0.1226708E+00
        -11   -1    0    0    0    0  0.00000000000E+00  0.00000000000E+00  0.45593999997E+02  0.45594000000E+02  0.51100000000E-03 0.  1.
         11   -1    0    0    0    0 -0.00000000000E+00 -0.00000000000E+00 -0.45593999997E+02  0.45594000000E+02  0.51100000000E-03 0. -1.
    9900012    2    1    2    0    0  0.13887083277E+02  0.36734861555E+01 -0.12013904476E+02  0.72461561918E+02  0.69999989088E+02 0.  0.
        -12    1    1    2    0    0 -0.13887083277E+02 -0.36734861555E+01  0.12013904476E+02  0.18726438082E+02  0.00000000000E+00 0.  1.
         11    1    3    3    0    0  0.78799700525E+01  0.15828698862E+01 -0.18343507149E+02  0.20027073173E+02  0.51100000000E-03 0. -1.
        -11    1    3    3    0    0  0.58051829684E+01 -0.24451782601E+02  0.62257693510E+01  0.25891118669E+02  0.51100000000E-03 0.  1.
        -12    1    3    3    0    0  0.20193025593E+00  0.26542398870E+02  0.10383332156E+00  0.26543370076E+02  0.00000000000E+00 0.  1.
</event>
<event>
 7    1  0.1884848E-013  0.7246153E+02  0.7816164E-02  0.1226708E+00
        -11   -1    0    0    0    0  0.00000000000E+00  0.00000000000E+00  0.45593999997E+02  0.45594000000E+02  0.51100000000E-03 0.  1.
         11   -1    0    0    0    0 -0.00000000000E+00 -0.00000000000E+00 -0.45593999997E+02  0.45594000000E+02  0.51100000000E-03 0. -1.
    9900012    2    1    2    0    0  0.16095657169E+02  0.92708820402E+01 -0.23793258707E+01  0.72461531430E+02  0.69999949371E+02 0.  0.
        -12    1    1    2    0    0 -0.16095657169E+02 -0.92708820402E+01  0.23793258707E+01  0.18726468570E+02  0.00000000000E+00 0.  1.
         11    1    3    3    0    0 -0.79440949727E+01 -0.15954383929E+02 -0.36658614644E+01  0.18195866344E+02  0.51100000000E-03 0. -1.
        -11    1    3    3    0    0  0.18686101410E+02  0.91000148810E+01  0.20101377387E+02  0.28914460567E+02  0.51100000000E-03 0.  1.
         12    1    3    3    0    0  0.53536507320E+01  0.16125251088E+02 -0.18814841794E+02  0.25351204518E+02  0.00000000000E+00 0. -1.
</event>
<event>
 7    1  0.1884848E-013  0.7246154E+02  0.7816164E-02  0.1226708E+00
        -11   -1    0    0    0    0  0.00000000000E+00  0.00000000000E+00  0.45593999997E+02  0.45594000000E+02  0.51100000000E-03 0.  1.
         11   -1    0    0    0    0 -0.00000000000E+00 -0.00000000000E+00 -0.45593999997E+02  0.45594000000E+02  0.51100000000E-03 0. -1.
    9900012    2    1    2    0    0 -0.48409563817E-02  0.16633114619E+01 -0.18652448061E+02  0.72461536182E+02  0.69999955562E+02 0.  0.
        -12    1    1    2    0    0  0.48409563817E-02 -0.16633114619E+01  0.18652448061E+02  0.18726463818E+02  0.00000000000E+00 0.  1.
         11    1    3    3    0    0  0.11006621737E+02  0.12875506535E+02 -0.35262256905E+01  0.17301984235E+02  0.51100000000E-03 0. -1.
        -11    1    3    3    0    0 -0.54003840785E+01 -0.30537100583E+02 -0.18795692059E+01  0.31067852209E+02  0.51100000000E-03 0.  1.
        -12    1    3    3    0    0 -0.56110786154E+01  0.19324905510E+02 -0.13246653165E+02  0.24091699738E+02  0.00000000000E+00 0.  1.
</event>
<event>
 7    1  0.1884848E-013  0.7246149E+02  0.7816164E-02  0.1226708E+00
        -11   -1    0    0    0    0  0.00000000000E+00  0.00000000000E+00  0.45593999997E+02  0.45594000000E+02  0.51100000000E-03 0. -1.
         11   -1    0    0    0    0 -0.00000000000E+00 -0.00000000000E+00 -0.45593999997E+02  0.45594000000E+02  0.51100000000E-03 0.  1.
    9900012    2    1    2    0    0  0.12769921189E+02 -0.82114010326E+01  0.10962862079E+02  0.72461485667E+02  0.69999889757E+02 0.  0.
        -12    1    1    2    0    0 -0.12769921189E+02  0.82114010326E+01 -0.10962862079E+02  0.18726514333E+02  0.00000000000E+00 0.  1.
         11    1    3    3    0    0  0.38013944305E+01  0.29633791029E+01  0.24824038087E+02  0.25287646836E+02  0.51100000000E-03 0. -1.
        -11    1    3    3    0    0  0.81257113599E+01  0.29763143190E+01 -0.26688054337E+02  0.28055977555E+02  0.51100000000E-03 0.  1.
        -12    1    3    3    0    0  0.84281539884E+00 -0.14151094455E+02  0.12826878330E+02  0.19117861275E+02  0.00000000000E+00 0.  1.
</event>
<event>
 7    1  0.1884848E-013  0.7246154E+02  0.7816164E-02  0.1226708E+00
        -11   -1    0    0    0    0  0.00000000000E+00  0.00000000000E+00  0.45593999997E+02  0.45594000000E+02  0.51100000000E-03 0.  1.
         11   -1    0    0    0    0 -0.00000000000E+00 -0.00000000000E+00 -0.45593999997E+02  0.45594000000E+02  0.51100000000E-03 0. -1.
    9900012    2    1    2    0    0  0.14816871907E+02 -0.67194512485E+01 -0.92730637989E+01  0.72461536629E+02  0.69999956144E+02 0.  0.
        -12    1    1    2    0    0 -0.14816871907E+02  0.67194512485E+01  0.92730637989E+01  0.18726463371E+02  0.00000000000E+00 0.  1.
         11    1    3    3    0    0  0.51578428216E+01 -0.32156624919E+02 -0.11252332197E+02  0.34456738802E+02  0.51100000000E-03 0. -1.
        -11    1    3    3    0    0  0.45080426756E+01  0.18871509036E+02  0.13602784710E+02  0.23695823560E+02  0.51100000000E-03 0.  1.
         12    1    3    3    0    0  0.51509864094E+01  0.65656646348E+01 -0.11623516313E+02  0.14308974266E+02  0.00000000000E+00 0. -1.
</event>
<event>
 7    1  0.1884848E-013  0.7246155E+02  0.7816164E-02  0.1226708E+00
        -11   -1    0    0    0    0  0.00000000000E+00  0.00000000000E+00  0.45593999997E+02  0.45594000000E+02  0.51100000000E-03 0.  1.
         11   -1    0    0    0    0 -0.00000000000E+00 -0.00000000000E+00 -0.45593999997E+02  0.45594000000E+02  0.51100000000E-03 0. -1.
    9900012    2    1    2    0    0 -0.43656710948E+01  0.98184564462E-01 -0.18210194493E+02  0.72461550582E+02  0.69999974322E+02 0.  0.
        -12    1    1    2    0    0  0.43656710948E+01 -0.98184564462E-01  0.18210194493E+02  0.18726449418E+02  0.00000000000E+00 0.  1.
         11    1    3    3    0    0 -0.22201843364E+02  0.15621122015E+01 -0.34563931543E+02  0.41109942924E+02  0.51100000000E-03 0. -1.
        -11    1    3    3    0    0  0.32016129918E+01 -0.23925258084E+01  0.16201097032E+02  0.16686822669E+02  0.51100000000E-03 0.  1.
        -12    1    3    3    0    0  0.14634559277E+02  0.92859817139E+00  0.15264001821E+00  0.14664784989E+02  0.00000000000E+00 0.  1.
</event>
<event>
 7    1  0.1884848E-013  0.7246142E+02  0.7816164E-02  0.1226708E+00
        -11   -1    0    0    0    0  0.00000000000E+00  0.00000000000E+00  0.45593999997E+02  0.45594000000E+02  0.51100000000E-03 0.  1.
         11   -1    0    0    0    0 -0.00000000000E+00 -0.00000000000E+00 -0.45593999997E+02  0.45594000000E+02  0.51100000000E-03 0. -1.
    9900012    2    1    2    0    0 -0.45388894305E+01 -0.64567914333E+01 -0.16982142397E+02  0.72461419072E+02  0.69999803004E+02 0.  0.
        -12    1    1    2    0    0  0.45388894305E+01  0.64567914333E+01  0.16982142397E+02  0.18726580928E+02  0.00000000000E+00 0.  1.
         11    1    3    3    0    0  0.31019560006E+01 -0.17868439145E+02 -0.12941298732E+01  0.18181804665E+02  0.51100000000E-03 0. -1.
        -11    1    3    3    0    0 -0.28368061218E+02  0.89660836580E+01 -0.31145190593E+01  0.29913839317E+02  0.51100000000E-03 0.  1.
        -12    1    3    3    0    0  0.20727215787E+02  0.24455640533E+01 -0.12573493464E+02  0.24365775090E+02  0.00000000000E+00 0.  1.
</event>
<event>
 7    1  0.1884848E-013  0.7246161E+02  0.7816164E-02  0.1226708E+00
        -11   -1    0    0    0    0  0.00000000000E+00  0.00000000000E+00  0.45593999997E+02  0.45594000000E+02  0.51100000000E-03 0.  1.
         11   -1    0    0    0    0 -0.00000000000E+00 -0.00000000000E+00 -0.45593999997E+02  0.45594000000E+02  0.51100000000E-03 0. -1.
    9900012    2    1    2    0    0 -0.10851487260E+02  0.14064466904E+02  0.59256868456E+01  0.72461607672E+02  0.70000048691E+02 0.  0.
        -12    1    1    2    0    0  0.10851487260E+02 -0.14064466904E+02 -0.59256868456E+01  0.18726392328E+02  0.00000000000E+00 0.  1.
         11    1    3    3    0    0 -0.17501161497E+01  0.30525218175E+02 -0.10024743650E+02  0.32176813650E+02  0.51100000000E-03 0. -1.
        -11    1    3    3    0    0  0.35738402169E+01 -0.18301999183E+02 -0.14212847720E+01  0.18701752823E+02  0.51100000000E-03 0.  1.
         12    1    3    3    0    0 -0.12675211327E+02  0.18412479118E+01  0.17371715267E+02  0.21583041198E+02  0.00000000000E+00 0. -1.
</event>
<event>
 7    1  0.1884848E-013  0.7246160E+02  0.7816164E-02  0.1226708E+00
        -11   -1    0    0    0    0  0.00000000000E+00  0.00000000000E+00  0.45593999997E+02  0.45594000000E+02  0.51100000000E-03 0. -1.
         11   -1    0    0    0    0 -0.00000000000E+00 -0.00000000000E+00 -0.45593999997E+02  0.45594000000E+02  0.51100000000E-03 0.  1.
    9900012    2    1    2    0    0  0.15032041006E+02 -0.73813913132E+01  0.83803927145E+01  0.72461596807E+02  0.70000034537E+02 0.  0.
        -12    1    1    2    0    0 -0.15032041006E+02  0.73813913132E+01 -0.83803927145E+01  0.18726403193E+02  0.00000000000E+00 0.  1.
         11    1    3    3    0    0  0.34371057317E+02 -0.23832264018E+01  0.25660064772E+02  0.42959146564E+02  0.51100000000E-03 0. -1.
        -11    1    3    3    0    0 -0.25075305852E+01 -0.41677825516E+01 -0.10049994539E+02  0.11165147179E+02  0.51100000000E-03 0.  1.
         12    1    3    3    0    0 -0.16831485726E+02 -0.83038235974E+00 -0.72296775187E+01  0.18337303063E+02  0.00000000000E+00 0. -1.
</event>
<event>
 7    1  0.1884848E-013  0.7246166E+02  0.7816164E-02  0.1226708E+00
        -11   -1    0    0    0    0  0.00000000000E+00  0.00000000000E+00  0.45593999997E+02  0.45594000000E+02  0.51100000000E-03 0.  1.
         11   -1    0    0    0    0 -0.00000000000E+00 -0.00000000000E+00 -0.45593999997E+02  0.45594000000E+02  0.51100000000E-03 0. -1.
    9900012    2    1    2    0    0  0.56727088198E+01  0.12689633786E+02 -0.12548684476E+02  0.72461657243E+02  0.70000113266E+02 0.  0.
        -12    1    1    2    0    0 -0.56727088198E+01 -0.12689633786E+02  0.12548684476E+02  0.18726342757E+02  0.00000000000E+00 0.  1.
         11    1    3    3    0    0 -0.21186650907E+02  0.10881978937E+02  0.18153450644E+01  0.23886965488E+02  0.51100000000E-03 0. -1.
        -11    1    3    3    0    0  0.18011792161E+02  0.11916991215E+02 -0.23814683300E+02  0.32149315349E+02  0.51100000000E-03 0.  1.
        -12    1    3    3    0    0  0.88475675662E+01 -0.10109336366E+02  0.94506537600E+01  0.16425376406E+02  0.00000000000E+00 0.  1.
</event>
<event>
 7    1  0.1884848E-013  0.7246165E+02  0.7816164E-02  0.1226708E+00
        -11   -1    0    0    0    0  0.00000000000E+00  0.00000000000E+00  0.45593999997E+02  0.45594000000E+02  0.51100000000E-03 0.  1.
         11   -1    0    0    0    0 -0.00000000000E+00 -0.00000000000E+00 -0.45593999997E+02  0.45594000000E+02  0.51100000000E-03 0. -1.
    9900012    2    1    2    0    0  0.11634634112E+02  0.68566679881E+01 -0.12972951464E+02  0.72461652879E+02  0.70000107582E+02 0.  0.
        -12    1    1    2    0    0 -0.11634634112E+02 -0.68566679881E+01  0.12972951464E+02  0.18726347121E+02  0.00000000000E+00 0.  1.
         11    1    3    3    0    0  0.66994116941E+01  0.22606972402E+02 -0.17990432665E+02  0.29658270111E+02  0.51100000000E-03 0. -1.
        -11    1    3    3    0    0 -0.14420380091E+02 -0.17852228135E+02  0.13260385879E+01  0.22987122264E+02  0.51100000000E-03 0.  1.
        -12    1    3    3    0    0  0.19355602509E+02  0.21019237216E+01  0.36914426134E+01  0.19816260504E+02  0.00000000000E+00 0.  1.
</event>
<event>
 7    1  0.1884848E-013  0.7246158E+02  0.7816164E-02  0.1226708E+00
        -11   -1    0    0    0    0  0.00000000000E+00  0.00000000000E+00  0.45593999997E+02  0.45594000000E+02  0.51100000000E-03 0. -1.
         11   -1    0    0    0    0 -0.00000000000E+00 -0.00000000000E+00 -0.45593999997E+02  0.45594000000E+02  0.51100000000E-03 0.  1.
    9900012    2    1    2    0    0 -0.35217974311E+01  0.49477182698E+01  0.17714287263E+02  0.72461576250E+02  0.70000007758E+02 0.  0.
        -12    1    1    2    0    0  0.35217974311E+01 -0.49477182698E+01 -0.17714287263E+02  0.18726423750E+02  0.00000000000E+00 0.  1.
         11    1    3    3    0    0 -0.51826270753E+01  0.39293831135E+01  0.20162345121E+02  0.21185368444E+02  0.51100000000E-03 0. -1.
        -11    1    3    3    0    0 -0.80331011270E+01 -0.18136057507E+02 -0.16345639945E+02  0.25702669921E+02  0.51100000000E-03 0.  1.
        -12    1    3    3    0    0  0.96939307712E+01  0.19154392663E+02  0.13897582087E+02  0.25573537885E+02  0.00000000000E+00 0.  1.
</event>
<event>
 7    1  0.1884848E-013  0.7246138E+02  0.7816164E-02  0.1226709E+00
        -11   -1    0    0    0    0  0.00000000000E+00  0.00000000000E+00  0.45593999997E+02  0.45594000000E+02  0.51100000000E-03 0. -1.
         11   -1    0    0    0    0 -0.00000000000E+00 -0.00000000000E+00 -0.45593999997E+02  0.45594000000E+02  0.51100000000E-03 0.  1.
    9900012    2    1    2    0    0 -0.10827283829E+02 -0.10611024408E+02  0.10993740408E+02  0.72461381451E+02  0.69999753997E+02 0.  0.
        -12    1    1    2    0    0  0.10827283829E+02  0.10611024408E+02 -0.10993740408E+02  0.18726618549E+02  0.00000000000E+00 0.  1.
         11    1    3    3    0    0 -0.26730069661E+02 -0.17836914416E+00 -0.41190610545E+01  0.27046166159E+02  0.51100000000E-03 0. -1.
        -11    1    3    3    0    0  0.17106651655E+02 -0.13855738447E+02  0.25924835175E+02  0.34010529221E+02  0.51100000000E-03 0.  1.
        -12    1    3    3    0    0 -0.12038658224E+01  0.34230831832E+01 -0.10812033713E+02  0.11404686072E+02  0.00000000000E+00 0.  1.
</event>
<event>
 7    1  0.1884848E-013  0.7246158E+02  0.7816164E-02  0.1226708E+00
        -11   -1    0    0    0    0  0.00000000000E+00  0.00000000000E+00  0.45593999997E+02  0.45594000000E+02  0.51100000000E-03 0.  1.
         11   -1    0    0    0    0 -0.00000000000E+00 -0.00000000000E+00 -0.45593999997E+02  0.45594000000E+02  0.51100000000E-03 0. -1.
    9900012    2    1    2    0    0 -0.25339853783E+01 -0.71471807184E+01 -0.17122370488E+02  0.72461578953E+02  0.70000011279E+02 0.  0.
        -12    1    1    2    0    0  0.25339853783E+01  0.71471807184E+01  0.17122370488E+02  0.18726421047E+02  0.00000000000E+00 0.  1.
         11    1    3    3    0    0  0.74597619449E+01 -0.45578955623E+01 -0.42688839720E+02  0.43574757569E+02  0.51100000000E-03 0. -1.
        -11    1    3    3    0    0 -0.38765207761E+01  0.92121392184E+00  0.18420303073E+02  0.18846315660E+02  0.51100000000E-03 0.  1.
         12    1    3    3    0    0 -0.61172265471E+01 -0.35104990779E+01  0.71461661599E+01  0.10040505724E+02  0.00000000000E+00 0. -1.
</event>
<event>
 7    1  0.1884848E-013  0.7246157E+02  0.7816164E-02  0.1226708E+00
        -11   -1    0    0    0    0  0.00000000000E+00  0.00000000000E+00  0.45593999997E+02  0.45594000000E+02  0.51100000000E-03 0.  1.
         11   -1    0    0    0    0 -0.00000000000E+00 -0.00000000000E+00 -0.45593999997E+02  0.45594000000E+02  0.51100000000E-03 0. -1.
    9900012    2    1    2    0    0 -0.12123161410E+02  0.60373067799E+01 -0.12932866745E+02  0.72461570603E+02  0.70000000402E+02 0.  0.
        -12    1    1    2    0    0  0.12123161410E+02 -0.60373067799E+01  0.12932866745E+02  0.18726429397E+02  0.00000000000E+00 0.  1.
         11    1    3    3    0    0  0.17712345456E+02  0.14095087337E+02  0.15391084085E+02  0.27373054966E+02  0.51100000000E-03 0.  1.
        -11    1    3    3    0    0 -0.21383145581E+02 -0.28521438632E+01 -0.27745051681E+02  0.35144864953E+02  0.51100000000E-03 0. -1.
        -12    1    3    3    0    0 -0.84523612852E+01 -0.52056366943E+01 -0.57889914878E+00  0.99436506834E+01  0.00000000000E+00 0.  1.
</event>
<event>
 7    1  0.1884848E-013  0.7246156E+02  0.7816164E-02  0.1226708E+00
        -11   -1    0    0    0    0  0.00000000000E+00  0.00000000000E+00  0.45593999997E+02  0.45594000000E+02  0.51100000000E-03 0. -1.
         11   -1    0    0    0    0 -0.00000000000E+00 -0.00000000000E+00 -0.45593999997E+02  0.45594000000E+02  0.51100000000E-03 0.  1.
    9900012    2    1    2    0    0  0.17989424673E+02 -0.47887181052E+01 -0.20317995032E+01  0.72461563330E+02  0.69999990927E+02 0.  0.
        -12    1    1    2    0    0 -0.17989424673E+02  0.47887181052E+01  0.20317995032E+01  0.18726436670E+02  0.00000000000E+00 0.  1.
         11    1    3    3    0    0 -0.37962502212E+01 -0.18168053422E+01  0.52779454376E+01  0.67504818863E+01  0.51100000000E-03 0. -1.
        -11    1    3    3    0    0  0.17323683828E+02 -0.63048441866E+01 -0.33875956924E+02  0.38567363656E+02  0.51100000000E-03 0.  1.
        -12    1    3    3    0    0  0.44619910654E+01  0.33329314236E+01  0.26566211984E+02  0.27143717787E+02  0.00000000000E+00 0.  1.
</event>
<event>
 7    1  0.1884848E-013  0.7246166E+02  0.7816164E-02  0.1226708E+00
        -11   -1    0    0    0    0  0.00000000000E+00  0.00000000000E+00  0.45593999997E+02  0.45594000000E+02  0.51100000000E-03 0.  1.
         11   -1    0    0    0    0 -0.00000000000E+00 -0.00000000000E+00 -0.45593999997E+02  0.45594000000E+02  0.51100000000E-03 0. -1.
    9900012    2    1    2    0    0  0.15010945092E+02 -0.97921647533E+01 -0.54277831598E+01  0.72461660444E+02  0.70000117437E+02 0.  0.
        -12    1    1    2    0    0 -0.15010945092E+02  0.97921647533E+01  0.54277831598E+01  0.18726339556E+02  0.00000000000E+00 0.  1.
         11    1    3    3    0    0  0.12858725255E+02  0.23341452704E+02  0.19006065365E+01  0.26716708910E+02  0.51100000000E-03 0.  1.
        -11    1    3    3    0    0  0.10711249088E+02 -0.33111563307E+02 -0.10903749329E+02  0.36469140809E+02  0.51100000000E-03 0. -1.
        -12    1    3    3    0    0 -0.85590292512E+01 -0.22054149724E-01  0.35753596324E+01  0.92758107252E+01  0.00000000000E+00 0.  1.
</event>
<event>
 7    1  0.1884848E-013  0.7246198E+02  0.7816164E-02  0.1226707E+00
        -11   -1    0    0    0    0  0.00000000000E+00  0.00000000000E+00  0.45593999997E+02  0.45594000000E+02  0.51100000000E-03 0.  1.
         11   -1    0    0    0    0 -0.00000000000E+00 -0.00000000000E+00 -0.45593999997E+02  0.45594000000E+02  0.51100000000E-03 0. -1.
    9900012    2    1    2    0    0  0.38028598856E+01 -0.16209175929E+01 -0.18264031751E+02  0.72461976051E+02  0.70000528571E+02 0.  0.
        -12    1    1    2    0    0 -0.38028598856E+01  0.16209175929E+01  0.18264031751E+02  0.18726023949E+02  0.00000000000E+00 0.  1.
         11    1    3    3    0    0  0.97484122658E+01 -0.12078771613E+02 -0.20201004801E+02  0.25475652310E+02  0.51100000000E-03 0. -1.
        -11    1    3    3    0    0 -0.20143972740E+02  0.13571399947E+02  0.14054400431E+02  0.28062229171E+02  0.51100000000E-03 0.  1.
        -12    1    3    3    0    0  0.14198420360E+02 -0.31135459270E+01 -0.12117427381E+02  0.18924094570E+02  0.00000000000E+00 0.  1.
</event>
<event>
 7    1  0.1884848E-013  0.7246158E+02  0.7816164E-02  0.1226708E+00
        -11   -1    0    0    0    0  0.00000000000E+00  0.00000000000E+00  0.45593999997E+02  0.45594000000E+02  0.51100000000E-03 0.  1.
         11   -1    0    0    0    0 -0.00000000000E+00 -0.00000000000E+00 -0.45593999997E+02  0.45594000000E+02  0.51100000000E-03 0. -1.
    9900012    2    1    2    0    0  0.12799421317E+02  0.26902346978E+00 -0.13666798572E+02  0.72461576346E+02  0.70000007883E+02 0.  0.
        -12    1    1    2    0    0 -0.12799421317E+02 -0.26902346978E+00  0.13666798572E+02  0.18726423654E+02  0.00000000000E+00 0.  1.
         11    1    3    3    0    0 -0.94056977938E+01 -0.14820059416E+02 -0.15418733895E+02  0.23363190434E+02  0.51100000000E-03 0. -1.
        -11    1    3    3    0    0  0.34179762402E+02  0.80132911230E+01  0.23858892384E+00  0.35107348482E+02  0.51100000000E-03 0.  1.
        -12    1    3    3    0    0 -0.11974643292E+02  0.70757917632E+01  0.15133463995E+01  0.13991037430E+02  0.00000000000E+00 0.  1.
</event>
<event>
 7    1  0.1884848E-013  0.7246157E+02  0.7816164E-02  0.1226708E+00
        -11   -1    0    0    0    0  0.00000000000E+00  0.00000000000E+00  0.45593999997E+02  0.45594000000E+02  0.51100000000E-03 0.  1.
         11   -1    0    0    0    0 -0.00000000000E+00 -0.00000000000E+00 -0.45593999997E+02  0.45594000000E+02  0.51100000000E-03 0. -1.
    9900012    2    1    2    0    0  0.73760762195E+01  0.11907798641E+02 -0.12428871016E+02  0.72461574725E+02  0.70000005771E+02 0.  0.
        -12    1    1    2    0    0 -0.73760762195E+01 -0.11907798641E+02  0.12428871016E+02  0.18726425275E+02  0.00000000000E+00 0.  1.
         11    1    3    3    0    0  0.68124020847E+01 -0.25388416595E+01 -0.27479441204E+02  0.28424887481E+02  0.51100000000E-03 0. -1.
        -11    1    3    3    0    0 -0.14802551777E+02  0.94449867873E+01  0.20491417936E+02  0.26985579924E+02  0.51100000000E-03 0.  1.
         12    1    3    3    0    0  0.15366225912E+02  0.50016535126E+01 -0.54408477480E+01  0.17051107320E+02  0.00000000000E+00 0. -1.
</event>
<event>
 7    1  0.1884848E-013  0.7246159E+02  0.7816164E-02  0.1226708E+00
        -11   -1    0    0    0    0  0.00000000000E+00  0.00000000000E+00  0.45593999997E+02  0.45594000000E+02  0.51100000000E-03 0.  1.
         11   -1    0    0    0    0 -0.00000000000E+00 -0.00000000000E+00 -0.45593999997E+02  0.45594000000E+02  0.51100000000E-03 0. -1.
    9900012    2    1    2    0    0  0.14344867376E+02 -0.11110328632E+02 -0.46329036764E+01  0.72461590338E+02  0.70000026110E+02 0.  0.
        -12    1    1    2    0    0 -0.14344867376E+02  0.11110328632E+02  0.46329036764E+01  0.18726409662E+02  0.00000000000E+00 0.  1.
         11    1    3    3    0    0  0.22496116410E+01 -0.17670530947E+02  0.90248688552E+00  0.17836000093E+02  0.51100000000E-03 0. -1.
        -11    1    3    3    0    0  0.22966994901E+02  0.22640983202E+02 -0.11625105124E+02  0.34281774233E+02  0.51100000000E-03 0.  1.
        -12    1    3    3    0    0 -0.10871739166E+02 -0.16080780887E+02  0.60897145623E+01  0.20343816011E+02  0.00000000000E+00 0.  1.
</event>
<event>
 7    1  0.1884848E-013  0.7246158E+02  0.7816164E-02  0.1226708E+00
        -11   -1    0    0    0    0  0.00000000000E+00  0.00000000000E+00  0.45593999997E+02  0.45594000000E+02  0.51100000000E-03 0. -1.
         11   -1    0    0    0    0 -0.00000000000E+00 -0.00000000000E+00 -0.45593999997E+02  0.45594000000E+02  0.51100000000E-03 0.  1.
    9900012    2    1    2    0    0 -0.17968341043E+02 -0.26558956254E+01 -0.45567053690E+01  0.72461584827E+02  0.70000018932E+02 0.  0.
        -12    1    1    2    0    0  0.17968341043E+02  0.26558956254E+01  0.45567053690E+01  0.18726415173E+02  0.00000000000E+00 0.  1.
         11    1    3    3    0    0 -0.57153511703E+01 -0.10822791466E+02  0.25146030154E+02  0.27966424278E+02  0.51100000000E-03 0. -1.
        -11    1    3    3    0    0 -0.21956035364E+02  0.61808202610E+01 -0.17327377326E+02  0.28644511399E+02  0.51100000000E-03 0.  1.
        -12    1    3    3    0    0  0.97030454917E+01  0.19860755798E+01 -0.12375358197E+02  0.15850649151E+02  0.00000000000E+00 0.  1.
</event>
<event>
 7    1  0.1884848E-013  0.7246156E+02  0.7816164E-02  0.1226708E+00
        -11   -1    0    0    0    0  0.00000000000E+00  0.00000000000E+00  0.45593999997E+02  0.45594000000E+02  0.51100000000E-03 0.  1.
         11   -1    0    0    0    0 -0.00000000000E+00 -0.00000000000E+00 -0.45593999997E+02  0.45594000000E+02  0.51100000000E-03 0. -1.
    9900012    2    1    2    0    0  0.11762010084E+02 -0.10173240253E+02 -0.10432630372E+02  0.72461562140E+02  0.69999989377E+02 0.  0.
        -12    1    1    2    0    0 -0.11762010084E+02  0.10173240253E+02  0.10432630372E+02  0.18726437860E+02  0.00000000000E+00 0.  1.
         11    1    3    3    0    0 -0.22260179629E+02  0.14151936841E+02 -0.12986785703E+02  0.29401522352E+02  0.51100000000E-03 0. -1.
        -11    1    3    3    0    0  0.21404870745E+02 -0.12757690443E+02  0.59269127804E+01  0.25613579453E+02  0.51100000000E-03 0.  1.
         12    1    3    3    0    0  0.12617318969E+02 -0.11567486651E+02 -0.33727574495E+01  0.17446460334E+02  0.00000000000E+00 0. -1.
</event>
<event>
 7    1  0.1884848E-013  0.7246158E+02  0.7816164E-02  0.1226708E+00
        -11   -1    0    0    0    0  0.00000000000E+00  0.00000000000E+00  0.45593999997E+02  0.45594000000E+02  0.51100000000E-03 0.  1.
         11   -1    0    0    0    0 -0.00000000000E+00 -0.00000000000E+00 -0.45593999997E+02  0.45594000000E+02  0.51100000000E-03 0. -1.
    9900012    2    1    2    0    0  0.15351746969E+02  0.14727007898E+01 -0.10622319716E+02  0.72461583932E+02  0.70000017765E+02 0.  0.
        -12    1    1    2    0    0 -0.15351746969E+02 -0.14727007898E+01  0.10622319716E+02  0.18726416068E+02  0.00000000000E+00 0.  1.
         11    1    3    3    0    0  0.75626705302E+01 -0.12636921990E+02 -0.17669146615E+02  0.23001837433E+02  0.51100000000E-03 0. -1.
        -11    1    3    3    0    0  0.26390480444E+02  0.89809732050E+01  0.10629344038E+02  0.29834515124E+02  0.51100000000E-03 0.  1.
        -12    1    3    3    0    0 -0.18601404005E+02  0.51286495750E+01 -0.35825171385E+01  0.19625231374E+02  0.00000000000E+00 0.  1.
</event>
<event>
 7    1  0.1884848E-013  0.7246154E+02  0.7816164E-02  0.1226708E+00
        -11   -1    0    0    0    0  0.00000000000E+00  0.00000000000E+00  0.45593999997E+02  0.45594000000E+02  0.51100000000E-03 0. -1.
         11   -1    0    0    0    0 -0.00000000000E+00 -0.00000000000E+00 -0.45593999997E+02  0.45594000000E+02  0.51100000000E-03 0.  1.
    9900012    2    1    2    0    0  0.15377110772E+02  0.93781940818E+01  0.51258388702E+01  0.72461540536E+02  0.69999961235E+02 0.  0.
        -12    1    1    2    0    0 -0.15377110772E+02 -0.93781940818E+01 -0.51258388702E+01  0.18726459464E+02  0.00000000000E+00 0.  1.
         11    1    3    3    0    0 -0.19215140315E+02  0.10127914252E+02  0.22124345028E+02  0.31004562690E+02  0.51100000000E-03 0. -1.
        -11    1    3    3    0    0  0.51761170677E+01 -0.14200986765E+01 -0.97872758299E+01  0.11162420731E+02  0.51100000000E-03 0.  1.
         12    1    3    3    0    0  0.29416134019E+02  0.67037850646E+00 -0.72112303284E+01  0.30294557115E+02  0.00000000000E+00 0. -1.
</event>
<event>
 7    1  0.1884848E-013  0.7246158E+02  0.7816164E-02  0.1226708E+00
        -11   -1    0    0    0    0  0.00000000000E+00  0.00000000000E+00  0.45593999997E+02  0.45594000000E+02  0.51100000000E-03 0. -1.
         11   -1    0    0    0    0 -0.00000000000E+00 -0.00000000000E+00 -0.45593999997E+02  0.45594000000E+02  0.51100000000E-03 0.  1.
    9900012    2    1    2    0    0 -0.75659437749E+01 -0.38240144976E+01  0.16697670210E+02  0.72461580628E+02  0.70000013461E+02 0.  0.
        -12    1    1    2    0    0  0.75659437749E+01  0.38240144976E+01 -0.16697670210E+02  0.18726419372E+02  0.00000000000E+00 0.  1.
         11    1    3    3    0    0  0.27615767957E+01  0.20130110505E+02  0.19101483762E+02  0.27887530143E+02  0.51100000000E-03 0. -1.
        -11    1    3    3    0    0  0.47203147404E+01 -0.28192044197E+02  0.88695612174E+00  0.28598241531E+02  0.51100000000E-03 0.  1.
         12    1    3    3    0    0 -0.15047835311E+02  0.42379191945E+01 -0.32907696739E+01  0.15975808953E+02  0.00000000000E+00 0. -1.
</event>
<event>
 7    1  0.1884848E-013  0.7246157E+02  0.7816164E-02  0.1226708E+00
        -11   -1    0    0    0    0  0.00000000000E+00  0.00000000000E+00  0.45593999997E+02  0.45594000000E+02  0.51100000000E-03 0. -1.
         11   -1    0    0    0    0 -0.00000000000E+00 -0.00000000000E+00 -0.45593999997E+02  0.45594000000E+02  0.51100000000E-03 0.  1.
    9900012    2    1    2    0    0 -0.76663916998E+01  0.29837578521E+01  0.16822685647E+02  0.72461571483E+02  0.70000001549E+02 0.  0.
        -12    1    1    2    0    0  0.76663916998E+01 -0.29837578521E+01 -0.16822685647E+02  0.18726428517E+02  0.00000000000E+00 0.  1.
         11    1    3    3    0    0  0.72321432996E+01 -0.24007959853E+02  0.13809229660E+02  0.28624829380E+02  0.51100000000E-03 0. -1.
        -11    1    3    3    0    0 -0.20456197310E+02  0.51574489850E+01 -0.68463604624E-01  0.21096444628E+02  0.51100000000E-03 0.  1.
        -12    1    3    3    0    0  0.55576623103E+01  0.21834268720E+02  0.30819195917E+01  0.22740297475E+02  0.00000000000E+00 0.  1.
</event>
<event>
 7    1  0.1884848E-013  0.7246153E+02  0.7816164E-02  0.1226708E+00
        -11   -1    0    0    0    0  0.00000000000E+00  0.00000000000E+00  0.45593999997E+02  0.45594000000E+02  0.51100000000E-03 0. -1.
         11   -1    0    0    0    0 -0.00000000000E+00 -0.00000000000E+00 -0.45593999997E+02  0.45594000000E+02  0.51100000000E-03 0.  1.
    9900012    2    1    2    0    0  0.67751529384E+01  0.12439512841E+02  0.12248933092E+02  0.72461533730E+02  0.69999952368E+02 0.  0.
        -12    1    1    2    0    0 -0.67751529384E+01 -0.12439512841E+02 -0.12248933092E+02  0.18726466270E+02  0.00000000000E+00 0.  1.
         11    1    3    3    0    0 -0.17187891918E+02 -0.10014611114E+02 -0.20722434550E+01  0.20000256437E+02  0.51100000000E-03 0.  1.
        -11    1    3    3    0    0  0.19115297199E+02  0.31517330326E+02  0.27190095851E+01  0.36961191963E+02  0.51100000000E-03 0. -1.
         12    1    3    3    0    0  0.48477476567E+01 -0.90632063706E+01  0.11602166962E+02  0.15500085331E+02  0.00000000000E+00 0. -1.
</event>
<event>
 7    1  0.1884848E-013  0.7246159E+02  0.7816164E-02  0.1226708E+00
        -11   -1    0    0    0    0  0.00000000000E+00  0.00000000000E+00  0.45593999997E+02  0.45594000000E+02  0.51100000000E-03 0.  1.
         11   -1    0    0    0    0 -0.00000000000E+00 -0.00000000000E+00 -0.45593999997E+02  0.45594000000E+02  0.51100000000E-03 0. -1.
    9900012    2    1    2    0    0  0.18683088496E+02  0.10476490655E+01  0.72314640542E+00  0.72461593377E+02  0.70000030069E+02 0.  0.
        -12    1    1    2    0    0 -0.18683088496E+02 -0.10476490655E+01 -0.72314640542E+00  0.18726406623E+02  0.00000000000E+00 0.  1.
         11    1    3    3    0    0  0.93401565448E+01 -0.27841699018E+02 -0.81542887231E+00  0.29377945009E+02  0.51100000000E-03 0.  1.
        -11    1    3    3    0    0  0.36261629814E+01  0.30283549218E+02  0.10591353811E+02  0.32286517108E+02  0.51100000000E-03 0. -1.
        -12    1    3    3    0    0  0.57167689694E+01 -0.13942011343E+01 -0.90527785331E+01  0.10797131259E+02  0.00000000000E+00 0.  1.
</event>
<event>
 7    1  0.1884848E-013  0.7246158E+02  0.7816164E-02  0.1226708E+00
        -11   -1    0    0    0    0  0.00000000000E+00  0.00000000000E+00  0.45593999997E+02  0.45594000000E+02  0.51100000000E-03 0.  1.
         11   -1    0    0    0    0 -0.00000000000E+00 -0.00000000000E+00 -0.45593999997E+02  0.45594000000E+02  0.51100000000E-03 0. -1.
    9900012    2    1    2    0    0  0.80752053798E+01  0.15287558531E+02 -0.71944796060E+01  0.72461576835E+02  0.70000008520E+02 0.  0.
        -12    1    1    2    0    0 -0.80752053798E+01 -0.15287558531E+02  0.71944796060E+01  0.18726423165E+02  0.00000000000E+00 0.  1.
         11    1    3    3    0    0 -0.29513385424E+02  0.73097390575E+01  0.26132290098E+01  0.30517227436E+02  0.51100000000E-03 0.  1.
        -11    1    3    3    0    0  0.28383451020E+02  0.10184126442E+02 -0.11601688064E+02  0.32309996740E+02  0.51100000000E-03 0. -1.
        -12    1    3    3    0    0  0.92051397841E+01 -0.22063069682E+01  0.17939794478E+01  0.96343526582E+01  0.00000000000E+00 0.  1.
</event>
<event>
 7    1  0.1884848E-013  0.7246155E+02  0.7816164E-02  0.1226708E+00
        -11   -1    0    0    0    0  0.00000000000E+00  0.00000000000E+00  0.45593999997E+02  0.45594000000E+02  0.51100000000E-03 0.  1.
         11   -1    0    0    0    0 -0.00000000000E+00 -0.00000000000E+00 -0.45593999997E+02  0.45594000000E+02  0.51100000000E-03 0. -1.
    9900012    2    1    2    0    0  0.12242604924E+02  0.11805665846E+02 -0.78374076777E+01  0.72461545971E+02  0.69999968315E+02 0.  0.
        -12    1    1    2    0    0 -0.12242604924E+02 -0.11805665846E+02  0.78374076777E+01  0.18726454029E+02  0.00000000000E+00 0.  1.
         11    1    3    3    0    0 -0.82312900305E+01 -0.14252728244E+02 -0.54905791432E+01  0.17350529028E+02  0.51100000000E-03 0.  1.
        -11    1    3    3    0    0  0.33109653871E+02  0.20471935515E+02 -0.87263948924E+01  0.39893599628E+02  0.51100000000E-03 0. -1.
         12    1    3    3    0    0 -0.12635758917E+02  0.55864585749E+01  0.63795663579E+01  0.15217417315E+02  0.00000000000E+00 0. -1.
</event>
<event>
 7    1  0.1884848E-013  0.7246130E+02  0.7816164E-02  0.1226709E+00
        -11   -1    0    0    0    0  0.00000000000E+00  0.00000000000E+00  0.45593999997E+02  0.45594000000E+02  0.51100000000E-03 0.  1.
         11   -1    0    0    0    0 -0.00000000000E+00 -0.00000000000E+00 -0.45593999997E+02  0.45594000000E+02  0.51100000000E-03 0. -1.
    9900012    2    1    2    0    0  0.89627044108E+01 -0.97414405985E+00 -0.16413722202E+02  0.72461299716E+02  0.69999647521E+02 0.  0.
        -12    1    1    2    0    0 -0.89627044108E+01  0.97414405985E+00  0.16413722202E+02  0.18726700284E+02  0.00000000000E+00 0.  1.
         11    1    3    3    0    0  0.33534158658E+02 -0.80875522967E+01  0.22982405544E+01  0.34572101598E+02  0.51100000000E-03 0. -1.
        -11    1    3    3    0    0  0.46288539993E+00  0.64752906700E+01 -0.88479860776E+01  0.10974083563E+02  0.51100000000E-03 0.  1.
         12    1    3    3    0    0 -0.25034339647E+02  0.63811756692E+00 -0.98639766786E+01  0.26915114555E+02  0.00000000000E+00 0. -1.
</event>
<event>
 7    1  0.1884848E-013  0.7246158E+02  0.7816164E-02  0.1226708E+00
        -11   -1    0    0    0    0  0.00000000000E+00  0.00000000000E+00  0.45593999997E+02  0.45594000000E+02  0.51100000000E-03 0. -1.
         11   -1    0    0    0    0 -0.00000000000E+00 -0.00000000000E+00 -0.45593999997E+02  0.45594000000E+02  0.51100000000E-03 0.  1.
    9900012    2    1    2    0    0 -0.82002385561E+01  0.75063435052E+00  0.16818779335E+02  0.72461582761E+02  0.70000016240E+02 0.  0.
        -12    1    1    2    0    0  0.82002385561E+01 -0.75063435052E+00 -0.16818779335E+02  0.18726417239E+02  0.00000000000E+00 0.  1.
         11    1    3    3    0    0 -0.63663824169E+01 -0.27867208251E+02  0.15771282102E+02  0.32647288711E+02  0.51100000000E-03 0. -1.
        -11    1    3    3    0    0 -0.98463684299E+01  0.26431456192E+02  0.76265682444E+01  0.29218784902E+02  0.51100000000E-03 0.  1.
         12    1    3    3    0    0  0.80125122907E+01  0.21863864089E+01 -0.65790710116E+01  0.10595509148E+02  0.00000000000E+00 0. -1.
</event>
<event>
 7    1  0.1884848E-013  0.7246157E+02  0.7816164E-02  0.1226708E+00
        -11   -1    0    0    0    0  0.00000000000E+00  0.00000000000E+00  0.45593999997E+02  0.45594000000E+02  0.51100000000E-03 0.  1.
         11   -1    0    0    0    0 -0.00000000000E+00 -0.00000000000E+00 -0.45593999997E+02  0.45594000000E+02  0.51100000000E-03 0. -1.
    9900012    2    1    2    0    0 -0.13143126836E+02 -0.11920589258E+02 -0.59863891558E+01  0.72461572513E+02  0.70000002891E+02 0.  0.
        -12    1    1    2    0    0  0.13143126836E+02  0.11920589258E+02  0.59863891558E+01  0.18726427487E+02  0.00000000000E+00 0.  1.
         11    1    3    3    0    0 -0.22884505648E+02  0.13271954132E+02 -0.24438268870E+02  0.36014918448E+02  0.51100000000E-03 0. -1.
        -11    1    3    3    0    0  0.10971445704E+02 -0.66256935253E+01  0.78832122232E+01  0.15047174843E+02  0.51100000000E-03 0.  1.
         12    1    3    3    0    0 -0.12300668928E+01 -0.18566849864E+02  0.10568667491E+02  0.21399479222E+02  0.00000000000E+00 0. -1.
</event>
<event>
 7    1  0.1884848E-013  0.7246157E+02  0.7816164E-02  0.1226708E+00
        -11   -1    0    0    0    0  0.00000000000E+00  0.00000000000E+00  0.45593999997E+02  0.45594000000E+02  0.51100000000E-03 0.  1.
         11   -1    0    0    0    0 -0.00000000000E+00 -0.00000000000E+00 -0.45593999997E+02  0.45594000000E+02  0.51100000000E-03 0. -1.
    9900012    2    1    2    0    0  0.62260423695E+01  0.39944761815E+01 -0.17203480577E+02  0.72461569814E+02  0.69999999374E+02 0.  0.
        -12    1    1    2    0    0 -0.62260423695E+01 -0.39944761815E+01  0.17203480577E+02  0.18726430186E+02  0.00000000000E+00 0.  1.
         11    1    3    3    0    0  0.50473656403E+01 -0.12562200114E+02 -0.13479072985E+02  0.19104192744E+02  0.51100000000E-03 0. -1.
        -11    1    3    3    0    0  0.12020284957E+02  0.55721435777E+01  0.20633818811E+02  0.24521225775E+02  0.51100000000E-03 0.  1.
        -12    1    3    3    0    0 -0.10841608228E+02  0.10984532718E+02 -0.24358226403E+02  0.28836151295E+02  0.00000000000E+00 0.  1.
</event>
<event>
 7    1  0.1884848E-013  0.7246162E+02  0.7816164E-02  0.1226708E+00
        -11   -1    0    0    0    0  0.00000000000E+00  0.00000000000E+00  0.45593999997E+02  0.45594000000E+02  0.51100000000E-03 0. -1.
         11   -1    0    0    0    0 -0.00000000000E+00 -0.00000000000E+00 -0.45593999997E+02  0.45594000000E+02  0.51100000000E-03 0.  1.
    9900012    2    1    2    0    0  0.33907701944E+01  0.47972222405E+01  0.17781072151E+02  0.72461623133E+02  0.70000068832E+02 0.  0.
        -12    1    1    2    0    0 -0.33907701944E+01 -0.47972222405E+01 -0.17781072151E+02  0.18726376867E+02  0.00000000000E+00 0.  1.
         11    1    3    3    0    0  0.22645438640E+02 -0.10299052753E+02  0.20239081879E+02  0.32070341663E+02  0.51100000000E-03 0. -1.
        -11    1    3    3    0    0 -0.25302396389E+02  0.18892673432E+02 -0.64223167290E+01  0.32224067479E+02  0.51100000000E-03 0.  1.
        -12    1    3    3    0    0  0.60477279437E+01 -0.37963984384E+01  0.39643070013E+01  0.81672139916E+01  0.00000000000E+00 0.  1.
</event>
<event>
 7    1  0.1884848E-013  0.7246153E+02  0.7816164E-02  0.1226708E+00
        -11   -1    0    0    0    0  0.00000000000E+00  0.00000000000E+00  0.45593999997E+02  0.45594000000E+02  0.51100000000E-03 0.  1.
         11   -1    0    0    0    0 -0.00000000000E+00 -0.00000000000E+00 -0.45593999997E+02  0.45594000000E+02  0.51100000000E-03 0. -1.
    9900012    2    1    2    0    0 -0.39379185999E+01  0.68677783084E+01 -0.16970774862E+02  0.72461527262E+02  0.69999943943E+02 0.  0.
        -12    1    1    2    0    0  0.39379185999E+01 -0.68677783084E+01  0.16970774862E+02  0.18726472738E+02  0.00000000000E+00 0.  1.
         11    1    3    3    0    0  0.27358344683E+02  0.17845608951E+02 -0.26519881718E+01  0.32771600879E+02  0.51100000000E-03 0. -1.
        -11    1    3    3    0    0 -0.27287828942E+02 -0.23675069001E+01 -0.91583959720E+01  0.28880909168E+02  0.51100000000E-03 0.  1.
         12    1    3    3    0    0 -0.40084343401E+01 -0.86103237427E+01 -0.51603907179E+01  0.10809017216E+02  0.00000000000E+00 0. -1.
</event>
<event>
 7    1  0.1884848E-013  0.7246123E+02  0.7816164E-02  0.1226709E+00
        -11   -1    0    0    0    0  0.00000000000E+00  0.00000000000E+00  0.45593999997E+02  0.45594000000E+02  0.51100000000E-03 0.  1.
         11   -1    0    0    0    0 -0.00000000000E+00 -0.00000000000E+00 -0.45593999997E+02  0.45594000000E+02  0.51100000000E-03 0. -1.
    9900012    2    1    2    0    0  0.11839437048E+02  0.83145980722E+01 -0.11890630912E+02  0.72461230011E+02  0.69999556717E+02 0.  0.
        -12    1    1    2    0    0 -0.11839437048E+02 -0.83145980722E+01  0.11890630912E+02  0.18726769989E+02  0.00000000000E+00 0.  1.
         11    1    3    3    0    0  0.82118676577E+01 -0.20370034124E+02  0.24305506355E+01  0.22097073048E+02  0.51100000000E-03 0.  1.
        -11    1    3    3    0    0 -0.53482007075E+01  0.24065028809E+02 -0.25386138536E+02  0.35386224614E+02  0.51100000000E-03 0. -1.
        -12    1    3    3    0    0  0.89757700983E+01  0.46196033870E+01  0.11064956988E+02  0.14977932349E+02  0.00000000000E+00 0.  1.
</event>
<event>
 7    1  0.1884848E-013  0.7246237E+02  0.7816164E-02  0.1226706E+00
        -11   -1    0    0    0    0  0.00000000000E+00  0.00000000000E+00  0.45593999997E+02  0.45594000000E+02  0.51100000000E-03 0. -1.
         11   -1    0    0    0    0 -0.00000000000E+00 -0.00000000000E+00 -0.45593999997E+02  0.45594000000E+02  0.51100000000E-03 0.  1.
    9900012    2    1    2    0    0 -0.12129914639E+02  0.89556098776E+01  0.11104574068E+02  0.72462366695E+02  0.70001037452E+02 0.  0.
        -12    1    1    2    0    0  0.12129914639E+02 -0.89556098776E+01 -0.11104574068E+02  0.18725633305E+02  0.00000000000E+00 0.  1.
         11    1    3    3    0    0 -0.87167058430E+01  0.10413486165E+02 -0.29829442789E+01  0.13903942308E+02  0.51100000000E-03 0. -1.
        -11    1    3    3    0    0 -0.17500034841E+02  0.12645149295E+02  0.27178713882E+02  0.34710711728E+02  0.51100000000E-03 0.  1.
        -12    1    3    3    0    0  0.14086826045E+02 -0.14103025582E+02 -0.13091195534E+02  0.23847712660E+02  0.00000000000E+00 0.  1.
</event>
<event>
 7    1  0.1884848E-013  0.7246156E+02  0.7816164E-02  0.1226708E+00
        -11   -1    0    0    0    0  0.00000000000E+00  0.00000000000E+00  0.45593999997E+02  0.45594000000E+02  0.51100000000E-03 0.  1.
         11   -1    0    0    0    0 -0.00000000000E+00 -0.00000000000E+00 -0.45593999997E+02  0.45594000000E+02  0.51100000000E-03 0. -1.
    9900012    2    1    2    0    0 -0.12992250491E+02  0.83155761238E+01  0.10617533361E+02  0.72461564307E+02  0.69999992200E+02 0.  0.
        -12    1    1    2    0    0  0.12992250491E+02 -0.83155761238E+01 -0.10617533361E+02  0.18726435693E+02  0.00000000000E+00 0.  1.
         11    1    3    3    0    0 -0.16488943057E+02  0.11254744692E+02 -0.46416482772E+00  0.19969225585E+02  0.51100000000E-03 0. -1.
        -11    1    3    3    0    0 -0.56958064932E+00 -0.25173093451E+02 -0.37509242635E+01  0.25457385747E+02  0.51100000000E-03 0.  1.
        -12    1    3    3    0    0  0.40662732146E+01  0.22233924882E+02  0.14832622453E+02  0.27034952974E+02  0.00000000000E+00 0.  1.
</event>
<event>
 7    1  0.1884848E-013  0.7246176E+02  0.7816164E-02  0.1226708E+00
        -11   -1    0    0    0    0  0.00000000000E+00  0.00000000000E+00  0.45593999997E+02  0.45594000000E+02  0.51100000000E-03 0. -1.
         11   -1    0    0    0    0 -0.00000000000E+00 -0.00000000000E+00 -0.45593999997E+02  0.45594000000E+02  0.51100000000E-03 0.  1.
    9900012    2    1    2    0    0 -0.14704456363E+02 -0.11467478349E+02 -0.17169492145E+01  0.72461761424E+02  0.70000248981E+02 0.  0.
        -12    1    1    2    0    0  0.14704456363E+02  0.11467478349E+02  0.17169492145E+01  0.18726238576E+02  0.00000000000E+00 0.  1.
         11    1    3    3    0    0 -0.25167902609E+01  0.70296358464E+01 -0.16859215379E+02  0.18438632184E+02  0.51100000000E-03 0. -1.
        -11    1    3    3    0    0  0.15887739531E+02 -0.16944212903E+02  0.10632016299E+02  0.25545379018E+02  0.51100000000E-03 0.  1.
         12    1    3    3    0    0 -0.28075405633E+02 -0.15529012919E+01  0.45102498651E+01  0.28477750222E+02  0.00000000000E+00 0. -1.
</event>
<event>
 7    1  0.1884848E-013  0.7246155E+02  0.7816164E-02  0.1226708E+00
        -11   -1    0    0    0    0  0.00000000000E+00  0.00000000000E+00  0.45593999997E+02  0.45594000000E+02  0.51100000000E-03 0. -1.
         11   -1    0    0    0    0 -0.00000000000E+00 -0.00000000000E+00 -0.45593999997E+02  0.45594000000E+02  0.51100000000E-03 0.  1.
    9900012    2    1    2    0    0 -0.87676313229E+01 -0.16314552241E+02 -0.27647890400E+01  0.72461547259E+02  0.69999969992E+02 0.  0.
        -12    1    1    2    0    0  0.87676313229E+01  0.16314552241E+02  0.27647890400E+01  0.18726452741E+02  0.00000000000E+00 0.  1.
         11    1    3    3    0    0 -0.41026221916E+01 -0.36487177507E+02  0.13561434713E+02  0.39141514317E+02  0.51100000000E-03 0. -1.
        -11    1    3    3    0    0  0.75061188248E+01  0.35285885731E+01 -0.61548578332E+01  0.10328360583E+02  0.51100000000E-03 0.  1.
         12    1    3    3    0    0 -0.12171127956E+02  0.16644036693E+02 -0.10171365920E+02  0.22991672358E+02  0.00000000000E+00 0. -1.
</event>
<event>
 7    1  0.2467006E-013  0.7246153E+02  0.7816164E-02  0.1226708E+00
        -11   -1    0    0    0    0  0.00000000000E+00  0.00000000000E+00  0.45593999997E+02  0.45594000000E+02  0.51100000000E-03 0. -1.
         11   -1    0    0    0    0 -0.00000000000E+00 -0.00000000000E+00 -0.45593999997E+02  0.45594000000E+02  0.51100000000E-03 0.  1.
    9900012    2    1    2    0    0  0.78863966570E+01  0.41886214015E+01  0.16460286577E+02  0.72461525808E+02  0.69999942048E+02 0.  0.
        -12    1    1    2    0    0 -0.78863966570E+01 -0.41886214015E+01 -0.16460286577E+02  0.18726474192E+02  0.00000000000E+00 0.  1.
         11    1    3    3    0    0  0.61523655991E+01  0.15126499881E+02  0.23742479898E+02  0.28816105793E+02  0.51100000000E-03 0. -1.
        -11    1    3    3    0    0 -0.13424476925E+02  0.68782612466E+01 -0.12602536352E+02  0.19655812912E+02  0.51100000000E-03 0.  1.
         12    1    3    3    0    0  0.15158507982E+02 -0.17816139726E+02  0.53203430308E+01  0.23989607103E+02  0.00000000000E+00 0. -1.
</event>
<event>
 7    1  0.1884848E-013  0.7246156E+02  0.7816164E-02  0.1226708E+00
        -11   -1    0    0    0    0  0.00000000000E+00  0.00000000000E+00  0.45593999997E+02  0.45594000000E+02  0.51100000000E-03 0.  1.
         11   -1    0    0    0    0 -0.00000000000E+00 -0.00000000000E+00 -0.45593999997E+02  0.45594000000E+02  0.51100000000E-03 0. -1.
    9900012    2    1    2    0    0  0.16086282454E+02 -0.73975374723E+01 -0.60981503886E+01  0.72461561951E+02  0.69999989131E+02 0.  0.
        -12    1    1    2    0    0 -0.16086282454E+02  0.73975374723E+01  0.60981503886E+01  0.18726438049E+02  0.00000000000E+00 0.  1.
         11    1    3    3    0    0  0.16869393475E+02 -0.90181088742E+01 -0.68881245882E+01  0.20330985822E+02  0.51100000000E-03 0. -1.
        -11    1    3    3    0    0 -0.12978857713E+02  0.15340553044E+02  0.17992941240E+02  0.26972750137E+02  0.51100000000E-03 0.  1.
        -12    1    3    3    0    0  0.12195746692E+02 -0.13719981643E+02 -0.17202967040E+02  0.25157825992E+02  0.00000000000E+00 0.  1.
</event>
<event>
 7    1  0.1884848E-013  0.7246183E+02  0.7816164E-02  0.1226707E+00
        -11   -1    0    0    0    0  0.00000000000E+00  0.00000000000E+00  0.45593999997E+02  0.45594000000E+02  0.51100000000E-03 0. -1.
         11   -1    0    0    0    0 -0.00000000000E+00 -0.00000000000E+00 -0.45593999997E+02  0.45594000000E+02  0.51100000000E-03 0.  1.
    9900012    2    1    2    0    0  0.13315284343E+02  0.50306778315E+01  0.12168187499E+02  0.72461833719E+02  0.70000343159E+02 0.  0.
        -12    1    1    2    0    0 -0.13315284343E+02 -0.50306778315E+01 -0.12168187499E+02  0.18726166281E+02  0.00000000000E+00 0.  1.
         11    1    3    3    0    0 -0.42451338560E+01  0.19155294870E+02  0.18824363631E+02  0.27190129632E+02  0.51100000000E-03 0. -1.
        -11    1    3    3    0    0  0.11605631966E+02 -0.27655055734E+02 -0.41298346374E+01  0.30274549301E+02  0.51100000000E-03 0.  1.
        -12    1    3    3    0    0  0.59547862326E+01  0.13530438695E+02 -0.25263414946E+01  0.14997154787E+02  0.00000000000E+00 0.  1.
</event>
<event>
 7    1  0.1884848E-013  0.7246160E+02  0.7816164E-02  0.1226708E+00
        -11   -1    0    0    0    0  0.00000000000E+00  0.00000000000E+00  0.45593999997E+02  0.45594000000E+02  0.51100000000E-03 0. -1.
         11   -1    0    0    0    0 -0.00000000000E+00 -0.00000000000E+00 -0.45593999997E+02  0.45594000000E+02  0.51100000000E-03 0.  1.
    9900012    2    1    2    0    0 -0.49055326569E+01  0.52931237815E+01  0.17279946260E+02  0.72461602782E+02  0.70000042321E+02 0.  0.
        -12    1    1    2    0    0  0.49055326569E+01 -0.52931237815E+01 -0.17279946260E+02  0.18726397218E+02  0.00000000000E+00 0.  1.
         11    1    3    3    0    0 -0.67524118621E+00  0.23408189140E+02  0.68877627785E+01  0.24409845265E+02  0.51100000000E-03 0. -1.
        -11    1    3    3    0    0  0.17925966250E+02 -0.56592080216E+01 -0.34461725262E+01  0.19111331895E+02  0.51100000000E-03 0.  1.
        -12    1    3    3    0    0 -0.22156257721E+02 -0.12455857337E+02  0.13838356008E+02  0.28940425623E+02  0.00000000000E+00 0.  1.
</event>
<event>
 7    1  0.1884848E-013  0.7246151E+02  0.7816164E-02  0.1226708E+00
        -11   -1    0    0    0    0  0.00000000000E+00  0.00000000000E+00  0.45593999997E+02  0.45594000000E+02  0.51100000000E-03 0.  1.
         11   -1    0    0    0    0 -0.00000000000E+00 -0.00000000000E+00 -0.45593999997E+02  0.45594000000E+02  0.51100000000E-03 0. -1.
    9900012    2    1    2    0    0 -0.34778022504E+01  0.12719285974E+02 -0.13296848026E+02  0.72461507761E+02  0.69999918538E+02 0.  0.
        -12    1    1    2    0    0  0.34778022504E+01 -0.12719285974E+02  0.13296848026E+02  0.18726492239E+02  0.00000000000E+00 0.  1.
         11    1    3    3    0    0  0.26464007596E+02  0.21266388841E+01 -0.18624958340E+02  0.32430778042E+02  0.51100000000E-03 0. -1.
        -11    1    3    3    0    0 -0.31084504349E+02  0.12044740990E+02 -0.10875924551E+01  0.33354235920E+02  0.51100000000E-03 0.  1.
        -12    1    3    3    0    0  0.11426945030E+01 -0.14520939003E+01  0.64157027694E+01  0.66764937990E+01  0.00000000000E+00 0.  1.
</event>
<event>
 7    1  0.1884848E-013  0.7246117E+02  0.7816164E-02  0.1226709E+00
        -11   -1    0    0    0    0  0.00000000000E+00  0.00000000000E+00  0.45593999997E+02  0.45594000000E+02  0.51100000000E-03 0.  1.
         11   -1    0    0    0    0 -0.00000000000E+00 -0.00000000000E+00 -0.45593999997E+02  0.45594000000E+02  0.51100000000E-03 0. -1.
    9900012    2    1    2    0    0 -0.54575107522E+01 -0.32591602772E+01 -0.17614978890E+02  0.72461173504E+02  0.69999483105E+02 0.  0.
        -12    1    1    2    0    0  0.54575107522E+01  0.32591602772E+01  0.17614978890E+02  0.18726826496E+02  0.00000000000E+00 0.  1.
         11    1    3    3    0    0 -0.17183170612E+01 -0.24913081273E+02 -0.19987484358E+02  0.31986149554E+02  0.51100000000E-03 0. -1.
        -11    1    3    3    0    0 -0.18923997408E+02  0.11705026510E+02  0.12336512965E+01  0.22285583216E+02  0.51100000000E-03 0.  1.
         12    1    3    3    0    0  0.15184803717E+02  0.99488944853E+01  0.11388541724E+01  0.18189440734E+02  0.00000000000E+00 0. -1.
</event>
<event>
 7    1  0.1884848E-013  0.7246156E+02  0.7816164E-02  0.1226708E+00
        -11   -1    0    0    0    0  0.00000000000E+00  0.00000000000E+00  0.45593999997E+02  0.45594000000E+02  0.51100000000E-03 0. -1.
         11   -1    0    0    0    0 -0.00000000000E+00 -0.00000000000E+00 -0.45593999997E+02  0.45594000000E+02  0.51100000000E-03 0.  1.
    9900012    2    1    2    0    0 -0.18298025136E+02 -0.32236060204E+00 -0.39696357298E+01  0.72461557517E+02  0.69999983355E+02 0.  0.
        -12    1    1    2    0    0  0.18298025136E+02  0.32236060204E+00  0.39696357298E+01  0.18726442483E+02  0.00000000000E+00 0.  1.
         11    1    3    3    0    0 -0.99154739898E+00 -0.79664774027E+00  0.90605448639E+01  0.91493872668E+01  0.51100000000E-03 0. -1.
        -11    1    3    3    0    0 -0.31846006946E+02  0.20002516786E+02 -0.75767418608E+01  0.38362427630E+02  0.51100000000E-03 0.  1.
        -12    1    3    3    0    0  0.14539529209E+02 -0.19528229648E+02 -0.54534387329E+01  0.24949742620E+02  0.00000000000E+00 0.  1.
</event>
<event>
 7    1  0.1884848E-013  0.7246151E+02  0.7816164E-02  0.1226708E+00
        -11   -1    0    0    0    0  0.00000000000E+00  0.00000000000E+00  0.45593999997E+02  0.45594000000E+02  0.51100000000E-03 0. -1.
         11   -1    0    0    0    0 -0.00000000000E+00 -0.00000000000E+00 -0.45593999997E+02  0.45594000000E+02  0.51100000000E-03 0.  1.
    9900012    2    1    2    0    0  0.17191150441E+02 -0.74191409828E+01  0.31972032798E+00  0.72461507336E+02  0.69999917985E+02 0.  0.
        -12    1    1    2    0    0 -0.17191150441E+02  0.74191409828E+01 -0.31972032798E+00  0.18726492664E+02  0.00000000000E+00 0.  1.
         11    1    3    3    0    0  0.98628263886E+01 -0.16808296185E+02  0.19087832524E+02  0.27278920722E+02  0.51100000000E-03 0. -1.
        -11    1    3    3    0    0 -0.38605164009E+01  0.74557286626E+01 -0.28819881252E+02  0.30017945173E+02  0.51100000000E-03 0.  1.
         12    1    3    3    0    0  0.11188840453E+02  0.19334265400E+01  0.10051769056E+02  0.15164641441E+02  0.00000000000E+00 0. -1.
</event>
<event>
 7    1  0.1884848E-013  0.7246156E+02  0.7816164E-02  0.1226708E+00
        -11   -1    0    0    0    0  0.00000000000E+00  0.00000000000E+00  0.45593999997E+02  0.45594000000E+02  0.51100000000E-03 0. -1.
         11   -1    0    0    0    0 -0.00000000000E+00 -0.00000000000E+00 -0.45593999997E+02  0.45594000000E+02  0.51100000000E-03 0.  1.
    9900012    2    1    2    0    0  0.18668011633E+02 -0.13514692807E+01 -0.59861081328E+00  0.72461562473E+02  0.69999989812E+02 0.  0.
        -12    1    1    2    0    0 -0.18668011633E+02  0.13514692807E+01  0.59861081328E+00  0.18726437527E+02  0.00000000000E+00 0.  1.
         11    1    3    3    0    0  0.13855356391E+02 -0.21772942303E+02  0.50095847753E+01  0.26289310701E+02  0.51100000000E-03 0. -1.
        -11    1    3    3    0    0 -0.12615444219E+02  0.46345035280E+01 -0.15627203066E+02  0.20611587317E+02  0.51100000000E-03 0.  1.
         12    1    3    3    0    0  0.17428099460E+02  0.15786969494E+02  0.10019007478E+02  0.25560664456E+02  0.00000000000E+00 0. -1.
</event>
<event>
 7    1  0.1884848E-013  0.7246157E+02  0.7816164E-02  0.1226708E+00
        -11   -1    0    0    0    0  0.00000000000E+00  0.00000000000E+00  0.45593999997E+02  0.45594000000E+02  0.51100000000E-03 0.  1.
         11   -1    0    0    0    0 -0.00000000000E+00 -0.00000000000E+00 -0.45593999997E+02  0.45594000000E+02  0.51100000000E-03 0. -1.
    9900012    2    1    2    0    0 -0.57286985728E+01  0.62350609665E+01 -0.16702844822E+02  0.72461574881E+02  0.70000005975E+02 0.  0.
        -12    1    1    2    0    0  0.57286985728E+01 -0.62350609665E+01  0.16702844822E+02  0.18726425119E+02  0.00000000000E+00 0.  1.
         11    1    3    3    0    0  0.39967284206E+01 -0.22891945513E+01 -0.11637368252E+02  0.12515693743E+02  0.51100000000E-03 0. -1.
        -11    1    3    3    0    0 -0.81042505383E+01  0.33273544512E+02  0.15338129742E+01  0.34280610025E+02  0.51100000000E-03 0.  1.
        -12    1    3    3    0    0 -0.16211764551E+01 -0.24749288994E+02 -0.65992895444E+01  0.25665271113E+02  0.00000000000E+00 0.  1.
</event>
<event>
 7    1  0.1884848E-013  0.7246160E+02  0.7816164E-02  0.1226708E+00
        -11   -1    0    0    0    0  0.00000000000E+00  0.00000000000E+00  0.45593999997E+02  0.45594000000E+02  0.51100000000E-03 0.  1.
         11   -1    0    0    0    0 -0.00000000000E+00 -0.00000000000E+00 -0.45593999997E+02  0.45594000000E+02  0.51100000000E-03 0. -1.
    9900012    2    1    2    0    0  0.10584303171E+02 -0.15371209397E+02  0.15415867663E+01  0.72461600407E+02  0.70000039228E+02 0.  0.
        -12    1    1    2    0    0 -0.10584303171E+02  0.15371209397E+02 -0.15415867663E+01  0.18726399593E+02  0.00000000000E+00 0.  1.
         11    1    3    3    0    0 -0.17011180168E+02  0.18292043519E+01 -0.15544092489E+02  0.23115904716E+02  0.51100000000E-03 0. -1.
        -11    1    3    3    0    0  0.67991720172E+01  0.16034044598E+01  0.19974021885E+02  0.21160368534E+02  0.51100000000E-03 0.  1.
         12    1    3    3    0    0  0.20796311322E+02 -0.18803818209E+02 -0.28883426300E+01  0.28185327157E+02  0.00000000000E+00 0. -1.
</event>
<event>
 7    1  0.1884848E-013  0.7246159E+02  0.7816164E-02  0.1226708E+00
        -11   -1    0    0    0    0  0.00000000000E+00  0.00000000000E+00  0.45593999997E+02  0.45594000000E+02  0.51100000000E-03 0. -1.
         11   -1    0    0    0    0 -0.00000000000E+00 -0.00000000000E+00 -0.45593999997E+02  0.45594000000E+02  0.51100000000E-03 0.  1.
    9900012    2    1    2    0    0 -0.15002911290E+02  0.39689937620E+01  0.10480368054E+02  0.72461591556E+02  0.70000027697E+02 0.  0.
        -12    1    1    2    0    0  0.15002911290E+02 -0.39689937620E+01 -0.10480368054E+02  0.18726408444E+02  0.00000000000E+00 0.  1.
         11    1    3    3    0    0 -0.28251771546E+02  0.13256226684E+02 -0.17904329816E+01  0.31258531506E+02  0.51100000000E-03 0. -1.
        -11    1    3    3    0    0  0.12828955099E+02  0.12104290681E+02  0.80812169161E+01  0.19401082674E+02  0.51100000000E-03 0.  1.
        -12    1    3    3    0    0  0.41990515705E+00 -0.21391523603E+02  0.41895841191E+01  0.21801977376E+02  0.00000000000E+00 0.  1.
</event>
<event>
 7    1  0.1884848E-013  0.7246157E+02  0.7816164E-02  0.1226708E+00
        -11   -1    0    0    0    0  0.00000000000E+00  0.00000000000E+00  0.45593999997E+02  0.45594000000E+02  0.51100000000E-03 0.  1.
         11   -1    0    0    0    0 -0.00000000000E+00 -0.00000000000E+00 -0.45593999997E+02  0.45594000000E+02  0.51100000000E-03 0. -1.
    9900012    2    1    2    0    0  0.69094426463E+01 -0.13637894619E+02 -0.10814192656E+02  0.72461566006E+02  0.69999994414E+02 0.  0.
        -12    1    1    2    0    0 -0.69094426463E+01  0.13637894619E+02  0.10814192656E+02  0.18726433994E+02  0.00000000000E+00 0.  1.
         11    1    3    3    0    0 -0.13582676788E+02 -0.13607076309E+00 -0.25077528667E+02  0.28519994185E+02  0.51100000000E-03 0. -1.
        -11    1    3    3    0    0  0.11169345827E+02  0.66612082134E+01  0.17168987294E+02  0.21538340373E+02  0.51100000000E-03 0.  1.
        -12    1    3    3    0    0  0.93227736076E+01 -0.20163032069E+02 -0.29056512827E+01  0.22403231449E+02  0.00000000000E+00 0.  1.
</event>
<event>
 7    1  0.1884848E-013  0.7246158E+02  0.7816164E-02  0.1226708E+00
        -11   -1    0    0    0    0  0.00000000000E+00  0.00000000000E+00  0.45593999997E+02  0.45594000000E+02  0.51100000000E-03 0.  1.
         11   -1    0    0    0    0 -0.00000000000E+00 -0.00000000000E+00 -0.45593999997E+02  0.45594000000E+02  0.51100000000E-03 0. -1.
    9900012    2    1    2    0    0  0.11702062953E+02 -0.14519493401E+02  0.17102382905E+01  0.72461577998E+02  0.70000010036E+02 0.  0.
        -12    1    1    2    0    0 -0.11702062953E+02  0.14519493401E+02 -0.17102382905E+01  0.18726422002E+02  0.00000000000E+00 0.  1.
         11    1    3    3    0    0 -0.22779091276E+02 -0.13563645166E+01 -0.50280777644E+01  0.23366820287E+02  0.51100000000E-03 0. -1.
        -11    1    3    3    0    0  0.18490996923E+02 -0.10628148587E+02  0.19174442296E+02  0.28679849149E+02  0.51100000000E-03 0.  1.
         12    1    3    3    0    0  0.15990157305E+02 -0.25349802976E+01 -0.12436126241E+02  0.20414908563E+02  0.00000000000E+00 0. -1.
</event>
<event>
 7    1  0.1884848E-013  0.7246156E+02  0.7816164E-02  0.1226708E+00
        -11   -1    0    0    0    0  0.00000000000E+00  0.00000000000E+00  0.45593999997E+02  0.45594000000E+02  0.51100000000E-03 0. -1.
         11   -1    0    0    0    0 -0.00000000000E+00 -0.00000000000E+00 -0.45593999997E+02  0.45594000000E+02  0.51100000000E-03 0.  1.
    9900012    2    1    2    0    0 -0.10376067964E+01 -0.39619732316E+01  0.18273082538E+02  0.72461564002E+02  0.69999991803E+02 0.  0.
        -12    1    1    2    0    0  0.10376067964E+01  0.39619732316E+01 -0.18273082538E+02  0.18726435998E+02  0.00000000000E+00 0.  1.
         11    1    3    3    0    0 -0.26627016918E+02  0.10242871462E+02  0.14569567654E+02  0.32034149710E+02  0.51100000000E-03 0. -1.
        -11    1    3    3    0    0  0.16853082023E+02 -0.17243121980E+02  0.12932938390E+02  0.27360784436E+02  0.51100000000E-03 0.  1.
        -12    1    3    3    0    0  0.87363280992E+01  0.30382772870E+01 -0.92294235071E+01  0.13066629856E+02  0.00000000000E+00 0.  1.
</event>
<event>
 7    1  0.1884848E-013  0.7246153E+02  0.7816164E-02  0.1226708E+00
        -11   -1    0    0    0    0  0.00000000000E+00  0.00000000000E+00  0.45593999997E+02  0.45594000000E+02  0.51100000000E-03 0.  1.
         11   -1    0    0    0    0 -0.00000000000E+00 -0.00000000000E+00 -0.45593999997E+02  0.45594000000E+02  0.51100000000E-03 0. -1.
    9900012    2    1    2    0    0  0.89002798062E+01 -0.57308003960E+01 -0.15447442995E+02  0.72461533465E+02  0.69999952023E+02 0.  0.
        -12    1    1    2    0    0 -0.89002798062E+01  0.57308003960E+01  0.15447442995E+02  0.18726466535E+02  0.00000000000E+00 0.  1.
         11    1    3    3    0    0  0.88952483648E+00  0.19494543655E+01 -0.66102411230E+01  0.69488786666E+01  0.51100000000E-03 0. -1.
        -11    1    3    3    0    0  0.33996817473E+02 -0.48927719936E+01  0.68605023678E+01  0.35025552231E+02  0.51100000000E-03 0.  1.
        -12    1    3    3    0    0 -0.25986062503E+02 -0.27874827678E+01 -0.15697704239E+02  0.30487102568E+02  0.00000000000E+00 0.  1.
</event>
<event>
 7    1  0.1884848E-013  0.7246160E+02  0.7816164E-02  0.1226708E+00
        -11   -1    0    0    0    0  0.00000000000E+00  0.00000000000E+00  0.45593999997E+02  0.45594000000E+02  0.51100000000E-03 0. -1.
         11   -1    0    0    0    0 -0.00000000000E+00 -0.00000000000E+00 -0.45593999997E+02  0.45594000000E+02  0.51100000000E-03 0.  1.
    9900012    2    1    2    0    0  0.24602036762E+01 -0.80698624815E+01  0.16718336177E+02  0.72461600263E+02  0.70000039040E+02 0.  0.
        -12    1    1    2    0    0 -0.24602036762E+01  0.80698624815E+01 -0.16718336177E+02  0.18726399737E+02  0.00000000000E+00 0.  1.
         11    1    3    3    0    0 -0.20071249803E+02  0.15536282196E+02 -0.19339192753E+01  0.25455277982E+02  0.51100000000E-03 0. -1.
        -11    1    3    3    0    0 -0.94862077805E+00 -0.18642835763E+02  0.11660754847E+02  0.22009734449E+02  0.51100000000E-03 0.  1.
         12    1    3    3    0    0  0.23480074257E+02 -0.49633089139E+01  0.69915006048E+01  0.24996587832E+02  0.00000000000E+00 0. -1.
</event>
<event>
 7    1  0.1884848E-013  0.7246159E+02  0.7816164E-02  0.1226708E+00
        -11   -1    0    0    0    0  0.00000000000E+00  0.00000000000E+00  0.45593999997E+02  0.45594000000E+02  0.51100000000E-03 0.  1.
         11   -1    0    0    0    0 -0.00000000000E+00 -0.00000000000E+00 -0.45593999997E+02  0.45594000000E+02  0.51100000000E-03 0. -1.
    9900012    2    1    2    0    0 -0.94612622995E+01  0.77999992784E+01  0.14153547745E+02  0.72461591193E+02  0.70000027225E+02 0.  0.
        -12    1    1    2    0    0  0.94612622995E+01 -0.77999992784E+01 -0.14153547745E+02  0.18726408807E+02  0.00000000000E+00 0.  1.
         11    1    3    3    0    0 -0.11429837612E+02 -0.23795644092E+02  0.18096996101E+02  0.32005860928E+02  0.51100000000E-03 0.  1.
        -11    1    3    3    0    0  0.93647137544E+01  0.25172985460E+02 -0.10314075713E+02  0.28770770214E+02  0.51100000000E-03 0. -1.
         12    1    3    3    0    0 -0.73961384421E+01  0.64226579104E+01  0.63706273559E+01  0.11684960051E+02  0.00000000000E+00 0. -1.
</event>
<event>
 7    1  0.1884848E-013  0.7246155E+02  0.7816164E-02  0.1226708E+00
        -11   -1    0    0    0    0  0.00000000000E+00  0.00000000000E+00  0.45593999997E+02  0.45594000000E+02  0.51100000000E-03 0.  1.
         11   -1    0    0    0    0 -0.00000000000E+00 -0.00000000000E+00 -0.45593999997E+02  0.45594000000E+02  0.51100000000E-03 0. -1.
    9900012    2    1    2    0    0  0.60155712065E+01  0.85181995089E+01 -0.15554201347E+02  0.72461548137E+02  0.69999971136E+02 0.  0.
        -12    1    1    2    0    0 -0.60155712065E+01 -0.85181995089E+01  0.15554201347E+02  0.18726451863E+02  0.00000000000E+00 0.  1.
         11    1    3    3    0    0  0.21060994112E+02  0.48492435995E+01 -0.45667359221E+01  0.22089266935E+02  0.51100000000E-03 0. -1.
        -11    1    3    3    0    0 -0.12977638571E+02  0.23654023066E+02  0.95881739097E+00  0.26997245065E+02  0.51100000000E-03 0.  1.
         12    1    3    3    0    0 -0.20677843346E+01 -0.19985067156E+02 -0.11946282816E+02  0.23375036137E+02  0.00000000000E+00 0. -1.
</event>
<event>
 7    1  0.1884848E-013  0.7246157E+02  0.7816164E-02  0.1226708E+00
        -11   -1    0    0    0    0  0.00000000000E+00  0.00000000000E+00  0.45593999997E+02  0.45594000000E+02  0.51100000000E-03 0. -1.
         11   -1    0    0    0    0 -0.00000000000E+00 -0.00000000000E+00 -0.45593999997E+02  0.45594000000E+02  0.51100000000E-03 0.  1.
    9900012    2    1    2    0    0  0.14408135660E+02 -0.91050131665E+01 -0.77578043997E+01  0.72461570360E+02  0.70000000085E+02 0.  0.
        -12    1    1    2    0    0 -0.14408135660E+02  0.91050131665E+01  0.77578043997E+01  0.18726429640E+02  0.00000000000E+00 0.  1.
         11    1    3    3    0    0  0.33961776786E+02  0.99083885508E+01 -0.13825870289E+01  0.35404660616E+02  0.51100000000E-03 0. -1.
        -11    1    3    3    0    0 -0.15410484456E+01 -0.74649572266E+00 -0.10876870330E+02  0.11010830787E+02  0.51100000000E-03 0.  1.
         12    1    3    3    0    0 -0.18012592680E+02 -0.18266905995E+02  0.45016529595E+01  0.26046078957E+02  0.00000000000E+00 0. -1.
</event>
<event>
 7    1  0.1884848E-013  0.7246153E+02  0.7816164E-02  0.1226708E+00
        -11   -1    0    0    0    0  0.00000000000E+00  0.00000000000E+00  0.45593999997E+02  0.45594000000E+02  0.51100000000E-03 0. -1.
         11   -1    0    0    0    0 -0.00000000000E+00 -0.00000000000E+00 -0.45593999997E+02  0.45594000000E+02  0.51100000000E-03 0.  1.
    9900012    2    1    2    0    0  0.39737794622E+01 -0.10429777034E+02  0.15036939169E+02  0.72461529117E+02  0.69999946358E+02 0.  0.
        -12    1    1    2    0    0 -0.39737794622E+01  0.10429777034E+02 -0.15036939169E+02  0.18726470883E+02  0.00000000000E+00 0.  1.
         11    1    3    3    0    0  0.66876404026E+01 -0.82785885253E+01  0.22354897918E+02  0.24758857472E+02  0.51100000000E-03 0. -1.
        -11    1    3    3    0    0  0.68572009546E+01  0.20794096373E+02 -0.41018868842E+00  0.21899404191E+02  0.51100000000E-03 0.  1.
        -12    1    3    3    0    0 -0.95710618950E+01 -0.22945284881E+02 -0.69077700607E+01  0.25803267454E+02  0.00000000000E+00 0.  1.
</event>
<event>
 7    1  0.1884848E-013  0.7246157E+02  0.7816164E-02  0.1226708E+00
        -11   -1    0    0    0    0  0.00000000000E+00  0.00000000000E+00  0.45593999997E+02  0.45594000000E+02  0.51100000000E-03 0. -1.
         11   -1    0    0    0    0 -0.00000000000E+00 -0.00000000000E+00 -0.45593999997E+02  0.45594000000E+02  0.51100000000E-03 0.  1.
    9900012    2    1    2    0    0  0.15672686994E+02  0.98254245184E+01  0.29166794764E+01  0.72461572050E+02  0.70000002287E+02 0.  0.
        -12    1    1    2    0    0 -0.15672686994E+02 -0.98254245184E+01 -0.29166794764E+01  0.18726427950E+02  0.00000000000E+00 0.  1.
         11    1    3    3    0    0  0.83208784490E+01 -0.10153260256E+02  0.30625740536E+02  0.33320589665E+02  0.51100000000E-03 0. -1.
        -11    1    3    3    0    0  0.71771289461E+01  0.59918481978E+01 -0.22233872899E+02  0.24119670998E+02  0.51100000000E-03 0.  1.
         12    1    3    3    0    0  0.17467959922E+00  0.13986836577E+02 -0.54751881609E+01  0.15021311387E+02  0.00000000000E+00 0. -1.
</event>
<event>
 7    1  0.1884848E-013  0.7246167E+02  0.7816164E-02  0.1226708E+00
        -11   -1    0    0    0    0  0.00000000000E+00  0.00000000000E+00  0.45593999997E+02  0.45594000000E+02  0.51100000000E-03 0. -1.
         11   -1    0    0    0    0 -0.00000000000E+00 -0.00000000000E+00 -0.45593999997E+02  0.45594000000E+02  0.51100000000E-03 0.  1.
    9900012    2    1    2    0    0 -0.16819970970E+02 -0.23479991800E+01  0.78899300622E+01  0.72461667739E+02  0.70000126939E+02 0.  0.
        -12    1    1    2    0    0  0.16819970970E+02  0.23479991800E+01 -0.78899300622E+01  0.18726332261E+02  0.00000000000E+00 0.  1.
         11    1    3    3    0    0 -0.80843449966E+01 -0.28904927744E+02  0.13950306869E+02  0.33097772492E+02  0.51100000000E-03 0. -1.
        -11    1    3    3    0    0 -0.78542795677E+00 -0.20436836162E+01 -0.92522431503E+01  0.95077622694E+01  0.51100000000E-03 0.  1.
         12    1    3    3    0    0 -0.79501980165E+01  0.28600612180E+02  0.31918663433E+01  0.29856132977E+02  0.00000000000E+00 0. -1.
</event>
<event>
 7    1  0.1884848E-013  0.7246157E+02  0.7816164E-02  0.1226708E+00
        -11   -1    0    0    0    0  0.00000000000E+00  0.00000000000E+00  0.45593999997E+02  0.45594000000E+02  0.51100000000E-03 0. -1.
         11   -1    0    0    0    0 -0.00000000000E+00 -0.00000000000E+00 -0.45593999997E+02  0.45594000000E+02  0.51100000000E-03 0.  1.
    9900012    2    1    2    0    0  0.62295237374E+01 -0.17448857144E+02  0.27220651202E+01  0.72461568943E+02  0.69999998240E+02 0.  0.
        -12    1    1    2    0    0 -0.62295237374E+01  0.17448857144E+02 -0.27220651202E+01  0.18726431057E+02  0.00000000000E+00 0.  1.
         11    1    3    3    0    0 -0.69148043424E+01 -0.22496539171E+02  0.15366919170E+02  0.28107845858E+02  0.51100000000E-03 0.  1.
        -11    1    3    3    0    0 -0.57289595650E+01  0.17914423550E+02 -0.13091629281E+01  0.18853685493E+02  0.51100000000E-03 0. -1.
         12    1    3    3    0    0  0.18873287645E+02 -0.12866741523E+02 -0.11335691122E+02  0.25500037591E+02  0.00000000000E+00 0. -1.
</event>
<event>
 7    1  0.1884848E-013  0.7246153E+02  0.7816164E-02  0.1226708E+00
        -11   -1    0    0    0    0  0.00000000000E+00  0.00000000000E+00  0.45593999997E+02  0.45594000000E+02  0.51100000000E-03 0.  1.
         11   -1    0    0    0    0 -0.00000000000E+00 -0.00000000000E+00 -0.45593999997E+02  0.45594000000E+02  0.51100000000E-03 0. -1.
    9900012    2    1    2    0    0 -0.11657200271E+02 -0.88468564548E+01 -0.11684324624E+02  0.72461531320E+02  0.69999949229E+02 0.  0.
        -12    1    1    2    0    0  0.11657200271E+02  0.88468564548E+01  0.11684324624E+02  0.18726468680E+02  0.00000000000E+00 0.  1.
         11    1    3    3    0    0 -0.45181341739E+01 -0.52651700332E+01 -0.25350604247E+02  0.26282859202E+02  0.51100000000E-03 0. -1.
        -11    1    3    3    0    0  0.13643206056E+02  0.54334917769E+01  0.17878945078E+02  0.23136909511E+02  0.51100000000E-03 0.  1.
         12    1    3    3    0    0 -0.20782272153E+02 -0.90151781984E+01 -0.42126654546E+01  0.23041762607E+02  0.00000000000E+00 0. -1.
</event>
<event>
 7    1  0.1884848E-013  0.7246169E+02  0.7816164E-02  0.1226708E+00
        -11   -1    0    0    0    0  0.00000000000E+00  0.00000000000E+00  0.45593999997E+02  0.45594000000E+02  0.51100000000E-03 0. -1.
         11   -1    0    0    0    0 -0.00000000000E+00 -0.00000000000E+00 -0.45593999997E+02  0.45594000000E+02  0.51100000000E-03 0.  1.
    9900012    2    1    2    0    0 -0.15901836938E+02  0.89502927267E+01 -0.42069825518E+01  0.72461685357E+02  0.70000149891E+02 0.  0.
        -12    1    1    2    0    0  0.15901836938E+02 -0.89502927267E+01  0.42069825518E+01  0.18726314643E+02  0.00000000000E+00 0.  1.
         11    1    3    3    0    0 -0.27390263256E+02 -0.20984674066E+02 -0.19345481626E+01  0.34559015376E+02  0.51100000000E-03 0. -1.
        -11    1    3    3    0    0  0.24213521978E+01  0.24083447659E+02  0.52251602761E+01  0.24762425120E+02  0.51100000000E-03 0.  1.
         12    1    3    3    0    0  0.90670741196E+01  0.58515191336E+01 -0.74975946653E+01  0.13140244862E+02  0.00000000000E+00 0. -1.
</event>
<event>
 7    1  0.1884848E-013  0.7246153E+02  0.7816164E-02  0.1226708E+00
        -11   -1    0    0    0    0  0.00000000000E+00  0.00000000000E+00  0.45593999997E+02  0.45594000000E+02  0.51100000000E-03 0.  1.
         11   -1    0    0    0    0 -0.00000000000E+00 -0.00000000000E+00 -0.45593999997E+02  0.45594000000E+02  0.51100000000E-03 0. -1.
    9900012    2    1    2    0    0 -0.64065982404E+01  0.92684604551E+01 -0.14957669132E+02  0.72461528734E+02  0.69999945860E+02 0.  0.
        -12    1    1    2    0    0  0.64065982404E+01 -0.92684604551E+01  0.14957669132E+02  0.18726471266E+02  0.00000000000E+00 0.  1.
         11    1    3    3    0    0 -0.60582316448E+01 -0.12657397484E+02 -0.26838248850E+02  0.30285367479E+02  0.51100000000E-03 0. -1.
        -11    1    3    3    0    0 -0.41549068073E+00  0.69484611163E+01  0.22671589921E+02  0.23716128145E+02  0.51100000000E-03 0.  1.
         12    1    3    3    0    0  0.67124085189E-01  0.14977396823E+02 -0.10791010202E+02  0.18460033110E+02  0.00000000000E+00 0. -1.
</event>
<event>
 7    1  0.1884848E-013  0.7246154E+02  0.7816164E-02  0.1226708E+00
        -11   -1    0    0    0    0  0.00000000000E+00  0.00000000000E+00  0.45593999997E+02  0.45594000000E+02  0.51100000000E-03 0. -1.
         11   -1    0    0    0    0 -0.00000000000E+00 -0.00000000000E+00 -0.45593999997E+02  0.45594000000E+02  0.51100000000E-03 0.  1.
    9900012    2    1    2    0    0 -0.12404557923E+02 -0.92136420544E+01  0.10579034995E+02  0.72461541750E+02  0.69999962816E+02 0.  0.
        -12    1    1    2    0    0  0.12404557923E+02  0.92136420544E+01 -0.10579034995E+02  0.18726458250E+02  0.00000000000E+00 0.  1.
         11    1    3    3    0    0 -0.21857712925E+02 -0.46230603701E+01  0.15396621650E+02  0.27132789389E+02  0.51100000000E-03 0. -1.
        -11    1    3    3    0    0  0.21245072183E+02 -0.11496829974E+02  0.91095580527E+01  0.25816937070E+02  0.51100000000E-03 0.  1.
        -12    1    3    3    0    0 -0.11791917181E+02  0.69062482896E+01 -0.13927144708E+02  0.19511815291E+02  0.00000000000E+00 0.  1.
</event>
<event>
 7    1  0.1884848E-013  0.7246160E+02  0.7816164E-02  0.1226708E+00
        -11   -1    0    0    0    0  0.00000000000E+00  0.00000000000E+00  0.45593999997E+02  0.45594000000E+02  0.51100000000E-03 0. -1.
         11   -1    0    0    0    0 -0.00000000000E+00 -0.00000000000E+00 -0.45593999997E+02  0.45594000000E+02  0.51100000000E-03 0.  1.
    9900012    2    1    2    0    0  0.15858110947E+02 -0.97648371236E+01  0.19612493878E+01  0.72461595486E+02  0.70000032816E+02 0.  0.
        -12    1    1    2    0    0 -0.15858110947E+02  0.97648371236E+01 -0.19612493878E+01  0.18726404514E+02  0.00000000000E+00 0.  1.
         11    1    3    3    0    0  0.28901633167E+02 -0.29812619343E+01 -0.79160613111E+01  0.30114055678E+02  0.51100000000E-03 0. -1.
        -11    1    3    3    0    0 -0.18906516728E+02 -0.19468239989E+02  0.53668593580E+01  0.27663548628E+02  0.51100000000E-03 0.  1.
         12    1    3    3    0    0  0.58629945081E+01  0.12684664800E+02  0.45104513409E+01  0.14683991180E+02  0.00000000000E+00 0. -1.
</event>
<event>
 7    1  0.1884848E-013  0.7246165E+02  0.7816164E-02  0.1226708E+00
        -11   -1    0    0    0    0  0.00000000000E+00  0.00000000000E+00  0.45593999997E+02  0.45594000000E+02  0.51100000000E-03 0.  1.
         11   -1    0    0    0    0 -0.00000000000E+00 -0.00000000000E+00 -0.45593999997E+02  0.45594000000E+02  0.51100000000E-03 0. -1.
    9900012    2    1    2    0    0  0.58773637087E+01  0.15235392481E+02 -0.91660090965E+01  0.72461646619E+02  0.70000099426E+02 0.  0.
        -12    1    1    2    0    0 -0.58773637087E+01 -0.15235392481E+02  0.91660090965E+01  0.18726353381E+02  0.00000000000E+00 0.  1.
         11    1    3    3    0    0  0.86461630358E+01  0.31876277693E+02  0.12271445124E+02  0.35234096845E+02  0.51100000000E-03 0. -1.
        -11    1    3    3    0    0 -0.61209297491E+01 -0.20791020375E+02 -0.85846515146E+01  0.23311554026E+02  0.51100000000E-03 0.  1.
         12    1    3    3    0    0  0.33521304220E+01  0.41501351631E+01 -0.12852802706E+02  0.13915995747E+02  0.00000000000E+00 0. -1.
</event>
<event>
 7    1  0.1884848E-013  0.7246118E+02  0.7816164E-02  0.1226709E+00
        -11   -1    0    0    0    0  0.00000000000E+00  0.00000000000E+00  0.45593999997E+02  0.45594000000E+02  0.51100000000E-03 0. -1.
         11   -1    0    0    0    0 -0.00000000000E+00 -0.00000000000E+00 -0.45593999997E+02  0.45594000000E+02  0.51100000000E-03 0.  1.
    9900012    2    1    2    0    0 -0.91029306530E+01 -0.56223346442E+01  0.15369444790E+02  0.72461178954E+02  0.69999490205E+02 0.  0.
        -12    1    1    2    0    0  0.91029306530E+01  0.56223346442E+01 -0.15369444790E+02  0.18726821046E+02  0.00000000000E+00 0.  1.
         11    1    3    3    0    0  0.22536267779E+01 -0.28994937525E+02  0.24674636935E+02  0.38139519450E+02  0.51100000000E-03 0. -1.
        -11    1    3    3    0    0 -0.12940988537E+02  0.93226473938E+01 -0.11960136428E+02  0.19935541186E+02  0.51100000000E-03 0.  1.
         12    1    3    3    0    0  0.15844311058E+01  0.14049955487E+02  0.26549442841E+01  0.14386118318E+02  0.00000000000E+00 0. -1.
</event>
<event>
 7    1  0.1884848E-013  0.7246157E+02  0.7816164E-02  0.1226708E+00
        -11   -1    0    0    0    0  0.00000000000E+00  0.00000000000E+00  0.45593999997E+02  0.45594000000E+02  0.51100000000E-03 0.  1.
         11   -1    0    0    0    0 -0.00000000000E+00 -0.00000000000E+00 -0.45593999997E+02  0.45594000000E+02  0.51100000000E-03 0. -1.
    9900012    2    1    2    0    0  0.99974757504E+01  0.88750362233E+01 -0.13113475634E+02  0.72461573952E+02  0.70000004764E+02 0.  0.
        -12    1    1    2    0    0 -0.99974757504E+01 -0.88750362233E+01  0.13113475634E+02  0.18726426048E+02  0.00000000000E+00 0.  1.
         11    1    3    3    0    0 -0.25993184414E+01  0.25886871709E+01 -0.20387563273E+02  0.20714982358E+02  0.51100000000E-03 0. -1.
        -11    1    3    3    0    0  0.29844352296E+02 -0.54401325518E+01  0.33015289629E+01  0.30515250284E+02  0.51100000000E-03 0.  1.
        -12    1    3    3    0    0 -0.17247558104E+02  0.11726481604E+02  0.39725586758E+01  0.21231341310E+02  0.00000000000E+00 0.  1.
</event>
<event>
 7    1  0.1884848E-013  0.7246166E+02  0.7816164E-02  0.1226708E+00
        -11   -1    0    0    0    0  0.00000000000E+00  0.00000000000E+00  0.45593999997E+02  0.45594000000E+02  0.51100000000E-03 0.  1.
         11   -1    0    0    0    0 -0.00000000000E+00 -0.00000000000E+00 -0.45593999997E+02  0.45594000000E+02  0.51100000000E-03 0. -1.
    9900012    2    1    2    0    0  0.54734342270E+01 -0.17800256749E+02  0.19667857457E+01  0.72461658427E+02  0.70000114809E+02 0.  0.
        -12    1    1    2    0    0 -0.54734342270E+01  0.17800256749E+02 -0.19667857457E+01  0.18726341573E+02  0.00000000000E+00 0.  1.
         11    1    3    3    0    0 -0.25598090319E+02 -0.12346903851E+02 -0.12804688603E+02  0.31171594652E+02  0.51100000000E-03 0. -1.
        -11    1    3    3    0    0  0.92800384669E+01  0.98530219818E+00  0.16012417655E+02  0.18533414521E+02  0.51100000000E-03 0.  1.
        -12    1    3    3    0    0  0.21791486079E+02 -0.64386550959E+01 -0.12409433065E+01  0.22756649254E+02  0.00000000000E+00 0.  1.
</event>
<event>
 7    1  0.1884848E-013  0.7246164E+02  0.7816164E-02  0.1226708E+00
        -11   -1    0    0    0    0  0.00000000000E+00  0.00000000000E+00  0.45593999997E+02  0.45594000000E+02  0.51100000000E-03 0. -1.
         11   -1    0    0    0    0 -0.00000000000E+00 -0.00000000000E+00 -0.45593999997E+02  0.45594000000E+02  0.51100000000E-03 0.  1.
    9900012    2    1    2    0    0 -0.16114042036E+02  0.65279447421E+01 -0.69570204692E+01  0.72461640314E+02  0.70000091213E+02 0.  0.
        -12    1    1    2    0    0  0.16114042036E+02 -0.65279447421E+01  0.69570204692E+01  0.18726359686E+02  0.00000000000E+00 0.  1.
         11    1    3    3    0    0 -0.16846050372E+02  0.16209304320E+02 -0.67285353317E+01  0.24327025047E+02  0.51100000000E-03 0. -1.
        -11    1    3    3    0    0  0.42839068716E+01 -0.26795977080E+02 -0.89843921594E+01  0.28584883217E+02  0.51100000000E-03 0.  1.
         12    1    3    3    0    0 -0.35518985351E+01  0.17114617503E+02  0.87559070219E+01  0.19549732050E+02  0.00000000000E+00 0. -1.
</event>
<event>
 7    1  0.1884848E-013  0.7246157E+02  0.7816164E-02  0.1226708E+00
        -11   -1    0    0    0    0  0.00000000000E+00  0.00000000000E+00  0.45593999997E+02  0.45594000000E+02  0.51100000000E-03 0. -1.
         11   -1    0    0    0    0 -0.00000000000E+00 -0.00000000000E+00 -0.45593999997E+02  0.45594000000E+02  0.51100000000E-03 0.  1.
    9900012    2    1    2    0    0 -0.33953355666E+01  0.12833653505E+02 -0.13207881699E+02  0.72461572020E+02  0.70000002249E+02 0.  0.
        -12    1    1    2    0    0  0.33953355666E+01 -0.12833653505E+02  0.13207881699E+02  0.18726427980E+02  0.00000000000E+00 0.  1.
         11    1    3    3    0    0 -0.15594543480E+02  0.11374753773E+02  0.88146524390E+01  0.21219634955E+02  0.51100000000E-03 0. -1.
        -11    1    3    3    0    0  0.25701449728E+01 -0.11836477827E+02 -0.30463348758E+02  0.32782975312E+02  0.51100000000E-03 0.  1.
        -12    1    3    3    0    0  0.96290629406E+01  0.13295377559E+02  0.84408146201E+01  0.18458961753E+02  0.00000000000E+00 0.  1.
</event>
<event>
 7    1  0.1884848E-013  0.7246159E+02  0.7816164E-02  0.1226708E+00
        -11   -1    0    0    0    0  0.00000000000E+00  0.00000000000E+00  0.45593999997E+02  0.45594000000E+02  0.51100000000E-03 0. -1.
         11   -1    0    0    0    0 -0.00000000000E+00 -0.00000000000E+00 -0.45593999997E+02  0.45594000000E+02  0.51100000000E-03 0.  1.
    9900012    2    1    2    0    0  0.11890517138E+02 -0.90931321493E+01  0.11252069160E+02  0.72461587891E+02  0.70000022924E+02 0.  0.
        -12    1    1    2    0    0 -0.11890517138E+02  0.90931321493E+01 -0.11252069160E+02  0.18726412109E+02  0.00000000000E+00 0.  1.
         11    1    3    3    0    0 -0.21379458071E+02 -0.56360675225E+01  0.25355270820E+02  0.33641287775E+02  0.51100000000E-03 0. -1.
        -11    1    3    3    0    0  0.21229487758E+02 -0.57735129410E+01 -0.14838672367E+02  0.26536970438E+02  0.51100000000E-03 0.  1.
         12    1    3    3    0    0  0.12040487451E+02  0.23164483142E+01  0.73547070615E+00  0.12283329679E+02  0.00000000000E+00 0. -1.
</event>
<event>
 7    1  0.1884848E-013  0.7246157E+02  0.7816164E-02  0.1226708E+00
        -11   -1    0    0    0    0  0.00000000000E+00  0.00000000000E+00  0.45593999997E+02  0.45594000000E+02  0.51100000000E-03 0.  1.
         11   -1    0    0    0    0 -0.00000000000E+00 -0.00000000000E+00 -0.45593999997E+02  0.45594000000E+02  0.51100000000E-03 0. -1.
    9900012    2    1    2    0    0 -0.53032581781E+01  0.12598147627E+02 -0.12800054477E+02  0.72461567731E+02  0.69999996660E+02 0.  0.
        -12    1    1    2    0    0  0.53032581781E+01 -0.12598147627E+02  0.12800054477E+02  0.18726432269E+02  0.00000000000E+00 0.  1.
         11    1    3    3    0    0 -0.19027395714E+02  0.21055387354E+02 -0.12034057113E+02  0.30825146473E+02  0.51100000000E-03 0. -1.
        -11    1    3    3    0    0  0.10485304641E+02 -0.22191747653E+02 -0.79528691290E+01  0.25800453581E+02  0.51100000000E-03 0.  1.
        -12    1    3    3    0    0  0.32388328944E+01  0.13734507926E+02  0.71868717649E+01  0.15835967677E+02  0.00000000000E+00 0.  1.
</event>
<event>
 7    1  0.1884848E-013  0.7246152E+02  0.7816164E-02  0.1226708E+00
        -11   -1    0    0    0    0  0.00000000000E+00  0.00000000000E+00  0.45593999997E+02  0.45594000000E+02  0.51100000000E-03 0.  1.
         11   -1    0    0    0    0 -0.00000000000E+00 -0.00000000000E+00 -0.45593999997E+02  0.45594000000E+02  0.51100000000E-03 0. -1.
    9900012    2    1    2    0    0  0.58990877242E+00 -0.10986356033E+01 -0.18684914447E+02  0.72461520875E+02  0.69999935622E+02 0.  0.
        -12    1    1    2    0    0 -0.58990877242E+00  0.10986356033E+01  0.18684914447E+02  0.18726479125E+02  0.00000000000E+00 0.  1.
         11    1    3    3    0    0 -0.25959194381E+02  0.10888117015E+02 -0.12801410476E+02  0.30924213417E+02  0.51100000000E-03 0. -1.
        -11    1    3    3    0    0  0.21859611773E+02 -0.15111046773E+02  0.69955129934E+01  0.27479511709E+02  0.51100000000E-03 0.  1.
         12    1    3    3    0    0  0.46894913799E+01  0.31242941547E+01 -0.12879016964E+02  0.14057795749E+02  0.00000000000E+00 0. -1.
</event>
<event>
 7    1  0.1884848E-013  0.7246153E+02  0.7816164E-02  0.1226708E+00
        -11   -1    0    0    0    0  0.00000000000E+00  0.00000000000E+00  0.45593999997E+02  0.45594000000E+02  0.51100000000E-03 0. -1.
         11   -1    0    0    0    0 -0.00000000000E+00 -0.00000000000E+00 -0.45593999997E+02  0.45594000000E+02  0.51100000000E-03 0.  1.
    9900012    2    1    2    0    0  0.13131959632E+02  0.90211492408E+01 -0.98413037715E+01  0.72461527900E+02  0.69999944773E+02 0.  0.
        -12    1    1    2    0    0 -0.13131959632E+02 -0.90211492408E+01  0.98413037715E+01  0.18726472100E+02  0.00000000000E+00 0.  1.
         11    1    3    3    0    0 -0.73874137197E+00 -0.26342907334E+02 -0.18836731905E+02  0.32393162469E+02  0.51100000000E-03 0. -1.
        -11    1    3    3    0    0  0.42568972492E+01  0.17314762204E+02  0.26391967452E+00  0.17832325093E+02  0.51100000000E-03 0.  1.
         12    1    3    3    0    0  0.96138037543E+01  0.18049294371E+02  0.87315084594E+01  0.22236040337E+02  0.00000000000E+00 0. -1.
</event>
<event>
 7    1  0.1884848E-013  0.7246161E+02  0.7816164E-02  0.1226708E+00
        -11   -1    0    0    0    0  0.00000000000E+00  0.00000000000E+00  0.45593999997E+02  0.45594000000E+02  0.51100000000E-03 0. -1.
         11   -1    0    0    0    0 -0.00000000000E+00 -0.00000000000E+00 -0.45593999997E+02  0.45594000000E+02  0.51100000000E-03 0.  1.
    9900012    2    1    2    0    0 -0.20830147574E+01 -0.90347850145E+01 -0.16269953546E+02  0.72461610088E+02  0.70000051839E+02 0.  0.
        -12    1    1    2    0    0  0.20830147574E+01  0.90347850145E+01  0.16269953546E+02  0.18726389912E+02  0.00000000000E+00 0.  1.
         11    1    3    3    0    0 -0.25359827328E+02  0.61161855611E+01 -0.16692768838E+02  0.30970584426E+02  0.51100000000E-03 0. -1.
        -11    1    3    3    0    0  0.80429525348E+01 -0.13108708131E+02 -0.13715776736E+02  0.20607033898E+02  0.51100000000E-03 0.  1.
         12    1    3    3    0    0  0.15233860036E+02 -0.20422624444E+01  0.14138592028E+02  0.20883991765E+02  0.00000000000E+00 0. -1.
</event>
<event>
 7    1  0.1884848E-013  0.7246156E+02  0.7816164E-02  0.1226708E+00
        -11   -1    0    0    0    0  0.00000000000E+00  0.00000000000E+00  0.45593999997E+02  0.45594000000E+02  0.51100000000E-03 0. -1.
         11   -1    0    0    0    0 -0.00000000000E+00 -0.00000000000E+00 -0.45593999997E+02  0.45594000000E+02  0.51100000000E-03 0.  1.
    9900012    2    1    2    0    0 -0.10760058841E+01  0.88569038558E+01  0.16464418779E+02  0.72461558259E+02  0.69999984321E+02 0.  0.
        -12    1    1    2    0    0  0.10760058841E+01 -0.88569038558E+01 -0.16464418779E+02  0.18726441741E+02  0.00000000000E+00 0.  1.
         11    1    3    3    0    0 -0.21114932647E+02  0.25812000956E+02  0.12436771765E+02  0.35591755594E+02  0.51100000000E-03 0. -1.
        -11    1    3    3    0    0  0.84031890985E+01 -0.64295634512E+01 -0.10915802955E+02  0.15202224430E+02  0.51100000000E-03 0.  1.
         12    1    3    3    0    0  0.11635737665E+02 -0.10525533649E+02  0.14943449969E+02  0.21667578235E+02  0.00000000000E+00 0. -1.
</event>
<event>
 7    1  0.1884848E-013  0.7246163E+02  0.7816164E-02  0.1226708E+00
        -11   -1    0    0    0    0  0.00000000000E+00  0.00000000000E+00  0.45593999997E+02  0.45594000000E+02  0.51100000000E-03 0.  1.
         11   -1    0    0    0    0 -0.00000000000E+00 -0.00000000000E+00 -0.45593999997E+02  0.45594000000E+02  0.51100000000E-03 0. -1.
    9900012    2    1    2    0    0  0.18473129375E+02 -0.20017935493E+01  0.23266433749E+01  0.72461629404E+02  0.70000077001E+02 0.  0.
        -12    1    1    2    0    0 -0.18473129375E+02  0.20017935493E+01 -0.23266433749E+01  0.18726370596E+02  0.00000000000E+00 0.  1.
         11    1    3    3    0    0  0.13241638812E+01 -0.19183478400E+02 -0.39031061838E+01  0.19621251021E+02  0.51100000000E-03 0. -1.
        -11    1    3    3    0    0  0.19168972257E+02  0.23267064576E+02  0.20999148396E+02  0.36739216445E+02  0.51100000000E-03 0.  1.
        -12    1    3    3    0    0 -0.20200067632E+01 -0.60853797259E+01 -0.14769398837E+02  0.16101161937E+02  0.00000000000E+00 0.  1.
</event>
<event>
 7    1  0.1884848E-013  0.7246154E+02  0.7816164E-02  0.1226708E+00
        -11   -1    0    0    0    0  0.00000000000E+00  0.00000000000E+00  0.45593999997E+02  0.45594000000E+02  0.51100000000E-03 0.  1.
         11   -1    0    0    0    0 -0.00000000000E+00 -0.00000000000E+00 -0.45593999997E+02  0.45594000000E+02  0.51100000000E-03 0. -1.
    9900012    2    1    2    0    0 -0.65476525939E+01  0.16464741934E+02 -0.60597592912E+01  0.72461543739E+02  0.69999965407E+02 0.  0.
        -12    1    1    2    0    0  0.65476525939E+01 -0.16464741934E+02  0.60597592912E+01  0.18726456261E+02  0.00000000000E+00 0.  1.
         11    1    3    3    0    0  0.26265455690E+01  0.19801185133E+02 -0.23601022005E+02  0.30919151253E+02  0.51100000000E-03 0. -1.
        -11    1    3    3    0    0  0.18170225711E+00  0.11418056426E+02  0.20839317328E+02  0.23763042213E+02  0.51100000000E-03 0.  1.
        -12    1    3    3    0    0 -0.93559004200E+01 -0.14754499625E+02 -0.32980546147E+01  0.17779350272E+02  0.00000000000E+00 0.  1.
</event>
<event>
 7    1  0.1884848E-013  0.7246160E+02  0.7816164E-02  0.1226708E+00
        -11   -1    0    0    0    0  0.00000000000E+00  0.00000000000E+00  0.45593999997E+02  0.45594000000E+02  0.51100000000E-03 0.  1.
         11   -1    0    0    0    0 -0.00000000000E+00 -0.00000000000E+00 -0.45593999997E+02  0.45594000000E+02  0.51100000000E-03 0. -1.
    9900012    2    1    2    0    0  0.65411738998E+01  0.57584885080E+01 -0.16575005684E+02  0.72461602607E+02  0.70000042093E+02 0.  0.
        -12    1    1    2    0    0 -0.65411738998E+01 -0.57584885080E+01  0.16575005684E+02  0.18726397393E+02  0.00000000000E+00 0.  1.
         11    1    3    3    0    0  0.11895049990E+01 -0.61156508555E+01 -0.16393402724E+02  0.17537381807E+02  0.51100000000E-03 0. -1.
        -11    1    3    3    0    0  0.14646457247E+02 -0.95115123209E+00  0.22738250148E+02  0.27063839687E+02  0.51100000000E-03 0.  1.
        -12    1    3    3    0    0 -0.92947883459E+01  0.12825290596E+02 -0.22919853108E+02  0.27860381113E+02  0.00000000000E+00 0.  1.
</event>
<event>
 7    1  0.1884848E-013  0.7246158E+02  0.7816164E-02  0.1226708E+00
        -11   -1    0    0    0    0  0.00000000000E+00  0.00000000000E+00  0.45593999997E+02  0.45594000000E+02  0.51100000000E-03 0.  1.
         11   -1    0    0    0    0 -0.00000000000E+00 -0.00000000000E+00 -0.45593999997E+02  0.45594000000E+02  0.51100000000E-03 0. -1.
    9900012    2    1    2    0    0  0.82620143031E+01  0.14689732323E+02 -0.81627033017E+01  0.72461579059E+02  0.70000011418E+02 0.  0.
        -12    1    1    2    0    0 -0.82620143031E+01 -0.14689732323E+02  0.81627033017E+01  0.18726420941E+02  0.00000000000E+00 0.  1.
         11    1    3    3    0    0  0.34176972911E+02  0.13744680563E+02  0.10869497474E+02  0.38407391173E+02  0.51100000000E-03 0. -1.
        -11    1    3    3    0    0 -0.95944470205E+01  0.28668835145E+01 -0.16766993221E+01  0.10153017068E+02  0.51100000000E-03 0.  1.
         12    1    3    3    0    0 -0.16320511587E+02 -0.19218317547E+01 -0.17355501454E+02  0.23901170818E+02  0.00000000000E+00 0. -1.
</event>
<event>
 7    1  0.1884848E-013  0.7246153E+02  0.7816164E-02  0.1226708E+00
        -11   -1    0    0    0    0  0.00000000000E+00  0.00000000000E+00  0.45593999997E+02  0.45594000000E+02  0.51100000000E-03 0.  1.
         11   -1    0    0    0    0 -0.00000000000E+00 -0.00000000000E+00 -0.45593999997E+02  0.45594000000E+02  0.51100000000E-03 0. -1.
    9900012    2    1    2    0    0 -0.90222667605E+01 -0.15714584391E+02  0.47255892132E+01  0.72461530672E+02  0.69999948385E+02 0.  0.
        -12    1    1    2    0    0  0.90222667605E+01  0.15714584391E+02 -0.47255892132E+01  0.18726469328E+02  0.00000000000E+00 0.  1.
         11    1    3    3    0    0 -0.17473614489E+02 -0.98296367742E+01 -0.24374106972E+02  0.31560197297E+02  0.51100000000E-03 0. -1.
        -11    1    3    3    0    0  0.13825004565E+01 -0.21980412378E+01  0.32231332110E+02  0.32335761359E+02  0.51100000000E-03 0.  1.
        -12    1    3    3    0    0  0.70688472724E+01 -0.36869063787E+01 -0.31316359247E+01  0.85655720166E+01  0.00000000000E+00 0.  1.
</event>
<event>
 7    1  0.1884848E-013  0.7246155E+02  0.7816164E-02  0.1226708E+00
        -11   -1    0    0    0    0  0.00000000000E+00  0.00000000000E+00  0.45593999997E+02  0.45594000000E+02  0.51100000000E-03 0. -1.
         11   -1    0    0    0    0 -0.00000000000E+00 -0.00000000000E+00 -0.45593999997E+02  0.45594000000E+02  0.51100000000E-03 0.  1.
    9900012    2    1    2    0    0  0.14827881756E+02  0.72407311271E+01 -0.88535641782E+01  0.72461551771E+02  0.69999975870E+02 0.  0.
        -12    1    1    2    0    0 -0.14827881756E+02 -0.72407311271E+01  0.88535641782E+01  0.18726448229E+02  0.00000000000E+00 0.  1.
         11    1    3    3    0    0  0.31088918103E+01 -0.14123840536E+02 -0.77816193969E+01  0.16422596642E+02  0.51100000000E-03 0. -1.
        -11    1    3    3    0    0  0.21368457186E+02  0.23288710121E+02  0.16683430768E+02  0.35739499773E+02  0.51100000000E-03 0.  1.
        -12    1    3    3    0    0 -0.96494672402E+01 -0.19241384573E+01 -0.17755375549E+02  0.20299455355E+02  0.00000000000E+00 0.  1.
</event>
<event>
 7    1  0.1884848E-013  0.7246156E+02  0.7816164E-02  0.1226708E+00
        -11   -1    0    0    0    0  0.00000000000E+00  0.00000000000E+00  0.45593999997E+02  0.45594000000E+02  0.51100000000E-03 0. -1.
         11   -1    0    0    0    0 -0.00000000000E+00 -0.00000000000E+00 -0.45593999997E+02  0.45594000000E+02  0.51100000000E-03 0.  1.
    9900012    2    1    2    0    0  0.13203328621E+01  0.14108944984E+02  0.12242298388E+02  0.72461562078E+02  0.69999989297E+02 0.  0.
        -12    1    1    2    0    0 -0.13203328621E+01 -0.14108944984E+02 -0.12242298388E+02  0.18726437922E+02  0.00000000000E+00 0.  1.
         11    1    3    3    0    0  0.21954877885E+02  0.31061903642E+02  0.55555416272E+01  0.38441157161E+02  0.51100000000E-03 0. -1.
        -11    1    3    3    0    0 -0.13167769780E+02  0.16781753518E+01  0.22377477906E+01  0.13461573048E+02  0.51100000000E-03 0.  1.
         12    1    3    3    0    0 -0.74667752434E+01 -0.18631134010E+02  0.44490089701E+01  0.20558831870E+02  0.00000000000E+00 0. -1.
</event>
<event>
 7    1  0.1884848E-013  0.7246158E+02  0.7816164E-02  0.1226708E+00
        -11   -1    0    0    0    0  0.00000000000E+00  0.00000000000E+00  0.45593999997E+02  0.45594000000E+02  0.51100000000E-03 0.  1.
         11   -1    0    0    0    0 -0.00000000000E+00 -0.00000000000E+00 -0.45593999997E+02  0.45594000000E+02  0.51100000000E-03 0. -1.
    9900012    2    1    2    0    0 -0.14546416798E+02  0.39270112912E+00 -0.11786708416E+02  0.72461576126E+02  0.70000007596E+02 0.  0.
        -12    1    1    2    0    0  0.14546416798E+02 -0.39270112912E+00  0.11786708416E+02  0.18726423874E+02  0.00000000000E+00 0.  1.
         11    1    3    3    0    0 -0.43844585198E+01  0.57529224640E+01 -0.33756142266E+02  0.34522409162E+02  0.51100000000E-03 0. -1.
        -11    1    3    3    0    0  0.52686136991E+01  0.47556095966E+01  0.17601197682E+02  0.18978310595E+02  0.51100000000E-03 0.  1.
        -12    1    3    3    0    0 -0.15430571978E+02 -0.10115830931E+02  0.43682361686E+01  0.18960856368E+02  0.00000000000E+00 0.  1.
</event>
<event>
 7    1  0.1884848E-013  0.7246155E+02  0.7816164E-02  0.1226708E+00
        -11   -1    0    0    0    0  0.00000000000E+00  0.00000000000E+00  0.45593999997E+02  0.45594000000E+02  0.51100000000E-03 0. -1.
         11   -1    0    0    0    0 -0.00000000000E+00 -0.00000000000E+00 -0.45593999997E+02  0.45594000000E+02  0.51100000000E-03 0.  1.
    9900012    2    1    2    0    0 -0.26788584943E+01  0.70517725296E+01  0.17139896651E+02  0.72461552504E+02  0.69999976824E+02 0.  0.
        -12    1    1    2    0    0  0.26788584943E+01 -0.70517725296E+01 -0.17139896651E+02  0.18726447496E+02  0.00000000000E+00 0.  1.
         11    1    3    3    0    0  0.21198897844E+02 -0.18127156010E+02  0.88796568104E+01  0.29271750206E+02  0.51100000000E-03 0.  1.
        -11    1    3    3    0    0 -0.23988785357E+02  0.12106152123E+02 -0.14428382853E+01  0.26909153177E+02  0.51100000000E-03 0. -1.
        -12    1    3    3    0    0  0.11102901875E+00  0.13072776417E+02  0.97030781254E+01  0.16280649121E+02  0.00000000000E+00 0.  1.
</event>
<event>
 7    1  0.1884848E-013  0.7246156E+02  0.7816164E-02  0.1226708E+00
        -11   -1    0    0    0    0  0.00000000000E+00  0.00000000000E+00  0.45593999997E+02  0.45594000000E+02  0.51100000000E-03 0.  1.
         11   -1    0    0    0    0 -0.00000000000E+00 -0.00000000000E+00 -0.45593999997E+02  0.45594000000E+02  0.51100000000E-03 0. -1.
    9900012    2    1    2    0    0 -0.31167427595E+01 -0.10330358949E+02 -0.15305204535E+02  0.72461556470E+02  0.69999981991E+02 0.  0.
        -12    1    1    2    0    0  0.31167427595E+01  0.10330358949E+02  0.15305204535E+02  0.18726443530E+02  0.00000000000E+00 0.  1.
         11    1    3    3    0    0  0.17154669724E+02 -0.94666973060E+01 -0.34073384074E+02  0.39305172099E+02  0.51100000000E-03 0. -1.
        -11    1    3    3    0    0 -0.78868943158E+01 -0.65247022965E+01  0.33814069097E+00  0.10241541944E+02  0.51100000000E-03 0.  1.
         12    1    3    3    0    0 -0.12384518167E+02  0.56610406536E+01  0.18430038848E+02  0.22914842427E+02  0.00000000000E+00 0. -1.
</event>
<event>
 7    1  0.1884848E-013  0.7246157E+02  0.7816164E-02  0.1226708E+00
        -11   -1    0    0    0    0  0.00000000000E+00  0.00000000000E+00  0.45593999997E+02  0.45594000000E+02  0.51100000000E-03 0.  1.
         11   -1    0    0    0    0 -0.00000000000E+00 -0.00000000000E+00 -0.45593999997E+02  0.45594000000E+02  0.51100000000E-03 0. -1.
    9900012    2    1    2    0    0  0.65581291607E+00  0.48851562344E+01 -0.18066105966E+02  0.72461574105E+02  0.70000004964E+02 0.  0.
        -12    1    1    2    0    0 -0.65581291607E+00 -0.48851562344E+01  0.18066105966E+02  0.18726425895E+02  0.00000000000E+00 0.  1.
         11    1    3    3    0    0  0.25998696634E+02  0.84602671781E+01 -0.35932372686E+01  0.27575708545E+02  0.51100000000E-03 0.  1.
        -11    1    3    3    0    0 -0.18176283305E+02  0.11460063282E+02  0.18478085917E+01  0.21566750383E+02  0.51100000000E-03 0. -1.
         12    1    3    3    0    0 -0.71666004135E+01 -0.15035174226E+02 -0.16320677289E+02  0.23319115178E+02  0.00000000000E+00 0. -1.
</event>
<event>
 7    1  0.2114434E-013  0.7246160E+02  0.7816164E-02  0.1226708E+00
        -11   -1    0    0    0    0  0.00000000000E+00  0.00000000000E+00  0.45593999997E+02  0.45594000000E+02  0.51100000000E-03 0.  1.
         11   -1    0    0    0    0 -0.00000000000E+00 -0.00000000000E+00 -0.45593999997E+02  0.45594000000E+02  0.51100000000E-03 0. -1.
    9900012    2    1    2    0    0 -0.15354949789E+01  0.14213453420E+02  0.12095370148E+02  0.72461602002E+02  0.70000041305E+02 0.  0.
        -12    1    1    2    0    0  0.15354949789E+01 -0.14213453420E+02 -0.12095370148E+02  0.18726397998E+02  0.00000000000E+00 0.  1.
         11    1    3    3    0    0  0.12109375732E+01  0.15418887101E+02  0.27415246021E+02  0.31477041854E+02  0.51100000000E-03 0.  1.
        -11    1    3    3    0    0 -0.74530522480E+01 -0.18451816315E+02 -0.10343448706E+02  0.22427760578E+02  0.51100000000E-03 0. -1.
         12    1    3    3    0    0  0.47066196960E+01  0.17246382635E+02 -0.49764271670E+01  0.18556799570E+02  0.00000000000E+00 0. -1.
</event>
<event>
 7    1  0.1884848E-013  0.7246155E+02  0.7816164E-02  0.1226708E+00
        -11   -1    0    0    0    0  0.00000000000E+00  0.00000000000E+00  0.45593999997E+02  0.45594000000E+02  0.51100000000E-03 0. -1.
         11   -1    0    0    0    0 -0.00000000000E+00 -0.00000000000E+00 -0.45593999997E+02  0.45594000000E+02  0.51100000000E-03 0.  1.
    9900012    2    1    2    0    0  0.43243258848E+01 -0.14074629767E+02  0.11570869560E+02  0.72461547592E+02  0.69999970425E+02 0.  0.
        -12    1    1    2    0    0 -0.43243258848E+01  0.14074629767E+02 -0.11570869560E+02  0.18726452408E+02  0.00000000000E+00 0.  1.
         11    1    3    3    0    0 -0.22398594300E+01 -0.56136850300E+01  0.30500068068E+02  0.31093159735E+02  0.51100000000E-03 0. -1.
        -11    1    3    3    0    0  0.14200250711E+02  0.47205034527E+01 -0.21217792006E+02  0.25963916710E+02  0.51100000000E-03 0.  1.
         12    1    3    3    0    0 -0.76360653958E+01 -0.13181448189E+02  0.22885934979E+01  0.15404471146E+02  0.00000000000E+00 0. -1.
</event>
<event>
 7    1  0.1884848E-013  0.7246157E+02  0.7816164E-02  0.1226708E+00
        -11   -1    0    0    0    0  0.00000000000E+00  0.00000000000E+00  0.45593999997E+02  0.45594000000E+02  0.51100000000E-03 0. -1.
         11   -1    0    0    0    0 -0.00000000000E+00 -0.00000000000E+00 -0.45593999997E+02  0.45594000000E+02  0.51100000000E-03 0.  1.
    9900012    2    1    2    0    0 -0.16990925590E+02 -0.62249224378E+01 -0.48205919701E+01  0.72461566311E+02  0.69999994811E+02 0.  0.
        -12    1    1    2    0    0  0.16990925590E+02  0.62249224378E+01  0.48205919701E+01  0.18726433689E+02  0.00000000000E+00 0.  1.
         11    1    3    3    0    0 -0.11546447602E+02 -0.91364494930E+01 -0.18135525285E+02  0.23360060771E+02  0.51100000000E-03 0.  1.
        -11    1    3    3    0    0  0.33941124601E+01  0.15774323478E+02  0.24895776865E+02  0.29667305010E+02  0.51100000000E-03 0. -1.
        -12    1    3    3    0    0 -0.88385904483E+01 -0.12862796422E+02 -0.11580843550E+02  0.19434200530E+02  0.00000000000E+00 0.  1.
</event>
<event>
 7    1  0.1884848E-013  0.7246158E+02  0.7816164E-02  0.1226708E+00
        -11   -1    0    0    0    0  0.00000000000E+00  0.00000000000E+00  0.45593999997E+02  0.45594000000E+02  0.51100000000E-03 0. -1.
         11   -1    0    0    0    0 -0.00000000000E+00 -0.00000000000E+00 -0.45593999997E+02  0.45594000000E+02  0.51100000000E-03 0.  1.
    9900012    2    1    2    0    0 -0.17523092010E+02  0.65091520572E+01 -0.11184694491E+01  0.72461580481E+02  0.70000013270E+02 0.  0.
        -12    1    1    2    0    0  0.17523092010E+02 -0.65091520572E+01  0.11184694491E+01  0.18726419519E+02  0.00000000000E+00 0.  1.
         11    1    3    3    0    0 -0.23891842370E+02  0.25914289864E+02  0.21388902353E+02  0.41229306265E+02  0.51100000000E-03 0. -1.
        -11    1    3    3    0    0  0.76050119890E+01 -0.12759019350E+02 -0.16329840982E+02  0.22074702464E+02  0.51100000000E-03 0.  1.
        -12    1    3    3    0    0 -0.12362616295E+01 -0.66461184571E+01 -0.61775308196E+01  0.91575717518E+01  0.00000000000E+00 0.  1.
</event>
<event>
 7    1  0.1884848E-013  0.7246157E+02  0.7816164E-02  0.1226708E+00
        -11   -1    0    0    0    0  0.00000000000E+00  0.00000000000E+00  0.45593999997E+02  0.45594000000E+02  0.51100000000E-03 0. -1.
         11   -1    0    0    0    0 -0.00000000000E+00 -0.00000000000E+00 -0.45593999997E+02  0.45594000000E+02  0.51100000000E-03 0.  1.
    9900012    2    1    2    0    0  0.28525259657E+01  0.95669527147E+01  0.15843480044E+02  0.72461565515E+02  0.69999993774E+02 0.  0.
        -12    1    1    2    0    0 -0.28525259657E+01 -0.95669527147E+01 -0.15843480044E+02  0.18726434485E+02  0.00000000000E+00 0.  1.
         11    1    3    3    0    0  0.15975259448E+01  0.13642258430E+02  0.42199056056E+02  0.44378188748E+02  0.51100000000E-03 0. -1.
        -11    1    3    3    0    0 -0.27917564953E+01  0.11475198200E+01 -0.99348306788E+01  0.10383234898E+02  0.51100000000E-03 0.  1.
         12    1    3    3    0    0  0.40467565161E+01 -0.52228255353E+01 -0.16420745334E+02  0.17700141869E+02  0.00000000000E+00 0. -1.
</event>
<event>
 7    1  0.1884848E-013  0.7246162E+02  0.7816164E-02  0.1226708E+00
        -11   -1    0    0    0    0  0.00000000000E+00  0.00000000000E+00  0.45593999997E+02  0.45594000000E+02  0.51100000000E-03 0.  1.
         11   -1    0    0    0    0 -0.00000000000E+00 -0.00000000000E+00 -0.45593999997E+02  0.45594000000E+02  0.51100000000E-03 0. -1.
    9900012    2    1    2    0    0  0.16722641219E+02 -0.64830822219E+01 -0.53851710938E+01  0.72461624159E+02  0.70000070168E+02 0.  0.
        -12    1    1    2    0    0 -0.16722641219E+02  0.64830822219E+01  0.53851710938E+01  0.18726375841E+02  0.00000000000E+00 0.  1.
         11    1    3    3    0    0 -0.88693582446E+01 -0.17027228251E+02 -0.11515210045E+02  0.22387319631E+02  0.51100000000E-03 0. -1.
        -11    1    3    3    0    0  0.35613268345E+02  0.14327540740E+02  0.79695564573E+01  0.39205830386E+02  0.51100000000E-03 0.  1.
        -12    1    3    3    0    0 -0.10021268881E+02 -0.37833947102E+01 -0.18395175058E+01  0.10868474142E+02  0.00000000000E+00 0.  1.
</event>
<event>
 7    1  0.1884848E-013  0.7246158E+02  0.7816164E-02  0.1226708E+00
        -11   -1    0    0    0    0  0.00000000000E+00  0.00000000000E+00  0.45593999997E+02  0.45594000000E+02  0.51100000000E-03 0.  1.
         11   -1    0    0    0    0 -0.00000000000E+00 -0.00000000000E+00 -0.45593999997E+02  0.45594000000E+02  0.51100000000E-03 0. -1.
    9900012    2    1    2    0    0 -0.12379054865E+01  0.44672983071E+01 -0.18143584245E+02  0.72461579803E+02  0.70000012386E+02 0.  0.
        -12    1    1    2    0    0  0.12379054865E+01 -0.44672983071E+01  0.18143584245E+02  0.18726420197E+02  0.00000000000E+00 0.  1.
         11    1    3    3    0    0  0.29717924549E+01  0.27441496463E+02 -0.20564080995E+02  0.34420178761E+02  0.51100000000E-03 0.  1.
        -11    1    3    3    0    0  0.11635503845E+02 -0.17792128112E+02  0.55436594201E+00  0.21266219559E+02  0.51100000000E-03 0. -1.
        -12    1    3    3    0    0 -0.15845201786E+02 -0.51820700435E+01  0.18661308082E+01  0.16775181483E+02  0.00000000000E+00 0.  1.
</event>
<event>
 7    1  0.1884848E-013  0.7246156E+02  0.7816164E-02  0.1226708E+00
        -11   -1    0    0    0    0  0.00000000000E+00  0.00000000000E+00  0.45593999997E+02  0.45594000000E+02  0.51100000000E-03 0. -1.
         11   -1    0    0    0    0 -0.00000000000E+00 -0.00000000000E+00 -0.45593999997E+02  0.45594000000E+02  0.51100000000E-03 0.  1.
    9900012    2    1    2    0    0  0.41866434059E+01 -0.59836892632E+01  0.17243748626E+02  0.72461564490E+02  0.69999992439E+02 0.  0.
        -12    1    1    2    0    0 -0.41866434059E+01  0.59836892632E+01 -0.17243748626E+02  0.18726435510E+02  0.00000000000E+00 0.  1.
         11    1    3    3    0    0  0.16753274220E+02 -0.19877027686E+02 -0.12432211081E+02  0.28815417737E+02  0.51100000000E-03 0. -1.
        -11    1    3    3    0    0 -0.11396453103E+02 -0.17347745945E+01  0.18008089240E+01  0.11667540411E+02  0.51100000000E-03 0.  1.
         12    1    3    3    0    0 -0.11701777119E+01  0.15628113017E+02  0.27875150784E+02  0.31978606342E+02  0.00000000000E+00 0. -1.
</event>
<event>
 7    1  0.1884848E-013  0.7246163E+02  0.7816164E-02  0.1226708E+00
        -11   -1    0    0    0    0  0.00000000000E+00  0.00000000000E+00  0.45593999997E+02  0.45594000000E+02  0.51100000000E-03 0.  1.
         11   -1    0    0    0    0 -0.00000000000E+00 -0.00000000000E+00 -0.45593999997E+02  0.45594000000E+02  0.51100000000E-03 0. -1.
    9900012    2    1    2    0    0 -0.15825097359E+02  0.61421704737E+01 -0.79067598020E+01  0.72461633157E+02  0.70000081891E+02 0.  0.
        -12    1    1    2    0    0  0.15825097359E+02 -0.61421704737E+01  0.79067598020E+01  0.18726366843E+02  0.00000000000E+00 0.  1.
         11    1    3    3    0    0 -0.36166231414E+02  0.12718070447E+02 -0.75729405829E+01  0.39078063411E+02  0.51100000000E-03 0.  1.
        -11    1    3    3    0    0  0.23526299485E+02 -0.12016206303E+02 -0.29022573065E+01  0.26576287911E+02  0.51100000000E-03 0. -1.
         12    1    3    3    0    0 -0.31851654306E+01  0.54403063297E+01  0.25684380874E+01  0.68072818356E+01  0.00000000000E+00 0. -1.
</event>
<event>
 7    1  0.1884848E-013  0.7246156E+02  0.7816164E-02  0.1226708E+00
        -11   -1    0    0    0    0  0.00000000000E+00  0.00000000000E+00  0.45593999997E+02  0.45594000000E+02  0.51100000000E-03 0.  1.
         11   -1    0    0    0    0 -0.00000000000E+00 -0.00000000000E+00 -0.45593999997E+02  0.45594000000E+02  0.51100000000E-03 0. -1.
    9900012    2    1    2    0    0  0.27840645744E+01  0.18886248869E-01 -0.18518322138E+02  0.72461558078E+02  0.69999984086E+02 0.  0.
        -12    1    1    2    0    0 -0.27840645744E+01 -0.18886248869E-01  0.18518322138E+02  0.18726441922E+02  0.00000000000E+00 0.  1.
         11    1    3    3    0    0 -0.16095494334E+02 -0.47419849118E+01 -0.40141149292E+01  0.17252955622E+02  0.51100000000E-03 0. -1.
        -11    1    3    3    0    0  0.15139469331E+02 -0.21739749450E+02 -0.65786988588E+01  0.27296511072E+02  0.51100000000E-03 0.  1.
        -12    1    3    3    0    0  0.37400895777E+01  0.26500620611E+02 -0.79255083499E+01  0.27912091384E+02  0.00000000000E+00 0.  1.
</event>
<event>
 7    1  0.1884848E-013  0.7246150E+02  0.7816164E-02  0.1226708E+00
        -11   -1    0    0    0    0  0.00000000000E+00  0.00000000000E+00  0.45593999997E+02  0.45594000000E+02  0.51100000000E-03 0.  1.
         11   -1    0    0    0    0 -0.00000000000E+00 -0.00000000000E+00 -0.45593999997E+02  0.45594000000E+02  0.51100000000E-03 0. -1.
    9900012    2    1    2    0    0 -0.16724246985E+02 -0.36157952853E+01  0.76096784322E+01  0.72461504903E+02  0.69999914816E+02 0.  0.
        -12    1    1    2    0    0  0.16724246985E+02  0.36157952853E+01 -0.76096784322E+01  0.18726495097E+02  0.00000000000E+00 0.  1.
         11    1    3    3    0    0 -0.71080529597E+01  0.16685285780E+02 -0.57467094683E+01  0.19024927028E+02  0.51100000000E-03 0. -1.
        -11    1    3    3    0    0 -0.60331489524E+01 -0.24441115292E+02 -0.11720192078E+02  0.27769225873E+02  0.51100000000E-03 0.  1.
        -12    1    3    3    0    0 -0.35830450729E+01  0.41400342268E+01  0.25076579979E+02  0.25667352003E+02  0.00000000000E+00 0.  1.
</event>
<event>
 7    1  0.1884848E-013  0.7246159E+02  0.7816164E-02  0.1226708E+00
        -11   -1    0    0    0    0  0.00000000000E+00  0.00000000000E+00  0.45593999997E+02  0.45594000000E+02  0.51100000000E-03 0.  1.
         11   -1    0    0    0    0 -0.00000000000E+00 -0.00000000000E+00 -0.45593999997E+02  0.45594000000E+02  0.51100000000E-03 0. -1.
    9900012    2    1    2    0    0 -0.86738269864E+01  0.16593749714E+02 -0.30114254751E+00  0.72461588411E+02  0.70000023600E+02 0.  0.
        -12    1    1    2    0    0  0.86738269864E+01 -0.16593749714E+02  0.30114254751E+00  0.18726411589E+02  0.00000000000E+00 0.  1.
         11    1    3    3    0    0 -0.26351010046E+02  0.49527682189E+01  0.58251889876E+01  0.27437902078E+02  0.51100000000E-03 0. -1.
        -11    1    3    3    0    0  0.15182791305E+02  0.25924517274E+02 -0.52409942334E+01  0.30496979662E+02  0.51100000000E-03 0.  1.
        -12    1    3    3    0    0  0.24943917545E+01 -0.14283535778E+02 -0.88533730174E+00  0.14526706670E+02  0.00000000000E+00 0.  1.
</event>
<event>
 7    1  0.1884848E-013  0.7246157E+02  0.7816164E-02  0.1226708E+00
        -11   -1    0    0    0    0  0.00000000000E+00  0.00000000000E+00  0.45593999997E+02  0.45594000000E+02  0.51100000000E-03 0.  1.
         11   -1    0    0    0    0 -0.00000000000E+00 -0.00000000000E+00 -0.45593999997E+02  0.45594000000E+02  0.51100000000E-03 0. -1.
    9900012    2    1    2    0    0 -0.16223822821E+02  0.61412311847E+01  0.70535033267E+01  0.72461573310E+02  0.70000003928E+02 0.  0.
        -12    1    1    2    0    0  0.16223822821E+02 -0.61412311847E+01 -0.70535033267E+01  0.18726426690E+02  0.00000000000E+00 0.  1.
         11    1    3    3    0    0 -0.11133655531E+02  0.75822611230E+01 -0.24607541604E+02  0.28053165120E+02  0.51100000000E-03 0. -1.
        -11    1    3    3    0    0  0.20862067697E+01 -0.21006481224E+01  0.35917062285E+02  0.36038872688E+02  0.51100000000E-03 0.  1.
        -12    1    3    3    0    0 -0.71763740597E+01  0.65961818413E+00 -0.42560173539E+01  0.83695355015E+01  0.00000000000E+00 0.  1.
</event>
<event>
 7    1  0.1884848E-013  0.7246152E+02  0.7816164E-02  0.1226708E+00
        -11   -1    0    0    0    0  0.00000000000E+00  0.00000000000E+00  0.45593999997E+02  0.45594000000E+02  0.51100000000E-03 0.  1.
         11   -1    0    0    0    0 -0.00000000000E+00 -0.00000000000E+00 -0.45593999997E+02  0.45594000000E+02  0.51100000000E-03 0. -1.
    9900012    2    1    2    0    0  0.10902217205E+02 -0.77173082973E+01 -0.13125004229E+02  0.72461523467E+02  0.69999938999E+02 0.  0.
        -12    1    1    2    0    0 -0.10902217205E+02  0.77173082973E+01  0.13125004229E+02  0.18726476533E+02  0.00000000000E+00 0.  1.
         11    1    3    3    0    0 -0.12697776481E+02 -0.71678161990E+01 -0.23658433414E+02  0.27790872395E+02  0.51100000000E-03 0. -1.
        -11    1    3    3    0    0 -0.48957230637E+00  0.94846108933E+01  0.15430843657E+02  0.18119284232E+02  0.51100000000E-03 0.  1.
         12    1    3    3    0    0  0.24089565992E+02 -0.10034102992E+02 -0.48974144719E+01  0.26551366840E+02  0.00000000000E+00 0. -1.
</event>
<event>
 7    1  0.1884848E-013  0.7246153E+02  0.7816164E-02  0.1226708E+00
        -11   -1    0    0    0    0  0.00000000000E+00  0.00000000000E+00  0.45593999997E+02  0.45594000000E+02  0.51100000000E-03 0. -1.
         11   -1    0    0    0    0 -0.00000000000E+00 -0.00000000000E+00 -0.45593999997E+02  0.45594000000E+02  0.51100000000E-03 0.  1.
    9900012    2    1    2    0    0  0.84249139605E+01 -0.46106697881E+01  0.16076166520E+02  0.72461532604E+02  0.69999950901E+02 0.  0.
        -12    1    1    2    0    0 -0.84249139605E+01  0.46106697881E+01 -0.16076166520E+02  0.18726467396E+02  0.00000000000E+00 0.  1.
         11    1    3    3    0    0 -0.14733514009E+01 -0.18527917402E+01  0.38951701205E+02  0.39023565042E+02  0.51100000000E-03 0. -1.
        -11    1    3    3    0    0  0.30911846580E+01  0.87163325924E+01 -0.34470121194E+01  0.98697400808E+01  0.51100000000E-03 0.  1.
         12    1    3    3    0    0  0.68070807034E+01 -0.11474210640E+02 -0.19428522565E+02  0.23568227481E+02  0.00000000000E+00 0. -1.
</event>
<event>
 8    1  0.1884848E-013  0.7246155E+02  0.7816164E-02  0.1226708E+00
        -11   -1    0    0    0    0  0.00000000000E+00  0.00000000000E+00  0.45593999997E+02  0.45594000000E+02  0.51100000000E-03 0.  1.
         11   -1    0    0    0    0 -0.00000000000E+00 -0.00000000000E+00 -0.45593999997E+02  0.45594000000E+02  0.51100000000E-03 0. -1.
    9900012    2    1    2    0    0  0.99132957608E+01 -0.97921034904E+01 -0.12510850709E+02  0.72461545208E+02  0.69999967320E+02 0.  0.
        -24    2    3    3    0    0  0.46216050266E+01 -0.18511839937E+02  0.24249107368E+01  0.54375286204E+02  0.50860044306E+02 0.  0.
        -12    1    1    2    0    0 -0.99132957608E+01  0.97921034904E+01  0.12510850709E+02  0.18726454792E+02  0.00000000000E+00 0.  1.
         11    1    4    4    0    0  0.34965821051E+01 -0.33675103343E+02 -0.93734092534E+01  0.35129751961E+02  0.51100000000E-03 0.  1.
        -11    1    3    3    0    0  0.52916907342E+01  0.87197364461E+01 -0.14935761446E+02  0.18086259004E+02  0.51100000000E-03 0. -1.
        -12    1    4    4    0    0  0.11250229215E+01  0.15163263406E+02  0.11798319990E+02  0.19245534243E+02  0.00000000000E+00 0.  1.
</event>
<event>
 7    1  0.1884848E-013  0.7246159E+02  0.7816164E-02  0.1226708E+00
        -11   -1    0    0    0    0  0.00000000000E+00  0.00000000000E+00  0.45593999997E+02  0.45594000000E+02  0.51100000000E-03 0. -1.
         11   -1    0    0    0    0 -0.00000000000E+00 -0.00000000000E+00 -0.45593999997E+02  0.45594000000E+02  0.51100000000E-03 0.  1.
    9900012    2    1    2    0    0 -0.17187710093E+02 -0.64311437069E+01  0.37284829292E+01  0.72461586233E+02  0.70000020763E+02 0.  0.
        -12    1    1    2    0    0  0.17187710093E+02  0.64311437069E+01 -0.37284829292E+01  0.18726413767E+02  0.00000000000E+00 0.  1.
         11    1    3    3    0    0 -0.14037644300E+02  0.83700490076E+01  0.12612460083E+02  0.20644304965E+02  0.51100000000E-03 0. -1.
        -11    1    3    3    0    0  0.12652143254E+02 -0.24094731087E+02  0.63911829671E+01  0.27954964051E+02  0.51100000000E-03 0.  1.
        -12    1    3    3    0    0 -0.15802209047E+02  0.92935383727E+01 -0.15275160121E+02  0.23862317217E+02  0.00000000000E+00 0.  1.
</event>
<event>
 7    1  0.1884848E-013  0.7246159E+02  0.7816164E-02  0.1226708E+00
        -11   -1    0    0    0    0  0.00000000000E+00  0.00000000000E+00  0.45593999997E+02  0.45594000000E+02  0.51100000000E-03 0.  1.
         11   -1    0    0    0    0 -0.00000000000E+00 -0.00000000000E+00 -0.45593999997E+02  0.45594000000E+02  0.51100000000E-03 0. -1.
    9900012    2    1    2    0    0  0.11072108546E+01  0.18381805582E+02  0.34002429530E+01  0.72461592324E+02  0.70000028698E+02 0.  0.
        -12    1    1    2    0    0 -0.11072108546E+01 -0.18381805582E+02 -0.34002429530E+01  0.18726407676E+02  0.00000000000E+00 0.  1.
         11    1    3    3    0    0  0.19825517257E+02 -0.13494012049E+02  0.12414145576E+02  0.27004638608E+02  0.51100000000E-03 0. -1.
        -11    1    3    3    0    0  0.33506659207E+01  0.11856263674E+02  0.39843381488E+01  0.12948857138E+02  0.51100000000E-03 0.  1.
         12    1    3    3    0    0 -0.22068972323E+02  0.20019553956E+02 -0.12998240772E+02  0.32508096578E+02  0.00000000000E+00 0. -1.
</event>
<event>
 7    1  0.1884848E-013  0.7246156E+02  0.7816164E-02  0.1226708E+00
        -11   -1    0    0    0    0  0.00000000000E+00  0.00000000000E+00  0.45593999997E+02  0.45594000000E+02  0.51100000000E-03 0.  1.
         11   -1    0    0    0    0 -0.00000000000E+00 -0.00000000000E+00 -0.45593999997E+02  0.45594000000E+02  0.51100000000E-03 0. -1.
    9900012    2    1    2    0    0 -0.13894146521E+02  0.60992469673E+01 -0.10974122339E+02  0.72461561945E+02  0.69999989123E+02 0.  0.
        -12    1    1    2    0    0  0.13894146521E+02 -0.60992469673E+01  0.10974122339E+02  0.18726438055E+02  0.00000000000E+00 0.  1.
         11    1    3    3    0    0 -0.73064280362E+01  0.86776363105E+01 -0.35636554634E+02  0.37398519877E+02  0.51100000000E-03 0. -1.
        -11    1    3    3    0    0  0.24022532292E+01 -0.10627556355E+02  0.18606190260E+02  0.21561681078E+02  0.51100000000E-03 0.  1.
         12    1    3    3    0    0 -0.89899717144E+01  0.80491670112E+01  0.60562420345E+01  0.13501360990E+02  0.00000000000E+00 0. -1.
</event>
<event>
 7    1  0.1884848E-013  0.7246149E+02  0.7816164E-02  0.1226708E+00
        -11   -1    0    0    0    0  0.00000000000E+00  0.00000000000E+00  0.45593999997E+02  0.45594000000E+02  0.51100000000E-03 0. -1.
         11   -1    0    0    0    0 -0.00000000000E+00 -0.00000000000E+00 -0.45593999997E+02  0.45594000000E+02  0.51100000000E-03 0.  1.
    9900012    2    1    2    0    0 -0.64998901374E+01  0.13965502827E+02 -0.10648858231E+02  0.72461494116E+02  0.69999900764E+02 0.  0.
        -12    1    1    2    0    0  0.64998901374E+01 -0.13965502827E+02  0.10648858231E+02  0.18726505884E+02  0.00000000000E+00 0.  1.
         11    1    3    3    0    0  0.28649966567E+01 -0.32147549642E+01  0.21863212180E+02  0.22283242637E+02  0.51100000000E-03 0. -1.
        -11    1    3    3    0    0 -0.52290123021E+01 -0.20932524764E+01 -0.29743982706E+02  0.30272574767E+02  0.51100000000E-03 0.  1.
        -12    1    3    3    0    0 -0.41358744921E+01  0.19273510267E+02 -0.27680877050E+01  0.19905676712E+02  0.00000000000E+00 0.  1.
</event>
<event>
 7    1  0.1884848E-013  0.7246158E+02  0.7816164E-02  0.1226708E+00
        -11   -1    0    0    0    0  0.00000000000E+00  0.00000000000E+00  0.45593999997E+02  0.45594000000E+02  0.51100000000E-03 0. -1.
         11   -1    0    0    0    0 -0.00000000000E+00 -0.00000000000E+00 -0.45593999997E+02  0.45594000000E+02  0.51100000000E-03 0.  1.
    9900012    2    1    2    0    0  0.39132117151E+01 -0.71393042297E+01  0.16864038432E+02  0.72461583283E+02  0.70000016920E+02 0.  0.
        -12    1    1    2    0    0 -0.39132117151E+01  0.71393042297E+01 -0.16864038432E+02  0.18726416717E+02  0.00000000000E+00 0.  1.
         11    1    3    3    0    0 -0.20579813341E+02  0.62134523725E+01  0.15412421933E+02  0.26451435833E+02  0.51100000000E-03 0. -1.
        -11    1    3    3    0    0  0.12789083927E+02  0.34665477911E+01 -0.14794167695E+02  0.19860639953E+02  0.51100000000E-03 0.  1.
         12    1    3    3    0    0  0.11703941130E+02 -0.16819304393E+02  0.16245784195E+02  0.26149507497E+02  0.00000000000E+00 0. -1.
</event>
<event>
 7    1  0.1884848E-013  0.7246134E+02  0.7816164E-02  0.1226709E+00
        -11   -1    0    0    0    0  0.00000000000E+00  0.00000000000E+00  0.45593999997E+02  0.45594000000E+02  0.51100000000E-03 0. -1.
         11   -1    0    0    0    0 -0.00000000000E+00 -0.00000000000E+00 -0.45593999997E+02  0.45594000000E+02  0.51100000000E-03 0.  1.
    9900012    2    1    2    0    0 -0.11631500479E+01  0.18662067807E+02  0.10305207671E+01  0.72461343440E+02  0.69999704479E+02 0.  0.
        -12    1    1    2    0    0  0.11631500479E+01 -0.18662067807E+02 -0.10305207671E+01  0.18726656560E+02  0.00000000000E+00 0.  1.
         11    1    3    3    0    0  0.37989095096E+01 -0.35432553127E+01  0.26889290287E+00  0.52017953946E+01  0.51100000000E-03 0. -1.
        -11    1    3    3    0    0  0.78322112164E+01  0.35961215883E+02  0.18701772009E+02  0.41283275752E+02  0.51100000000E-03 0.  1.
        -12    1    3    3    0    0 -0.12794270774E+02 -0.13755892763E+02 -0.17940144144E+02  0.25976272293E+02  0.00000000000E+00 0.  1.
</event>
<event>
 7    1  0.1884848E-013  0.7246162E+02  0.7816164E-02  0.1226708E+00
        -11   -1    0    0    0    0  0.00000000000E+00  0.00000000000E+00  0.45593999997E+02  0.45594000000E+02  0.51100000000E-03 0. -1.
         11   -1    0    0    0    0 -0.00000000000E+00 -0.00000000000E+00 -0.45593999997E+02  0.45594000000E+02  0.51100000000E-03 0.  1.
    9900012    2    1    2    0    0 -0.14420681281E+02 -0.11039590069E+02  0.45660449676E+01  0.72461618498E+02  0.70000062794E+02 0.  0.
        -12    1    1    2    0    0  0.14420681281E+02  0.11039590069E+02 -0.45660449676E+01  0.18726381502E+02  0.00000000000E+00 0.  1.
         11    1    3    3    0    0  0.43369946290E+01  0.58446182726E+01 -0.15277043527E+02  0.16922090425E+02  0.51100000000E-03 0. -1.
        -11    1    3    3    0    0 -0.33720124866E+02 -0.92729408376E+01  0.15121276086E+02  0.38101013681E+02  0.51100000000E-03 0.  1.
         12    1    3    3    0    0  0.14962448956E+02 -0.76112675045E+01  0.47218124085E+01  0.17438514392E+02  0.00000000000E+00 0. -1.
</event>
<event>
 7    1  0.1884848E-013  0.7246153E+02  0.7816164E-02  0.1226708E+00
        -11   -1    0    0    0    0  0.00000000000E+00  0.00000000000E+00  0.45593999997E+02  0.45594000000E+02  0.51100000000E-03 0. -1.
         11   -1    0    0    0    0 -0.00000000000E+00 -0.00000000000E+00 -0.45593999997E+02  0.45594000000E+02  0.51100000000E-03 0.  1.
    9900012    2    1    2    0    0  0.12250119912E+02 -0.94372331781E+01  0.10561914762E+02  0.72461525389E+02  0.69999941502E+02 0.  0.
        -12    1    1    2    0    0 -0.12250119912E+02  0.94372331781E+01 -0.10561914762E+02  0.18726474611E+02  0.00000000000E+00 0.  1.
         11    1    3    3    0    0 -0.46397439326E+00  0.22828580288E+01  0.15571847518E+02  0.15745130942E+02  0.51100000000E-03 0. -1.
        -11    1    3    3    0    0 -0.89313203686E+01 -0.24065537627E+02 -0.15157872915E+02  0.29810731228E+02  0.51100000000E-03 0.  1.
        -12    1    3    3    0    0  0.21645414674E+02  0.12345446420E+02  0.10147940159E+02  0.26905663218E+02  0.00000000000E+00 0.  1.
</event>
<event>
 7    1  0.1884848E-013  0.7246155E+02  0.7816164E-02  0.1226708E+00
        -11   -1    0    0    0    0  0.00000000000E+00  0.00000000000E+00  0.45593999997E+02  0.45594000000E+02  0.51100000000E-03 0.  1.
         11   -1    0    0    0    0 -0.00000000000E+00 -0.00000000000E+00 -0.45593999997E+02  0.45594000000E+02  0.51100000000E-03 0. -1.
    9900012    2    1    2    0    0  0.16395664411E+02  0.74767784295E+01  0.50950816236E+01  0.72461551220E+02  0.69999975152E+02 0.  0.
        -12    1    1    2    0    0 -0.16395664411E+02 -0.74767784295E+01 -0.50950816236E+01  0.18726448780E+02  0.00000000000E+00 0.  1.
         11    1    3    3    0    0 -0.17760806574E+02  0.23729260045E+02 -0.38656532756E+00  0.29642426781E+02  0.51100000000E-03 0. -1.
        -11    1    3    3    0    0  0.23661875909E+02 -0.60211381530E+01  0.11482972300E+02  0.26981421929E+02  0.51100000000E-03 0.  1.
        -12    1    3    3    0    0  0.10494595075E+02 -0.10231343463E+02 -0.60013253486E+01  0.15837702510E+02  0.00000000000E+00 0.  1.
</event>
<event>
 7    1  0.1884848E-013  0.7246154E+02  0.7816164E-02  0.1226708E+00
        -11   -1    0    0    0    0  0.00000000000E+00  0.00000000000E+00  0.45593999997E+02  0.45594000000E+02  0.51100000000E-03 0.  1.
         11   -1    0    0    0    0 -0.00000000000E+00 -0.00000000000E+00 -0.45593999997E+02  0.45594000000E+02  0.51100000000E-03 0. -1.
    9900012    2    1    2    0    0  0.29395413240E+01 -0.16488932976E+02 -0.83758174668E+01  0.72461544593E+02  0.69999966519E+02 0.  0.
        -12    1    1    2    0    0 -0.29395413240E+01  0.16488932976E+02  0.83758174668E+01  0.18726455407E+02  0.00000000000E+00 0.  1.
         11    1    3    3    0    0  0.14586297928E+02 -0.67353113356E+01 -0.20089984814E+02  0.25724152000E+02  0.51100000000E-03 0. -1.
        -11    1    3    3    0    0 -0.18725884936E+02 -0.20960023250E+02 -0.13331414283E+01  0.28138205479E+02  0.51100000000E-03 0.  1.
        -12    1    3    3    0    0  0.70791283319E+01  0.11206401610E+02  0.13047308776E+02  0.18599187113E+02  0.00000000000E+00 0.  1.
</event>
<event>
 7    1  0.1884848E-013  0.7246157E+02  0.7816164E-02  0.1226708E+00
        -11   -1    0    0    0    0  0.00000000000E+00  0.00000000000E+00  0.45593999997E+02  0.45594000000E+02  0.51100000000E-03 0.  1.
         11   -1    0    0    0    0 -0.00000000000E+00 -0.00000000000E+00 -0.45593999997E+02  0.45594000000E+02  0.51100000000E-03 0. -1.
    9900012    2    1    2    0    0 -0.97263626743E+01  0.81446764095E+01 -0.13774655154E+02  0.72461574573E+02  0.70000005573E+02 0.  0.
        -12    1    1    2    0    0  0.97263626743E+01 -0.81446764095E+01  0.13774655154E+02  0.18726425427E+02  0.00000000000E+00 0.  1.
         11    1    3    3    0    0 -0.13448527305E+02 -0.36228511000E+00  0.85662016281E+01  0.15949104921E+02  0.51100000000E-03 0. -1.
        -11    1    3    3    0    0 -0.57123834809E+01  0.27359027180E+02 -0.21764151613E+02  0.35423523102E+02  0.51100000000E-03 0.  1.
        -12    1    3    3    0    0  0.94345481118E+01 -0.18852065660E+02 -0.57670516858E+00  0.21088946550E+02  0.00000000000E+00 0.  1.
</event>
<event>
 7    1  0.1884848E-013  0.7246176E+02  0.7816164E-02  0.1226708E+00
        -11   -1    0    0    0    0  0.00000000000E+00  0.00000000000E+00  0.45593999997E+02  0.45594000000E+02  0.51100000000E-03 0.  1.
         11   -1    0    0    0    0 -0.00000000000E+00 -0.00000000000E+00 -0.45593999997E+02  0.45594000000E+02  0.51100000000E-03 0. -1.
    9900012    2    1    2    0    0  0.34913989494E+01  0.63574777288E+01 -0.17264551822E+02  0.72461758004E+02  0.70000244526E+02 0.  0.
        -12    1    1    2    0    0 -0.34913989494E+01 -0.63574777288E+01  0.17264551822E+02  0.18726241996E+02  0.00000000000E+00 0.  1.
         11    1    3    3    0    0 -0.12654500802E+02  0.12895248017E+02  0.12258328065E+02  0.21833241151E+02  0.51100000000E-03 0.  1.
        -11    1    3    3    0    0  0.82088518793E+01 -0.17628488121E+02 -0.15495899642E+01  0.19507692634E+02  0.51100000000E-03 0. -1.
         12    1    3    3    0    0  0.79370478718E+01  0.11090717832E+02 -0.27973289922E+02  0.31120824218E+02  0.00000000000E+00 0. -1.
</event>
<event>
 7    1  0.1884848E-013  0.7246159E+02  0.7816164E-02  0.1226708E+00
        -11   -1    0    0    0    0  0.00000000000E+00  0.00000000000E+00  0.45593999997E+02  0.45594000000E+02  0.51100000000E-03 0.  1.
         11   -1    0    0    0    0 -0.00000000000E+00 -0.00000000000E+00 -0.45593999997E+02  0.45594000000E+02  0.51100000000E-03 0. -1.
    9900012    2    1    2    0    0 -0.68570481243E+01 -0.34334661670E+01 -0.17084224149E+02  0.72461587806E+02  0.70000022812E+02 0.  0.
        -12    1    1    2    0    0  0.68570481243E+01  0.34334661670E+01  0.17084224149E+02  0.18726412194E+02  0.00000000000E+00 0.  1.
         11    1    3    3    0    0 -0.11980987351E+02 -0.44047387610E+01 -0.19278948219E+02  0.23121929551E+02  0.51100000000E-03 0. -1.
        -11    1    3    3    0    0  0.10745668107E+02  0.23423660545E+02 -0.18754908156E+01  0.25839015508E+02  0.51100000000E-03 0.  1.
        -12    1    3    3    0    0 -0.56217288797E+01 -0.22452387951E+02  0.40702148856E+01  0.23500642747E+02  0.00000000000E+00 0.  1.
</event>
<event>
 7    1  0.1884848E-013  0.7246153E+02  0.7816164E-02  0.1226708E+00
        -11   -1    0    0    0    0  0.00000000000E+00  0.00000000000E+00  0.45593999997E+02  0.45594000000E+02  0.51100000000E-03 0.  1.
         11   -1    0    0    0    0 -0.00000000000E+00 -0.00000000000E+00 -0.45593999997E+02  0.45594000000E+02  0.51100000000E-03 0. -1.
    9900012    2    1    2    0    0  0.11023593052E+02 -0.10019348606E+02 -0.11347857784E+02  0.72461526051E+02  0.69999942365E+02 0.  0.
        -12    1    1    2    0    0 -0.11023593052E+02  0.10019348606E+02  0.11347857784E+02  0.18726473949E+02  0.00000000000E+00 0.  1.
         11    1    3    3    0    0 -0.36109004926E+00  0.10023610169E+02 -0.34289295784E+02  0.35726166216E+02  0.51100000000E-03 0. -1.
        -11    1    3    3    0    0  0.20790424362E+01  0.19930835340E+01  0.80712245079E+01  0.85696828846E+01  0.51100000000E-03 0.  1.
         12    1    3    3    0    0  0.93056406649E+01 -0.22036042309E+02  0.14870213492E+02  0.28165676951E+02  0.00000000000E+00 0. -1.
</event>
<event>
 7    1  0.1884848E-013  0.7246153E+02  0.7816164E-02  0.1226708E+00
        -11   -1    0    0    0    0  0.00000000000E+00  0.00000000000E+00  0.45593999997E+02  0.45594000000E+02  0.51100000000E-03 0. -1.
         11   -1    0    0    0    0 -0.00000000000E+00 -0.00000000000E+00 -0.45593999997E+02  0.45594000000E+02  0.51100000000E-03 0.  1.
    9900012    2    1    2    0    0  0.51132503251E+01 -0.16989625529E+02 -0.59906677545E+01  0.72461526636E+02  0.69999943127E+02 0.  0.
        -12    1    1    2    0    0 -0.51132503251E+01  0.16989625529E+02  0.59906677545E+01  0.18726473364E+02  0.00000000000E+00 0.  1.
         11    1    3    3    0    0 -0.17008643057E+02 -0.57862385859E+01  0.10666031840E+02  0.20893509305E+02  0.51100000000E-03 0. -1.
        -11    1    3    3    0    0  0.25279947438E+02  0.10048050128E+02 -0.75422761827E+01  0.28229859797E+02  0.51100000000E-03 0.  1.
         12    1    3    3    0    0 -0.31580540567E+01 -0.21251437071E+02 -0.91144234114E+01  0.23338157535E+02  0.00000000000E+00 0. -1.
</event>
<event>
 7    1  0.1884848E-013  0.7246159E+02  0.7816164E-02  0.1226708E+00
        -11   -1    0    0    0    0  0.00000000000E+00  0.00000000000E+00  0.45593999997E+02  0.45594000000E+02  0.51100000000E-03 0.  1.
         11   -1    0    0    0    0 -0.00000000000E+00 -0.00000000000E+00 -0.45593999997E+02  0.45594000000E+02  0.51100000000E-03 0. -1.
    9900012    2    1    2    0    0  0.11616553387E+02  0.49393321784E+01 -0.13832462248E+02  0.72461592795E+02  0.70000029312E+02 0.  0.
        -12    1    1    2    0    0 -0.11616553387E+02 -0.49393321784E+01  0.13832462248E+02  0.18726407205E+02  0.00000000000E+00 0.  1.
         11    1    3    3    0    0 -0.70025847873E+01  0.13841727498E+02 -0.12392598312E+02  0.19854624323E+02  0.51100000000E-03 0. -1.
        -11    1    3    3    0    0  0.23597298181E+02  0.15001666510E+02  0.15645430719E+01  0.28005897144E+02  0.51100000000E-03 0.  1.
        -12    1    3    3    0    0 -0.49781600071E+01 -0.23904061830E+02 -0.30044070074E+01  0.24601071328E+02  0.00000000000E+00 0.  1.
</event>
<event>
 7    1  0.1884848E-013  0.7246159E+02  0.7816164E-02  0.1226708E+00
        -11   -1    0    0    0    0  0.00000000000E+00  0.00000000000E+00  0.45593999997E+02  0.45594000000E+02  0.51100000000E-03 0. -1.
         11   -1    0    0    0    0 -0.00000000000E+00 -0.00000000000E+00 -0.45593999997E+02  0.45594000000E+02  0.51100000000E-03 0.  1.
    9900012    2    1    2    0    0 -0.11601003084E+02 -0.10141329687E+02  0.10641823792E+02  0.72461594739E+02  0.70000031844E+02 0.  0.
        -12    1    1    2    0    0  0.11601003084E+02  0.10141329687E+02 -0.10641823792E+02  0.18726405261E+02  0.00000000000E+00 0.  1.
         11    1    3    3    0    0 -0.54342388743E+01 -0.42759713491E+00  0.33168272804E+02  0.33613213362E+02  0.51100000000E-03 0. -1.
        -11    1    3    3    0    0 -0.14109004615E+02  0.32738272059E+01 -0.17715487491E+02  0.22882754491E+02  0.51100000000E-03 0.  1.
         12    1    3    3    0    0  0.79422404050E+01 -0.12987559758E+02 -0.48109615206E+01  0.15965626886E+02  0.00000000000E+00 0. -1.
</event>
<event>
 7    1  0.1884848E-013  0.7246151E+02  0.7816164E-02  0.1226708E+00
        -11   -1    0    0    0    0  0.00000000000E+00  0.00000000000E+00  0.45593999997E+02  0.45594000000E+02  0.51100000000E-03 0.  1.
         11   -1    0    0    0    0 -0.00000000000E+00 -0.00000000000E+00 -0.45593999997E+02  0.45594000000E+02  0.51100000000E-03 0. -1.
    9900012    2    1    2    0    0  0.57215310037E+01  0.17949687679E+00 -0.17830123359E+02  0.72461509802E+02  0.69999921197E+02 0.  0.
        -12    1    1    2    0    0 -0.57215310037E+01 -0.17949687679E+00  0.17830123359E+02  0.18726490198E+02  0.00000000000E+00 0.  1.
         11    1    3    3    0    0  0.14133568199E+02  0.18638332900E+02  0.16917660598E+02  0.28867844459E+02  0.51100000000E-03 0. -1.
        -11    1    3    3    0    0 -0.34141337384E+01  0.27209233661E+01 -0.79803352865E+01  0.90964545123E+01  0.51100000000E-03 0.  1.
         12    1    3    3    0    0 -0.49979034572E+01 -0.21179759390E+02 -0.26767448670E+02  0.34497210830E+02  0.00000000000E+00 0. -1.
</event>
<event>
 7    1  0.1884848E-013  0.7246158E+02  0.7816164E-02  0.1226708E+00
        -11   -1    0    0    0    0  0.00000000000E+00  0.00000000000E+00  0.45593999997E+02  0.45594000000E+02  0.51100000000E-03 0.  1.
         11   -1    0    0    0    0 -0.00000000000E+00 -0.00000000000E+00 -0.45593999997E+02  0.45594000000E+02  0.51100000000E-03 0. -1.
    9900012    2    1    2    0    0 -0.70609490310E+01  0.17242593372E+02 -0.18747469811E+01  0.72461582733E+02  0.70000016204E+02 0.  0.
        -12    1    1    2    0    0  0.70609490310E+01 -0.17242593372E+02  0.18747469811E+01  0.18726417267E+02  0.00000000000E+00 0.  1.
         11    1    3    3    0    0  0.59549384947E+01  0.22314127177E+02  0.16696881794E+02  0.28498551297E+02  0.51100000000E-03 0. -1.
        -11    1    3    3    0    0  0.68691118592E+01 -0.15815053592E+02 -0.83317035894E+01  0.19149879968E+02  0.51100000000E-03 0.  1.
        -12    1    3    3    0    0 -0.19884999385E+02  0.10743519787E+02 -0.10239925185E+02  0.24813151467E+02  0.00000000000E+00 0.  1.
</event>
<event>
 7    1  0.1884848E-013  0.7246152E+02  0.7816164E-02  0.1226708E+00
        -11   -1    0    0    0    0  0.00000000000E+00  0.00000000000E+00  0.45593999997E+02  0.45594000000E+02  0.51100000000E-03 0. -1.
         11   -1    0    0    0    0 -0.00000000000E+00 -0.00000000000E+00 -0.45593999997E+02  0.45594000000E+02  0.51100000000E-03 0.  1.
    9900012    2    1    2    0    0 -0.59933658210E+01  0.13494721087E+02  0.11517521588E+02  0.72461515156E+02  0.69999928172E+02 0.  0.
        -12    1    1    2    0    0  0.59933658210E+01 -0.13494721087E+02 -0.11517521588E+02  0.18726484844E+02  0.00000000000E+00 0.  1.
         11    1    3    3    0    0 -0.17870409170E+02 -0.14999754787E+01  0.31422585809E+02  0.36179833464E+02  0.51100000000E-03 0. -1.
        -11    1    3    3    0    0  0.16011814627E+02  0.72521861273E+01 -0.38656522731E+01  0.17997657599E+02  0.51100000000E-03 0.  1.
         12    1    3    3    0    0 -0.41347712785E+01  0.77425104382E+01 -0.16039411947E+02  0.18284024093E+02  0.00000000000E+00 0. -1.
</event>
<event>
 7    1  0.1884848E-013  0.7246155E+02  0.7816164E-02  0.1226708E+00
        -11   -1    0    0    0    0  0.00000000000E+00  0.00000000000E+00  0.45593999997E+02  0.45594000000E+02  0.51100000000E-03 0. -1.
         11   -1    0    0    0    0 -0.00000000000E+00 -0.00000000000E+00 -0.45593999997E+02  0.45594000000E+02  0.51100000000E-03 0.  1.
    9900012    2    1    2    0    0  0.49460226029E+01 -0.12264272062E+02  0.13259132850E+02  0.72461545110E+02  0.69999967193E+02 0.  0.
        -12    1    1    2    0    0 -0.49460226029E+01  0.12264272062E+02 -0.13259132850E+02  0.18726454890E+02  0.00000000000E+00 0.  1.
         11    1    3    3    0    0 -0.10699392630E+02  0.21345794999E+01 -0.70323015643E+01  0.12980242596E+02  0.51100000000E-03 0. -1.
        -11    1    3    3    0    0  0.63087065618E+01  0.16696851236E+02  0.20277544150E+02  0.27014133647E+02  0.51100000000E-03 0.  1.
        -12    1    3    3    0    0  0.93367086711E+01 -0.31095702798E+02  0.13890263896E-01  0.32467168868E+02  0.00000000000E+00 0.  1.
</event>
<event>
 7    1  0.1884848E-013  0.7246156E+02  0.7816164E-02  0.1226708E+00
        -11   -1    0    0    0    0  0.00000000000E+00  0.00000000000E+00  0.45593999997E+02  0.45594000000E+02  0.51100000000E-03 0. -1.
         11   -1    0    0    0    0 -0.00000000000E+00 -0.00000000000E+00 -0.45593999997E+02  0.45594000000E+02  0.51100000000E-03 0.  1.
    9900012    2    1    2    0    0  0.66943362113E+01 -0.48357158748E+01  0.16807182622E+02  0.72461556851E+02  0.69999982488E+02 0.  0.
        -12    1    1    2    0    0 -0.66943362113E+01  0.48357158748E+01 -0.16807182622E+02  0.18726443149E+02  0.00000000000E+00 0.  1.
         11    1    3    3    0    0 -0.67661832284E+01 -0.83657371753E+00  0.26993799295E+02  0.27841449167E+02  0.51100000000E-03 0.  1.
        -11    1    3    3    0    0  0.54155143001E+01 -0.22441825405E+02 -0.77499363380E+01  0.24352101267E+02  0.51100000000E-03 0. -1.
        -12    1    3    3    0    0  0.80450051396E+01  0.18442683247E+02 -0.24366803356E+01  0.20268006417E+02  0.00000000000E+00 0.  1.
</event>
<event>
 7    1  0.1884848E-013  0.7246155E+02  0.7816164E-02  0.1226708E+00
        -11   -1    0    0    0    0  0.00000000000E+00  0.00000000000E+00  0.45593999997E+02  0.45594000000E+02  0.51100000000E-03 0.  1.
         11   -1    0    0    0    0 -0.00000000000E+00 -0.00000000000E+00 -0.45593999997E+02  0.45594000000E+02  0.51100000000E-03 0. -1.
    9900012    2    1    2    0    0 -0.13105672353E+02 -0.12903333624E+02 -0.35249284200E+01  0.72461553813E+02  0.69999978530E+02 0.  0.
        -12    1    1    2    0    0  0.13105672353E+02  0.12903333624E+02  0.35249284200E+01  0.18726446187E+02  0.00000000000E+00 0.  1.
         11    1    3    3    0    0 -0.60648121767E+01 -0.97742348371E+01 -0.10677750625E+02  0.15694966456E+02  0.51100000000E-03 0. -1.
        -11    1    3    3    0    0  0.40451929203E+01 -0.16667287996E+02  0.25937116128E+02  0.31094952456E+02  0.51100000000E-03 0.  1.
        -12    1    3    3    0    0 -0.11086053096E+02  0.13538189209E+02 -0.18784293924E+02  0.25671634901E+02  0.00000000000E+00 0.  1.
</event>
<event>
 7    1  0.1884848E-013  0.7246137E+02  0.7816164E-02  0.1226709E+00
        -11   -1    0    0    0    0  0.00000000000E+00  0.00000000000E+00  0.45593999997E+02  0.45594000000E+02  0.51100000000E-03 0.  1.
         11   -1    0    0    0    0 -0.00000000000E+00 -0.00000000000E+00 -0.45593999997E+02  0.45594000000E+02  0.51100000000E-03 0. -1.
    9900012    2    1    2    0    0 -0.12920822901E+02 -0.13395435552E+02 -0.20739685963E+01  0.72461369128E+02  0.69999737944E+02 0.  0.
        -12    1    1    2    0    0  0.12920822901E+02  0.13395435552E+02  0.20739685963E+01  0.18726630872E+02  0.00000000000E+00 0.  1.
         11    1    3    3    0    0 -0.16817149928E+02  0.19621658479E+02 -0.58487625231E+01  0.26495924903E+02  0.51100000000E-03 0. -1.
        -11    1    3    3    0    0  0.16589764378E+02 -0.17580214212E+02  0.81456437960E+01  0.25507562153E+02  0.51100000000E-03 0.  1.
         12    1    3    3    0    0 -0.12693437351E+02 -0.15436879819E+02 -0.43708498692E+01  0.20457882073E+02  0.00000000000E+00 0. -1.
</event>
<event>
 7    1  0.1884848E-013  0.7246177E+02  0.7816164E-02  0.1226707E+00
        -11   -1    0    0    0    0  0.00000000000E+00  0.00000000000E+00  0.45593999997E+02  0.45594000000E+02  0.51100000000E-03 0.  1.
         11   -1    0    0    0    0 -0.00000000000E+00 -0.00000000000E+00 -0.45593999997E+02  0.45594000000E+02  0.51100000000E-03 0. -1.
    9900012    2    1    2    0    0 -0.52993074416E+01 -0.11958187885E+02 -0.13401154207E+02  0.72461765703E+02  0.70000254556E+02 0.  0.
        -12    1    1    2    0    0  0.52993074416E+01  0.11958187885E+02  0.13401154207E+02  0.18726234297E+02  0.00000000000E+00 0.  1.
         11    1    3    3    0    0 -0.67327176445E+01  0.51893304154E+01 -0.32348508104E+02  0.33446742948E+02  0.51100000000E-03 0. -1.
        -11    1    3    3    0    0  0.11519225797E+02  0.41660706979E-01  0.14634121402E+02  0.18623957905E+02  0.51100000000E-03 0.  1.
        -12    1    3    3    0    0 -0.10085815594E+02 -0.17189179008E+02  0.43132324952E+01  0.20391064850E+02  0.00000000000E+00 0.  1.
</event>
<event>
 7    1  0.1884848E-013  0.7246154E+02  0.7816164E-02  0.1226708E+00
        -11   -1    0    0    0    0  0.00000000000E+00  0.00000000000E+00  0.45593999997E+02  0.45594000000E+02  0.51100000000E-03 0. -1.
         11   -1    0    0    0    0 -0.00000000000E+00 -0.00000000000E+00 -0.45593999997E+02  0.45594000000E+02  0.51100000000E-03 0.  1.
    9900012    2    1    2    0    0  0.35809459618E+01  0.18378604763E+02 -0.29009593946E+00  0.72461536301E+02  0.69999955717E+02 0.  0.
        -12    1    1    2    0    0 -0.35809459618E+01 -0.18378604763E+02  0.29009593946E+00  0.18726463699E+02  0.00000000000E+00 0.  1.
         11    1    3    3    0    0  0.11236082331E+02 -0.42158343830E+01  0.19078289227E+02  0.22538942429E+02  0.51100000000E-03 0. -1.
        -11    1    3    3    0    0 -0.26306737778E+01  0.26213184605E+02 -0.28550224397E+02  0.38847996152E+02  0.51100000000E-03 0.  1.
         12    1    3    3    0    0 -0.50244625918E+01 -0.36187454583E+01  0.91818392298E+01  0.11074597720E+02  0.00000000000E+00 0. -1.
</event>
<event>
 7    1  0.1884848E-013  0.7246158E+02  0.7816164E-02  0.1226708E+00
        -11   -1    0    0    0    0  0.00000000000E+00  0.00000000000E+00  0.45593999997E+02  0.45594000000E+02  0.51100000000E-03 0.  1.
         11   -1    0    0    0    0 -0.00000000000E+00 -0.00000000000E+00 -0.45593999997E+02  0.45594000000E+02  0.51100000000E-03 0. -1.
    9900012    2    1    2    0    0  0.30975912053E+01 -0.13551319869E+02 -0.12547728300E+02  0.72461579440E+02  0.70000011914E+02 0.  0.
        -12    1    1    2    0    0 -0.30975912053E+01  0.13551319869E+02  0.12547728300E+02  0.18726420560E+02  0.00000000000E+00 0.  1.
         11    1    3    3    0    0 -0.57078721525E+01 -0.59699875799E+01  0.11258428682E+02  0.13963265122E+02  0.51100000000E-03 0. -1.
        -11    1    3    3    0    0 -0.49002399370E+01  0.10172651482E+02 -0.32529022897E+02  0.34433014978E+02  0.51100000000E-03 0.  1.
        -12    1    3    3    0    0  0.13705703295E+02 -0.17753983772E+02  0.87228659138E+01  0.24065299340E+02  0.00000000000E+00 0.  1.
</event>
<event>
 7    1  0.1884848E-013  0.7246156E+02  0.7816164E-02  0.1226708E+00
        -11   -1    0    0    0    0  0.00000000000E+00  0.00000000000E+00  0.45593999997E+02  0.45594000000E+02  0.51100000000E-03 0. -1.
         11   -1    0    0    0    0 -0.00000000000E+00 -0.00000000000E+00 -0.45593999997E+02  0.45594000000E+02  0.51100000000E-03 0.  1.
    9900012    2    1    2    0    0  0.33396901871E+01 -0.10157405039E+02  0.15373785689E+02  0.72461556289E+02  0.69999981755E+02 0.  0.
        -12    1    1    2    0    0 -0.33396901871E+01  0.10157405039E+02 -0.15373785689E+02  0.18726443711E+02  0.00000000000E+00 0.  1.
         11    1    3    3    0    0  0.25756928138E+01 -0.12676820340E+02  0.36072499501E+01  0.13429378983E+02  0.51100000000E-03 0. -1.
        -11    1    3    3    0    0 -0.11310572989E+02  0.15541782279E+02 -0.16711551563E+02  0.25470610783E+02  0.51100000000E-03 0.  1.
        -12    1    3    3    0    0  0.12074570363E+02 -0.13022366978E+02  0.28478087301E+02  0.33561566523E+02  0.00000000000E+00 0.  1.
</event>
<event>
 7    1  0.1884848E-013  0.7246158E+02  0.7816164E-02  0.1226708E+00
        -11   -1    0    0    0    0  0.00000000000E+00  0.00000000000E+00  0.45593999997E+02  0.45594000000E+02  0.51100000000E-03 0.  1.
         11   -1    0    0    0    0 -0.00000000000E+00 -0.00000000000E+00 -0.45593999997E+02  0.45594000000E+02  0.51100000000E-03 0. -1.
    9900012    2    1    2    0    0 -0.33266013423E+01  0.20556973669E+01 -0.18313562589E+02  0.72461581686E+02  0.70000014840E+02 0.  0.
        -12    1    1    2    0    0  0.33266013423E+01 -0.20556973669E+01  0.18313562589E+02  0.18726418314E+02  0.00000000000E+00 0.  1.
         11    1    3    3    0    0  0.42078326091E+01  0.89348954207E+01  0.24425315535E+01  0.10173700020E+02  0.51100000000E-03 0. -1.
        -11    1    3    3    0    0 -0.69949707161E+01 -0.39547237024E+01 -0.41023698519E+02  0.41803268955E+02  0.51100000000E-03 0.  1.
        -12    1    3    3    0    0 -0.53946323530E+00 -0.29244743514E+01  0.20267604376E+02  0.20484612712E+02  0.00000000000E+00 0.  1.
</event>
<event>
 7    1  0.1884848E-013  0.7246154E+02  0.7816164E-02  0.1226708E+00
        -11   -1    0    0    0    0  0.00000000000E+00  0.00000000000E+00  0.45593999997E+02  0.45594000000E+02  0.51100000000E-03 0.  1.
         11   -1    0    0    0    0 -0.00000000000E+00 -0.00000000000E+00 -0.45593999997E+02  0.45594000000E+02  0.51100000000E-03 0. -1.
    9900012    2    1    2    0    0  0.27923441637E+01 -0.49157818626E+01 -0.17852679240E+02  0.72461541357E+02  0.69999962304E+02 0.  0.
        -12    1    1    2    0    0 -0.27923441637E+01  0.49157818626E+01  0.17852679240E+02  0.18726458643E+02  0.00000000000E+00 0.  1.
         11    1    3    3    0    0 -0.14397855791E+01  0.13070062775E+02 -0.31780873379E+02  0.34393654014E+02  0.51100000000E-03 0. -1.
        -11    1    3    3    0    0 -0.22511941623E+01 -0.24705612793E+02  0.53287393601E+01  0.25373818043E+02  0.51100000000E-03 0.  1.
        -12    1    3    3    0    0  0.64833239051E+01  0.67197681551E+01  0.85994547782E+01  0.12694069300E+02  0.00000000000E+00 0.  1.
</event>
<event>
 7    1  0.1884848E-013  0.7246154E+02  0.7816164E-02  0.1226708E+00
        -11   -1    0    0    0    0  0.00000000000E+00  0.00000000000E+00  0.45593999997E+02  0.45594000000E+02  0.51100000000E-03 0. -1.
         11   -1    0    0    0    0 -0.00000000000E+00 -0.00000000000E+00 -0.45593999997E+02  0.45594000000E+02  0.51100000000E-03 0.  1.
    9900012    2    1    2    0    0  0.10668031636E+02 -0.98089229142E+01  0.11859945263E+02  0.72461543598E+02  0.69999965223E+02 0.  0.
        -12    1    1    2    0    0 -0.10668031636E+02  0.98089229142E+01 -0.11859945263E+02  0.18726456402E+02  0.00000000000E+00 0.  1.
         11    1    3    3    0    0  0.99443198177E+01 -0.58108980827E+01  0.33072969887E+02  0.35021098934E+02  0.51100000000E-03 0. -1.
        -11    1    3    3    0    0 -0.68437089275E+00 -0.17240559885E+02 -0.14442886366E+02  0.22501160759E+02  0.51100000000E-03 0.  1.
        -12    1    3    3    0    0  0.14080827113E+01  0.13242535054E+02 -0.67701382577E+01  0.14939283905E+02  0.00000000000E+00 0.  1.
</event>
<event>
 7    1  0.1884848E-013  0.7246157E+02  0.7816164E-02  0.1226708E+00
        -11   -1    0    0    0    0  0.00000000000E+00  0.00000000000E+00  0.45593999997E+02  0.45594000000E+02  0.51100000000E-03 0. -1.
         11   -1    0    0    0    0 -0.00000000000E+00 -0.00000000000E+00 -0.45593999997E+02  0.45594000000E+02  0.51100000000E-03 0.  1.
    9900012    2    1    2    0    0 -0.13528554975E+02 -0.83127790447E+01  0.99274917837E+01  0.72461569794E+02  0.69999999348E+02 0.  0.
        -12    1    1    2    0    0  0.13528554975E+02  0.83127790447E+01 -0.99274917837E+01  0.18726430206E+02  0.00000000000E+00 0.  1.
         11    1    3    3    0    0 -0.18924662440E+02 -0.10246489546E+02  0.19374343418E+02  0.28956839946E+02  0.51100000000E-03 0. -1.
        -11    1    3    3    0    0  0.20328483480E+02  0.10139922513E+02  0.22639593433E+01  0.22829603179E+02  0.51100000000E-03 0.  1.
        -12    1    3    3    0    0 -0.14932376014E+02 -0.82062120115E+01 -0.11710810978E+02  0.20675126669E+02  0.00000000000E+00 0.  1.
</event>
<event>
 7    1  0.1884848E-013  0.7246146E+02  0.7816164E-02  0.1226708E+00
        -11   -1    0    0    0    0  0.00000000000E+00  0.00000000000E+00  0.45593999997E+02  0.45594000000E+02  0.51100000000E-03 0.  1.
         11   -1    0    0    0    0 -0.00000000000E+00 -0.00000000000E+00 -0.45593999997E+02  0.45594000000E+02  0.51100000000E-03 0. -1.
    9900012    2    1    2    0    0 -0.52350070599E+00  0.18489533695E+02 -0.29234250970E+01  0.72461459381E+02  0.69999855515E+02 0.  0.
        -12    1    1    2    0    0  0.52350070599E+00 -0.18489533695E+02  0.29234250970E+01  0.18726540619E+02  0.00000000000E+00 0.  1.
         11    1    3    3    0    0 -0.29145372134E+02  0.10881960235E+02 -0.77200052463E+01  0.32054145702E+02  0.51100000000E-03 0. -1.
        -11    1    3    3    0    0  0.26355814908E+02 -0.33535488944E+01 -0.30430150116E+01  0.26742012083E+02  0.51100000000E-03 0.  1.
         12    1    3    3    0    0  0.22660565209E+01  0.10961122355E+02  0.78395951609E+01  0.13665301596E+02  0.00000000000E+00 0. -1.
</event>
<event>
 7    1  0.1884848E-013  0.7246156E+02  0.7816164E-02  0.1226708E+00
        -11   -1    0    0    0    0  0.00000000000E+00  0.00000000000E+00  0.45593999997E+02  0.45594000000E+02  0.51100000000E-03 0.  1.
         11   -1    0    0    0    0 -0.00000000000E+00 -0.00000000000E+00 -0.45593999997E+02  0.45594000000E+02  0.51100000000E-03 0. -1.
    9900012    2    1    2    0    0  0.63572631498E+01  0.94248772386E+01 -0.14880745617E+02  0.72461556242E+02  0.69999981694E+02 0.  0.
        -12    1    1    2    0    0 -0.63572631498E+01 -0.94248772386E+01  0.14880745617E+02  0.18726443758E+02  0.00000000000E+00 0.  1.
         11    1    3    3    0    0 -0.18925628426E+02 -0.29118302124E+01 -0.23239195331E+02  0.30111764585E+02  0.51100000000E-03 0. -1.
        -11    1    3    3    0    0  0.20554104769E+02 -0.22177251562E+00 -0.72219344846E+01  0.21787077451E+02  0.51100000000E-03 0.  1.
         12    1    3    3    0    0  0.47287868069E+01  0.12558479967E+02  0.15580384199E+02  0.20562714206E+02  0.00000000000E+00 0. -1.
</event>
<event>
 7    1  0.1884848E-013  0.7246157E+02  0.7816164E-02  0.1226708E+00
        -11   -1    0    0    0    0  0.00000000000E+00  0.00000000000E+00  0.45593999997E+02  0.45594000000E+02  0.51100000000E-03 0.  1.
         11   -1    0    0    0    0 -0.00000000000E+00 -0.00000000000E+00 -0.45593999997E+02  0.45594000000E+02  0.51100000000E-03 0. -1.
    9900012    2    1    2    0    0  0.15230765537E+01 -0.11267537046E+02 -0.14879585581E+02  0.72461568937E+02  0.69999998232E+02 0.  0.
        -12    1    1    2    0    0 -0.15230765537E+01  0.11267537046E+02  0.14879585581E+02  0.18726431063E+02  0.00000000000E+00 0.  1.
         11    1    3    3    0    0 -0.68280258191E+01  0.67642745593E+01 -0.28948370902E+02  0.30502221641E+02  0.51100000000E-03 0. -1.
        -11    1    3    3    0    0 -0.10128906280E+02 -0.16369383322E+02  0.10218363827E+01  0.19276815158E+02  0.51100000000E-03 0.  1.
         12    1    3    3    0    0  0.18480008653E+02 -0.16624282831E+01  0.13046948938E+02  0.22682532138E+02  0.00000000000E+00 0. -1.
</event>
<event>
 7    1  0.1884848E-013  0.7246157E+02  0.7816164E-02  0.1226708E+00
        -11   -1    0    0    0    0  0.00000000000E+00  0.00000000000E+00  0.45593999997E+02  0.45594000000E+02  0.51100000000E-03 0. -1.
         11   -1    0    0    0    0 -0.00000000000E+00 -0.00000000000E+00 -0.45593999997E+02  0.45594000000E+02  0.51100000000E-03 0.  1.
    9900012    2    1    2    0    0  0.61298373571E+01  0.73011443152E+01  0.16118237970E+02  0.72461569224E+02  0.69999998606E+02 0.  0.
        -12    1    1    2    0    0 -0.61298373571E+01 -0.73011443152E+01 -0.16118237970E+02  0.18726430776E+02  0.00000000000E+00 0.  1.
         11    1    3    3    0    0 -0.74158393058E+01 -0.51058630198E+01  0.27836619314E+02  0.29256484493E+02  0.51100000000E-03 0. -1.
        -11    1    3    3    0    0  0.19552323054E+02  0.13511586965E+02 -0.21252222058E+02  0.31882805112E+02  0.51100000000E-03 0.  1.
        -12    1    3    3    0    0 -0.60066463908E+01 -0.11045796296E+01  0.95338407144E+01  0.11322279620E+02  0.00000000000E+00 0.  1.
</event>
<event>
 8    1  0.1884848E-013  0.7246165E+02  0.7816164E-02  0.1226708E+00
        -11   -1    0    0    0    0  0.00000000000E+00  0.00000000000E+00  0.45593999997E+02  0.45594000000E+02  0.51100000000E-03 0.  1.
         11   -1    0    0    0    0 -0.00000000000E+00 -0.00000000000E+00 -0.45593999997E+02  0.45594000000E+02  0.51100000000E-03 0. -1.
    9900012    2    1    2    0    0  0.11089290334E+02  0.28456390789E-01 -0.15089833409E+02  0.72461648455E+02  0.70000101819E+02 0.  0.
         24    2    3    3    0    0 -0.39745287119E+01  0.12215539038E+02 -0.16232349057E+02  0.53051626045E+02  0.48846387765E+02 0.  0.
        -12    1    1    2    0    0 -0.11089290334E+02 -0.28456390789E-01  0.15089833409E+02  0.18726351545E+02  0.00000000000E+00 0.  1.
         11    1    3    3    0    0  0.15063819046E+02 -0.12187082647E+02  0.11425156477E+01  0.19410022410E+02  0.51100000000E-03 0. -1.
        -11    1    4    4    0    0  0.13720216119E+02  0.25003864569E+02 -0.11240982804E+02  0.30656113067E+02  0.51100000000E-03 0.  1.
         12    1    4    4    0    0 -0.17694744831E+02 -0.12788325530E+02 -0.49913662528E+01  0.22395512978E+02  0.00000000000E+00 0. -1.
</event>
<event>
 7    1  0.1884848E-013  0.7246161E+02  0.7816164E-02  0.1226708E+00
        -11   -1    0    0    0    0  0.00000000000E+00  0.00000000000E+00  0.45593999997E+02  0.45594000000E+02  0.51100000000E-03 0.  1.
         11   -1    0    0    0    0 -0.00000000000E+00 -0.00000000000E+00 -0.45593999997E+02  0.45594000000E+02  0.51100000000E-03 0. -1.
    9900012    2    1    2    0    0  0.17691411116E+02 -0.61276888147E+01  0.37842963817E+00  0.72461606688E+02  0.70000047409E+02 0.  0.
        -12    1    1    2    0    0 -0.17691411116E+02  0.61276888147E+01 -0.37842963817E+00  0.18726393312E+02  0.00000000000E+00 0.  1.
         11    1    3    3    0    0  0.30561834905E+02 -0.69079680425E+01  0.84553780377E+01  0.32453646841E+02  0.51100000000E-03 0. -1.
        -11    1    3    3    0    0 -0.72560594720E+01 -0.15996523607E+02  0.47023627400E+01  0.18183821990E+02  0.51100000000E-03 0.  1.
         12    1    3    3    0    0 -0.56143643167E+01  0.16776802834E+02 -0.12779311140E+02  0.21824137858E+02  0.00000000000E+00 0. -1.
</event>
<event>
 7    1  0.1884848E-013  0.7246157E+02  0.7816164E-02  0.1226708E+00
        -11   -1    0    0    0    0  0.00000000000E+00  0.00000000000E+00  0.45593999997E+02  0.45594000000E+02  0.51100000000E-03 0. -1.
         11   -1    0    0    0    0 -0.00000000000E+00 -0.00000000000E+00 -0.45593999997E+02  0.45594000000E+02  0.51100000000E-03 0.  1.
    9900012    2    1    2    0    0 -0.12281721785E+02 -0.13893059292E+02  0.26117986285E+01  0.72461567382E+02  0.69999996206E+02 0.  0.
        -12    1    1    2    0    0  0.12281721785E+02  0.13893059292E+02 -0.26117986285E+01  0.18726432618E+02  0.00000000000E+00 0.  1.
         11    1    3    3    0    0  0.15377667962E+02 -0.93074406162E+01 -0.25472507000E+02  0.31176108415E+02  0.51100000000E-03 0.  1.
        -11    1    3    3    0    0 -0.24878081536E+02 -0.11583965652E+01  0.19492487312E+02  0.31626221484E+02  0.51100000000E-03 0. -1.
         12    1    3    3    0    0 -0.27813082115E+01 -0.34272221111E+01  0.85918183170E+01  0.96592374832E+01  0.00000000000E+00 0. -1.
</event>
<event>
 7    1  0.1884848E-013  0.7246151E+02  0.7816164E-02  0.1226708E+00
        -11   -1    0    0    0    0  0.00000000000E+00  0.00000000000E+00  0.45593999997E+02  0.45594000000E+02  0.51100000000E-03 0.  1.
         11   -1    0    0    0    0 -0.00000000000E+00 -0.00000000000E+00 -0.45593999997E+02  0.45594000000E+02  0.51100000000E-03 0. -1.
    9900012    2    1    2    0    0 -0.24657939978E+01  0.47029893315E+01 -0.17957819072E+02  0.72461507682E+02  0.69999918436E+02 0.  0.
        -12    1    1    2    0    0  0.24657939978E+01 -0.47029893315E+01  0.17957819072E+02  0.18726492318E+02  0.00000000000E+00 0.  1.
         11    1    3    3    0    0  0.38004000881E+00 -0.19704799634E+01 -0.26958074697E+02  0.27032665672E+02  0.51100000000E-03 0. -1.
        -11    1    3    3    0    0  0.18636948426E+02  0.27397894656E+01  0.13442348842E+02  0.23141716350E+02  0.51100000000E-03 0.  1.
        -12    1    3    3    0    0 -0.21482782433E+02  0.39336798293E+01 -0.44420932165E+01  0.22287125660E+02  0.00000000000E+00 0.  1.
</event>
<event>
 7    1  0.1884848E-013  0.7246156E+02  0.7816164E-02  0.1226708E+00
        -11   -1    0    0    0    0  0.00000000000E+00  0.00000000000E+00  0.45593999997E+02  0.45594000000E+02  0.51100000000E-03 0. -1.
         11   -1    0    0    0    0 -0.00000000000E+00 -0.00000000000E+00 -0.45593999997E+02  0.45594000000E+02  0.51100000000E-03 0.  1.
    9900012    2    1    2    0    0 -0.11594598120E+02  0.14361011740E+02 -0.31632512770E+01  0.72461560872E+02  0.69999987725E+02 0.  0.
        -12    1    1    2    0    0  0.11594598120E+02 -0.14361011740E+02  0.31632512770E+01  0.18726439128E+02  0.00000000000E+00 0.  1.
         11    1    3    3    0    0  0.62287680608E+01  0.26942609188E+02  0.14595452105E+02  0.31268657851E+02  0.51100000000E-03 0. -1.
        -11    1    3    3    0    0 -0.15754946303E+02 -0.15118254118E+01 -0.23670211973E+02  0.28474249493E+02  0.51100000000E-03 0.  1.
        -12    1    3    3    0    0 -0.20684198776E+01 -0.11069772036E+02  0.59115085916E+01  0.12718653527E+02  0.00000000000E+00 0.  1.
</event>
<event>
 8    1  0.1884848E-013  0.7246141E+02  0.7816164E-02  0.1226708E+00
        -11   -1    0    0    0    0  0.00000000000E+00  0.00000000000E+00  0.45593999997E+02  0.45594000000E+02  0.51100000000E-03 0.  1.
         11   -1    0    0    0    0 -0.00000000000E+00 -0.00000000000E+00 -0.45593999997E+02  0.45594000000E+02  0.51100000000E-03 0. -1.
    9900012    2    1    2    0    0  0.37418278938E+01 -0.10574541672E+02 -0.14995430213E+02  0.72461411019E+02  0.69999792514E+02 0.  0.
         24    2    3    3    0    0  0.12743855450E+02 -0.13661881483E+02  0.12512144176E+01  0.53632666259E+02  0.50257780443E+02 0.  0.
        -12    1    1    2    0    0 -0.37418278938E+01  0.10574541672E+02  0.14995430213E+02  0.18726588981E+02  0.00000000000E+00 0.  1.
         11    1    3    3    0    0 -0.90020275566E+01  0.30873398107E+01 -0.16246644631E+02  0.18828744761E+02  0.51100000000E-03 0. -1.
        -11    1    4    4    0    0 -0.57960779644E+01 -0.19911914135E+01  0.22375507246E+02  0.23199626889E+02  0.51100000000E-03 0.  1.
         12    1    4    4    0    0  0.18539933415E+02 -0.11670690069E+02 -0.21124292829E+02  0.30433039369E+02  0.00000000000E+00 0. -1.
</event>
<event>
 7    1  0.1884848E-013  0.7246154E+02  0.7816164E-02  0.1226708E+00
        -11   -1    0    0    0    0  0.00000000000E+00  0.00000000000E+00  0.45593999997E+02  0.45594000000E+02  0.51100000000E-03 0. -1.
         11   -1    0    0    0    0 -0.00000000000E+00 -0.00000000000E+00 -0.45593999997E+02  0.45594000000E+02  0.51100000000E-03 0.  1.
    9900012    2    1    2    0    0  0.72372209397E+01 -0.17137009680E+02 -0.21508127565E+01  0.72461535753E+02  0.69999955003E+02 0.  0.
        -12    1    1    2    0    0 -0.72372209397E+01  0.17137009680E+02  0.21508127565E+01  0.18726464247E+02  0.00000000000E+00 0.  1.
         11    1    3    3    0    0 -0.34454463647E+01 -0.34070156102E+01  0.25560863167E+02  0.26016083143E+02  0.51100000000E-03 0. -1.
        -11    1    3    3    0    0 -0.11944278648E+02 -0.35630448159E+01 -0.90411368671E+01  0.15398156932E+02  0.51100000000E-03 0.  1.
         12    1    3    3    0    0  0.22626945953E+02 -0.10166949253E+02 -0.18670539056E+02  0.31047295678E+02  0.00000000000E+00 0. -1.
</event>
<event>
 7    1  0.1884848E-013  0.7246156E+02  0.7816164E-02  0.1226708E+00
        -11   -1    0    0    0    0  0.00000000000E+00  0.00000000000E+00  0.45593999997E+02  0.45594000000E+02  0.51100000000E-03 0.  1.
         11   -1    0    0    0    0 -0.00000000000E+00 -0.00000000000E+00 -0.45593999997E+02  0.45594000000E+02  0.51100000000E-03 0. -1.
    9900012    2    1    2    0    0 -0.13660244282E+02  0.76629642127E+01 -0.10264328552E+02  0.72461555196E+02  0.69999980331E+02 0.  0.
        -12    1    1    2    0    0  0.13660244282E+02 -0.76629642127E+01  0.10264328552E+02  0.18726444804E+02  0.00000000000E+00 0.  1.
         11    1    3    3    0    0  0.42838723164E+01 -0.58637781698E+01 -0.32781408360E+02  0.33576125309E+02  0.51100000000E-03 0. -1.
        -11    1    3    3    0    0  0.47344426243E+01  0.53375124647E+01  0.25409355373E+01  0.75736609338E+01  0.51100000000E-03 0.  1.
         12    1    3    3    0    0 -0.22678559223E+02  0.81892299178E+01  0.19976144270E+02  0.31311768953E+02  0.00000000000E+00 0. -1.
</event>
<event>
 7    1  0.1884848E-013  0.7246156E+02  0.7816164E-02  0.1226708E+00
        -11   -1    0    0    0    0  0.00000000000E+00  0.00000000000E+00  0.45593999997E+02  0.45594000000E+02  0.51100000000E-03 0. -1.
         11   -1    0    0    0    0 -0.00000000000E+00 -0.00000000000E+00 -0.45593999997E+02  0.45594000000E+02  0.51100000000E-03 0.  1.
    9900012    2    1    2    0    0  0.18213362366E+02 -0.38681524179E+01  0.19976156682E+01  0.72461557728E+02  0.69999983630E+02 0.  0.
        -12    1    1    2    0    0 -0.18213362366E+02  0.38681524179E+01 -0.19976156682E+01  0.18726442272E+02  0.00000000000E+00 0.  1.
         11    1    3    3    0    0 -0.19643322457E+02  0.12079735919E+01 -0.14711233382E+01  0.19735336873E+02  0.51100000000E-03 0.  1.
        -11    1    3    3    0    0  0.33494146695E+02 -0.71160681242E+01  0.17096504697E+02  0.38272532729E+02  0.51100000000E-03 0. -1.
         12    1    3    3    0    0  0.43625381280E+01  0.20399421144E+01 -0.13627765690E+02  0.14453688126E+02  0.00000000000E+00 0. -1.
</event>
<event>
 7    1  0.1884848E-013  0.7246158E+02  0.7816164E-02  0.1226708E+00
        -11   -1    0    0    0    0  0.00000000000E+00  0.00000000000E+00  0.45593999997E+02  0.45594000000E+02  0.51100000000E-03 0.  1.
         11   -1    0    0    0    0 -0.00000000000E+00 -0.00000000000E+00 -0.45593999997E+02  0.45594000000E+02  0.51100000000E-03 0. -1.
    9900012    2    1    2    0    0  0.16176543115E+02  0.64232482166E+01 -0.69094209903E+01  0.72461581143E+02  0.70000014132E+02 0.  0.
        -12    1    1    2    0    0 -0.16176543115E+02 -0.64232482166E+01  0.69094209903E+01  0.18726418857E+02  0.00000000000E+00 0.  1.
         11    1    3    3    0    0 -0.23275554643E+02  0.17047233612E+02 -0.11652940432E+02  0.31115119134E+02  0.51100000000E-03 0. -1.
        -11    1    3    3    0    0  0.21707795707E+02 -0.39761053603E+01  0.14776618081E+01  0.22118347429E+02  0.51100000000E-03 0.  1.
         12    1    3    3    0    0  0.17744302050E+02 -0.66478800347E+01  0.32658576336E+01  0.19228114580E+02  0.00000000000E+00 0. -1.
</event>
<event>
 7    1  0.1884848E-013  0.7246157E+02  0.7816164E-02  0.1226708E+00
        -11   -1    0    0    0    0  0.00000000000E+00  0.00000000000E+00  0.45593999997E+02  0.45594000000E+02  0.51100000000E-03 0.  1.
         11   -1    0    0    0    0 -0.00000000000E+00 -0.00000000000E+00 -0.45593999997E+02  0.45594000000E+02  0.51100000000E-03 0. -1.
    9900012    2    1    2    0    0  0.27145789246E+01  0.17231418344E+02 -0.68109118713E+01  0.72461568482E+02  0.69999997639E+02 0.  0.
        -12    1    1    2    0    0 -0.27145789246E+01 -0.17231418344E+02  0.68109118713E+01  0.18726431518E+02  0.00000000000E+00 0.  1.
         11    1    3    3    0    0  0.30346883144E+00  0.33250028265E+02 -0.16438302558E+02  0.37092779139E+02  0.51100000000E-03 0. -1.
        -11    1    3    3    0    0  0.19820053017E+01 -0.51380792987E+01  0.19748804628E+02  0.20502280078E+02  0.51100000000E-03 0.  1.
         12    1    3    3    0    0  0.42910479149E+00 -0.10880530623E+02 -0.10121413942E+02  0.14866509265E+02  0.00000000000E+00 0. -1.
</event>
<event>
 7    1  0.1884848E-013  0.7246153E+02  0.7816164E-02  0.1226708E+00
        -11   -1    0    0    0    0  0.00000000000E+00  0.00000000000E+00  0.45593999997E+02  0.45594000000E+02  0.51100000000E-03 0.  1.
         11   -1    0    0    0    0 -0.00000000000E+00 -0.00000000000E+00 -0.45593999997E+02  0.45594000000E+02  0.51100000000E-03 0. -1.
    9900012    2    1    2    0    0 -0.15855832708E+02  0.20012830903E+01 -0.97605355358E+01  0.72461531597E+02  0.69999949590E+02 0.  0.
        -12    1    1    2    0    0  0.15855832708E+02 -0.20012830903E+01  0.97605355358E+01  0.18726468403E+02  0.00000000000E+00 0.  1.
         11    1    3    3    0    0  0.15206271262E+01 -0.15639020089E+02  0.18479826433E+02  0.24256859679E+02  0.51100000000E-03 0. -1.
        -11    1    3    3    0    0 -0.63605519237E+01  0.24137126073E+02 -0.12476837603E+02  0.27905715412E+02  0.51100000000E-03 0.  1.
        -12    1    3    3    0    0 -0.11015907911E+02 -0.64968228935E+01 -0.15763524367E+02  0.20298956507E+02  0.00000000000E+00 0.  1.
</event>
<event>
 7    1  0.1884848E-013  0.7246163E+02  0.7816164E-02  0.1226708E+00
        -11   -1    0    0    0    0  0.00000000000E+00  0.00000000000E+00  0.45593999997E+02  0.45594000000E+02  0.51100000000E-03 0.  1.
         11   -1    0    0    0    0 -0.00000000000E+00 -0.00000000000E+00 -0.45593999997E+02  0.45594000000E+02  0.51100000000E-03 0. -1.
    9900012    2    1    2    0    0 -0.12291591876E+02 -0.48419485410E+01  0.13272123645E+02  0.72461629221E+02  0.70000076763E+02 0.  0.
        -12    1    1    2    0    0  0.12291591876E+02  0.48419485410E+01 -0.13272123645E+02  0.18726370779E+02  0.00000000000E+00 0.  1.
         11    1    3    3    0    0 -0.32940206403E+02  0.49918736276E+01  0.11014766550E+02  0.35089900008E+02  0.51100000000E-03 0. -1.
        -11    1    3    3    0    0  0.24781081277E+02 -0.58999359590E+01 -0.70709696521E+01  0.26436903103E+02  0.51100000000E-03 0.  1.
         12    1    3    3    0    0 -0.41324667501E+01 -0.39338862095E+01  0.93283267468E+01  0.10934826110E+02  0.00000000000E+00 0. -1.
</event>
<event>
 7    1  0.1884848E-013  0.7246156E+02  0.7816164E-02  0.1226708E+00
        -11   -1    0    0    0    0  0.00000000000E+00  0.00000000000E+00  0.45593999997E+02  0.45594000000E+02  0.51100000000E-03 0. -1.
         11   -1    0    0    0    0 -0.00000000000E+00 -0.00000000000E+00 -0.45593999997E+02  0.45594000000E+02  0.51100000000E-03 0.  1.
    9900012    2    1    2    0    0 -0.25509859150E+01 -0.15172179169E+02  0.10676008482E+02  0.72461555944E+02  0.69999981306E+02 0.  0.
        -12    1    1    2    0    0  0.25509859150E+01  0.15172179169E+02 -0.10676008482E+02  0.18726444056E+02  0.00000000000E+00 0.  1.
         11    1    3    3    0    0 -0.37124221742E+01 -0.42010145904E+02  0.11317438812E+01  0.42189042200E+02  0.51100000000E-03 0. -1.
        -11    1    3    3    0    0  0.34716040153E+01  0.24944994039E+01  0.13361101559E+01  0.44788114858E+01  0.51100000000E-03 0.  1.
         12    1    3    3    0    0 -0.23101677562E+01  0.24343467331E+02  0.82081544451E+01  0.25793702258E+02  0.00000000000E+00 0. -1.
</event>
<event>
 7    1  0.1884848E-013  0.7246153E+02  0.7816164E-02  0.1226708E+00
        -11   -1    0    0    0    0  0.00000000000E+00  0.00000000000E+00  0.45593999997E+02  0.45594000000E+02  0.51100000000E-03 0.  1.
         11   -1    0    0    0    0 -0.00000000000E+00 -0.00000000000E+00 -0.45593999997E+02  0.45594000000E+02  0.51100000000E-03 0. -1.
    9900012    2    1    2    0    0  0.17427762073E+02 -0.38116108439E+01 -0.56943250806E+01  0.72461531934E+02  0.69999950028E+02 0.  0.
        -12    1    1    2    0    0 -0.17427762073E+02  0.38116108439E+01  0.56943250806E+01  0.18726468066E+02  0.00000000000E+00 0.  1.
         11    1    3    3    0    0 -0.66579251323E+01 -0.16651551420E+02  0.28579899790E+01  0.18159577053E+02  0.51100000000E-03 0. -1.
        -11    1    3    3    0    0  0.34684285923E+02  0.11998940592E+02 -0.17262009007E+02  0.40557998231E+02  0.51100000000E-03 0.  1.
        -12    1    3    3    0    0 -0.10598598717E+02  0.84099998336E+00  0.87096939477E+01  0.13743956650E+02  0.00000000000E+00 0.  1.
</event>
<event>
 7    1  0.1884848E-013  0.7246156E+02  0.7816164E-02  0.1226708E+00
        -11   -1    0    0    0    0  0.00000000000E+00  0.00000000000E+00  0.45593999997E+02  0.45594000000E+02  0.51100000000E-03 0.  1.
         11   -1    0    0    0    0 -0.00000000000E+00 -0.00000000000E+00 -0.45593999997E+02  0.45594000000E+02  0.51100000000E-03 0. -1.
    9900012    2    1    2    0    0 -0.10881065969E+01  0.15457583674E+02 -0.10514690760E+02  0.72461559047E+02  0.69999985348E+02 0.  0.
        -12    1    1    2    0    0  0.10881065969E+01 -0.15457583674E+02  0.10514690760E+02  0.18726440953E+02  0.00000000000E+00 0.  1.
         11    1    3    3    0    0 -0.10333835411E+02 -0.17227586942E+02 -0.14866763028E+02  0.24991969697E+02  0.51100000000E-03 0. -1.
        -11    1    3    3    0    0  0.16634384450E+02  0.35451749363E+02  0.18946513925E+01  0.39206109003E+02  0.51100000000E-03 0.  1.
        -12    1    3    3    0    0 -0.73886556361E+01 -0.27665787472E+01  0.24574208760E+01  0.82634803463E+01  0.00000000000E+00 0.  1.
</event>
<event>
 7    1  0.1884848E-013  0.7246158E+02  0.7816164E-02  0.1226708E+00
        -11   -1    0    0    0    0  0.00000000000E+00  0.00000000000E+00  0.45593999997E+02  0.45594000000E+02  0.51100000000E-03 0.  1.
         11   -1    0    0    0    0 -0.00000000000E+00 -0.00000000000E+00 -0.45593999997E+02  0.45594000000E+02  0.51100000000E-03 0. -1.
    9900012    2    1    2    0    0 -0.15829905078E+01 -0.14807597083E+02 -0.11353764249E+02  0.72461581417E+02  0.70000014489E+02 0.  0.
        -12    1    1    2    0    0  0.15829905078E+01  0.14807597083E+02  0.11353764249E+02  0.18726418583E+02  0.00000000000E+00 0.  1.
         11    1    3    3    0    0  0.22607759392E+01  0.43757871638E+01 -0.16669181153E+02  0.17381605844E+02  0.51100000000E-03 0. -1.
        -11    1    3    3    0    0 -0.62225490326E+01 -0.34189786021E+02  0.14130238422E+02  0.37514333564E+02  0.51100000000E-03 0.  1.
        -12    1    3    3    0    0  0.23787825857E+01  0.15006401774E+02 -0.88148215179E+01  0.17565642009E+02  0.00000000000E+00 0.  1.
</event>
<event>
 7    1  0.1884848E-013  0.7246157E+02  0.7816164E-02  0.1226708E+00
        -11   -1    0    0    0    0  0.00000000000E+00  0.00000000000E+00  0.45593999997E+02  0.45594000000E+02  0.51100000000E-03 0. -1.
         11   -1    0    0    0    0 -0.00000000000E+00 -0.00000000000E+00 -0.45593999997E+02  0.45594000000E+02  0.51100000000E-03 0.  1.
    9900012    2    1    2    0    0  0.14203554342E+02 -0.99384422503E+01 -0.70827555159E+01  0.72461574393E+02  0.70000005340E+02 0.  0.
        -12    1    1    2    0    0 -0.14203554342E+02  0.99384422503E+01  0.70827555159E+01  0.18726425607E+02  0.00000000000E+00 0.  1.
         11    1    3    3    0    0 -0.10475263088E+02 -0.11128157802E+02 -0.72568328603E+01  0.16918293539E+02  0.51100000000E-03 0. -1.
        -11    1    3    3    0    0  0.65262744462E+01  0.22536175014E+02 -0.10306743133E+02  0.25626166250E+02  0.51100000000E-03 0.  1.
        -12    1    3    3    0    0  0.18152542984E+02 -0.21346459462E+02  0.10480820478E+02  0.29917114604E+02  0.00000000000E+00 0.  1.
</event>
<event>
 7    1  0.1884848E-013  0.7246159E+02  0.7816164E-02  0.1226708E+00
        -11   -1    0    0    0    0  0.00000000000E+00  0.00000000000E+00  0.45593999997E+02  0.45594000000E+02  0.51100000000E-03 0.  1.
         11   -1    0    0    0    0 -0.00000000000E+00 -0.00000000000E+00 -0.45593999997E+02  0.45594000000E+02  0.51100000000E-03 0. -1.
    9900012    2    1    2    0    0 -0.75774354389E+01 -0.15963679334E+02  0.61985348823E+01  0.72461590296E+02  0.70000026056E+02 0.  0.
        -12    1    1    2    0    0  0.75774354389E+01  0.15963679334E+02 -0.61985348823E+01  0.18726409704E+02  0.00000000000E+00 0.  1.
         11    1    3    3    0    0 -0.17451696936E+02 -0.12874728071E+02 -0.11583980886E+02  0.24586763965E+02  0.51100000000E-03 0. -1.
        -11    1    3    3    0    0 -0.91984204885E+01  0.79028500990E+01  0.22317199019E+02  0.25399278562E+02  0.51100000000E-03 0.  1.
        -12    1    3    3    0    0  0.19072681986E+02 -0.10991801362E+02 -0.45346832506E+01  0.22475547768E+02  0.00000000000E+00 0.  1.
</event>
<event>
 7    1  0.1884848E-013  0.7246156E+02  0.7816164E-02  0.1226708E+00
        -11   -1    0    0    0    0  0.00000000000E+00  0.00000000000E+00  0.45593999997E+02  0.45594000000E+02  0.51100000000E-03 0.  1.
         11   -1    0    0    0    0 -0.00000000000E+00 -0.00000000000E+00 -0.45593999997E+02  0.45594000000E+02  0.51100000000E-03 0. -1.
    9900012    2    1    2    0    0  0.19557208215E+00  0.16806490293E+02 -0.82573134700E+01  0.72461559064E+02  0.69999985370E+02 0.  0.
        -12    1    1    2    0    0 -0.19557208215E+00 -0.16806490293E+02  0.82573134700E+01  0.18726440936E+02  0.00000000000E+00 0.  1.
         11    1    3    3    0    0 -0.26042549991E+01  0.38449839254E+02 -0.83393700638E+01  0.39429904591E+02  0.51100000000E-03 0. -1.
        -11    1    3    3    0    0  0.29046632390E+01 -0.90980965741E+01  0.12264413823E+02  0.15544396948E+02  0.51100000000E-03 0.  1.
         12    1    3    3    0    0 -0.10483615776E+00 -0.12545252387E+02 -0.12182357229E+02  0.17487257524E+02  0.00000000000E+00 0. -1.
</event>
<event>
 7    1  0.1884848E-013  0.7246162E+02  0.7816164E-02  0.1226708E+00
        -11   -1    0    0    0    0  0.00000000000E+00  0.00000000000E+00  0.45593999997E+02  0.45594000000E+02  0.51100000000E-03 0. -1.
         11   -1    0    0    0    0 -0.00000000000E+00 -0.00000000000E+00 -0.45593999997E+02  0.45594000000E+02  0.51100000000E-03 0.  1.
    9900012    2    1    2    0    0 -0.13431576849E+02  0.10074099058E+02  0.82935362283E+01  0.72461615628E+02  0.70000059056E+02 0.  0.
        -12    1    1    2    0    0  0.13431576849E+02 -0.10074099058E+02 -0.82935362283E+01  0.18726384372E+02  0.00000000000E+00 0.  1.
         11    1    3    3    0    0 -0.47685109173E+01  0.16390359580E+02  0.26341160152E+02  0.31388521819E+02  0.51100000000E-03 0. -1.
        -11    1    3    3    0    0 -0.44057685647E+01 -0.19830084794E+02 -0.32250169188E+01  0.20568028442E+02  0.51100000000E-03 0.  1.
         12    1    3    3    0    0 -0.42572973671E+01  0.13513824271E+02 -0.14822607005E+02  0.20505065368E+02  0.00000000000E+00 0. -1.
</event>
<event>
 7    1  0.1884848E-013  0.7246156E+02  0.7816164E-02  0.1226708E+00
        -11   -1    0    0    0    0  0.00000000000E+00  0.00000000000E+00  0.45593999997E+02  0.45594000000E+02  0.51100000000E-03 0.  1.
         11   -1    0    0    0    0 -0.00000000000E+00 -0.00000000000E+00 -0.45593999997E+02  0.45594000000E+02  0.51100000000E-03 0. -1.
    9900012    2    1    2    0    0  0.93627559498E+01 -0.12540384693E+02 -0.10283822670E+02  0.72461562647E+02  0.69999990039E+02 0.  0.
        -12    1    1    2    0    0 -0.93627559498E+01  0.12540384693E+02  0.10283822670E+02  0.18726437353E+02  0.00000000000E+00 0.  1.
         11    1    3    3    0    0 -0.21143754709E+02 -0.19932416114E+02 -0.14939122639E+02  0.32673184124E+02  0.51100000000E-03 0. -1.
        -11    1    3    3    0    0  0.15423377150E+02  0.29222765903E+00  0.13866413986E+02  0.20742309341E+02  0.51100000000E-03 0.  1.
         12    1    3    3    0    0  0.15083133508E+02  0.70998037620E+01 -0.92111140161E+01  0.19046069182E+02  0.00000000000E+00 0. -1.
</event>
<event>
 7    1  0.1884848E-013  0.7246156E+02  0.7816164E-02  0.1226708E+00
        -11   -1    0    0    0    0  0.00000000000E+00  0.00000000000E+00  0.45593999997E+02  0.45594000000E+02  0.51100000000E-03 0.  1.
         11   -1    0    0    0    0 -0.00000000000E+00 -0.00000000000E+00 -0.45593999997E+02  0.45594000000E+02  0.51100000000E-03 0. -1.
    9900012    2    1    2    0    0 -0.28515452667E+01  0.88085256682E+01 -0.16277529420E+02  0.72461564170E+02  0.69999992022E+02 0.  0.
        -12    1    1    2    0    0  0.28515452667E+01 -0.88085256682E+01  0.16277529420E+02  0.18726435830E+02  0.00000000000E+00 0.  1.
         11    1    3    3    0    0 -0.13640557277E+01 -0.13581816813E+02 -0.10861889789E+02  0.17444398700E+02  0.51100000000E-03 0. -1.
        -11    1    3    3    0    0 -0.19083918902E+01  0.37891128197E+02  0.16538406065E+01  0.37975185907E+02  0.51100000000E-03 0.  1.
        -12    1    3    3    0    0  0.42090235115E+00 -0.15500785716E+02 -0.70694802383E+01  0.17041979564E+02  0.00000000000E+00 0.  1.
</event>
<event>
 7    1  0.1884848E-013  0.7246158E+02  0.7816164E-02  0.1226708E+00
        -11   -1    0    0    0    0  0.00000000000E+00  0.00000000000E+00  0.45593999997E+02  0.45594000000E+02  0.51100000000E-03 0.  1.
         11   -1    0    0    0    0 -0.00000000000E+00 -0.00000000000E+00 -0.45593999997E+02  0.45594000000E+02  0.51100000000E-03 0. -1.
    9900012    2    1    2    0    0  0.11748718893E+02 -0.43845235631E+01 -0.13907633258E+02  0.72461582688E+02  0.70000016145E+02 0.  0.
        -12    1    1    2    0    0 -0.11748718893E+02  0.43845235631E+01  0.13907633258E+02  0.18726417312E+02  0.00000000000E+00 0.  1.
         11    1    3    3    0    0 -0.44392994771E+00 -0.12510899207E+02  0.16184916067E+02  0.20461455987E+02  0.51100000000E-03 0. -1.
        -11    1    3    3    0    0 -0.53216946085E+01 -0.82518575264E+01 -0.25845428151E+02  0.27647780068E+02  0.51100000000E-03 0.  1.
         12    1    3    3    0    0  0.17514343450E+02  0.16378233170E+02 -0.42471211741E+01  0.24352346633E+02  0.00000000000E+00 0. -1.
</event>
<event>
 7    1  0.1884848E-013  0.7246145E+02  0.7816164E-02  0.1226708E+00
        -11   -1    0    0    0    0  0.00000000000E+00  0.00000000000E+00  0.45593999997E+02  0.45594000000E+02  0.51100000000E-03 0. -1.
         11   -1    0    0    0    0 -0.00000000000E+00 -0.00000000000E+00 -0.45593999997E+02  0.45594000000E+02  0.51100000000E-03 0.  1.
    9900012    2    1    2    0    0 -0.12139868643E+02  0.12471645040E+02  0.69112511552E+01  0.72461448443E+02  0.69999841266E+02 0.  0.
        -12    1    1    2    0    0  0.12139868643E+02 -0.12471645040E+02 -0.69112511552E+01  0.18726551557E+02  0.00000000000E+00 0.  1.
         11    1    3    3    0    0 -0.58866894699E+00  0.26650513672E+02  0.78905258174E+01  0.27800302301E+02  0.51100000000E-03 0. -1.
        -11    1    3    3    0    0  0.33761650070E+01 -0.12724282829E+02 -0.17790801802E+02  0.22131843409E+02  0.51100000000E-03 0.  1.
        -12    1    3    3    0    0 -0.14927364703E+02 -0.14545858030E+01  0.16811527140E+02  0.22529302733E+02  0.00000000000E+00 0.  1.
</event>
<event>
 7    1  0.1884848E-013  0.7246107E+02  0.7816164E-02  0.1226709E+00
        -11   -1    0    0    0    0  0.00000000000E+00  0.00000000000E+00  0.45593999997E+02  0.45594000000E+02  0.51100000000E-03 0.  1.
         11   -1    0    0    0    0 -0.00000000000E+00 -0.00000000000E+00 -0.45593999997E+02  0.45594000000E+02  0.51100000000E-03 0. -1.
    9900012    2    1    2    0    0 -0.13142383823E+02 -0.59771410030E+01  0.11926831319E+02  0.72461073599E+02  0.69999352959E+02 0.  0.
        -12    1    1    2    0    0  0.13142383823E+02  0.59771410030E+01 -0.11926831319E+02  0.18726926401E+02  0.00000000000E+00 0.  1.
         11    1    3    3    0    0  0.97819360161E+01 -0.29458491810E+02  0.16062890446E+02  0.34950042370E+02  0.51100000000E-03 0. -1.
        -11    1    3    3    0    0 -0.82577156320E+01  0.12257374455E+02 -0.10329790898E+02  0.18031574425E+02  0.51100000000E-03 0.  1.
         12    1    3    3    0    0 -0.14666604207E+02  0.11223976352E+02  0.61937317715E+01  0.19479456804E+02  0.00000000000E+00 0. -1.
</event>
<event>
 7    1  0.1884848E-013  0.7246163E+02  0.7816164E-02  0.1226708E+00
        -11   -1    0    0    0    0  0.00000000000E+00  0.00000000000E+00  0.45593999997E+02  0.45594000000E+02  0.51100000000E-03 0.  1.
         11   -1    0    0    0    0 -0.00000000000E+00 -0.00000000000E+00 -0.45593999997E+02  0.45594000000E+02  0.51100000000E-03 0. -1.
    9900012    2    1    2    0    0  0.11590536921E+02 -0.14610686929E+02  0.16923491227E+01  0.72461634517E+02  0.70000083662E+02 0.  0.
        -12    1    1    2    0    0 -0.11590536921E+02  0.14610686929E+02 -0.16923491227E+01  0.18726365483E+02  0.00000000000E+00 0.  1.
         11    1    3    3    0    0 -0.57246624040E+01 -0.31196071828E+01  0.21918355391E+02  0.22867400638E+02  0.51100000000E-03 0.  1.
        -11    1    3    3    0    0  0.26605334701E+02 -0.11088045283E+02 -0.25858319196E+02  0.38722619418E+02  0.51100000000E-03 0. -1.
         12    1    3    3    0    0 -0.92901353759E+01 -0.40303446232E+00  0.56323129273E+01  0.10871614461E+02  0.00000000000E+00 0. -1.
</event>
<event>
 7    1  0.1884848E-013  0.7246155E+02  0.7816164E-02  0.1226708E+00
        -11   -1    0    0    0    0  0.00000000000E+00  0.00000000000E+00  0.45593999997E+02  0.45594000000E+02  0.51100000000E-03 0. -1.
         11   -1    0    0    0    0 -0.00000000000E+00 -0.00000000000E+00 -0.45593999997E+02  0.45594000000E+02  0.51100000000E-03 0.  1.
    9900012    2    1    2    0    0 -0.15399626463E+02 -0.85314325006E+00  0.10620907065E+02  0.72461547706E+02  0.69999970575E+02 0.  0.
        -12    1    1    2    0    0  0.15399626463E+02  0.85314325006E+00 -0.10620907065E+02  0.18726452294E+02  0.00000000000E+00 0.  1.
         11    1    3    3    0    0 -0.21575430326E+02 -0.19312798152E+02  0.16512397359E+02  0.33333806159E+02  0.51100000000E-03 0. -1.
        -11    1    3    3    0    0 -0.10420775770E+02  0.11979611428E+02 -0.12413906103E+02  0.20154620379E+02  0.51100000000E-03 0.  1.
        -12    1    3    3    0    0  0.16596579633E+02  0.64800434731E+01  0.65224158085E+01  0.18973121169E+02  0.00000000000E+00 0.  1.
</event>
<event>
 7    1  0.1884848E-013  0.7246158E+02  0.7816164E-02  0.1226708E+00
        -11   -1    0    0    0    0  0.00000000000E+00  0.00000000000E+00  0.45593999997E+02  0.45594000000E+02  0.51100000000E-03 0.  1.
         11   -1    0    0    0    0 -0.00000000000E+00 -0.00000000000E+00 -0.45593999997E+02  0.45594000000E+02  0.51100000000E-03 0. -1.
    9900012    2    1    2    0    0  0.18591501969E+02 -0.80217636678E+00  0.20955448126E+01  0.72461581751E+02  0.70000014924E+02 0.  0.
        -12    1    1    2    0    0 -0.18591501969E+02  0.80217636678E+00 -0.20955448126E+01  0.18726418249E+02  0.00000000000E+00 0.  1.
         11    1    3    3    0    0  0.28652861494E+02 -0.11268954643E+02 -0.17622230062E+01  0.30839605068E+02  0.51100000000E-03 0. -1.
        -11    1    3    3    0    0 -0.13915327309E+02 -0.40296525231E+01  0.16534130565E+02  0.21982991320E+02  0.51100000000E-03 0.  1.
        -12    1    3    3    0    0  0.38539677837E+01  0.14496430800E+02 -0.12676362747E+02  0.19638985363E+02  0.00000000000E+00 0.  1.
</event>
<event>
 7    1  0.1884848E-013  0.7246149E+02  0.7816164E-02  0.1226708E+00
        -11   -1    0    0    0    0  0.00000000000E+00  0.00000000000E+00  0.45593999997E+02  0.45594000000E+02  0.51100000000E-03 0. -1.
         11   -1    0    0    0    0 -0.00000000000E+00 -0.00000000000E+00 -0.45593999997E+02  0.45594000000E+02  0.51100000000E-03 0.  1.
    9900012    2    1    2    0    0 -0.13795240380E+01  0.18624554199E+02 -0.13802781032E+01  0.72461487422E+02  0.69999892043E+02 0.  0.
        -12    1    1    2    0    0  0.13795240380E+01 -0.18624554199E+02  0.13802781032E+01  0.18726512578E+02  0.00000000000E+00 0.  1.
         11    1    3    3    0    0 -0.46860275431E+01  0.22598116066E+02  0.11645095454E+02  0.25850376249E+02  0.51100000000E-03 0. -1.
        -11    1    3    3    0    0  0.33739260006E+01 -0.23344198645E+02 -0.13609636509E+02  0.27231547756E+02  0.51100000000E-03 0.  1.
        -12    1    3    3    0    0 -0.67422495503E-01  0.19370636779E+02  0.58426295158E+00  0.19379563416E+02  0.00000000000E+00 0.  1.
</event>
<event>
 7    1  0.1884848E-013  0.7246147E+02  0.7816164E-02  0.1226708E+00
        -11   -1    0    0    0    0  0.00000000000E+00  0.00000000000E+00  0.45593999997E+02  0.45594000000E+02  0.51100000000E-03 0.  1.
         11   -1    0    0    0    0 -0.00000000000E+00 -0.00000000000E+00 -0.45593999997E+02  0.45594000000E+02  0.51100000000E-03 0. -1.
    9900012    2    1    2    0    0 -0.11088837374E+02  0.11506192601E+02 -0.97636069509E+01  0.72461473275E+02  0.69999873614E+02 0.  0.
        -12    1    1    2    0    0  0.11088837374E+02 -0.11506192601E+02  0.97636069509E+01  0.18726526725E+02  0.00000000000E+00 0.  1.
         11    1    3    3    0    0  0.14770441756E+02  0.17940453040E+02 -0.21151702194E+02  0.31423244755E+02  0.51100000000E-03 0.  1.
        -11    1    3    3    0    0 -0.18238001841E+02  0.93576905370E+01  0.71593521038E+00  0.20511061573E+02  0.51100000000E-03 0. -1.
         12    1    3    3    0    0 -0.76212772887E+01 -0.15791950976E+02  0.10672160033E+02  0.20527166948E+02  0.00000000000E+00 0. -1.
</event>
<event>
 7    1  0.1884848E-013  0.7246156E+02  0.7816164E-02  0.1226708E+00
        -11   -1    0    0    0    0  0.00000000000E+00  0.00000000000E+00  0.45593999997E+02  0.45594000000E+02  0.51100000000E-03 0.  1.
         11   -1    0    0    0    0 -0.00000000000E+00 -0.00000000000E+00 -0.45593999997E+02  0.45594000000E+02  0.51100000000E-03 0. -1.
    9900012    2    1    2    0    0 -0.18606865207E+01  0.74988735959E+00 -0.18618671755E+02  0.72461563519E+02  0.69999991174E+02 0.  0.
        -12    1    1    2    0    0  0.18606865207E+01 -0.74988735959E+00  0.18618671755E+02  0.18726436481E+02  0.00000000000E+00 0.  1.
         11    1    3    3    0    0 -0.28764713962E+02  0.17870035442E+02 -0.25436162793E+01  0.33959047691E+02  0.51100000000E-03 0.  1.
        -11    1    3    3    0    0  0.17466049833E+02 -0.98303134987E+01 -0.21325078979E+01  0.20155533990E+02  0.51100000000E-03 0. -1.
        -12    1    3    3    0    0  0.94379776090E+01 -0.72898345833E+01 -0.13942547577E+02  0.18346981838E+02  0.00000000000E+00 0.  1.
</event>
<event>
 7    1  0.1884848E-013  0.7246162E+02  0.7816164E-02  0.1226708E+00
        -11   -1    0    0    0    0  0.00000000000E+00  0.00000000000E+00  0.45593999997E+02  0.45594000000E+02  0.51100000000E-03 0. -1.
         11   -1    0    0    0    0 -0.00000000000E+00 -0.00000000000E+00 -0.45593999997E+02  0.45594000000E+02  0.51100000000E-03 0.  1.
    9900012    2    1    2    0    0 -0.99301930042E+01 -0.13243638917E+02 -0.87563967757E+01  0.72461623165E+02  0.70000068874E+02 0.  0.
        -12    1    1    2    0    0  0.99301930042E+01  0.13243638917E+02  0.87563967757E+01  0.18726376835E+02  0.00000000000E+00 0.  1.
         11    1    3    3    0    0 -0.25856932311E+02 -0.27873724262E+01 -0.16770938120E+02  0.30945351174E+02  0.51100000000E-03 0. -1.
        -11    1    3    3    0    0  0.51043975235E+01  0.13206228028E+02  0.61292715544E+01  0.15428133485E+02  0.51100000000E-03 0.  1.
        -12    1    3    3    0    0  0.10822341784E+02 -0.23662494519E+02  0.18852697895E+01  0.26088138506E+02  0.00000000000E+00 0.  1.
</event>
<event>
 7    1  0.1884848E-013  0.7246156E+02  0.7816164E-02  0.1226708E+00
        -11   -1    0    0    0    0  0.00000000000E+00  0.00000000000E+00  0.45593999997E+02  0.45594000000E+02  0.51100000000E-03 0. -1.
         11   -1    0    0    0    0 -0.00000000000E+00 -0.00000000000E+00 -0.45593999997E+02  0.45594000000E+02  0.51100000000E-03 0.  1.
    9900012    2    1    2    0    0 -0.12466460346E+02  0.12094525929E+02 -0.69992369581E+01  0.72461561230E+02  0.69999988192E+02 0.  0.
        -12    1    1    2    0    0  0.12466460346E+02 -0.12094525929E+02  0.69992369581E+01  0.18726438770E+02  0.00000000000E+00 0.  1.
         11    1    3    3    0    0 -0.26349499562E+02 -0.63250220024E+01 -0.23557701153E+00  0.27099031851E+02  0.51100000000E-03 0.  1.
        -11    1    3    3    0    0  0.20856586167E+02  0.26269714685E+02 -0.13999261438E+01  0.33571638173E+02  0.51100000000E-03 0. -1.
         12    1    3    3    0    0 -0.69735469507E+01 -0.78501667529E+01 -0.53637338028E+01  0.11790891206E+02  0.00000000000E+00 0. -1.
</event>
<event>
 7    1  0.1884848E-013  0.7246164E+02  0.7816164E-02  0.1226708E+00
        -11   -1    0    0    0    0  0.00000000000E+00  0.00000000000E+00  0.45593999997E+02  0.45594000000E+02  0.51100000000E-03 0.  1.
         11   -1    0    0    0    0 -0.00000000000E+00 -0.00000000000E+00 -0.45593999997E+02  0.45594000000E+02  0.51100000000E-03 0. -1.
    9900012    2    1    2    0    0  0.17109841821E+01  0.10296387597E+02  0.15547779900E+02  0.72461640925E+02  0.70000092009E+02 0.  0.
        -12    1    1    2    0    0 -0.17109841821E+01 -0.10296387597E+02 -0.15547779900E+02  0.18726359075E+02  0.00000000000E+00 0.  1.
         11    1    3    3    0    0 -0.62238633189E+01  0.79310983240E+01 -0.22325805553E+02  0.24496538309E+02  0.51100000000E-03 0. -1.
        -11    1    3    3    0    0 -0.90487281752E+01 -0.24052063659E+01  0.23203943696E+02  0.25021740599E+02  0.51100000000E-03 0.  1.
         12    1    3    3    0    0  0.16983575676E+02  0.47704956387E+01  0.14669641757E+02  0.22943362017E+02  0.00000000000E+00 0. -1.
</event>
<event>
 7    1  0.1884848E-013  0.7246160E+02  0.7816164E-02  0.1226708E+00
        -11   -1    0    0    0    0  0.00000000000E+00  0.00000000000E+00  0.45593999997E+02  0.45594000000E+02  0.51100000000E-03 0. -1.
         11   -1    0    0    0    0 -0.00000000000E+00 -0.00000000000E+00 -0.45593999997E+02  0.45594000000E+02  0.51100000000E-03 0.  1.
    9900012    2    1    2    0    0  0.10129363240E+02 -0.20037721967E+01  0.15622387137E+02  0.72461599318E+02  0.70000037809E+02 0.  0.
        -12    1    1    2    0    0 -0.10129363240E+02  0.20037721967E+01 -0.15622387137E+02  0.18726400682E+02  0.00000000000E+00 0.  1.
         11    1    3    3    0    0 -0.22914419715E+02  0.87823456371E+01  0.20854766164E+02  0.32204370787E+02  0.51100000000E-03 0.  1.
        -11    1    3    3    0    0  0.14866499053E+02 -0.14990799094E+02 -0.10596749671E+01  0.21139057757E+02  0.51100000000E-03 0. -1.
         12    1    3    3    0    0  0.18177283902E+02  0.42046812600E+01 -0.41727040608E+01  0.19118170773E+02  0.00000000000E+00 0. -1.
</event>
<event>
 7    1  0.1884848E-013  0.7246157E+02  0.7816164E-02  0.1226708E+00
        -11   -1    0    0    0    0  0.00000000000E+00  0.00000000000E+00  0.45593999997E+02  0.45594000000E+02  0.51100000000E-03 0. -1.
         11   -1    0    0    0    0 -0.00000000000E+00 -0.00000000000E+00 -0.45593999997E+02  0.45594000000E+02  0.51100000000E-03 0.  1.
    9900012    2    1    2    0    0  0.67059541068E+01  0.13985760471E+02  0.10493224677E+02  0.72461572669E+02  0.70000003094E+02 0.  0.
        -12    1    1    2    0    0 -0.67059541068E+01 -0.13985760471E+02 -0.10493224677E+02  0.18726427331E+02  0.00000000000E+00 0.  1.
         11    1    3    3    0    0  0.82141810373E+01  0.10444815479E+02  0.15732457637E+02  0.20593133906E+02  0.51100000000E-03 0. -1.
        -11    1    3    3    0    0 -0.23573473888E+02  0.11713731984E+02 -0.94426371893E+01  0.27965757374E+02  0.51100000000E-03 0.  1.
        -12    1    3    3    0    0  0.22065246957E+02 -0.81727869922E+01  0.42034042296E+01  0.23902681390E+02  0.00000000000E+00 0.  1.
</event>
<event>
 8    1  0.1884848E-013  0.7246158E+02  0.7816164E-02  0.1226708E+00
        -11   -1    0    0    0    0  0.00000000000E+00  0.00000000000E+00  0.45593999997E+02  0.45594000000E+02  0.51100000000E-03 0.  1.
         11   -1    0    0    0    0 -0.00000000000E+00 -0.00000000000E+00 -0.45593999997E+02  0.45594000000E+02  0.51100000000E-03 0. -1.
    9900012    2    1    2    0    0  0.12996484345E+02 -0.13402776754E+02  0.14614597347E+01  0.72461577635E+02  0.70000009563E+02 0.  0.
         24    2    3    3    0    0 -0.34985925588E+01 -0.88810665479E+01  0.11636503872E+02  0.52560197063E+02  0.50359235499E+02 0.  0.
        -12    1    1    2    0    0 -0.12996484345E+02  0.13402776754E+02 -0.14614597347E+01  0.18726422365E+02  0.00000000000E+00 0.  1.
         11    1    3    3    0    0  0.16495076904E+02 -0.45217102057E+01 -0.10175044137E+02  0.19901380572E+02  0.51100000000E-03 0. -1.
        -11    1    4    4    0    0 -0.12951015769E+02 -0.27354055986E+02  0.93889441482E+01  0.31687938727E+02  0.51100000000E-03 0.  1.
         12    1    4    4    0    0  0.94524232101E+01  0.18472989438E+02  0.22475597234E+01  0.20872258335E+02  0.00000000000E+00 0. -1.
</event>
<event>
 7    1  0.1884848E-013  0.7246158E+02  0.7816164E-02  0.1226708E+00
        -11   -1    0    0    0    0  0.00000000000E+00  0.00000000000E+00  0.45593999997E+02  0.45594000000E+02  0.51100000000E-03 0.  1.
         11   -1    0    0    0    0 -0.00000000000E+00 -0.00000000000E+00 -0.45593999997E+02  0.45594000000E+02  0.51100000000E-03 0. -1.
    9900012    2    1    2    0    0  0.12458538991E+02 -0.13214888467E+02 -0.45640434093E+01  0.72461575803E+02  0.70000007176E+02 0.  0.
        -12    1    1    2    0    0 -0.12458538991E+02  0.13214888467E+02  0.45640434093E+01  0.18726424197E+02  0.00000000000E+00 0.  1.
         11    1    3    3    0    0 -0.74998810378E+01  0.49621574292E+01 -0.14913883637E+02  0.17415371007E+02  0.51100000000E-03 0. -1.
        -11    1    3    3    0    0  0.25880858828E+01 -0.17142414818E+02  0.26260908513E+02  0.31467378196E+02  0.51100000000E-03 0.  1.
         12    1    3    3    0    0  0.17370334146E+02 -0.10346310776E+01 -0.15911068286E+02  0.23578826599E+02  0.00000000000E+00 0. -1.
</event>
<event>
 7    1  0.1884848E-013  0.7246157E+02  0.7816164E-02  0.1226708E+00
        -11   -1    0    0    0    0  0.00000000000E+00  0.00000000000E+00  0.45593999997E+02  0.45594000000E+02  0.51100000000E-03 0.  1.
         11   -1    0    0    0    0 -0.00000000000E+00 -0.00000000000E+00 -0.45593999997E+02  0.45594000000E+02  0.51100000000E-03 0. -1.
    9900012    2    1    2    0    0 -0.15229537166E+02  0.28347942467E+01  0.10521613323E+02  0.72461569277E+02  0.69999998675E+02 0.  0.
        -12    1    1    2    0    0  0.15229537166E+02 -0.28347942467E+01 -0.10521613323E+02  0.18726430723E+02  0.00000000000E+00 0.  1.
         11    1    3    3    0    0 -0.15021912306E+02  0.19177565741E+02 -0.95694805502E+01  0.26172730758E+02  0.51100000000E-03 0.  1.
        -11    1    3    3    0    0  0.64195527052E+01 -0.27764095539E+02  0.13717493873E+02  0.31626338651E+02  0.51100000000E-03 0. -1.
         12    1    3    3    0    0 -0.66271775647E+01  0.11421324045E+02  0.63736000004E+01  0.14662499868E+02  0.00000000000E+00 0. -1.
</event>
<event>
 7    1  0.1884848E-013  0.7246158E+02  0.7816164E-02  0.1226708E+00
        -11   -1    0    0    0    0  0.00000000000E+00  0.00000000000E+00  0.45593999997E+02  0.45594000000E+02  0.51100000000E-03 0. -1.
         11   -1    0    0    0    0 -0.00000000000E+00 -0.00000000000E+00 -0.45593999997E+02  0.45594000000E+02  0.51100000000E-03 0.  1.
    9900012    2    1    2    0    0 -0.12369479745E+02  0.31380249145E+01  0.13705015114E+02  0.72461583663E+02  0.70000017415E+02 0.  0.
        -12    1    1    2    0    0  0.12369479745E+02 -0.31380249145E+01 -0.13705015114E+02  0.18726416337E+02  0.00000000000E+00 0.  1.
         11    1    3    3    0    0 -0.54078122654E+01 -0.85753304138E+01  0.60822118211E+01  0.11822606570E+02  0.51100000000E-03 0. -1.
        -11    1    3    3    0    0 -0.43976595507E+01  0.50165944333E+01 -0.25700820533E+02  0.26552548005E+02  0.51100000000E-03 0.  1.
        -12    1    3    3    0    0 -0.25640079293E+01  0.66967608950E+01  0.33323623826E+02  0.34086429089E+02  0.00000000000E+00 0.  1.
</event>
<event>
 7    1  0.1884848E-013  0.7246159E+02  0.7816164E-02  0.1226708E+00
        -11   -1    0    0    0    0  0.00000000000E+00  0.00000000000E+00  0.45593999997E+02  0.45594000000E+02  0.51100000000E-03 0.  1.
         11   -1    0    0    0    0 -0.00000000000E+00 -0.00000000000E+00 -0.45593999997E+02  0.45594000000E+02  0.51100000000E-03 0. -1.
    9900012    2    1    2    0    0 -0.14736828479E+02  0.10052574955E+02 -0.56965101657E+01  0.72461585369E+02  0.70000019638E+02 0.  0.
        -12    1    1    2    0    0  0.14736828479E+02 -0.10052574955E+02  0.56965101657E+01  0.18726414631E+02  0.00000000000E+00 0.  1.
         11    1    3    3    0    0 -0.11557525904E+02  0.17061266530E+02 -0.34212876825E+02  0.39939756654E+02  0.51100000000E-03 0. -1.
        -11    1    3    3    0    0  0.27589392551E+01  0.18256990135E+01  0.18074247252E+01  0.37698417871E+01  0.51100000000E-03 0.  1.
         12    1    3    3    0    0 -0.59382418299E+01 -0.88343905884E+01  0.26708941934E+02  0.28751986928E+02  0.00000000000E+00 0. -1.
</event>
<event>
 7    1  0.1884848E-013  0.7246158E+02  0.7816164E-02  0.1226708E+00
        -11   -1    0    0    0    0  0.00000000000E+00  0.00000000000E+00  0.45593999997E+02  0.45594000000E+02  0.51100000000E-03 0. -1.
         11   -1    0    0    0    0 -0.00000000000E+00 -0.00000000000E+00 -0.45593999997E+02  0.45594000000E+02  0.51100000000E-03 0.  1.
    9900012    2    1    2    0    0  0.11359827426E+02  0.77662304495E+01  0.12701134772E+02  0.72461579118E+02  0.70000011494E+02 0.  0.
        -12    1    1    2    0    0 -0.11359827426E+02 -0.77662304495E+01 -0.12701134772E+02  0.18726420882E+02  0.00000000000E+00 0.  1.
         11    1    3    3    0    0  0.11399019238E+02 -0.26412502221E+02  0.94281799529E+01  0.30272900269E+02  0.51100000000E-03 0. -1.
        -11    1    3    3    0    0  0.78450300209E+01  0.28126845246E+02  0.92012848049E+01  0.30615805752E+02  0.51100000000E-03 0.  1.
         12    1    3    3    0    0 -0.78842218324E+01  0.60518874246E+01 -0.59283299858E+01  0.11572873097E+02  0.00000000000E+00 0. -1.
</event>
<event>
 7    1  0.1884848E-013  0.7246159E+02  0.7816164E-02  0.1226708E+00
        -11   -1    0    0    0    0  0.00000000000E+00  0.00000000000E+00  0.45593999997E+02  0.45594000000E+02  0.51100000000E-03 0.  1.
         11   -1    0    0    0    0 -0.00000000000E+00 -0.00000000000E+00 -0.45593999997E+02  0.45594000000E+02  0.51100000000E-03 0. -1.
    9900012    2    1    2    0    0  0.82341894503E+01 -0.16329161735E+02  0.40292488827E+01  0.72461594968E+02  0.70000032142E+02 0.  0.
        -12    1    1    2    0    0 -0.82341894503E+01  0.16329161735E+02 -0.40292488827E+01  0.18726405032E+02  0.00000000000E+00 0.  1.
         11    1    3    3    0    0  0.17978561419E+02 -0.14393454476E+02 -0.16986330294E+02  0.28617051203E+02  0.51100000000E-03 0. -1.
        -11    1    3    3    0    0 -0.12075404795E+02  0.15915129079E+02  0.75234104592E+01  0.21347328633E+02  0.51100000000E-03 0.  1.
         12    1    3    3    0    0  0.23310328256E+01 -0.17850836338E+02  0.13492168717E+02  0.22497215132E+02  0.00000000000E+00 0. -1.
</event>
<event>
 7    1  0.1884848E-013  0.7246137E+02  0.7816164E-02  0.1226709E+00
        -11   -1    0    0    0    0  0.00000000000E+00  0.00000000000E+00  0.45593999997E+02  0.45594000000E+02  0.51100000000E-03 0.  1.
         11   -1    0    0    0    0 -0.00000000000E+00 -0.00000000000E+00 -0.45593999997E+02  0.45594000000E+02  0.51100000000E-03 0. -1.
    9900012    2    1    2    0    0 -0.76648946462E+01 -0.13622397598E+02 -0.10313405739E+02  0.72461370186E+02  0.69999739322E+02 0.  0.
        -12    1    1    2    0    0  0.76648946462E+01  0.13622397598E+02  0.10313405739E+02  0.18726629814E+02  0.00000000000E+00 0.  1.
         11    1    3    3    0    0  0.46309351025E+01 -0.42595518083E+01 -0.13511082787E+02  0.14904318162E+02  0.51100000000E-03 0. -1.
        -11    1    3    3    0    0 -0.30052546995E+02 -0.18498361891E+02 -0.56089317767E+01  0.35732409511E+02  0.51100000000E-03 0.  1.
        -12    1    3    3    0    0  0.17756717247E+02  0.91355161013E+01  0.88066088250E+01  0.21824642513E+02  0.00000000000E+00 0.  1.
</event>
<event>
 7    1  0.1884848E-013  0.7246160E+02  0.7816164E-02  0.1226708E+00
        -11   -1    0    0    0    0  0.00000000000E+00  0.00000000000E+00  0.45593999997E+02  0.45594000000E+02  0.51100000000E-03 0.  1.
         11   -1    0    0    0    0 -0.00000000000E+00 -0.00000000000E+00 -0.45593999997E+02  0.45594000000E+02  0.51100000000E-03 0. -1.
    9900012    2    1    2    0    0  0.23994527723E+01  0.11125253454E+02  0.14871095076E+02  0.72461598670E+02  0.70000036964E+02 0.  0.
        -12    1    1    2    0    0 -0.23994527723E+01 -0.11125253454E+02 -0.14871095076E+02  0.18726401330E+02  0.00000000000E+00 0.  1.
         11    1    3    3    0    0 -0.29572282922E+02  0.87768401782E+01  0.82113240591E+01  0.31921445515E+02  0.51100000000E-03 0. -1.
        -11    1    3    3    0    0  0.84495061392E+01 -0.29881129061E+01  0.12823589058E+02  0.15645044242E+02  0.51100000000E-03 0.  1.
         12    1    3    3    0    0  0.23522229555E+02  0.53365261821E+01 -0.61638180411E+01  0.24895108913E+02  0.00000000000E+00 0. -1.
</event>
<event>
 7    1  0.1884848E-013  0.7246152E+02  0.7816164E-02  0.1226708E+00
        -11   -1    0    0    0    0  0.00000000000E+00  0.00000000000E+00  0.45593999997E+02  0.45594000000E+02  0.51100000000E-03 0.  1.
         11   -1    0    0    0    0 -0.00000000000E+00 -0.00000000000E+00 -0.45593999997E+02  0.45594000000E+02  0.51100000000E-03 0. -1.
    9900012    2    1    2    0    0  0.19651247949E+01 -0.15825715698E+01 -0.18555723940E+02  0.72461517705E+02  0.69999931492E+02 0.  0.
        -12    1    1    2    0    0 -0.19651247949E+01  0.15825715698E+01  0.18555723940E+02  0.18726482295E+02  0.00000000000E+00 0.  1.
         11    1    3    3    0    0  0.51820475443E+00 -0.12837258026E+02 -0.23000620787E+02  0.26345631262E+02  0.51100000000E-03 0. -1.
        -11    1    3    3    0    0 -0.76207764788E+01  0.94253413293E+01  0.22653499583E+02  0.25692301122E+02  0.51100000000E-03 0.  1.
        -12    1    3    3    0    0  0.90676965193E+01  0.18293451264E+01 -0.18208602736E+02  0.20423585321E+02  0.00000000000E+00 0.  1.
</event>
<event>
 7    1  0.1884848E-013  0.7246158E+02  0.7816164E-02  0.1226708E+00
        -11   -1    0    0    0    0  0.00000000000E+00  0.00000000000E+00  0.45593999997E+02  0.45594000000E+02  0.51100000000E-03 0.  1.
         11   -1    0    0    0    0 -0.00000000000E+00 -0.00000000000E+00 -0.45593999997E+02  0.45594000000E+02  0.51100000000E-03 0. -1.
    9900012    2    1    2    0    0 -0.23662607299E+01 -0.12554598077E+02 -0.13691662811E+02  0.72461581409E+02  0.70000014479E+02 0.  0.
        -12    1    1    2    0    0  0.23662607299E+01  0.12554598077E+02  0.13691662811E+02  0.18726418591E+02  0.00000000000E+00 0.  1.
         11    1    3    3    0    0 -0.62395082398E+01  0.72587864417E+01 -0.28460388972E+02  0.30026907673E+02  0.51100000000E-03 0. -1.
        -11    1    3    3    0    0  0.18242159720E+02 -0.45131664394E+01  0.69835700356E+01  0.20047825649E+02  0.51100000000E-03 0.  1.
        -12    1    3    3    0    0 -0.14368912210E+02 -0.15300218080E+02  0.77851561255E+01  0.22386848087E+02  0.00000000000E+00 0.  1.
</event>
<event>
 7    1  0.1884848E-013  0.7246155E+02  0.7816164E-02  0.1226708E+00
        -11   -1    0    0    0    0  0.00000000000E+00  0.00000000000E+00  0.45593999997E+02  0.45594000000E+02  0.51100000000E-03 0.  1.
         11   -1    0    0    0    0 -0.00000000000E+00 -0.00000000000E+00 -0.45593999997E+02  0.45594000000E+02  0.51100000000E-03 0. -1.
    9900012    2    1    2    0    0  0.10492837129E+02 -0.13574910460E+02 -0.75034702329E+01  0.72461551043E+02  0.69999974921E+02 0.  0.
        -12    1    1    2    0    0 -0.10492837129E+02  0.13574910460E+02  0.75034702329E+01  0.18726448957E+02  0.00000000000E+00 0.  1.
         11    1    3    3    0    0 -0.11380957679E+02 -0.14695184826E+02 -0.14478769782E+02  0.23560760374E+02  0.51100000000E-03 0. -1.
        -11    1    3    3    0    0  0.14000500521E+02  0.21400028452E+02 -0.13479460897E+01  0.25608439849E+02  0.51100000000E-03 0.  1.
        -12    1    3    3    0    0  0.78732942867E+01 -0.20279754086E+02  0.83232456390E+01  0.23292350819E+02  0.00000000000E+00 0.  1.
</event>
<event>
 7    1  0.1884848E-013  0.7246156E+02  0.7816164E-02  0.1226708E+00
        -11   -1    0    0    0    0  0.00000000000E+00  0.00000000000E+00  0.45593999997E+02  0.45594000000E+02  0.51100000000E-03 0.  1.
         11   -1    0    0    0    0 -0.00000000000E+00 -0.00000000000E+00 -0.45593999997E+02  0.45594000000E+02  0.51100000000E-03 0. -1.
    9900012    2    1    2    0    0  0.15009772459E+02  0.84668055534E+01  0.73279915434E+01  0.72461560787E+02  0.69999987615E+02 0.  0.
        -12    1    1    2    0    0 -0.15009772459E+02 -0.84668055534E+01 -0.73279915434E+01  0.18726439213E+02  0.00000000000E+00 0.  1.
         11    1    3    3    0    0  0.24828320769E+02  0.32881829090E+02 -0.48424137380E+01  0.41486252754E+02  0.51100000000E-03 0. -1.
        -11    1    3    3    0    0 -0.10807408958E+02 -0.13068385958E+02  0.87533179070E+01  0.19084113146E+02  0.51100000000E-03 0.  1.
         12    1    3    3    0    0  0.98886064774E+00 -0.11346637578E+02  0.34170873745E+01  0.11891194887E+02  0.00000000000E+00 0. -1.
</event>
<event>
 7    1  0.1884848E-013  0.7246130E+02  0.7816164E-02  0.1226709E+00
        -11   -1    0    0    0    0  0.00000000000E+00  0.00000000000E+00  0.45593999997E+02  0.45594000000E+02  0.51100000000E-03 0.  1.
         11   -1    0    0    0    0 -0.00000000000E+00 -0.00000000000E+00 -0.45593999997E+02  0.45594000000E+02  0.51100000000E-03 0. -1.
    9900012    2    1    2    0    0 -0.29631656134E+01  0.68072576130E+01 -0.17192152611E+02  0.72461301998E+02  0.69999650493E+02 0.  0.
        -12    1    1    2    0    0  0.29631656134E+01 -0.68072576130E+01  0.17192152611E+02  0.18726698002E+02  0.00000000000E+00 0.  1.
         11    1    3    3    0    0  0.11297180907E+02 -0.32479636183E+01 -0.11974836003E+02  0.16780115068E+02  0.51100000000E-03 0. -1.
        -11    1    3    3    0    0 -0.90874639927E+01 -0.14938930539E+02  0.15064619302E+02  0.23080216690E+02  0.51100000000E-03 0.  1.
        -12    1    3    3    0    0 -0.51728825280E+01  0.24994151771E+02 -0.20281935910E+02  0.32600970240E+02  0.00000000000E+00 0.  1.
</event>
<event>
 7    1  0.1884848E-013  0.7246157E+02  0.7816164E-02  0.1226708E+00
        -11   -1    0    0    0    0  0.00000000000E+00  0.00000000000E+00  0.45593999997E+02  0.45594000000E+02  0.51100000000E-03 0. -1.
         11   -1    0    0    0    0 -0.00000000000E+00 -0.00000000000E+00 -0.45593999997E+02  0.45594000000E+02  0.51100000000E-03 0.  1.
    9900012    2    1    2    0    0 -0.12009105555E+02 -0.13392944985E+02  0.52047701160E+01  0.72461568851E+02  0.69999998120E+02 0.  0.
        -12    1    1    2    0    0  0.12009105555E+02  0.13392944985E+02 -0.52047701160E+01  0.18726431149E+02  0.00000000000E+00 0.  1.
         11    1    3    3    0    0 -0.65467393424E+01 -0.41425636956E+01  0.30269630763E+01  0.83176400329E+01  0.51100000000E-03 0. -1.
        -11    1    3    3    0    0 -0.70806414231E+01  0.18351276930E+02 -0.20480668675E+02  0.28396525097E+02  0.51100000000E-03 0.  1.
        -12    1    3    3    0    0  0.16182752102E+01 -0.27601658220E+02  0.22658475715E+02  0.35747403722E+02  0.00000000000E+00 0.  1.
</event>
<event>
 7    1  0.1884848E-013  0.7246152E+02  0.7816164E-02  0.1226708E+00
        -11   -1    0    0    0    0  0.00000000000E+00  0.00000000000E+00  0.45593999997E+02  0.45594000000E+02  0.51100000000E-03 0.  1.
         11   -1    0    0    0    0 -0.00000000000E+00 -0.00000000000E+00 -0.45593999997E+02  0.45594000000E+02  0.51100000000E-03 0. -1.
    9900012    2    1    2    0    0  0.18505617324E+02  0.25521296268E+01  0.13075760040E+01  0.72461521602E+02  0.69999936569E+02 0.  0.
        -12    1    1    2    0    0 -0.18505617324E+02 -0.25521296268E+01 -0.13075760040E+01  0.18726478398E+02  0.00000000000E+00 0.  1.
         11    1    3    3    0    0  0.29000508794E+02 -0.16800352903E+02 -0.18295735528E+01  0.33565290221E+02  0.51100000000E-03 0. -1.
        -11    1    3    3    0    0  0.10564929970E+02  0.12414635544E+02 -0.10332376113E+01  0.16334273819E+02  0.51100000000E-03 0.  1.
         12    1    3    3    0    0 -0.21059821440E+02  0.69378469855E+01  0.41703871681E+01  0.22561957562E+02  0.00000000000E+00 0. -1.
</event>
<event>
 7    1  0.1884848E-013  0.7246162E+02  0.7816164E-02  0.1226708E+00
        -11   -1    0    0    0    0  0.00000000000E+00  0.00000000000E+00  0.45593999997E+02  0.45594000000E+02  0.51100000000E-03 0.  1.
         11   -1    0    0    0    0 -0.00000000000E+00 -0.00000000000E+00 -0.45593999997E+02  0.45594000000E+02  0.51100000000E-03 0. -1.
    9900012    2    1    2    0    0 -0.10797260091E+02  0.14987321204E+02 -0.30784399412E+01  0.72461617145E+02  0.70000061032E+02 0.  0.
        -12    1    1    2    0    0  0.10797260091E+02 -0.14987321204E+02  0.30784399412E+01  0.18726382855E+02  0.00000000000E+00 0.  1.
         11    1    3    3    0    0  0.12511813399E+02 -0.48645186670E+01  0.23622736780E+02  0.27170622180E+02  0.51100000000E-03 0. -1.
        -11    1    3    3    0    0 -0.13366109136E+02 -0.61804599327E+00 -0.65638769947E+01  0.14903668533E+02  0.51100000000E-03 0.  1.
         12    1    3    3    0    0 -0.99429643544E+01  0.20469885864E+02 -0.20137299727E+02  0.30387326433E+02  0.00000000000E+00 0. -1.
</event>
<event>
 7    1  0.1884848E-013  0.7246168E+02  0.7816164E-02  0.1226708E+00
        -11   -1    0    0    0    0  0.00000000000E+00  0.00000000000E+00  0.45593999997E+02  0.45594000000E+02  0.51100000000E-03 0. -1.
         11   -1    0    0    0    0 -0.00000000000E+00 -0.00000000000E+00 -0.45593999997E+02  0.45594000000E+02  0.51100000000E-03 0.  1.
    9900012    2    1    2    0    0 -0.14789592941E+02 -0.18069982185E+01  0.11343628373E+02  0.72461676106E+02  0.70000137839E+02 0.  0.
        -12    1    1    2    0    0  0.14789592941E+02  0.18069982185E+01 -0.11343628373E+02  0.18726323894E+02  0.00000000000E+00 0.  1.
         11    1    3    3    0    0  0.63985278787E+01  0.15233827631E+02 -0.21954489164E+02  0.27477449991E+02  0.51100000000E-03 0.  1.
        -11    1    3    3    0    0 -0.13850274634E+02 -0.16758286450E+02  0.18840672448E+02  0.28768754070E+02  0.51100000000E-03 0. -1.
        -12    1    3    3    0    0 -0.73378461859E+01 -0.28253939953E+00  0.14457445088E+02  0.16215472045E+02  0.00000000000E+00 0.  1.
</event>
<event>
 7    1  0.1884848E-013  0.7246158E+02  0.7816164E-02  0.1226708E+00
        -11   -1    0    0    0    0  0.00000000000E+00  0.00000000000E+00  0.45593999997E+02  0.45594000000E+02  0.51100000000E-03 0.  1.
         11   -1    0    0    0    0 -0.00000000000E+00 -0.00000000000E+00 -0.45593999997E+02  0.45594000000E+02  0.51100000000E-03 0. -1.
    9900012    2    1    2    0    0 -0.10528603667E+02  0.14196126157E+02 -0.61884728179E+01  0.72461583128E+02  0.70000016718E+02 0.  0.
        -12    1    1    2    0    0  0.10528603667E+02 -0.14196126157E+02  0.61884728179E+01  0.18726416872E+02  0.00000000000E+00 0.  1.
         11    1    3    3    0    0 -0.35616109862E+02  0.13050527422E+02  0.30463357568E+01  0.38053957869E+02  0.51100000000E-03 0. -1.
        -11    1    3    3    0    0  0.35967834934E+01  0.78116071040E+01  0.25998640290E+01  0.89842835149E+01  0.51100000000E-03 0.  1.
         12    1    3    3    0    0  0.21490722701E+02 -0.66660083693E+01 -0.11834672604E+02  0.25423341744E+02  0.00000000000E+00 0. -1.
</event>
<event>
 7    1  0.1884848E-013  0.7246156E+02  0.7816164E-02  0.1226708E+00
        -11   -1    0    0    0    0  0.00000000000E+00  0.00000000000E+00  0.45593999997E+02  0.45594000000E+02  0.51100000000E-03 0. -1.
         11   -1    0    0    0    0 -0.00000000000E+00 -0.00000000000E+00 -0.45593999997E+02  0.45594000000E+02  0.51100000000E-03 0.  1.
    9900012    2    1    2    0    0 -0.68857339012E+01 -0.10645428571E+02  0.13781909031E+02  0.72461561541E+02  0.69999988598E+02 0.  0.
        -12    1    1    2    0    0  0.68857339012E+01  0.10645428571E+02 -0.13781909031E+02  0.18726438459E+02  0.00000000000E+00 0.  1.
         11    1    3    3    0    0 -0.19859454244E+02  0.15538007992E+02  0.14144249877E+02  0.28911717695E+02  0.51100000000E-03 0. -1.
        -11    1    3    3    0    0  0.18944796857E+01 -0.18346546309E+02  0.14472344158E+02  0.23444264980E+02  0.51100000000E-03 0.  1.
        -12    1    3    3    0    0  0.11079240657E+02 -0.78368902535E+01 -0.14834685004E+02  0.20105578866E+02  0.00000000000E+00 0.  1.
</event>
<event>
 7    1  0.1884848E-013  0.7246154E+02  0.7816164E-02  0.1226708E+00
        -11   -1    0    0    0    0  0.00000000000E+00  0.00000000000E+00  0.45593999997E+02  0.45594000000E+02  0.51100000000E-03 0.  1.
         11   -1    0    0    0    0 -0.00000000000E+00 -0.00000000000E+00 -0.45593999997E+02  0.45594000000E+02  0.51100000000E-03 0. -1.
    9900012    2    1    2    0    0 -0.11512673008E+02 -0.14463089543E+02  0.29929732623E+01  0.72461535094E+02  0.69999954145E+02 0.  0.
        -12    1    1    2    0    0  0.11512673008E+02  0.14463089543E+02 -0.29929732623E+01  0.18726464906E+02  0.00000000000E+00 0.  1.
         11    1    3    3    0    0 -0.11884226635E+02  0.17211022047E+02 -0.10537024974E+02  0.23419714306E+02  0.51100000000E-03 0. -1.
        -11    1    3    3    0    0  0.53787381427E+01  0.57234566408E+01  0.74468191556E+01  0.10823303365E+02  0.51100000000E-03 0.  1.
         12    1    3    3    0    0 -0.50071845157E+01 -0.37397568231E+02  0.60831790804E+01  0.38218517424E+02  0.00000000000E+00 0. -1.
</event>
<event>
 7    1  0.1884848E-013  0.7246158E+02  0.7816164E-02  0.1226708E+00
        -11   -1    0    0    0    0  0.00000000000E+00  0.00000000000E+00  0.45593999997E+02  0.45594000000E+02  0.51100000000E-03 0. -1.
         11   -1    0    0    0    0 -0.00000000000E+00 -0.00000000000E+00 -0.45593999997E+02  0.45594000000E+02  0.51100000000E-03 0.  1.
    9900012    2    1    2    0    0  0.44818020935E+01  0.17942079200E+02  0.29451593014E+01  0.72461582315E+02  0.70000015659E+02 0.  0.
        -12    1    1    2    0    0 -0.44818020935E+01 -0.17942079200E+02 -0.29451593014E+01  0.18726417685E+02  0.00000000000E+00 0.  1.
         11    1    3    3    0    0  0.81245546877E+01  0.19296883262E+02 -0.20640402279E+02  0.29400753375E+02  0.51100000000E-03 0.  1.
        -11    1    3    3    0    0 -0.12046648974E+02 -0.32794204481E+01  0.29881730463E+02  0.32385091720E+02  0.51100000000E-03 0. -1.
        -12    1    3    3    0    0  0.84038963798E+01  0.19246163860E+01 -0.62961688822E+01  0.10675737220E+02  0.00000000000E+00 0.  1.
</event>
<event>
 7    1  0.1884848E-013  0.7246158E+02  0.7816164E-02  0.1226708E+00
        -11   -1    0    0    0    0  0.00000000000E+00  0.00000000000E+00  0.45593999997E+02  0.45594000000E+02  0.51100000000E-03 0.  1.
         11   -1    0    0    0    0 -0.00000000000E+00 -0.00000000000E+00 -0.45593999997E+02  0.45594000000E+02  0.51100000000E-03 0. -1.
    9900012    2    1    2    0    0 -0.11949675876E+02 -0.14411223598E+02  0.44803776556E+00  0.72461578639E+02  0.70000010871E+02 0.  0.
        -12    1    1    2    0    0  0.11949675876E+02  0.14411223598E+02 -0.44803776556E+00  0.18726421361E+02  0.00000000000E+00 0.  1.
         11    1    3    3    0    0  0.18617772940E+01 -0.13056272451E+02  0.17614065426E+02  0.22004266998E+02  0.51100000000E-03 0. -1.
        -11    1    3    3    0    0  0.15918145120E+02  0.15438670603E+01 -0.12338261324E+02  0.20199098057E+02  0.51100000000E-03 0.  1.
        -12    1    3    3    0    0 -0.29729598290E+02 -0.28988182067E+01 -0.48277663364E+01  0.30258213584E+02  0.00000000000E+00 0.  1.
</event>
<event>
 7    1  0.1884848E-013  0.7246155E+02  0.7816164E-02  0.1226708E+00
        -11   -1    0    0    0    0  0.00000000000E+00  0.00000000000E+00  0.45593999997E+02  0.45594000000E+02  0.51100000000E-03 0. -1.
         11   -1    0    0    0    0 -0.00000000000E+00 -0.00000000000E+00 -0.45593999997E+02  0.45594000000E+02  0.51100000000E-03 0.  1.
    9900012    2    1    2    0    0 -0.10509725531E+02 -0.19467806557E+01  0.15376469596E+02  0.72461545372E+02  0.69999967535E+02 0.  0.
        -12    1    1    2    0    0  0.10509725531E+02  0.19467806557E+01 -0.15376469596E+02  0.18726454628E+02  0.00000000000E+00 0.  1.
         11    1    3    3    0    0 -0.11413660165E+02 -0.28535760488E+02  0.10053971049E+02  0.32336412898E+02  0.51100000000E-03 0. -1.
        -11    1    3    3    0    0  0.32610765321E+01  0.19408856862E+02  0.17139766711E+02  0.26098083225E+02  0.51100000000E-03 0.  1.
         12    1    3    3    0    0 -0.23571418982E+01  0.71801229704E+01 -0.11817268163E+02  0.14027049249E+02  0.00000000000E+00 0. -1.
</event>
<event>
 7    1  0.1884848E-013  0.7246155E+02  0.7816164E-02  0.1226708E+00
        -11   -1    0    0    0    0  0.00000000000E+00  0.00000000000E+00  0.45593999997E+02  0.45594000000E+02  0.51100000000E-03 0.  1.
         11   -1    0    0    0    0 -0.00000000000E+00 -0.00000000000E+00 -0.45593999997E+02  0.45594000000E+02  0.51100000000E-03 0. -1.
    9900012    2    1    2    0    0 -0.14108200466E+02  0.10257623320E+02 -0.68131962461E+01  0.72461553469E+02  0.69999978082E+02 0.  0.
        -12    1    1    2    0    0  0.14108200466E+02 -0.10257623320E+02  0.68131962461E+01  0.18726446531E+02  0.00000000000E+00 0.  1.
         11    1    3    3    0    0  0.22601269876E+01  0.27339801615E+02  0.20771246626E+02  0.34409557001E+02  0.51100000000E-03 0.  1.
        -11    1    3    3    0    0 -0.14496498058E+02 -0.12552266588E+02 -0.14384018497E+02  0.23970979137E+02  0.51100000000E-03 0. -1.
        -12    1    3    3    0    0 -0.18718293965E+01 -0.45299117076E+01 -0.13200424375E+02  0.14081017330E+02  0.00000000000E+00 0.  1.
</event>
<event>
 7    1  0.1884848E-013  0.7246156E+02  0.7816164E-02  0.1226708E+00
        -11   -1    0    0    0    0  0.00000000000E+00  0.00000000000E+00  0.45593999997E+02  0.45594000000E+02  0.51100000000E-03 0.  1.
         11   -1    0    0    0    0 -0.00000000000E+00 -0.00000000000E+00 -0.45593999997E+02  0.45594000000E+02  0.51100000000E-03 0. -1.
    9900012    2    1    2    0    0 -0.12311836408E+01 -0.38663469492E+01 -0.18281548843E+02  0.72461562004E+02  0.69999989201E+02 0.  0.
        -12    1    1    2    0    0  0.12311836408E+01  0.38663469492E+01  0.18281548843E+02  0.18726437996E+02  0.00000000000E+00 0.  1.
         11    1    3    3    0    0  0.75351200915E+01  0.96209822458E+01 -0.27778430151E+02  0.30347693752E+02  0.51100000000E-03 0. -1.
        -11    1    3    3    0    0 -0.12345824766E+02 -0.24238282270E+02 -0.19671825593E+00  0.27202066371E+02  0.51100000000E-03 0.  1.
        -12    1    3    3    0    0  0.35795210332E+01  0.10750953075E+02  0.96935995635E+01  0.14911801881E+02  0.00000000000E+00 0.  1.
</event>
<event>
 7    1  0.1884848E-013  0.7246157E+02  0.7816164E-02  0.1226708E+00
        -11   -1    0    0    0    0  0.00000000000E+00  0.00000000000E+00  0.45593999997E+02  0.45594000000E+02  0.51100000000E-03 0.  1.
         11   -1    0    0    0    0 -0.00000000000E+00 -0.00000000000E+00 -0.45593999997E+02  0.45594000000E+02  0.51100000000E-03 0. -1.
    9900012    2    1    2    0    0  0.73257655922E+01 -0.90323204633E+01 -0.14677513142E+02  0.72461573579E+02  0.70000004279E+02 0.  0.
        -12    1    1    2    0    0 -0.73257655922E+01  0.90323204633E+01  0.14677513142E+02  0.18726426421E+02  0.00000000000E+00 0.  1.
         11    1    3    3    0    0  0.24712357609E+02  0.19507121294E+02 -0.80259464861E+01  0.32490678925E+02  0.51100000000E-03 0. -1.
        -11    1    3    3    0    0 -0.13919498457E+02 -0.30691146176E+02 -0.94774119148E+01  0.35007431036E+02  0.51100000000E-03 0.  1.
         12    1    3    3    0    0 -0.34670935596E+01  0.21517044185E+01  0.28258452586E+01  0.49634636174E+01  0.00000000000E+00 0. -1.
</event>
<event>
 7    1  0.1884848E-013  0.7246158E+02  0.7816164E-02  0.1226708E+00
        -11   -1    0    0    0    0  0.00000000000E+00  0.00000000000E+00  0.45593999997E+02  0.45594000000E+02  0.51100000000E-03 0.  1.
         11   -1    0    0    0    0 -0.00000000000E+00 -0.00000000000E+00 -0.45593999997E+02  0.45594000000E+02  0.51100000000E-03 0. -1.
    9900012    2    1    2    0    0  0.31307845975E+01 -0.43905700248E+01 -0.17933203799E+02  0.72461582408E+02  0.70000015780E+02 0.  0.
        -12    1    1    2    0    0 -0.31307845975E+01  0.43905700248E+01  0.17933203799E+02  0.18726417592E+02  0.00000000000E+00 0.  1.
         11    1    3    3    0    0  0.24523971402E+02 -0.99824014588E+01 -0.28904583067E+02  0.39198832059E+02  0.51100000000E-03 0. -1.
        -11    1    3    3    0    0 -0.14722544007E+02 -0.75794576115E+01  0.69686430276E+01  0.17965618988E+02  0.51100000000E-03 0.  1.
        -12    1    3    3    0    0 -0.66706427980E+01  0.13171289045E+02  0.40027362407E+01  0.15297131361E+02  0.00000000000E+00 0.  1.
</event>
<event>
 7    1  0.1884848E-013  0.7246146E+02  0.7816164E-02  0.1226708E+00
        -11   -1    0    0    0    0  0.00000000000E+00  0.00000000000E+00  0.45593999997E+02  0.45594000000E+02  0.51100000000E-03 0. -1.
         11   -1    0    0    0    0 -0.00000000000E+00 -0.00000000000E+00 -0.45593999997E+02  0.45594000000E+02  0.51100000000E-03 0.  1.
    9900012    2    1    2    0    0 -0.14289593825E+02 -0.11409769231E+02 -0.40383076677E+01  0.72461461228E+02  0.69999857920E+02 0.  0.
        -12    1    1    2    0    0  0.14289593825E+02  0.11409769231E+02  0.40383076677E+01  0.18726538772E+02  0.00000000000E+00 0.  1.
         11    1    3    3    0    0  0.20867986663E+02 -0.11480353545E+02  0.63515666919E+01  0.24649823216E+02  0.51100000000E-03 0. -1.
        -11    1    3    3    0    0 -0.35158406847E+02 -0.56100625222E+01  0.41373734180E+00  0.35605583163E+02  0.51100000000E-03 0.  1.
         12    1    3    3    0    0  0.82635890072E-03  0.56806468361E+01 -0.10803611701E+02  0.12206054848E+02  0.00000000000E+00 0. -1.
</event>
<event>
 7    1  0.1884848E-013  0.7246157E+02  0.7816164E-02  0.1226708E+00
        -11   -1    0    0    0    0  0.00000000000E+00  0.00000000000E+00  0.45593999997E+02  0.45594000000E+02  0.51100000000E-03 0. -1.
         11   -1    0    0    0    0 -0.00000000000E+00 -0.00000000000E+00 -0.45593999997E+02  0.45594000000E+02  0.51100000000E-03 0.  1.
    9900012    2    1    2    0    0  0.48119341991E+00  0.82804973332E+00  0.18701925260E+02  0.72461568896E+02  0.69999998179E+02 0.  0.
        -12    1    1    2    0    0 -0.48119341991E+00 -0.82804973332E+00 -0.18701925260E+02  0.18726431104E+02  0.00000000000E+00 0.  1.
         11    1    3    3    0    0 -0.25194060198E+01  0.17554171996E+01  0.42222588566E+01  0.52207630046E+01  0.51100000000E-03 0. -1.
        -11    1    3    3    0    0  0.57434171217E+01 -0.40760138046E+01 -0.25800655104E+02  0.26744616894E+02  0.51100000000E-03 0.  1.
        -12    1    3    3    0    0 -0.27428176820E+01  0.31486463383E+01  0.40280321507E+02  0.40496188997E+02  0.00000000000E+00 0.  1.
</event>
<event>
 7    1  0.1884848E-013  0.7246157E+02  0.7816164E-02  0.1226708E+00
        -11   -1    0    0    0    0  0.00000000000E+00  0.00000000000E+00  0.45593999997E+02  0.45594000000E+02  0.51100000000E-03 0.  1.
         11   -1    0    0    0    0 -0.00000000000E+00 -0.00000000000E+00 -0.45593999997E+02  0.45594000000E+02  0.51100000000E-03 0. -1.
    9900012    2    1    2    0    0 -0.44206835006E+01 -0.16909972085E+02 -0.67223194956E+01  0.72461570070E+02  0.69999999707E+02 0.  0.
        -12    1    1    2    0    0  0.44206835006E+01  0.16909972085E+02  0.67223194956E+01  0.18726429930E+02  0.00000000000E+00 0.  1.
         11    1    3    3    0    0 -0.87490980247E+01  0.16999654054E+02  0.14603594010E+02  0.24058260795E+02  0.51100000000E-03 0. -1.
        -11    1    3    3    0    0  0.11883407472E+02 -0.13801320643E+02 -0.19749034522E+02  0.26864775999E+02  0.51100000000E-03 0.  1.
        -12    1    3    3    0    0 -0.75549929478E+01 -0.20108305496E+02 -0.15768789830E+01  0.21538533276E+02  0.00000000000E+00 0.  1.
</event>
<event>
 7    1  0.1884848E-013  0.7246154E+02  0.7816164E-02  0.1226708E+00
        -11   -1    0    0    0    0  0.00000000000E+00  0.00000000000E+00  0.45593999997E+02  0.45594000000E+02  0.51100000000E-03 0.  1.
         11   -1    0    0    0    0 -0.00000000000E+00 -0.00000000000E+00 -0.45593999997E+02  0.45594000000E+02  0.51100000000E-03 0. -1.
    9900012    2    1    2    0    0  0.18049460092E+01 -0.18862708532E+01 -0.18543580390E+02  0.72461542206E+02  0.69999963409E+02 0.  0.
        -12    1    1    2    0    0 -0.18049460092E+01  0.18862708532E+01  0.18543580390E+02  0.18726457794E+02  0.00000000000E+00 0.  1.
         11    1    3    3    0    0  0.16332265502E+02 -0.58994838732E+01 -0.81050660085E+01  0.19163478329E+02  0.51100000000E-03 0. -1.
        -11    1    3    3    0    0 -0.19790482484E+02  0.17947947388E+02 -0.21865921096E+02  0.34524057091E+02  0.51100000000E-03 0.  1.
        -12    1    3    3    0    0  0.52631629909E+01 -0.13934734368E+02  0.11427406714E+02  0.18774006786E+02  0.00000000000E+00 0.  1.
</event>
<event>
 7    1  0.1884848E-013  0.7246147E+02  0.7816164E-02  0.1226708E+00
        -11   -1    0    0    0    0  0.00000000000E+00  0.00000000000E+00  0.45593999997E+02  0.45594000000E+02  0.51100000000E-03 0. -1.
         11   -1    0    0    0    0 -0.00000000000E+00 -0.00000000000E+00 -0.45593999997E+02  0.45594000000E+02  0.51100000000E-03 0.  1.
    9900012    2    1    2    0    0 -0.28821882842E+01 -0.11460548287E+02  0.14526932566E+02  0.72461469459E+02  0.69999868643E+02 0.  0.
        -12    1    1    2    0    0  0.28821882842E+01  0.11460548287E+02 -0.14526932566E+02  0.18726530541E+02  0.00000000000E+00 0.  1.
         11    1    3    3    0    0  0.12927378556E+02 -0.18364003826E+02 -0.69555070169E+01  0.23510270755E+02  0.51100000000E-03 0. -1.
        -11    1    3    3    0    0  0.33092733570E+01  0.17869351086E+02 -0.21915692938E-03  0.18173194510E+02  0.51100000000E-03 0.  1.
         12    1    3    3    0    0 -0.19118840197E+02 -0.10965895548E+02  0.21482658740E+02  0.30778004194E+02  0.00000000000E+00 0. -1.
</event>
<event>
 7    1  0.1884848E-013  0.7246148E+02  0.7816164E-02  0.1226708E+00
        -11   -1    0    0    0    0  0.00000000000E+00  0.00000000000E+00  0.45593999997E+02  0.45594000000E+02  0.51100000000E-03 0.  1.
         11   -1    0    0    0    0 -0.00000000000E+00 -0.00000000000E+00 -0.45593999997E+02  0.45594000000E+02  0.51100000000E-03 0. -1.
    9900012    2    1    2    0    0  0.82975924108E+01  0.38761842355E+01  0.16334245247E+02  0.72461483724E+02  0.69999887226E+02 0.  0.
        -12    1    1    2    0    0 -0.82975924108E+01 -0.38761842355E+01 -0.16334245247E+02  0.18726516276E+02  0.00000000000E+00 0.  1.
         11    1    3    3    0    0  0.12442093735E+02 -0.74701479414E+01 -0.21806976747E+02  0.26194523128E+02  0.51100000000E-03 0. -1.
        -11    1    3    3    0    0  0.82950705342E+01  0.45915692876E+01  0.25801365830E+02  0.27488200789E+02  0.51100000000E-03 0.  1.
         12    1    3    3    0    0 -0.12439571858E+02  0.67547628893E+01  0.12339856165E+02  0.18778759807E+02  0.00000000000E+00 0. -1.
</event>
<event>
 7    1  0.1884848E-013  0.7246155E+02  0.7816164E-02  0.1226708E+00
        -11   -1    0    0    0    0  0.00000000000E+00  0.00000000000E+00  0.45593999997E+02  0.45594000000E+02  0.51100000000E-03 0.  1.
         11   -1    0    0    0    0 -0.00000000000E+00 -0.00000000000E+00 -0.45593999997E+02  0.45594000000E+02  0.51100000000E-03 0. -1.
    9900012    2    1    2    0    0 -0.71638288053E+01  0.10060390356E+02 -0.14076511154E+02  0.72461546424E+02  0.69999968904E+02 0.  0.
        -12    1    1    2    0    0  0.71638288053E+01 -0.10060390356E+02  0.14076511154E+02  0.18726453576E+02  0.00000000000E+00 0.  1.
         11    1    3    3    0    0  0.99033000951E+01  0.31305234651E+02 -0.83597677378E+01  0.33881835639E+02  0.51100000000E-03 0. -1.
        -11    1    3    3    0    0 -0.84262755224E+01 -0.13358035422E+02  0.10218507977E+02  0.18811090746E+02  0.51100000000E-03 0.  1.
         12    1    3    3    0    0 -0.86408533780E+01 -0.78868088729E+01 -0.15935251393E+02  0.19768620039E+02  0.00000000000E+00 0. -1.
</event>
<event>
 7    1  0.1884848E-013  0.7246164E+02  0.7816164E-02  0.1226708E+00
        -11   -1    0    0    0    0  0.00000000000E+00  0.00000000000E+00  0.45593999997E+02  0.45594000000E+02  0.51100000000E-03 0.  1.
         11   -1    0    0    0    0 -0.00000000000E+00 -0.00000000000E+00 -0.45593999997E+02  0.45594000000E+02  0.51100000000E-03 0. -1.
    9900012    2    1    2    0    0 -0.13472092567E+02 -0.16527683710E+01 -0.12901455384E+02  0.72461642307E+02  0.70000093810E+02 0.  0.
        -12    1    1    2    0    0  0.13472092567E+02  0.16527683710E+01  0.12901455384E+02  0.18726357693E+02  0.00000000000E+00 0.  1.
         11    1    3    3    0    0 -0.30226221757E+02  0.17698120839E+00  0.10370509502E+02  0.31956271241E+02  0.51100000000E-03 0. -1.
        -11    1    3    3    0    0  0.73472890935E+01  0.12757524773E+02 -0.56454380165E+01  0.15767310044E+02  0.51100000000E-03 0.  1.
         12    1    3    3    0    0  0.94068400968E+01 -0.14587274353E+02 -0.17626526869E+02  0.24738061022E+02  0.00000000000E+00 0. -1.
</event>
<event>
 7    1  0.1884848E-013  0.7246159E+02  0.7816164E-02  0.1226708E+00
        -11   -1    0    0    0    0  0.00000000000E+00  0.00000000000E+00  0.45593999997E+02  0.45594000000E+02  0.51100000000E-03 0.  1.
         11   -1    0    0    0    0 -0.00000000000E+00 -0.00000000000E+00 -0.45593999997E+02  0.45594000000E+02  0.51100000000E-03 0. -1.
    9900012    2    1    2    0    0  0.82622352005E+01 -0.15270084021E+02  0.70170063009E+01  0.72461591537E+02  0.70000027672E+02 0.  0.
        -12    1    1    2    0    0 -0.82622352005E+01  0.15270084021E+02 -0.70170063009E+01  0.18726408463E+02  0.00000000000E+00 0.  1.
         11    1    3    3    0    0  0.10676492918E+02  0.22739995307E+02 -0.72013691695E+01  0.26133400195E+02  0.51100000000E-03 0. -1.
        -11    1    3    3    0    0 -0.87731744605E+01 -0.14344588011E+02 -0.20135503409E+01  0.16934880589E+02  0.51100000000E-03 0.  1.
         12    1    3    3    0    0  0.63589167433E+01 -0.23665491317E+02  0.16231925811E+02  0.29393310752E+02  0.00000000000E+00 0. -1.
</event>
<event>
 7    1  0.1884848E-013  0.7246158E+02  0.7816164E-02  0.1226708E+00
        -11   -1    0    0    0    0  0.00000000000E+00  0.00000000000E+00  0.45593999997E+02  0.45594000000E+02  0.51100000000E-03 0.  1.
         11   -1    0    0    0    0 -0.00000000000E+00 -0.00000000000E+00 -0.45593999997E+02  0.45594000000E+02  0.51100000000E-03 0. -1.
    9900012    2    1    2    0    0 -0.41986387002E+01 -0.58442888407E+01 -0.17288563329E+02  0.72461582805E+02  0.70000016297E+02 0.  0.
        -12    1    1    2    0    0  0.41986387002E+01  0.58442888407E+01  0.17288563329E+02  0.18726417195E+02  0.00000000000E+00 0.  1.
         11    1    3    3    0    0  0.15067248413E+02 -0.13041068547E+02 -0.75420257321E+01  0.21306656143E+02  0.51100000000E-03 0. -1.
        -11    1    3    3    0    0 -0.30084001302E+02  0.11910696362E+02 -0.17741725819E+02  0.36900957406E+02  0.51100000000E-03 0.  1.
        -12    1    3    3    0    0  0.10818114189E+02 -0.47139166555E+01  0.79951882223E+01  0.14253969256E+02  0.00000000000E+00 0.  1.
</event>
<event>
 7    1  0.1884848E-013  0.7246148E+02  0.7816164E-02  0.1226708E+00
        -11   -1    0    0    0    0  0.00000000000E+00  0.00000000000E+00  0.45593999997E+02  0.45594000000E+02  0.51100000000E-03 0.  1.
         11   -1    0    0    0    0 -0.00000000000E+00 -0.00000000000E+00 -0.45593999997E+02  0.45594000000E+02  0.51100000000E-03 0. -1.
    9900012    2    1    2    0    0 -0.46362268669E+01 -0.18009500704E+00 -0.18142643690E+02  0.72461479933E+02  0.69999882287E+02 0.  0.
        -12    1    1    2    0    0  0.46362268669E+01  0.18009500704E+00  0.18142643690E+02  0.18726520067E+02  0.00000000000E+00 0.  1.
         11    1    3    3    0    0  0.24798235571E+01  0.23304279546E+02  0.10042696105E+02  0.25496955021E+02  0.51100000000E-03 0.  1.
        -11    1    3    3    0    0 -0.65417652047E+01 -0.30154210890E+02 -0.22619789633E+02  0.38258672346E+02  0.51100000000E-03 0. -1.
         12    1    3    3    0    0 -0.57428521935E+00  0.66698363373E+01 -0.55655501621E+01  0.87058525652E+01  0.00000000000E+00 0. -1.
</event>
<event>
 7    1  0.1884848E-013  0.7246163E+02  0.7816164E-02  0.1226708E+00
        -11   -1    0    0    0    0  0.00000000000E+00  0.00000000000E+00  0.45593999997E+02  0.45594000000E+02  0.51100000000E-03 0. -1.
         11   -1    0    0    0    0 -0.00000000000E+00 -0.00000000000E+00 -0.45593999997E+02  0.45594000000E+02  0.51100000000E-03 0.  1.
    9900012    2    1    2    0    0 -0.13887023843E+01  0.15980862528E+02  0.96623297958E+01  0.72461626124E+02  0.70000072729E+02 0.  0.
        -12    1    1    2    0    0  0.13887023843E+01 -0.15980862528E+02 -0.96623297958E+01  0.18726373876E+02  0.00000000000E+00 0.  1.
         11    1    3    3    0    0 -0.25872022161E+02  0.14872253405E+02  0.24851633489E+02  0.38834895897E+02  0.51100000000E-03 0.  1.
        -11    1    3    3    0    0  0.22450301311E+02 -0.51643144794E+01 -0.13907393997E+02  0.26909139359E+02  0.51100000000E-03 0. -1.
         12    1    3    3    0    0  0.20330184649E+01  0.62729236023E+01 -0.12819096960E+01  0.67175908678E+01  0.00000000000E+00 0. -1.
</event>
<event>
 7    1  0.1884848E-013  0.7246160E+02  0.7816164E-02  0.1226708E+00
        -11   -1    0    0    0    0  0.00000000000E+00  0.00000000000E+00  0.45593999997E+02  0.45594000000E+02  0.51100000000E-03 0.  1.
         11   -1    0    0    0    0 -0.00000000000E+00 -0.00000000000E+00 -0.45593999997E+02  0.45594000000E+02  0.51100000000E-03 0. -1.
    9900012    2    1    2    0    0 -0.14149973684E+02  0.11982397270E+02 -0.26226806580E+01  0.72461600095E+02  0.70000038821E+02 0.  0.
        -12    1    1    2    0    0  0.14149973684E+02 -0.11982397270E+02  0.26226806580E+01  0.18726399905E+02  0.00000000000E+00 0.  1.
         11    1    3    3    0    0 -0.32032609507E+02  0.13184951286E+02 -0.15471516317E+02  0.37938092066E+02  0.51100000000E-03 0. -1.
        -11    1    3    3    0    0  0.10533479967E+02  0.12547751018E+02  0.77181893840E+01  0.18109961443E+02  0.51100000000E-03 0.  1.
         12    1    3    3    0    0  0.73491558560E+01 -0.13750305034E+02  0.51306462749E+01  0.16413546586E+02  0.00000000000E+00 0. -1.
</event>
<event>
 7    1  0.1884848E-013  0.7246161E+02  0.7816164E-02  0.1226708E+00
        -11   -1    0    0    0    0  0.00000000000E+00  0.00000000000E+00  0.45593999997E+02  0.45594000000E+02  0.51100000000E-03 0. -1.
         11   -1    0    0    0    0 -0.00000000000E+00 -0.00000000000E+00 -0.45593999997E+02  0.45594000000E+02  0.51100000000E-03 0.  1.
    9900012    2    1    2    0    0 -0.91409748875E+01 -0.14749652481E+02  0.70404488298E+01  0.72461612470E+02  0.70000054942E+02 0.  0.
        -12    1    1    2    0    0  0.91409748875E+01  0.14749652481E+02 -0.70404488298E+01  0.18726387530E+02  0.00000000000E+00 0.  1.
         11    1    3    3    0    0  0.10847766149E+01  0.17180247159E+02  0.52536466400E-02  0.17214460799E+02  0.51100000000E-03 0. -1.
        -11    1    3    3    0    0  0.52395818019E+01 -0.26483279882E+02 -0.12493958244E+02  0.29747543153E+02  0.51100000000E-03 0.  1.
         12    1    3    3    0    0 -0.15465333304E+02 -0.54466197574E+01  0.19529153428E+02  0.25499608518E+02  0.00000000000E+00 0. -1.
</event>
<event>
 7    1  0.1884848E-013  0.7246148E+02  0.7816164E-02  0.1226708E+00
        -11   -1    0    0    0    0  0.00000000000E+00  0.00000000000E+00  0.45593999997E+02  0.45594000000E+02  0.51100000000E-03 0. -1.
         11   -1    0    0    0    0 -0.00000000000E+00 -0.00000000000E+00 -0.45593999997E+02  0.45594000000E+02  0.51100000000E-03 0.  1.
    9900012    2    1    2    0    0 -0.16233954189E+02  0.56901035421E+01  0.74002816143E+01  0.72461475632E+02  0.69999876684E+02 0.  0.
        -12    1    1    2    0    0  0.16233954189E+02 -0.56901035421E+01 -0.74002816143E+01  0.18726524368E+02  0.00000000000E+00 0.  1.
         11    1    3    3    0    0 -0.11786398925E+02 -0.31131286932E+02  0.71343699024E+01  0.34043728641E+02  0.51100000000E-03 0.  1.
        -11    1    3    3    0    0 -0.23157577624E+01  0.34460069847E+02 -0.18660557940E+01  0.34588167230E+02  0.51100000000E-03 0. -1.
        -12    1    3    3    0    0 -0.21317975023E+01  0.23613206273E+01  0.21319675059E+01  0.38295797605E+01  0.00000000000E+00 0.  1.
</event>
<event>
 7    1  0.1884848E-013  0.7246151E+02  0.7816164E-02  0.1226708E+00
        -11   -1    0    0    0    0  0.00000000000E+00  0.00000000000E+00  0.45593999997E+02  0.45594000000E+02  0.51100000000E-03 0. -1.
         11   -1    0    0    0    0 -0.00000000000E+00 -0.00000000000E+00 -0.45593999997E+02  0.45594000000E+02  0.51100000000E-03 0.  1.
    9900012    2    1    2    0    0  0.45947828038E+01  0.21797604190E+01  0.18022707755E+02  0.72461511292E+02  0.69999923139E+02 0.  0.
        -12    1    1    2    0    0 -0.45947828038E+01 -0.21797604190E+01 -0.18022707755E+02  0.18726488708E+02  0.00000000000E+00 0.  1.
         11    1    3    3    0    0  0.73506284199E+01  0.34245012424E+01  0.39180626627E+02  0.40011004112E+02  0.51100000000E-03 0. -1.
        -11    1    3    3    0    0  0.27561681140E+01 -0.10170111709E+02 -0.21708456102E+01  0.10758262210E+02  0.51100000000E-03 0.  1.
         12    1    3    3    0    0 -0.55120137302E+01  0.89253708860E+01 -0.18987073262E+02  0.21692244970E+02  0.00000000000E+00 0. -1.
</event>
<event>
 7    1  0.1884848E-013  0.7246154E+02  0.7816164E-02  0.1226708E+00
        -11   -1    0    0    0    0  0.00000000000E+00  0.00000000000E+00  0.45593999997E+02  0.45594000000E+02  0.51100000000E-03 0.  1.
         11   -1    0    0    0    0 -0.00000000000E+00 -0.00000000000E+00 -0.45593999997E+02  0.45594000000E+02  0.51100000000E-03 0. -1.
    9900012    2    1    2    0    0  0.12478025248E+02 -0.56134099578E+01 -0.12785485997E+02  0.72461544446E+02  0.69999966328E+02 0.  0.
        -12    1    1    2    0    0 -0.12478025248E+02  0.56134099578E+01  0.12785485997E+02  0.18726455554E+02  0.00000000000E+00 0.  1.
         11    1    3    3    0    0 -0.21438716266E+02 -0.67907609682E+01 -0.15909966523E+02  0.27547414120E+02  0.51100000000E-03 0. -1.
        -11    1    3    3    0    0  0.19034388250E+02 -0.13819159173E+02  0.35137632451E+01  0.23782843158E+02  0.51100000000E-03 0.  1.
        -12    1    3    3    0    0  0.14882353264E+02  0.14996510183E+02 -0.38928271934E+00  0.21131287168E+02  0.00000000000E+00 0.  1.
</event>
<event>
 7    1  0.1884848E-013  0.7246179E+02  0.7816164E-02  0.1226707E+00
        -11   -1    0    0    0    0  0.00000000000E+00  0.00000000000E+00  0.45593999997E+02  0.45594000000E+02  0.51100000000E-03 0.  1.
         11   -1    0    0    0    0 -0.00000000000E+00 -0.00000000000E+00 -0.45593999997E+02  0.45594000000E+02  0.51100000000E-03 0. -1.
    9900012    2    1    2    0    0  0.91043873175E+01 -0.16033972975E+02  0.32699665279E+01  0.72461792726E+02  0.70000289757E+02 0.  0.
        -12    1    1    2    0    0 -0.91043873175E+01  0.16033972975E+02 -0.32699665279E+01  0.18726207274E+02  0.00000000000E+00 0.  1.
         11    1    3    3    0    0  0.46524416400E+01 -0.15850645648E+02 -0.93801513098E+01  0.18996721284E+02  0.51100000000E-03 0. -1.
        -11    1    3    3    0    0 -0.72226768241E+01  0.18578481069E+02 -0.95842409681E+01  0.22117520081E+02  0.51100000000E-03 0.  1.
        -12    1    3    3    0    0  0.11674622502E+02 -0.18761808395E+02  0.22234358806E+02  0.31347551361E+02  0.00000000000E+00 0.  1.
</event>
<event>
 7    1  0.1884848E-013  0.7246159E+02  0.7816164E-02  0.1226708E+00
        -11   -1    0    0    0    0  0.00000000000E+00  0.00000000000E+00  0.45593999997E+02  0.45594000000E+02  0.51100000000E-03 0. -1.
         11   -1    0    0    0    0 -0.00000000000E+00 -0.00000000000E+00 -0.45593999997E+02  0.45594000000E+02  0.51100000000E-03 0.  1.
    9900012    2    1    2    0    0  0.15585372753E+02 -0.45015847126E+01  0.93547039963E+01  0.72461585617E+02  0.70000019961E+02 0.  0.
        -12    1    1    2    0    0 -0.15585372753E+02  0.45015847126E+01 -0.93547039963E+01  0.18726414383E+02  0.00000000000E+00 0.  1.
         11    1    3    3    0    0  0.33866972900E+02  0.59135079257E+00 -0.98907049732E+01  0.35286648953E+02  0.51100000000E-03 0.  1.
        -11    1    3    3    0    0 -0.14451829517E+02 -0.27549930674E+01  0.25522418581E+02  0.29459110877E+02  0.51100000000E-03 0. -1.
        -12    1    3    3    0    0 -0.38297706302E+01 -0.23379424378E+01 -0.62770096112E+01  0.77158257874E+01  0.00000000000E+00 0.  1.
</event>
<event>
 7    1  0.1884848E-013  0.7246166E+02  0.7816164E-02  0.1226708E+00
        -11   -1    0    0    0    0  0.00000000000E+00  0.00000000000E+00  0.45593999997E+02  0.45594000000E+02  0.51100000000E-03 0. -1.
         11   -1    0    0    0    0 -0.00000000000E+00 -0.00000000000E+00 -0.45593999997E+02  0.45594000000E+02  0.51100000000E-03 0.  1.
    9900012    2    1    2    0    0 -0.64989694500E+01  0.14450305647E+02  0.99813825923E+01  0.72461656640E+02  0.70000112481E+02 0.  0.
        -12    1    1    2    0    0  0.64989694500E+01 -0.14450305647E+02 -0.99813825923E+01  0.18726343360E+02  0.00000000000E+00 0.  1.
         11    1    3    3    0    0  0.74210010999E+01 -0.11694346090E+02  0.32053942110E+02  0.34918250140E+02  0.51100000000E-03 0. -1.
        -11    1    3    3    0    0 -0.28929247205E+01  0.12834327838E+01 -0.20463941898E+01  0.37688118274E+01  0.51100000000E-03 0.  1.
         12    1    3    3    0    0 -0.11027045829E+02  0.24861218953E+02 -0.20026165328E+02  0.33774594672E+02  0.00000000000E+00 0. -1.
</event>
<event>
 7    1  0.1884848E-013  0.7246158E+02  0.7816164E-02  0.1226708E+00
        -11   -1    0    0    0    0  0.00000000000E+00  0.00000000000E+00  0.45593999997E+02  0.45594000000E+02  0.51100000000E-03 0. -1.
         11   -1    0    0    0    0 -0.00000000000E+00 -0.00000000000E+00 -0.45593999997E+02  0.45594000000E+02  0.51100000000E-03 0.  1.
    9900012    2    1    2    0    0  0.57731848064E+01  0.17807633752E+02 -0.48718415509E+00  0.72461579332E+02  0.70000011773E+02 0.  0.
        -12    1    1    2    0    0 -0.57731848064E+01 -0.17807633752E+02  0.48718415509E+00  0.18726420668E+02  0.00000000000E+00 0.  1.
         11    1    3    3    0    0 -0.37275215588E+01  0.33097442409E+02  0.17675241051E+02  0.37706090456E+02  0.51100000000E-03 0. -1.
        -11    1    3    3    0    0  0.18198340188E+01 -0.54266525109E+01  0.55354121500E+01  0.79624833602E+01  0.51100000000E-03 0.  1.
         12    1    3    3    0    0  0.76808723464E+01 -0.98631561466E+01 -0.23697837356E+02  0.26793005515E+02  0.00000000000E+00 0. -1.
</event>
<event>
 7    1  0.1884848E-013  0.7246149E+02  0.7816164E-02  0.1226708E+00
        -11   -1    0    0    0    0  0.00000000000E+00  0.00000000000E+00  0.45593999997E+02  0.45594000000E+02  0.51100000000E-03 0.  1.
         11   -1    0    0    0    0 -0.00000000000E+00 -0.00000000000E+00 -0.45593999997E+02  0.45594000000E+02  0.51100000000E-03 0. -1.
    9900012    2    1    2    0    0  0.97368035501E+01 -0.10132787875E+02 -0.12377540576E+02  0.72461488200E+02  0.69999893056E+02 0.  0.
        -12    1    1    2    0    0 -0.97368035501E+01  0.10132787875E+02  0.12377540576E+02  0.18726511800E+02  0.00000000000E+00 0.  1.
         11    1    3    3    0    0  0.21770138194E+02 -0.13869634452E+02 -0.18274211052E+02  0.31626768198E+02  0.51100000000E-03 0. -1.
        -11    1    3    3    0    0 -0.15072376376E+02  0.15387801344E+02 -0.75130985107E+01  0.22812444177E+02  0.51100000000E-03 0.  1.
         12    1    3    3    0    0  0.30390417322E+01 -0.11650954767E+02  0.13409768986E+02  0.18022275825E+02  0.00000000000E+00 0. -1.
</event>
<event>
 7    1  0.1884848E-013  0.7246158E+02  0.7816164E-02  0.1226708E+00
        -11   -1    0    0    0    0  0.00000000000E+00  0.00000000000E+00  0.45593999997E+02  0.45594000000E+02  0.51100000000E-03 0.  1.
         11   -1    0    0    0    0 -0.00000000000E+00 -0.00000000000E+00 -0.45593999997E+02  0.45594000000E+02  0.51100000000E-03 0. -1.
    9900012    2    1    2    0    0 -0.10793860211E+02 -0.29658086791E+01 -0.15012509720E+02  0.72461577825E+02  0.70000009811E+02 0.  0.
        -12    1    1    2    0    0  0.10793860211E+02  0.29658086791E+01  0.15012509720E+02  0.18726422175E+02  0.00000000000E+00 0.  1.
         11    1    3    3    0    0 -0.22785718842E+02  0.12769839500E+02  0.65786353727E+01  0.26935779692E+02  0.51100000000E-03 0.  1.
        -11    1    3    3    0    0  0.80408369809E+01 -0.14360035722E+02 -0.31072752905E+02  0.35162219194E+02  0.51100000000E-03 0. -1.
         12    1    3    3    0    0  0.39510216501E+01 -0.13756124573E+01  0.94816078127E+01  0.10363578939E+02  0.00000000000E+00 0. -1.
</event>
<event>
 7    1  0.1884848E-013  0.7246157E+02  0.7816164E-02  0.1226708E+00
        -11   -1    0    0    0    0  0.00000000000E+00  0.00000000000E+00  0.45593999997E+02  0.45594000000E+02  0.51100000000E-03 0.  1.
         11   -1    0    0    0    0 -0.00000000000E+00 -0.00000000000E+00 -0.45593999997E+02  0.45594000000E+02  0.51100000000E-03 0. -1.
    9900012    2    1    2    0    0 -0.15275316247E+02  0.59636432614E+01 -0.90431753311E+01  0.72461565543E+02  0.69999993811E+02 0.  0.
        -12    1    1    2    0    0  0.15275316247E+02 -0.59636432614E+01  0.90431753311E+01  0.18726434457E+02  0.00000000000E+00 0.  1.
         11    1    3    3    0    0 -0.29232863398E+02  0.10830620580E+02  0.13900539941E+02  0.34133380370E+02  0.51100000000E-03 0. -1.
        -11    1    3    3    0    0  0.13897338134E+02 -0.11055197211E+02 -0.37343718824E+01  0.18146595444E+02  0.51100000000E-03 0.  1.
        -12    1    3    3    0    0  0.60209017134E-01  0.61882198932E+01 -0.19209343389E+02  0.20181589730E+02  0.00000000000E+00 0.  1.
</event>
<event>
 7    1  0.1884848E-013  0.7246160E+02  0.7816164E-02  0.1226708E+00
        -11   -1    0    0    0    0  0.00000000000E+00  0.00000000000E+00  0.45593999997E+02  0.45594000000E+02  0.51100000000E-03 0. -1.
         11   -1    0    0    0    0 -0.00000000000E+00 -0.00000000000E+00 -0.45593999997E+02  0.45594000000E+02  0.51100000000E-03 0.  1.
    9900012    2    1    2    0    0 -0.14370940739E+02  0.59725319487E+01 -0.10415519487E+02  0.72461598269E+02  0.70000036442E+02 0.  0.
        -12    1    1    2    0    0  0.14370940739E+02 -0.59725319487E+01  0.10415519487E+02  0.18726401731E+02  0.00000000000E+00 0.  1.
         11    1    3    3    0    0 -0.54324094272E+01  0.79532727665E+00  0.11517670540E+02  0.12759324143E+02  0.51100000000E-03 0. -1.
        -11    1    3    3    0    0 -0.17844461015E+02  0.24611484486E+02 -0.23268634105E+02  0.38282885091E+02  0.51100000000E-03 0.  1.
        -12    1    3    3    0    0  0.89059297030E+01 -0.19434279814E+02  0.13354440769E+01  0.21419389035E+02  0.00000000000E+00 0.  1.
</event>
<event>
 7    1  0.1884848E-013  0.7246151E+02  0.7816164E-02  0.1226708E+00
        -11   -1    0    0    0    0  0.00000000000E+00  0.00000000000E+00  0.45593999997E+02  0.45594000000E+02  0.51100000000E-03 0.  1.
         11   -1    0    0    0    0 -0.00000000000E+00 -0.00000000000E+00 -0.45593999997E+02  0.45594000000E+02  0.51100000000E-03 0. -1.
    9900012    2    1    2    0    0 -0.10792959820E+02 -0.15066101359E+02 -0.26844184821E+01  0.72461508219E+02  0.69999919135E+02 0.  0.
        -12    1    1    2    0    0  0.10792959820E+02  0.15066101359E+02  0.26844184821E+01  0.18726491781E+02  0.00000000000E+00 0.  1.
         11    1    3    3    0    0 -0.10418117978E+01 -0.13215240752E+02 -0.25054258985E+02  0.28345085174E+02  0.51100000000E-03 0. -1.
        -11    1    3    3    0    0  0.22980256470E+01  0.15662459263E+02  0.14442601373E+02  0.21428539071E+02  0.51100000000E-03 0.  1.
        -12    1    3    3    0    0 -0.12049173669E+02 -0.17513319870E+02  0.79272391304E+01  0.22687883974E+02  0.00000000000E+00 0.  1.
</event>
<event>
 7    1  0.1884848E-013  0.7246159E+02  0.7816164E-02  0.1226708E+00
        -11   -1    0    0    0    0  0.00000000000E+00  0.00000000000E+00  0.45593999997E+02  0.45594000000E+02  0.51100000000E-03 0. -1.
         11   -1    0    0    0    0 -0.00000000000E+00 -0.00000000000E+00 -0.45593999997E+02  0.45594000000E+02  0.51100000000E-03 0.  1.
    9900012    2    1    2    0    0  0.16126903781E+02 -0.88072593363E+01  0.36101902089E+01  0.72461593085E+02  0.70000029689E+02 0.  0.
        -12    1    1    2    0    0 -0.16126903781E+02  0.88072593363E+01 -0.36101902089E+01  0.18726406915E+02  0.00000000000E+00 0.  1.
         11    1    3    3    0    0 -0.18458001343E+02  0.99779999008E+01 -0.57714247745E-01  0.20982412321E+02  0.51100000000E-03 0.  1.
        -11    1    3    3    0    0  0.40487960676E+02 -0.14287491667E+02 -0.55894454421E+00  0.42938558396E+02  0.51100000000E-03 0. -1.
         12    1    3    3    0    0 -0.59030555521E+01 -0.44977675703E+01  0.42268490009E+01  0.85406223686E+01  0.00000000000E+00 0. -1.
</event>
<event>
 7    1  0.1884848E-013  0.7246150E+02  0.7816164E-02  0.1226708E+00
        -11   -1    0    0    0    0  0.00000000000E+00  0.00000000000E+00  0.45593999997E+02  0.45594000000E+02  0.51100000000E-03 0. -1.
         11   -1    0    0    0    0 -0.00000000000E+00 -0.00000000000E+00 -0.45593999997E+02  0.45594000000E+02  0.51100000000E-03 0.  1.
    9900012    2    1    2    0    0 -0.10222668180E+02  0.14454715713E+02 -0.61024713871E+01  0.72461497174E+02  0.69999904747E+02 0.  0.
        -12    1    1    2    0    0  0.10222668180E+02 -0.14454715713E+02  0.61024713871E+01  0.18726502826E+02  0.00000000000E+00 0.  1.
         11    1    3    3    0    0 -0.34752327400E+02  0.51388135143E+01  0.78886878431E+01  0.36005042150E+02  0.51100000000E-03 0. -1.
        -11    1    3    3    0    0  0.50399256216E+01 -0.42551740340E+01 -0.10574101549E+02  0.12462703566E+02  0.51100000000E-03 0.  1.
         12    1    3    3    0    0  0.19489733599E+02  0.13571076232E+02 -0.34170576809E+01  0.23993751458E+02  0.00000000000E+00 0. -1.
</event>
<event>
 7    1  0.1884848E-013  0.7246158E+02  0.7816164E-02  0.1226708E+00
        -11   -1    0    0    0    0  0.00000000000E+00  0.00000000000E+00  0.45593999997E+02  0.45594000000E+02  0.51100000000E-03 0.  1.
         11   -1    0    0    0    0 -0.00000000000E+00 -0.00000000000E+00 -0.45593999997E+02  0.45594000000E+02  0.51100000000E-03 0. -1.
    9900012    2    1    2    0    0 -0.83238287608E+01 -0.15946563535E+02 -0.52057585283E+01  0.72461576538E+02  0.70000008134E+02 0.  0.
        -12    1    1    2    0    0  0.83238287608E+01  0.15946563535E+02  0.52057585283E+01  0.18726423462E+02  0.00000000000E+00 0.  1.
         11    1    3    3    0    0  0.23046851326E+02 -0.17629989238E+02  0.95243131465E+01  0.30539915156E+02  0.51100000000E-03 0. -1.
        -11    1    3    3    0    0 -0.24160085307E+02 -0.15529619353E+00  0.13551622051E+01  0.24198559953E+02  0.51100000000E-03 0.  1.
         12    1    3    3    0    0 -0.72105947801E+01  0.18387218966E+01 -0.16085233880E+02  0.17723101429E+02  0.00000000000E+00 0. -1.
</event>
<event>
 7    1  0.2172386E-013  0.7246160E+02  0.7816164E-02  0.1226708E+00
        -11   -1    0    0    0    0  0.00000000000E+00  0.00000000000E+00  0.45593999997E+02  0.45594000000E+02  0.51100000000E-03 0. -1.
         11   -1    0    0    0    0 -0.00000000000E+00 -0.00000000000E+00 -0.45593999997E+02  0.45594000000E+02  0.51100000000E-03 0.  1.
    9900012    2    1    2    0    0 -0.59673543814E+01 -0.16399660941E+02  0.67911712884E+01  0.72461596053E+02  0.70000033556E+02 0.  0.
        -12    1    1    2    0    0  0.59673543814E+01  0.16399660941E+02 -0.67911712884E+01  0.18726403947E+02  0.00000000000E+00 0.  1.
         11    1    3    3    0    0 -0.19000409297E+02 -0.59618916041E+01  0.19918014512E+02  0.28165351184E+02  0.51100000000E-03 0. -1.
        -11    1    3    3    0    0  0.24074733009E+02 -0.10009230338E+02  0.13224003332E+01  0.26106056851E+02  0.51100000000E-03 0.  1.
         12    1    3    3    0    0 -0.11041678094E+02 -0.42853899933E+00 -0.14449243556E+02  0.18190188018E+02  0.00000000000E+00 0. -1.
</event>
<event>
 7    1  0.1884848E-013  0.7246146E+02  0.7816164E-02  0.1226708E+00
        -11   -1    0    0    0    0  0.00000000000E+00  0.00000000000E+00  0.45593999997E+02  0.45594000000E+02  0.51100000000E-03 0.  1.
         11   -1    0    0    0    0 -0.00000000000E+00 -0.00000000000E+00 -0.45593999997E+02  0.45594000000E+02  0.51100000000E-03 0. -1.
    9900012    2    1    2    0    0 -0.52301554958E+01 -0.17053033496E+02  0.57028895315E+01  0.72461456621E+02  0.69999851919E+02 0.  0.
        -12    1    1    2    0    0  0.52301554958E+01  0.17053033496E+02 -0.57028895315E+01  0.18726543379E+02  0.00000000000E+00 0.  1.
         11    1    3    3    0    0  0.21824868441E+02 -0.20536289307E+02 -0.34546037701E+01  0.30166178884E+02  0.51100000000E-03 0. -1.
        -11    1    3    3    0    0 -0.36735001787E+01  0.13357591432E+02  0.96942755865E+01  0.16908543161E+02  0.51100000000E-03 0.  1.
         12    1    3    3    0    0 -0.23381523758E+02 -0.98743356212E+01 -0.53678228488E+00  0.25386734576E+02  0.00000000000E+00 0. -1.
</event>
<event>
 7    1  0.1884848E-013  0.7246140E+02  0.7816164E-02  0.1226708E+00
        -11   -1    0    0    0    0  0.00000000000E+00  0.00000000000E+00  0.45593999997E+02  0.45594000000E+02  0.51100000000E-03 0.  1.
         11   -1    0    0    0    0 -0.00000000000E+00 -0.00000000000E+00 -0.45593999997E+02  0.45594000000E+02  0.51100000000E-03 0. -1.
    9900012    2    1    2    0    0  0.67734865965E+00  0.15295880817E+02 -0.10782519986E+02  0.72461401045E+02  0.69999779521E+02 0.  0.
        -12    1    1    2    0    0 -0.67734865965E+00 -0.15295880817E+02  0.10782519986E+02  0.18726598955E+02  0.00000000000E+00 0.  1.
         11    1    3    3    0    0 -0.14913008903E+02 -0.12390559083E+01 -0.51913154671E+01  0.15839281885E+02  0.51100000000E-03 0. -1.
        -11    1    3    3    0    0  0.18507251365E+02 -0.46583438924E+01 -0.22391302447E+02  0.29420893026E+02  0.51100000000E-03 0.  1.
        -12    1    3    3    0    0 -0.29168938025E+01  0.21193280618E+02  0.16800097928E+02  0.27201226134E+02  0.00000000000E+00 0.  1.
</event>
<event>
 7    1  0.1884848E-013  0.7246156E+02  0.7816164E-02  0.1226708E+00
        -11   -1    0    0    0    0  0.00000000000E+00  0.00000000000E+00  0.45593999997E+02  0.45594000000E+02  0.51100000000E-03 0. -1.
         11   -1    0    0    0    0 -0.00000000000E+00 -0.00000000000E+00 -0.45593999997E+02  0.45594000000E+02  0.51100000000E-03 0.  1.
    9900012    2    1    2    0    0  0.14110212710E+02 -0.16719004675E+01  0.12197800335E+02  0.72461556480E+02  0.69999982005E+02 0.  0.
        -12    1    1    2    0    0 -0.14110212710E+02  0.16719004675E+01 -0.12197800335E+02  0.18726443520E+02  0.00000000000E+00 0.  1.
         11    1    3    3    0    0 -0.11174039890E+02 -0.89876225720E+01  0.16538768651E+02  0.21889892547E+02  0.51100000000E-03 0. -1.
        -11    1    3    3    0    0  0.32020718244E+02  0.35086102345E+01  0.10461659322E+02  0.33868614655E+02  0.51100000000E-03 0.  1.
        -12    1    3    3    0    0 -0.67364656440E+01  0.38071118700E+01 -0.14802627639E+02  0.16703049278E+02  0.00000000000E+00 0.  1.
</event>
<event>
 7    1  0.1884848E-013  0.7246154E+02  0.7816164E-02  0.1226708E+00
        -11   -1    0    0    0    0  0.00000000000E+00  0.00000000000E+00  0.45593999997E+02  0.45594000000E+02  0.51100000000E-03 0. -1.
         11   -1    0    0    0    0 -0.00000000000E+00 -0.00000000000E+00 -0.45593999997E+02  0.45594000000E+02  0.51100000000E-03 0.  1.
    9900012    2    1    2    0    0 -0.12876316340E+02  0.76363275395E+01  0.11250214328E+02  0.72461538957E+02  0.69999959177E+02 0.  0.
        -12    1    1    2    0    0  0.12876316340E+02 -0.76363275395E+01 -0.11250214328E+02  0.18726461043E+02  0.00000000000E+00 0.  1.
         11    1    3    3    0    0 -0.29414093173E+02  0.12893408503E+02 -0.10237373775E+02  0.33708050701E+02  0.51100000000E-03 0. -1.
        -11    1    3    3    0    0  0.61812779773E+01 -0.71169741143E+01 -0.46983929959E+01  0.10532540766E+02  0.51100000000E-03 0.  1.
         12    1    3    3    0    0  0.10356498855E+02  0.18598931504E+01  0.26185981099E+02  0.28220947489E+02  0.00000000000E+00 0. -1.
</event>
<event>
 7    1  0.1884848E-013  0.7246151E+02  0.7816164E-02  0.1226708E+00
        -11   -1    0    0    0    0  0.00000000000E+00  0.00000000000E+00  0.45593999997E+02  0.45594000000E+02  0.51100000000E-03 0.  1.
         11   -1    0    0    0    0 -0.00000000000E+00 -0.00000000000E+00 -0.45593999997E+02  0.45594000000E+02  0.51100000000E-03 0. -1.
    9900012    2    1    2    0    0  0.11114636392E+02 -0.14805484040E+02 -0.28184818944E+01  0.72461512343E+02  0.69999924507E+02 0.  0.
        -12    1    1    2    0    0 -0.11114636392E+02  0.14805484040E+02  0.28184818944E+01  0.18726487657E+02  0.00000000000E+00 0.  1.
         11    1    3    3    0    0 -0.12888119212E+01 -0.21859666520E+02 -0.10520132280E+02  0.24293604920E+02  0.51100000000E-03 0. -1.
        -11    1    3    3    0    0 -0.77215357829E+01  0.19461598616E+02  0.12008232337E+02  0.24136561058E+02  0.51100000000E-03 0.  1.
         12    1    3    3    0    0  0.20124984096E+02 -0.12407416136E+02 -0.43065819516E+01  0.24031346365E+02  0.00000000000E+00 0. -1.
</event>
<event>
 7    1  0.1884848E-013  0.7246169E+02  0.7816164E-02  0.1226708E+00
        -11   -1    0    0    0    0  0.00000000000E+00  0.00000000000E+00  0.45593999997E+02  0.45594000000E+02  0.51100000000E-03 0.  1.
         11   -1    0    0    0    0 -0.00000000000E+00 -0.00000000000E+00 -0.45593999997E+02  0.45594000000E+02  0.51100000000E-03 0. -1.
    9900012    2    1    2    0    0 -0.13129907981E+02  0.45324077181E+01 -0.12559365037E+02  0.72461685535E+02  0.70000150122E+02 0.  0.
        -12    1    1    2    0    0  0.13129907981E+02 -0.45324077181E+01  0.12559365037E+02  0.18726314465E+02  0.00000000000E+00 0.  1.
         11    1    3    3    0    0 -0.25534845277E+02 -0.25764274660E+01 -0.91554701421E+01  0.27248650161E+02  0.51100000000E-03 0. -1.
        -11    1    3    3    0    0 -0.62924960605E+01  0.17347578305E+02  0.90194904207E+01  0.20539843900E+02  0.51100000000E-03 0.  1.
         12    1    3    3    0    0  0.18697433356E+02 -0.10238743121E+02 -0.12423385316E+02  0.24673191474E+02  0.00000000000E+00 0. -1.
</event>
<event>
 7    1  0.1884848E-013  0.7246163E+02  0.7816164E-02  0.1226708E+00
        -11   -1    0    0    0    0  0.00000000000E+00  0.00000000000E+00  0.45593999997E+02  0.45594000000E+02  0.51100000000E-03 0.  1.
         11   -1    0    0    0    0 -0.00000000000E+00 -0.00000000000E+00 -0.45593999997E+02  0.45594000000E+02  0.51100000000E-03 0. -1.
    9900012    2    1    2    0    0  0.10687796653E+02  0.74349471779E+01 -0.13459918072E+02  0.72461632724E+02  0.70000081326E+02 0.  0.
        -12    1    1    2    0    0 -0.10687796653E+02 -0.74349471779E+01  0.13459918072E+02  0.18726367276E+02  0.00000000000E+00 0.  1.
         11    1    3    3    0    0 -0.22495681810E+02  0.22414615810E+01 -0.35314765597E+01  0.22881240724E+02  0.51100000000E-03 0. -1.
        -11    1    3    3    0    0  0.16034882925E+02  0.96252347193E+01  0.11364215367E+02  0.21883966848E+02  0.51100000000E-03 0.  1.
         12    1    3    3    0    0  0.17148595538E+02 -0.44317491224E+01 -0.21292656880E+02  0.27696425152E+02  0.00000000000E+00 0. -1.
</event>
<event>
 7    1  0.1884848E-013  0.7246144E+02  0.7816164E-02  0.1226708E+00
        -11   -1    0    0    0    0  0.00000000000E+00  0.00000000000E+00  0.45593999997E+02  0.45594000000E+02  0.51100000000E-03 0.  1.
         11   -1    0    0    0    0 -0.00000000000E+00 -0.00000000000E+00 -0.45593999997E+02  0.45594000000E+02  0.51100000000E-03 0. -1.
    9900012    2    1    2    0    0 -0.53014169480E+00 -0.10037814474E+02 -0.15800164705E+02  0.72461442005E+02  0.69999832879E+02 0.  0.
        -12    1    1    2    0    0  0.53014169480E+00  0.10037814474E+02  0.15800164705E+02  0.18726557995E+02  0.00000000000E+00 0.  1.
         11    1    3    3    0    0  0.13999325963E+02  0.13334521581E+01 -0.58512559796E+01  0.15231428655E+02  0.51100000000E-03 0. -1.
        -11    1    3    3    0    0 -0.31401375002E+02  0.56132752977E+01 -0.95068923359E+01  0.33285675804E+02  0.51100000000E-03 0.  1.
        -12    1    3    3    0    0  0.16871907345E+02 -0.16984541930E+02 -0.44201638961E+00  0.23944337545E+02  0.00000000000E+00 0.  1.
</event>
<event>
 7    1  0.1884848E-013  0.7246155E+02  0.7816164E-02  0.1226708E+00
        -11   -1    0    0    0    0  0.00000000000E+00  0.00000000000E+00  0.45593999997E+02  0.45594000000E+02  0.51100000000E-03 0.  1.
         11   -1    0    0    0    0 -0.00000000000E+00 -0.00000000000E+00 -0.45593999997E+02  0.45594000000E+02  0.51100000000E-03 0. -1.
    9900012    2    1    2    0    0 -0.65620968624E+01  0.66566718941E+01 -0.16226753343E+02  0.72461550256E+02  0.69999973897E+02 0.  0.
        -12    1    1    2    0    0  0.65620968624E+01 -0.66566718941E+01  0.16226753343E+02  0.18726449744E+02  0.00000000000E+00 0.  1.
         11    1    3    3    0    0  0.19543517936E+02 -0.79883144579E-01 -0.14988309779E+02  0.24629350477E+02  0.51100000000E-03 0. -1.
        -11    1    3    3    0    0 -0.10178713219E+02  0.22519893300E+02 -0.46629417635E+01  0.25149449759E+02  0.51100000000E-03 0.  1.
         12    1    3    3    0    0 -0.15926901579E+02 -0.15783338261E+02  0.34244981991E+01  0.22682750020E+02  0.00000000000E+00 0. -1.
</event>
<event>
 7    1  0.1884848E-013  0.7246161E+02  0.7816164E-02  0.1226708E+00
        -11   -1    0    0    0    0  0.00000000000E+00  0.00000000000E+00  0.45593999997E+02  0.45594000000E+02  0.51100000000E-03 0. -1.
         11   -1    0    0    0    0 -0.00000000000E+00 -0.00000000000E+00 -0.45593999997E+02  0.45594000000E+02  0.51100000000E-03 0.  1.
    9900012    2    1    2    0    0  0.13324772186E+02 -0.13073077154E+02 -0.14909083996E+01  0.72461609319E+02  0.70000050837E+02 0.  0.
        -12    1    1    2    0    0 -0.13324772186E+02  0.13073077154E+02  0.14909083996E+01  0.18726390681E+02  0.00000000000E+00 0.  1.
         11    1    3    3    0    0  0.41634589831E+00  0.16406785649E+02  0.20255451271E+01  0.16536589508E+02  0.51100000000E-03 0. -1.
        -11    1    3    3    0    0  0.26732468569E+02 -0.10747692499E+02 -0.11910839270E+02  0.31177008552E+02  0.51100000000E-03 0.  1.
         12    1    3    3    0    0 -0.13824042281E+02 -0.18732170304E+02  0.83943857431E+01  0.24748011259E+02  0.00000000000E+00 0. -1.
</event>
<event>
 7    1  0.1884848E-013  0.7246154E+02  0.7816164E-02  0.1226708E+00
        -11   -1    0    0    0    0  0.00000000000E+00  0.00000000000E+00  0.45593999997E+02  0.45594000000E+02  0.51100000000E-03 0. -1.
         11   -1    0    0    0    0 -0.00000000000E+00 -0.00000000000E+00 -0.45593999997E+02  0.45594000000E+02  0.51100000000E-03 0.  1.
    9900012    2    1    2    0    0  0.72785583165E+01  0.39153534138E+01  0.16803957076E+02  0.72461538056E+02  0.69999958003E+02 0.  0.
        -12    1    1    2    0    0 -0.72785583165E+01 -0.39153534138E+01 -0.16803957076E+02  0.18726461944E+02  0.00000000000E+00 0.  1.
         11    1    3    3    0    0 -0.48597741866E+01  0.99389680689E+01  0.13029679253E+02  0.17093069740E+02  0.51100000000E-03 0. -1.
        -11    1    3    3    0    0  0.31963809389E+02 -0.12295664998E+02  0.46196933444E+01  0.34557344448E+02  0.51100000000E-03 0.  1.
        -12    1    3    3    0    0 -0.19825476886E+02  0.62720503427E+01 -0.84541552108E+00  0.20811123869E+02  0.00000000000E+00 0.  1.
</event>
<event>
 7    1  0.1884848E-013  0.7246158E+02  0.7816164E-02  0.1226708E+00
        -11   -1    0    0    0    0  0.00000000000E+00  0.00000000000E+00  0.45593999997E+02  0.45594000000E+02  0.51100000000E-03 0.  1.
         11   -1    0    0    0    0 -0.00000000000E+00 -0.00000000000E+00 -0.45593999997E+02  0.45594000000E+02  0.51100000000E-03 0. -1.
    9900012    2    1    2    0    0 -0.18210566222E+02 -0.39923078830E+01 -0.17650877193E+01  0.72461580721E+02  0.70000013582E+02 0.  0.
        -12    1    1    2    0    0  0.18210566222E+02  0.39923078830E+01  0.17650877193E+01  0.18726419279E+02  0.00000000000E+00 0.  1.
         11    1    3    3    0    0 -0.10070418424E+02 -0.11000150796E+02  0.96170163468E+01  0.17745524744E+02  0.51100000000E-03 0.  1.
        -11    1    3    3    0    0  0.64617584726E+01 -0.91077870182E+01 -0.26146057929E+02  0.28431012159E+02  0.51100000000E-03 0. -1.
        -12    1    3    3    0    0 -0.14601906271E+02  0.16115629931E+02  0.14763953862E+02  0.26285043817E+02  0.00000000000E+00 0.  1.
</event>
<event>
 7    1  0.1884848E-013  0.7246151E+02  0.7816164E-02  0.1226708E+00
        -11   -1    0    0    0    0  0.00000000000E+00  0.00000000000E+00  0.45593999997E+02  0.45594000000E+02  0.51100000000E-03 0. -1.
         11   -1    0    0    0    0 -0.00000000000E+00 -0.00000000000E+00 -0.45593999997E+02  0.45594000000E+02  0.51100000000E-03 0.  1.
    9900012    2    1    2    0    0  0.20096239076E+01  0.18490475482E+02  0.21783712166E+01  0.72461506122E+02  0.69999916404E+02 0.  0.
        -12    1    1    2    0    0 -0.20096239076E+01 -0.18490475482E+02 -0.21783712166E+01  0.18726493878E+02  0.00000000000E+00 0.  1.
         11    1    3    3    0    0  0.92208073688E+01  0.20295416381E+02  0.12447059461E+02  0.25531480649E+02  0.51100000000E-03 0. -1.
        -11    1    3    3    0    0 -0.22715324789E+02  0.73069357610E+01 -0.15188841557E+02  0.28285653583E+02  0.51100000000E-03 0.  1.
        -12    1    3    3    0    0  0.15504141328E+02 -0.91118766608E+01  0.49201533132E+01  0.18644371891E+02  0.00000000000E+00 0.  1.
</event>
<event>
 7    1  0.1884848E-013  0.7246149E+02  0.7816164E-02  0.1226708E+00
        -11   -1    0    0    0    0  0.00000000000E+00  0.00000000000E+00  0.45593999997E+02  0.45594000000E+02  0.51100000000E-03 0.  1.
         11   -1    0    0    0    0 -0.00000000000E+00 -0.00000000000E+00 -0.45593999997E+02  0.45594000000E+02  0.51100000000E-03 0. -1.
    9900012    2    1    2    0    0  0.15631360413E+01  0.22631515905E+01 -0.18523415120E+02  0.72461490525E+02  0.69999896086E+02 0.  0.
        -12    1    1    2    0    0 -0.15631360413E+01 -0.22631515905E+01  0.18523415120E+02  0.18726509475E+02  0.00000000000E+00 0.  1.
         11    1    3    3    0    0 -0.23108301595E+02  0.10587161574E+02  0.12002991418E+01  0.25446459697E+02  0.51100000000E-03 0. -1.
        -11    1    3    3    0    0  0.44690728338E+00 -0.16101572695E+02 -0.12999583332E+02  0.20699022596E+02  0.51100000000E-03 0.  1.
         12    1    3    3    0    0  0.24224530353E+02  0.77775627115E+01 -0.67241309296E+01  0.26316008233E+02  0.00000000000E+00 0. -1.
</event>
<event>
 7    1  0.1884848E-013  0.7246160E+02  0.7816164E-02  0.1226708E+00
        -11   -1    0    0    0    0  0.00000000000E+00  0.00000000000E+00  0.45593999997E+02  0.45594000000E+02  0.51100000000E-03 0.  1.
         11   -1    0    0    0    0 -0.00000000000E+00 -0.00000000000E+00 -0.45593999997E+02  0.45594000000E+02  0.51100000000E-03 0. -1.
    9900012    2    1    2    0    0  0.25149237542E+01 -0.15240249239E+02 -0.10587170319E+02  0.72461595814E+02  0.70000033244E+02 0.  0.
        -12    1    1    2    0    0 -0.25149237542E+01  0.15240249239E+02  0.10587170319E+02  0.18726404186E+02  0.00000000000E+00 0.  1.
         11    1    3    3    0    0  0.14698885500E+02 -0.41726126495E+00 -0.14843722685E+02  0.20894196450E+02  0.51100000000E-03 0. -1.
        -11    1    3    3    0    0 -0.21948818036E+02  0.10393248696E+02  0.33120460085E+01  0.24509995525E+02  0.51100000000E-03 0.  1.
        -12    1    3    3    0    0  0.97648562901E+01 -0.25216236671E+02  0.94450635681E+00  0.27057403838E+02  0.00000000000E+00 0.  1.
</event>
<event>
 7    1  0.1884848E-013  0.7246156E+02  0.7816164E-02  0.1226708E+00
        -11   -1    0    0    0    0  0.00000000000E+00  0.00000000000E+00  0.45593999997E+02  0.45594000000E+02  0.51100000000E-03 0. -1.
         11   -1    0    0    0    0 -0.00000000000E+00 -0.00000000000E+00 -0.45593999997E+02  0.45594000000E+02  0.51100000000E-03 0.  1.
    9900012    2    1    2    0    0 -0.89650699409E+01  0.63163757179E+01  0.15179275311E+02  0.72461561998E+02  0.69999989193E+02 0.  0.
        -12    1    1    2    0    0  0.89650699409E+01 -0.63163757179E+01 -0.15179275311E+02  0.18726438002E+02  0.00000000000E+00 0.  1.
         11    1    3    3    0    0  0.14031001091E+02 -0.16446712539E+02 -0.27367395251E+01  0.21791124074E+02  0.51100000000E-03 0.  1.
        -11    1    3    3    0    0 -0.58951531928E+01 -0.64782658683E+01  0.14076002867E+02  0.16578739904E+02  0.51100000000E-03 0. -1.
         12    1    3    3    0    0 -0.17100917839E+02  0.29241354125E+02  0.38400119696E+01  0.34091698020E+02  0.00000000000E+00 0. -1.
</event>
<event>
 7    1  0.1884848E-013  0.7246154E+02  0.7816164E-02  0.1226708E+00
        -11   -1    0    0    0    0  0.00000000000E+00  0.00000000000E+00  0.45593999997E+02  0.45594000000E+02  0.51100000000E-03 0. -1.
         11   -1    0    0    0    0 -0.00000000000E+00 -0.00000000000E+00 -0.45593999997E+02  0.45594000000E+02  0.51100000000E-03 0.  1.
    9900012    2    1    2    0    0  0.11698372397E+01 -0.15579213174E+02  0.10324724909E+02  0.72461538863E+02  0.69999959054E+02 0.  0.
        -12    1    1    2    0    0 -0.11698372397E+01  0.15579213174E+02 -0.10324724909E+02  0.18726461137E+02  0.00000000000E+00 0.  1.
         11    1    3    3    0    0  0.11838889168E+02 -0.29626683593E+01 -0.22066556373E+02  0.25216455162E+02  0.51100000000E-03 0.  1.
        -11    1    3    3    0    0 -0.19348160039E+02 -0.23096146042E+01  0.25553068549E+02  0.32134793122E+02  0.51100000000E-03 0. -1.
        -12    1    3    3    0    0  0.86791081111E+01 -0.10306930210E+02  0.68382127336E+01  0.15110290578E+02  0.00000000000E+00 0.  1.
</event>
<event>
 7    1  0.1884848E-013  0.7246152E+02  0.7816164E-02  0.1226708E+00
        -11   -1    0    0    0    0  0.00000000000E+00  0.00000000000E+00  0.45593999997E+02  0.45594000000E+02  0.51100000000E-03 0. -1.
         11   -1    0    0    0    0 -0.00000000000E+00 -0.00000000000E+00 -0.45593999997E+02  0.45594000000E+02  0.51100000000E-03 0.  1.
    9900012    2    1    2    0    0  0.74317882492E+01 -0.33711398980E+01  0.16854819505E+02  0.72461521385E+02  0.69999936286E+02 0.  0.
        -12    1    1    2    0    0 -0.74317882492E+01  0.33711398980E+01 -0.16854819505E+02  0.18726478615E+02  0.00000000000E+00 0.  1.
         11    1    3    3    0    0  0.18618558346E+02 -0.88773357659E+01  0.23187490311E+02  0.31034134632E+02  0.51100000000E-03 0. -1.
        -11    1    3    3    0    0  0.66101006171E+01  0.17446839952E+02 -0.71503802664E+01  0.19980330145E+02  0.51100000000E-03 0.  1.
         12    1    3    3    0    0 -0.17796870714E+02 -0.11940644084E+02  0.81770946009E+00  0.21447056607E+02  0.00000000000E+00 0. -1.
</event>
<event>
 7    1  0.1884848E-013  0.7246159E+02  0.7816164E-02  0.1226708E+00
        -11   -1    0    0    0    0  0.00000000000E+00  0.00000000000E+00  0.45593999997E+02  0.45594000000E+02  0.51100000000E-03 0.  1.
         11   -1    0    0    0    0 -0.00000000000E+00 -0.00000000000E+00 -0.45593999997E+02  0.45594000000E+02  0.51100000000E-03 0. -1.
    9900012    2    1    2    0    0  0.61119605843E+01  0.16875675221E+02 -0.53417326216E+01  0.72461585935E+02  0.70000020374E+02 0.  0.
        -12    1    1    2    0    0 -0.61119605843E+01 -0.16875675221E+02  0.53417326216E+01  0.18726414065E+02  0.00000000000E+00 0.  1.
         11    1    3    3    0    0 -0.26709374930E+02  0.47985010372E+01 -0.28994494152E+01  0.27291447901E+02  0.51100000000E-03 0. -1.
        -11    1    3    3    0    0  0.36849633216E+02  0.14739559849E+02 -0.44578640049E+01  0.39937734594E+02  0.51100000000E-03 0.  1.
        -12    1    3    3    0    0 -0.40282977017E+01 -0.26623856647E+01  0.20155807985E+01  0.52324034398E+01  0.00000000000E+00 0.  1.
</event>
<event>
 7    1  0.1884848E-013  0.7246153E+02  0.7816164E-02  0.1226708E+00
        -11   -1    0    0    0    0  0.00000000000E+00  0.00000000000E+00  0.45593999997E+02  0.45594000000E+02  0.51100000000E-03 0.  1.
         11   -1    0    0    0    0 -0.00000000000E+00 -0.00000000000E+00 -0.45593999997E+02  0.45594000000E+02  0.51100000000E-03 0. -1.
    9900012    2    1    2    0    0  0.78161985599E+01  0.31506730972E+01 -0.16723065384E+02  0.72461531653E+02  0.69999949663E+02 0.  0.
        -12    1    1    2    0    0 -0.78161985599E+01 -0.31506730972E+01  0.16723065384E+02  0.18726468347E+02  0.00000000000E+00 0.  1.
         11    1    3    3    0    0  0.31774936805E+02 -0.42439075223E+01 -0.72164514919E+01  0.32859314241E+02  0.51100000000E-03 0. -1.
        -11    1    3    3    0    0 -0.50791121826E+01  0.13765316314E+02 -0.12720864339E+02  0.19419106663E+02  0.51100000000E-03 0.  1.
         12    1    3    3    0    0 -0.18879626063E+02 -0.63707356949E+01  0.32142504472E+01  0.20183110749E+02  0.00000000000E+00 0. -1.
</event>
<event>
 7    1  0.1884848E-013  0.7246155E+02  0.7816164E-02  0.1226708E+00
        -11   -1    0    0    0    0  0.00000000000E+00  0.00000000000E+00  0.45593999997E+02  0.45594000000E+02  0.51100000000E-03 0. -1.
         11   -1    0    0    0    0 -0.00000000000E+00 -0.00000000000E+00 -0.45593999997E+02  0.45594000000E+02  0.51100000000E-03 0.  1.
    9900012    2    1    2    0    0 -0.10914362571E+02  0.77721882137E+01  0.13082418792E+02  0.72461550753E+02  0.69999974544E+02 0.  0.
        -12    1    1    2    0    0  0.10914362571E+02 -0.77721882137E+01 -0.13082418792E+02  0.18726449247E+02  0.00000000000E+00 0.  1.
         11    1    3    3    0    0 -0.25826525405E+02  0.28185948652E+02  0.50746211155E+01  0.38564347469E+02  0.51100000000E-03 0. -1.
        -11    1    3    3    0    0  0.14528353259E+02 -0.86911157314E+01 -0.36954403858E+01  0.17328151113E+02  0.51100000000E-03 0.  1.
         12    1    3    3    0    0  0.38380957544E+00 -0.11722644707E+02  0.11703238062E+02  0.16569052172E+02  0.00000000000E+00 0. -1.
</event>
<event>
 7    1  0.1884848E-013  0.7246158E+02  0.7816164E-02  0.1226708E+00
        -11   -1    0    0    0    0  0.00000000000E+00  0.00000000000E+00  0.45593999997E+02  0.45594000000E+02  0.51100000000E-03 0.  1.
         11   -1    0    0    0    0 -0.00000000000E+00 -0.00000000000E+00 -0.45593999997E+02  0.45594000000E+02  0.51100000000E-03 0. -1.
    9900012    2    1    2    0    0 -0.16947412380E+02  0.51223571370E+01  0.61012766632E+01  0.72461577332E+02  0.70000009168E+02 0.  0.
        -12    1    1    2    0    0  0.16947412380E+02 -0.51223571370E+01 -0.61012766632E+01  0.18726422668E+02  0.00000000000E+00 0.  1.
         11    1    3    3    0    0  0.14781547256E+02 -0.10790719097E+02  0.79682631476E+01  0.19960635655E+02  0.51100000000E-03 0. -1.
        -11    1    3    3    0    0 -0.34648765509E+02  0.67036165853E+01 -0.13136617157E+02  0.37656953371E+02  0.51100000000E-03 0.  1.
         12    1    3    3    0    0  0.29198058729E+01  0.92094596486E+01  0.11269630672E+02  0.14843988306E+02  0.00000000000E+00 0. -1.
</event>
<event>
 7    1  0.1884848E-013  0.7246154E+02  0.7816164E-02  0.1226708E+00
        -11   -1    0    0    0    0  0.00000000000E+00  0.00000000000E+00  0.45593999997E+02  0.45594000000E+02  0.51100000000E-03 0.  1.
         11   -1    0    0    0    0 -0.00000000000E+00 -0.00000000000E+00 -0.45593999997E+02  0.45594000000E+02  0.51100000000E-03 0. -1.
    9900012    2    1    2    0    0  0.16519560459E+02 -0.78169397788E+01  0.40841099653E+01  0.72461537989E+02  0.69999957916E+02 0.  0.
        -12    1    1    2    0    0 -0.16519560459E+02  0.78169397788E+01 -0.40841099653E+01  0.18726462011E+02  0.00000000000E+00 0.  1.
         11    1    3    3    0    0  0.24408205879E+01  0.73625936084E+01 -0.28360231895E+02  0.29401839112E+02  0.51100000000E-03 0. -1.
        -11    1    3    3    0    0 -0.25940323555E+01 -0.68832609459E+01  0.24477476444E+01  0.77524031050E+01  0.51100000000E-03 0.  1.
         12    1    3    3    0    0  0.16672772226E+02 -0.82962724413E+01  0.29996594216E+02  0.35307295771E+02  0.00000000000E+00 0. -1.
</event>
<event>
 7    1  0.1884848E-013  0.7246153E+02  0.7816164E-02  0.1226708E+00
        -11   -1    0    0    0    0  0.00000000000E+00  0.00000000000E+00  0.45593999997E+02  0.45594000000E+02  0.51100000000E-03 0. -1.
         11   -1    0    0    0    0 -0.00000000000E+00 -0.00000000000E+00 -0.45593999997E+02  0.45594000000E+02  0.51100000000E-03 0.  1.
    9900012    2    1    2    0    0 -0.16360781430E+02 -0.10333775844E+01 -0.90519504051E+01  0.72461525576E+02  0.69999941746E+02 0.  0.
        -12    1    1    2    0    0  0.16360781430E+02  0.10333775844E+01  0.90519504051E+01  0.18726474424E+02  0.00000000000E+00 0.  1.
         11    1    3    3    0    0 -0.21238756922E+01  0.28620175695E+02 -0.16592419250E+02  0.33150168651E+02  0.51100000000E-03 0. -1.
        -11    1    3    3    0    0  0.32579389234E+01 -0.72459378436E+01 -0.36713869914E+01  0.87519634348E+01  0.51100000000E-03 0.  1.
         12    1    3    3    0    0 -0.17494844661E+02 -0.22407615436E+02  0.11211855836E+02  0.30559393490E+02  0.00000000000E+00 0. -1.
</event>
<event>
 7    1  0.1884848E-013  0.7246154E+02  0.7816164E-02  0.1226708E+00
        -11   -1    0    0    0    0  0.00000000000E+00  0.00000000000E+00  0.45593999997E+02  0.45594000000E+02  0.51100000000E-03 0. -1.
         11   -1    0    0    0    0 -0.00000000000E+00 -0.00000000000E+00 -0.45593999997E+02  0.45594000000E+02  0.51100000000E-03 0.  1.
    9900012    2    1    2    0    0  0.85752938434E+01 -0.53887916225E+00  0.16638939724E+02  0.72461538231E+02  0.69999958232E+02 0.  0.
        -12    1    1    2    0    0 -0.85752938434E+01  0.53887916225E+00 -0.16638939724E+02  0.18726461769E+02  0.00000000000E+00 0.  1.
         11    1    3    3    0    0  0.50241820923E+01 -0.17103439719E+02 -0.82350025242E+01  0.19636326610E+02  0.51100000000E-03 0.  1.
        -11    1    3    3    0    0  0.39402785237E+01  0.24486209489E+02 -0.19264125922E+01  0.24875918389E+02  0.51100000000E-03 0. -1.
        -12    1    3    3    0    0 -0.38916677261E+00 -0.79216489322E+01  0.26800354840E+02  0.27949293232E+02  0.00000000000E+00 0.  1.
</event>
<event>
 7    1  0.1884848E-013  0.7246127E+02  0.7816164E-02  0.1226709E+00
        -11   -1    0    0    0    0  0.00000000000E+00  0.00000000000E+00  0.45593999997E+02  0.45594000000E+02  0.51100000000E-03 0. -1.
         11   -1    0    0    0    0 -0.00000000000E+00 -0.00000000000E+00 -0.45593999997E+02  0.45594000000E+02  0.51100000000E-03 0.  1.
    9900012    2    1    2    0    0 -0.63210813892E+01 -0.10392768579E+02  0.14238147822E+02  0.72461266113E+02  0.69999603747E+02 0.  0.
        -12    1    1    2    0    0  0.63210813892E+01  0.10392768579E+02 -0.14238147822E+02  0.18726733887E+02  0.00000000000E+00 0.  1.
         11    1    3    3    0    0 -0.16394930678E+02  0.22181704361E+02  0.23790382983E+01  0.27685403803E+02  0.51100000000E-03 0.  1.
        -11    1    3    3    0    0  0.12817188167E+02 -0.34679721807E+02  0.15193067375E+02  0.39972399398E+02  0.51100000000E-03 0. -1.
         12    1    3    3    0    0 -0.27433388782E+01  0.21052488673E+01 -0.33339578512E+01  0.48034629121E+01  0.00000000000E+00 0. -1.
</event>
<event>
 7    1  0.1884848E-013  0.7246161E+02  0.7816164E-02  0.1226708E+00
        -11   -1    0    0    0    0  0.00000000000E+00  0.00000000000E+00  0.45593999997E+02  0.45594000000E+02  0.51100000000E-03 0.  1.
         11   -1    0    0    0    0 -0.00000000000E+00 -0.00000000000E+00 -0.45593999997E+02  0.45594000000E+02  0.51100000000E-03 0. -1.
    9900012    2    1    2    0    0  0.51822056365E+01  0.60213842940E+01 -0.16957756876E+02  0.72461605730E+02  0.70000046162E+02 0.  0.
        -12    1    1    2    0    0 -0.51822056365E+01 -0.60213842940E+01  0.16957756876E+02  0.18726394270E+02  0.00000000000E+00 0.  1.
         11    1    3    3    0    0 -0.10265422236E+02 -0.14456976562E+02  0.98135202444E+01  0.20265444601E+02  0.51100000000E-03 0. -1.
        -11    1    3    3    0    0  0.11724048098E+02  0.23908454398E+02 -0.34114658110E+02  0.43276753503E+02  0.51100000000E-03 0.  1.
        -12    1    3    3    0    0  0.37235797741E+01 -0.34300935420E+01  0.73433809900E+01  0.89194076263E+01  0.00000000000E+00 0.  1.
</event>
<event>
 7    1  0.1884848E-013  0.7246150E+02  0.7816164E-02  0.1226708E+00
        -11   -1    0    0    0    0  0.00000000000E+00  0.00000000000E+00  0.45593999997E+02  0.45594000000E+02  0.51100000000E-03 0.  1.
         11   -1    0    0    0    0 -0.00000000000E+00 -0.00000000000E+00 -0.45593999997E+02  0.45594000000E+02  0.51100000000E-03 0. -1.
    9900012    2    1    2    0    0  0.52863844341E+01 -0.16973387073E+02 -0.58855790398E+01  0.72461500868E+02  0.69999909559E+02 0.  0.
        -12    1    1    2    0    0 -0.52863844341E+01  0.16973387073E+02  0.58855790398E+01  0.18726499132E+02  0.00000000000E+00 0.  1.
         11    1    3    3    0    0  0.10132994472E+02  0.43053452262E+01  0.11170927479E+00  0.11010270374E+02  0.51100000000E-03 0. -1.
        -11    1    3    3    0    0 -0.24075360895E+02  0.20286322149E+01  0.11259019757E+02  0.26655278596E+02  0.51100000000E-03 0.  1.
        -12    1    3    3    0    0  0.19228750857E+02 -0.23307364514E+02 -0.17256308072E+02  0.34795951897E+02  0.00000000000E+00 0.  1.
</event>
<event>
 7    1  0.1884848E-013  0.7246153E+02  0.7816164E-02  0.1226708E+00
        -11   -1    0    0    0    0  0.00000000000E+00  0.00000000000E+00  0.45593999997E+02  0.45594000000E+02  0.51100000000E-03 0. -1.
         11   -1    0    0    0    0 -0.00000000000E+00 -0.00000000000E+00 -0.45593999997E+02  0.45594000000E+02  0.51100000000E-03 0.  1.
    9900012    2    1    2    0    0  0.48252791778E+00 -0.17101351214E+01  0.18641975240E+02  0.72461531134E+02  0.69999948987E+02 0.  0.
        -12    1    1    2    0    0 -0.48252791778E+00  0.17101351214E+01 -0.18641975240E+02  0.18726468866E+02  0.00000000000E+00 0.  1.
         11    1    3    3    0    0  0.75514728870E+01  0.21511452157E+02 -0.76034538251E+01  0.24032890525E+02  0.51100000000E-03 0.  1.
        -11    1    3    3    0    0 -0.19816258676E+02 -0.10618487621E+02  0.11701072083E+02  0.25344653784E+02  0.51100000000E-03 0. -1.
        -12    1    3    3    0    0  0.12747313707E+02 -0.12603099657E+02  0.14544356982E+02  0.23083986825E+02  0.00000000000E+00 0.  1.
</event>
<event>
 7    1  0.1884848E-013  0.7246157E+02  0.7816164E-02  0.1226708E+00
        -11   -1    0    0    0    0  0.00000000000E+00  0.00000000000E+00  0.45593999997E+02  0.45594000000E+02  0.51100000000E-03 0. -1.
         11   -1    0    0    0    0 -0.00000000000E+00 -0.00000000000E+00 -0.45593999997E+02  0.45594000000E+02  0.51100000000E-03 0.  1.
    9900012    2    1    2    0    0 -0.17666261705E+02 -0.25662213720E+01  0.56565866588E+01  0.72461567682E+02  0.69999996596E+02 0.  0.
        -12    1    1    2    0    0  0.17666261705E+02  0.25662213720E+01 -0.56565866588E+01  0.18726432318E+02  0.00000000000E+00 0.  1.
         11    1    3    3    0    0  0.60578507364E+01  0.50449179108E+01  0.89127438111E+01  0.11898981249E+02  0.51100000000E-03 0. -1.
        -11    1    3    3    0    0 -0.26061835482E+02 -0.36425246578E+01 -0.26216059958E+02  0.37145242691E+02  0.51100000000E-03 0.  1.
        -12    1    3    3    0    0  0.23377230412E+01 -0.39686146250E+01  0.22959902806E+02  0.23417343741E+02  0.00000000000E+00 0.  1.
</event>
<event>
 7    1  0.1884848E-013  0.7246157E+02  0.7816164E-02  0.1226708E+00
        -11   -1    0    0    0    0  0.00000000000E+00  0.00000000000E+00  0.45593999997E+02  0.45594000000E+02  0.51100000000E-03 0.  1.
         11   -1    0    0    0    0 -0.00000000000E+00 -0.00000000000E+00 -0.45593999997E+02  0.45594000000E+02  0.51100000000E-03 0. -1.
    9900012    2    1    2    0    0 -0.17856205690E+02 -0.39128310823E+01 -0.40650572550E+01  0.72461574308E+02  0.70000005228E+02 0.  0.
        -12    1    1    2    0    0  0.17856205690E+02  0.39128310823E+01  0.40650572550E+01  0.18726425692E+02  0.00000000000E+00 0.  1.
         11    1    3    3    0    0  0.90017402658E+00 -0.73436129604E+00 -0.32218447577E+02  0.32239385296E+02  0.51100000000E-03 0. -1.
        -11    1    3    3    0    0  0.21988597802E+01  0.55324894234E+01  0.46821200393E+01  0.75740129309E+01  0.51100000000E-03 0.  1.
         12    1    3    3    0    0 -0.20955239497E+02 -0.87109592097E+01  0.23471270282E+02  0.32648176080E+02  0.00000000000E+00 0. -1.
</event>
<event>
 7    1  0.1884848E-013  0.7246157E+02  0.7816164E-02  0.1226708E+00
        -11   -1    0    0    0    0  0.00000000000E+00  0.00000000000E+00  0.45593999997E+02  0.45594000000E+02  0.51100000000E-03 0.  1.
         11   -1    0    0    0    0 -0.00000000000E+00 -0.00000000000E+00 -0.45593999997E+02  0.45594000000E+02  0.51100000000E-03 0. -1.
    9900012    2    1    2    0    0  0.10429170290E+02  0.66587647538E+01 -0.14056044522E+02  0.72461571388E+02  0.70000001424E+02 0.  0.
        -12    1    1    2    0    0 -0.10429170290E+02 -0.66587647538E+01  0.14056044522E+02  0.18726428612E+02  0.00000000000E+00 0.  1.
         11    1    3    3    0    0  0.25170089613E+02 -0.16443255480E+02 -0.27258995467E+02  0.40582839921E+02  0.51100000000E-03 0. -1.
        -11    1    3    3    0    0 -0.11273892011E+02  0.10181692394E+02  0.42240489170E+01  0.15767374246E+02  0.51100000000E-03 0.  1.
         12    1    3    3    0    0 -0.34670273120E+01  0.12920327840E+02  0.89789020282E+01  0.16111357221E+02  0.00000000000E+00 0. -1.
</event>
<event>
 7    1  0.1884848E-013  0.7246167E+02  0.7816164E-02  0.1226708E+00
        -11   -1    0    0    0    0  0.00000000000E+00  0.00000000000E+00  0.45593999997E+02  0.45594000000E+02  0.51100000000E-03 0.  1.
         11   -1    0    0    0    0 -0.00000000000E+00 -0.00000000000E+00 -0.45593999997E+02  0.45594000000E+02  0.51100000000E-03 0. -1.
    9900012    2    1    2    0    0 -0.51426728628E+00  0.80409790566E+01 -0.16904248820E+02  0.72461669788E+02  0.70000129609E+02 0.  0.
        -12    1    1    2    0    0  0.51426728628E+00 -0.80409790566E+01  0.16904248820E+02  0.18726330212E+02  0.00000000000E+00 0.  1.
         11    1    3    3    0    0  0.78310074307E+00  0.23480636326E+02  0.37139988411E+01  0.23785443379E+02  0.51100000000E-03 0. -1.
        -11    1    3    3    0    0  0.14570262065E+02 -0.14650552630E+02  0.22999043802E+01  0.20789920380E+02  0.51100000000E-03 0.  1.
         12    1    3    3    0    0 -0.15867630094E+02 -0.78910463951E+00 -0.22918152042E+02  0.27886306029E+02  0.00000000000E+00 0. -1.
</event>
<event>
 7    1  0.1884848E-013  0.7246157E+02  0.7816164E-02  0.1226708E+00
        -11   -1    0    0    0    0  0.00000000000E+00  0.00000000000E+00  0.45593999997E+02  0.45594000000E+02  0.51100000000E-03 0.  1.
         11   -1    0    0    0    0 -0.00000000000E+00 -0.00000000000E+00 -0.45593999997E+02  0.45594000000E+02  0.51100000000E-03 0. -1.
    9900012    2    1    2    0    0 -0.63185082411E+01  0.11111136720E+02 -0.13685694635E+02  0.72461570996E+02  0.70000000914E+02 0.  0.
        -12    1    1    2    0    0  0.63185082411E+01 -0.11111136720E+02  0.13685694635E+02  0.18726429004E+02  0.00000000000E+00 0.  1.
         11    1    3    3    0    0  0.72013002067E+01 -0.78061004302E+01 -0.34103338978E+02  0.35718785790E+02  0.51100000000E-03 0. -1.
        -11    1    3    3    0    0  0.45092867073E+01  0.85551835257E+01  0.77540309887E+01  0.12395556809E+02  0.51100000000E-03 0.  1.
         12    1    3    3    0    0 -0.18029095155E+02  0.10362053624E+02  0.12663613354E+02  0.24347228397E+02  0.00000000000E+00 0. -1.
</event>
<event>
 7    1  0.1884848E-013  0.7246150E+02  0.7816164E-02  0.1226708E+00
        -11   -1    0    0    0    0  0.00000000000E+00  0.00000000000E+00  0.45593999997E+02  0.45594000000E+02  0.51100000000E-03 0.  1.
         11   -1    0    0    0    0 -0.00000000000E+00 -0.00000000000E+00 -0.45593999997E+02  0.45594000000E+02  0.51100000000E-03 0. -1.
    9900012    2    1    2    0    0  0.33293385211E+01  0.86485954120E+01 -0.16272652660E+02  0.72461496798E+02  0.69999904257E+02 0.  0.
        -12    1    1    2    0    0 -0.33293385211E+01 -0.86485954120E+01  0.16272652660E+02  0.18726503202E+02  0.00000000000E+00 0.  1.
         11    1    3    3    0    0 -0.24908774150E+02 -0.52217094507E+01 -0.20116970659E+02  0.32440804368E+02  0.51100000000E-03 0. -1.
        -11    1    3    3    0    0  0.18671924218E+02  0.73891263952E+01  0.14127575975E+02  0.24552562923E+02  0.51100000000E-03 0.  1.
         12    1    3    3    0    0  0.95661884537E+01  0.64811784676E+01 -0.10283257976E+02  0.15468129507E+02  0.00000000000E+00 0. -1.
</event>
<event>
 7    1  0.1884848E-013  0.7246149E+02  0.7816164E-02  0.1226708E+00
        -11   -1    0    0    0    0  0.00000000000E+00  0.00000000000E+00  0.45593999997E+02  0.45594000000E+02  0.51100000000E-03 0.  1.
         11   -1    0    0    0    0 -0.00000000000E+00 -0.00000000000E+00 -0.45593999997E+02  0.45594000000E+02  0.51100000000E-03 0. -1.
    9900012    2    1    2    0    0  0.18306046786E+02  0.39059136243E+01  0.56078962099E+00  0.72461494849E+02  0.69999901719E+02 0.  0.
        -12    1    1    2    0    0 -0.18306046786E+02 -0.39059136243E+01 -0.56078962099E+00  0.18726505151E+02  0.00000000000E+00 0.  1.
         11    1    3    3    0    0 -0.87868154843E+01  0.27153504376E+02 -0.14767425314E+02  0.32134059453E+02  0.51100000000E-03 0. -1.
        -11    1    3    3    0    0  0.16916660639E+02 -0.15318526744E+02  0.15210920913E+02  0.27426315539E+02  0.51100000000E-03 0.  1.
         12    1    3    3    0    0  0.10176201631E+02 -0.79290640079E+01  0.11729402187E+00  0.12901119857E+02  0.00000000000E+00 0. -1.
</event>
<event>
 7    1  0.1884848E-013  0.7246154E+02  0.7816164E-02  0.1226708E+00
        -11   -1    0    0    0    0  0.00000000000E+00  0.00000000000E+00  0.45593999997E+02  0.45594000000E+02  0.51100000000E-03 0.  1.
         11   -1    0    0    0    0 -0.00000000000E+00 -0.00000000000E+00 -0.45593999997E+02  0.45594000000E+02  0.51100000000E-03 0. -1.
    9900012    2    1    2    0    0  0.18621232927E+02  0.15748050563E+01 -0.12042137138E+01  0.72461535909E+02  0.69999955207E+02 0.  0.
        -12    1    1    2    0    0 -0.18621232927E+02 -0.15748050563E+01  0.12042137138E+01  0.18726464091E+02  0.00000000000E+00 0.  1.
         11    1    3    3    0    0  0.26764652494E+02 -0.20281905198E+01 -0.20137368705E+02  0.33555533054E+02  0.51100000000E-03 0. -1.
        -11    1    3    3    0    0  0.25658256956E+01  0.15747124055E+02  0.15721165365E+02  0.22398893236E+02  0.51100000000E-03 0.  1.
        -12    1    3    3    0    0 -0.10709245263E+02 -0.12144128479E+02  0.32119896259E+01  0.16507109619E+02  0.00000000000E+00 0.  1.
</event>
<event>
 7    1  0.1884848E-013  0.7246156E+02  0.7816164E-02  0.1226708E+00
        -11   -1    0    0    0    0  0.00000000000E+00  0.00000000000E+00  0.45593999997E+02  0.45594000000E+02  0.51100000000E-03 0.  1.
         11   -1    0    0    0    0 -0.00000000000E+00 -0.00000000000E+00 -0.45593999997E+02  0.45594000000E+02  0.51100000000E-03 0. -1.
    9900012    2    1    2    0    0  0.18092707660E+02  0.26099958879E+01 -0.40646330196E+01  0.72461564392E+02  0.69999992311E+02 0.  0.
        -12    1    1    2    0    0 -0.18092707660E+02 -0.26099958879E+01  0.40646330196E+01  0.18726435608E+02  0.00000000000E+00 0.  1.
         11    1    3    3    0    0  0.45645094895E+01  0.21104188016E+02 -0.45458251634E+01  0.22065493998E+02  0.51100000000E-03 0. -1.
        -11    1    3    3    0    0  0.21434848106E+02 -0.26795205421E+02 -0.90503812647E+01  0.35487253320E+02  0.51100000000E-03 0.  1.
        -12    1    3    3    0    0 -0.79066499361E+01  0.83010132927E+01  0.95315734084E+01  0.14908817074E+02  0.00000000000E+00 0.  1.
</event>
<event>
 7    1  0.1884848E-013  0.7246161E+02  0.7816164E-02  0.1226708E+00
        -11   -1    0    0    0    0  0.00000000000E+00  0.00000000000E+00  0.45593999997E+02  0.45594000000E+02  0.51100000000E-03 0. -1.
         11   -1    0    0    0    0 -0.00000000000E+00 -0.00000000000E+00 -0.45593999997E+02  0.45594000000E+02  0.51100000000E-03 0.  1.
    9900012    2    1    2    0    0  0.27926590219E+01 -0.17086968552E+02  0.71354145537E+01  0.72461612747E+02  0.70000055302E+02 0.  0.
        -12    1    1    2    0    0 -0.27926590219E+01  0.17086968552E+02 -0.71354145537E+01  0.18726387253E+02  0.00000000000E+00 0.  1.
         11    1    3    3    0    0  0.13691342317E+02  0.37432044120E+00  0.55170462433E+01  0.14765865019E+02  0.51100000000E-03 0. -1.
        -11    1    3    3    0    0 -0.28850752910E+02 -0.24105673979E+02  0.59652563907E+01  0.38066175872E+02  0.51100000000E-03 0.  1.
        -12    1    3    3    0    0  0.17952069615E+02  0.66443849859E+01 -0.43468880803E+01  0.19629571857E+02  0.00000000000E+00 0.  1.
</event>
<event>
 7    1  0.1884848E-013  0.7246147E+02  0.7816164E-02  0.1226708E+00
        -11   -1    0    0    0    0  0.00000000000E+00  0.00000000000E+00  0.45593999997E+02  0.45594000000E+02  0.51100000000E-03 0.  1.
         11   -1    0    0    0    0 -0.00000000000E+00 -0.00000000000E+00 -0.45593999997E+02  0.45594000000E+02  0.51100000000E-03 0. -1.
    9900012    2    1    2    0    0  0.18620477458E+02  0.19900301361E+01 -0.18520475148E-01  0.72461474863E+02  0.69999875683E+02 0.  0.
        -12    1    1    2    0    0 -0.18620477458E+02 -0.19900301361E+01  0.18520475148E-01  0.18726525137E+02  0.00000000000E+00 0.  1.
         11    1    3    3    0    0 -0.78833259328E+01 -0.17369510249E+01 -0.22290452564E+02  0.23707131889E+02  0.51100000000E-03 0. -1.
        -11    1    3    3    0    0  0.85206281311E+01 -0.65582954112E+01  0.25605218023E+02  0.27771199699E+02  0.51100000000E-03 0.  1.
         12    1    3    3    0    0  0.17983175260E+02  0.10285276572E+02 -0.33332859342E+01  0.20983143275E+02  0.00000000000E+00 0. -1.
</event>
<event>
 7    1  0.1884848E-013  0.7246162E+02  0.7816164E-02  0.1226708E+00
        -11   -1    0    0    0    0  0.00000000000E+00  0.00000000000E+00  0.45593999997E+02  0.45594000000E+02  0.51100000000E-03 0. -1.
         11   -1    0    0    0    0 -0.00000000000E+00 -0.00000000000E+00 -0.45593999997E+02  0.45594000000E+02  0.51100000000E-03 0.  1.
    9900012    2    1    2    0    0  0.87367303260E+01  0.14826583163E+02 -0.73837261161E+01  0.72461616568E+02  0.70000060280E+02 0.  0.
        -12    1    1    2    0    0 -0.87367303260E+01 -0.14826583163E+02  0.73837261161E+01  0.18726383432E+02  0.00000000000E+00 0.  1.
         11    1    3    3    0    0  0.64786393113E+01 -0.11536668530E+02  0.27734567411E+01  0.13518859074E+02  0.51100000000E-03 0. -1.
        -11    1    3    3    0    0 -0.23098132381E+01  0.14553705271E+02 -0.31131362227E+02  0.34442811858E+02  0.51100000000E-03 0.  1.
        -12    1    3    3    0    0  0.45679042528E+01  0.11809546422E+02  0.20974179370E+02  0.24499945636E+02  0.00000000000E+00 0.  1.
</event>
<event>
 7    1  0.1884848E-013  0.7246153E+02  0.7816164E-02  0.1226708E+00
        -11   -1    0    0    0    0  0.00000000000E+00  0.00000000000E+00  0.45593999997E+02  0.45594000000E+02  0.51100000000E-03 0.  1.
         11   -1    0    0    0    0 -0.00000000000E+00 -0.00000000000E+00 -0.45593999997E+02  0.45594000000E+02  0.51100000000E-03 0. -1.
    9900012    2    1    2    0    0 -0.18469662467E+02  0.30216886940E+01  0.64934049907E+00  0.72461530036E+02  0.69999947556E+02 0.  0.
        -12    1    1    2    0    0  0.18469662467E+02 -0.30216886940E+01 -0.64934049907E+00  0.18726469964E+02  0.00000000000E+00 0.  1.
         11    1    3    3    0    0 -0.18428283247E+02  0.54920035918E+01 -0.63420528054E+01  0.20248095242E+02  0.51100000000E-03 0. -1.
        -11    1    3    3    0    0  0.10533363785E+02 -0.24625830938E+02  0.69201403323E+01  0.27663543600E+02  0.51100000000E-03 0.  1.
        -12    1    3    3    0    0 -0.10574743005E+02  0.22155516040E+02  0.71252972170E-01  0.24549891194E+02  0.00000000000E+00 0.  1.
</event>
<event>
 7    1  0.1884848E-013  0.7246158E+02  0.7816164E-02  0.1226708E+00
        -11   -1    0    0    0    0  0.00000000000E+00  0.00000000000E+00  0.45593999997E+02  0.45594000000E+02  0.51100000000E-03 0. -1.
         11   -1    0    0    0    0 -0.00000000000E+00 -0.00000000000E+00 -0.45593999997E+02  0.45594000000E+02  0.51100000000E-03 0.  1.
    9900012    2    1    2    0    0 -0.74813024869E+01  0.16552376236E+02  0.45527903307E+01  0.72461576269E+02  0.70000007783E+02 0.  0.
        -12    1    1    2    0    0  0.74813024869E+01 -0.16552376236E+02 -0.45527903307E+01  0.18726423731E+02  0.00000000000E+00 0.  1.
         11    1    3    3    0    0 -0.22266642707E+02 -0.15372560904E+02  0.20320693032E+02  0.33838581114E+02  0.51100000000E-03 0. -1.
        -11    1    3    3    0    0  0.54197286942E+01  0.10096713990E+02 -0.42165539926E+01  0.12210504508E+02  0.51100000000E-03 0.  1.
         12    1    3    3    0    0  0.93656115261E+01  0.21828223151E+02 -0.11551348709E+02  0.26412490647E+02  0.00000000000E+00 0. -1.
</event>
<event>
 7    1  0.1884848E-013  0.7246166E+02  0.7816164E-02  0.1226708E+00
        -11   -1    0    0    0    0  0.00000000000E+00  0.00000000000E+00  0.45593999997E+02  0.45594000000E+02  0.51100000000E-03 0.  1.
         11   -1    0    0    0    0 -0.00000000000E+00 -0.00000000000E+00 -0.45593999997E+02  0.45594000000E+02  0.51100000000E-03 0. -1.
    9900012    2    1    2    0    0  0.89103803548E+01  0.48243281755E+01 -0.15748235771E+02  0.72461656248E+02  0.70000111971E+02 0.  0.
        -12    1    1    2    0    0 -0.89103803548E+01 -0.48243281755E+01  0.15748235771E+02  0.18726343752E+02  0.00000000000E+00 0.  1.
         11    1    3    3    0    0 -0.82664150172E+01 -0.11951136513E+02  0.54362437436E+01  0.15515025862E+02  0.51100000000E-03 0. -1.
        -11    1    3    3    0    0 -0.46821262014E+01  0.20013268067E+02  0.64700076515E+01  0.21547951266E+02  0.51100000000E-03 0.  1.
         12    1    3    3    0    0  0.21858921574E+02 -0.32378033790E+01 -0.27654487166E+02  0.35398679121E+02  0.00000000000E+00 0. -1.
</event>
<event>
 7    1  0.1884848E-013  0.7246152E+02  0.7816164E-02  0.1226708E+00
        -11   -1    0    0    0    0  0.00000000000E+00  0.00000000000E+00  0.45593999997E+02  0.45594000000E+02  0.51100000000E-03 0.  1.
         11   -1    0    0    0    0 -0.00000000000E+00 -0.00000000000E+00 -0.45593999997E+02  0.45594000000E+02  0.51100000000E-03 0. -1.
    9900012    2    1    2    0    0  0.10819369564E+01 -0.18035714984E+02 -0.49217393620E+01  0.72461518192E+02  0.69999932127E+02 0.  0.
        -12    1    1    2    0    0 -0.10819369564E+01  0.18035714984E+02  0.49217393620E+01  0.18726481808E+02  0.00000000000E+00 0.  1.
         11    1    3    3    0    0 -0.93027935290E+01 -0.42773654727E+02 -0.41992087501E+01  0.43974547872E+02  0.51100000000E-03 0. -1.
        -11    1    3    3    0    0 -0.96264016525E+00  0.88953761297E+01 -0.95739766030E+00  0.89983889179E+01  0.51100000000E-03 0.  1.
         12    1    3    3    0    0  0.11347370651E+02  0.15842563614E+02  0.23486704844E+00  0.19488581402E+02  0.00000000000E+00 0. -1.
</event>
<event>
 7    1  0.1884848E-013  0.7246157E+02  0.7816164E-02  0.1226708E+00
        -11   -1    0    0    0    0  0.00000000000E+00  0.00000000000E+00  0.45593999997E+02  0.45594000000E+02  0.51100000000E-03 0.  1.
         11   -1    0    0    0    0 -0.00000000000E+00 -0.00000000000E+00 -0.45593999997E+02  0.45594000000E+02  0.51100000000E-03 0. -1.
    9900012    2    1    2    0    0  0.67025534926E+01  0.17454612318E+02 -0.10447296633E+01  0.72461570160E+02  0.69999999825E+02 0.  0.
        -12    1    1    2    0    0 -0.67025534926E+01 -0.17454612318E+02  0.10447296633E+01  0.18726429840E+02  0.00000000000E+00 0.  1.
         11    1    3    3    0    0  0.15480474405E+02 -0.58807244719E+01 -0.20032539213E+02  0.25990972196E+02  0.51100000000E-03 0. -1.
        -11    1    3    3    0    0  0.13752837974E+01  0.24157450867E+02  0.24877577328E+02  0.34704001093E+02  0.51100000000E-03 0.  1.
         12    1    3    3    0    0 -0.10153204710E+02 -0.82211407681E+00 -0.58897677778E+01  0.11766596870E+02  0.00000000000E+00 0. -1.
</event>
<event>
 7    1  0.1884848E-013  0.7246156E+02  0.7816164E-02  0.1226708E+00
        -11   -1    0    0    0    0  0.00000000000E+00  0.00000000000E+00  0.45593999997E+02  0.45594000000E+02  0.51100000000E-03 0.  1.
         11   -1    0    0    0    0 -0.00000000000E+00 -0.00000000000E+00 -0.45593999997E+02  0.45594000000E+02  0.51100000000E-03 0. -1.
    9900012    2    1    2    0    0  0.17000269186E+02  0.36438385918E+01 -0.69564838128E+01  0.72461564698E+02  0.69999992710E+02 0.  0.
        -12    1    1    2    0    0 -0.17000269186E+02 -0.36438385918E+01  0.69564838128E+01  0.18726435302E+02  0.00000000000E+00 0.  1.
         11    1    3    3    0    0 -0.11060810580E+01  0.56154051519E+01 -0.20995473024E+02  0.21761573429E+02  0.51100000000E-03 0. -1.
        -11    1    3    3    0    0  0.30075466067E+02 -0.60256855847E+01  0.20112597842E+02  0.36679137642E+02  0.51100000000E-03 0.  1.
        -12    1    3    3    0    0 -0.11969115823E+02  0.40541190246E+01 -0.60736086306E+01  0.14020853628E+02  0.00000000000E+00 0.  1.
</event>
<event>
 7    1  0.1884848E-013  0.7246156E+02  0.7816164E-02  0.1226708E+00
        -11   -1    0    0    0    0  0.00000000000E+00  0.00000000000E+00  0.45593999997E+02  0.45594000000E+02  0.51100000000E-03 0.  1.
         11   -1    0    0    0    0 -0.00000000000E+00 -0.00000000000E+00 -0.45593999997E+02  0.45594000000E+02  0.51100000000E-03 0. -1.
    9900012    2    1    2    0    0 -0.56657705060E+01  0.17747713059E+02 -0.18966672450E+01  0.72461558242E+02  0.69999984300E+02 0.  0.
        -12    1    1    2    0    0  0.56657705060E+01 -0.17747713059E+02  0.18966672450E+01  0.18726441758E+02  0.00000000000E+00 0.  1.
         11    1    3    3    0    0  0.14078322505E+02 -0.12658013808E+02  0.99812909075E+00  0.18958394976E+02  0.51100000000E-03 0. -1.
        -11    1    3    3    0    0 -0.30321818330E+02  0.26337381286E+02  0.37965539151E+01  0.40342088961E+02  0.51100000000E-03 0.  1.
        -12    1    3    3    0    0  0.10577725319E+02  0.40683455812E+01 -0.66913502508E+01  0.13161074306E+02  0.00000000000E+00 0.  1.
</event>
<event>
 7    1  0.1884848E-013  0.7246153E+02  0.7816164E-02  0.1226708E+00
        -11   -1    0    0    0    0  0.00000000000E+00  0.00000000000E+00  0.45593999997E+02  0.45594000000E+02  0.51100000000E-03 0.  1.
         11   -1    0    0    0    0 -0.00000000000E+00 -0.00000000000E+00 -0.45593999997E+02  0.45594000000E+02  0.51100000000E-03 0. -1.
    9900012    2    1    2    0    0 -0.15301276955E+02 -0.99203494576E+01 -0.42589225762E+01  0.72461525924E+02  0.69999942200E+02 0.  0.
        -12    1    1    2    0    0  0.15301276955E+02  0.99203494576E+01  0.42589225762E+01  0.18726474076E+02  0.00000000000E+00 0.  1.
         11    1    3    3    0    0 -0.15238869798E+02  0.68607879149E+01 -0.21931973737E+02  0.27573629355E+02  0.51100000000E-03 0. -1.
        -11    1    3    3    0    0 -0.18258004383E+02 -0.88569117100E+01  0.14130586287E+02  0.24727981684E+02  0.51100000000E-03 0.  1.
         12    1    3    3    0    0  0.18195597227E+02 -0.79242256624E+01  0.35424648738E+01  0.20159914885E+02  0.00000000000E+00 0. -1.
</event>
<event>
 7    1  0.1884848E-013  0.7246158E+02  0.7816164E-02  0.1226708E+00
        -11   -1    0    0    0    0  0.00000000000E+00  0.00000000000E+00  0.45593999997E+02  0.45594000000E+02  0.51100000000E-03 0.  1.
         11   -1    0    0    0    0 -0.00000000000E+00 -0.00000000000E+00 -0.45593999997E+02  0.45594000000E+02  0.51100000000E-03 0. -1.
    9900012    2    1    2    0    0 -0.16166868076E+02  0.34082439064E+01  0.88144734535E+01  0.72461583040E+02  0.70000016603E+02 0.  0.
        -12    1    1    2    0    0  0.16166868076E+02 -0.34082439064E+01 -0.88144734535E+01  0.18726416960E+02  0.00000000000E+00 0.  1.
         11    1    3    3    0    0  0.37011010191E+01  0.19230557309E+02  0.21211278577E+02  0.28869201969E+02  0.51100000000E-03 0. -1.
        -11    1    3    3    0    0 -0.21963542991E+02 -0.60247627681E+01  0.51836762313E+01  0.23357343313E+02  0.51100000000E-03 0.  1.
         12    1    3    3    0    0  0.20955738956E+01 -0.97975506348E+01 -0.17580481355E+02  0.20235037758E+02  0.00000000000E+00 0. -1.
</event>
<event>
 7    1  0.1884848E-013  0.7246164E+02  0.7816164E-02  0.1226708E+00
        -11   -1    0    0    0    0  0.00000000000E+00  0.00000000000E+00  0.45593999997E+02  0.45594000000E+02  0.51100000000E-03 0.  1.
         11   -1    0    0    0    0 -0.00000000000E+00 -0.00000000000E+00 -0.45593999997E+02  0.45594000000E+02  0.51100000000E-03 0. -1.
    9900012    2    1    2    0    0  0.12177781980E+02  0.66681903801E+01  0.12566364383E+02  0.72461637547E+02  0.70000087609E+02 0.  0.
        -12    1    1    2    0    0 -0.12177781980E+02 -0.66681903801E+01 -0.12566364383E+02  0.18726362453E+02  0.00000000000E+00 0.  1.
         11    1    3    3    0    0 -0.42479378793E+01 -0.17746576756E+02 -0.57064727927E+00  0.18256823419E+02  0.51100000000E-03 0. -1.
        -11    1    3    3    0    0  0.10250009310E+02  0.18492815419E+02 -0.14259983136E+02  0.25502824006E+02  0.51100000000E-03 0.  1.
        -12    1    3    3    0    0  0.61757105499E+01  0.59219517176E+01  0.27396994799E+02  0.28701990122E+02  0.00000000000E+00 0.  1.
</event>
<event>
 7    1  0.1884848E-013  0.7246157E+02  0.7816164E-02  0.1226708E+00
        -11   -1    0    0    0    0  0.00000000000E+00  0.00000000000E+00  0.45593999997E+02  0.45594000000E+02  0.51100000000E-03 0.  1.
         11   -1    0    0    0    0 -0.00000000000E+00 -0.00000000000E+00 -0.45593999997E+02  0.45594000000E+02  0.51100000000E-03 0. -1.
    9900012    2    1    2    0    0  0.17890453767E+02 -0.51661260811E+01 -0.19803828972E+01  0.72461571854E+02  0.70000002032E+02 0.  0.
        -12    1    1    2    0    0 -0.17890453767E+02  0.51661260811E+01  0.19803828972E+01  0.18726428146E+02  0.00000000000E+00 0.  1.
         11    1    3    3    0    0  0.12198704932E+02 -0.13350020748E+02  0.23907909643E+02  0.29976984500E+02  0.51100000000E-03 0.  1.
        -11    1    3    3    0    0  0.13550879954E+02 -0.70508973224E+01 -0.18017854400E+02  0.23621697188E+02  0.51100000000E-03 0. -1.
         12    1    3    3    0    0 -0.78591311182E+01  0.15234791990E+02 -0.78704381395E+01  0.18862890166E+02  0.00000000000E+00 0. -1.
</event>
<event>
 7    1  0.1884848E-013  0.7246156E+02  0.7816164E-02  0.1226708E+00
        -11   -1    0    0    0    0  0.00000000000E+00  0.00000000000E+00  0.45593999997E+02  0.45594000000E+02  0.51100000000E-03 0.  1.
         11   -1    0    0    0    0 -0.00000000000E+00 -0.00000000000E+00 -0.45593999997E+02  0.45594000000E+02  0.51100000000E-03 0. -1.
    9900012    2    1    2    0    0 -0.12566489305E+02 -0.79110082635E+01 -0.11409595601E+02  0.72461559415E+02  0.69999985828E+02 0.  0.
        -12    1    1    2    0    0  0.12566489305E+02  0.79110082635E+01  0.11409595601E+02  0.18726440585E+02  0.00000000000E+00 0.  1.
         11    1    3    3    0    0  0.28266437545E+02 -0.14662498608E+01 -0.30970814380E+01  0.28473378686E+02  0.51100000000E-03 0. -1.
        -11    1    3    3    0    0 -0.13707554767E+01  0.23845152967E+01 -0.33234241710E+00  0.27704395898E+01  0.51100000000E-03 0.  1.
         12    1    3    3    0    0 -0.39462171373E+02 -0.88292736995E+01 -0.79801717457E+01  0.41217741139E+02  0.00000000000E+00 0. -1.
</event>
<event>
 7    1  0.1884848E-013  0.7246164E+02  0.7816164E-02  0.1226708E+00
        -11   -1    0    0    0    0  0.00000000000E+00  0.00000000000E+00  0.45593999997E+02  0.45594000000E+02  0.51100000000E-03 0. -1.
         11   -1    0    0    0    0 -0.00000000000E+00 -0.00000000000E+00 -0.45593999997E+02  0.45594000000E+02  0.51100000000E-03 0.  1.
    9900012    2    1    2    0    0  0.17757758051E+02  0.58639146353E+01 -0.97628483067E+00  0.72461638957E+02  0.70000089445E+02 0.  0.
        -12    1    1    2    0    0 -0.17757758051E+02 -0.58639146353E+01  0.97628483067E+00  0.18726361043E+02  0.00000000000E+00 0.  1.
         11    1    3    3    0    0  0.23932087627E+01  0.20110840712E+02  0.26133381870E+02  0.33062471332E+02  0.51100000000E-03 0. -1.
        -11    1    3    3    0    0  0.22216328250E+01 -0.15136724025E+02 -0.12778441511E+02  0.19933505319E+02  0.51100000000E-03 0.  1.
        -12    1    3    3    0    0  0.13142916463E+02  0.88979794753E+00 -0.14331225190E+02  0.19465662306E+02  0.00000000000E+00 0.  1.
</event>
<event>
 7    1  0.1884848E-013  0.7246169E+02  0.7816164E-02  0.1226708E+00
        -11   -1    0    0    0    0  0.00000000000E+00  0.00000000000E+00  0.45593999997E+02  0.45594000000E+02  0.51100000000E-03 0.  1.
         11   -1    0    0    0    0 -0.00000000000E+00 -0.00000000000E+00 -0.45593999997E+02  0.45594000000E+02  0.51100000000E-03 0. -1.
    9900012    2    1    2    0    0  0.50616314992E+01 -0.14351479961E+02 -0.10912810672E+02  0.72461694244E+02  0.70000161467E+02 0.  0.
        -12    1    1    2    0    0 -0.50616314992E+01  0.14351479961E+02  0.10912810672E+02  0.18726305756E+02  0.00000000000E+00 0.  1.
         11    1    3    3    0    0  0.27235361745E+02  0.80650783064E+01 -0.28597552120E+00  0.28405847984E+02  0.51100000000E-03 0. -1.
        -11    1    3    3    0    0 -0.95787557366E+01 -0.27502712185E+02 -0.82223182096E+01  0.30261497914E+02  0.51100000000E-03 0.  1.
         12    1    3    3    0    0 -0.12594974509E+02  0.50861539180E+01 -0.24045169410E+01  0.13794348346E+02  0.00000000000E+00 0. -1.
</event>
<event>
 7    1  0.1884848E-013  0.7246149E+02  0.7816164E-02  0.1226708E+00
        -11   -1    0    0    0    0  0.00000000000E+00  0.00000000000E+00  0.45593999997E+02  0.45594000000E+02  0.51100000000E-03 0.  1.
         11   -1    0    0    0    0 -0.00000000000E+00 -0.00000000000E+00 -0.45593999997E+02  0.45594000000E+02  0.51100000000E-03 0. -1.
    9900012    2    1    2    0    0  0.75578516452E+01 -0.90501080950E+01 -0.14548423820E+02  0.72461489015E+02  0.69999894119E+02 0.  0.
        -12    1    1    2    0    0 -0.75578516452E+01  0.90501080950E+01  0.14548423820E+02  0.18726510985E+02  0.00000000000E+00 0.  1.
         11    1    3    3    0    0  0.83215231770E+01  0.10382705934E+02 -0.23698447026E+02  0.27178387042E+02  0.51100000000E-03 0. -1.
        -11    1    3    3    0    0 -0.16496695657E+02 -0.87169103248E+00  0.12507673788E+02  0.20720586785E+02  0.51100000000E-03 0.  1.
        -12    1    3    3    0    0  0.15733024125E+02 -0.18561122996E+02 -0.33576505822E+01  0.24562515189E+02  0.00000000000E+00 0.  1.
</event>
<event>
 7    1  0.1884848E-013  0.7246161E+02  0.7816164E-02  0.1226708E+00
        -11   -1    0    0    0    0  0.00000000000E+00  0.00000000000E+00  0.45593999997E+02  0.45594000000E+02  0.51100000000E-03 0. -1.
         11   -1    0    0    0    0 -0.00000000000E+00 -0.00000000000E+00 -0.45593999997E+02  0.45594000000E+02  0.51100000000E-03 0.  1.
    9900012    2    1    2    0    0 -0.16601268964E+02  0.33519617766E+01  0.79899957615E+01  0.72461606561E+02  0.70000047244E+02 0.  0.
        -12    1    1    2    0    0  0.16601268964E+02 -0.33519617766E+01 -0.79899957615E+01  0.18726393439E+02  0.00000000000E+00 0.  1.
         11    1    3    3    0    0  0.50217353852E+01  0.13795552151E+02  0.26593504971E+02  0.30376793648E+02  0.51100000000E-03 0. -1.
        -11    1    3    3    0    0 -0.19959932100E+02  0.39086861223E+01 -0.18710365018E+02  0.27636108192E+02  0.51100000000E-03 0.  1.
         12    1    3    3    0    0 -0.16630722496E+01 -0.14352276497E+02  0.10685580919E+00  0.14448704721E+02  0.00000000000E+00 0. -1.
</event>
<event>
 7    1  0.1884848E-013  0.7246157E+02  0.7816164E-02  0.1226708E+00
        -11   -1    0    0    0    0  0.00000000000E+00  0.00000000000E+00  0.45593999997E+02  0.45594000000E+02  0.51100000000E-03 0.  1.
         11   -1    0    0    0    0 -0.00000000000E+00 -0.00000000000E+00 -0.45593999997E+02  0.45594000000E+02  0.51100000000E-03 0. -1.
    9900012    2    1    2    0    0  0.97337113713E+01  0.61001402138E+01 -0.14789259756E+02  0.72461573437E+02  0.70000004094E+02 0.  0.
        -12    1    1    2    0    0 -0.97337113713E+01 -0.61001402138E+01  0.14789259756E+02  0.18726426563E+02  0.00000000000E+00 0.  1.
         11    1    3    3    0    0  0.34072794910E+01  0.33965845213E+02  0.35894794237E+01  0.34324518312E+02  0.51100000000E-03 0. -1.
        -11    1    3    3    0    0 -0.16646562628E+01 -0.24648313232E+02 -0.14876782639E+02  0.28837979950E+02  0.51100000000E-03 0.  1.
         12    1    3    3    0    0  0.79910881431E+01 -0.32173917670E+01 -0.35019565406E+01  0.92990751747E+01  0.00000000000E+00 0. -1.
</event>
<event>
 7    1  0.1884848E-013  0.7246159E+02  0.7816164E-02  0.1226708E+00
        -11   -1    0    0    0    0  0.00000000000E+00  0.00000000000E+00  0.45593999997E+02  0.45594000000E+02  0.51100000000E-03 0.  1.
         11   -1    0    0    0    0 -0.00000000000E+00 -0.00000000000E+00 -0.45593999997E+02  0.45594000000E+02  0.51100000000E-03 0. -1.
    9900012    2    1    2    0    0 -0.17728847633E+02 -0.22798692946E+01  0.55828897426E+01  0.72461588164E+02  0.70000023278E+02 0.  0.
        -12    1    1    2    0    0  0.17728847633E+02  0.22798692946E+01 -0.55828897426E+01  0.18726411836E+02  0.00000000000E+00 0.  1.
         11    1    3    3    0    0 -0.13270760830E+01  0.26611092359E+02  0.80094035564E+01  0.27821968174E+02  0.51100000000E-03 0. -1.
        -11    1    3    3    0    0  0.25388515949E+01 -0.15938160535E+02 -0.11654769108E+02  0.19907394904E+02  0.51100000000E-03 0.  1.
         12    1    3    3    0    0 -0.18940623144E+02 -0.12952801119E+02  0.92282552942E+01  0.24732225086E+02  0.00000000000E+00 0. -1.
</event>
<event>
 7    1  0.1884848E-013  0.7246158E+02  0.7816164E-02  0.1226708E+00
        -11   -1    0    0    0    0  0.00000000000E+00  0.00000000000E+00  0.45593999997E+02  0.45594000000E+02  0.51100000000E-03 0. -1.
         11   -1    0    0    0    0 -0.00000000000E+00 -0.00000000000E+00 -0.45593999997E+02  0.45594000000E+02  0.51100000000E-03 0.  1.
    9900012    2    1    2    0    0  0.17647427522E+02 -0.38125796696E+00  0.62531480317E+01  0.72461577061E+02  0.70000008815E+02 0.  0.
        -12    1    1    2    0    0 -0.17647427522E+02  0.38125796696E+00 -0.62531480317E+01  0.18726422939E+02  0.00000000000E+00 0.  1.
         11    1    3    3    0    0 -0.25831464520E+02 -0.24462250400E+01  0.20308962429E+01  0.26026392681E+02  0.51100000000E-03 0. -1.
        -11    1    3    3    0    0  0.59155883280E+01 -0.33652388877E+01 -0.35766841776E+01  0.76884125804E+01  0.51100000000E-03 0.  1.
         12    1    3    3    0    0  0.37563303714E+02  0.54302059608E+01  0.77989359664E+01  0.38746771799E+02  0.00000000000E+00 0. -1.
</event>
<event>
 7    1  0.1884848E-013  0.7246164E+02  0.7816164E-02  0.1226708E+00
        -11   -1    0    0    0    0  0.00000000000E+00  0.00000000000E+00  0.45593999997E+02  0.45594000000E+02  0.51100000000E-03 0.  1.
         11   -1    0    0    0    0 -0.00000000000E+00 -0.00000000000E+00 -0.45593999997E+02  0.45594000000E+02  0.51100000000E-03 0. -1.
    9900012    2    1    2    0    0  0.16075463758E+02  0.32528880639E+01 -0.90374061486E+01  0.72461640886E+02  0.70000091959E+02 0.  0.
        -12    1    1    2    0    0 -0.16075463758E+02 -0.32528880639E+01  0.90374061486E+01  0.18726359114E+02  0.00000000000E+00 0.  1.
         11    1    3    3    0    0 -0.16380888378E+02  0.11503828538E+02 -0.18658387333E+02  0.27364337983E+02  0.51100000000E-03 0. -1.
        -11    1    3    3    0    0  0.20117779770E+02 -0.37255346474E+01  0.19801713580E+02  0.28473014106E+02  0.51100000000E-03 0.  1.
        -12    1    3    3    0    0  0.12338572366E+02 -0.45254058267E+01 -0.10180732395E+02  0.16624288797E+02  0.00000000000E+00 0.  1.
</event>
<event>
 7    1  0.1884848E-013  0.7246155E+02  0.7816164E-02  0.1226708E+00
        -11   -1    0    0    0    0  0.00000000000E+00  0.00000000000E+00  0.45593999997E+02  0.45594000000E+02  0.51100000000E-03 0.  1.
         11   -1    0    0    0    0 -0.00000000000E+00 -0.00000000000E+00 -0.45593999997E+02  0.45594000000E+02  0.51100000000E-03 0. -1.
    9900012    2    1    2    0    0  0.14726709696E+02  0.19419389940E+01 -0.11403193004E+02  0.72461550358E+02  0.69999974029E+02 0.  0.
        -12    1    1    2    0    0 -0.14726709696E+02 -0.19419389940E+01  0.11403193004E+02  0.18726449642E+02  0.00000000000E+00 0.  1.
         11    1    3    3    0    0 -0.69351506631E+01  0.80320396486E+01 -0.16082927082E+02  0.19268381339E+02  0.51100000000E-03 0. -1.
        -11    1    3    3    0    0 -0.84714780626E+01 -0.75523504329E+00  0.17930653132E+02  0.19845519457E+02  0.51100000000E-03 0.  1.
         12    1    3    3    0    0  0.30133338422E+02 -0.53348656113E+01 -0.13250919054E+02  0.33347649562E+02  0.00000000000E+00 0. -1.
</event>
<event>
 7    1  0.1884848E-013  0.7246161E+02  0.7816164E-02  0.1226708E+00
        -11   -1    0    0    0    0  0.00000000000E+00  0.00000000000E+00  0.45593999997E+02  0.45594000000E+02  0.51100000000E-03 0.  1.
         11   -1    0    0    0    0 -0.00000000000E+00 -0.00000000000E+00 -0.45593999997E+02  0.45594000000E+02  0.51100000000E-03 0. -1.
    9900012    2    1    2    0    0  0.74977319738E+01 -0.15799472539E+02 -0.66961501227E+01  0.72461608364E+02  0.70000049592E+02 0.  0.
        -12    1    1    2    0    0 -0.74977319738E+01  0.15799472539E+02  0.66961501227E+01  0.18726391636E+02  0.00000000000E+00 0.  1.
         11    1    3    3    0    0 -0.11570407032E+02 -0.64790834146E+01  0.20948417078E+02  0.24792922763E+02  0.51100000000E-03 0. -1.
        -11    1    3    3    0    0  0.50842056886E+01 -0.36596571877E+01 -0.31484322430E+02  0.32101476560E+02  0.51100000000E-03 0.  1.
        -12    1    3    3    0    0  0.13983933317E+02 -0.56607319364E+01  0.38397552292E+01  0.15567209040E+02  0.00000000000E+00 0.  1.
</event>
<event>
 7    1  0.1884848E-013  0.7246149E+02  0.7816164E-02  0.1226708E+00
        -11   -1    0    0    0    0  0.00000000000E+00  0.00000000000E+00  0.45593999997E+02  0.45594000000E+02  0.51100000000E-03 0. -1.
         11   -1    0    0    0    0 -0.00000000000E+00 -0.00000000000E+00 -0.45593999997E+02  0.45594000000E+02  0.51100000000E-03 0.  1.
    9900012    2    1    2    0    0  0.43536971442E+01 -0.99447408444E+01  0.15258756085E+02  0.72461489739E+02  0.69999895062E+02 0.  0.
        -12    1    1    2    0    0 -0.43536971442E+01  0.99447408444E+01 -0.15258756085E+02  0.18726510261E+02  0.00000000000E+00 0.  1.
         11    1    3    3    0    0  0.11956303077E+02 -0.34910440824E+02  0.37136057936E+01  0.37087503691E+02  0.51100000000E-03 0. -1.
        -11    1    3    3    0    0  0.36679723954E+01  0.20877422994E+02  0.94280813585E+01  0.23199343326E+02  0.51100000000E-03 0.  1.
        -12    1    3    3    0    0 -0.11270578328E+02  0.40882769854E+01  0.21170689326E+01  0.12174642723E+02  0.00000000000E+00 0.  1.
</event>
<event>
 7    1  0.1884848E-013  0.7246155E+02  0.7816164E-02  0.1226708E+00
        -11   -1    0    0    0    0  0.00000000000E+00  0.00000000000E+00  0.45593999997E+02  0.45594000000E+02  0.51100000000E-03 0. -1.
         11   -1    0    0    0    0 -0.00000000000E+00 -0.00000000000E+00 -0.45593999997E+02  0.45594000000E+02  0.51100000000E-03 0.  1.
    9900012    2    1    2    0    0 -0.65591174640E+01 -0.16648750029E+02  0.55205846886E+01  0.72461554669E+02  0.69999979645E+02 0.  0.
        -12    1    1    2    0    0  0.65591174640E+01  0.16648750029E+02 -0.55205846886E+01  0.18726445331E+02  0.00000000000E+00 0.  1.
         11    1    3    3    0    0 -0.21706394569E+02 -0.69608396477E+01 -0.21548495575E+02  0.31368113038E+02  0.51100000000E-03 0. -1.
        -11    1    3    3    0    0  0.79337456754E+01  0.17062343894E+01  0.26369210726E+02  0.27589687037E+02  0.51100000000E-03 0.  1.
        -12    1    3    3    0    0  0.72135314297E+01 -0.11394144771E+02  0.69986953762E+00  0.13503754593E+02  0.00000000000E+00 0.  1.
</event>
<event>
 7    1  0.1884848E-013  0.7246162E+02  0.7816164E-02  0.1226708E+00
        -11   -1    0    0    0    0  0.00000000000E+00  0.00000000000E+00  0.45593999997E+02  0.45594000000E+02  0.51100000000E-03 0. -1.
         11   -1    0    0    0    0 -0.00000000000E+00 -0.00000000000E+00 -0.45593999997E+02  0.45594000000E+02  0.51100000000E-03 0.  1.
    9900012    2    1    2    0    0  0.35038134433E+00 -0.12112064069E+02 -0.14277684715E+02  0.72461624378E+02  0.70000070454E+02 0.  0.
        -12    1    1    2    0    0 -0.35038134433E+00  0.12112064069E+02  0.14277684715E+02  0.18726375622E+02  0.00000000000E+00 0.  1.
         11    1    3    3    0    0 -0.62722969174E+01  0.26579168291E+00  0.27558183103E+02  0.28264214300E+02  0.51100000000E-03 0. -1.
        -11    1    3    3    0    0  0.45990261232E+01 -0.10354595336E+02 -0.34950462951E+02  0.36741033554E+02  0.51100000000E-03 0.  1.
         12    1    3    3    0    0  0.20236521385E+01 -0.20232604154E+01 -0.68854048668E+01  0.74563765239E+01  0.00000000000E+00 0. -1.
</event>
<event>
 7    1  0.1884848E-013  0.7246156E+02  0.7816164E-02  0.1226708E+00
        -11   -1    0    0    0    0  0.00000000000E+00  0.00000000000E+00  0.45593999997E+02  0.45594000000E+02  0.51100000000E-03 0.  1.
         11   -1    0    0    0    0 -0.00000000000E+00 -0.00000000000E+00 -0.45593999997E+02  0.45594000000E+02  0.51100000000E-03 0. -1.
    9900012    2    1    2    0    0  0.12074090581E+02  0.86091102568E+01 -0.11435862087E+02  0.72461564556E+02  0.69999992525E+02 0.  0.
        -12    1    1    2    0    0 -0.12074090581E+02 -0.86091102568E+01  0.11435862087E+02  0.18726435444E+02  0.00000000000E+00 0.  1.
         11    1    3    3    0    0 -0.12477824403E+02 -0.11496441209E+02 -0.12288827887E+02  0.20949452341E+02  0.51100000000E-03 0. -1.
        -11    1    3    3    0    0  0.44200326756E+01  0.10621345094E+02  0.19391974964E+02  0.22547690651E+02  0.51100000000E-03 0.  1.
         12    1    3    3    0    0  0.20131882308E+02  0.94842063719E+01 -0.18539009164E+02  0.28964421564E+02  0.00000000000E+00 0. -1.
</event>
<event>
 7    1  0.1884848E-013  0.7246158E+02  0.7816164E-02  0.1226708E+00
        -11   -1    0    0    0    0  0.00000000000E+00  0.00000000000E+00  0.45593999997E+02  0.45594000000E+02  0.51100000000E-03 0.  1.
         11   -1    0    0    0    0 -0.00000000000E+00 -0.00000000000E+00 -0.45593999997E+02  0.45594000000E+02  0.51100000000E-03 0. -1.
    9900012    2    1    2    0    0 -0.94485976457E+00  0.17889563660E+02  0.54543107212E+01  0.72461581406E+02  0.70000014475E+02 0.  0.
        -12    1    1    2    0    0  0.94485976457E+00 -0.17889563660E+02 -0.54543107212E+01  0.18726418594E+02  0.00000000000E+00 0.  1.
         11    1    3    3    0    0  0.23567433615E+02 -0.18231098670E+01 -0.13287808052E+02  0.27116664615E+02  0.51100000000E-03 0.  1.
        -11    1    3    3    0    0 -0.13932930944E+02  0.25581952353E+02  0.12100530544E+02  0.31543393771E+02  0.51100000000E-03 0. -1.
        -12    1    3    3    0    0 -0.10579362435E+02 -0.58692788257E+01  0.66415882283E+01  0.13801523020E+02  0.00000000000E+00 0.  1.
</event>
<event>
 7    1  0.1884848E-013  0.7246152E+02  0.7816164E-02  0.1226708E+00
        -11   -1    0    0    0    0  0.00000000000E+00  0.00000000000E+00  0.45593999997E+02  0.45594000000E+02  0.51100000000E-03 0.  1.
         11   -1    0    0    0    0 -0.00000000000E+00 -0.00000000000E+00 -0.45593999997E+02  0.45594000000E+02  0.51100000000E-03 0. -1.
    9900012    2    1    2    0    0  0.13681572274E+02 -0.11841293863E+02  0.48248566989E+01  0.72461524026E+02  0.69999939727E+02 0.  0.
        -12    1    1    2    0    0 -0.13681572274E+02  0.11841293863E+02 -0.48248566989E+01  0.18726475974E+02  0.00000000000E+00 0.  1.
         11    1    3    3    0    0  0.11587378321E+02  0.35216296126E+01 -0.34564784059E+01  0.12594302470E+02  0.51100000000E-03 0. -1.
        -11    1    3    3    0    0 -0.26922233832E+02 -0.13261349424E+01  0.55337852940E+01  0.27517050865E+02  0.51100000000E-03 0.  1.
        -12    1    3    3    0    0  0.29016427786E+02 -0.14036788533E+02  0.27475498108E+01  0.32350170691E+02  0.00000000000E+00 0.  1.
</event>
<event>
 7    1  0.1884848E-013  0.7246158E+02  0.7816164E-02  0.1226708E+00
        -11   -1    0    0    0    0  0.00000000000E+00  0.00000000000E+00  0.45593999997E+02  0.45594000000E+02  0.51100000000E-03 0. -1.
         11   -1    0    0    0    0 -0.00000000000E+00 -0.00000000000E+00 -0.45593999997E+02  0.45594000000E+02  0.51100000000E-03 0.  1.
    9900012    2    1    2    0    0 -0.18188044555E+02 -0.36875895596E+01  0.25050680262E+01  0.72461584237E+02  0.70000018163E+02 0.  0.
        -12    1    1    2    0    0  0.18188044555E+02  0.36875895596E+01 -0.25050680262E+01  0.18726415763E+02  0.00000000000E+00 0.  1.
         11    1    3    3    0    0 -0.17695426996E+02  0.20561925186E+02 -0.62119897634E-01  0.27127933262E+02  0.51100000000E-03 0. -1.
        -11    1    3    3    0    0 -0.17113322720E+02 -0.12858939880E+02 -0.76627229571E+01  0.22736215005E+02  0.51100000000E-03 0.  1.
         12    1    3    3    0    0  0.16620705160E+02 -0.11390574866E+02  0.10229910881E+02  0.22597435970E+02  0.00000000000E+00 0. -1.
</event>
<event>
 7    1  0.1884848E-013  0.7246157E+02  0.7816164E-02  0.1226708E+00
        -11   -1    0    0    0    0  0.00000000000E+00  0.00000000000E+00  0.45593999997E+02  0.45594000000E+02  0.51100000000E-03 0.  1.
         11   -1    0    0    0    0 -0.00000000000E+00 -0.00000000000E+00 -0.45593999997E+02  0.45594000000E+02  0.51100000000E-03 0. -1.
    9900012    2    1    2    0    0 -0.13240521978E+01  0.16407933854E+02 -0.89278031350E+01  0.72461572781E+02  0.70000003240E+02 0.  0.
        -12    1    1    2    0    0  0.13240521978E+01 -0.16407933854E+02  0.89278031350E+01  0.18726427219E+02  0.00000000000E+00 0.  1.
         11    1    3    3    0    0  0.86853433478E+01 -0.19560141810E+02 -0.91897371714E+01  0.23291320406E+02  0.51100000000E-03 0. -1.
        -11    1    3    3    0    0 -0.20752238619E+02  0.15062532933E+02  0.88522039114E+00  0.25657726351E+02  0.51100000000E-03 0.  1.
         12    1    3    3    0    0  0.10742843074E+02  0.20905542731E+02 -0.62328635471E+00  0.23512526025E+02  0.00000000000E+00 0. -1.
</event>
<event>
 7    1  0.1884848E-013  0.7246160E+02  0.7816164E-02  0.1226708E+00
        -11   -1    0    0    0    0  0.00000000000E+00  0.00000000000E+00  0.45593999997E+02  0.45594000000E+02  0.51100000000E-03 0.  1.
         11   -1    0    0    0    0 -0.00000000000E+00 -0.00000000000E+00 -0.45593999997E+02  0.45594000000E+02  0.51100000000E-03 0. -1.
    9900012    2    1    2    0    0  0.11143532115E+02  0.14608504372E+02  0.36181916025E+01  0.72461601028E+02  0.70000040036E+02 0.  0.
        -12    1    1    2    0    0 -0.11143532115E+02 -0.14608504372E+02 -0.36181916025E+01  0.18726398972E+02  0.00000000000E+00 0.  1.
         11    1    3    3    0    0  0.13796362115E+02 -0.52070212359E+01 -0.24057301856E+02  0.28217130446E+02  0.51100000000E-03 0. -1.
        -11    1    3    3    0    0 -0.12615561522E+02  0.81205603481E+00  0.13680838192E+02  0.18627322980E+02  0.51100000000E-03 0.  1.
         12    1    3    3    0    0  0.99627315215E+01  0.19003469574E+02  0.13994655266E+02  0.25617147601E+02  0.00000000000E+00 0. -1.
</event>
<event>
 7    1  0.1884848E-013  0.7246151E+02  0.7816164E-02  0.1226708E+00
        -11   -1    0    0    0    0  0.00000000000E+00  0.00000000000E+00  0.45593999997E+02  0.45594000000E+02  0.51100000000E-03 0.  1.
         11   -1    0    0    0    0 -0.00000000000E+00 -0.00000000000E+00 -0.45593999997E+02  0.45594000000E+02  0.51100000000E-03 0. -1.
    9900012    2    1    2    0    0  0.16476997162E+02  0.84992571024E+01  0.26367692030E+01  0.72461511846E+02  0.69999923860E+02 0.  0.
        -12    1    1    2    0    0 -0.16476997162E+02 -0.84992571024E+01 -0.26367692030E+01  0.18726488154E+02  0.00000000000E+00 0.  1.
         11    1    3    3    0    0 -0.22459793892E+02  0.22008842228E+01  0.13824036866E+02  0.26464886710E+02  0.51100000000E-03 0. -1.
        -11    1    3    3    0    0  0.20353151096E+02  0.13151459748E+02 -0.98066801314E+01  0.26141588102E+02  0.51100000000E-03 0.  1.
         12    1    3    3    0    0  0.18583639957E+02 -0.68530868684E+01 -0.13805875315E+01  0.19855037034E+02  0.00000000000E+00 0. -1.
</event>
<event>
 7    1  0.1884848E-013  0.7246164E+02  0.7816164E-02  0.1226708E+00
        -11   -1    0    0    0    0  0.00000000000E+00  0.00000000000E+00  0.45593999997E+02  0.45594000000E+02  0.51100000000E-03 0. -1.
         11   -1    0    0    0    0 -0.00000000000E+00 -0.00000000000E+00 -0.45593999997E+02  0.45594000000E+02  0.51100000000E-03 0.  1.
    9900012    2    1    2    0    0  0.16313797699E+02  0.77433303066E+01  0.49575721392E+01  0.72461636735E+02  0.70000086551E+02 0.  0.
        -12    1    1    2    0    0 -0.16313797699E+02 -0.77433303066E+01 -0.49575721392E+01  0.18726363265E+02  0.00000000000E+00 0.  1.
         11    1    3    3    0    0 -0.23356178411E+01  0.18072660390E+02 -0.20060088663E+02  0.27101352765E+02  0.51100000000E-03 0. -1.
        -11    1    3    3    0    0  0.96604186430E+01 -0.10486174845E+01  0.29983333242E+02  0.31518622424E+02  0.51100000000E-03 0.  1.
        -12    1    3    3    0    0  0.89889968976E+01 -0.92807125990E+01 -0.49656724399E+01  0.13841661546E+02  0.00000000000E+00 0.  1.
</event>
<event>
 7    1  0.1884848E-013  0.7246161E+02  0.7816164E-02  0.1226708E+00
        -11   -1    0    0    0    0  0.00000000000E+00  0.00000000000E+00  0.45593999997E+02  0.45594000000E+02  0.51100000000E-03 0.  1.
         11   -1    0    0    0    0 -0.00000000000E+00 -0.00000000000E+00 -0.45593999997E+02  0.45594000000E+02  0.51100000000E-03 0. -1.
    9900012    2    1    2    0    0  0.35240946222E+01 -0.15494288295E+02 -0.99088592867E+01  0.72461609397E+02  0.70000050938E+02 0.  0.
        -12    1    1    2    0    0 -0.35240946222E+01  0.15494288295E+02  0.99088592867E+01  0.18726390603E+02  0.00000000000E+00 0.  1.
         11    1    3    3    0    0 -0.35398046202E+01  0.22071829360E+02 -0.31447623766E+01  0.22573998288E+02  0.51100000000E-03 0. -1.
        -11    1    3    3    0    0  0.15029816772E+02 -0.28799996415E+02  0.53744670450E+01  0.32927497354E+02  0.51100000000E-03 0.  1.
         12    1    3    3    0    0 -0.79659175298E+01 -0.87661212395E+01 -0.12138563955E+02  0.16960113755E+02  0.00000000000E+00 0. -1.
</event>
<event>
 7    1  0.1884848E-013  0.7246155E+02  0.7816164E-02  0.1226708E+00
        -11   -1    0    0    0    0  0.00000000000E+00  0.00000000000E+00  0.45593999997E+02  0.45594000000E+02  0.51100000000E-03 0. -1.
         11   -1    0    0    0    0 -0.00000000000E+00 -0.00000000000E+00 -0.45593999997E+02  0.45594000000E+02  0.51100000000E-03 0.  1.
    9900012    2    1    2    0    0  0.11851926901E+02 -0.70379750080E+01  0.12675912503E+02  0.72461547553E+02  0.69999970375E+02 0.  0.
        -12    1    1    2    0    0 -0.11851926901E+02  0.70379750080E+01 -0.12675912503E+02  0.18726452447E+02  0.00000000000E+00 0.  1.
         11    1    3    3    0    0 -0.17366667566E+02 -0.15978391239E+02 -0.43437194978E+01  0.23995375143E+02  0.51100000000E-03 0. -1.
        -11    1    3    3    0    0  0.24147101996E+02  0.58243702778E+00 -0.47367659881E+01  0.24614197529E+02  0.51100000000E-03 0.  1.
         12    1    3    3    0    0  0.50714924699E+01  0.83579792031E+01  0.21756397989E+02  0.23851974880E+02  0.00000000000E+00 0. -1.
</event>
<event>
 7    1  0.1884848E-013  0.7246156E+02  0.7816164E-02  0.1226708E+00
        -11   -1    0    0    0    0  0.00000000000E+00  0.00000000000E+00  0.45593999997E+02  0.45594000000E+02  0.51100000000E-03 0.  1.
         11   -1    0    0    0    0 -0.00000000000E+00 -0.00000000000E+00 -0.45593999997E+02  0.45594000000E+02  0.51100000000E-03 0. -1.
    9900012    2    1    2    0    0  0.11993994590E+02 -0.10531424004E+02 -0.97935128694E+01  0.72461556341E+02  0.69999981824E+02 0.  0.
        -12    1    1    2    0    0 -0.11993994590E+02  0.10531424004E+02  0.97935128694E+01  0.18726443659E+02  0.00000000000E+00 0.  1.
         11    1    3    3    0    0 -0.72376218612E+01  0.33154871841E+01 -0.34694593512E+02  0.35596213910E+02  0.51100000000E-03 0. -1.
        -11    1    3    3    0    0  0.15881141072E+02 -0.72055287203E+01  0.23551341005E+02  0.29305220512E+02  0.51100000000E-03 0.  1.
         12    1    3    3    0    0  0.33504753797E+01 -0.66413824675E+01  0.13497396377E+01  0.75601219196E+01  0.00000000000E+00 0. -1.
</event>
<event>
 7    1  0.1884848E-013  0.7246156E+02  0.7816164E-02  0.1226708E+00
        -11   -1    0    0    0    0  0.00000000000E+00  0.00000000000E+00  0.45593999997E+02  0.45594000000E+02  0.51100000000E-03 0. -1.
         11   -1    0    0    0    0 -0.00000000000E+00 -0.00000000000E+00 -0.45593999997E+02  0.45594000000E+02  0.51100000000E-03 0.  1.
    9900012    2    1    2    0    0  0.11027634290E+02  0.14584875178E+02 -0.40438062941E+01  0.72461556896E+02  0.69999982546E+02 0.  0.
        -12    1    1    2    0    0 -0.11027634290E+02 -0.14584875178E+02  0.40438062941E+01  0.18726443104E+02  0.00000000000E+00 0.  1.
         11    1    3    3    0    0  0.35665588593E+02  0.17854001403E+02 -0.17303311003E+02  0.43476478097E+02  0.51100000000E-03 0. -1.
        -11    1    3    3    0    0 -0.53228748451E+01 -0.36141419939E+01  0.27958380892E+01  0.70151072587E+01  0.51100000000E-03 0.  1.
         12    1    3    3    0    0 -0.19315079458E+02  0.34501576864E+00  0.10463666620E+02  0.21969971540E+02  0.00000000000E+00 0. -1.
</event>
<event>
 7    1  0.1884848E-013  0.7246156E+02  0.7816164E-02  0.1226708E+00
        -11   -1    0    0    0    0  0.00000000000E+00  0.00000000000E+00  0.45593999997E+02  0.45594000000E+02  0.51100000000E-03 0. -1.
         11   -1    0    0    0    0 -0.00000000000E+00 -0.00000000000E+00 -0.45593999997E+02  0.45594000000E+02  0.51100000000E-03 0.  1.
    9900012    2    1    2    0    0 -0.47744718019E+01  0.93665670074E+01  0.15496816949E+02  0.72461561630E+02  0.69999988713E+02 0.  0.
        -12    1    1    2    0    0  0.47744718019E+01 -0.93665670074E+01 -0.15496816949E+02  0.18726438370E+02  0.00000000000E+00 0.  1.
         11    1    3    3    0    0  0.95164342852E-01  0.42177652571E+01  0.29705513689E+02  0.30003602180E+02  0.51100000000E-03 0. -1.
        -11    1    3    3    0    0 -0.20371685631E+01  0.22118886563E+02 -0.43689392362E+01  0.22638083595E+02  0.51100000000E-03 0.  1.
         12    1    3    3    0    0 -0.28324675816E+01 -0.16970084813E+02 -0.98397575038E+01  0.19819875855E+02  0.00000000000E+00 0. -1.
</event>
<event>
 7    1  0.1884848E-013  0.7246157E+02  0.7816164E-02  0.1226708E+00
        -11   -1    0    0    0    0  0.00000000000E+00  0.00000000000E+00  0.45593999997E+02  0.45594000000E+02  0.51100000000E-03 0.  1.
         11   -1    0    0    0    0 -0.00000000000E+00 -0.00000000000E+00 -0.45593999997E+02  0.45594000000E+02  0.51100000000E-03 0. -1.
    9900012    2    1    2    0    0  0.11124229606E+02 -0.84318563577E+01 -0.12483367178E+02  0.72461571027E+02  0.70000000954E+02 0.  0.
        -12    1    1    2    0    0 -0.11124229606E+02  0.84318563577E+01  0.12483367178E+02  0.18726428973E+02  0.00000000000E+00 0.  1.
         11    1    3    3    0    0 -0.20670741460E+01 -0.73455875926E+01 -0.64870973620E+01  0.10015632034E+02  0.51100000000E-03 0. -1.
        -11    1    3    3    0    0 -0.12321139678E+02  0.22863599421E+02  0.34511034306E+01  0.26200472832E+02  0.51100000000E-03 0.  1.
        -12    1    3    3    0    0  0.25512443431E+02 -0.23949868186E+02 -0.94473732470E+01  0.36245466161E+02  0.00000000000E+00 0.  1.
</event>
<event>
 7    1  0.1884848E-013  0.7246147E+02  0.7816164E-02  0.1226708E+00
        -11   -1    0    0    0    0  0.00000000000E+00  0.00000000000E+00  0.45593999997E+02  0.45594000000E+02  0.51100000000E-03 0.  1.
         11   -1    0    0    0    0 -0.00000000000E+00 -0.00000000000E+00 -0.45593999997E+02  0.45594000000E+02  0.51100000000E-03 0. -1.
    9900012    2    1    2    0    0  0.91622128411E+01 -0.14126402194E+01 -0.16270871339E+02  0.72461469337E+02  0.69999868484E+02 0.  0.
        -12    1    1    2    0    0 -0.91622128411E+01  0.14126402194E+01  0.16270871339E+02  0.18726530663E+02  0.00000000000E+00 0.  1.
         11    1    3    3    0    0 -0.18588275464E+02  0.83320986342E+01 -0.94446754145E+01  0.22453279189E+02  0.51100000000E-03 0. -1.
        -11    1    3    3    0    0  0.27012571312E+02  0.89429046481E+01  0.34598114511E+01  0.28663999162E+02  0.51100000000E-03 0.  1.
        -12    1    3    3    0    0  0.73791699324E+00 -0.18687643502E+02 -0.10286007376E+02  0.21344190986E+02  0.00000000000E+00 0.  1.
</event>
<event>
 7    1  0.1884848E-013  0.7246157E+02  0.7816164E-02  0.1226708E+00
        -11   -1    0    0    0    0  0.00000000000E+00  0.00000000000E+00  0.45593999997E+02  0.45594000000E+02  0.51100000000E-03 0. -1.
         11   -1    0    0    0    0 -0.00000000000E+00 -0.00000000000E+00 -0.45593999997E+02  0.45594000000E+02  0.51100000000E-03 0.  1.
    9900012    2    1    2    0    0 -0.64895052700E+01 -0.11578234938E+02  0.13210218977E+02  0.72461572462E+02  0.70000002824E+02 0.  0.
        -12    1    1    2    0    0  0.64895052700E+01  0.11578234938E+02 -0.13210218977E+02  0.18726427538E+02  0.00000000000E+00 0.  1.
         11    1    3    3    0    0  0.72921639872E+01 -0.24965157086E+02 -0.71224223058E+01  0.26965971588E+02  0.51100000000E-03 0. -1.
        -11    1    3    3    0    0 -0.15623969838E+02  0.22310114611E+01  0.27784336849E+02  0.31953954685E+02  0.51100000000E-03 0.  1.
         12    1    3    3    0    0  0.18423005807E+01  0.11155910686E+02 -0.74516955665E+01  0.13541646188E+02  0.00000000000E+00 0. -1.
</event>
<event>
 7    1  0.1884848E-013  0.7246157E+02  0.7816164E-02  0.1226708E+00
        -11   -1    0    0    0    0  0.00000000000E+00  0.00000000000E+00  0.45593999997E+02  0.45594000000E+02  0.51100000000E-03 0.  1.
         11   -1    0    0    0    0 -0.00000000000E+00 -0.00000000000E+00 -0.45593999997E+02  0.45594000000E+02  0.51100000000E-03 0. -1.
    9900012    2    1    2    0    0 -0.16684705957E+02  0.84490630285E+01  0.95560314807E+00  0.72461567977E+02  0.69999996981E+02 0.  0.
        -12    1    1    2    0    0  0.16684705957E+02 -0.84490630285E+01 -0.95560314807E+00  0.18726432023E+02  0.00000000000E+00 0.  1.
         11    1    3    3    0    0 -0.50952681775E+01  0.27344873179E+02 -0.20996316062E+02  0.34850382142E+02  0.51100000000E-03 0. -1.
        -11    1    3    3    0    0 -0.14226273852E+02 -0.11931365041E+02  0.23555652443E+02  0.29993551002E+02  0.51100000000E-03 0.  1.
        -12    1    3    3    0    0  0.26368360721E+01 -0.69644451102E+01 -0.16037332330E+01  0.76176348329E+01  0.00000000000E+00 0.  1.
</event>
<event>
 7    1  0.1884848E-013  0.7246157E+02  0.7816164E-02  0.1226708E+00
        -11   -1    0    0    0    0  0.00000000000E+00  0.00000000000E+00  0.45593999997E+02  0.45594000000E+02  0.51100000000E-03 0.  1.
         11   -1    0    0    0    0 -0.00000000000E+00 -0.00000000000E+00 -0.45593999997E+02  0.45594000000E+02  0.51100000000E-03 0. -1.
    9900012    2    1    2    0    0 -0.34750085343E+01 -0.45712762728E+01 -0.17824334139E+02  0.72461571120E+02  0.70000001076E+02 0.  0.
        -12    1    1    2    0    0  0.34750085343E+01  0.45712762728E+01  0.17824334139E+02  0.18726428880E+02  0.00000000000E+00 0.  1.
         11    1    3    3    0    0 -0.11438373024E+02 -0.21314765760E+02 -0.26582938702E+02  0.35941734059E+02  0.51100000000E-03 0. -1.
        -11    1    3    3    0    0  0.13452120730E+02  0.21823168070E+01  0.14531703838E+02  0.19922160412E+02  0.51100000000E-03 0.  1.
         12    1    3    3    0    0 -0.54887562410E+01  0.14561172681E+02 -0.57730992759E+01  0.16597676649E+02  0.00000000000E+00 0. -1.
</event>
<event>
 7    1  0.1884848E-013  0.7246155E+02  0.7816164E-02  0.1226708E+00
        -11   -1    0    0    0    0  0.00000000000E+00  0.00000000000E+00  0.45593999997E+02  0.45594000000E+02  0.51100000000E-03 0. -1.
         11   -1    0    0    0    0 -0.00000000000E+00 -0.00000000000E+00 -0.45593999997E+02  0.45594000000E+02  0.51100000000E-03 0.  1.
    9900012    2    1    2    0    0  0.57795967917E+01 -0.11057019131E+02  0.13964904816E+02  0.72461548717E+02  0.69999971891E+02 0.  0.
        -12    1    1    2    0    0 -0.57795967917E+01  0.11057019131E+02 -0.13964904816E+02  0.18726451283E+02  0.00000000000E+00 0.  1.
         11    1    3    3    0    0  0.22341968135E+02 -0.21237179506E+02 -0.88365774105E+01  0.32066593740E+02  0.51100000000E-03 0. -1.
        -11    1    3    3    0    0  0.94989980381E+00  0.66147085325E+01 -0.42890295487E+01  0.79405574954E+01  0.51100000000E-03 0.  1.
         12    1    3    3    0    0 -0.17512271147E+02  0.35654518427E+01  0.27090511776E+02  0.32454397481E+02  0.00000000000E+00 0. -1.
</event>
<event>
 7    1  0.1884848E-013  0.7246156E+02  0.7816164E-02  0.1226708E+00
        -11   -1    0    0    0    0  0.00000000000E+00  0.00000000000E+00  0.45593999997E+02  0.45594000000E+02  0.51100000000E-03 0. -1.
         11   -1    0    0    0    0 -0.00000000000E+00 -0.00000000000E+00 -0.45593999997E+02  0.45594000000E+02  0.51100000000E-03 0.  1.
    9900012    2    1    2    0    0 -0.12899035183E+02 -0.31734279061E+01  0.13199391014E+02  0.72461556758E+02  0.69999982367E+02 0.  0.
        -12    1    1    2    0    0  0.12899035183E+02  0.31734279061E+01 -0.13199391014E+02  0.18726443242E+02  0.00000000000E+00 0.  1.
         11    1    3    3    0    0 -0.25083284089E+02 -0.11759591997E+02  0.25926658695E+02  0.37942730212E+02  0.51100000000E-03 0. -1.
        -11    1    3    3    0    0  0.18904496989E+02  0.11941824382E+02 -0.35192302430E+01  0.22635639106E+02  0.51100000000E-03 0.  1.
         12    1    3    3    0    0 -0.67202480829E+01 -0.33556602914E+01 -0.92080374376E+01  0.11883187440E+02  0.00000000000E+00 0. -1.
</event>
<event>
 7    1  0.1884848E-013  0.7246158E+02  0.7816164E-02  0.1226708E+00
        -11   -1    0    0    0    0  0.00000000000E+00  0.00000000000E+00  0.45593999997E+02  0.45594000000E+02  0.51100000000E-03 0.  1.
         11   -1    0    0    0    0 -0.00000000000E+00 -0.00000000000E+00 -0.45593999997E+02  0.45594000000E+02  0.51100000000E-03 0. -1.
    9900012    2    1    2    0    0 -0.10173988416E+01  0.17567390260E+02 -0.64055174236E+01  0.72461576038E+02  0.70000007482E+02 0.  0.
        -12    1    1    2    0    0  0.10173988416E+01 -0.17567390260E+02  0.64055174236E+01  0.18726423962E+02  0.00000000000E+00 0.  1.
         11    1    3    3    0    0  0.80422841531E+01 -0.14402275005E+02  0.20783453287E+02  0.26534049644E+02  0.51100000000E-03 0.  1.
        -11    1    3    3    0    0 -0.18404591555E+01  0.29225136331E+02 -0.21111379862E+02  0.36099670960E+02  0.51100000000E-03 0. -1.
        -12    1    3    3    0    0 -0.72192238391E+01  0.27445289330E+01 -0.60775908484E+01  0.98278554336E+01  0.00000000000E+00 0.  1.
</event>
<event>
 7    1  0.1884848E-013  0.7246164E+02  0.7816164E-02  0.1226708E+00
        -11   -1    0    0    0    0  0.00000000000E+00  0.00000000000E+00  0.45593999997E+02  0.45594000000E+02  0.51100000000E-03 0. -1.
         11   -1    0    0    0    0 -0.00000000000E+00 -0.00000000000E+00 -0.45593999997E+02  0.45594000000E+02  0.51100000000E-03 0.  1.
    9900012    2    1    2    0    0 -0.28673633426E+01  0.16471273508E+02 -0.84351678500E+01  0.72461636761E+02  0.70000086585E+02 0.  0.
        -12    1    1    2    0    0  0.28673633426E+01 -0.16471273508E+02  0.84351678500E+01  0.18726363239E+02  0.00000000000E+00 0.  1.
         11    1    3    3    0    0  0.12130869619E+02 -0.48881930611E+01  0.19772488374E+02  0.23706617765E+02  0.51100000000E-03 0. -1.
        -11    1    3    3    0    0 -0.74442866873E+01  0.22676080470E+02 -0.50962234020E+01  0.24404784838E+02  0.51100000000E-03 0.  1.
         12    1    3    3    0    0 -0.75539462743E+01 -0.13166139007E+01 -0.23111432822E+02  0.24350234158E+02  0.00000000000E+00 0. -1.
</event>
<event>
 7    1  0.1884848E-013  0.7246157E+02  0.7816164E-02  0.1226708E+00
        -11   -1    0    0    0    0  0.00000000000E+00  0.00000000000E+00  0.45593999997E+02  0.45594000000E+02  0.51100000000E-03 0. -1.
         11   -1    0    0    0    0 -0.00000000000E+00 -0.00000000000E+00 -0.45593999997E+02  0.45594000000E+02  0.51100000000E-03 0.  1.
    9900012    2    1    2    0    0  0.15595047929E+02 -0.10267186225E+02 -0.14347936855E+01  0.72461567723E+02  0.69999996651E+02 0.  0.
        -12    1    1    2    0    0 -0.15595047929E+02  0.10267186225E+02  0.14347936855E+01  0.18726432277E+02  0.00000000000E+00 0.  1.
         11    1    3    3    0    0 -0.65702625467E+01  0.84769863196E+01  0.67011750615E+01  0.12646477552E+02  0.51100000000E-03 0. -1.
        -11    1    3    3    0    0  0.25341975634E+02 -0.27389631177E+02 -0.21890096388E+02  0.43261807003E+02  0.51100000000E-03 0.  1.
        -12    1    3    3    0    0 -0.31766651584E+01  0.86454586327E+01  0.13754127641E+02  0.16553283168E+02  0.00000000000E+00 0.  1.
</event>
<event>
 7    1  0.1884848E-013  0.7246161E+02  0.7816164E-02  0.1226708E+00
        -11   -1    0    0    0    0  0.00000000000E+00  0.00000000000E+00  0.45593999997E+02  0.45594000000E+02  0.51100000000E-03 0. -1.
         11   -1    0    0    0    0 -0.00000000000E+00 -0.00000000000E+00 -0.45593999997E+02  0.45594000000E+02  0.51100000000E-03 0.  1.
    9900012    2    1    2    0    0  0.37266188496E+01 -0.62903818256E+01  0.17240099534E+02  0.72461611573E+02  0.70000053773E+02 0.  0.
        -12    1    1    2    0    0 -0.37266188496E+01  0.62903818256E+01 -0.17240099534E+02  0.18726388427E+02  0.00000000000E+00 0.  1.
         11    1    3    3    0    0 -0.77123337462E+01 -0.49612863377E+01  0.20674275151E+02  0.22616810280E+02  0.51100000000E-03 0. -1.
        -11    1    3    3    0    0  0.12161720183E+02  0.16220109908E+02 -0.17935383566E+02  0.27068014097E+02  0.51100000000E-03 0.  1.
        -12    1    3    3    0    0 -0.72276758732E+00 -0.17549205396E+02  0.14501207949E+02  0.22776787196E+02  0.00000000000E+00 0.  1.
</event>
<event>
 7    1  0.1884848E-013  0.7246148E+02  0.7816164E-02  0.1226708E+00
        -11   -1    0    0    0    0  0.00000000000E+00  0.00000000000E+00  0.45593999997E+02  0.45594000000E+02  0.51100000000E-03 0. -1.
         11   -1    0    0    0    0 -0.00000000000E+00 -0.00000000000E+00 -0.45593999997E+02  0.45594000000E+02  0.51100000000E-03 0.  1.
    9900012    2    1    2    0    0  0.12989767230E+02  0.13384843530E+02  0.16716095638E+01  0.72461484906E+02  0.69999888766E+02 0.  0.
        -12    1    1    2    0    0 -0.12989767230E+02 -0.13384843530E+02 -0.16716095638E+01  0.18726515094E+02  0.00000000000E+00 0.  1.
         11    1    3    3    0    0 -0.57708752996E+01  0.56149168058E+01  0.39265254393E+01  0.89581189290E+01  0.51100000000E-03 0. -1.
        -11    1    3    3    0    0  0.39734552694E+02 -0.24753883231E+01  0.16048829758E+01  0.39843918918E+02  0.51100000000E-03 0.  1.
        -12    1    3    3    0    0 -0.20973910164E+02  0.10245315047E+02 -0.38597988514E+01  0.23659447060E+02  0.00000000000E+00 0.  1.
</event>
<event>
 7    1  0.1884848E-013  0.7246155E+02  0.7816164E-02  0.1226708E+00
        -11   -1    0    0    0    0  0.00000000000E+00  0.00000000000E+00  0.45593999997E+02  0.45594000000E+02  0.51100000000E-03 0.  1.
         11   -1    0    0    0    0 -0.00000000000E+00 -0.00000000000E+00 -0.45593999997E+02  0.45594000000E+02  0.51100000000E-03 0. -1.
    9900012    2    1    2    0    0 -0.12644777351E+02  0.70580601301E+00 -0.13794610983E+02  0.72461552163E+02  0.69999976381E+02 0.  0.
        -12    1    1    2    0    0  0.12644777351E+02 -0.70580601301E+00  0.13794610983E+02  0.18726447837E+02  0.00000000000E+00 0.  1.
         11    1    3    3    0    0 -0.13240023785E+02 -0.60765506148E+01 -0.14499764096E+02  0.20553974222E+02  0.51100000000E-03 0. -1.
        -11    1    3    3    0    0  0.18676821276E+02  0.20947246595E+02 -0.43202351614E+01  0.28394985913E+02  0.51100000000E-03 0.  1.
        -12    1    3    3    0    0 -0.18081574843E+02 -0.14164889967E+02  0.50253882743E+01  0.23512592028E+02  0.00000000000E+00 0.  1.
</event>
<event>
 7    1  0.1884848E-013  0.7246156E+02  0.7816164E-02  0.1226708E+00
        -11   -1    0    0    0    0  0.00000000000E+00  0.00000000000E+00  0.45593999997E+02  0.45594000000E+02  0.51100000000E-03 0.  1.
         11   -1    0    0    0    0 -0.00000000000E+00 -0.00000000000E+00 -0.45593999997E+02  0.45594000000E+02  0.51100000000E-03 0. -1.
    9900012    2    1    2    0    0  0.22938715808E+01 -0.58721403913E+01  0.17633364522E+02  0.72461563501E+02  0.69999991150E+02 0.  0.
        -12    1    1    2    0    0 -0.22938715808E+01  0.58721403913E+01 -0.17633364522E+02  0.18726436499E+02  0.00000000000E+00 0.  1.
         11    1    3    3    0    0  0.15819662730E+02  0.72271528619E+01 -0.19557217273E+02  0.26172088475E+02  0.51100000000E-03 0. -1.
        -11    1    3    3    0    0 -0.15237771608E+02 -0.16123340881E+02  0.36550234056E+02  0.42755951802E+02  0.51100000000E-03 0.  1.
        -12    1    3    3    0    0  0.17119804582E+01  0.30240476278E+01  0.64034773924E+00  0.35335232236E+01  0.00000000000E+00 0.  1.
</event>
<event>
 7    1  0.1884848E-013  0.7246155E+02  0.7816164E-02  0.1226708E+00
        -11   -1    0    0    0    0  0.00000000000E+00  0.00000000000E+00  0.45593999997E+02  0.45594000000E+02  0.51100000000E-03 0.  1.
         11   -1    0    0    0    0 -0.00000000000E+00 -0.00000000000E+00 -0.45593999997E+02  0.45594000000E+02  0.51100000000E-03 0. -1.
    9900012    2    1    2    0    0  0.45374995228E+00 -0.15494359389E+02 -0.10507079712E+02  0.72461553835E+02  0.69999978559E+02 0.  0.
        -12    1    1    2    0    0 -0.45374995228E+00  0.15494359389E+02  0.10507079712E+02  0.18726446165E+02  0.00000000000E+00 0.  1.
         11    1    3    3    0    0  0.25034265732E+02 -0.27947611668E+02 -0.11429984483E+02  0.39222799546E+02  0.51100000000E-03 0. -1.
        -11    1    3    3    0    0 -0.15510587989E+02  0.82250260056E+01 -0.84889343581E+01  0.19501061493E+02  0.51100000000E-03 0.  1.
         12    1    3    3    0    0 -0.90699277911E+01  0.42282262742E+01  0.94118391293E+01  0.13737692796E+02  0.00000000000E+00 0. -1.
</event>
<event>
 7    1  0.1884848E-013  0.7246159E+02  0.7816164E-02  0.1226708E+00
        -11   -1    0    0    0    0  0.00000000000E+00  0.00000000000E+00  0.45593999997E+02  0.45594000000E+02  0.51100000000E-03 0. -1.
         11   -1    0    0    0    0 -0.00000000000E+00 -0.00000000000E+00 -0.45593999997E+02  0.45594000000E+02  0.51100000000E-03 0.  1.
    9900012    2    1    2    0    0 -0.16723133579E+02 -0.25889826862E+01 -0.80195024537E+01  0.72461589568E+02  0.70000025108E+02 0.  0.
        -12    1    1    2    0    0  0.16723133579E+02  0.25889826862E+01  0.80195024537E+01  0.18726410432E+02  0.00000000000E+00 0.  1.
         11    1    3    3    0    0 -0.11948364134E+02 -0.17842691420E+02 -0.43096102836E+01  0.21902004101E+02  0.51100000000E-03 0. -1.
        -11    1    3    3    0    0  0.11479002170E+02  0.19610190505E+02  0.13548415046E+02  0.26455370211E+02  0.51100000000E-03 0.  1.
         12    1    3    3    0    0 -0.16253771615E+02 -0.43564817715E+01 -0.17258307217E+02  0.24104215256E+02  0.00000000000E+00 0. -1.
</event>
<event>
 7    1  0.1884848E-013  0.7246157E+02  0.7816164E-02  0.1226708E+00
        -11   -1    0    0    0    0  0.00000000000E+00  0.00000000000E+00  0.45593999997E+02  0.45594000000E+02  0.51100000000E-03 0. -1.
         11   -1    0    0    0    0 -0.00000000000E+00 -0.00000000000E+00 -0.45593999997E+02  0.45594000000E+02  0.51100000000E-03 0.  1.
    9900012    2    1    2    0    0 -0.73921281486E+00 -0.59499085415E+01  0.17740666077E+02  0.72461572682E+02  0.70000003111E+02 0.  0.
        -12    1    1    2    0    0  0.73921281486E+00  0.59499085415E+01 -0.17740666077E+02  0.18726427318E+02  0.00000000000E+00 0.  1.
         11    1    3    3    0    0  0.22688122591E+02  0.56660559426E+01  0.45231723472E+01  0.23818358151E+02  0.51100000000E-03 0. -1.
        -11    1    3    3    0    0 -0.13725478643E+02 -0.20240915925E+02  0.22060933732E+02  0.32935819996E+02  0.51100000000E-03 0.  1.
        -12    1    3    3    0    0 -0.97018567632E+01  0.86249514409E+01 -0.88434400022E+01  0.15707394535E+02  0.00000000000E+00 0.  1.
</event>
<event>
 7    1  0.1884848E-013  0.7246156E+02  0.7816164E-02  0.1226708E+00
        -11   -1    0    0    0    0  0.00000000000E+00  0.00000000000E+00  0.45593999997E+02  0.45594000000E+02  0.51100000000E-03 0.  1.
         11   -1    0    0    0    0 -0.00000000000E+00 -0.00000000000E+00 -0.45593999997E+02  0.45594000000E+02  0.51100000000E-03 0. -1.
    9900012    2    1    2    0    0  0.15807995811E+02 -0.71894276424E+01 -0.70070726776E+01  0.72461556961E+02  0.69999982631E+02 0.  0.
        -12    1    1    2    0    0 -0.15807995811E+02  0.71894276424E+01  0.70070726776E+01  0.18726443039E+02  0.00000000000E+00 0.  1.
         11    1    3    3    0    0  0.94819429126E+01  0.19484704500E+01 -0.22339576926E+02  0.24346672791E+02  0.51100000000E-03 0. -1.
        -11    1    3    3    0    0  0.10574810897E+02  0.15079320517E+02  0.14624087565E+02  0.23517577897E+02  0.51100000000E-03 0.  1.
        -12    1    3    3    0    0 -0.42487579993E+01 -0.24217218609E+02  0.70841668410E+00  0.24597306273E+02  0.00000000000E+00 0.  1.
</event>
<event>
 7    1  0.1884848E-013  0.7246156E+02  0.7816164E-02  0.1226708E+00
        -11   -1    0    0    0    0  0.00000000000E+00  0.00000000000E+00  0.45593999997E+02  0.45594000000E+02  0.51100000000E-03 0.  1.
         11   -1    0    0    0    0 -0.00000000000E+00 -0.00000000000E+00 -0.45593999997E+02  0.45594000000E+02  0.51100000000E-03 0. -1.
    9900012    2    1    2    0    0  0.34036554171E+01  0.98947403559E+01 -0.15530256326E+02  0.72461558308E+02  0.69999984385E+02 0.  0.
        -12    1    1    2    0    0 -0.34036554171E+01 -0.98947403559E+01  0.15530256326E+02  0.18726441692E+02  0.00000000000E+00 0.  1.
         11    1    3    3    0    0 -0.22275301217E+02  0.20839535820E+02 -0.73427220124E+01  0.31375003813E+02  0.51100000000E-03 0. -1.
        -11    1    3    3    0    0  0.24565780769E+02 -0.16243858098E+02  0.20325329830E+01  0.29520699539E+02  0.51100000000E-03 0.  1.
        -12    1    3    3    0    0  0.11131758650E+01  0.52990626346E+01 -0.10220067296E+02  0.11565854955E+02  0.00000000000E+00 0.  1.
</event>
<event>
 7    1  0.1884848E-013  0.7246155E+02  0.7816164E-02  0.1226708E+00
        -11   -1    0    0    0    0  0.00000000000E+00  0.00000000000E+00  0.45593999997E+02  0.45594000000E+02  0.51100000000E-03 0.  1.
         11   -1    0    0    0    0 -0.00000000000E+00 -0.00000000000E+00 -0.45593999997E+02  0.45594000000E+02  0.51100000000E-03 0. -1.
    9900012    2    1    2    0    0  0.11280893046E+02  0.83541334308E+00 -0.14923920718E+02  0.72461551512E+02  0.69999975533E+02 0.  0.
        -12    1    1    2    0    0 -0.11280893046E+02 -0.83541334308E+00  0.14923920718E+02  0.18726448488E+02  0.00000000000E+00 0.  1.
         11    1    3    3    0    0 -0.10508488174E+02  0.70529748504E+01 -0.16197888594E+02  0.20555884148E+02  0.51100000000E-03 0. -1.
        -11    1    3    3    0    0  0.61604624492E+01 -0.25101285142E+01  0.23533600815E+02  0.24455723467E+02  0.51100000000E-03 0.  1.
        -12    1    3    3    0    0  0.15628918772E+02 -0.37074329932E+01 -0.22259632939E+02  0.27449943897E+02  0.00000000000E+00 0.  1.
</event>
<event>
 7    1  0.1884848E-013  0.7246148E+02  0.7816164E-02  0.1226708E+00
        -11   -1    0    0    0    0  0.00000000000E+00  0.00000000000E+00  0.45593999997E+02  0.45594000000E+02  0.51100000000E-03 0.  1.
         11   -1    0    0    0    0 -0.00000000000E+00 -0.00000000000E+00 -0.45593999997E+02  0.45594000000E+02  0.51100000000E-03 0. -1.
    9900012    2    1    2    0    0 -0.25258138143E+01 -0.10500308728E+02 -0.15298575074E+02  0.72461478217E+02  0.69999880052E+02 0.  0.
        -12    1    1    2    0    0  0.25258138143E+01  0.10500308728E+02  0.15298575074E+02  0.18726521783E+02  0.00000000000E+00 0.  1.
         11    1    3    3    0    0 -0.18219346845E+02  0.67440622555E+01 -0.31130216802E+02  0.36694922994E+02  0.51100000000E-03 0. -1.
        -11    1    3    3    0    0  0.49302996988E+01  0.89637723623E+00  0.13673684461E+02  0.14563000867E+02  0.51100000000E-03 0.  1.
         12    1    3    3    0    0  0.10763233331E+02 -0.18140748220E+02  0.21579572678E+01  0.21203554355E+02  0.00000000000E+00 0. -1.
</event>
<event>
 7    1  0.1884848E-013  0.7246156E+02  0.7816164E-02  0.1226708E+00
        -11   -1    0    0    0    0  0.00000000000E+00  0.00000000000E+00  0.45593999997E+02  0.45594000000E+02  0.51100000000E-03 0.  1.
         11   -1    0    0    0    0 -0.00000000000E+00 -0.00000000000E+00 -0.45593999997E+02  0.45594000000E+02  0.51100000000E-03 0. -1.
    9900012    2    1    2    0    0 -0.99594499275E+01 -0.68924931363E+01 -0.14282240620E+02  0.72461561427E+02  0.69999988449E+02 0.  0.
        -12    1    1    2    0    0  0.99594499275E+01  0.68924931363E+01  0.14282240620E+02  0.18726438573E+02  0.00000000000E+00 0.  1.
         11    1    3    3    0    0  0.84636460212E+01 -0.13675583179E+02 -0.23325446110E+02  0.28332513403E+02  0.51100000000E-03 0. -1.
        -11    1    3    3    0    0  0.14458674003E+01  0.16124453632E+02  0.14247072850E+02  0.21565426556E+02  0.51100000000E-03 0.  1.
         12    1    3    3    0    0 -0.19868963349E+02 -0.93413635900E+01 -0.52038673600E+01  0.22563621469E+02  0.00000000000E+00 0. -1.
</event>
<event>
 7    1  0.1884848E-013  0.7246154E+02  0.7816164E-02  0.1226708E+00
        -11   -1    0    0    0    0  0.00000000000E+00  0.00000000000E+00  0.45593999997E+02  0.45594000000E+02  0.51100000000E-03 0.  1.
         11   -1    0    0    0    0 -0.00000000000E+00 -0.00000000000E+00 -0.45593999997E+02  0.45594000000E+02  0.51100000000E-03 0. -1.
    9900012    2    1    2    0    0  0.89449063701E+01  0.86759879774E+01 -0.13978414698E+02  0.72461542919E+02  0.69999964338E+02 0.  0.
        -12    1    1    2    0    0 -0.89449063701E+01 -0.86759879774E+01  0.13978414698E+02  0.18726457081E+02  0.00000000000E+00 0.  1.
         11    1    3    3    0    0  0.35588276485E+01  0.13462873528E+02 -0.34405525471E+02  0.37116767115E+02  0.51100000000E-03 0. -1.
        -11    1    3    3    0    0 -0.61788639268E+01 -0.13165154449E+02  0.10968775333E+02  0.18215753722E+02  0.51100000000E-03 0.  1.
        -12    1    3    3    0    0  0.11564942648E+02  0.83782688983E+01  0.94583354402E+01  0.17129022082E+02  0.00000000000E+00 0.  1.
</event>
<event>
 7    1  0.1884848E-013  0.7246148E+02  0.7816164E-02  0.1226708E+00
        -11   -1    0    0    0    0  0.00000000000E+00  0.00000000000E+00  0.45593999997E+02  0.45594000000E+02  0.51100000000E-03 0.  1.
         11   -1    0    0    0    0 -0.00000000000E+00 -0.00000000000E+00 -0.45593999997E+02  0.45594000000E+02  0.51100000000E-03 0. -1.
    9900012    2    1    2    0    0  0.16361111620E+02  0.59277973264E+01  0.69179364117E+01  0.72461478733E+02  0.69999880724E+02 0.  0.
        -12    1    1    2    0    0 -0.16361111620E+02 -0.59277973264E+01 -0.69179364117E+01  0.18726521267E+02  0.00000000000E+00 0.  1.
         11    1    3    3    0    0  0.24642004499E+02 -0.11535003004E+02 -0.17237160992E+02  0.32208762773E+02  0.51100000000E-03 0. -1.
        -11    1    3    3    0    0  0.70737565638E+01  0.12587564965E+02  0.17835388082E+02  0.22947459379E+02  0.51100000000E-03 0.  1.
         12    1    3    3    0    0 -0.15354649443E+02  0.48752353662E+01  0.63197093216E+01  0.17305256581E+02  0.00000000000E+00 0. -1.
</event>
<event>
 7    1  0.1884848E-013  0.7246150E+02  0.7816164E-02  0.1226708E+00
        -11   -1    0    0    0    0  0.00000000000E+00  0.00000000000E+00  0.45593999997E+02  0.45594000000E+02  0.51100000000E-03 0. -1.
         11   -1    0    0    0    0 -0.00000000000E+00 -0.00000000000E+00 -0.45593999997E+02  0.45594000000E+02  0.51100000000E-03 0.  1.
    9900012    2    1    2    0    0 -0.13542904540E+02  0.12473514420E+02 -0.34180437907E+01  0.72461498759E+02  0.69999906811E+02 0.  0.
        -12    1    1    2    0    0  0.13542904540E+02 -0.12473514420E+02  0.34180437907E+01  0.18726501241E+02  0.00000000000E+00 0.  1.
         11    1    3    3    0    0 -0.57890443494E+01  0.14646456266E+02  0.45447748422E+01  0.16391665390E+02  0.51100000000E-03 0. -1.
        -11    1    3    3    0    0  0.19489358857E+01 -0.19589655068E+02 -0.23599303581E+02  0.30732394416E+02  0.51100000000E-03 0.  1.
        -12    1    3    3    0    0 -0.97027960766E+01  0.17416713223E+02  0.15636484948E+02  0.25337438953E+02  0.00000000000E+00 0.  1.
</event>
<event>
 7    1  0.1884848E-013  0.7246160E+02  0.7816164E-02  0.1226708E+00
        -11   -1    0    0    0    0  0.00000000000E+00  0.00000000000E+00  0.45593999997E+02  0.45594000000E+02  0.51100000000E-03 0.  1.
         11   -1    0    0    0    0 -0.00000000000E+00 -0.00000000000E+00 -0.45593999997E+02  0.45594000000E+02  0.51100000000E-03 0. -1.
    9900012    2    1    2    0    0 -0.82637824381E+01 -0.15793891603E+02  0.57394282740E+01  0.72461597541E+02  0.70000035493E+02 0.  0.
        -12    1    1    2    0    0  0.82637824381E+01  0.15793891603E+02 -0.57394282740E+01  0.18726402459E+02  0.00000000000E+00 0.  1.
         11    1    3    3    0    0 -0.26642312343E+02 -0.67161149273E+01  0.11206316237E+02  0.29673229190E+02  0.51100000000E-03 0. -1.
        -11    1    3    3    0    0  0.28198047658E+02 -0.23970253480E+01  0.26186627259E+01  0.28420644204E+02  0.51100000000E-03 0.  1.
         12    1    3    3    0    0 -0.98195177531E+01 -0.66807513278E+01 -0.80855506894E+01  0.14367724147E+02  0.00000000000E+00 0. -1.
</event>
<event>
 7    1  0.1884848E-013  0.7246158E+02  0.7816164E-02  0.1226708E+00
        -11   -1    0    0    0    0  0.00000000000E+00  0.00000000000E+00  0.45593999997E+02  0.45594000000E+02  0.51100000000E-03 0.  1.
         11   -1    0    0    0    0 -0.00000000000E+00 -0.00000000000E+00 -0.45593999997E+02  0.45594000000E+02  0.51100000000E-03 0. -1.
    9900012    2    1    2    0    0 -0.11416917581E+02  0.54965278527E+01 -0.13788435800E+02  0.72461580500E+02  0.70000013294E+02 0.  0.
        -12    1    1    2    0    0  0.11416917581E+02 -0.54965278527E+01  0.13788435800E+02  0.18726419500E+02  0.00000000000E+00 0.  1.
         11    1    3    3    0    0 -0.21020580369E+02 -0.11667478675E+02 -0.19960746409E+02  0.31247820007E+02  0.51100000000E-03 0. -1.
        -11    1    3    3    0    0 -0.51780169380E+01  0.13404820750E+02  0.17184879699E+02  0.22401365344E+02  0.51100000000E-03 0.  1.
         12    1    3    3    0    0  0.14781679727E+02  0.37591857779E+01 -0.11012569090E+02  0.18812395148E+02  0.00000000000E+00 0. -1.
</event>
<event>
 7    1  0.1884848E-013  0.7246152E+02  0.7816164E-02  0.1226708E+00
        -11   -1    0    0    0    0  0.00000000000E+00  0.00000000000E+00  0.45593999997E+02  0.45594000000E+02  0.51100000000E-03 0.  1.
         11   -1    0    0    0    0 -0.00000000000E+00 -0.00000000000E+00 -0.45593999997E+02  0.45594000000E+02  0.51100000000E-03 0. -1.
    9900012    2    1    2    0    0 -0.10442667945E+02 -0.14385509174E+02  0.58897259999E+01  0.72461519809E+02  0.69999934233E+02 0.  0.
        -12    1    1    2    0    0  0.10442667945E+02  0.14385509174E+02 -0.58897259999E+01  0.18726480191E+02  0.00000000000E+00 0.  1.
         11    1    3    3    0    0  0.79121031354E+01  0.10254130078E+02 -0.18650884860E+02  0.22706916699E+02  0.51100000000E-03 0. -1.
        -11    1    3    3    0    0 -0.11854770175E+02  0.18756153457E+01  0.18078462657E+02  0.21699869150E+02  0.51100000000E-03 0.  1.
         12    1    3    3    0    0 -0.65000009054E+01 -0.26515254598E+02  0.64621482027E+01  0.28054733960E+02  0.00000000000E+00 0. -1.
</event>
<event>
 7    1  0.1884848E-013  0.7246151E+02  0.7816164E-02  0.1226708E+00
        -11   -1    0    0    0    0  0.00000000000E+00  0.00000000000E+00  0.45593999997E+02  0.45594000000E+02  0.51100000000E-03 0.  1.
         11   -1    0    0    0    0 -0.00000000000E+00 -0.00000000000E+00 -0.45593999997E+02  0.45594000000E+02  0.51100000000E-03 0. -1.
    9900012    2    1    2    0    0  0.13795558986E+02 -0.12308347327E+02 -0.29780383277E+01  0.72461506096E+02  0.69999916369E+02 0.  0.
        -12    1    1    2    0    0 -0.13795558986E+02  0.12308347327E+02  0.29780383277E+01  0.18726493904E+02  0.00000000000E+00 0.  1.
         11    1    3    3    0    0  0.65536364125E+01 -0.16407049053E+02  0.25593430609E+01  0.17851936758E+02  0.51100000000E-03 0. -1.
        -11    1    3    3    0    0  0.24958141320E+02  0.17527640940E+02 -0.96777717492E+01  0.31996660472E+02  0.51100000000E-03 0.  1.
        -12    1    3    3    0    0 -0.17716218746E+02 -0.13428939214E+02  0.41403903605E+01  0.22612908866E+02  0.00000000000E+00 0.  1.
</event>
<event>
 7    1  0.1884848E-013  0.7246154E+02  0.7816164E-02  0.1226708E+00
        -11   -1    0    0    0    0  0.00000000000E+00  0.00000000000E+00  0.45593999997E+02  0.45594000000E+02  0.51100000000E-03 0.  1.
         11   -1    0    0    0    0 -0.00000000000E+00 -0.00000000000E+00 -0.45593999997E+02  0.45594000000E+02  0.51100000000E-03 0. -1.
    9900012    2    1    2    0    0 -0.67758229558E+01 -0.17457523323E+02  0.57356036044E-01  0.72461543127E+02  0.69999964610E+02 0.  0.
        -12    1    1    2    0    0  0.67758229558E+01  0.17457523323E+02 -0.57356036044E-01  0.18726456873E+02  0.00000000000E+00 0.  1.
         11    1    3    3    0    0 -0.12219271873E+02 -0.27790393456E+02  0.15734140268E+02  0.34193270445E+02  0.51100000000E-03 0. -1.
        -11    1    3    3    0    0 -0.62011088309E+01  0.14396660571E+02  0.29282984043E+01  0.15946551920E+02  0.51100000000E-03 0.  1.
         12    1    3    3    0    0  0.11644557748E+02 -0.40637904384E+01 -0.18605082636E+02  0.22321720762E+02  0.00000000000E+00 0. -1.
</event>
<event>
 7    1  0.1884848E-013  0.7246160E+02  0.7816164E-02  0.1226708E+00
        -11   -1    0    0    0    0  0.00000000000E+00  0.00000000000E+00  0.45593999997E+02  0.45594000000E+02  0.51100000000E-03 0.  1.
         11   -1    0    0    0    0 -0.00000000000E+00 -0.00000000000E+00 -0.45593999997E+02  0.45594000000E+02  0.51100000000E-03 0. -1.
    9900012    2    1    2    0    0  0.89697522597E+01  0.14427765482E+02 -0.78778910215E+01  0.72461600470E+02  0.70000039310E+02 0.  0.
        -12    1    1    2    0    0 -0.89697522597E+01 -0.14427765482E+02  0.78778910215E+01  0.18726399530E+02  0.00000000000E+00 0.  1.
         11    1    3    3    0    0 -0.58983369751E+01 -0.14887649421E+02  0.18522873340E+01  0.16120280797E+02  0.51100000000E-03 0. -1.
        -11    1    3    3    0    0  0.25009026147E+02  0.34077812060E+02 -0.12468200781E+01  0.42288334374E+02  0.51100000000E-03 0.  1.
        -12    1    3    3    0    0 -0.10140936912E+02 -0.47623971566E+01 -0.84833582774E+01  0.14052985298E+02  0.00000000000E+00 0.  1.
</event>
<event>
 7    1  0.1884848E-013  0.7246158E+02  0.7816164E-02  0.1226708E+00
        -11   -1    0    0    0    0  0.00000000000E+00  0.00000000000E+00  0.45593999997E+02  0.45594000000E+02  0.51100000000E-03 0. -1.
         11   -1    0    0    0    0 -0.00000000000E+00 -0.00000000000E+00 -0.45593999997E+02  0.45594000000E+02  0.51100000000E-03 0.  1.
    9900012    2    1    2    0    0 -0.57417168686E+01 -0.31632175147E+01  0.17541540212E+02  0.72461577740E+02  0.70000009700E+02 0.  0.
        -12    1    1    2    0    0  0.57417168686E+01  0.31632175147E+01 -0.17541540212E+02  0.18726422260E+02  0.00000000000E+00 0.  1.
         11    1    3    3    0    0 -0.22934789495E+02  0.14791484981E+02  0.38411051429E+01  0.27559874566E+02  0.51100000000E-03 0. -1.
        -11    1    3    3    0    0  0.24155454505E+01 -0.13694935721E+02 -0.96607428413E+01  0.16932692542E+02  0.51100000000E-03 0.  1.
        -12    1    3    3    0    0  0.14777527176E+02 -0.42597667746E+01  0.23361177910E+02  0.27969010632E+02  0.00000000000E+00 0.  1.
</event>
<event>
 7    1  0.1884848E-013  0.7246146E+02  0.7816164E-02  0.1226708E+00
        -11   -1    0    0    0    0  0.00000000000E+00  0.00000000000E+00  0.45593999997E+02  0.45594000000E+02  0.51100000000E-03 0.  1.
         11   -1    0    0    0    0 -0.00000000000E+00 -0.00000000000E+00 -0.45593999997E+02  0.45594000000E+02  0.51100000000E-03 0. -1.
    9900012    2    1    2    0    0  0.58028390919E+01  0.48099895874E+00 -0.17798289781E+02  0.72461456788E+02  0.69999852137E+02 0.  0.
        -12    1    1    2    0    0 -0.58028390919E+01 -0.48099895874E+00  0.17798289781E+02  0.18726543212E+02  0.00000000000E+00 0.  1.
         11    1    3    3    0    0  0.15624748195E+02  0.26112577330E+01 -0.37841372849E+01  0.16287145802E+02  0.51100000000E-03 0. -1.
        -11    1    3    3    0    0 -0.22104729858E+02  0.84265836934E+00  0.13487297757E+02  0.25908229508E+02  0.51100000000E-03 0.  1.
        -12    1    3    3    0    0  0.12282820754E+02 -0.29729171436E+01 -0.27501450253E+02  0.30266081478E+02  0.00000000000E+00 0.  1.
</event>
<event>
 7    1  0.1884848E-013  0.7246159E+02  0.7816164E-02  0.1226708E+00
        -11   -1    0    0    0    0  0.00000000000E+00  0.00000000000E+00  0.45593999997E+02  0.45594000000E+02  0.51100000000E-03 0.  1.
         11   -1    0    0    0    0 -0.00000000000E+00 -0.00000000000E+00 -0.45593999997E+02  0.45594000000E+02  0.51100000000E-03 0. -1.
    9900012    2    1    2    0    0 -0.13709545812E+02 -0.11520300796E+02  0.54781009616E+01  0.72461586383E+02  0.70000020958E+02 0.  0.
        -12    1    1    2    0    0  0.13709545812E+02  0.11520300796E+02 -0.54781009616E+01  0.18726413617E+02  0.00000000000E+00 0.  1.
         11    1    3    3    0    0  0.11644684030E+01  0.77171909274E+01 -0.60078478029E+01  0.98491247304E+01  0.51100000000E-03 0. -1.
        -11    1    3    3    0    0 -0.17783341887E+02 -0.35388049164E+02 -0.43050358912E+01  0.39838355972E+02  0.51100000000E-03 0.  1.
        -12    1    3    3    0    0  0.29093276719E+01  0.16150557440E+02  0.15790984656E+02  0.22774105680E+02  0.00000000000E+00 0.  1.
</event>
<event>
 7    1  0.1884848E-013  0.7246159E+02  0.7816164E-02  0.1226708E+00
        -11   -1    0    0    0    0  0.00000000000E+00  0.00000000000E+00  0.45593999997E+02  0.45594000000E+02  0.51100000000E-03 0.  1.
         11   -1    0    0    0    0 -0.00000000000E+00 -0.00000000000E+00 -0.45593999997E+02  0.45594000000E+02  0.51100000000E-03 0. -1.
    9900012    2    1    2    0    0 -0.16669453294E+02 -0.46539309320E+01  0.71518181076E+01  0.72461594886E+02  0.70000032036E+02 0.  0.
        -12    1    1    2    0    0  0.16669453294E+02  0.46539309320E+01 -0.71518181076E+01  0.18726405114E+02  0.00000000000E+00 0.  1.
         11    1    3    3    0    0 -0.21169834394E+02 -0.25497992017E+02  0.63061290269E+01  0.33735393117E+02  0.51100000000E-03 0. -1.
        -11    1    3    3    0    0 -0.37393137956E+01  0.26856405568E+02  0.52446393274E+01  0.27618023637E+02  0.51100000000E-03 0.  1.
        -12    1    3    3    0    0  0.82396948958E+01 -0.60123444827E+01 -0.43989502467E+01  0.11108178133E+02  0.00000000000E+00 0.  1.
</event>
<event>
 7    1  0.1884848E-013  0.7246202E+02  0.7816164E-02  0.1226707E+00
        -11   -1    0    0    0    0  0.00000000000E+00  0.00000000000E+00  0.45593999997E+02  0.45594000000E+02  0.51100000000E-03 0. -1.
         11   -1    0    0    0    0 -0.00000000000E+00 -0.00000000000E+00 -0.45593999997E+02  0.45594000000E+02  0.51100000000E-03 0.  1.
    9900012    2    1    2    0    0 -0.13057561184E+02  0.11953909264E+02  0.61046395834E+01  0.72462016042E+02  0.70000580666E+02 0.  0.
        -12    1    1    2    0    0  0.13057561184E+02 -0.11953909264E+02 -0.61046395834E+01  0.18725983958E+02  0.00000000000E+00 0.  1.
         11    1    3    3    0    0  0.40037913444E+01  0.16173999290E+02  0.19772245430E+02  0.25856726161E+02  0.51100000000E-03 0. -1.
        -11    1    3    3    0    0 -0.13067903932E+02 -0.22272760562E+02 -0.10353158868E+02  0.27821464287E+02  0.51100000000E-03 0.  1.
         12    1    3    3    0    0 -0.39934485958E+01  0.18052670536E+02 -0.33144469782E+01  0.18783825594E+02  0.00000000000E+00 0. -1.
</event>
<event>
 7    1  0.1884848E-013  0.7246161E+02  0.7816164E-02  0.1226708E+00
        -11   -1    0    0    0    0  0.00000000000E+00  0.00000000000E+00  0.45593999997E+02  0.45594000000E+02  0.51100000000E-03 0.  1.
         11   -1    0    0    0    0 -0.00000000000E+00 -0.00000000000E+00 -0.45593999997E+02  0.45594000000E+02  0.51100000000E-03 0. -1.
    9900012    2    1    2    0    0 -0.13217115760E+02 -0.26108360651E+01 -0.13006499586E+02  0.72461610987E+02  0.70000053010E+02 0.  0.
        -12    1    1    2    0    0  0.13217115760E+02  0.26108360651E+01  0.13006499586E+02  0.18726389013E+02  0.00000000000E+00 0.  1.
         11    1    3    3    0    0 -0.28203892613E+02 -0.87586744753E+01 -0.23834992266E+02  0.37951031523E+02  0.51100000000E-03 0. -1.
        -11    1    3    3    0    0  0.20875205439E+02  0.12269242498E+02  0.89233489356E+01  0.25805710028E+02  0.51100000000E-03 0.  1.
        -12    1    3    3    0    0 -0.58884285858E+01 -0.61214040875E+01  0.19051437440E+01  0.87048694360E+01  0.00000000000E+00 0.  1.
</event>
<event>
 7    1  0.1884848E-013  0.7246164E+02  0.7816164E-02  0.1226708E+00
        -11   -1    0    0    0    0  0.00000000000E+00  0.00000000000E+00  0.45593999997E+02  0.45594000000E+02  0.51100000000E-03 0.  1.
         11   -1    0    0    0    0 -0.00000000000E+00 -0.00000000000E+00 -0.45593999997E+02  0.45594000000E+02  0.51100000000E-03 0. -1.
    9900012    2    1    2    0    0  0.10778267747E+02  0.73715095378E+01 -0.13422609800E+02  0.72461637237E+02  0.70000087205E+02 0.  0.
        -12    1    1    2    0    0 -0.10778267747E+02 -0.73715095378E+01  0.13422609800E+02  0.18726362763E+02  0.00000000000E+00 0.  1.
         11    1    3    3    0    0 -0.13776411085E+02 -0.29222863476E+01 -0.32574822359E+02  0.35488706822E+02  0.51100000000E-03 0.  1.
        -11    1    3    3    0    0  0.26804420944E+02  0.72669897305E+01  0.17693021753E+02  0.32929153358E+02  0.51100000000E-03 0. -1.
         12    1    3    3    0    0 -0.22497421132E+01  0.30268061549E+01  0.14591908066E+01  0.40437770568E+01  0.00000000000E+00 0. -1.
</event>
<event>
 7    1  0.1884848E-013  0.7246164E+02  0.7816164E-02  0.1226708E+00
        -11   -1    0    0    0    0  0.00000000000E+00  0.00000000000E+00  0.45593999997E+02  0.45594000000E+02  0.51100000000E-03 0. -1.
         11   -1    0    0    0    0 -0.00000000000E+00 -0.00000000000E+00 -0.45593999997E+02  0.45594000000E+02  0.51100000000E-03 0.  1.
    9900012    2    1    2    0    0  0.11710337829E+02  0.10486233068E+02  0.10177600654E+02  0.72461637537E+02  0.70000087596E+02 0.  0.
        -12    1    1    2    0    0 -0.11710337829E+02 -0.10486233068E+02 -0.10177600654E+02  0.18726362463E+02  0.00000000000E+00 0.  1.
         11    1    3    3    0    0  0.77234539650E+01 -0.46111120081E+01  0.11746024826E+02  0.14794701571E+02  0.51100000000E-03 0. -1.
        -11    1    3    3    0    0  0.13999845678E+02  0.33626934628E+02  0.10691517741E+01  0.36440492550E+02  0.51100000000E-03 0.  1.
        -12    1    3    3    0    0 -0.10012961814E+02 -0.18529589552E+02 -0.26375759462E+01  0.21226443416E+02  0.00000000000E+00 0.  1.
</event>
<event>
 7    1  0.1884848E-013  0.7246149E+02  0.7816164E-02  0.1226708E+00
        -11   -1    0    0    0    0  0.00000000000E+00  0.00000000000E+00  0.45593999997E+02  0.45594000000E+02  0.51100000000E-03 0. -1.
         11   -1    0    0    0    0 -0.00000000000E+00 -0.00000000000E+00 -0.45593999997E+02  0.45594000000E+02  0.51100000000E-03 0.  1.
    9900012    2    1    2    0    0  0.37489770057E+01 -0.89721790667E+01  0.16003975275E+02  0.72461493374E+02  0.69999899797E+02 0.  0.
        -12    1    1    2    0    0 -0.37489770057E+01  0.89721790667E+01 -0.16003975275E+02  0.18726506626E+02  0.00000000000E+00 0.  1.
         11    1    3    3    0    0 -0.17639928252E+02  0.14273866734E+02 -0.49753840050E+01  0.23230686312E+02  0.51100000000E-03 0.  1.
        -11    1    3    3    0    0  0.20097839267E+02 -0.37641476201E+01  0.21538108406E+02  0.29698182848E+02  0.51100000000E-03 0. -1.
         12    1    3    3    0    0  0.12910659903E+01 -0.19481898180E+02 -0.55874912567E+00  0.19532624214E+02  0.00000000000E+00 0. -1.
</event>
<event>
 7    1  0.1884848E-013  0.7246157E+02  0.7816164E-02  0.1226708E+00
        -11   -1    0    0    0    0  0.00000000000E+00  0.00000000000E+00  0.45593999997E+02  0.45594000000E+02  0.51100000000E-03 0.  1.
         11   -1    0    0    0    0 -0.00000000000E+00 -0.00000000000E+00 -0.45593999997E+02  0.45594000000E+02  0.51100000000E-03 0. -1.
    9900012    2    1    2    0    0  0.11372665556E+02  0.11330035243E+02 -0.96422034384E+01  0.72461566607E+02  0.69999995197E+02 0.  0.
        -12    1    1    2    0    0 -0.11372665556E+02 -0.11330035243E+02  0.96422034384E+01  0.18726433393E+02  0.00000000000E+00 0.  1.
         11    1    3    3    0    0  0.20020061393E+02  0.11504498935E+02 -0.26428862855E+02  0.35094745276E+02  0.51100000000E-03 0. -1.
        -11    1    3    3    0    0 -0.14371238586E+02 -0.92024190432E+01 -0.46548796244E+00  0.17071429174E+02  0.51100000000E-03 0.  1.
         12    1    3    3    0    0  0.57238427485E+01  0.90279553512E+01  0.17252147379E+02  0.20295392157E+02  0.00000000000E+00 0. -1.
</event>
<event>
 7    1  0.1884848E-013  0.7246159E+02  0.7816164E-02  0.1226708E+00
        -11   -1    0    0    0    0  0.00000000000E+00  0.00000000000E+00  0.45593999997E+02  0.45594000000E+02  0.51100000000E-03 0. -1.
         11   -1    0    0    0    0 -0.00000000000E+00 -0.00000000000E+00 -0.45593999997E+02  0.45594000000E+02  0.51100000000E-03 0.  1.
    9900012    2    1    2    0    0 -0.17478867608E+02  0.51229123225E+01 -0.43500843832E+01  0.72461594107E+02  0.70000031020E+02 0.  0.
        -12    1    1    2    0    0  0.17478867608E+02 -0.51229123225E+01  0.43500843832E+01  0.18726405893E+02  0.00000000000E+00 0.  1.
         11    1    3    3    0    0  0.60036302022E+01  0.11095836516E+02  0.95461877902E+01  0.15820583591E+02  0.51100000000E-03 0. -1.
        -11    1    3    3    0    0 -0.35299499481E+01 -0.25248826030E+02 -0.13603373773E+02  0.28896635458E+02  0.51100000000E-03 0.  1.
        -12    1    3    3    0    0 -0.19952547863E+02  0.19275901837E+02 -0.29289840007E+00  0.27744375057E+02  0.00000000000E+00 0.  1.
</event>
<event>
 7    1  0.1884848E-013  0.7246153E+02  0.7816164E-02  0.1226708E+00
        -11   -1    0    0    0    0  0.00000000000E+00  0.00000000000E+00  0.45593999997E+02  0.45594000000E+02  0.51100000000E-03 0.  1.
         11   -1    0    0    0    0 -0.00000000000E+00 -0.00000000000E+00 -0.45593999997E+02  0.45594000000E+02  0.51100000000E-03 0. -1.
    9900012    2    1    2    0    0  0.16079905489E+02 -0.36812571077E+01 -0.88637171073E+01  0.72461534893E+02  0.69999953883E+02 0.  0.
        -12    1    1    2    0    0 -0.16079905489E+02  0.36812571077E+01  0.88637171073E+01  0.18726465107E+02  0.00000000000E+00 0.  1.
         11    1    3    3    0    0  0.31567967984E+02  0.14053067966E+02 -0.22163631430E+02  0.41051819452E+02  0.51100000000E-03 0. -1.
        -11    1    3    3    0    0 -0.47621207560E+01 -0.11033141704E+01  0.10290341859E+02  0.11392376051E+02  0.51100000000E-03 0.  1.
         12    1    3    3    0    0 -0.10725941739E+02 -0.16631010903E+02  0.30095724636E+01  0.20017339390E+02  0.00000000000E+00 0. -1.
</event>
<event>
 7    1  0.1884848E-013  0.7246158E+02  0.7816164E-02  0.1226708E+00
        -11   -1    0    0    0    0  0.00000000000E+00  0.00000000000E+00  0.45593999997E+02  0.45594000000E+02  0.51100000000E-03 0. -1.
         11   -1    0    0    0    0 -0.00000000000E+00 -0.00000000000E+00 -0.45593999997E+02  0.45594000000E+02  0.51100000000E-03 0.  1.
    9900012    2    1    2    0    0 -0.26538783671E+01  0.56527882026E+01  0.17654513197E+02  0.72461576928E+02  0.70000008642E+02 0.  0.
        -12    1    1    2    0    0  0.26538783671E+01 -0.56527882026E+01 -0.17654513197E+02  0.18726423072E+02  0.00000000000E+00 0.  1.
         11    1    3    3    0    0 -0.15791751790E+02  0.18308923945E+02  0.24954744829E+02  0.34746732370E+02  0.51100000000E-03 0. -1.
        -11    1    3    3    0    0  0.22436522267E+02 -0.98653673515E+01  0.15761095174E+01  0.24560275362E+02  0.51100000000E-03 0.  1.
        -12    1    3    3    0    0 -0.92986488432E+01 -0.27907683909E+01 -0.88763411498E+01  0.13154569196E+02  0.00000000000E+00 0.  1.
</event>
<event>
 7    1  0.1884848E-013  0.7246164E+02  0.7816164E-02  0.1226708E+00
        -11   -1    0    0    0    0  0.00000000000E+00  0.00000000000E+00  0.45593999997E+02  0.45594000000E+02  0.51100000000E-03 0. -1.
         11   -1    0    0    0    0 -0.00000000000E+00 -0.00000000000E+00 -0.45593999997E+02  0.45594000000E+02  0.51100000000E-03 0.  1.
    9900012    2    1    2    0    0 -0.29944020101E+01  0.17984978235E+02  0.42720762368E+01  0.72461641013E+02  0.70000092125E+02 0.  0.
        -12    1    1    2    0    0  0.29944020101E+01 -0.17984978235E+02 -0.42720762368E+01  0.18726358987E+02  0.00000000000E+00 0.  1.
         11    1    3    3    0    0 -0.23475927250E+02  0.18476151710E+02  0.23673888912E+02  0.38117454778E+02  0.51100000000E-03 0. -1.
        -11    1    3    3    0    0  0.97827729868E+01 -0.79892705764E+01 -0.16807680710E+02  0.21024491023E+02  0.51100000000E-03 0.  1.
        -12    1    3    3    0    0  0.10698752253E+02  0.74980971012E+01 -0.25941319653E+01  0.13319695213E+02  0.00000000000E+00 0.  1.
</event>
<event>
 7    1  0.1884848E-013  0.7246160E+02  0.7816164E-02  0.1226708E+00
        -11   -1    0    0    0    0  0.00000000000E+00  0.00000000000E+00  0.45593999997E+02  0.45594000000E+02  0.51100000000E-03 0.  1.
         11   -1    0    0    0    0 -0.00000000000E+00 -0.00000000000E+00 -0.45593999997E+02  0.45594000000E+02  0.51100000000E-03 0. -1.
    9900012    2    1    2    0    0  0.62543260546E+01 -0.70548882881E+01 -0.16179931046E+02  0.72461595866E+02  0.70000033311E+02 0.  0.
        -12    1    1    2    0    0 -0.62543260546E+01  0.70548882881E+01  0.16179931046E+02  0.18726404134E+02  0.00000000000E+00 0.  1.
         11    1    3    3    0    0  0.17473536915E+02  0.18423627564E+02 -0.24005076534E+02  0.34942785301E+02  0.51100000000E-03 0.  1.
        -11    1    3    3    0    0 -0.13977665705E+02 -0.43013235543E+01  0.68266746513E+01  0.16139393109E+02  0.51100000000E-03 0. -1.
        -12    1    3    3    0    0  0.27584548443E+01 -0.21177192298E+02  0.99847083683E+00  0.21379417456E+02  0.00000000000E+00 0.  1.
</event>
<event>
 7    1  0.1884848E-013  0.7246156E+02  0.7816164E-02  0.1226708E+00
        -11   -1    0    0    0    0  0.00000000000E+00  0.00000000000E+00  0.45593999997E+02  0.45594000000E+02  0.51100000000E-03 0.  1.
         11   -1    0    0    0    0 -0.00000000000E+00 -0.00000000000E+00 -0.45593999997E+02  0.45594000000E+02  0.51100000000E-03 0. -1.
    9900012    2    1    2    0    0 -0.17718378847E+01 -0.95369011497E+01 -0.16018353344E+02  0.72461560486E+02  0.69999987223E+02 0.  0.
        -12    1    1    2    0    0  0.17718378847E+01  0.95369011497E+01  0.16018353344E+02  0.18726439514E+02  0.00000000000E+00 0.  1.
         11    1    3    3    0    0 -0.73778795362E+01 -0.25334974958E+01  0.25119282225E+02  0.26302662522E+02  0.51100000000E-03 0.  1.
        -11    1    3    3    0    0  0.31786208119E-01  0.62305418624E+01 -0.16564408848E+02  0.17697466006E+02  0.51100000000E-03 0. -1.
         12    1    3    3    0    0  0.55742554434E+01 -0.13233945516E+02 -0.24573226720E+02  0.28461431958E+02  0.00000000000E+00 0. -1.
</event>
<event>
 7    1  0.1884848E-013  0.7246112E+02  0.7816164E-02  0.1226709E+00
        -11   -1    0    0    0    0  0.00000000000E+00  0.00000000000E+00  0.45593999997E+02  0.45594000000E+02  0.51100000000E-03 0. -1.
         11   -1    0    0    0    0 -0.00000000000E+00 -0.00000000000E+00 -0.45593999997E+02  0.45594000000E+02  0.51100000000E-03 0.  1.
    9900012    2    1    2    0    0 -0.18426187776E+02  0.32579620447E+01 -0.74657342570E+00  0.72461118665E+02  0.69999411667E+02 0.  0.
        -12    1    1    2    0    0  0.18426187776E+02 -0.32579620447E+01  0.74657342570E+00  0.18726881335E+02  0.00000000000E+00 0.  1.
         11    1    3    3    0    0 -0.27330274809E+02 -0.69739076661E+01  0.12714683250E+01  0.28234658511E+02  0.51100000000E-03 0. -1.
        -11    1    3    3    0    0  0.60013254889E+01  0.25557511477E+02 -0.81162463454E+01  0.27478641807E+02  0.51100000000E-03 0.  1.
        -12    1    3    3    0    0  0.29027615436E+01 -0.15325641766E+02  0.60982045947E+01  0.16747818348E+02  0.00000000000E+00 0.  1.
</event>
<event>
 7    1  0.1884848E-013  0.7246155E+02  0.7816164E-02  0.1226708E+00
        -11   -1    0    0    0    0  0.00000000000E+00  0.00000000000E+00  0.45593999997E+02  0.45594000000E+02  0.51100000000E-03 0.  1.
         11   -1    0    0    0    0 -0.00000000000E+00 -0.00000000000E+00 -0.45593999997E+02  0.45594000000E+02  0.51100000000E-03 0. -1.
    9900012    2    1    2    0    0  0.13737255229E+02 -0.94362127652E+01 -0.85396531775E+01  0.72461548949E+02  0.69999972194E+02 0.  0.
        -12    1    1    2    0    0 -0.13737255229E+02  0.94362127652E+01  0.85396531775E+01  0.18726451051E+02  0.00000000000E+00 0.  1.
         11    1    3    3    0    0 -0.29566973729E+01  0.56415537571E+01 -0.17559511176E+02  0.18679015529E+02  0.51100000000E-03 0. -1.
        -11    1    3    3    0    0  0.45823750264E+01 -0.31931522933E+02  0.50360748881E+01  0.32649385419E+02  0.51100000000E-03 0.  1.
        -12    1    3    3    0    0  0.12111577575E+02  0.16853756411E+02  0.39837831103E+01  0.21133148000E+02  0.00000000000E+00 0.  1.
</event>
<event>
 7    1  0.1884848E-013  0.7246157E+02  0.7816164E-02  0.1226708E+00
        -11   -1    0    0    0    0  0.00000000000E+00  0.00000000000E+00  0.45593999997E+02  0.45594000000E+02  0.51100000000E-03 0. -1.
         11   -1    0    0    0    0 -0.00000000000E+00 -0.00000000000E+00 -0.45593999997E+02  0.45594000000E+02  0.51100000000E-03 0.  1.
    9900012    2    1    2    0    0  0.12182248286E+02  0.71600478206E+01  0.12288442344E+02  0.72461567522E+02  0.69999996389E+02 0.  0.
        -12    1    1    2    0    0 -0.12182248286E+02 -0.71600478206E+01 -0.12288442344E+02  0.18726432478E+02  0.00000000000E+00 0.  1.
         11    1    3    3    0    0 -0.94950413444E+01  0.92428910124E+01  0.84697567415E+01  0.15726526124E+02  0.51100000000E-03 0. -1.
        -11    1    3    3    0    0  0.33579390666E+02 -0.16834242853E+02  0.40401505026E+01  0.37779492139E+02  0.51100000000E-03 0.  1.
        -12    1    3    3    0    0 -0.11902101036E+02  0.14751399661E+02 -0.22146489995E+00  0.18955549260E+02  0.00000000000E+00 0.  1.
</event>
<event>
 7    1  0.1884848E-013  0.7246162E+02  0.7816164E-02  0.1226708E+00
        -11   -1    0    0    0    0  0.00000000000E+00  0.00000000000E+00  0.45593999997E+02  0.45594000000E+02  0.51100000000E-03 0.  1.
         11   -1    0    0    0    0 -0.00000000000E+00 -0.00000000000E+00 -0.45593999997E+02  0.45594000000E+02  0.51100000000E-03 0. -1.
    9900012    2    1    2    0    0  0.15222709825E+02 -0.10904291698E+01 -0.10851605854E+02  0.72461620750E+02  0.70000065728E+02 0.  0.
        -12    1    1    2    0    0 -0.15222709825E+02  0.10904291698E+01  0.10851605854E+02  0.18726379250E+02  0.00000000000E+00 0.  1.
         11    1    3    3    0    0  0.19100362012E+02  0.12578794896E+01 -0.16266423924E+02  0.25119765869E+02  0.51100000000E-03 0. -1.
        -11    1    3    3    0    0 -0.15326387165E+02  0.16618583414E+02 -0.45323328443E+01  0.23056831948E+02  0.51100000000E-03 0.  1.
        -12    1    3    3    0    0  0.11448734979E+02 -0.18966892073E+02  0.99471509149E+01  0.24285022933E+02  0.00000000000E+00 0.  1.
</event>
<event>
 7    1  0.1884848E-013  0.7246154E+02  0.7816164E-02  0.1226708E+00
        -11   -1    0    0    0    0  0.00000000000E+00  0.00000000000E+00  0.45593999997E+02  0.45594000000E+02  0.51100000000E-03 0.  1.
         11   -1    0    0    0    0 -0.00000000000E+00 -0.00000000000E+00 -0.45593999997E+02  0.45594000000E+02  0.51100000000E-03 0. -1.
    9900012    2    1    2    0    0 -0.92802090013E+01  0.15525663735E+02 -0.48489017664E+01  0.72461538459E+02  0.69999958528E+02 0.  0.
        -12    1    1    2    0    0  0.92802090013E+01 -0.15525663735E+02  0.48489017664E+01  0.18726461541E+02  0.00000000000E+00 0.  1.
         11    1    3    3    0    0  0.86578683552E+01  0.36234532056E+02  0.78670962341E+00  0.37262835508E+02  0.51100000000E-03 0. -1.
        -11    1    3    3    0    0 -0.12894798474E+02 -0.55877329262E+01 -0.11556257743E+02  0.18194660762E+02  0.51100000000E-03 0.  1.
         12    1    3    3    0    0 -0.50432788821E+01 -0.15121135395E+02  0.59206463533E+01  0.17004042189E+02  0.00000000000E+00 0. -1.
</event>
<event>
 7    1  0.1884848E-013  0.7246157E+02  0.7816164E-02  0.1226708E+00
        -11   -1    0    0    0    0  0.00000000000E+00  0.00000000000E+00  0.45593999997E+02  0.45594000000E+02  0.51100000000E-03 0.  1.
         11   -1    0    0    0    0 -0.00000000000E+00 -0.00000000000E+00 -0.45593999997E+02  0.45594000000E+02  0.51100000000E-03 0. -1.
    9900012    2    1    2    0    0  0.17782176713E+02  0.34765757699E+01  0.47314685487E+01  0.72461569951E+02  0.69999999553E+02 0.  0.
        -12    1    1    2    0    0 -0.17782176713E+02 -0.34765757699E+01 -0.47314685487E+01  0.18726430049E+02  0.00000000000E+00 0.  1.
         11    1    3    3    0    0  0.14221190786E+01 -0.19967929856E+02 -0.25434555012E+01  0.20179440318E+02  0.51100000000E-03 0. -1.
        -11    1    3    3    0    0  0.20815982356E+02  0.54353957065E+01  0.20327600121E+02  0.29598310338E+02  0.51100000000E-03 0.  1.
         12    1    3    3    0    0 -0.44559247211E+01  0.18009109920E+02 -0.13052676071E+02  0.22683819295E+02  0.00000000000E+00 0. -1.
</event>
<event>
 7    1  0.1884848E-013  0.7246157E+02  0.7816164E-02  0.1226708E+00
        -11   -1    0    0    0    0  0.00000000000E+00  0.00000000000E+00  0.45593999997E+02  0.45594000000E+02  0.51100000000E-03 0.  1.
         11   -1    0    0    0    0 -0.00000000000E+00 -0.00000000000E+00 -0.45593999997E+02  0.45594000000E+02  0.51100000000E-03 0. -1.
    9900012    2    1    2    0    0  0.88591222046E+01  0.16483780177E+02 -0.69300128070E+00  0.72461566652E+02  0.69999995255E+02 0.  0.
        -12    1    1    2    0    0 -0.88591222046E+01 -0.16483780177E+02  0.69300128070E+00  0.18726433348E+02  0.00000000000E+00 0.  1.
         11    1    3    3    0    0 -0.16687087526E+02  0.92522130307E+01  0.92705220353E+00  0.19102925486E+02  0.51100000000E-03 0. -1.
        -11    1    3    3    0    0  0.35839009699E+02  0.12700169235E+02  0.72552873456E+01  0.38708760114E+02  0.51100000000E-03 0.  1.
        -12    1    3    3    0    0 -0.10292799968E+02 -0.54686020888E+01 -0.88753408298E+01  0.14649881052E+02  0.00000000000E+00 0.  1.
</event>
<event>
 7    1  0.1884848E-013  0.7246144E+02  0.7816164E-02  0.1226708E+00
        -11   -1    0    0    0    0  0.00000000000E+00  0.00000000000E+00  0.45593999997E+02  0.45594000000E+02  0.51100000000E-03 0.  1.
         11   -1    0    0    0    0 -0.00000000000E+00 -0.00000000000E+00 -0.45593999997E+02  0.45594000000E+02  0.51100000000E-03 0. -1.
    9900012    2    1    2    0    0 -0.14177211618E+02  0.66293570907E+01 -0.10283101784E+02  0.72461444337E+02  0.69999835917E+02 0.  0.
        -12    1    1    2    0    0  0.14177211618E+02 -0.66293570907E+01  0.10283101784E+02  0.18726555663E+02  0.00000000000E+00 0.  1.
         11    1    3    3    0    0  0.45251440423E+01  0.54843811347E+01 -0.34290548763E+02  0.35019952880E+02  0.51100000000E-03 0. -1.
        -11    1    3    3    0    0 -0.15108097223E+02 -0.80879220517E+01  0.20963712711E+02  0.27076675123E+02  0.51100000000E-03 0.  1.
         12    1    3    3    0    0 -0.35942584382E+01  0.92328980078E+01  0.30437342674E+01  0.10364816334E+02  0.00000000000E+00 0. -1.
</event>
<event>
 7    1  0.1884848E-013  0.7246158E+02  0.7816164E-02  0.1226708E+00
        -11   -1    0    0    0    0  0.00000000000E+00  0.00000000000E+00  0.45593999997E+02  0.45594000000E+02  0.51100000000E-03 0.  1.
         11   -1    0    0    0    0 -0.00000000000E+00 -0.00000000000E+00 -0.45593999997E+02  0.45594000000E+02  0.51100000000E-03 0. -1.
    9900012    2    1    2    0    0  0.33857012427E+01 -0.18354114554E+02 -0.15304858589E+01  0.72461578000E+02  0.70000010038E+02 0.  0.
        -12    1    1    2    0    0 -0.33857012427E+01  0.18354114554E+02  0.15304858589E+01  0.18726422000E+02  0.00000000000E+00 0.  1.
         11    1    3    3    0    0  0.20322320387E+01 -0.34074443877E+02 -0.22231839869E+02  0.40736376825E+02  0.51100000000E-03 0. -1.
        -11    1    3    3    0    0 -0.79223431489E+01  0.10506798857E+02  0.91960508618E+01  0.16053775098E+02  0.51100000000E-03 0.  1.
        -12    1    3    3    0    0  0.92758123529E+01  0.52135304660E+01  0.11505303149E+02  0.15671426076E+02  0.00000000000E+00 0.  1.
</event>
<event>
 7    1  0.1884848E-013  0.7246162E+02  0.7816164E-02  0.1226708E+00
        -11   -1    0    0    0    0  0.00000000000E+00  0.00000000000E+00  0.45593999997E+02  0.45594000000E+02  0.51100000000E-03 0.  1.
         11   -1    0    0    0    0 -0.00000000000E+00 -0.00000000000E+00 -0.45593999997E+02  0.45594000000E+02  0.51100000000E-03 0. -1.
    9900012    2    1    2    0    0 -0.44393667813E+01  0.89868285370E+01 -0.15817911324E+02  0.72461617989E+02  0.70000062131E+02 0.  0.
        -12    1    1    2    0    0  0.44393667813E+01 -0.89868285370E+01  0.15817911324E+02  0.18726382011E+02  0.00000000000E+00 0.  1.
         11    1    3    3    0    0 -0.28260456799E+02 -0.65016360481E+01 -0.20445182386E+02  0.35481406015E+02  0.51100000000E-03 0. -1.
        -11    1    3    3    0    0  0.12196744437E+02  0.30554889489E+01  0.12935943382E+02  0.18039823143E+02  0.51100000000E-03 0.  1.
        -12    1    3    3    0    0  0.11624345581E+02  0.12432975636E+02 -0.83086723198E+01  0.18940388831E+02  0.00000000000E+00 0.  1.
</event>
<event>
 7    1  0.1884848E-013  0.7246155E+02  0.7816164E-02  0.1226708E+00
        -11   -1    0    0    0    0  0.00000000000E+00  0.00000000000E+00  0.45593999997E+02  0.45594000000E+02  0.51100000000E-03 0.  1.
         11   -1    0    0    0    0 -0.00000000000E+00 -0.00000000000E+00 -0.45593999997E+02  0.45594000000E+02  0.51100000000E-03 0. -1.
    9900012    2    1    2    0    0 -0.57266406936E+01 -0.66393827632E+00 -0.17816979257E+02  0.72461548720E+02  0.69999971896E+02 0.  0.
        -12    1    1    2    0    0  0.57266406936E+01  0.66393827632E+00  0.17816979257E+02  0.18726451280E+02  0.00000000000E+00 0.  1.
         11    1    3    3    0    0  0.28485231167E+02  0.15858163173E-01 -0.15828181854E+02  0.32587420689E+02  0.51100000000E-03 0. -1.
        -11    1    3    3    0    0 -0.74286405809E+01  0.71262732267E+01  0.44954375580E+01  0.11232872744E+02  0.51100000000E-03 0.  1.
         12    1    3    3    0    0 -0.26783231280E+02 -0.78060696662E+01 -0.64842349615E+01  0.28641255287E+02  0.00000000000E+00 0. -1.
</event>
<event>
 7    1  0.1884848E-013  0.7246144E+02  0.7816164E-02  0.1226708E+00
        -11   -1    0    0    0    0  0.00000000000E+00  0.00000000000E+00  0.45593999997E+02  0.45594000000E+02  0.51100000000E-03 0.  1.
         11   -1    0    0    0    0 -0.00000000000E+00 -0.00000000000E+00 -0.45593999997E+02  0.45594000000E+02  0.51100000000E-03 0. -1.
    9900012    2    1    2    0    0  0.59206825729E+01 -0.17233243349E+02 -0.43179644669E+01  0.72461441971E+02  0.69999832835E+02 0.  0.
        -12    1    1    2    0    0 -0.59206825729E+01  0.17233243349E+02  0.43179644669E+01  0.18726558029E+02  0.00000000000E+00 0.  1.
         11    1    3    3    0    0  0.34728590881E+01 -0.26992893370E+02 -0.29029185436E+02  0.39791590193E+02  0.51100000000E-03 0. -1.
        -11    1    3    3    0    0 -0.75673479882E+01  0.49048002897E+01  0.16622860925E+02  0.18911407326E+02  0.51100000000E-03 0.  1.
         12    1    3    3    0    0  0.10015171473E+02  0.48548497309E+01  0.80883600435E+01  0.13758444452E+02  0.00000000000E+00 0. -1.
</event>
<event>
 7    1  0.1884848E-013  0.7246161E+02  0.7816164E-02  0.1226708E+00
        -11   -1    0    0    0    0  0.00000000000E+00  0.00000000000E+00  0.45593999997E+02  0.45594000000E+02  0.51100000000E-03 0.  1.
         11   -1    0    0    0    0 -0.00000000000E+00 -0.00000000000E+00 -0.45593999997E+02  0.45594000000E+02  0.51100000000E-03 0. -1.
    9900012    2    1    2    0    0 -0.10653310078E+02 -0.10995964651E+02 -0.10783011427E+02  0.72461612477E+02  0.70000054951E+02 0.  0.
        -12    1    1    2    0    0  0.10653310078E+02  0.10995964651E+02  0.10783011427E+02  0.18726387523E+02  0.00000000000E+00 0.  1.
         11    1    3    3    0    0  0.15454335378E+01  0.21060923745E+02 -0.16089841677E+02  0.26548707676E+02  0.51100000000E-03 0. -1.
        -11    1    3    3    0    0  0.60164261246E+01 -0.24712962583E+02 -0.47636764032E+00  0.25439237986E+02  0.51100000000E-03 0.  1.
         12    1    3    3    0    0 -0.18215169740E+02 -0.73439258137E+01  0.57831978899E+01  0.20473666815E+02  0.00000000000E+00 0. -1.
</event>
<event>
 7    1  0.1884848E-013  0.7246154E+02  0.7816164E-02  0.1226708E+00
        -11   -1    0    0    0    0  0.00000000000E+00  0.00000000000E+00  0.45593999997E+02  0.45594000000E+02  0.51100000000E-03 0.  1.
         11   -1    0    0    0    0 -0.00000000000E+00 -0.00000000000E+00 -0.45593999997E+02  0.45594000000E+02  0.51100000000E-03 0. -1.
    9900012    2    1    2    0    0  0.17137909502E+01  0.17902545711E+02 -0.52193796789E+01  0.72461544206E+02  0.69999966016E+02 0.  0.
        -12    1    1    2    0    0 -0.17137909502E+01 -0.17902545711E+02  0.52193796789E+01  0.18726455794E+02  0.00000000000E+00 0.  1.
         11    1    3    3    0    0 -0.19869388562E+02  0.30437611558E+02 -0.14052779241E+02  0.38970776280E+02  0.51100000000E-03 0. -1.
        -11    1    3    3    0    0  0.58180069349E+01 -0.85135612648E+01  0.13099133458E+02  0.16670849640E+02  0.51100000000E-03 0.  1.
         12    1    3    3    0    0  0.15765172578E+02 -0.40215045823E+01 -0.42657338958E+01  0.16819918287E+02  0.00000000000E+00 0. -1.
</event>
<event>
 7    1  0.1884848E-013  0.7246153E+02  0.7816164E-02  0.1226708E+00
        -11   -1    0    0    0    0  0.00000000000E+00  0.00000000000E+00  0.45593999997E+02  0.45594000000E+02  0.51100000000E-03 0.  1.
         11   -1    0    0    0    0 -0.00000000000E+00 -0.00000000000E+00 -0.45593999997E+02  0.45594000000E+02  0.51100000000E-03 0. -1.
    9900012    2    1    2    0    0  0.18126739676E+01 -0.17349673472E+02  0.68105493806E+01  0.72461533720E+02  0.69999952355E+02 0.  0.
        -12    1    1    2    0    0 -0.18126739676E+01  0.17349673472E+02 -0.68105493806E+01  0.18726466280E+02  0.00000000000E+00 0.  1.
         11    1    3    3    0    0 -0.15346600465E+01  0.80173404993E+01 -0.16727832636E+02  0.18613256435E+02  0.51100000000E-03 0. -1.
        -11    1    3    3    0    0 -0.16931048949E+02 -0.56765160574E+01  0.17382112430E+02  0.24920294658E+02  0.51100000000E-03 0.  1.
         12    1    3    3    0    0  0.20278382963E+02 -0.19690497913E+02  0.61562695870E+01  0.28927982627E+02  0.00000000000E+00 0. -1.
</event>
<event>
 7    1  0.1884848E-013  0.7246156E+02  0.7816164E-02  0.1226708E+00
        -11   -1    0    0    0    0  0.00000000000E+00  0.00000000000E+00  0.45593999997E+02  0.45594000000E+02  0.51100000000E-03 0.  1.
         11   -1    0    0    0    0 -0.00000000000E+00 -0.00000000000E+00 -0.45593999997E+02  0.45594000000E+02  0.51100000000E-03 0. -1.
    9900012    2    1    2    0    0  0.58303828128E+01  0.17438157847E+02  0.35492047817E+01  0.72461559671E+02  0.69999986161E+02 0.  0.
        -12    1    1    2    0    0 -0.58303828128E+01 -0.17438157847E+02 -0.35492047817E+01  0.18726440329E+02  0.00000000000E+00 0.  1.
         11    1    3    3    0    0 -0.15781363204E+02 -0.12803331809E+02 -0.12519078396E+02  0.23868474064E+02  0.51100000000E-03 0. -1.
        -11    1    3    3    0    0  0.13584665020E+02  0.53139787359E+01 -0.45306791525E+01  0.15274440990E+02  0.51100000000E-03 0.  1.
         12    1    3    3    0    0  0.80270809970E+01  0.24927510920E+02  0.20598962330E+02  0.33318644617E+02  0.00000000000E+00 0. -1.
</event>
<event>
 7    1  0.1884848E-013  0.7246166E+02  0.7816164E-02  0.1226708E+00
        -11   -1    0    0    0    0  0.00000000000E+00  0.00000000000E+00  0.45593999997E+02  0.45594000000E+02  0.51100000000E-03 0. -1.
         11   -1    0    0    0    0 -0.00000000000E+00 -0.00000000000E+00 -0.45593999997E+02  0.45594000000E+02  0.51100000000E-03 0.  1.
    9900012    2    1    2    0    0 -0.16217702438E+02  0.91029767797E+01 -0.21903525794E+01  0.72461662850E+02  0.70000120571E+02 0.  0.
        -12    1    1    2    0    0  0.16217702438E+02 -0.91029767797E+01  0.21903525794E+01  0.18726337150E+02  0.00000000000E+00 0.  1.
         11    1    3    3    0    0 -0.96421694440E+01 -0.17867680407E+02 -0.41957680174E+01  0.20732339575E+02  0.51100000000E-03 0.  1.
        -11    1    3    3    0    0  0.46075873026E+01  0.29242025809E+02  0.16017485518E+02  0.33658368599E+02  0.51100000000E-03 0. -1.
         12    1    3    3    0    0 -0.11183120297E+02 -0.22713686219E+01 -0.14012070080E+02  0.18070954677E+02  0.00000000000E+00 0. -1.
</event>
<event>
 7    1  0.1884848E-013  0.7246160E+02  0.7816164E-02  0.1226708E+00
        -11   -1    0    0    0    0  0.00000000000E+00  0.00000000000E+00  0.45593999997E+02  0.45594000000E+02  0.51100000000E-03 0.  1.
         11   -1    0    0    0    0 -0.00000000000E+00 -0.00000000000E+00 -0.45593999997E+02  0.45594000000E+02  0.51100000000E-03 0. -1.
    9900012    2    1    2    0    0  0.34594204343E+01 -0.12830859609E+02 -0.13193919770E+02  0.72461599733E+02  0.70000038350E+02 0.  0.
        -12    1    1    2    0    0 -0.34594204343E+01  0.12830859609E+02  0.13193919770E+02  0.18726400267E+02  0.00000000000E+00 0.  1.
         11    1    3    3    0    0 -0.31704209804E+02 -0.61011850158E+01 -0.13544261288E+02  0.35011832171E+02  0.51100000000E-03 0. -1.
        -11    1    3    3    0    0  0.25843839130E+02 -0.24922827186E+01  0.45943573685E+01  0.26367093394E+02  0.51100000000E-03 0.  1.
         12    1    3    3    0    0  0.93197911077E+01 -0.42373918744E+01 -0.42440158508E+01  0.11082674169E+02  0.00000000000E+00 0. -1.
</event>
<event>
 7    1  0.1884848E-013  0.7246156E+02  0.7816164E-02  0.1226708E+00
        -11   -1    0    0    0    0  0.00000000000E+00  0.00000000000E+00  0.45593999997E+02  0.45594000000E+02  0.51100000000E-03 0.  1.
         11   -1    0    0    0    0 -0.00000000000E+00 -0.00000000000E+00 -0.45593999997E+02  0.45594000000E+02  0.51100000000E-03 0. -1.
    9900012    2    1    2    0    0  0.80540804732E+01 -0.11848407866E+02 -0.12059294416E+02  0.72461559787E+02  0.69999986312E+02 0.  0.
        -12    1    1    2    0    0 -0.80540804732E+01  0.11848407866E+02  0.12059294416E+02  0.18726440213E+02  0.00000000000E+00 0.  1.
         11    1    3    3    0    0  0.38036183225E+01 -0.95904872345E+01 -0.25634883984E+02  0.27633172726E+02  0.51100000000E-03 0. -1.
        -11    1    3    3    0    0 -0.15638437748E+02  0.10572557991E+02  0.39981417392E+01  0.19295721165E+02  0.51100000000E-03 0.  1.
        -12    1    3    3    0    0  0.19888899898E+02 -0.12830478623E+02  0.95774478291E+01  0.25532665896E+02  0.00000000000E+00 0.  1.
</event>
<event>
 7    1  0.1884848E-013  0.7246157E+02  0.7816164E-02  0.1226708E+00
        -11   -1    0    0    0    0  0.00000000000E+00  0.00000000000E+00  0.45593999997E+02  0.45594000000E+02  0.51100000000E-03 0. -1.
         11   -1    0    0    0    0 -0.00000000000E+00 -0.00000000000E+00 -0.45593999997E+02  0.45594000000E+02  0.51100000000E-03 0.  1.
    9900012    2    1    2    0    0  0.91667848608E+01 -0.14426714873E+02  0.76497723743E+01  0.72461573109E+02  0.70000003667E+02 0.  0.
        -12    1    1    2    0    0 -0.91667848608E+01  0.14426714873E+02 -0.76497723743E+01  0.18726426891E+02  0.00000000000E+00 0.  1.
         11    1    3    3    0    0 -0.11161804884E+01 -0.99975843735E+01  0.26341516758E+02  0.28197039872E+02  0.51100000000E-03 0. -1.
        -11    1    3    3    0    0  0.53822137553E+01 -0.20914031418E+02 -0.15955261493E+02  0.26850238446E+02  0.51100000000E-03 0.  1.
         12    1    3    3    0    0  0.49007515939E+01  0.16484900918E+02 -0.27364828904E+01  0.17414294791E+02  0.00000000000E+00 0. -1.
</event>
<event>
 7    1  0.1884848E-013  0.7246157E+02  0.7816164E-02  0.1226708E+00
        -11   -1    0    0    0    0  0.00000000000E+00  0.00000000000E+00  0.45593999997E+02  0.45594000000E+02  0.51100000000E-03 0.  1.
         11   -1    0    0    0    0 -0.00000000000E+00 -0.00000000000E+00 -0.45593999997E+02  0.45594000000E+02  0.51100000000E-03 0. -1.
    9900012    2    1    2    0    0  0.43671486133E+01  0.17386385617E+02  0.54148643423E+01  0.72461570878E+02  0.70000000760E+02 0.  0.
        -12    1    1    2    0    0 -0.43671486133E+01 -0.17386385617E+02 -0.54148643423E+01  0.18726429122E+02  0.00000000000E+00 0.  1.
         11    1    3    3    0    0  0.71687898830E+01  0.27754670100E+02 -0.10068957785E+02  0.30382514246E+02  0.51100000000E-03 0. -1.
        -11    1    3    3    0    0  0.50443965724E+01 -0.23110828562E+02  0.61462984571E+01  0.24440403405E+02  0.51100000000E-03 0.  1.
        -12    1    3    3    0    0 -0.78460378420E+01  0.12742544078E+02  0.93375236697E+01  0.17638653228E+02  0.00000000000E+00 0.  1.
</event>
<event>
 7    1  0.1884848E-013  0.7246150E+02  0.7816164E-02  0.1226708E+00
        -11   -1    0    0    0    0  0.00000000000E+00  0.00000000000E+00  0.45593999997E+02  0.45594000000E+02  0.51100000000E-03 0.  1.
         11   -1    0    0    0    0 -0.00000000000E+00 -0.00000000000E+00 -0.45593999997E+02  0.45594000000E+02  0.51100000000E-03 0. -1.
    9900012    2    1    2    0    0  0.55010239103E+01  0.16026084323E+02 -0.79740190522E+01  0.72461504796E+02  0.69999914676E+02 0.  0.
        -12    1    1    2    0    0 -0.55010239103E+01 -0.16026084323E+02  0.79740190522E+01  0.18726495204E+02  0.00000000000E+00 0.  1.
         11    1    3    3    0    0  0.18912709128E+02 -0.15711086263E+02 -0.15992323768E+02  0.29330585025E+02  0.51100000000E-03 0. -1.
        -11    1    3    3    0    0 -0.18603018625E+02  0.12452321766E+02  0.35487791638E+01  0.22665534477E+02  0.51100000000E-03 0.  1.
        -12    1    3    3    0    0  0.51913334072E+01  0.19284848820E+02  0.44695255521E+01  0.20465385294E+02  0.00000000000E+00 0.  1.
</event>
<event>
 7    1  0.1884848E-013  0.7246158E+02  0.7816164E-02  0.1226708E+00
        -11   -1    0    0    0    0  0.00000000000E+00  0.00000000000E+00  0.45593999997E+02  0.45594000000E+02  0.51100000000E-03 0. -1.
         11   -1    0    0    0    0 -0.00000000000E+00 -0.00000000000E+00 -0.45593999997E+02  0.45594000000E+02  0.51100000000E-03 0.  1.
    9900012    2    1    2    0    0 -0.13479394549E+02 -0.87238386075E+01 -0.96373922776E+01  0.72461581032E+02  0.70000013987E+02 0.  0.
        -12    1    1    2    0    0  0.13479394549E+02  0.87238386075E+01  0.96373922776E+01  0.18726418968E+02  0.00000000000E+00 0.  1.
         11    1    3    3    0    0  0.20114817580E+01 -0.22015180598E+01 -0.32927895022E+02  0.33062652820E+02  0.51100000000E-03 0. -1.
        -11    1    3    3    0    0 -0.11972501785E+01  0.99029740053E+01  0.81055580987E+01  0.12853107581E+02  0.51100000000E-03 0.  1.
         12    1    3    3    0    0 -0.14293626129E+02 -0.16425294553E+02  0.15184944646E+02  0.26545820631E+02  0.00000000000E+00 0. -1.
</event>
<event>
 7    1  0.1884848E-013  0.7246159E+02  0.7816164E-02  0.1226708E+00
        -11   -1    0    0    0    0  0.00000000000E+00  0.00000000000E+00  0.45593999997E+02  0.45594000000E+02  0.51100000000E-03 0.  1.
         11   -1    0    0    0    0 -0.00000000000E+00 -0.00000000000E+00 -0.45593999997E+02  0.45594000000E+02  0.51100000000E-03 0. -1.
    9900012    2    1    2    0    0  0.93088106951E+01  0.96158526869E+01 -0.13098088792E+02  0.72461587918E+02  0.70000022958E+02 0.  0.
        -12    1    1    2    0    0 -0.93088106951E+01 -0.96158526869E+01  0.13098088792E+02  0.18726412082E+02  0.00000000000E+00 0.  1.
         11    1    3    3    0    0  0.11442814707E+02  0.56848020455E+01 -0.68968054603E+01  0.14519673155E+02  0.51100000000E-03 0. -1.
        -11    1    3    3    0    0 -0.28493241918E+02 -0.44255036239E+00  0.50666035639E+01  0.28943585779E+02  0.51100000000E-03 0.  1.
        -12    1    3    3    0    0  0.26359237907E+02  0.43736010038E+01 -0.11267886896E+02  0.28998328984E+02  0.00000000000E+00 0.  1.
</event>
<event>
 7    1  0.1884848E-013  0.7246159E+02  0.7816164E-02  0.1226708E+00
        -11   -1    0    0    0    0  0.00000000000E+00  0.00000000000E+00  0.45593999997E+02  0.45594000000E+02  0.51100000000E-03 0.  1.
         11   -1    0    0    0    0 -0.00000000000E+00 -0.00000000000E+00 -0.45593999997E+02  0.45594000000E+02  0.51100000000E-03 0. -1.
    9900012    2    1    2    0    0  0.12821439929E+02  0.12215786777E+02 -0.60879918605E+01  0.72461590484E+02  0.70000026301E+02 0.  0.
        -12    1    1    2    0    0 -0.12821439929E+02 -0.12215786777E+02  0.60879918605E+01  0.18726409516E+02  0.00000000000E+00 0.  1.
         11    1    3    3    0    0  0.89659591032E+01  0.25722210778E+02  0.93714701382E+01  0.28807030440E+02  0.51100000000E-03 0. -1.
        -11    1    3    3    0    0  0.13115777311E+02 -0.11365746707E+02  0.74234993913E+01  0.18876232573E+02  0.51100000000E-03 0.  1.
         12    1    3    3    0    0 -0.92602964852E+01 -0.21406772944E+01 -0.22882961390E+02  0.24778327471E+02  0.00000000000E+00 0. -1.
</event>
<event>
 7    1  0.1884848E-013  0.7246152E+02  0.7816164E-02  0.1226708E+00
        -11   -1    0    0    0    0  0.00000000000E+00  0.00000000000E+00  0.45593999997E+02  0.45594000000E+02  0.51100000000E-03 0.  1.
         11   -1    0    0    0    0 -0.00000000000E+00 -0.00000000000E+00 -0.45593999997E+02  0.45594000000E+02  0.51100000000E-03 0. -1.
    9900012    2    1    2    0    0 -0.71478578329E+01  0.13021047604E+02 -0.11403575488E+02  0.72461519119E+02  0.69999933334E+02 0.  0.
        -12    1    1    2    0    0  0.71478578329E+01 -0.13021047604E+02  0.11403575488E+02  0.18726480881E+02  0.00000000000E+00 0.  1.
         11    1    3    3    0    0 -0.16238653470E+02  0.26760730625E+01 -0.24626751317E+02  0.29619792610E+02  0.51100000000E-03 0. -1.
        -11    1    3    3    0    0  0.22654136616E+01 -0.93996120100E+01  0.18868372612E+02  0.21201421893E+02  0.51100000000E-03 0.  1.
        -12    1    3    3    0    0  0.68253819752E+01  0.19744586551E+02 -0.56451967822E+01  0.21640304616E+02  0.00000000000E+00 0.  1.
</event>
<event>
 7    1  0.1884848E-013  0.7246157E+02  0.7816164E-02  0.1226708E+00
        -11   -1    0    0    0    0  0.00000000000E+00  0.00000000000E+00  0.45593999997E+02  0.45594000000E+02  0.51100000000E-03 0.  1.
         11   -1    0    0    0    0 -0.00000000000E+00 -0.00000000000E+00 -0.45593999997E+02  0.45594000000E+02  0.51100000000E-03 0. -1.
    9900012    2    1    2    0    0 -0.18033471593E+02  0.48184542794E+01 -0.15018336278E+01  0.72461572055E+02  0.70000002294E+02 0.  0.
        -12    1    1    2    0    0  0.18033471593E+02 -0.48184542794E+01  0.15018336278E+01  0.18726427945E+02  0.00000000000E+00 0.  1.
         11    1    3    3    0    0  0.17273348053E+01 -0.26546198248E+01 -0.11187277303E+02  0.11626945672E+02  0.51100000000E-03 0. -1.
        -11    1    3    3    0    0  0.10792942715E+02 -0.52707230064E+01  0.22363642087E+02  0.25385047195E+02  0.51100000000E-03 0.  1.
        -12    1    3    3    0    0 -0.30553749113E+02  0.12743797111E+02 -0.12678198411E+02  0.35449579188E+02  0.00000000000E+00 0.  1.
</event>
<event>
 7    1  0.1884848E-013  0.7246154E+02  0.7816164E-02  0.1226708E+00
        -11   -1    0    0    0    0  0.00000000000E+00  0.00000000000E+00  0.45593999997E+02  0.45594000000E+02  0.51100000000E-03 0.  1.
         11   -1    0    0    0    0 -0.00000000000E+00 -0.00000000000E+00 -0.45593999997E+02  0.45594000000E+02  0.51100000000E-03 0. -1.
    9900012    2    1    2    0    0  0.74074701121E+01  0.90317517063E+01 -0.14636842321E+02  0.72461539964E+02  0.69999960489E+02 0.  0.
        -12    1    1    2    0    0 -0.74074701121E+01 -0.90317517063E+01  0.14636842321E+02  0.18726460036E+02  0.00000000000E+00 0.  1.
         11    1    3    3    0    0 -0.14863496995E+02 -0.13275848483E+02  0.22122505784E+01  0.20051577213E+02  0.51100000000E-03 0. -1.
        -11    1    3    3    0    0  0.82107319819E+01  0.29788286516E+02 -0.19099107444E+02  0.36325391102E+02  0.51100000000E-03 0.  1.
        -12    1    3    3    0    0  0.14060235125E+02 -0.74806863271E+01  0.22500145452E+01  0.16084571649E+02  0.00000000000E+00 0.  1.
</event>
<event>
 7    1  0.1884848E-013  0.7246156E+02  0.7816164E-02  0.1226708E+00
        -11   -1    0    0    0    0  0.00000000000E+00  0.00000000000E+00  0.45593999997E+02  0.45594000000E+02  0.51100000000E-03 0. -1.
         11   -1    0    0    0    0 -0.00000000000E+00 -0.00000000000E+00 -0.45593999997E+02  0.45594000000E+02  0.51100000000E-03 0.  1.
    9900012    2    1    2    0    0  0.13164594064E+02  0.50174361825E+01  0.12336875498E+02  0.72461556137E+02  0.69999981557E+02 0.  0.
        -12    1    1    2    0    0 -0.13164594064E+02 -0.50174361825E+01 -0.12336875498E+02  0.18726443863E+02  0.00000000000E+00 0.  1.
         11    1    3    3    0    0 -0.67944162913E+01  0.75948221558E+01  0.29871032926E+01  0.10619237386E+02  0.51100000000E-03 0. -1.
        -11    1    3    3    0    0  0.37568256517E+02 -0.34609445457E+01  0.18454298843E+02  0.41998966427E+02  0.51100000000E-03 0.  1.
        -12    1    3    3    0    0 -0.17609246162E+02  0.88355857247E+00 -0.91045266380E+01  0.19843352324E+02  0.00000000000E+00 0.  1.
</event>
<event>
 7    1  0.1884848E-013  0.7246094E+02  0.7816164E-02  0.1226710E+00
        -11   -1    0    0    0    0  0.00000000000E+00  0.00000000000E+00  0.45593999997E+02  0.45594000000E+02  0.51100000000E-03 0. -1.
         11   -1    0    0    0    0 -0.00000000000E+00 -0.00000000000E+00 -0.45593999997E+02  0.45594000000E+02  0.51100000000E-03 0.  1.
    9900012    2    1    2    0    0  0.14085488841E+02  0.64684509860E+01  0.10510033901E+02  0.72460942926E+02  0.69999182731E+02 0.  0.
        -12    1    1    2    0    0 -0.14085488841E+02 -0.64684509860E+01 -0.10510033901E+02  0.18727057074E+02  0.00000000000E+00 0.  1.
         11    1    3    3    0    0  0.26900839795E+02  0.58378313080E+00  0.21274759893E+02  0.34301769534E+02  0.51100000000E-03 0. -1.
        -11    1    3    3    0    0  0.57264862978E+00  0.17958018686E+02 -0.88541610716E+01  0.20030340240E+02  0.51100000000E-03 0.  1.
         12    1    3    3    0    0 -0.13387999583E+02 -0.12073350831E+02 -0.19105649206E+01  0.18128833152E+02  0.00000000000E+00 0. -1.
</event>
<event>
 7    1  0.1884848E-013  0.7246152E+02  0.7816164E-02  0.1226708E+00
        -11   -1    0    0    0    0  0.00000000000E+00  0.00000000000E+00  0.45593999997E+02  0.45594000000E+02  0.51100000000E-03 0. -1.
         11   -1    0    0    0    0 -0.00000000000E+00 -0.00000000000E+00 -0.45593999997E+02  0.45594000000E+02  0.51100000000E-03 0.  1.
    9900012    2    1    2    0    0 -0.54629779665E+01  0.14005156002E+02  0.11166586121E+02  0.72461516922E+02  0.69999930472E+02 0.  0.
        -12    1    1    2    0    0  0.54629779665E+01 -0.14005156002E+02 -0.11166586121E+02  0.18726483078E+02  0.00000000000E+00 0.  1.
         11    1    3    3    0    0 -0.45023376341E+01 -0.32323601350E+01  0.13546761977E+02  0.14636733124E+02  0.51100000000E-03 0. -1.
        -11    1    3    3    0    0 -0.45370691168E+01  0.16381133917E+02 -0.27558685557E+02  0.32379124362E+02  0.51100000000E-03 0.  1.
        -12    1    3    3    0    0  0.35764287843E+01  0.85638221901E+00  0.25178509701E+02  0.25445659436E+02  0.00000000000E+00 0.  1.
</event>
<event>
 7    1  0.1884848E-013  0.7246155E+02  0.7816164E-02  0.1226708E+00
        -11   -1    0    0    0    0  0.00000000000E+00  0.00000000000E+00  0.45593999997E+02  0.45594000000E+02  0.51100000000E-03 0.  1.
         11   -1    0    0    0    0 -0.00000000000E+00 -0.00000000000E+00 -0.45593999997E+02  0.45594000000E+02  0.51100000000E-03 0. -1.
    9900012    2    1    2    0    0  0.16648780305E+02  0.78326414089E-01 -0.85727435241E+01  0.72461549396E+02  0.69999972776E+02 0.  0.
        -12    1    1    2    0    0 -0.16648780305E+02 -0.78326414089E-01  0.85727435241E+01  0.18726450604E+02  0.00000000000E+00 0.  1.
         11    1    3    3    0    0 -0.13804895062E+02 -0.61269409001E+01  0.18900378461E+01  0.15221260650E+02  0.51100000000E-03 0.  1.
        -11    1    3    3    0    0  0.28073251932E+02  0.24704648667E+02 -0.93959933286E+01  0.38557902312E+02  0.51100000000E-03 0. -1.
        -12    1    3    3    0    0  0.23804234350E+01 -0.18499381353E+02 -0.10667880416E+01  0.18682386434E+02  0.00000000000E+00 0.  1.
</event>
<event>
 7    1  0.1884848E-013  0.7246153E+02  0.7816164E-02  0.1226708E+00
        -11   -1    0    0    0    0  0.00000000000E+00  0.00000000000E+00  0.45593999997E+02  0.45594000000E+02  0.51100000000E-03 0.  1.
         11   -1    0    0    0    0 -0.00000000000E+00 -0.00000000000E+00 -0.45593999997E+02  0.45594000000E+02  0.51100000000E-03 0. -1.
    9900012    2    1    2    0    0 -0.26739895797E+01  0.12951730004E+02 -0.13258326407E+02  0.72461528109E+02  0.69999945046E+02 0.  0.
        -12    1    1    2    0    0  0.26739895797E+01 -0.12951730004E+02  0.13258326407E+02  0.18726471891E+02  0.00000000000E+00 0.  1.
         11    1    3    3    0    0  0.93863565759E+01 -0.10330116252E+02 -0.74091357642E+01  0.15802224039E+02  0.51100000000E-03 0.  1.
        -11    1    3    3    0    0 -0.13018662029E+02  0.28323367977E+02 -0.23011818069E+02  0.38745870821E+02  0.51100000000E-03 0. -1.
        -12    1    3    3    0    0  0.95831587312E+00 -0.50415217218E+01  0.17162627427E+02  0.17913433249E+02  0.00000000000E+00 0.  1.
</event>
<event>
 7    1  0.1884848E-013  0.7246167E+02  0.7816164E-02  0.1226708E+00
        -11   -1    0    0    0    0  0.00000000000E+00  0.00000000000E+00  0.45593999997E+02  0.45594000000E+02  0.51100000000E-03 0. -1.
         11   -1    0    0    0    0 -0.00000000000E+00 -0.00000000000E+00 -0.45593999997E+02  0.45594000000E+02  0.51100000000E-03 0.  1.
    9900012    2    1    2    0    0  0.13938616857E+02  0.12363173520E+02  0.18820606201E+01  0.72461674905E+02  0.70000136275E+02 0.  0.
        -12    1    1    2    0    0 -0.13938616857E+02 -0.12363173520E+02 -0.18820606201E+01  0.18726325095E+02  0.00000000000E+00 0.  1.
         11    1    3    3    0    0  0.25827113589E+02  0.69299447923E+01  0.17766297588E+02  0.32104598758E+02  0.51100000000E-03 0. -1.
        -11    1    3    3    0    0 -0.22299598359E+02  0.36062738785E+01 -0.16803471289E+01  0.22651729845E+02  0.51100000000E-03 0.  1.
        -12    1    3    3    0    0  0.10411101626E+02  0.18269548492E+01 -0.14203889839E+02  0.17705346302E+02  0.00000000000E+00 0.  1.
</event>
<event>
 8    1  0.1884848E-013  0.7246160E+02  0.7816164E-02  0.1226708E+00
        -11   -1    0    0    0    0  0.00000000000E+00  0.00000000000E+00  0.45593999997E+02  0.45594000000E+02  0.51100000000E-03 0. -1.
         11   -1    0    0    0    0 -0.00000000000E+00 -0.00000000000E+00 -0.45593999997E+02  0.45594000000E+02  0.51100000000E-03 0.  1.
    9900012    2    1    2    0    0  0.98212328791E+01  0.99861291428E+00  0.15913021306E+02  0.72461599115E+02  0.70000037544E+02 0.  0.
        -24    2    3    3    0    0  0.73263236803E+01 -0.96230279342E+01  0.17056335164E+01  0.54548093196E+02  0.53163028510E+02 0.  0.
        -12    1    1    2    0    0 -0.98212328791E+01 -0.99861291428E+00 -0.15913021306E+02  0.18726400885E+02  0.00000000000E+00 0.  1.
         11    1    4    4    0    0 -0.19358259296E+02 -0.17288059316E+02  0.54878407839E+01  0.26528015278E+02  0.51100000000E-03 0. -1.
        -11    1    3    3    0    0  0.24949091988E+01  0.10621640848E+02  0.14207387790E+02  0.17913505919E+02  0.51100000000E-03 0.  1.
        -12    1    4    4    0    0  0.26684582976E+02  0.76650313818E+01 -0.37822072675E+01  0.28020077918E+02  0.00000000000E+00 0.  1.
</event>
<event>
 7    1  0.1884848E-013  0.7246157E+02  0.7816164E-02  0.1226708E+00
        -11   -1    0    0    0    0  0.00000000000E+00  0.00000000000E+00  0.45593999997E+02  0.45594000000E+02  0.51100000000E-03 0.  1.
         11   -1    0    0    0    0 -0.00000000000E+00 -0.00000000000E+00 -0.45593999997E+02  0.45594000000E+02  0.51100000000E-03 0. -1.
    9900012    2    1    2    0    0 -0.18000170592E+02 -0.47590019243E+01 -0.20062164330E+01  0.72461570948E+02  0.70000000852E+02 0.  0.
        -12    1    1    2    0    0  0.18000170592E+02  0.47590019243E+01  0.20062164330E+01  0.18726429052E+02  0.00000000000E+00 0.  1.
         11    1    3    3    0    0  0.19569572974E+02  0.11854123995E+02 -0.12096138679E+02  0.25880591440E+02  0.51100000000E-03 0. -1.
        -11    1    3    3    0    0 -0.37230005208E+02 -0.10595660125E+02  0.11520601924E+02  0.40386452805E+02  0.51100000000E-03 0.  1.
        -12    1    3    3    0    0 -0.33973835816E+00 -0.60174657940E+01 -0.14306796778E+01  0.61945267030E+01  0.00000000000E+00 0.  1.
</event>
<event>
 7    1  0.1884848E-013  0.7246159E+02  0.7816164E-02  0.1226708E+00
        -11   -1    0    0    0    0  0.00000000000E+00  0.00000000000E+00  0.45593999997E+02  0.45594000000E+02  0.51100000000E-03 0.  1.
         11   -1    0    0    0    0 -0.00000000000E+00 -0.00000000000E+00 -0.45593999997E+02  0.45594000000E+02  0.51100000000E-03 0. -1.
    9900012    2    1    2    0    0 -0.15827573995E+02 -0.74833058465E+01 -0.66457937457E+01  0.72461587117E+02  0.70000021914E+02 0.  0.
        -12    1    1    2    0    0  0.15827573995E+02  0.74833058465E+01  0.66457937457E+01  0.18726412883E+02  0.00000000000E+00 0.  1.
         11    1    3    3    0    0 -0.28598677689E+01 -0.20593110619E+02  0.23964630289E+02  0.31726306967E+02  0.51100000000E-03 0.  1.
        -11    1    3    3    0    0 -0.47863818179E+01  0.89292876241E+01 -0.29842930813E+02  0.31515744448E+02  0.51100000000E-03 0. -1.
        -12    1    3    3    0    0 -0.81813244083E+01  0.41805171484E+01 -0.76749322225E+00  0.92195357014E+01  0.00000000000E+00 0.  1.
</event>
<event>
 7    1  0.1884848E-013  0.7246208E+02  0.7816164E-02  0.1226707E+00
        -11   -1    0    0    0    0  0.00000000000E+00  0.00000000000E+00  0.45593999997E+02  0.45594000000E+02  0.51100000000E-03 0.  1.
         11   -1    0    0    0    0 -0.00000000000E+00 -0.00000000000E+00 -0.45593999997E+02  0.45594000000E+02  0.51100000000E-03 0. -1.
    9900012    2    1    2    0    0  0.16090372268E+02 -0.79477590100E+01 -0.53472649389E+01  0.72462076916E+02  0.70000659966E+02 0.  0.
        -12    1    1    2    0    0 -0.16090372268E+02  0.79477590100E+01  0.53472649389E+01  0.18725923084E+02  0.00000000000E+00 0.  1.
         11    1    3    3    0    0 -0.20226588885E+02  0.71533583674E+01 -0.13485591622E+02  0.25340611980E+02  0.51100000000E-03 0. -1.
        -11    1    3    3    0    0  0.32259583217E+02 -0.46338928678E+01  0.12735344734E+02  0.34990608428E+02  0.51100000000E-03 0.  1.
         12    1    3    3    0    0  0.40573779372E+01 -0.10467224510E+02 -0.45970180504E+01  0.12130856508E+02  0.00000000000E+00 0. -1.
</event>
<event>
 7    1  0.1884848E-013  0.7246178E+02  0.7816164E-02  0.1226707E+00
        -11   -1    0    0    0    0  0.00000000000E+00  0.00000000000E+00  0.45593999997E+02  0.45594000000E+02  0.51100000000E-03 0. -1.
         11   -1    0    0    0    0 -0.00000000000E+00 -0.00000000000E+00 -0.45593999997E+02  0.45594000000E+02  0.51100000000E-03 0.  1.
    9900012    2    1    2    0    0 -0.14106279089E+02 -0.31217125952E+01  0.11913820185E+02  0.72461780129E+02  0.70000273347E+02 0.  0.
        -12    1    1    2    0    0  0.14106279089E+02  0.31217125952E+01 -0.11913820185E+02  0.18726219871E+02  0.00000000000E+00 0.  1.
         11    1    3    3    0    0 -0.51500350617E+00 -0.50443971448E+01  0.11638438789E+02  0.12695055292E+02  0.51100000000E-03 0. -1.
        -11    1    3    3    0    0 -0.17077526405E+02 -0.38018404568E+01 -0.26727429501E+02  0.31944504801E+02  0.51100000000E-03 0.  1.
        -12    1    3    3    0    0  0.34862508214E+01  0.57245250063E+01  0.27002810898E+02  0.27822220036E+02  0.00000000000E+00 0.  1.
</event>
<event>
 7    1  0.1884848E-013  0.7246167E+02  0.7816164E-02  0.1226708E+00
        -11   -1    0    0    0    0  0.00000000000E+00  0.00000000000E+00  0.45593999997E+02  0.45594000000E+02  0.51100000000E-03 0. -1.
         11   -1    0    0    0    0 -0.00000000000E+00 -0.00000000000E+00 -0.45593999997E+02  0.45594000000E+02  0.51100000000E-03 0.  1.
    9900012    2    1    2    0    0  0.16730944682E+02  0.45103323309E+01 -0.70998418686E+01  0.72461671950E+02  0.70000132425E+02 0.  0.
        -12    1    1    2    0    0 -0.16730944682E+02 -0.45103323309E+01  0.70998418686E+01  0.18726328050E+02  0.00000000000E+00 0.  1.
         11    1    3    3    0    0 -0.30586989763E+01 -0.17276476831E+02  0.11934802067E+02  0.21219608661E+02  0.51100000000E-03 0. -1.
        -11    1    3    3    0    0  0.24316553012E+02  0.25693199736E+00 -0.41250463833E+01  0.24665294897E+02  0.51100000000E-03 0.  1.
        -12    1    3    3    0    0 -0.45269093538E+01  0.21529877164E+02 -0.14909597552E+02  0.26576768392E+02  0.00000000000E+00 0.  1.
</event>
<event>
 7    1  0.1884848E-013  0.7246158E+02  0.7816164E-02  0.1226708E+00
        -11   -1    0    0    0    0  0.00000000000E+00  0.00000000000E+00  0.45593999997E+02  0.45594000000E+02  0.51100000000E-03 0.  1.
         11   -1    0    0    0    0 -0.00000000000E+00 -0.00000000000E+00 -0.45593999997E+02  0.45594000000E+02  0.51100000000E-03 0. -1.
    9900012    2    1    2    0    0  0.35146865749E+01  0.10985735888E+02 -0.14752611119E+02  0.72461576167E+02  0.70000007651E+02 0.  0.
        -12    1    1    2    0    0 -0.35146865749E+01 -0.10985735888E+02  0.14752611119E+02  0.18726423833E+02  0.00000000000E+00 0.  1.
         11    1    3    3    0    0  0.57541561632E+01  0.26121622816E+02 -0.25699507461E+02  0.37093317130E+02  0.51100000000E-03 0. -1.
        -11    1    3    3    0    0 -0.26997959559E+01  0.22575842044E+00  0.18181359558E+02  0.18382102728E+02  0.51100000000E-03 0.  1.
        -12    1    3    3    0    0  0.46032636756E+00 -0.15361645348E+02 -0.72344632159E+01  0.16986156310E+02  0.00000000000E+00 0.  1.
</event>
<event>
 7    1  0.1884848E-013  0.7246160E+02  0.7816164E-02  0.1226708E+00
        -11   -1    0    0    0    0  0.00000000000E+00  0.00000000000E+00  0.45593999997E+02  0.45594000000E+02  0.51100000000E-03 0.  1.
         11   -1    0    0    0    0 -0.00000000000E+00 -0.00000000000E+00 -0.45593999997E+02  0.45594000000E+02  0.51100000000E-03 0. -1.
    9900012    2    1    2    0    0  0.17347843048E+02  0.26883179953E+00  0.70468581925E+01  0.72461597800E+02  0.70000035831E+02 0.  0.
        -12    1    1    2    0    0 -0.17347843048E+02 -0.26883179953E+00 -0.70468581925E+01  0.18726402200E+02  0.00000000000E+00 0.  1.
         11    1    3    3    0    0 -0.23352861750E+02  0.33341831271E+01 -0.17040519949E+01  0.23651146325E+02  0.51100000000E-03 0. -1.
        -11    1    3    3    0    0  0.29195961387E+02 -0.11891577090E+02 -0.64606547692E+00  0.31531431428E+02  0.51100000000E-03 0.  1.
         12    1    3    3    0    0  0.11504743411E+02  0.88262257621E+01  0.93969756642E+01  0.17279020047E+02  0.00000000000E+00 0. -1.
</event>
<event>
 7    1  0.1884848E-013  0.7246159E+02  0.7816164E-02  0.1226708E+00
        -11   -1    0    0    0    0  0.00000000000E+00  0.00000000000E+00  0.45593999997E+02  0.45594000000E+02  0.51100000000E-03 0. -1.
         11   -1    0    0    0    0 -0.00000000000E+00 -0.00000000000E+00 -0.45593999997E+02  0.45594000000E+02  0.51100000000E-03 0.  1.
    9900012    2    1    2    0    0 -0.46171406024E+01  0.16889079743E+02  0.66422481387E+01  0.72461589179E+02  0.70000024601E+02 0.  0.
        -12    1    1    2    0    0  0.46171406024E+01 -0.16889079743E+02 -0.66422481387E+01  0.18726410821E+02  0.00000000000E+00 0.  1.
         11    1    3    3    0    0 -0.19864470279E+02  0.24502114134E+01  0.10289571925E+02  0.22505021797E+02  0.51100000000E-03 0. -1.
        -11    1    3    3    0    0  0.14749812304E+02 -0.11033464214E+02  0.10099768137E+02  0.21007132413E+02  0.51100000000E-03 0.  1.
         12    1    3    3    0    0  0.49751737198E+00  0.25472332543E+02 -0.13747091923E+02  0.28949434969E+02  0.00000000000E+00 0. -1.
</event>
<event>
 7    1  0.1884848E-013  0.7246150E+02  0.7816164E-02  0.1226708E+00
        -11   -1    0    0    0    0  0.00000000000E+00  0.00000000000E+00  0.45593999997E+02  0.45594000000E+02  0.51100000000E-03 0.  1.
         11   -1    0    0    0    0 -0.00000000000E+00 -0.00000000000E+00 -0.45593999997E+02  0.45594000000E+02  0.51100000000E-03 0. -1.
    9900012    2    1    2    0    0 -0.14611031032E+02 -0.11069790837E+02 -0.38287363644E+01  0.72461502219E+02  0.69999911319E+02 0.  0.
        -12    1    1    2    0    0  0.14611031032E+02  0.11069790837E+02  0.38287363644E+01  0.18726497781E+02  0.00000000000E+00 0.  1.
         11    1    3    3    0    0  0.15857883377E+02  0.38193563588E+01 -0.23126098342E+02  0.28299759239E+02  0.51100000000E-03 0. -1.
        -11    1    3    3    0    0 -0.22539905737E+02 -0.11536382654E+02  0.26994702565E+01  0.25464143718E+02  0.51100000000E-03 0.  1.
         12    1    3    3    0    0 -0.79290086725E+01 -0.33527645423E+01  0.16597891721E+02  0.18697599263E+02  0.00000000000E+00 0. -1.
</event>
<event>
 7    1  0.1884848E-013  0.7246156E+02  0.7816164E-02  0.1226708E+00
        -11   -1    0    0    0    0  0.00000000000E+00  0.00000000000E+00  0.45593999997E+02  0.45594000000E+02  0.51100000000E-03 0. -1.
         11   -1    0    0    0    0 -0.00000000000E+00 -0.00000000000E+00 -0.45593999997E+02  0.45594000000E+02  0.51100000000E-03 0.  1.
    9900012    2    1    2    0    0 -0.79096904906E+01 -0.15178796924E+02  0.75974021139E+01  0.72461558838E+02  0.69999985075E+02 0.  0.
        -12    1    1    2    0    0  0.79096904906E+01  0.15178796924E+02 -0.75974021139E+01  0.18726441162E+02  0.00000000000E+00 0.  1.
         11    1    3    3    0    0 -0.16733586793E+01  0.77262983285E+01 -0.18132021829E+02  0.19780445673E+02  0.51100000000E-03 0.  1.
        -11    1    3    3    0    0  0.93102241032E+01 -0.24316617346E+02  0.26368229428E+02  0.37057545459E+02  0.51100000000E-03 0. -1.
        -12    1    3    3    0    0 -0.15546555915E+02  0.14115220933E+01 -0.63880548479E+00  0.15623567706E+02  0.00000000000E+00 0.  1.
</event>
<event>
 7    1  0.1884848E-013  0.7246154E+02  0.7816164E-02  0.1226708E+00
        -11   -1    0    0    0    0  0.00000000000E+00  0.00000000000E+00  0.45593999997E+02  0.45594000000E+02  0.51100000000E-03 0. -1.
         11   -1    0    0    0    0 -0.00000000000E+00 -0.00000000000E+00 -0.45593999997E+02  0.45594000000E+02  0.51100000000E-03 0.  1.
    9900012    2    1    2    0    0 -0.16889749538E+02  0.45943335278E+01  0.66564923100E+01  0.72461536642E+02  0.69999956162E+02 0.  0.
        -12    1    1    2    0    0  0.16889749538E+02 -0.45943335278E+01 -0.66564923100E+01  0.18726463358E+02  0.00000000000E+00 0.  1.
         11    1    3    3    0    0 -0.72176142458E+01 -0.13720790692E+02  0.25708202550E+02  0.30021088109E+02  0.51100000000E-03 0. -1.
        -11    1    3    3    0    0 -0.46001260500E+01  0.12604208740E+01 -0.23598560809E+02  0.24075753217E+02  0.51100000000E-03 0.  1.
        -12    1    3    3    0    0 -0.50720092418E+01  0.17054703346E+02  0.45468505689E+01  0.18364695316E+02  0.00000000000E+00 0.  1.
</event>
<event>
 7    1  0.1884848E-013  0.7246158E+02  0.7816164E-02  0.1226708E+00
        -11   -1    0    0    0    0  0.00000000000E+00  0.00000000000E+00  0.45593999997E+02  0.45594000000E+02  0.51100000000E-03 0.  1.
         11   -1    0    0    0    0 -0.00000000000E+00 -0.00000000000E+00 -0.45593999997E+02  0.45594000000E+02  0.51100000000E-03 0. -1.
    9900012    2    1    2    0    0  0.12556970939E+02  0.58477334741E+01 -0.12601799204E+02  0.72461578849E+02  0.70000011144E+02 0.  0.
        -12    1    1    2    0    0 -0.12556970939E+02 -0.58477334741E+01  0.12601799204E+02  0.18726421151E+02  0.00000000000E+00 0.  1.
         11    1    3    3    0    0 -0.67332251967E+00  0.11177582842E+02 -0.24129443847E+02  0.26601161291E+02  0.51100000000E-03 0. -1.
        -11    1    3    3    0    0 -0.43429768054E+01  0.14927672255E+02  0.10987377649E+02  0.19037313738E+02  0.51100000000E-03 0.  1.
         12    1    3    3    0    0  0.17573270264E+02 -0.20257521623E+02  0.54026699419E+00  0.26823103820E+02  0.00000000000E+00 0. -1.
</event>
<event>
 7    1  0.1884848E-013  0.7246158E+02  0.7816164E-02  0.1226708E+00
        -11   -1    0    0    0    0  0.00000000000E+00  0.00000000000E+00  0.45593999997E+02  0.45594000000E+02  0.51100000000E-03 0.  1.
         11   -1    0    0    0    0 -0.00000000000E+00 -0.00000000000E+00 -0.45593999997E+02  0.45594000000E+02  0.51100000000E-03 0. -1.
    9900012    2    1    2    0    0  0.10015566516E+02 -0.12806982317E+02 -0.92923927974E+01  0.72461576620E+02  0.70000008240E+02 0.  0.
        -12    1    1    2    0    0 -0.10015566516E+02  0.12806982317E+02  0.92923927974E+01  0.18726423380E+02  0.00000000000E+00 0.  1.
         11    1    3    3    0    0 -0.17261922328E+02  0.68830176716E+01 -0.20881383010E+01  0.18700540542E+02  0.51100000000E-03 0.  1.
        -11    1    3    3    0    0  0.37267329374E+02 -0.13589974295E+02 -0.11486219793E+02  0.41297390782E+02  0.51100000000E-03 0. -1.
         12    1    3    3    0    0 -0.99898405293E+01 -0.61000256941E+01  0.42819652961E+01  0.12463645296E+02  0.00000000000E+00 0. -1.
</event>
<event>
 7    1  0.1884848E-013  0.7246157E+02  0.7816164E-02  0.1226708E+00
        -11   -1    0    0    0    0  0.00000000000E+00  0.00000000000E+00  0.45593999997E+02  0.45594000000E+02  0.51100000000E-03 0. -1.
         11   -1    0    0    0    0 -0.00000000000E+00 -0.00000000000E+00 -0.45593999997E+02  0.45594000000E+02  0.51100000000E-03 0.  1.
    9900012    2    1    2    0    0 -0.16686652840E+02  0.12091162575E+01  0.84126494466E+01  0.72461574398E+02  0.70000005346E+02 0.  0.
        -12    1    1    2    0    0  0.16686652840E+02 -0.12091162575E+01 -0.84126494466E+01  0.18726425602E+02  0.00000000000E+00 0.  1.
         11    1    3    3    0    0  0.11362226902E+02  0.15481500536E+02  0.49904797553E+01  0.19841419996E+02  0.51100000000E-03 0. -1.
        -11    1    3    3    0    0 -0.93507056896E+01 -0.20618073967E+02 -0.13719517321E+02  0.26471981920E+02  0.51100000000E-03 0.  1.
        -12    1    3    3    0    0 -0.18698174052E+02  0.63456896884E+01  0.17141687012E+02  0.26148172481E+02  0.00000000000E+00 0.  1.
</event>
<event>
 7    1  0.1884848E-013  0.7246152E+02  0.7816164E-02  0.1226708E+00
        -11   -1    0    0    0    0  0.00000000000E+00  0.00000000000E+00  0.45593999997E+02  0.45594000000E+02  0.51100000000E-03 0.  1.
         11   -1    0    0    0    0 -0.00000000000E+00 -0.00000000000E+00 -0.45593999997E+02  0.45594000000E+02  0.51100000000E-03 0. -1.
    9900012    2    1    2    0    0  0.30203555691E+00  0.13083159251E+02 -0.13394801384E+02  0.72461521805E+02  0.69999936834E+02 0.  0.
        -12    1    1    2    0    0 -0.30203555691E+00 -0.13083159251E+02  0.13394801384E+02  0.18726478195E+02  0.00000000000E+00 0.  1.
         11    1    3    3    0    0 -0.21045907973E+02  0.11388997816E+02 -0.29289027398E+02  0.37821774679E+02  0.51100000000E-03 0. -1.
        -11    1    3    3    0    0  0.83717075936E+00  0.21643100061E+01  0.13826236005E+02  0.14019625352E+02  0.51100000000E-03 0.  1.
         12    1    3    3    0    0  0.20510772770E+02 -0.47014857116E+00  0.20679900090E+01  0.20620121775E+02  0.00000000000E+00 0. -1.
</event>
<event>
 7    1  0.1884848E-013  0.7246159E+02  0.7816164E-02  0.1226708E+00
        -11   -1    0    0    0    0  0.00000000000E+00  0.00000000000E+00  0.45593999997E+02  0.45594000000E+02  0.51100000000E-03 0. -1.
         11   -1    0    0    0    0 -0.00000000000E+00 -0.00000000000E+00 -0.45593999997E+02  0.45594000000E+02  0.51100000000E-03 0.  1.
    9900012    2    1    2    0    0  0.43225559857E+01 -0.88574286062E+01  0.15922937076E+02  0.72461589322E+02  0.70000024787E+02 0.  0.
        -12    1    1    2    0    0 -0.43225559857E+01  0.88574286062E+01 -0.15922937076E+02  0.18726410678E+02  0.00000000000E+00 0.  1.
         11    1    3    3    0    0 -0.21954162364E+01 -0.64473733133E+01  0.18765517066E+02  0.19963293970E+02  0.51100000000E-03 0. -1.
        -11    1    3    3    0    0  0.12419443792E+02 -0.67826166919E+01 -0.25235121230E+02  0.28931951490E+02  0.51100000000E-03 0.  1.
        -12    1    3    3    0    0 -0.59014715697E+01  0.43725613991E+01  0.22392541239E+02  0.23566343862E+02  0.00000000000E+00 0.  1.
</event>
<event>
 7    1  0.1884848E-013  0.7246162E+02  0.7816164E-02  0.1226708E+00
        -11   -1    0    0    0    0  0.00000000000E+00  0.00000000000E+00  0.45593999997E+02  0.45594000000E+02  0.51100000000E-03 0. -1.
         11   -1    0    0    0    0 -0.00000000000E+00 -0.00000000000E+00 -0.45593999997E+02  0.45594000000E+02  0.51100000000E-03 0.  1.
    9900012    2    1    2    0    0 -0.12655928233E+02 -0.13425265718E+02  0.32042447948E+01  0.72461615839E+02  0.70000059330E+02 0.  0.
        -12    1    1    2    0    0  0.12655928233E+02  0.13425265718E+02 -0.32042447948E+01  0.18726384161E+02  0.00000000000E+00 0.  1.
         11    1    3    3    0    0 -0.69997543026E+01 -0.45287471451E+01  0.30637423960E+02  0.31751501668E+02  0.51100000000E-03 0. -1.
        -11    1    3    3    0    0 -0.16342458505E+02 -0.10244792069E+02 -0.18303945627E+02  0.26590715303E+02  0.51100000000E-03 0.  1.
        -12    1    3    3    0    0  0.10686284575E+02  0.13482734961E+01 -0.91292335376E+01  0.14119398869E+02  0.00000000000E+00 0.  1.
</event>
<event>
 7    1  0.1884848E-013  0.7246156E+02  0.7816164E-02  0.1226708E+00
        -11   -1    0    0    0    0  0.00000000000E+00  0.00000000000E+00  0.45593999997E+02  0.45594000000E+02  0.51100000000E-03 0.  1.
         11   -1    0    0    0    0 -0.00000000000E+00 -0.00000000000E+00 -0.45593999997E+02  0.45594000000E+02  0.51100000000E-03 0. -1.
    9900012    2    1    2    0    0  0.17428383059E+01  0.81319014319E+01 -0.16778389397E+02  0.72461557278E+02  0.69999983043E+02 0.  0.
        -12    1    1    2    0    0 -0.17428383059E+01 -0.81319014319E+01  0.16778389397E+02  0.18726442722E+02  0.00000000000E+00 0.  1.
         11    1    3    3    0    0  0.10340558961E+02  0.34255101286E+02 -0.89885700963E+01  0.36893543017E+02  0.51100000000E-03 0. -1.
        -11    1    3    3    0    0 -0.10538995094E+02 -0.12872596613E+02 -0.13086324072E+02  0.21166625596E+02  0.51100000000E-03 0.  1.
         12    1    3    3    0    0  0.19412744384E+01 -0.13250603241E+02  0.52965047706E+01  0.14401388665E+02  0.00000000000E+00 0. -1.
</event>
<event>
 7    1  0.1884848E-013  0.7246153E+02  0.7816164E-02  0.1226708E+00
        -11   -1    0    0    0    0  0.00000000000E+00  0.00000000000E+00  0.45593999997E+02  0.45594000000E+02  0.51100000000E-03 0. -1.
         11   -1    0    0    0    0 -0.00000000000E+00 -0.00000000000E+00 -0.45593999997E+02  0.45594000000E+02  0.51100000000E-03 0.  1.
    9900012    2    1    2    0    0  0.80671776363E+01 -0.92872713430E+01  0.14119064167E+02  0.72461528443E+02  0.69999945481E+02 0.  0.
        -12    1    1    2    0    0 -0.80671776363E+01  0.92872713430E+01 -0.14119064167E+02  0.18726471557E+02  0.00000000000E+00 0.  1.
         11    1    3    3    0    0 -0.24251945832E+01  0.16524852909E+02  0.63519167697E+00  0.16713940324E+02  0.51100000000E-03 0.  1.
        -11    1    3    3    0    0  0.17607898321E+02 -0.36703155569E+02  0.12983369315E+02  0.42728533688E+02  0.51100000000E-03 0. -1.
         12    1    3    3    0    0 -0.71155261020E+01  0.10891031317E+02  0.50050317450E+00  0.13019054432E+02  0.00000000000E+00 0. -1.
</event>
<event>
 7    1  0.1884848E-013  0.7246157E+02  0.7816164E-02  0.1226708E+00
        -11   -1    0    0    0    0  0.00000000000E+00  0.00000000000E+00  0.45593999997E+02  0.45594000000E+02  0.51100000000E-03 0.  1.
         11   -1    0    0    0    0 -0.00000000000E+00 -0.00000000000E+00 -0.45593999997E+02  0.45594000000E+02  0.51100000000E-03 0. -1.
    9900012    2    1    2    0    0  0.18159233255E+02 -0.70772878147E+00 -0.45189210525E+01  0.72461567347E+02  0.69999996161E+02 0.  0.
        -12    1    1    2    0    0 -0.18159233255E+02  0.70772878147E+00  0.45189210525E+01  0.18726432653E+02  0.00000000000E+00 0.  1.
         11    1    3    3    0    0 -0.17837095335E+02 -0.22646158642E+01  0.61578916724E+01  0.19005527751E+02  0.51100000000E-03 0.  1.
        -11    1    3    3    0    0  0.10733671533E+02  0.98483698713E+01 -0.20467548832E+02  0.25122154548E+02  0.51100000000E-03 0. -1.
        -12    1    3    3    0    0  0.25262657056E+02 -0.82914827886E+01  0.97907361070E+01  0.28333885048E+02  0.00000000000E+00 0.  1.
</event>
<event>
 7    1  0.1884848E-013  0.7246148E+02  0.7816164E-02  0.1226708E+00
        -11   -1    0    0    0    0  0.00000000000E+00  0.00000000000E+00  0.45593999997E+02  0.45594000000E+02  0.51100000000E-03 0. -1.
         11   -1    0    0    0    0 -0.00000000000E+00 -0.00000000000E+00 -0.45593999997E+02  0.45594000000E+02  0.51100000000E-03 0.  1.
    9900012    2    1    2    0    0  0.76928132665E+01 -0.13739374308E+02  0.10135711160E+02  0.72461483425E+02  0.69999886836E+02 0.  0.
        -12    1    1    2    0    0 -0.76928132665E+01  0.13739374308E+02 -0.10135711160E+02  0.18726516575E+02  0.00000000000E+00 0.  1.
         11    1    3    3    0    0  0.17655781141E+02  0.40469902294E+01  0.16918908044E+02  0.24786169274E+02  0.51100000000E-03 0. -1.
        -11    1    3    3    0    0 -0.19673543604E+02  0.42584760705E+01 -0.11421889506E+02  0.23143951619E+02  0.51100000000E-03 0.  1.
         12    1    3    3    0    0  0.97105757296E+01 -0.22044840608E+02  0.46386926222E+01  0.24531362532E+02  0.00000000000E+00 0. -1.
</event>
<event>
 7    1  0.1884848E-013  0.7246158E+02  0.7816164E-02  0.1226708E+00
        -11   -1    0    0    0    0  0.00000000000E+00  0.00000000000E+00  0.45593999997E+02  0.45594000000E+02  0.51100000000E-03 0. -1.
         11   -1    0    0    0    0 -0.00000000000E+00 -0.00000000000E+00 -0.45593999997E+02  0.45594000000E+02  0.51100000000E-03 0.  1.
    9900012    2    1    2    0    0  0.10006535783E+02  0.13221508181E+02  0.87028546999E+01  0.72461582380E+02  0.70000015743E+02 0.  0.
        -12    1    1    2    0    0 -0.10006535783E+02 -0.13221508181E+02 -0.87028546999E+01  0.18726417620E+02  0.00000000000E+00 0.  1.
         11    1    3    3    0    0  0.14146068847E+02  0.73651129043E+01 -0.17104971306E+02  0.23386667047E+02  0.51100000000E-03 0.  1.
        -11    1    3    3    0    0 -0.22138329960E+02  0.12159733480E+01  0.19257105888E+02  0.29366994603E+02  0.51100000000E-03 0. -1.
         12    1    3    3    0    0  0.17998796897E+02  0.46404219286E+01  0.65507201184E+01  0.19707920729E+02  0.00000000000E+00 0. -1.
</event>
<event>
 7    1  0.1884848E-013  0.7246154E+02  0.7816164E-02  0.1226708E+00
        -11   -1    0    0    0    0  0.00000000000E+00  0.00000000000E+00  0.45593999997E+02  0.45594000000E+02  0.51100000000E-03 0. -1.
         11   -1    0    0    0    0 -0.00000000000E+00 -0.00000000000E+00 -0.45593999997E+02  0.45594000000E+02  0.51100000000E-03 0.  1.
    9900012    2    1    2    0    0  0.14358973996E+02  0.33023449908E+00  0.12016281009E+02  0.72461542825E+02  0.69999964216E+02 0.  0.
        -12    1    1    2    0    0 -0.14358973996E+02 -0.33023449908E+00 -0.12016281009E+02  0.18726457175E+02  0.00000000000E+00 0.  1.
         11    1    3    3    0    0 -0.17002443330E+01  0.27519559451E+02  0.17349816363E+02  0.32576573044E+02  0.51100000000E-03 0. -1.
        -11    1    3    3    0    0  0.14844308356E+02 -0.31262374034E+02 -0.23408846633E+01  0.34686730346E+02  0.51100000000E-03 0.  1.
        -12    1    3    3    0    0  0.12149099727E+01  0.40730490825E+01 -0.29926506914E+01  0.51982394357E+01  0.00000000000E+00 0.  1.
</event>
<event>
 7    1  0.1884848E-013  0.7246157E+02  0.7816164E-02  0.1226708E+00
        -11   -1    0    0    0    0  0.00000000000E+00  0.00000000000E+00  0.45593999997E+02  0.45594000000E+02  0.51100000000E-03 0.  1.
         11   -1    0    0    0    0 -0.00000000000E+00 -0.00000000000E+00 -0.45593999997E+02  0.45594000000E+02  0.51100000000E-03 0. -1.
    9900012    2    1    2    0    0  0.73790407502E+01 -0.17034246307E+02  0.24623801393E+01  0.72461572001E+02  0.70000002224E+02 0.  0.
        -12    1    1    2    0    0 -0.73790407502E+01  0.17034246307E+02 -0.24623801393E+01  0.18726427999E+02  0.00000000000E+00 0.  1.
         11    1    3    3    0    0 -0.47613499400E+00 -0.21127745815E+02  0.42444584081E+01  0.21555133384E+02  0.51100000000E-03 0. -1.
        -11    1    3    3    0    0  0.28770043832E+02  0.63825077628E+01 -0.40430216623E+01  0.29745551799E+02  0.51100000000E-03 0.  1.
        -12    1    3    3    0    0 -0.20914868087E+02 -0.22890082549E+01  0.22609433934E+01  0.21160886818E+02  0.00000000000E+00 0.  1.
</event>
<event>
 7    1  0.1884848E-013  0.7246186E+02  0.7816164E-02  0.1226707E+00
        -11   -1    0    0    0    0  0.00000000000E+00  0.00000000000E+00  0.45593999997E+02  0.45594000000E+02  0.51100000000E-03 0.  1.
         11   -1    0    0    0    0 -0.00000000000E+00 -0.00000000000E+00 -0.45593999997E+02  0.45594000000E+02  0.51100000000E-03 0. -1.
    9900012    2    1    2    0    0 -0.15364051282E+02  0.83146167714E+01 -0.67439891296E+01  0.72461860162E+02  0.70000377605E+02 0.  0.
        -12    1    1    2    0    0  0.15364051282E+02 -0.83146167714E+01  0.67439891296E+01  0.18726139838E+02  0.00000000000E+00 0.  1.
         11    1    3    3    0    0 -0.26704294425E+02 -0.11753185455E+02 -0.17687598577E+01  0.29229868641E+02  0.51100000000E-03 0. -1.
        -11    1    3    3    0    0  0.24061860543E+02  0.93157939413E+01 -0.61791581258E+01  0.26531851517E+02  0.51100000000E-03 0.  1.
        -12    1    3    3    0    0 -0.12721617401E+02  0.10752008285E+02  0.12039288539E+01  0.16700140004E+02  0.00000000000E+00 0.  1.
</event>
<event>
 7    1  0.1884848E-013  0.7246159E+02  0.7816164E-02  0.1226708E+00
        -11   -1    0    0    0    0  0.00000000000E+00  0.00000000000E+00  0.45593999997E+02  0.45594000000E+02  0.51100000000E-03 0.  1.
         11   -1    0    0    0    0 -0.00000000000E+00 -0.00000000000E+00 -0.45593999997E+02  0.45594000000E+02  0.51100000000E-03 0. -1.
    9900012    2    1    2    0    0  0.98113886354E+01  0.13192566911E+02 -0.89650028101E+01  0.72461589665E+02  0.70000025234E+02 0.  0.
        -12    1    1    2    0    0 -0.98113886354E+01 -0.13192566911E+02  0.89650028101E+01  0.18726410335E+02  0.00000000000E+00 0.  1.
         11    1    3    3    0    0  0.11461401603E+02 -0.33328114568E+01  0.85657571034E-01  0.11936444043E+02  0.51100000000E-03 0. -1.
        -11    1    3    3    0    0 -0.15795736555E+02  0.29743094144E+02  0.81259981939E+01  0.34643740985E+02  0.51100000000E-03 0.  1.
        -12    1    3    3    0    0  0.14145723587E+02 -0.13217715776E+02 -0.17176658575E+02  0.25881404636E+02  0.00000000000E+00 0.  1.
</event>
<event>
 7    1  0.1884848E-013  0.7246152E+02  0.7816164E-02  0.1226708E+00
        -11   -1    0    0    0    0  0.00000000000E+00  0.00000000000E+00  0.45593999997E+02  0.45594000000E+02  0.51100000000E-03 0. -1.
         11   -1    0    0    0    0 -0.00000000000E+00 -0.00000000000E+00 -0.45593999997E+02  0.45594000000E+02  0.51100000000E-03 0.  1.
    9900012    2    1    2    0    0 -0.66072331545E+01  0.17291729703E+02 -0.28322182630E+01  0.72461523920E+02  0.69999939589E+02 0.  0.
        -12    1    1    2    0    0  0.66072331545E+01 -0.17291729703E+02  0.28322182630E+01  0.18726476080E+02  0.00000000000E+00 0.  1.
         11    1    3    3    0    0 -0.36697128928E+01 -0.30434196109E+01  0.99021729031E+01  0.10990096638E+02  0.51100000000E-03 0. -1.
        -11    1    3    3    0    0 -0.28739412506E+02  0.11288438520E+02 -0.14418897787E+02  0.34077665545E+02  0.51100000000E-03 0.  1.
        -12    1    3    3    0    0  0.25801892244E+02  0.90467107942E+01  0.16845066208E+01  0.27393761737E+02  0.00000000000E+00 0.  1.
</event>
<event>
 7    1  0.1884848E-013  0.7246152E+02  0.7816164E-02  0.1226708E+00
        -11   -1    0    0    0    0  0.00000000000E+00  0.00000000000E+00  0.45593999997E+02  0.45594000000E+02  0.51100000000E-03 0.  1.
         11   -1    0    0    0    0 -0.00000000000E+00 -0.00000000000E+00 -0.45593999997E+02  0.45594000000E+02  0.51100000000E-03 0. -1.
    9900012    2    1    2    0    0 -0.78319670510E+01 -0.14916901021E+02 -0.81747931112E+01  0.72461524454E+02  0.69999940284E+02 0.  0.
        -12    1    1    2    0    0  0.78319670510E+01  0.14916901021E+02  0.81747931112E+01  0.18726475546E+02  0.00000000000E+00 0.  1.
         11    1    3    3    0    0  0.11371122957E+02 -0.32128407296E+02 -0.84878019282E+01  0.35122354341E+02  0.51100000000E-03 0. -1.
        -11    1    3    3    0    0 -0.25639669030E+02  0.14355950912E+02  0.35321392556E+01  0.29596654584E+02  0.51100000000E-03 0.  1.
         12    1    3    3    0    0  0.64365790219E+01  0.28555553618E+01 -0.32191304386E+01  0.77425155286E+01  0.00000000000E+00 0. -1.
</event>
<event>
 7    1  0.1884848E-013  0.7246157E+02  0.7816164E-02  0.1226708E+00
        -11   -1    0    0    0    0  0.00000000000E+00  0.00000000000E+00  0.45593999997E+02  0.45594000000E+02  0.51100000000E-03 0.  1.
         11   -1    0    0    0    0 -0.00000000000E+00 -0.00000000000E+00 -0.45593999997E+02  0.45594000000E+02  0.51100000000E-03 0. -1.
    9900012    2    1    2    0    0  0.91753588764E+01  0.99206307758E+01  0.12964304753E+02  0.72461566190E+02  0.69999994654E+02 0.  0.
        -12    1    1    2    0    0 -0.91753588764E+01 -0.99206307758E+01 -0.12964304753E+02  0.18726433810E+02  0.00000000000E+00 0.  1.
         11    1    3    3    0    0  0.95996723708E+01 -0.49671260474E+01 -0.31666908052E+01  0.11262947293E+02  0.51100000000E-03 0. -1.
        -11    1    3    3    0    0 -0.13723356453E+01  0.36883904066E+02  0.11890181920E+02  0.38777340169E+02  0.51100000000E-03 0.  1.
        -12    1    3    3    0    0  0.94802215093E+00 -0.21996147242E+02  0.42408136382E+01  0.22421278729E+02  0.00000000000E+00 0.  1.
</event>
<event>
 7    1  0.1884848E-013  0.7246159E+02  0.7816164E-02  0.1226708E+00
        -11   -1    0    0    0    0  0.00000000000E+00  0.00000000000E+00  0.45593999997E+02  0.45594000000E+02  0.51100000000E-03 0. -1.
         11   -1    0    0    0    0 -0.00000000000E+00 -0.00000000000E+00 -0.45593999997E+02  0.45594000000E+02  0.51100000000E-03 0.  1.
    9900012    2    1    2    0    0  0.21686079189E+01 -0.13782362528E+02  0.12490883935E+02  0.72461586605E+02  0.70000021247E+02 0.  0.
        -12    1    1    2    0    0 -0.21686079189E+01  0.13782362528E+02 -0.12490883935E+02  0.18726413395E+02  0.00000000000E+00 0.  1.
         11    1    3    3    0    0 -0.10722150952E+02  0.12011508666E+01 -0.19481471733E+02  0.22269598685E+02  0.51100000000E-03 0. -1.
        -11    1    3    3    0    0  0.18024525780E+02 -0.17384368911E+02  0.91257570388E+01  0.26652940810E+02  0.51100000000E-03 0.  1.
         12    1    3    3    0    0 -0.51337669085E+01  0.24008555166E+01  0.22846598630E+02  0.23539047110E+02  0.00000000000E+00 0. -1.
</event>
<event>
 7    1  0.1884848E-013  0.7246158E+02  0.7816164E-02  0.1226708E+00
        -11   -1    0    0    0    0  0.00000000000E+00  0.00000000000E+00  0.45593999997E+02  0.45594000000E+02  0.51100000000E-03 0.  1.
         11   -1    0    0    0    0 -0.00000000000E+00 -0.00000000000E+00 -0.45593999997E+02  0.45594000000E+02  0.51100000000E-03 0. -1.
    9900012    2    1    2    0    0  0.78938628168E+01 -0.11702435003E+02  0.12305231604E+02  0.72461580695E+02  0.70000013549E+02 0.  0.
        -12    1    1    2    0    0 -0.78938628168E+01  0.11702435003E+02 -0.12305231604E+02  0.18726419305E+02  0.00000000000E+00 0.  1.
         11    1    3    3    0    0  0.15841261195E+02  0.14005641793E+01 -0.15370448623E+02  0.22116912700E+02  0.51100000000E-03 0. -1.
        -11    1    3    3    0    0 -0.28331600755E+01 -0.13815068040E+02  0.37049496922E+02  0.39642756253E+02  0.51100000000E-03 0.  1.
        -12    1    3    3    0    0 -0.51142383031E+01  0.71206885814E+00 -0.93738166950E+01  0.10701911741E+02  0.00000000000E+00 0.  1.
</event>
<event>
 7    1  0.1884848E-013  0.7246158E+02  0.7816164E-02  0.1226708E+00
        -11   -1    0    0    0    0  0.00000000000E+00  0.00000000000E+00  0.45593999997E+02  0.45594000000E+02  0.51100000000E-03 0. -1.
         11   -1    0    0    0    0 -0.00000000000E+00 -0.00000000000E+00 -0.45593999997E+02  0.45594000000E+02  0.51100000000E-03 0.  1.
    9900012    2    1    2    0    0  0.11002143292E+02  0.55692707052E+01  0.14093082128E+02  0.72461577569E+02  0.70000009476E+02 0.  0.
        -12    1    1    2    0    0 -0.11002143292E+02 -0.55692707052E+01 -0.14093082128E+02  0.18726422431E+02  0.00000000000E+00 0.  1.
         11    1    3    3    0    0 -0.18712219441E+00  0.20715605954E+02  0.13780837973E+01  0.20762236392E+02  0.51100000000E-03 0. -1.
        -11    1    3    3    0    0  0.26426009644E+02 -0.13142111643E+02 -0.30652340944E+01  0.29672289168E+02  0.51100000000E-03 0.  1.
        -12    1    3    3    0    0 -0.15236744158E+02 -0.20042236063E+01  0.15780232425E+02  0.22027052009E+02  0.00000000000E+00 0.  1.
</event>
<event>
 7    1  0.1884848E-013  0.7246157E+02  0.7816164E-02  0.1226708E+00
        -11   -1    0    0    0    0  0.00000000000E+00  0.00000000000E+00  0.45593999997E+02  0.45594000000E+02  0.51100000000E-03 0.  1.
         11   -1    0    0    0    0 -0.00000000000E+00 -0.00000000000E+00 -0.45593999997E+02  0.45594000000E+02  0.51100000000E-03 0. -1.
    9900012    2    1    2    0    0  0.12859223360E+02 -0.11925604649E+02  0.65650348854E+01  0.72461565350E+02  0.69999993559E+02 0.  0.
        -12    1    1    2    0    0 -0.12859223360E+02  0.11925604649E+02 -0.65650348854E+01  0.18726434650E+02  0.00000000000E+00 0.  1.
         11    1    3    3    0    0 -0.71455337425E+01 -0.64042517211E+01 -0.72415688713E+01  0.12021373156E+02  0.51100000000E-03 0. -1.
        -11    1    3    3    0    0  0.11106723184E+02  0.35420028135E+01  0.34357345091E+02  0.36281293331E+02  0.51100000000E-03 0.  1.
        -12    1    3    3    0    0  0.88980339182E+01 -0.90633557409E+01 -0.20550741334E+02  0.24158898863E+02  0.00000000000E+00 0.  1.
</event>
<event>
 7    1  0.1884848E-013  0.7246149E+02  0.7816164E-02  0.1226708E+00
        -11   -1    0    0    0    0  0.00000000000E+00  0.00000000000E+00  0.45593999997E+02  0.45594000000E+02  0.51100000000E-03 0.  1.
         11   -1    0    0    0    0 -0.00000000000E+00 -0.00000000000E+00 -0.45593999997E+02  0.45594000000E+02  0.51100000000E-03 0. -1.
    9900012    2    1    2    0    0 -0.18559125181E+02  0.12139629232E+00 -0.24952751485E+01  0.72461487708E+02  0.69999892416E+02 0.  0.
        -12    1    1    2    0    0  0.18559125181E+02 -0.12139629232E+00  0.24952751485E+01  0.18726512292E+02  0.00000000000E+00 0.  1.
         11    1    3    3    0    0  0.14612026455E+02 -0.17580930750E+02  0.65335098695E+01  0.23775769065E+02  0.51100000000E-03 0. -1.
        -11    1    3    3    0    0 -0.23052504461E+02  0.11235407422E+01  0.63209180468E+01  0.23929778748E+02  0.51100000000E-03 0.  1.
         12    1    3    3    0    0 -0.10118647176E+02  0.16578786300E+02 -0.15349703065E+02  0.24755939894E+02  0.00000000000E+00 0. -1.
</event>
<event>
 7    1  0.1884848E-013  0.7246162E+02  0.7816164E-02  0.1226708E+00
        -11   -1    0    0    0    0  0.00000000000E+00  0.00000000000E+00  0.45593999997E+02  0.45594000000E+02  0.51100000000E-03 0.  1.
         11   -1    0    0    0    0 -0.00000000000E+00 -0.00000000000E+00 -0.45593999997E+02  0.45594000000E+02  0.51100000000E-03 0. -1.
    9900012    2    1    2    0    0 -0.67785331179E+01  0.27699197569E+01 -0.17235322784E+02  0.72461619726E+02  0.70000064394E+02 0.  0.
        -12    1    1    2    0    0  0.67785331179E+01 -0.27699197569E+01  0.17235322784E+02  0.18726380274E+02  0.00000000000E+00 0.  1.
         11    1    3    3    0    0  0.10713445185E+02 -0.15925539156E+02 -0.11064807599E+02  0.22154698658E+02  0.51100000000E-03 0.  1.
        -11    1    3    3    0    0 -0.30265195237E+02  0.13612248554E+02 -0.12117036370E+02  0.35328429403E+02  0.51100000000E-03 0. -1.
        -12    1    3    3    0    0  0.12773216934E+02  0.50832103590E+01  0.59465211851E+01  0.14978491666E+02  0.00000000000E+00 0.  1.
</event>
<event>
 7    1  0.1884848E-013  0.7246144E+02  0.7816164E-02  0.1226708E+00
        -11   -1    0    0    0    0  0.00000000000E+00  0.00000000000E+00  0.45593999997E+02  0.45594000000E+02  0.51100000000E-03 0.  1.
         11   -1    0    0    0    0 -0.00000000000E+00 -0.00000000000E+00 -0.45593999997E+02  0.45594000000E+02  0.51100000000E-03 0. -1.
    9900012    2    1    2    0    0  0.13832365827E+02  0.12588636138E+02 -0.93582544732E+00  0.72461444699E+02  0.69999836388E+02 0.  0.
        -12    1    1    2    0    0 -0.13832365827E+02 -0.12588636138E+02  0.93582544732E+00  0.18726555301E+02  0.00000000000E+00 0.  1.
         11    1    3    3    0    0  0.31216105655E+02  0.94980384238E+01 -0.16527281515E+02  0.36576071696E+02  0.51100000000E-03 0. -1.
        -11    1    3    3    0    0 -0.19448561117E+02  0.62571717258E+01  0.61544060139E+00  0.20439606037E+02  0.51100000000E-03 0.  1.
        -12    1    3    3    0    0  0.20648212890E+01 -0.31665740116E+01  0.14976015467E+02  0.15445766966E+02  0.00000000000E+00 0.  1.
</event>
<event>
 7    1  0.1884848E-013  0.7246157E+02  0.7816164E-02  0.1226708E+00
        -11   -1    0    0    0    0  0.00000000000E+00  0.00000000000E+00  0.45593999997E+02  0.45594000000E+02  0.51100000000E-03 0.  1.
         11   -1    0    0    0    0 -0.00000000000E+00 -0.00000000000E+00 -0.45593999997E+02  0.45594000000E+02  0.51100000000E-03 0. -1.
    9900012    2    1    2    0    0 -0.12901003085E+01  0.18651722366E+02  0.10621345649E+01  0.72461568523E+02  0.69999997692E+02 0.  0.
        -12    1    1    2    0    0  0.12901003085E+01 -0.18651722366E+02 -0.10621345649E+01  0.18726431477E+02  0.00000000000E+00 0.  1.
         11    1    3    3    0    0  0.18006209514E+01 -0.13586124117E+02  0.81091968414E+01  0.15924323471E+02  0.51100000000E-03 0.  1.
        -11    1    3    3    0    0 -0.22769044754E+02  0.22766320504E+02 -0.11608136059E+02  0.34226942185E+02  0.51100000000E-03 0. -1.
        -12    1    3    3    0    0  0.19678323494E+02  0.94715259798E+01  0.45610737830E+01  0.22310302866E+02  0.00000000000E+00 0.  1.
</event>
<event>
 7    1  0.1884848E-013  0.7246186E+02  0.7816164E-02  0.1226707E+00
        -11   -1    0    0    0    0  0.00000000000E+00  0.00000000000E+00  0.45593999997E+02  0.45594000000E+02  0.51100000000E-03 0.  1.
         11   -1    0    0    0    0 -0.00000000000E+00 -0.00000000000E+00 -0.45593999997E+02  0.45594000000E+02  0.51100000000E-03 0. -1.
    9900012    2    1    2    0    0 -0.16599790820E+01 -0.11488452116E+02 -0.14694494248E+02  0.72461862550E+02  0.70000380717E+02 0.  0.
        -12    1    1    2    0    0  0.16599790820E+01  0.11488452116E+02  0.14694494248E+02  0.18726137450E+02  0.00000000000E+00 0.  1.
         11    1    3    3    0    0 -0.34311662001E+01  0.25384548178E+02 -0.92276136000E+00  0.25632004925E+02  0.51100000000E-03 0. -1.
        -11    1    3    3    0    0 -0.48874553214E+01 -0.29691846731E+02 -0.19795924540E+00  0.30092061577E+02  0.51100000000E-03 0.  1.
         12    1    3    3    0    0  0.66586424395E+01 -0.71811535625E+01 -0.13573773643E+02  0.16737796048E+02  0.00000000000E+00 0. -1.
</event>
<event>
 7    1  0.1884848E-013  0.7246161E+02  0.7816164E-02  0.1226708E+00
        -11   -1    0    0    0    0  0.00000000000E+00  0.00000000000E+00  0.45593999997E+02  0.45594000000E+02  0.51100000000E-03 0.  1.
         11   -1    0    0    0    0 -0.00000000000E+00 -0.00000000000E+00 -0.45593999997E+02  0.45594000000E+02  0.51100000000E-03 0. -1.
    9900012    2    1    2    0    0 -0.32299918259E+01 -0.18311464853E+02 -0.22214780175E+01  0.72461613353E+02  0.70000056092E+02 0.  0.
        -12    1    1    2    0    0  0.32299918259E+01  0.18311464853E+02  0.22214780175E+01  0.18726386647E+02  0.00000000000E+00 0.  1.
         11    1    3    3    0    0  0.33791631241E+01  0.13063220294E+02  0.18093627687E+02  0.22570906738E+02  0.51100000000E-03 0.  1.
        -11    1    3    3    0    0  0.58200066963E+01 -0.23019456281E+02 -0.24723865218E+02  0.34278817905E+02  0.51100000000E-03 0. -1.
        -12    1    3    3    0    0 -0.12429161646E+02 -0.83552288659E+01  0.44087595138E+01  0.15611888710E+02  0.00000000000E+00 0.  1.
</event>
<event>
 7    1  0.2033478E-013  0.7246188E+02  0.7816164E-02  0.1226707E+00
        -11   -1    0    0    0    0  0.00000000000E+00  0.00000000000E+00  0.45593999997E+02  0.45594000000E+02  0.51100000000E-03 0. -1.
         11   -1    0    0    0    0 -0.00000000000E+00 -0.00000000000E+00 -0.45593999997E+02  0.45594000000E+02  0.51100000000E-03 0.  1.
    9900012    2    1    2    0    0 -0.18448486976E+02 -0.27468501462E+01  0.16660575070E+01  0.72461879071E+02  0.70000402238E+02 0.  0.
        -12    1    1    2    0    0  0.18448486976E+02  0.27468501462E+01 -0.16660575070E+01  0.18726120929E+02  0.00000000000E+00 0.  1.
         11    1    3    3    0    0 -0.15885056666E+02 -0.17506664691E+02  0.14164311408E+02  0.27558048766E+02  0.51100000000E-03 0. -1.
        -11    1    3    3    0    0 -0.15602100493E+02  0.82377858362E+01 -0.21467064147E+02  0.27787074308E+02  0.51100000000E-03 0.  1.
         12    1    3    3    0    0  0.13038670183E+02  0.65220287089E+01  0.89688102460E+01  0.17116755996E+02  0.00000000000E+00 0. -1.
</event>
<event>
 7    1  0.1884848E-013  0.7246156E+02  0.7816164E-02  0.1226708E+00
        -11   -1    0    0    0    0  0.00000000000E+00  0.00000000000E+00  0.45593999997E+02  0.45594000000E+02  0.51100000000E-03 0. -1.
         11   -1    0    0    0    0 -0.00000000000E+00 -0.00000000000E+00 -0.45593999997E+02  0.45594000000E+02  0.51100000000E-03 0.  1.
    9900012    2    1    2    0    0 -0.17667488388E+02  0.55902848730E+01  0.26996575210E+01  0.72461559291E+02  0.69999985666E+02 0.  0.
        -12    1    1    2    0    0  0.17667488388E+02 -0.55902848730E+01 -0.26996575210E+01  0.18726440709E+02  0.00000000000E+00 0.  1.
         11    1    3    3    0    0  0.81415036123E+01  0.30997879967E+02  0.19037021783E-01  0.32049227856E+02  0.51100000000E-03 0. -1.
        -11    1    3    3    0    0 -0.65961160516E+01 -0.94076344598E+01  0.90330001596E+01  0.14615314750E+02  0.51100000000E-03 0.  1.
         12    1    3    3    0    0 -0.19212875948E+02 -0.15999960634E+02 -0.63523796603E+01  0.25797016685E+02  0.00000000000E+00 0. -1.
</event>
<event>
 7    1  0.2204903E-013  0.7246170E+02  0.7816164E-02  0.1226708E+00
        -11   -1    0    0    0    0  0.00000000000E+00  0.00000000000E+00  0.45593999997E+02  0.45594000000E+02  0.51100000000E-03 0. -1.
         11   -1    0    0    0    0 -0.00000000000E+00 -0.00000000000E+00 -0.45593999997E+02  0.45594000000E+02  0.51100000000E-03 0.  1.
    9900012    2    1    2    0    0 -0.11099976363E+02  0.10645252105E+02  0.10683785930E+02  0.72461704332E+02  0.70000174609E+02 0.  0.
        -12    1    1    2    0    0  0.11099976363E+02 -0.10645252105E+02 -0.10683785930E+02  0.18726295668E+02  0.00000000000E+00 0.  1.
         11    1    3    3    0    0  0.25095240952E+01  0.31643555182E+02 -0.51968890379E+01  0.32165508727E+02  0.51100000000E-03 0. -1.
        -11    1    3    3    0    0 -0.32048006975E+01 -0.20897909484E+02 -0.19946714534E+00  0.21143158603E+02  0.51100000000E-03 0.  1.
         12    1    3    3    0    0 -0.10404699761E+02 -0.10039359367E+00  0.16080142114E+02  0.19153037002E+02  0.00000000000E+00 0. -1.
</event>
<event>
 7    1  0.1884848E-013  0.7246158E+02  0.7816164E-02  0.1226708E+00
        -11   -1    0    0    0    0  0.00000000000E+00  0.00000000000E+00  0.45593999997E+02  0.45594000000E+02  0.51100000000E-03 0. -1.
         11   -1    0    0    0    0 -0.00000000000E+00 -0.00000000000E+00 -0.45593999997E+02  0.45594000000E+02  0.51100000000E-03 0.  1.
    9900012    2    1    2    0    0  0.12151473295E+02 -0.13241520765E+02  0.52614111031E+01  0.72461584908E+02  0.70000019037E+02 0.  0.
        -12    1    1    2    0    0 -0.12151473295E+02  0.13241520765E+02 -0.52614111031E+01  0.18726415092E+02  0.00000000000E+00 0.  1.
         11    1    3    3    0    0  0.29231591141E+02 -0.11802489679E+02 -0.19762954861E+02  0.37206976071E+02  0.51100000000E-03 0. -1.
        -11    1    3    3    0    0 -0.14359524450E+02  0.69656714595E+01  0.17041825232E+02  0.23348240380E+02  0.51100000000E-03 0.  1.
         12    1    3    3    0    0 -0.27205933963E+01 -0.84047025454E+01  0.79825407322E+01  0.11906368457E+02  0.00000000000E+00 0. -1.
</event>
<event>
 7    1  0.1884848E-013  0.7246165E+02  0.7816164E-02  0.1226708E+00
        -11   -1    0    0    0    0  0.00000000000E+00  0.00000000000E+00  0.45593999997E+02  0.45594000000E+02  0.51100000000E-03 0.  1.
         11   -1    0    0    0    0 -0.00000000000E+00 -0.00000000000E+00 -0.45593999997E+02  0.45594000000E+02  0.51100000000E-03 0. -1.
    9900012    2    1    2    0    0  0.16776562274E+02  0.43008426168E+01 -0.71222054825E+01  0.72461652255E+02  0.70000106769E+02 0.  0.
        -12    1    1    2    0    0 -0.16776562274E+02 -0.43008426168E+01  0.71222054825E+01  0.18726347745E+02  0.00000000000E+00 0.  1.
         11    1    3    3    0    0  0.22834190839E+02  0.10023349335E+02 -0.22280635892E+02  0.33440911159E+02  0.51100000000E-03 0. -1.
        -11    1    3    3    0    0 -0.15915954136E+02  0.57573163364E+01  0.16741450673E+02  0.23806311314E+02  0.51100000000E-03 0.  1.
         12    1    3    3    0    0  0.98583255716E+01 -0.11479823055E+02 -0.15830202636E+01  0.15214429782E+02  0.00000000000E+00 0. -1.
</event>
<event>
 7    1  0.1884848E-013  0.7246154E+02  0.7816164E-02  0.1226708E+00
        -11   -1    0    0    0    0  0.00000000000E+00  0.00000000000E+00  0.45593999997E+02  0.45594000000E+02  0.51100000000E-03 0.  1.
         11   -1    0    0    0    0 -0.00000000000E+00 -0.00000000000E+00 -0.45593999997E+02  0.45594000000E+02  0.51100000000E-03 0. -1.
    9900012    2    1    2    0    0 -0.14943641038E+02 -0.11087315761E+02 -0.21069781524E+01  0.72461539171E+02  0.69999959456E+02 0.  0.
        -12    1    1    2    0    0  0.14943641038E+02  0.11087315761E+02  0.21069781524E+01  0.18726460829E+02  0.00000000000E+00 0.  1.
         11    1    3    3    0    0 -0.31222016352E+02 -0.66072769248E+00 -0.15094792076E+02  0.34685784037E+02  0.51100000000E-03 0. -1.
        -11    1    3    3    0    0  0.52763502992E+01 -0.55024381790E+01  0.21636517443E+02  0.22940261239E+02  0.51100000000E-03 0.  1.
        -12    1    3    3    0    0  0.11002025014E+02 -0.49241498892E+01 -0.86487035188E+01  0.14835493895E+02  0.00000000000E+00 0.  1.
</event>
<event>
 7    1  0.1884848E-013  0.7246154E+02  0.7816164E-02  0.1226708E+00
        -11   -1    0    0    0    0  0.00000000000E+00  0.00000000000E+00  0.45593999997E+02  0.45594000000E+02  0.51100000000E-03 0.  1.
         11   -1    0    0    0    0 -0.00000000000E+00 -0.00000000000E+00 -0.45593999997E+02  0.45594000000E+02  0.51100000000E-03 0. -1.
    9900012    2    1    2    0    0  0.13486059650E+02 -0.27347508242E+00 -0.12989680392E+02  0.72461537702E+02  0.69999957543E+02 0.  0.
        -12    1    1    2    0    0 -0.13486059650E+02  0.27347508242E+00  0.12989680392E+02  0.18726462298E+02  0.00000000000E+00 0.  1.
         11    1    3    3    0    0 -0.55100465452E+01 -0.38534687096E+01 -0.13007265612E+02  0.14642362958E+02  0.51100000000E-03 0. -1.
        -11    1    3    3    0    0  0.11956970231E+02  0.27996422130E+02  0.74547537284E+01  0.31342337861E+02  0.51100000000E-03 0.  1.
        -12    1    3    3    0    0  0.70391359644E+01 -0.24416428502E+02 -0.74371685077E+01  0.26476836883E+02  0.00000000000E+00 0.  1.
</event>
<event>
 7    1  0.1884848E-013  0.7246161E+02  0.7816164E-02  0.1226708E+00
        -11   -1    0    0    0    0  0.00000000000E+00  0.00000000000E+00  0.45593999997E+02  0.45594000000E+02  0.51100000000E-03 0.  1.
         11   -1    0    0    0    0 -0.00000000000E+00 -0.00000000000E+00 -0.45593999997E+02  0.45594000000E+02  0.51100000000E-03 0. -1.
    9900012    2    1    2    0    0 -0.40079047483E+01  0.13105169555E+02 -0.12762004971E+02  0.72461613792E+02  0.70000056663E+02 0.  0.
        -12    1    1    2    0    0  0.40079047483E+01 -0.13105169555E+02  0.12762004971E+02  0.18726386208E+02  0.00000000000E+00 0.  1.
         11    1    3    3    0    0  0.14848090645E+02  0.21746255336E+02 -0.20433011218E+02  0.33329766945E+02  0.51100000000E-03 0. -1.
        -11    1    3    3    0    0 -0.26514773414E+02 -0.54543616564E+00  0.19166366644E+01  0.26589550695E+02  0.51100000000E-03 0.  1.
         12    1    3    3    0    0  0.76587780204E+01 -0.80956496148E+01  0.57543695825E+01  0.12542296151E+02  0.00000000000E+00 0. -1.
</event>
<event>
 7    1  0.1884848E-013  0.7246155E+02  0.7816164E-02  0.1226708E+00
        -11   -1    0    0    0    0  0.00000000000E+00  0.00000000000E+00  0.45593999997E+02  0.45594000000E+02  0.51100000000E-03 0.  1.
         11   -1    0    0    0    0 -0.00000000000E+00 -0.00000000000E+00 -0.45593999997E+02  0.45594000000E+02  0.51100000000E-03 0. -1.
    9900012    2    1    2    0    0 -0.17404465819E+02 -0.69043929863E+01  0.30613688217E+00  0.72461553655E+02  0.69999978324E+02 0.  0.
        -12    1    1    2    0    0  0.17404465819E+02  0.69043929863E+01 -0.30613688217E+00  0.18726446345E+02  0.00000000000E+00 0.  1.
         11    1    3    3    0    0 -0.10265312954E+02 -0.73160496771E+01 -0.11184653849E+02  0.16852231749E+02  0.51100000000E-03 0. -1.
        -11    1    3    3    0    0  0.10828577109E+02 -0.15462894584E+02  0.22378434244E+02  0.29277184130E+02  0.51100000000E-03 0.  1.
        -12    1    3    3    0    0 -0.17967729973E+02  0.15874551275E+02 -0.10887643513E+02  0.26332137775E+02  0.00000000000E+00 0.  1.
</event>
<event>
 7    1  0.1884848E-013  0.7246148E+02  0.7816164E-02  0.1226708E+00
        -11   -1    0    0    0    0  0.00000000000E+00  0.00000000000E+00  0.45593999997E+02  0.45594000000E+02  0.51100000000E-03 0. -1.
         11   -1    0    0    0    0 -0.00000000000E+00 -0.00000000000E+00 -0.45593999997E+02  0.45594000000E+02  0.51100000000E-03 0.  1.
    9900012    2    1    2    0    0 -0.12436972833E+02 -0.98409132773E+01  0.99579456994E+01  0.72461480037E+02  0.69999882423E+02 0.  0.
        -12    1    1    2    0    0  0.12436972833E+02  0.98409132773E+01 -0.99579456994E+01  0.18726519963E+02  0.00000000000E+00 0.  1.
         11    1    3    3    0    0 -0.99637231912E+01 -0.24340293696E+02  0.27507028069E+02  0.38057355012E+02  0.51100000000E-03 0. -1.
        -11    1    3    3    0    0  0.16553845736E+01 -0.58757619169E+01 -0.11047623358E+02  0.12621998982E+02  0.51100000000E-03 0.  1.
         12    1    3    3    0    0 -0.41286342150E+01  0.20375142335E+02 -0.65014590122E+01  0.21782126043E+02  0.00000000000E+00 0. -1.
</event>
<event>
 7    1  0.1884848E-013  0.7246150E+02  0.7816164E-02  0.1226708E+00
        -11   -1    0    0    0    0  0.00000000000E+00  0.00000000000E+00  0.45593999997E+02  0.45594000000E+02  0.51100000000E-03 0. -1.
         11   -1    0    0    0    0 -0.00000000000E+00 -0.00000000000E+00 -0.45593999997E+02  0.45594000000E+02  0.51100000000E-03 0.  1.
    9900012    2    1    2    0    0  0.16869640084E+02  0.38481454553E+01  0.71616137538E+01  0.72461502955E+02  0.69999912278E+02 0.  0.
        -12    1    1    2    0    0 -0.16869640084E+02 -0.38481454553E+01 -0.71616137538E+01  0.18726497045E+02  0.00000000000E+00 0.  1.
         11    1    3    3    0    0  0.12535868783E+02 -0.22254295893E+02 -0.15788993186E+01  0.25590908838E+02  0.51100000000E-03 0. -1.
        -11    1    3    3    0    0 -0.11378744452E+02  0.25010060756E+02 -0.23953881593E+01  0.27581095863E+02  0.51100000000E-03 0.  1.
         12    1    3    3    0    0  0.15712515753E+02  0.10923805922E+01  0.11135901232E+02  0.19289498254E+02  0.00000000000E+00 0. -1.
</event>
<event>
 7    1  0.1884848E-013  0.7246136E+02  0.7816164E-02  0.1226709E+00
        -11   -1    0    0    0    0  0.00000000000E+00  0.00000000000E+00  0.45593999997E+02  0.45594000000E+02  0.51100000000E-03 0. -1.
         11   -1    0    0    0    0 -0.00000000000E+00 -0.00000000000E+00 -0.45593999997E+02  0.45594000000E+02  0.51100000000E-03 0.  1.
    9900012    2    1    2    0    0 -0.82553249154E+01 -0.11226346184E+02  0.12510222548E+02  0.72461363722E+02  0.69999730900E+02 0.  0.
        -12    1    1    2    0    0  0.82553249154E+01  0.11226346184E+02 -0.12510222548E+02  0.18726636278E+02  0.00000000000E+00 0.  1.
         11    1    3    3    0    0 -0.18375342574E+02  0.17592197545E+02  0.18242815911E+02  0.31303976773E+02  0.51100000000E-03 0. -1.
        -11    1    3    3    0    0  0.15345175522E+02 -0.65528142875E+01 -0.73432768912E+01  0.18230126238E+02  0.51100000000E-03 0.  1.
         12    1    3    3    0    0 -0.52251578642E+01 -0.22265729442E+02  0.16106835285E+01  0.22927260711E+02  0.00000000000E+00 0. -1.
</event>
<event>
 7    1  0.1884848E-013  0.7246173E+02  0.7816164E-02  0.1226708E+00
        -11   -1    0    0    0    0  0.00000000000E+00  0.00000000000E+00  0.45593999997E+02  0.45594000000E+02  0.51100000000E-03 0.  1.
         11   -1    0    0    0    0 -0.00000000000E+00 -0.00000000000E+00 -0.45593999997E+02  0.45594000000E+02  0.51100000000E-03 0. -1.
    9900012    2    1    2    0    0 -0.12188773185E+02  0.11892881503E+02 -0.77888714112E+01  0.72461725943E+02  0.70000202761E+02 0.  0.
        -12    1    1    2    0    0  0.12188773185E+02 -0.11892881503E+02  0.77888714112E+01  0.18726274057E+02  0.00000000000E+00 0.  1.
         11    1    3    3    0    0  0.65826393361E+01  0.13031474498E+02 -0.25040440503E+02  0.28985757349E+02  0.51100000000E-03 0. -1.
        -11    1    3    3    0    0 -0.15323063396E+02 -0.17280065204E+02  0.12687396466E+02  0.26350843528E+02  0.51100000000E-03 0.  1.
        -12    1    3    3    0    0 -0.34483491252E+01  0.16141472209E+02  0.45641726258E+01  0.17125125066E+02  0.00000000000E+00 0.  1.
</event>
<event>
 7    1  0.1884848E-013  0.7246157E+02  0.7816164E-02  0.1226708E+00
        -11   -1    0    0    0    0  0.00000000000E+00  0.00000000000E+00  0.45593999997E+02  0.45594000000E+02  0.51100000000E-03 0. -1.
         11   -1    0    0    0    0 -0.00000000000E+00 -0.00000000000E+00 -0.45593999997E+02  0.45594000000E+02  0.51100000000E-03 0.  1.
    9900012    2    1    2    0    0 -0.12865198391E+02  0.13110483451E+02 -0.36443006080E+01  0.72461573943E+02  0.70000004753E+02 0.  0.
        -12    1    1    2    0    0  0.12865198391E+02 -0.13110483451E+02  0.36443006080E+01  0.18726426057E+02  0.00000000000E+00 0.  1.
         11    1    3    3    0    0  0.98079405804E+01 -0.32034451904E+01  0.79122460545E+01  0.13002361224E+02  0.51100000000E-03 0. -1.
        -11    1    3    3    0    0 -0.36589149119E+02  0.21636370000E+02 -0.13099837807E+02  0.44480378718E+02  0.51100000000E-03 0.  1.
        -12    1    3    3    0    0  0.13916010148E+02 -0.53224413591E+01  0.15432911446E+01  0.14978834001E+02  0.00000000000E+00 0.  1.
</event>
<event>
 7    1  0.1884848E-013  0.7246119E+02  0.7816164E-02  0.1226709E+00
        -11   -1    0    0    0    0  0.00000000000E+00  0.00000000000E+00  0.45593999997E+02  0.45594000000E+02  0.51100000000E-03 0.  1.
         11   -1    0    0    0    0 -0.00000000000E+00 -0.00000000000E+00 -0.45593999997E+02  0.45594000000E+02  0.51100000000E-03 0. -1.
    9900012    2    1    2    0    0  0.44469423391E+00  0.17429271693E+02 -0.68349170960E+01  0.72461191504E+02  0.69999506554E+02 0.  0.
        -12    1    1    2    0    0 -0.44469423391E+00 -0.17429271693E+02  0.68349170960E+01  0.18726808496E+02  0.00000000000E+00 0.  1.
         11    1    3    3    0    0 -0.28687132374E+02  0.23183279415E+02 -0.15951380168E+02  0.40185352279E+02  0.51100000000E-03 0. -1.
        -11    1    3    3    0    0  0.35065171891E+01 -0.40792234308E+00  0.44597511032E+01  0.56878329440E+01  0.51100000000E-03 0.  1.
         12    1    3    3    0    0  0.25625309418E+02 -0.53460853790E+01  0.46567119685E+01  0.26588006281E+02  0.00000000000E+00 0. -1.
</event>
<event>
 7    1  0.1884848E-013  0.7246181E+02  0.7816164E-02  0.1226707E+00
        -11   -1    0    0    0    0  0.00000000000E+00  0.00000000000E+00  0.45593999997E+02  0.45594000000E+02  0.51100000000E-03 0.  1.
         11   -1    0    0    0    0 -0.00000000000E+00 -0.00000000000E+00 -0.45593999997E+02  0.45594000000E+02  0.51100000000E-03 0. -1.
    9900012    2    1    2    0    0 -0.90554401811E+00  0.16953031671E+02 -0.79022187203E+01  0.72461805686E+02  0.70000306640E+02 0.  0.
        -12    1    1    2    0    0  0.90554401811E+00 -0.16953031671E+02  0.79022187203E+01  0.18726194314E+02  0.00000000000E+00 0.  1.
         11    1    3    3    0    0  0.51481756568E+01  0.18394787006E+02 -0.20905123268E+02  0.28317769699E+02  0.51100000000E-03 0. -1.
        -11    1    3    3    0    0  0.14575894339E+02 -0.28123292389E+01  0.17538300760E+02  0.22977334165E+02  0.51100000000E-03 0.  1.
        -12    1    3    3    0    0 -0.20629614014E+02  0.13705739032E+01 -0.45353962120E+01  0.21166701821E+02  0.00000000000E+00 0.  1.
</event>
<event>
 7    1  0.1884848E-013  0.7246155E+02  0.7816164E-02  0.1226708E+00
        -11   -1    0    0    0    0  0.00000000000E+00  0.00000000000E+00  0.45593999997E+02  0.45594000000E+02  0.51100000000E-03 0. -1.
         11   -1    0    0    0    0 -0.00000000000E+00 -0.00000000000E+00 -0.45593999997E+02  0.45594000000E+02  0.51100000000E-03 0.  1.
    9900012    2    1    2    0    0  0.14690596291E+02 -0.96868262739E+01 -0.64055875424E+01  0.72461554144E+02  0.69999978961E+02 0.  0.
        -12    1    1    2    0    0 -0.14690596291E+02  0.96868262739E+01  0.64055875424E+01  0.18726445856E+02  0.00000000000E+00 0.  1.
         11    1    3    3    0    0  0.94608040069E+01  0.15362794218E+01  0.18753193987E+02  0.21060609010E+02  0.51100000000E-03 0. -1.
        -11    1    3    3    0    0  0.57422116587E+01  0.15126572837E+02 -0.17765009581E+02  0.24028769553E+02  0.51100000000E-03 0.  1.
        -12    1    3    3    0    0 -0.51241937483E+00 -0.26349678533E+02 -0.73937719480E+01  0.27372175581E+02  0.00000000000E+00 0.  1.
</event>
<event>
 7    1  0.1884848E-013  0.7246154E+02  0.7816164E-02  0.1226708E+00
        -11   -1    0    0    0    0  0.00000000000E+00  0.00000000000E+00  0.45593999997E+02  0.45594000000E+02  0.51100000000E-03 0.  1.
         11   -1    0    0    0    0 -0.00000000000E+00 -0.00000000000E+00 -0.45593999997E+02  0.45594000000E+02  0.51100000000E-03 0. -1.
    9900012    2    1    2    0    0  0.13989736413E+02  0.35019780764E+01 -0.11945861186E+02  0.72461543452E+02  0.69999965033E+02 0.  0.
        -12    1    1    2    0    0 -0.13989736413E+02 -0.35019780764E+01  0.11945861186E+02  0.18726456548E+02  0.00000000000E+00 0.  1.
         11    1    3    3    0    0 -0.18606789290E+01  0.11420747018E+02  0.40163791984E+01  0.12248546471E+02  0.51100000000E-03 0. -1.
        -11    1    3    3    0    0  0.25143785591E+02  0.55410454983E+01 -0.29374126053E+02  0.39060880951E+02  0.51100000000E-03 0.  1.
        -12    1    3    3    0    0 -0.92933702483E+01 -0.13459814440E+02  0.13411885668E+02  0.21152116029E+02  0.00000000000E+00 0.  1.
</event>
<event>
 7    1  0.1884848E-013  0.7246155E+02  0.7816164E-02  0.1226708E+00
        -11   -1    0    0    0    0  0.00000000000E+00  0.00000000000E+00  0.45593999997E+02  0.45594000000E+02  0.51100000000E-03 0. -1.
         11   -1    0    0    0    0 -0.00000000000E+00 -0.00000000000E+00 -0.45593999997E+02  0.45594000000E+02  0.51100000000E-03 0.  1.
    9900012    2    1    2    0    0 -0.56395400784E+01  0.15706395950E+02  0.84961553856E+01  0.72461549659E+02  0.69999973119E+02 0.  0.
        -12    1    1    2    0    0  0.56395400784E+01 -0.15706395950E+02 -0.84961553856E+01  0.18726450341E+02  0.00000000000E+00 0.  1.
         11    1    3    3    0    0 -0.10706858451E+01 -0.47991863052E+01 -0.10096153897E+02  0.11229910113E+02  0.51100000000E-03 0.  1.
        -11    1    3    3    0    0  0.10351679539E+02 -0.10251905500E+00  0.31174256169E+02  0.32848166271E+02  0.51100000000E-03 0. -1.
        -12    1    3    3    0    0 -0.14920533772E+02  0.20608101310E+02 -0.12581946887E+02  0.28383473275E+02  0.00000000000E+00 0.  1.
</event>
<event>
 7    1  0.1884848E-013  0.7246157E+02  0.7816164E-02  0.1226708E+00
        -11   -1    0    0    0    0  0.00000000000E+00  0.00000000000E+00  0.45593999997E+02  0.45594000000E+02  0.51100000000E-03 0. -1.
         11   -1    0    0    0    0 -0.00000000000E+00 -0.00000000000E+00 -0.45593999997E+02  0.45594000000E+02  0.51100000000E-03 0.  1.
    9900012    2    1    2    0    0  0.77900307726E+01  0.38222593669E+01  0.16594721195E+02  0.72461574349E+02  0.70000005282E+02 0.  0.
        -12    1    1    2    0    0 -0.77900307726E+01 -0.38222593669E+01 -0.16594721195E+02  0.18726425651E+02  0.00000000000E+00 0.  1.
         11    1    3    3    0    0 -0.70874407104E+01  0.25376656849E+02 -0.82968041071E+00  0.26360859214E+02  0.51100000000E-03 0. -1.
        -11    1    3    3    0    0  0.32422959906E+01 -0.18796697130E+02  0.25372532174E+02  0.31742616393E+02  0.51100000000E-03 0.  1.
         12    1    3    3    0    0  0.11635175492E+02 -0.27577003516E+01 -0.79481305680E+01  0.14358098742E+02  0.00000000000E+00 0. -1.
</event>
<event>
 7    1  0.1884848E-013  0.7246156E+02  0.7816164E-02  0.1226708E+00
        -11   -1    0    0    0    0  0.00000000000E+00  0.00000000000E+00  0.45593999997E+02  0.45594000000E+02  0.51100000000E-03 0. -1.
         11   -1    0    0    0    0 -0.00000000000E+00 -0.00000000000E+00 -0.45593999997E+02  0.45594000000E+02  0.51100000000E-03 0.  1.
    9900012    2    1    2    0    0 -0.43001917377E+01 -0.16698894038E+02 -0.73030675360E+01  0.72461561297E+02  0.69999988279E+02 0.  0.
        -12    1    1    2    0    0  0.43001917377E+01  0.16698894038E+02  0.73030675360E+01  0.18726438703E+02  0.00000000000E+00 0.  1.
         11    1    3    3    0    0  0.71667297644E+01 -0.28306547770E+02  0.18650819586E+02  0.34647882095E+02  0.51100000000E-03 0. -1.
        -11    1    3    3    0    0 -0.17243557149E+02  0.60704314911E+01 -0.12452327926E+02  0.22119016088E+02  0.51100000000E-03 0.  1.
        -12    1    3    3    0    0  0.57766356470E+01  0.55372222407E+01 -0.13501559196E+02  0.15694663114E+02  0.00000000000E+00 0.  1.
</event>
<event>
 7    1  0.1884848E-013  0.7246151E+02  0.7816164E-02  0.1226708E+00
        -11   -1    0    0    0    0  0.00000000000E+00  0.00000000000E+00  0.45593999997E+02  0.45594000000E+02  0.51100000000E-03 0.  1.
         11   -1    0    0    0    0 -0.00000000000E+00 -0.00000000000E+00 -0.45593999997E+02  0.45594000000E+02  0.51100000000E-03 0. -1.
    9900012    2    1    2    0    0  0.21183128186E+01 -0.43209460374E+01 -0.18097609137E+02  0.72461513936E+02  0.69999926582E+02 0.  0.
        -12    1    1    2    0    0 -0.21183128186E+01  0.43209460374E+01  0.18097609137E+02  0.18726486064E+02  0.00000000000E+00 0.  1.
         11    1    3    3    0    0 -0.37586074892E+01 -0.22442172871E+01 -0.24397140651E+01  0.50115712577E+01  0.51100000000E-03 0. -1.
        -11    1    3    3    0    0  0.35719587861E+02 -0.13626647975E+01 -0.91352789460E+01  0.36894432289E+02  0.51100000000E-03 0.  1.
        -12    1    3    3    0    0 -0.29842667553E+02 -0.71406395278E+00 -0.65226161254E+01  0.30555510389E+02  0.00000000000E+00 0.  1.
</event>
<event>
 7    1  0.1884848E-013  0.7246157E+02  0.7816164E-02  0.1226708E+00
        -11   -1    0    0    0    0  0.00000000000E+00  0.00000000000E+00  0.45593999997E+02  0.45594000000E+02  0.51100000000E-03 0. -1.
         11   -1    0    0    0    0 -0.00000000000E+00 -0.00000000000E+00 -0.45593999997E+02  0.45594000000E+02  0.51100000000E-03 0.  1.
    9900012    2    1    2    0    0  0.12888483229E+02 -0.13558085127E+02 -0.86294128990E+00  0.72461565745E+02  0.69999994073E+02 0.  0.
        -12    1    1    2    0    0 -0.12888483229E+02  0.13558085127E+02  0.86294128990E+00  0.18726434255E+02  0.00000000000E+00 0.  1.
         11    1    3    3    0    0 -0.10253866790E+02  0.38209319953E+01 -0.17647211854E+02  0.20764522435E+02  0.51100000000E-03 0. -1.
        -11    1    3    3    0    0  0.63231798371E+01 -0.22079607540E+02  0.23617997355E+02  0.32943914031E+02  0.51100000000E-03 0.  1.
        -12    1    3    3    0    0  0.16819170182E+02  0.47005904178E+01 -0.68337267908E+01  0.18753129279E+02  0.00000000000E+00 0.  1.
</event>
<event>
 7    1  0.1884848E-013  0.7246167E+02  0.7816164E-02  0.1226708E+00
        -11   -1    0    0    0    0  0.00000000000E+00  0.00000000000E+00  0.45593999997E+02  0.45594000000E+02  0.51100000000E-03 0.  1.
         11   -1    0    0    0    0 -0.00000000000E+00 -0.00000000000E+00 -0.45593999997E+02  0.45594000000E+02  0.51100000000E-03 0. -1.
    9900012    2    1    2    0    0  0.14291199739E+02 -0.89419079747E+01 -0.81534867558E+01  0.72461669487E+02  0.70000129216E+02 0.  0.
        -12    1    1    2    0    0 -0.14291199739E+02  0.89419079747E+01  0.81534867558E+01  0.18726330513E+02  0.00000000000E+00 0.  1.
         11    1    3    3    0    0  0.43930765084E+01 -0.20822368457E+02 -0.29687032522E+02  0.36526566354E+02  0.51100000000E-03 0. -1.
        -11    1    3    3    0    0 -0.76511344502E+01  0.55931625095E+01  0.38155290396E+01  0.10216730756E+02  0.51100000000E-03 0.  1.
         12    1    3    3    0    0  0.17549257681E+02  0.62872979730E+01  0.17718016727E+02  0.25718372376E+02  0.00000000000E+00 0. -1.
</event>
<event>
 7    1  0.1884848E-013  0.7246159E+02  0.7816164E-02  0.1226708E+00
        -11   -1    0    0    0    0  0.00000000000E+00  0.00000000000E+00  0.45593999997E+02  0.45594000000E+02  0.51100000000E-03 0. -1.
         11   -1    0    0    0    0 -0.00000000000E+00 -0.00000000000E+00 -0.45593999997E+02  0.45594000000E+02  0.51100000000E-03 0.  1.
    9900012    2    1    2    0    0 -0.14082846449E+01 -0.13668548357E+02  0.12722658810E+02  0.72461587449E+02  0.70000022348E+02 0.  0.
        -12    1    1    2    0    0  0.14082846449E+01  0.13668548357E+02 -0.12722658810E+02  0.18726412551E+02  0.00000000000E+00 0.  1.
         11    1    3    3    0    0 -0.10430457704E+02  0.18513417932E+02 -0.99686586882E+01  0.23471583835E+02  0.51100000000E-03 0. -1.
        -11    1    3    3    0    0  0.18163478946E+02 -0.20521543212E+02  0.90795163034E+01  0.28870111184E+02  0.51100000000E-03 0.  1.
         12    1    3    3    0    0 -0.91413058862E+01 -0.11660423076E+02  0.13611801195E+02  0.20119892430E+02  0.00000000000E+00 0. -1.
</event>
<event>
 7    1  0.1884848E-013  0.7246158E+02  0.7816164E-02  0.1226708E+00
        -11   -1    0    0    0    0  0.00000000000E+00  0.00000000000E+00  0.45593999997E+02  0.45594000000E+02  0.51100000000E-03 0.  1.
         11   -1    0    0    0    0 -0.00000000000E+00 -0.00000000000E+00 -0.45593999997E+02  0.45594000000E+02  0.51100000000E-03 0. -1.
    9900012    2    1    2    0    0 -0.61684402879E+01 -0.12168201847E+02 -0.12828248520E+02  0.72461581445E+02  0.70000014526E+02 0.  0.
        -12    1    1    2    0    0  0.61684402879E+01  0.12168201847E+02  0.12828248520E+02  0.18726418555E+02  0.00000000000E+00 0.  1.
         11    1    3    3    0    0 -0.23793534211E+02  0.27640162476E+01 -0.31445990326E+02  0.39530018516E+02  0.51100000000E-03 0. -1.
        -11    1    3    3    0    0  0.63318255704E+01 -0.17334489754E+01  0.13188503207E+02  0.14732056120E+02  0.51100000000E-03 0.  1.
         12    1    3    3    0    0  0.11293268352E+02 -0.13198769120E+02  0.54292385981E+01  0.18199506809E+02  0.00000000000E+00 0. -1.
</event>
<event>
 7    1  0.1884848E-013  0.7246158E+02  0.7816164E-02  0.1226708E+00
        -11   -1    0    0    0    0  0.00000000000E+00  0.00000000000E+00  0.45593999997E+02  0.45594000000E+02  0.51100000000E-03 0. -1.
         11   -1    0    0    0    0 -0.00000000000E+00 -0.00000000000E+00 -0.45593999997E+02  0.45594000000E+02  0.51100000000E-03 0.  1.
    9900012    2    1    2    0    0  0.15781395879E+02 -0.64830189728E+01  0.77198922927E+01  0.72461582085E+02  0.70000015360E+02 0.  0.
        -12    1    1    2    0    0 -0.15781395879E+02  0.64830189728E+01 -0.77198922927E+01  0.18726417915E+02  0.00000000000E+00 0.  1.
         11    1    3    3    0    0  0.26772954870E+02  0.20153179161E+02 -0.97835225072E+01  0.34909297554E+02  0.51100000000E-03 0. -1.
        -11    1    3    3    0    0 -0.80183203639E+01 -0.34546082095E+01  0.93669864170E+01  0.12805007385E+02  0.51100000000E-03 0.  1.
         12    1    3    3    0    0 -0.29732386272E+01 -0.23181589924E+02  0.81364283829E+01  0.24747277147E+02  0.00000000000E+00 0. -1.
</event>
<event>
 7    1  0.1884848E-013  0.7246158E+02  0.7816164E-02  0.1226708E+00
        -11   -1    0    0    0    0  0.00000000000E+00  0.00000000000E+00  0.45593999997E+02  0.45594000000E+02  0.51100000000E-03 0. -1.
         11   -1    0    0    0    0 -0.00000000000E+00 -0.00000000000E+00 -0.45593999997E+02  0.45594000000E+02  0.51100000000E-03 0.  1.
    9900012    2    1    2    0    0  0.33653505452E+01 -0.74728225186E+01  0.16837757279E+02  0.72461582006E+02  0.70000015257E+02 0.  0.
        -12    1    1    2    0    0 -0.33653505452E+01  0.74728225186E+01 -0.16837757279E+02  0.18726417994E+02  0.00000000000E+00 0.  1.
         11    1    3    3    0    0 -0.16163257027E+02 -0.22990019997E+00  0.12874931425E+02  0.20665613741E+02  0.51100000000E-03 0. -1.
        -11    1    3    3    0    0  0.12799306767E+02 -0.24851884229E+02 -0.84759622407E+01  0.29210962662E+02  0.51100000000E-03 0.  1.
        -12    1    3    3    0    0  0.67293008047E+01  0.17608961910E+02  0.12438788095E+02  0.22585005604E+02  0.00000000000E+00 0.  1.
</event>
<event>
 7    1  0.1884848E-013  0.7246154E+02  0.7816164E-02  0.1226708E+00
        -11   -1    0    0    0    0  0.00000000000E+00  0.00000000000E+00  0.45593999997E+02  0.45594000000E+02  0.51100000000E-03 0.  1.
         11   -1    0    0    0    0 -0.00000000000E+00 -0.00000000000E+00 -0.45593999997E+02  0.45594000000E+02  0.51100000000E-03 0. -1.
    9900012    2    1    2    0    0 -0.70155175117E+00 -0.33856349966E+01 -0.18404496169E+02  0.72461543356E+02  0.69999964908E+02 0.  0.
        -12    1    1    2    0    0  0.70155175117E+00  0.33856349966E+01  0.18404496169E+02  0.18726456644E+02  0.00000000000E+00 0.  1.
         11    1    3    3    0    0 -0.64500145116E+01 -0.13972389642E+02 -0.20941201445E+02  0.25987771696E+02  0.51100000000E-03 0. -1.
        -11    1    3    3    0    0  0.53049690402E+01  0.18772322017E+02  0.19531775217E+02  0.27604945459E+02  0.51100000000E-03 0.  1.
        -12    1    3    3    0    0  0.44349372022E+00 -0.81855673708E+01 -0.16995069941E+02  0.18868826200E+02  0.00000000000E+00 0.  1.
</event>
<event>
 7    1  0.1884848E-013  0.7246138E+02  0.7816164E-02  0.1226709E+00
        -11   -1    0    0    0    0  0.00000000000E+00  0.00000000000E+00  0.45593999997E+02  0.45594000000E+02  0.51100000000E-03 0.  1.
         11   -1    0    0    0    0 -0.00000000000E+00 -0.00000000000E+00 -0.45593999997E+02  0.45594000000E+02  0.51100000000E-03 0. -1.
    9900012    2    1    2    0    0  0.17934651707E+02 -0.16794815092E+01  0.51199389442E+01  0.72461383520E+02  0.69999756692E+02 0.  0.
        -12    1    1    2    0    0 -0.17934651707E+02  0.16794815092E+01 -0.51199389442E+01  0.18726616480E+02  0.00000000000E+00 0.  1.
         11    1    3    3    0    0 -0.88299105736E+00  0.18636496778E+02  0.18947736466E+02  0.26591641596E+02  0.51100000000E-03 0.  1.
        -11    1    3    3    0    0  0.22943469870E+02 -0.17686025461E+02  0.22575247900E+01  0.29056750072E+02  0.51100000000E-03 0. -1.
         12    1    3    3    0    0 -0.41258271062E+01 -0.26299528262E+01 -0.16085322311E+02  0.16812991853E+02  0.00000000000E+00 0. -1.
</event>
<event>
 7    1  0.1884848E-013  0.7246153E+02  0.7816164E-02  0.1226708E+00
        -11   -1    0    0    0    0  0.00000000000E+00  0.00000000000E+00  0.45593999997E+02  0.45594000000E+02  0.51100000000E-03 0.  1.
         11   -1    0    0    0    0 -0.00000000000E+00 -0.00000000000E+00 -0.45593999997E+02  0.45594000000E+02  0.51100000000E-03 0. -1.
    9900012    2    1    2    0    0 -0.65717814136E+01 -0.53393269717E+01 -0.16702811937E+02  0.72461530763E+02  0.69999948504E+02 0.  0.
        -12    1    1    2    0    0  0.65717814136E+01  0.53393269717E+01  0.16702811937E+02  0.18726469237E+02  0.00000000000E+00 0.  1.
         11    1    3    3    0    0 -0.25497190197E+02 -0.28483830666E+01 -0.22989960868E+01  0.25758598124E+02  0.51100000000E-03 0. -1.
        -11    1    3    3    0    0  0.26807934911E+02 -0.14142072079E+02 -0.88039599747E+01  0.31562212983E+02  0.51100000000E-03 0.  1.
        -12    1    3    3    0    0 -0.78825261274E+01  0.11651128174E+02 -0.55998558757E+01  0.15140719656E+02  0.00000000000E+00 0.  1.
</event>
<event>
 7    1  0.1884848E-013  0.7246156E+02  0.7816164E-02  0.1226708E+00
        -11   -1    0    0    0    0  0.00000000000E+00  0.00000000000E+00  0.45593999997E+02  0.45594000000E+02  0.51100000000E-03 0. -1.
         11   -1    0    0    0    0 -0.00000000000E+00 -0.00000000000E+00 -0.45593999997E+02  0.45594000000E+02  0.51100000000E-03 0.  1.
    9900012    2    1    2    0    0  0.65569193978E+01  0.17307147520E+02  0.28546142659E+01  0.72461564945E+02  0.69999993031E+02 0.  0.
        -12    1    1    2    0    0 -0.65569193978E+01 -0.17307147520E+02 -0.28546142659E+01  0.18726435055E+02  0.00000000000E+00 0.  1.
         11    1    3    3    0    0 -0.27643393798E+02  0.58341815853E+01 -0.41025137579E+01  0.28548651717E+02  0.51100000000E-03 0. -1.
        -11    1    3    3    0    0  0.19324790697E+02  0.38730854704E+01 -0.82094191496E+01  0.21350477502E+02  0.51100000000E-03 0.  1.
         12    1    3    3    0    0  0.14875522500E+02  0.75998804643E+01  0.15166547173E+02  0.22562435726E+02  0.00000000000E+00 0. -1.
</event>
<event>
 7    1  0.1884848E-013  0.7246159E+02  0.7816164E-02  0.1226708E+00
        -11   -1    0    0    0    0  0.00000000000E+00  0.00000000000E+00  0.45593999997E+02  0.45594000000E+02  0.51100000000E-03 0.  1.
         11   -1    0    0    0    0 -0.00000000000E+00 -0.00000000000E+00 -0.45593999997E+02  0.45594000000E+02  0.51100000000E-03 0. -1.
    9900012    2    1    2    0    0  0.37773782781E+01  0.18277567669E+02  0.15298034456E+01  0.72461591771E+02  0.70000027978E+02 0.  0.
        -12    1    1    2    0    0 -0.37773782781E+01 -0.18277567669E+02 -0.15298034456E+01  0.18726408229E+02  0.00000000000E+00 0.  1.
         11    1    3    3    0    0 -0.28190413290E+01 -0.37208234402E+01 -0.19428102479E+02  0.19981058212E+02  0.51100000000E-03 0. -1.
        -11    1    3    3    0    0  0.24220546712E+02  0.84059266343E+01  0.87138813773E+01  0.27078150131E+02  0.51100000000E-03 0.  1.
        -12    1    3    3    0    0 -0.17624127105E+02  0.13592464475E+02  0.12244024547E+02  0.25402383428E+02  0.00000000000E+00 0.  1.
</event>
<event>
 7    1  0.1884848E-013  0.7246157E+02  0.7816164E-02  0.1226708E+00
        -11   -1    0    0    0    0  0.00000000000E+00  0.00000000000E+00  0.45593999997E+02  0.45594000000E+02  0.51100000000E-03 0. -1.
         11   -1    0    0    0    0 -0.00000000000E+00 -0.00000000000E+00 -0.45593999997E+02  0.45594000000E+02  0.51100000000E-03 0.  1.
    9900012    2    1    2    0    0  0.10265682341E+02 -0.89496456074E+01  0.12852968439E+02  0.72461569798E+02  0.69999999353E+02 0.  0.
        -12    1    1    2    0    0 -0.10265682341E+02  0.89496456074E+01 -0.12852968439E+02  0.18726430202E+02  0.00000000000E+00 0.  1.
         11    1    3    3    0    0 -0.10507541536E+02 -0.23171937669E+02  0.14754837555E+02  0.29411772405E+02  0.51100000000E-03 0. -1.
        -11    1    3    3    0    0  0.11334878164E+02 -0.45977655594E+01 -0.14140572313E+02  0.18696916771E+02  0.51100000000E-03 0.  1.
         12    1    3    3    0    0  0.94383457138E+01  0.18820057621E+02  0.12238703197E+02  0.24352880622E+02  0.00000000000E+00 0. -1.
</event>
<event>
 7    1  0.1884848E-013  0.7246156E+02  0.7816164E-02  0.1226708E+00
        -11   -1    0    0    0    0  0.00000000000E+00  0.00000000000E+00  0.45593999997E+02  0.45594000000E+02  0.51100000000E-03 0.  1.
         11   -1    0    0    0    0 -0.00000000000E+00 -0.00000000000E+00 -0.45593999997E+02  0.45594000000E+02  0.51100000000E-03 0. -1.
    9900012    2    1    2    0    0 -0.11782020584E+02 -0.14135431601E+02  0.34717737004E+01  0.72461557513E+02  0.69999983350E+02 0.  0.
        -12    1    1    2    0    0  0.11782020584E+02  0.14135431601E+02 -0.34717737004E+01  0.18726442487E+02  0.00000000000E+00 0.  1.
         11    1    3    3    0    0 -0.19440448465E+02  0.99036601105E+01 -0.12894622793E+02  0.25343338717E+02  0.51100000000E-03 0. -1.
        -11    1    3    3    0    0 -0.37373713312E+01 -0.28620832842E+02  0.19000829819E+02  0.34556497957E+02  0.51100000000E-03 0.  1.
        -12    1    3    3    0    0  0.11395799212E+02  0.45817411297E+01 -0.26344333253E+01  0.12561720838E+02  0.00000000000E+00 0.  1.
</event>
<event>
 7    1  0.1884848E-013  0.7246135E+02  0.7816164E-02  0.1226709E+00
        -11   -1    0    0    0    0  0.00000000000E+00  0.00000000000E+00  0.45593999997E+02  0.45594000000E+02  0.51100000000E-03 0.  1.
         11   -1    0    0    0    0 -0.00000000000E+00 -0.00000000000E+00 -0.45593999997E+02  0.45594000000E+02  0.51100000000E-03 0. -1.
    9900012    2    1    2    0    0 -0.78256133259E+01 -0.16999142568E+02  0.69017608742E+00  0.72461350139E+02  0.69999713206E+02 0.  0.
        -12    1    1    2    0    0  0.78256133259E+01  0.16999142568E+02 -0.69017608742E+00  0.18726649861E+02  0.00000000000E+00 0.  1.
         11    1    3    3    0    0  0.12466273260E+02 -0.11700127003E+02 -0.16966736491E+02  0.24086740923E+02  0.51100000000E-03 0. -1.
        -11    1    3    3    0    0 -0.50960553038E+01  0.39744834886E+00  0.28436495215E+02  0.28892248186E+02  0.51100000000E-03 0.  1.
         12    1    3    3    0    0 -0.15195831283E+02 -0.56964639144E+01 -0.10779582637E+02  0.19482361030E+02  0.00000000000E+00 0. -1.
</event>
<event>
 7    1  0.1884848E-013  0.7246147E+02  0.7816164E-02  0.1226708E+00
        -11   -1    0    0    0    0  0.00000000000E+00  0.00000000000E+00  0.45593999997E+02  0.45594000000E+02  0.51100000000E-03 0.  1.
         11   -1    0    0    0    0 -0.00000000000E+00 -0.00000000000E+00 -0.45593999997E+02  0.45594000000E+02  0.51100000000E-03 0. -1.
    9900012    2    1    2    0    0  0.64099612462E+01  0.15634536641E+02 -0.80719696670E+01  0.72461467126E+02  0.69999865604E+02 0.  0.
        -12    1    1    2    0    0 -0.64099612462E+01 -0.15634536641E+02  0.80719696670E+01  0.18726532874E+02  0.00000000000E+00 0.  1.
         11    1    3    3    0    0 -0.41071737513E+01  0.37507098065E+02  0.12666776204E+02  0.39800734932E+02  0.51100000000E-03 0. -1.
        -11    1    3    3    0    0 -0.38721910942E+00 -0.30125639351E+01 -0.83013213829E+00  0.31487457392E+01  0.51100000000E-03 0.  1.
         12    1    3    3    0    0  0.10904354107E+02 -0.18859997489E+02 -0.19908613732E+02  0.29511986455E+02  0.00000000000E+00 0. -1.
</event>
<event>
 7    1  0.1884848E-013  0.7246154E+02  0.7816164E-02  0.1226708E+00
        -11   -1    0    0    0    0  0.00000000000E+00  0.00000000000E+00  0.45593999997E+02  0.45594000000E+02  0.51100000000E-03 0.  1.
         11   -1    0    0    0    0 -0.00000000000E+00 -0.00000000000E+00 -0.45593999997E+02  0.45594000000E+02  0.51100000000E-03 0. -1.
    9900012    2    1    2    0    0 -0.16512578436E+02 -0.25276066442E+01  0.84632246370E+01  0.72461542428E+02  0.69999963699E+02 0.  0.
        -12    1    1    2    0    0  0.16512578436E+02  0.25276066442E+01 -0.84632246370E+01  0.18726457572E+02  0.00000000000E+00 0.  1.
         11    1    3    3    0    0 -0.20880234651E+02 -0.50044122037E+01 -0.11115527874E+02  0.24178157514E+02  0.51100000000E-03 0. -1.
        -11    1    3    3    0    0  0.20646925334E+02 -0.93439742295E+01  0.44112843890E+01  0.23088196343E+02  0.51100000000E-03 0.  1.
        -12    1    3    3    0    0 -0.16279269119E+02  0.11820779789E+02  0.15167468122E+02  0.25195188571E+02  0.00000000000E+00 0.  1.
</event>
<event>
 7    1  0.1884848E-013  0.7246163E+02  0.7816164E-02  0.1226708E+00
        -11   -1    0    0    0    0  0.00000000000E+00  0.00000000000E+00  0.45593999997E+02  0.45594000000E+02  0.51100000000E-03 0.  1.
         11   -1    0    0    0    0 -0.00000000000E+00 -0.00000000000E+00 -0.45593999997E+02  0.45594000000E+02  0.51100000000E-03 0. -1.
    9900012    2    1    2    0    0 -0.83211777898E+01 -0.69615070952E+01  0.15263433490E+02  0.72461628682E+02  0.70000076061E+02 0.  0.
        -12    1    1    2    0    0  0.83211777898E+01  0.69615070952E+01 -0.15263433490E+02  0.18726371318E+02  0.00000000000E+00 0.  1.
         11    1    3    3    0    0  0.20015788677E+01  0.22437480264E+02 -0.44308226248E+01  0.22958201758E+02  0.51100000000E-03 0. -1.
        -11    1    3    3    0    0  0.30226692439E+01 -0.28089160935E+02  0.22114255000E+02  0.35877259731E+02  0.51100000000E-03 0.  1.
        -12    1    3    3    0    0 -0.13345425901E+02 -0.13098264248E+01 -0.24199988850E+01  0.13626167192E+02  0.00000000000E+00 0.  1.
</event>
<event>
 7    1  0.1884848E-013  0.7246157E+02  0.7816164E-02  0.1226708E+00
        -11   -1    0    0    0    0  0.00000000000E+00  0.00000000000E+00  0.45593999997E+02  0.45594000000E+02  0.51100000000E-03 0.  1.
         11   -1    0    0    0    0 -0.00000000000E+00 -0.00000000000E+00 -0.45593999997E+02  0.45594000000E+02  0.51100000000E-03 0. -1.
    9900012    2    1    2    0    0 -0.52177447182E+01 -0.36777084730E+01 -0.17604791666E+02  0.72461572440E+02  0.70000002795E+02 0.  0.
        -12    1    1    2    0    0  0.52177447182E+01  0.36777084730E+01  0.17604791666E+02  0.18726427560E+02  0.00000000000E+00 0.  1.
         11    1    3    3    0    0  0.13205138616E+02  0.58890938443E+01 -0.20534396333E+02  0.25114110480E+02  0.51100000000E-03 0. -1.
        -11    1    3    3    0    0  0.10468608435E+02 -0.14199285014E+02  0.39148807027E+01  0.18070355521E+02  0.51100000000E-03 0.  1.
         12    1    3    3    0    0 -0.28891491769E+02  0.46324826969E+01 -0.98527603573E+00  0.29277106439E+02  0.00000000000E+00 0. -1.
</event>
<event>
 7    1  0.1884848E-013  0.7246199E+02  0.7816164E-02  0.1226707E+00
        -11   -1    0    0    0    0  0.00000000000E+00  0.00000000000E+00  0.45593999997E+02  0.45594000000E+02  0.51100000000E-03 0.  1.
         11   -1    0    0    0    0 -0.00000000000E+00 -0.00000000000E+00 -0.45593999997E+02  0.45594000000E+02  0.51100000000E-03 0. -1.
    9900012    2    1    2    0    0 -0.11458200570E+02 -0.75520681153E+01  0.12741242730E+02  0.72461992432E+02  0.70000549911E+02 0.  0.
        -12    1    1    2    0    0  0.11458200570E+02  0.75520681153E+01 -0.12741242730E+02  0.18726007568E+02  0.00000000000E+00 0.  1.
         11    1    3    3    0    0  0.62983164144E+01  0.17190747238E+02  0.15281927967E+02  0.23848016750E+02  0.51100000000E-03 0.  1.
        -11    1    3    3    0    0 -0.90427334942E+01 -0.33007461437E+02 -0.84171212022E+01  0.35243601818E+02  0.51100000000E-03 0. -1.
        -12    1    3    3    0    0 -0.87137834904E+01  0.82646460831E+01  0.58764359647E+01  0.13370373863E+02  0.00000000000E+00 0.  1.
</event>
<event>
 7    1  0.1884848E-013  0.7246136E+02  0.7816164E-02  0.1226709E+00
        -11   -1    0    0    0    0  0.00000000000E+00  0.00000000000E+00  0.45593999997E+02  0.45594000000E+02  0.51100000000E-03 0.  1.
         11   -1    0    0    0    0 -0.00000000000E+00 -0.00000000000E+00 -0.45593999997E+02  0.45594000000E+02  0.51100000000E-03 0. -1.
    9900012    2    1    2    0    0  0.20367985399E+01 -0.18311088706E+02  0.33529886592E+01  0.72461359863E+02  0.69999725873E+02 0.  0.
        -12    1    1    2    0    0 -0.20367985399E+01  0.18311088706E+02 -0.33529886592E+01  0.18726640137E+02  0.00000000000E+00 0.  1.
         11    1    3    3    0    0  0.97065924112E+01 -0.27223225427E+02 -0.13027783359E+02  0.31702445937E+02  0.51100000000E-03 0. -1.
        -11    1    3    3    0    0 -0.16215886155E+02 -0.59678318844E+01  0.35975387597E+00  0.17282922331E+02  0.51100000000E-03 0.  1.
         12    1    3    3    0    0  0.85460922835E+01  0.14879968606E+02  0.16021018142E+02  0.23475991594E+02  0.00000000000E+00 0. -1.
</event>
<event>
 7    1  0.1884848E-013  0.7246119E+02  0.7816164E-02  0.1226709E+00
        -11   -1    0    0    0    0  0.00000000000E+00  0.00000000000E+00  0.45593999997E+02  0.45594000000E+02  0.51100000000E-03 0. -1.
         11   -1    0    0    0    0 -0.00000000000E+00 -0.00000000000E+00 -0.45593999997E+02  0.45594000000E+02  0.51100000000E-03 0.  1.
    9900012    2    1    2    0    0 -0.50167397928E+01 -0.92708142515E+01  0.15478294268E+02  0.72461193853E+02  0.69999509614E+02 0.  0.
        -12    1    1    2    0    0  0.50167397928E+01  0.92708142515E+01 -0.15478294268E+02  0.18726806147E+02  0.00000000000E+00 0.  1.
         11    1    3    3    0    0 -0.71609736078E+01 -0.33018646910E+02  0.81853497586E+01  0.34763638154E+02  0.51100000000E-03 0. -1.
        -11    1    3    3    0    0  0.97936944855E+01  0.19685802272E+02  0.14577059993E+02  0.26380635721E+02  0.51100000000E-03 0.  1.
         12    1    3    3    0    0 -0.76494606705E+01  0.40620303863E+01 -0.72841154839E+01  0.11316919978E+02  0.00000000000E+00 0. -1.
</event>
<event>
 8    1  0.1884848E-013  0.7246171E+02  0.7816164E-02  0.1226708E+00
        -11   -1    0    0    0    0  0.00000000000E+00  0.00000000000E+00  0.45593999997E+02  0.45594000000E+02  0.51100000000E-03 0. -1.
         11   -1    0    0    0    0 -0.00000000000E+00 -0.00000000000E+00 -0.45593999997E+02  0.45594000000E+02  0.51100000000E-03 0.  1.
    9900012    2    1    2    0    0  0.81677606250E+01  0.60089618032E+01  0.15743374675E+02  0.72461714150E+02  0.70000187398E+02 0.  0.
        -24    2    3    3    0    0  0.23013574953E+02  0.79218413052E+01  0.71521668138E+01  0.55202914544E+02  0.49028849489E+02 0.  0.
        -12    1    1    2    0    0 -0.81677606250E+01 -0.60089618032E+01 -0.15743374675E+02  0.18726285850E+02  0.00000000000E+00 0.  1.
         11    1    4    4    0    0  0.75409011197E+01  0.27637193587E+02 -0.15073767118E+01  0.28687137255E+02  0.51100000000E-03 0. -1.
        -11    1    3    3    0    0 -0.14845814328E+02 -0.19128795020E+01  0.85912078614E+01  0.17258799606E+02  0.51100000000E-03 0.  1.
        -12    1    4    4    0    0  0.15472673834E+02 -0.19715352282E+02  0.86595435256E+01  0.26515777289E+02  0.00000000000E+00 0.  1.
</event>
<event>
 7    1  0.1884848E-013  0.7246150E+02  0.7816164E-02  0.1226708E+00
        -11   -1    0    0    0    0  0.00000000000E+00  0.00000000000E+00  0.45593999997E+02  0.45594000000E+02  0.51100000000E-03 0.  1.
         11   -1    0    0    0    0 -0.00000000000E+00 -0.00000000000E+00 -0.45593999997E+02  0.45594000000E+02  0.51100000000E-03 0. -1.
    9900012    2    1    2    0    0 -0.63634230483E+01 -0.19137315529E+01 -0.17507894357E+02  0.72461497759E+02  0.69999905509E+02 0.  0.
        -12    1    1    2    0    0  0.63634230483E+01  0.19137315529E+01  0.17507894357E+02  0.18726502241E+02  0.00000000000E+00 0.  1.
         11    1    3    3    0    0  0.12068817772E+02  0.75922460547E+01  0.97727877378E+01  0.17286004252E+02  0.51100000000E-03 0.  1.
        -11    1    3    3    0    0 -0.69546579449E+01 -0.20824639253E+02 -0.31607957007E+02  0.38485007646E+02  0.51100000000E-03 0. -1.
        -12    1    3    3    0    0 -0.11477582876E+02  0.11318661645E+02  0.43272749114E+01  0.16690485861E+02  0.00000000000E+00 0.  1.
</event>
<event>
 7    1  0.1884848E-013  0.7246158E+02  0.7816164E-02  0.1226708E+00
        -11   -1    0    0    0    0  0.00000000000E+00  0.00000000000E+00  0.45593999997E+02  0.45594000000E+02  0.51100000000E-03 0.  1.
         11   -1    0    0    0    0 -0.00000000000E+00 -0.00000000000E+00 -0.45593999997E+02  0.45594000000E+02  0.51100000000E-03 0. -1.
    9900012    2    1    2    0    0 -0.16628263664E+02 -0.65805176498E+01 -0.55566716691E+01  0.72461575754E+02  0.70000007112E+02 0.  0.
        -12    1    1    2    0    0  0.16628263664E+02  0.65805176498E+01  0.55566716691E+01  0.18726424246E+02  0.00000000000E+00 0.  1.
         11    1    3    3    0    0 -0.35321366421E+01  0.12009895104E+01 -0.55171200281E+01  0.66601035073E+01  0.51100000000E-03 0. -1.
        -11    1    3    3    0    0 -0.55022998780E+01  0.14082632499E+02  0.26547634224E+02  0.30551149327E+02  0.51100000000E-03 0.  1.
        -12    1    3    3    0    0 -0.75938271438E+01 -0.21864139659E+02 -0.26587185865E+02  0.35250322920E+02  0.00000000000E+00 0.  1.
</event>
<event>
 7    1  0.1884848E-013  0.7246092E+02  0.7816164E-02  0.1226710E+00
        -11   -1    0    0    0    0  0.00000000000E+00  0.00000000000E+00  0.45593999997E+02  0.45594000000E+02  0.51100000000E-03 0. -1.
         11   -1    0    0    0    0 -0.00000000000E+00 -0.00000000000E+00 -0.45593999997E+02  0.45594000000E+02  0.51100000000E-03 0.  1.
    9900012    2    1    2    0    0 -0.40249347385E+01  0.11920439754E+02  0.13871068676E+02  0.72460919881E+02  0.69999152710E+02 0.  0.
        -12    1    1    2    0    0  0.40249347385E+01 -0.11920439754E+02 -0.13871068676E+02  0.18727080119E+02  0.00000000000E+00 0.  1.
         11    1    3    3    0    0 -0.26615207348E+02 -0.11632183699E+02  0.22865634998E+02  0.36966393168E+02  0.51100000000E-03 0. -1.
        -11    1    3    3    0    0  0.15119389497E+02  0.81572329574E+01 -0.54052861540E+01  0.18009816960E+02  0.51100000000E-03 0.  1.
         12    1    3    3    0    0  0.74708831127E+01  0.15395390495E+02 -0.35892801683E+01  0.17484709752E+02  0.00000000000E+00 0. -1.
</event>
<event>
 7    1  0.1884848E-013  0.7246148E+02  0.7816164E-02  0.1226708E+00
        -11   -1    0    0    0    0  0.00000000000E+00  0.00000000000E+00  0.45593999997E+02  0.45594000000E+02  0.51100000000E-03 0. -1.
         11   -1    0    0    0    0 -0.00000000000E+00 -0.00000000000E+00 -0.45593999997E+02  0.45594000000E+02  0.51100000000E-03 0.  1.
    9900012    2    1    2    0    0  0.15132249055E+02 -0.93606088897E+01 -0.58375158321E+01  0.72461479999E+02  0.69999882374E+02 0.  0.
        -12    1    1    2    0    0 -0.15132249055E+02  0.93606088897E+01  0.58375158321E+01  0.18726520001E+02  0.00000000000E+00 0.  1.
         11    1    3    3    0    0  0.20377859733E+02  0.22557873390E+02 -0.12181965989E+02  0.32749276554E+02  0.51100000000E-03 0. -1.
        -11    1    3    3    0    0  0.16691324575E+01 -0.24058620054E+02 -0.46174954643E+01  0.24554520291E+02  0.51100000000E-03 0.  1.
         12    1    3    3    0    0 -0.69147431357E+01 -0.78598622249E+01  0.10961945621E+02  0.15157683155E+02  0.00000000000E+00 0. -1.
</event>
<event>
 7    1  0.1884848E-013  0.7246158E+02  0.7816164E-02  0.1226708E+00
        -11   -1    0    0    0    0  0.00000000000E+00  0.00000000000E+00  0.45593999997E+02  0.45594000000E+02  0.51100000000E-03 0.  1.
         11   -1    0    0    0    0 -0.00000000000E+00 -0.00000000000E+00 -0.45593999997E+02  0.45594000000E+02  0.51100000000E-03 0. -1.
    9900012    2    1    2    0    0 -0.41514976390E+01  0.17831357658E+02 -0.39352955107E+01  0.72461580178E+02  0.70000012876E+02 0.  0.
        -12    1    1    2    0    0  0.41514976390E+01 -0.17831357658E+02  0.39352955107E+01  0.18726419822E+02  0.00000000000E+00 0.  1.
         11    1    3    3    0    0 -0.23639142837E+02  0.28961537873E+02  0.94586936674E+01  0.38562243661E+02  0.51100000000E-03 0. -1.
        -11    1    3    3    0    0  0.19856336143E+02 -0.67866892099E+01 -0.12779555775E+01  0.21022997079E+02  0.51100000000E-03 0.  1.
         12    1    3    3    0    0 -0.36869094529E+00 -0.43434910045E+01 -0.12116033601E+02  0.12876339438E+02  0.00000000000E+00 0. -1.
</event>
<event>
 7    1  0.1884848E-013  0.7246152E+02  0.7816164E-02  0.1226708E+00
        -11   -1    0    0    0    0  0.00000000000E+00  0.00000000000E+00  0.45593999997E+02  0.45594000000E+02  0.51100000000E-03 0.  1.
         11   -1    0    0    0    0 -0.00000000000E+00 -0.00000000000E+00 -0.45593999997E+02  0.45594000000E+02  0.51100000000E-03 0. -1.
    9900012    2    1    2    0    0 -0.67672009747E+01  0.64351970648E+01 -0.16231890496E+02  0.72461520369E+02  0.69999934963E+02 0.  0.
        -12    1    1    2    0    0  0.67672009747E+01 -0.64351970648E+01  0.16231890496E+02  0.18726479631E+02  0.00000000000E+00 0.  1.
         11    1    3    3    0    0  0.24146619278E+02  0.90339413525E+01  0.25068981801E+00  0.25782439073E+02  0.51100000000E-03 0. -1.
        -11    1    3    3    0    0 -0.16205174199E+02 -0.89575699690E+01  0.56460224506E+01  0.19357771058E+02  0.51100000000E-03 0.  1.
         12    1    3    3    0    0 -0.14708646054E+02  0.63588256813E+01 -0.22128602764E+02  0.27321310238E+02  0.00000000000E+00 0. -1.
</event>
<event>
 7    1  0.1884848E-013  0.7246156E+02  0.7816164E-02  0.1226708E+00
        -11   -1    0    0    0    0  0.00000000000E+00  0.00000000000E+00  0.45593999997E+02  0.45594000000E+02  0.51100000000E-03 0. -1.
         11   -1    0    0    0    0 -0.00000000000E+00 -0.00000000000E+00 -0.45593999997E+02  0.45594000000E+02  0.51100000000E-03 0.  1.
    9900012    2    1    2    0    0 -0.22075230944E+01  0.16989654686E+02  0.75602962333E+01  0.72461558702E+02  0.69999984898E+02 0.  0.
        -12    1    1    2    0    0  0.22075230944E+01 -0.16989654686E+02 -0.75602962333E+01  0.18726441298E+02  0.00000000000E+00 0.  1.
         11    1    3    3    0    0  0.84526457496E+01  0.14318383997E+02  0.28992965327E+02  0.33422378419E+02  0.51100000000E-03 0. -1.
        -11    1    3    3    0    0 -0.20952756083E+01 -0.12784215732E+02 -0.15928952838E+02  0.20531874988E+02  0.51100000000E-03 0.  1.
        -12    1    3    3    0    0 -0.85648932358E+01  0.15455486421E+02 -0.55037162556E+01  0.18507305294E+02  0.00000000000E+00 0.  1.
</event>
<event>
 7    1  0.1884848E-013  0.7246158E+02  0.7816164E-02  0.1226708E+00
        -11   -1    0    0    0    0  0.00000000000E+00  0.00000000000E+00  0.45593999997E+02  0.45594000000E+02  0.51100000000E-03 0. -1.
         11   -1    0    0    0    0 -0.00000000000E+00 -0.00000000000E+00 -0.45593999997E+02  0.45594000000E+02  0.51100000000E-03 0.  1.
    9900012    2    1    2    0    0  0.94503963292E+01  0.14568356917E+02  0.70094168702E+01  0.72461576452E+02  0.70000008022E+02 0.  0.
        -12    1    1    2    0    0 -0.94503963292E+01 -0.14568356917E+02 -0.70094168702E+01  0.18726423548E+02  0.00000000000E+00 0.  1.
         11    1    3    3    0    0  0.14319274102E+02  0.24615677724E+02 -0.11577607757E+02  0.30741083297E+02  0.51100000000E-03 0.  1.
        -11    1    3    3    0    0 -0.28736458674E+01 -0.10312897129E+02  0.29105065669E+02  0.31011587119E+02  0.51100000000E-03 0. -1.
         12    1    3    3    0    0 -0.19952319052E+01  0.26557632178E+00 -0.10518041042E+02  0.10708906037E+02  0.00000000000E+00 0. -1.
</event>
<event>
 7    1  0.1884848E-013  0.7246159E+02  0.7816164E-02  0.1226708E+00
        -11   -1    0    0    0    0  0.00000000000E+00  0.00000000000E+00  0.45593999997E+02  0.45594000000E+02  0.51100000000E-03 0.  1.
         11   -1    0    0    0    0 -0.00000000000E+00 -0.00000000000E+00 -0.45593999997E+02  0.45594000000E+02  0.51100000000E-03 0. -1.
    9900012    2    1    2    0    0  0.90392060574E+00 -0.18344121640E+02  0.36544087409E+01  0.72461586183E+02  0.70000020698E+02 0.  0.
        -12    1    1    2    0    0 -0.90392060574E+00  0.18344121640E+02 -0.36544087409E+01  0.18726413817E+02  0.00000000000E+00 0.  1.
         11    1    3    3    0    0  0.19511168901E+02  0.60036038398E+01 -0.84109992054E+00  0.20431260859E+02  0.51100000000E-03 0. -1.
        -11    1    3    3    0    0 -0.20762211637E+02 -0.22937594423E+02  0.19654708559E+02  0.36653925285E+02  0.51100000000E-03 0.  1.
        -12    1    3    3    0    0  0.21549633417E+01 -0.14101310566E+01 -0.15159199898E+02  0.15376400039E+02  0.00000000000E+00 0.  1.
</event>
<event>
 7    1  0.1884848E-013  0.7246160E+02  0.7816164E-02  0.1226708E+00
        -11   -1    0    0    0    0  0.00000000000E+00  0.00000000000E+00  0.45593999997E+02  0.45594000000E+02  0.51100000000E-03 0.  1.
         11   -1    0    0    0    0 -0.00000000000E+00 -0.00000000000E+00 -0.45593999997E+02  0.45594000000E+02  0.51100000000E-03 0. -1.
    9900012    2    1    2    0    0 -0.93092708151E+01  0.52965403159E+01 -0.15361057054E+02  0.72461603223E+02  0.70000042896E+02 0.  0.
        -12    1    1    2    0    0  0.93092708151E+01 -0.52965403159E+01  0.15361057054E+02  0.18726396777E+02  0.00000000000E+00 0.  1.
         11    1    3    3    0    0  0.12933467176E+02 -0.14086912406E+02 -0.16895432071E+02  0.25518058302E+02  0.51100000000E-03 0.  1.
        -11    1    3    3    0    0 -0.24142912167E+02 -0.20728415701E+01  0.59586516966E+01  0.24953605158E+02  0.51100000000E-03 0. -1.
         12    1    3    3    0    0  0.19001741756E+01  0.21456294292E+02 -0.44242766795E+01  0.21989939763E+02  0.00000000000E+00 0. -1.
</event>
<event>
 7    1  0.1884848E-013  0.7246157E+02  0.7816164E-02  0.1226708E+00
        -11   -1    0    0    0    0  0.00000000000E+00  0.00000000000E+00  0.45593999997E+02  0.45594000000E+02  0.51100000000E-03 0.  1.
         11   -1    0    0    0    0 -0.00000000000E+00 -0.00000000000E+00 -0.45593999997E+02  0.45594000000E+02  0.51100000000E-03 0. -1.
    9900012    2    1    2    0    0 -0.17873209615E+02  0.55826899836E+01 -0.24714422300E+00  0.72461571359E+02  0.70000001387E+02 0.  0.
        -12    1    1    2    0    0  0.17873209615E+02 -0.55826899836E+01  0.24714422300E+00  0.18726428641E+02  0.00000000000E+00 0.  1.
         11    1    3    3    0    0  0.10633836927E+02  0.15259698751E+02  0.87035062064E+00  0.18619731583E+02  0.51100000000E-03 0. -1.
        -11    1    3    3    0    0 -0.20123519386E+02 -0.18205772011E+02 -0.18427676758E+02  0.32802216967E+02  0.51100000000E-03 0.  1.
        -12    1    3    3    0    0 -0.83835271562E+01  0.85287632434E+01  0.17310181915E+02  0.21039622809E+02  0.00000000000E+00 0.  1.
</event>
<event>
 7    1  0.1884848E-013  0.7246158E+02  0.7816164E-02  0.1226708E+00
        -11   -1    0    0    0    0  0.00000000000E+00  0.00000000000E+00  0.45593999997E+02  0.45594000000E+02  0.51100000000E-03 0.  1.
         11   -1    0    0    0    0 -0.00000000000E+00 -0.00000000000E+00 -0.45593999997E+02  0.45594000000E+02  0.51100000000E-03 0. -1.
    9900012    2    1    2    0    0 -0.95820110377E+01 -0.15217450662E+02 -0.52242883609E+01  0.72461576715E+02  0.70000008364E+02 0.  0.
        -12    1    1    2    0    0  0.95820110377E+01  0.15217450662E+02  0.52242883609E+01  0.18726423285E+02  0.00000000000E+00 0.  1.
         11    1    3    3    0    0 -0.11630667440E+02 -0.17908797932E+01 -0.17361170894E+02  0.20973553123E+02  0.51100000000E-03 0.  1.
        -11    1    3    3    0    0  0.45429567719E+01 -0.31434420802E+02  0.61755991141E+01  0.32355823155E+02  0.51100000000E-03 0. -1.
        -12    1    3    3    0    0 -0.24943003698E+01  0.18007849933E+02  0.59612834190E+01  0.19132200437E+02  0.00000000000E+00 0.  1.
</event>
<event>
 7    1  0.1884848E-013  0.7246111E+02  0.7816164E-02  0.1226709E+00
        -11   -1    0    0    0    0  0.00000000000E+00  0.00000000000E+00  0.45593999997E+02  0.45594000000E+02  0.51100000000E-03 0. -1.
         11   -1    0    0    0    0 -0.00000000000E+00 -0.00000000000E+00 -0.45593999997E+02  0.45594000000E+02  0.51100000000E-03 0.  1.
    9900012    2    1    2    0    0  0.12660579706E+02 -0.10627242699E+02  0.88015913041E+01  0.72461105560E+02  0.69999394595E+02 0.  0.
        -12    1    1    2    0    0 -0.12660579706E+02  0.10627242699E+02 -0.88015913041E+01  0.18726894440E+02  0.00000000000E+00 0.  1.
         11    1    3    3    0    0 -0.35603494277E+01  0.38389058405E+01 -0.90585174877E+01  0.10462792430E+02  0.51100000000E-03 0. -1.
        -11    1    3    3    0    0 -0.47568734865E+01 -0.16024247366E+02  0.32378759844E+02  0.36438831462E+02  0.51100000000E-03 0.  1.
        -12    1    3    3    0    0  0.20977802621E+02  0.15580988263E+01 -0.14518651053E+02  0.25559481668E+02  0.00000000000E+00 0.  1.
</event>
<event>
 7    1  0.1884848E-013  0.7246158E+02  0.7816164E-02  0.1226708E+00
        -11   -1    0    0    0    0  0.00000000000E+00  0.00000000000E+00  0.45593999997E+02  0.45594000000E+02  0.51100000000E-03 0.  1.
         11   -1    0    0    0    0 -0.00000000000E+00 -0.00000000000E+00 -0.45593999997E+02  0.45594000000E+02  0.51100000000E-03 0. -1.
    9900012    2    1    2    0    0 -0.12996159053E+02 -0.12094730143E+02 -0.59578758583E+01  0.72461576633E+02  0.70000008258E+02 0.  0.
        -12    1    1    2    0    0  0.12996159053E+02  0.12094730143E+02  0.59578758583E+01  0.18726423367E+02  0.00000000000E+00 0.  1.
         11    1    3    3    0    0 -0.32199651856E+02  0.21313278321E+01  0.30262019633E+00  0.32271531064E+02  0.51100000000E-03 0. -1.
        -11    1    3    3    0    0  0.76897359656E+01 -0.23269169654E+02 -0.66255141629E+00  0.24515816737E+02  0.51100000000E-03 0.  1.
         12    1    3    3    0    0  0.11513756837E+02  0.90431116796E+01 -0.55979446383E+01  0.15674228833E+02  0.00000000000E+00 0. -1.
</event>
<event>
 7    1  0.1884848E-013  0.7246156E+02  0.7816164E-02  0.1226708E+00
        -11   -1    0    0    0    0  0.00000000000E+00  0.00000000000E+00  0.45593999997E+02  0.45594000000E+02  0.51100000000E-03 0. -1.
         11   -1    0    0    0    0 -0.00000000000E+00 -0.00000000000E+00 -0.45593999997E+02  0.45594000000E+02  0.51100000000E-03 0.  1.
    9900012    2    1    2    0    0 -0.29832418413E+01  0.18487171809E+02  0.64378412927E-01  0.72461564195E+02  0.69999992055E+02 0.  0.
        -12    1    1    2    0    0  0.29832418413E+01 -0.18487171809E+02 -0.64378412927E-01  0.18726435805E+02  0.00000000000E+00 0.  1.
         11    1    3    3    0    0 -0.22527574447E+02  0.47334871938E+01  0.15447775437E+02  0.27722396681E+02  0.51100000000E-03 0. -1.
        -11    1    3    3    0    0  0.10604277139E+02  0.24992418260E+02 -0.67231016436E+01  0.27969121547E+02  0.51100000000E-03 0.  1.
         12    1    3    3    0    0  0.89400554671E+01 -0.11238733645E+02 -0.86602953806E+01  0.16770045968E+02  0.00000000000E+00 0. -1.
</event>
<event>
 7    1  0.1884848E-013  0.7246151E+02  0.7816164E-02  0.1226708E+00
        -11   -1    0    0    0    0  0.00000000000E+00  0.00000000000E+00  0.45593999997E+02  0.45594000000E+02  0.51100000000E-03 0. -1.
         11   -1    0    0    0    0 -0.00000000000E+00 -0.00000000000E+00 -0.45593999997E+02  0.45594000000E+02  0.51100000000E-03 0.  1.
    9900012    2    1    2    0    0 -0.51350608102E+01  0.17975968385E+02  0.10849162079E+01  0.72461512553E+02  0.69999924782E+02 0.  0.
        -12    1    1    2    0    0  0.51350608102E+01 -0.17975968385E+02 -0.10849162079E+01  0.18726487447E+02  0.00000000000E+00 0.  1.
         11    1    3    3    0    0 -0.24473175402E+01  0.23508371710E+02  0.12536176216E+02  0.26754226171E+02  0.51100000000E-03 0. -1.
        -11    1    3    3    0    0  0.24252888283E+01 -0.21450280585E+02  0.51002193149E+01  0.22181271388E+02  0.51100000000E-03 0.  1.
        -12    1    3    3    0    0 -0.51130320983E+01  0.15917877260E+02 -0.16551479323E+02  0.23526014994E+02  0.00000000000E+00 0.  1.
</event>
<event>
 7    1  0.1884848E-013  0.7246156E+02  0.7816164E-02  0.1226708E+00
        -11   -1    0    0    0    0  0.00000000000E+00  0.00000000000E+00  0.45593999997E+02  0.45594000000E+02  0.51100000000E-03 0.  1.
         11   -1    0    0    0    0 -0.00000000000E+00 -0.00000000000E+00 -0.45593999997E+02  0.45594000000E+02  0.51100000000E-03 0. -1.
    9900012    2    1    2    0    0  0.96013603795E+01  0.15103662485E+02 -0.55111647670E+01  0.72461556700E+02  0.69999982291E+02 0.  0.
        -12    1    1    2    0    0 -0.96013603795E+01 -0.15103662485E+02  0.55111647670E+01  0.18726443300E+02  0.00000000000E+00 0.  1.
         11    1    3    3    0    0 -0.25738138078E+01  0.43582496727E+01 -0.23668255237E+02  0.24203412238E+02  0.51100000000E-03 0. -1.
        -11    1    3    3    0    0  0.80065139261E+01  0.26306311076E+02  0.16488422015E+02  0.32062350639E+02  0.51100000000E-03 0.  1.
        -12    1    3    3    0    0  0.41686602613E+01 -0.15560898264E+02  0.16686684547E+01  0.16195793823E+02  0.00000000000E+00 0.  1.
</event>
<event>
 7    1  0.1884848E-013  0.7246157E+02  0.7816164E-02  0.1226708E+00
        -11   -1    0    0    0    0  0.00000000000E+00  0.00000000000E+00  0.45593999997E+02  0.45594000000E+02  0.51100000000E-03 0.  1.
         11   -1    0    0    0    0 -0.00000000000E+00 -0.00000000000E+00 -0.45593999997E+02  0.45594000000E+02  0.51100000000E-03 0. -1.
    9900012    2    1    2    0    0 -0.84900432678E+00  0.16943882032E+02 -0.79286255110E+01  0.72461573509E+02  0.70000004187E+02 0.  0.
        -12    1    1    2    0    0  0.84900432678E+00 -0.16943882032E+02  0.79286255110E+01  0.18726426491E+02  0.00000000000E+00 0.  1.
         11    1    3    3    0    0 -0.88748136099E+01  0.41384381654E+02 -0.51765460515E+01  0.42640661237E+02  0.51100000000E-03 0. -1.
        -11    1    3    3    0    0  0.12133569058E+02 -0.20883580784E+02 -0.32236303688E+01  0.24366765018E+02  0.51100000000E-03 0.  1.
         12    1    3    3    0    0 -0.41077597752E+01 -0.35569188388E+01  0.47155090917E+00  0.54541472529E+01  0.00000000000E+00 0. -1.
</event>
<event>
 7    1  0.1884848E-013  0.7246164E+02  0.7816164E-02  0.1226708E+00
        -11   -1    0    0    0    0  0.00000000000E+00  0.00000000000E+00  0.45593999997E+02  0.45594000000E+02  0.51100000000E-03 0.  1.
         11   -1    0    0    0    0 -0.00000000000E+00 -0.00000000000E+00 -0.45593999997E+02  0.45594000000E+02  0.51100000000E-03 0. -1.
    9900012    2    1    2    0    0  0.11500941986E+02  0.57914397205E+01 -0.13596477236E+02  0.72461637998E+02  0.70000088197E+02 0.  0.
        -12    1    1    2    0    0 -0.11500941986E+02 -0.57914397205E+01  0.13596477236E+02  0.18726362002E+02  0.00000000000E+00 0.  1.
         11    1    3    3    0    0  0.13727895604E+02 -0.22632032712E+02 -0.34387110448E+01  0.26692485016E+02  0.51100000000E-03 0. -1.
        -11    1    3    3    0    0  0.37372909448E+01  0.17032537099E+02 -0.22147562199E+02  0.28188458192E+02  0.51100000000E-03 0.  1.
        -12    1    3    3    0    0 -0.59642445631E+01  0.11390935334E+02  0.11989796008E+02  0.17580694790E+02  0.00000000000E+00 0.  1.
</event>
<event>
 7    1  0.1884848E-013  0.7246155E+02  0.7816164E-02  0.1226708E+00
        -11   -1    0    0    0    0  0.00000000000E+00  0.00000000000E+00  0.45593999997E+02  0.45594000000E+02  0.51100000000E-03 0.  1.
         11   -1    0    0    0    0 -0.00000000000E+00 -0.00000000000E+00 -0.45593999997E+02  0.45594000000E+02  0.51100000000E-03 0. -1.
    9900012    2    1    2    0    0  0.13601079949E+02 -0.45858168285E+01  0.12027501126E+02  0.72461551455E+02  0.69999975458E+02 0.  0.
        -12    1    1    2    0    0 -0.13601079949E+02  0.45858168285E+01 -0.12027501126E+02  0.18726448545E+02  0.00000000000E+00 0.  1.
         11    1    3    3    0    0  0.27228888644E+02  0.13610578582E+02 -0.12532066642E+02  0.32919795271E+02  0.51100000000E-03 0. -1.
        -11    1    3    3    0    0 -0.11514144759E+02  0.37918823673E+00  0.13779811898E+02  0.17961139425E+02  0.51100000000E-03 0.  1.
         12    1    3    3    0    0 -0.21136639359E+01 -0.18575583647E+02  0.10779755871E+02  0.21580616759E+02  0.00000000000E+00 0. -1.
</event>
<event>
 7    1  0.1884848E-013  0.7246167E+02  0.7816164E-02  0.1226708E+00
        -11   -1    0    0    0    0  0.00000000000E+00  0.00000000000E+00  0.45593999997E+02  0.45594000000E+02  0.51100000000E-03 0.  1.
         11   -1    0    0    0    0 -0.00000000000E+00 -0.00000000000E+00 -0.45593999997E+02  0.45594000000E+02  0.51100000000E-03 0. -1.
    9900012    2    1    2    0    0  0.10620024716E+02  0.79869127696E+01 -0.13194685761E+02  0.72461670063E+02  0.70000129967E+02 0.  0.
        -12    1    1    2    0    0 -0.10620024716E+02 -0.79869127696E+01  0.13194685761E+02  0.18726329937E+02  0.00000000000E+00 0.  1.
         11    1    3    3    0    0 -0.97227064356E+01  0.45396162905E+01 -0.20512226328E+02  0.23149310263E+02  0.51100000000E-03 0. -1.
        -11    1    3    3    0    0  0.24125724499E+02 -0.15826358811E+02  0.68974444951E+01  0.29666461815E+02  0.51100000000E-03 0.  1.
        -12    1    3    3    0    0 -0.37829933473E+01  0.19273655290E+02  0.42009607119E+00  0.19645897984E+02  0.00000000000E+00 0.  1.
</event>
<event>
 7    1  0.1884848E-013  0.7246159E+02  0.7816164E-02  0.1226708E+00
        -11   -1    0    0    0    0  0.00000000000E+00  0.00000000000E+00  0.45593999997E+02  0.45594000000E+02  0.51100000000E-03 0.  1.
         11   -1    0    0    0    0 -0.00000000000E+00 -0.00000000000E+00 -0.45593999997E+02  0.45594000000E+02  0.51100000000E-03 0. -1.
    9900012    2    1    2    0    0  0.85615668407E+01 -0.16370386672E+02  0.30640352538E+01  0.72461593548E+02  0.70000030292E+02 0.  0.
        -12    1    1    2    0    0 -0.85615668407E+01  0.16370386672E+02 -0.30640352538E+01  0.18726406452E+02  0.00000000000E+00 0.  1.
         11    1    3    3    0    0  0.31509005357E+02  0.40396084669E+01 -0.98353109663E+00  0.31782120584E+02  0.51100000000E-03 0. -1.
        -11    1    3    3    0    0 -0.20019271466E+02 -0.12087137946E+02  0.14097748153E+02  0.27305981707E+02  0.51100000000E-03 0.  1.
         12    1    3    3    0    0 -0.29281670503E+01 -0.83228571936E+01 -0.10050181803E+02  0.13373491257E+02  0.00000000000E+00 0. -1.
</event>
<event>
 7    1  0.1884848E-013  0.7246180E+02  0.7816164E-02  0.1226707E+00
        -11   -1    0    0    0    0  0.00000000000E+00  0.00000000000E+00  0.45593999997E+02  0.45594000000E+02  0.51100000000E-03 0. -1.
         11   -1    0    0    0    0 -0.00000000000E+00 -0.00000000000E+00 -0.45593999997E+02  0.45594000000E+02  0.51100000000E-03 0.  1.
    9900012    2    1    2    0    0  0.19986385983E+01  0.13212806967E+02  0.13118603567E+02  0.72461799538E+02  0.70000298632E+02 0.  0.
        -12    1    1    2    0    0 -0.19986385983E+01 -0.13212806967E+02 -0.13118603567E+02  0.18726200462E+02  0.00000000000E+00 0.  1.
         11    1    3    3    0    0  0.34273175968E+01 -0.15817680638E+02  0.21703179844E+02  0.27073484118E+02  0.51100000000E-03 0. -1.
        -11    1    3    3    0    0 -0.76221687833E+01  0.21184415649E+02 -0.20070880831E+02  0.30161518213E+02  0.51100000000E-03 0.  1.
        -12    1    3    3    0    0  0.61934897848E+01  0.78460719562E+01  0.11486304554E+02  0.15226797206E+02  0.00000000000E+00 0.  1.
</event>
<event>
 7    1  0.1884848E-013  0.7246158E+02  0.7816164E-02  0.1226708E+00
        -11   -1    0    0    0    0  0.00000000000E+00  0.00000000000E+00  0.45593999997E+02  0.45594000000E+02  0.51100000000E-03 0.  1.
         11   -1    0    0    0    0 -0.00000000000E+00 -0.00000000000E+00 -0.45593999997E+02  0.45594000000E+02  0.51100000000E-03 0. -1.
    9900012    2    1    2    0    0  0.86068563290E+01 -0.13158344066E+02 -0.10171472608E+02  0.72461578841E+02  0.70000011134E+02 0.  0.
        -12    1    1    2    0    0 -0.86068563290E+01  0.13158344066E+02  0.10171472608E+02  0.18726421159E+02  0.00000000000E+00 0.  1.
         11    1    3    3    0    0 -0.24206270667E+02 -0.13395163966E+02 -0.65384543554E+01  0.28427545495E+02  0.51100000000E-03 0. -1.
        -11    1    3    3    0    0  0.21391949616E+02  0.13341089129E+02 -0.73449012448E+01  0.26259241080E+02  0.51100000000E-03 0.  1.
         12    1    3    3    0    0  0.11421177380E+02 -0.13104269229E+02  0.37118829924E+01  0.17774792266E+02  0.00000000000E+00 0. -1.
</event>
<event>
 7    1  0.1884848E-013  0.7246162E+02  0.7816164E-02  0.1226708E+00
        -11   -1    0    0    0    0  0.00000000000E+00  0.00000000000E+00  0.45593999997E+02  0.45594000000E+02  0.51100000000E-03 0. -1.
         11   -1    0    0    0    0 -0.00000000000E+00 -0.00000000000E+00 -0.45593999997E+02  0.45594000000E+02  0.51100000000E-03 0.  1.
    9900012    2    1    2    0    0  0.11833590217E+02 -0.25488173322E+01  0.14287998864E+02  0.72461621846E+02  0.70000067156E+02 0.  0.
        -12    1    1    2    0    0 -0.11833590217E+02  0.25488173322E+01 -0.14287998864E+02  0.18726378154E+02  0.00000000000E+00 0.  1.
         11    1    3    3    0    0  0.70533306394E+01  0.58477382798E+00  0.35334566238E+02  0.36036412210E+02  0.51100000000E-03 0. -1.
        -11    1    3    3    0    0 -0.82497886548E+01  0.87973746953E+01 -0.87369509644E+01  0.14892519155E+02  0.51100000000E-03 0.  1.
         12    1    3    3    0    0  0.13030048232E+02 -0.11930965855E+02 -0.12309616409E+02  0.21532690480E+02  0.00000000000E+00 0. -1.
</event>
<event>
 7    1  0.1884848E-013  0.7246156E+02  0.7816164E-02  0.1226708E+00
        -11   -1    0    0    0    0  0.00000000000E+00  0.00000000000E+00  0.45593999997E+02  0.45594000000E+02  0.51100000000E-03 0. -1.
         11   -1    0    0    0    0 -0.00000000000E+00 -0.00000000000E+00 -0.45593999997E+02  0.45594000000E+02  0.51100000000E-03 0.  1.
    9900012    2    1    2    0    0 -0.12292415427E+02  0.10494862504E+02  0.94569509783E+01  0.72461560461E+02  0.69999987191E+02 0.  0.
        -12    1    1    2    0    0  0.12292415427E+02 -0.10494862504E+02 -0.94569509783E+01  0.18726439539E+02  0.00000000000E+00 0.  1.
         11    1    3    3    0    0 -0.11534547189E+02  0.26522078191E+00 -0.35820691084E+01  0.12080866702E+02  0.51100000000E-03 0. -1.
        -11    1    3    3    0    0  0.23585627171E+02  0.20935760855E+02  0.12074310350E+02  0.33769466420E+02  0.51100000000E-03 0.  1.
        -12    1    3    3    0    0 -0.24343495408E+02 -0.10706119133E+02  0.96470973647E+00  0.26611227339E+02  0.00000000000E+00 0.  1.
</event>
<event>
 7    1  0.1884848E-013  0.7246157E+02  0.7816164E-02  0.1226708E+00
        -11   -1    0    0    0    0  0.00000000000E+00  0.00000000000E+00  0.45593999997E+02  0.45594000000E+02  0.51100000000E-03 0. -1.
         11   -1    0    0    0    0 -0.00000000000E+00 -0.00000000000E+00 -0.45593999997E+02  0.45594000000E+02  0.51100000000E-03 0.  1.
    9900012    2    1    2    0    0 -0.81010624875E+01  0.89921970699E+01  0.14289587350E+02  0.72461571398E+02  0.70000001438E+02 0.  0.
        -12    1    1    2    0    0  0.81010624875E+01 -0.89921970699E+01 -0.14289587350E+02  0.18726428602E+02  0.00000000000E+00 0.  1.
         11    1    3    3    0    0 -0.19961376388E+02  0.67694569922E+01  0.21210662333E+02  0.29902747234E+02  0.51100000000E-03 0. -1.
        -11    1    3    3    0    0  0.15728338696E+02 -0.15755552943E+02 -0.90797377659E+01  0.24042872641E+02  0.51100000000E-03 0.  1.
         12    1    3    3    0    0 -0.38680247958E+01  0.17978293021E+02  0.21586627821E+01  0.18515951522E+02  0.00000000000E+00 0. -1.
</event>
<event>
 7    1  0.1884848E-013  0.7246139E+02  0.7816164E-02  0.1226708E+00
        -11   -1    0    0    0    0  0.00000000000E+00  0.00000000000E+00  0.45593999997E+02  0.45594000000E+02  0.51100000000E-03 0.  1.
         11   -1    0    0    0    0 -0.00000000000E+00 -0.00000000000E+00 -0.45593999997E+02  0.45594000000E+02  0.51100000000E-03 0. -1.
    9900012    2    1    2    0    0  0.62112888143E+01  0.17642965353E+02  0.91186664548E+00  0.72461392300E+02  0.69999768129E+02 0.  0.
        -12    1    1    2    0    0 -0.62112888143E+01 -0.17642965353E+02 -0.91186664548E+00  0.18726607700E+02  0.00000000000E+00 0.  1.
         11    1    3    3    0    0  0.15090061807E+02  0.19131799250E+02 -0.13569774482E+00  0.24367070444E+02  0.51100000000E-03 0. -1.
        -11    1    3    3    0    0 -0.21578028026E+02  0.13681022686E+02  0.85404448463E+01  0.26939206997E+02  0.51100000000E-03 0.  1.
        -12    1    3    3    0    0  0.12699255033E+02 -0.15169856583E+02 -0.74928804560E+01  0.21155114859E+02  0.00000000000E+00 0.  1.
</event>
<event>
 7    1  0.2254693E-013  0.7246157E+02  0.7816164E-02  0.1226708E+00
        -11   -1    0    0    0    0  0.00000000000E+00  0.00000000000E+00  0.45593999997E+02  0.45594000000E+02  0.51100000000E-03 0. -1.
         11   -1    0    0    0    0 -0.00000000000E+00 -0.00000000000E+00 -0.45593999997E+02  0.45594000000E+02  0.51100000000E-03 0.  1.
    9900012    2    1    2    0    0  0.50040880988E+01  0.92172856003E+01  0.15513866817E+02  0.72461566406E+02  0.69999994935E+02 0.  0.
        -12    1    1    2    0    0 -0.50040880988E+01 -0.92172856003E+01 -0.15513866817E+02  0.18726433594E+02  0.00000000000E+00 0.  1.
         11    1    3    3    0    0  0.27141521928E+02 -0.63909602300E+01  0.14203522027E+02  0.31292916506E+02  0.51100000000E-03 0. -1.
        -11    1    3    3    0    0 -0.10999411695E+02 -0.60191515482E+01 -0.82731707038E+01  0.15022070322E+02  0.51100000000E-03 0.  1.
         12    1    3    3    0    0 -0.11138022134E+02  0.21627397378E+02  0.95835154935E+01  0.26146579578E+02  0.00000000000E+00 0. -1.
</event>
<event>
 7    1  0.1884848E-013  0.7246151E+02  0.7816164E-02  0.1226708E+00
        -11   -1    0    0    0    0  0.00000000000E+00  0.00000000000E+00  0.45593999997E+02  0.45594000000E+02  0.51100000000E-03 0.  1.
         11   -1    0    0    0    0 -0.00000000000E+00 -0.00000000000E+00 -0.45593999997E+02  0.45594000000E+02  0.51100000000E-03 0. -1.
    9900012    2    1    2    0    0  0.47113679423E+01 -0.30087608398E+00 -0.18121645410E+02  0.72461506824E+02  0.69999917318E+02 0.  0.
        -12    1    1    2    0    0 -0.47113679423E+01  0.30087608398E+00  0.18121645410E+02  0.18726493176E+02  0.00000000000E+00 0.  1.
         11    1    3    3    0    0  0.69734866169E+01 -0.20488236732E+02  0.15395302531E+02  0.26559606553E+02  0.51100000000E-03 0. -1.
        -11    1    3    3    0    0 -0.16578993616E+01  0.22456784404E+02 -0.14593544788E+02  0.26833325284E+02  0.51100000000E-03 0.  1.
         12    1    3    3    0    0 -0.60421931294E+00 -0.22694237560E+01 -0.18923403153E+02  0.19068574987E+02  0.00000000000E+00 0. -1.
</event>
<event>
 7    1  0.1884848E-013  0.7246156E+02  0.7816164E-02  0.1226708E+00
        -11   -1    0    0    0    0  0.00000000000E+00  0.00000000000E+00  0.45593999997E+02  0.45594000000E+02  0.51100000000E-03 0.  1.
         11   -1    0    0    0    0 -0.00000000000E+00 -0.00000000000E+00 -0.45593999997E+02  0.45594000000E+02  0.51100000000E-03 0. -1.
    9900012    2    1    2    0    0  0.98786069166E+00  0.14022000068E+02 -0.12372843227E+02  0.72461558689E+02  0.69999984882E+02 0.  0.
        -12    1    1    2    0    0 -0.98786069166E+00 -0.14022000068E+02  0.12372843227E+02  0.18726441311E+02  0.00000000000E+00 0.  1.
         11    1    3    3    0    0 -0.13125623517E+02 -0.66992820988E+01 -0.13379152684E+02  0.19903871487E+02  0.51100000000E-03 0. -1.
        -11    1    3    3    0    0 -0.27118510652E+01  0.27506871696E+02  0.13268765136E+02  0.30660108532E+02  0.51100000000E-03 0.  1.
        -12    1    3    3    0    0  0.16825335274E+02 -0.67855895290E+01 -0.12262455679E+02  0.21897578670E+02  0.00000000000E+00 0.  1.
</event>
<event>
 7    1  0.1884848E-013  0.7246157E+02  0.7816164E-02  0.1226708E+00
        -11   -1    0    0    0    0  0.00000000000E+00  0.00000000000E+00  0.45593999997E+02  0.45594000000E+02  0.51100000000E-03 0.  1.
         11   -1    0    0    0    0 -0.00000000000E+00 -0.00000000000E+00 -0.45593999997E+02  0.45594000000E+02  0.51100000000E-03 0. -1.
    9900012    2    1    2    0    0  0.12708131746E+02 -0.10327098251E+02 -0.90847989408E+01  0.72461571015E+02  0.70000000939E+02 0.  0.
        -12    1    1    2    0    0 -0.12708131746E+02  0.10327098251E+02  0.90847989408E+01  0.18726428985E+02  0.00000000000E+00 0.  1.
         11    1    3    3    0    0  0.28184676592E+02 -0.17568157613E+02 -0.99905056346E+01  0.34681787145E+02  0.51100000000E-03 0. -1.
        -11    1    3    3    0    0  0.10277800251E+02  0.57540887017E+01  0.20556077287E+01  0.11956932641E+02  0.51100000000E-03 0.  1.
         12    1    3    3    0    0 -0.25754345098E+02  0.14869706605E+01 -0.11499010350E+01  0.25822851228E+02  0.00000000000E+00 0. -1.
</event>
<event>
 7    1  0.1884848E-013  0.7246155E+02  0.7816164E-02  0.1226708E+00
        -11   -1    0    0    0    0  0.00000000000E+00  0.00000000000E+00  0.45593999997E+02  0.45594000000E+02  0.51100000000E-03 0.  1.
         11   -1    0    0    0    0 -0.00000000000E+00 -0.00000000000E+00 -0.45593999997E+02  0.45594000000E+02  0.51100000000E-03 0. -1.
    9900012    2    1    2    0    0 -0.66091509015E+01  0.16602472548E+02  0.55997152158E+01  0.72461553972E+02  0.69999978738E+02 0.  0.
        -12    1    1    2    0    0  0.66091509015E+01 -0.16602472548E+02 -0.55997152158E+01  0.18726446028E+02  0.00000000000E+00 0.  1.
         11    1    3    3    0    0  0.15409065615E+02  0.96949742395E+01 -0.22167023931E+02  0.28684643607E+02  0.51100000000E-03 0. -1.
        -11    1    3    3    0    0 -0.21641173089E+02  0.14471220141E+02  0.19234587992E+02  0.32368595282E+02  0.51100000000E-03 0.  1.
        -12    1    3    3    0    0 -0.37704342709E+00 -0.75637218329E+01  0.85321511553E+01  0.11408315084E+02  0.00000000000E+00 0.  1.
</event>
<event>
 7    1  0.1884848E-013  0.7246150E+02  0.7816164E-02  0.1226708E+00
        -11   -1    0    0    0    0  0.00000000000E+00  0.00000000000E+00  0.45593999997E+02  0.45594000000E+02  0.51100000000E-03 0. -1.
         11   -1    0    0    0    0 -0.00000000000E+00 -0.00000000000E+00 -0.45593999997E+02  0.45594000000E+02  0.51100000000E-03 0.  1.
    9900012    2    1    2    0    0 -0.34621704482E+00  0.15498908693E+02  0.10504550939E+02  0.72461504669E+02  0.69999914511E+02 0.  0.
        -12    1    1    2    0    0  0.34621704482E+00 -0.15498908693E+02 -0.10504550939E+02  0.18726495331E+02  0.00000000000E+00 0.  1.
         11    1    3    3    0    0  0.21086058556E+02  0.28545989156E+02  0.11437467128E+02  0.37286874593E+02  0.51100000000E-03 0. -1.
        -11    1    3    3    0    0 -0.21529675980E+02 -0.20049977364E+01  0.56106850873E+01  0.22338906668E+02  0.51100000000E-03 0.  1.
         12    1    3    3    0    0  0.97400378901E-01 -0.11042082726E+02 -0.65436012765E+01  0.12835723409E+02  0.00000000000E+00 0. -1.
</event>
<event>
 7    1  0.1884848E-013  0.7246161E+02  0.7816164E-02  0.1226708E+00
        -11   -1    0    0    0    0  0.00000000000E+00  0.00000000000E+00  0.45593999997E+02  0.45594000000E+02  0.51100000000E-03 0. -1.
         11   -1    0    0    0    0 -0.00000000000E+00 -0.00000000000E+00 -0.45593999997E+02  0.45594000000E+02  0.51100000000E-03 0.  1.
    9900012    2    1    2    0    0 -0.51061137540E+01 -0.13306887838E+02  0.12146276634E+02  0.72461609593E+02  0.70000051194E+02 0.  0.
        -12    1    1    2    0    0  0.51061137540E+01  0.13306887838E+02 -0.12146276634E+02  0.18726390407E+02  0.00000000000E+00 0.  1.
         11    1    3    3    0    0  0.46997641306E+01 -0.21414485687E+02  0.31967960049E+02  0.38763622768E+02  0.51100000000E-03 0. -1.
        -11    1    3    3    0    0 -0.76479129939E+01 -0.63347802640E+01 -0.15608073907E+02  0.18499513116E+02  0.51100000000E-03 0.  1.
         12    1    3    3    0    0 -0.21579648907E+01  0.14442378113E+02 -0.42136095082E+01  0.15198473710E+02  0.00000000000E+00 0. -1.
</event>
<event>
 7    1  0.1884848E-013  0.7246157E+02  0.7816164E-02  0.1226708E+00
        -11   -1    0    0    0    0  0.00000000000E+00  0.00000000000E+00  0.45593999997E+02  0.45594000000E+02  0.51100000000E-03 0.  1.
         11   -1    0    0    0    0 -0.00000000000E+00 -0.00000000000E+00 -0.45593999997E+02  0.45594000000E+02  0.51100000000E-03 0. -1.
    9900012    2    1    2    0    0  0.10849817229E+02  0.13408228732E+02 -0.72924692544E+01  0.72461568427E+02  0.69999997568E+02 0.  0.
        -12    1    1    2    0    0 -0.10849817229E+02 -0.13408228732E+02  0.72924692544E+01  0.18726431573E+02  0.00000000000E+00 0.  1.
         11    1    3    3    0    0  0.19916843654E+02  0.42544425341E+01  0.24785522161E+02  0.32079636087E+02  0.51100000000E-03 0.  1.
        -11    1    3    3    0    0 -0.13745020706E+02 -0.38247633517E+00 -0.15806227624E+02  0.20950148313E+02  0.51100000000E-03 0. -1.
        -12    1    3    3    0    0  0.46779942809E+01  0.95362625328E+01 -0.16271763791E+02  0.19431784027E+02  0.00000000000E+00 0.  1.
</event>
<event>
 7    1  0.1884848E-013  0.7246163E+02  0.7816164E-02  0.1226708E+00
        -11   -1    0    0    0    0  0.00000000000E+00  0.00000000000E+00  0.45593999997E+02  0.45594000000E+02  0.51100000000E-03 0.  1.
         11   -1    0    0    0    0 -0.00000000000E+00 -0.00000000000E+00 -0.45593999997E+02  0.45594000000E+02  0.51100000000E-03 0. -1.
    9900012    2    1    2    0    0  0.89317204497E+01 -0.16354124768E+02  0.18557267396E+01  0.72461634927E+02  0.70000084196E+02 0.  0.
        -12    1    1    2    0    0 -0.89317204497E+01  0.16354124768E+02 -0.18557267396E+01  0.18726365073E+02  0.00000000000E+00 0.  1.
         11    1    3    3    0    0 -0.80172985837E+01  0.86841774372E+01 -0.25406443919E+02  0.28021052928E+02  0.51100000000E-03 0. -1.
        -11    1    3    3    0    0  0.27146859711E+01 -0.18916379620E+02  0.11331455177E+02  0.22217128855E+02  0.51100000000E-03 0.  1.
         12    1    3    3    0    0  0.14234333062E+02 -0.61219225849E+01  0.15930715482E+02  0.22223453144E+02  0.00000000000E+00 0. -1.
</event>
<event>
 7    1  0.1884848E-013  0.7246155E+02  0.7816164E-02  0.1226708E+00
        -11   -1    0    0    0    0  0.00000000000E+00  0.00000000000E+00  0.45593999997E+02  0.45594000000E+02  0.51100000000E-03 0.  1.
         11   -1    0    0    0    0 -0.00000000000E+00 -0.00000000000E+00 -0.45593999997E+02  0.45594000000E+02  0.51100000000E-03 0. -1.
    9900012    2    1    2    0    0 -0.10047053244E+02 -0.14894380226E+02 -0.52814948679E+01  0.72461547340E+02  0.69999970097E+02 0.  0.
        -12    1    1    2    0    0  0.10047053244E+02  0.14894380226E+02  0.52814948679E+01  0.18726452660E+02  0.00000000000E+00 0.  1.
         11    1    3    3    0    0  0.16604669238E+02 -0.16880089147E+01 -0.96206670436E+01  0.19264517882E+02  0.51100000000E-03 0. -1.
        -11    1    3    3    0    0 -0.38900283407E+02 -0.10134576580E+02  0.52310236055E+01  0.40537702202E+02  0.51100000000E-03 0.  1.
        -12    1    3    3    0    0  0.12248560924E+02 -0.30717947306E+01 -0.89185142982E+00  0.12659327255E+02  0.00000000000E+00 0.  1.
</event>
<event>
 7    1  0.1884848E-013  0.7246158E+02  0.7816164E-02  0.1226708E+00
        -11   -1    0    0    0    0  0.00000000000E+00  0.00000000000E+00  0.45593999997E+02  0.45594000000E+02  0.51100000000E-03 0.  1.
         11   -1    0    0    0    0 -0.00000000000E+00 -0.00000000000E+00 -0.45593999997E+02  0.45594000000E+02  0.51100000000E-03 0. -1.
    9900012    2    1    2    0    0  0.14498964348E+02  0.10806756161E+02 -0.48654630683E+01  0.72461583451E+02  0.70000017140E+02 0.  0.
        -12    1    1    2    0    0 -0.14498964348E+02 -0.10806756161E+02  0.48654630683E+01  0.18726416549E+02  0.00000000000E+00 0.  1.
         11    1    3    3    0    0  0.17823142387E+02  0.28461920378E+02 -0.21670635792E+02  0.39967008545E+02  0.51100000000E-03 0. -1.
        -11    1    3    3    0    0  0.74199277213E+01 -0.52222905701E+01  0.12610611563E+02  0.15535609754E+02  0.51100000000E-03 0.  1.
         12    1    3    3    0    0 -0.10744105760E+02 -0.12432873647E+02  0.41945611602E+01  0.16958965152E+02  0.00000000000E+00 0. -1.
</event>
<event>
 7    1  0.1884848E-013  0.7246151E+02  0.7816164E-02  0.1226708E+00
        -11   -1    0    0    0    0  0.00000000000E+00  0.00000000000E+00  0.45593999997E+02  0.45594000000E+02  0.51100000000E-03 0. -1.
         11   -1    0    0    0    0 -0.00000000000E+00 -0.00000000000E+00 -0.45593999997E+02  0.45594000000E+02  0.51100000000E-03 0.  1.
    9900012    2    1    2    0    0  0.15684367792E+02 -0.28710216898E+01  0.98203549780E+01  0.72461507257E+02  0.69999917882E+02 0.  0.
        -12    1    1    2    0    0 -0.15684367792E+02  0.28710216898E+01 -0.98203549780E+01  0.18726492743E+02  0.00000000000E+00 0.  1.
         11    1    3    3    0    0  0.20431472457E+02  0.19982082324E+02  0.12752231187E+02  0.31294537563E+02  0.51100000000E-03 0. -1.
        -11    1    3    3    0    0 -0.17026453590E+02 -0.37645474670E+01 -0.55972714031E+01  0.18313966990E+02  0.51100000000E-03 0.  1.
        -12    1    3    3    0    0  0.12279348925E+02 -0.19088556546E+02  0.26653951941E+01  0.22853002704E+02  0.00000000000E+00 0.  1.
</event>
<event>
 7    1  0.1884848E-013  0.7246157E+02  0.7816164E-02  0.1226708E+00
        -11   -1    0    0    0    0  0.00000000000E+00  0.00000000000E+00  0.45593999997E+02  0.45594000000E+02  0.51100000000E-03 0.  1.
         11   -1    0    0    0    0 -0.00000000000E+00 -0.00000000000E+00 -0.45593999997E+02  0.45594000000E+02  0.51100000000E-03 0. -1.
    9900012    2    1    2    0    0  0.25222650276E+01 -0.15685782240E+02 -0.99132996836E+01  0.72461572258E+02  0.70000002559E+02 0.  0.
        -12    1    1    2    0    0 -0.25222650276E+01  0.15685782240E+02  0.99132996836E+01  0.18726427742E+02  0.00000000000E+00 0.  1.
         11    1    3    3    0    0  0.23315926860E+02 -0.30503080169E+02 -0.52978521907E+01  0.38757419718E+02  0.51100000000E-03 0. -1.
        -11    1    3    3    0    0 -0.35974336141E+01  0.98995493933E+01 -0.10502787965E+02  0.14874513844E+02  0.51100000000E-03 0.  1.
         12    1    3    3    0    0 -0.17196228218E+02  0.49177485356E+01  0.58873404726E+01  0.18829638696E+02  0.00000000000E+00 0. -1.
</event>
<event>
 7    1  0.1884848E-013  0.7246125E+02  0.7816164E-02  0.1226709E+00
        -11   -1    0    0    0    0  0.00000000000E+00  0.00000000000E+00  0.45593999997E+02  0.45594000000E+02  0.51100000000E-03 0. -1.
         11   -1    0    0    0    0 -0.00000000000E+00 -0.00000000000E+00 -0.45593999997E+02  0.45594000000E+02  0.51100000000E-03 0.  1.
    9900012    2    1    2    0    0 -0.62279965084E+01 -0.17446140450E+02 -0.27450743167E+01  0.72461249345E+02  0.69999581902E+02 0.  0.
        -12    1    1    2    0    0  0.62279965084E+01  0.17446140450E+02  0.27450743167E+01  0.18726750655E+02  0.00000000000E+00 0.  1.
         11    1    3    3    0    0 -0.16961717295E+02  0.17748227033E+02  0.94170802811E+01  0.26294121353E+02  0.51100000000E-03 0. -1.
        -11    1    3    3    0    0 -0.90838926024E+00 -0.31693539215E+02 -0.12301371504E+02  0.34009253743E+02  0.51100000000E-03 0.  1.
         12    1    3    3    0    0  0.11642110047E+02 -0.35008282680E+01  0.13921690664E+00  0.12157874249E+02  0.00000000000E+00 0. -1.
</event>
<event>
 7    1  0.1884848E-013  0.7246157E+02  0.7816164E-02  0.1226708E+00
        -11   -1    0    0    0    0  0.00000000000E+00  0.00000000000E+00  0.45593999997E+02  0.45594000000E+02  0.51100000000E-03 0.  1.
         11   -1    0    0    0    0 -0.00000000000E+00 -0.00000000000E+00 -0.45593999997E+02  0.45594000000E+02  0.51100000000E-03 0. -1.
    9900012    2    1    2    0    0  0.98499540939E+01 -0.58800559578E+01 -0.14801433027E+02  0.72461572861E+02  0.70000003344E+02 0.  0.
        -12    1    1    2    0    0 -0.98499540939E+01  0.58800559578E+01  0.14801433027E+02  0.18726427139E+02  0.00000000000E+00 0.  1.
         11    1    3    3    0    0 -0.84449704981E+01  0.14843639694E+02 -0.22025315169E+02  0.27870516225E+02  0.51100000000E-03 0. -1.
        -11    1    3    3    0    0  0.22082439199E+02 -0.48271443432E+01  0.14338394488E+02  0.26767984613E+02  0.51100000000E-03 0.  1.
         12    1    3    3    0    0 -0.37875146073E+01 -0.15896551309E+02 -0.71145123461E+01  0.17823072023E+02  0.00000000000E+00 0. -1.
</event>
<event>
 7    1  0.1884848E-013  0.7246152E+02  0.7816164E-02  0.1226708E+00
        -11   -1    0    0    0    0  0.00000000000E+00  0.00000000000E+00  0.45593999997E+02  0.45594000000E+02  0.51100000000E-03 0. -1.
         11   -1    0    0    0    0 -0.00000000000E+00 -0.00000000000E+00 -0.45593999997E+02  0.45594000000E+02  0.51100000000E-03 0.  1.
    9900012    2    1    2    0    0  0.13158667419E+02  0.13117733124E+01  0.13259322938E+02  0.72461523496E+02  0.69999939036E+02 0.  0.
        -12    1    1    2    0    0 -0.13158667419E+02 -0.13117733124E+01 -0.13259322938E+02  0.18726476504E+02  0.00000000000E+00 0.  1.
         11    1    3    3    0    0 -0.33684650478E+01 -0.13018154027E+01  0.30743386539E+02  0.30954758863E+02  0.51100000000E-03 0. -1.
        -11    1    3    3    0    0  0.18912924358E+02 -0.44973737550E+01 -0.24473098006E+02  0.31254721319E+02  0.51100000000E-03 0.  1.
        -12    1    3    3    0    0 -0.23857918910E+01  0.71109624701E+01  0.69890344051E+01  0.10252043314E+02  0.00000000000E+00 0.  1.
</event>
<event>
 7    1  0.1884848E-013  0.7246171E+02  0.7816164E-02  0.1226708E+00
        -11   -1    0    0    0    0  0.00000000000E+00  0.00000000000E+00  0.45593999997E+02  0.45594000000E+02  0.51100000000E-03 0. -1.
         11   -1    0    0    0    0 -0.00000000000E+00 -0.00000000000E+00 -0.45593999997E+02  0.45594000000E+02  0.51100000000E-03 0.  1.
    9900012    2    1    2    0    0  0.17016694887E+02  0.63396957203E+01  0.45732137562E+01  0.72461710171E+02  0.70000182215E+02 0.  0.
        -12    1    1    2    0    0 -0.17016694887E+02 -0.63396957203E+01 -0.45732137562E+01  0.18726289829E+02  0.00000000000E+00 0.  1.
         11    1    3    3    0    0  0.30554234059E+02 -0.17947316418E+02  0.17266854633E+02  0.39418417710E+02  0.51100000000E-03 0. -1.
        -11    1    3    3    0    0 -0.98436315928E+01  0.11229327996E+02 -0.12496148094E+02  0.19471738690E+02  0.51100000000E-03 0.  1.
         12    1    3    3    0    0 -0.36939075793E+01  0.13057684142E+02 -0.19749278304E+00  0.13571553771E+02  0.00000000000E+00 0. -1.
</event>
<event>
 7    1  0.2060271E-013  0.7246159E+02  0.7816164E-02  0.1226708E+00
        -11   -1    0    0    0    0  0.00000000000E+00  0.00000000000E+00  0.45593999997E+02  0.45594000000E+02  0.51100000000E-03 0.  1.
         11   -1    0    0    0    0 -0.00000000000E+00 -0.00000000000E+00 -0.45593999997E+02  0.45594000000E+02  0.51100000000E-03 0. -1.
    9900012    2    1    2    0    0 -0.12786803659E+02 -0.88571108717E+01 -0.10427257448E+02  0.72461589273E+02  0.70000024724E+02 0.  0.
        -12    1    1    2    0    0  0.12786803659E+02  0.88571108717E+01  0.10427257448E+02  0.18726410727E+02  0.00000000000E+00 0.  1.
         11    1    3    3    0    0 -0.24418035985E+02  0.97242593575E+01 -0.16956125573E+02  0.31277977814E+02  0.51100000000E-03 0. -1.
        -11    1    3    3    0    0 -0.72363301885E+00 -0.24407314208E+02  0.11040807642E+02  0.26798135481E+02  0.51100000000E-03 0.  1.
         12    1    3    3    0    0  0.12354865345E+02  0.58259439788E+01 -0.45119395166E+01  0.14385475979E+02  0.00000000000E+00 0. -1.
</event>
<event>
 7    1  0.1884848E-013  0.7246149E+02  0.7816164E-02  0.1226708E+00
        -11   -1    0    0    0    0  0.00000000000E+00  0.00000000000E+00  0.45593999997E+02  0.45594000000E+02  0.51100000000E-03 0. -1.
         11   -1    0    0    0    0 -0.00000000000E+00 -0.00000000000E+00 -0.45593999997E+02  0.45594000000E+02  0.51100000000E-03 0.  1.
    9900012    2    1    2    0    0  0.60739364540E+01 -0.33683304180E+01  0.17390911134E+02  0.72461490878E+02  0.69999896545E+02 0.  0.
        -12    1    1    2    0    0 -0.60739364540E+01  0.33683304180E+01 -0.17390911134E+02  0.18726509122E+02  0.00000000000E+00 0.  1.
         11    1    3    3    0    0  0.23013672223E+01  0.22317074525E+02 -0.17617741455E+02  0.28526004289E+02  0.51100000000E-03 0.  1.
        -11    1    3    3    0    0  0.83971997162E+00 -0.20678146472E+02  0.28404223747E+02  0.35143858611E+02  0.51100000000E-03 0. -1.
        -12    1    3    3    0    0  0.29328492601E+01 -0.50072584718E+01  0.66044288410E+01  0.87916279779E+01  0.00000000000E+00 0.  1.
</event>
<event>
 7    1  0.1884848E-013  0.7246163E+02  0.7816164E-02  0.1226708E+00
        -11   -1    0    0    0    0  0.00000000000E+00  0.00000000000E+00  0.45593999997E+02  0.45594000000E+02  0.51100000000E-03 0.  1.
         11   -1    0    0    0    0 -0.00000000000E+00 -0.00000000000E+00 -0.45593999997E+02  0.45594000000E+02  0.51100000000E-03 0. -1.
    9900012    2    1    2    0    0  0.15477465147E+02  0.47922485158E+01 -0.93893265488E+01  0.72461627520E+02  0.70000074547E+02 0.  0.
        -12    1    1    2    0    0 -0.15477465147E+02 -0.47922485158E+01  0.93893265488E+01  0.18726372480E+02  0.00000000000E+00 0.  1.
         11    1    3    3    0    0 -0.94250207265E+00  0.89060795304E+01 -0.55957746453E+01  0.10560267842E+02  0.51100000000E-03 0. -1.
        -11    1    3    3    0    0  0.11691118473E+01 -0.31736560736E+01  0.27166405432E+02  0.27376130109E+02  0.51100000000E-03 0.  1.
        -12    1    3    3    0    0  0.15250855373E+02 -0.94017494101E+00 -0.30959957336E+02  0.34525229568E+02  0.00000000000E+00 0.  1.
</event>
<event>
 7    1  0.1884848E-013  0.7246158E+02  0.7816164E-02  0.1226708E+00
        -11   -1    0    0    0    0  0.00000000000E+00  0.00000000000E+00  0.45593999997E+02  0.45594000000E+02  0.51100000000E-03 0.  1.
         11   -1    0    0    0    0 -0.00000000000E+00 -0.00000000000E+00 -0.45593999997E+02  0.45594000000E+02  0.51100000000E-03 0. -1.
    9900012    2    1    2    0    0 -0.47661432015E+01  0.14283271345E+02 -0.11133317132E+02  0.72461582518E+02  0.70000015924E+02 0.  0.
        -12    1    1    2    0    0  0.47661432015E+01 -0.14283271345E+02  0.11133317132E+02  0.18726417482E+02  0.00000000000E+00 0.  1.
         11    1    3    3    0    0 -0.16449373988E+02  0.34778781672E+01 -0.27113876941E+02  0.31903602683E+02  0.51100000000E-03 0. -1.
        -11    1    3    3    0    0  0.16214920009E+02 -0.37282486873E+00 -0.44623825835E+01  0.16821875278E+02  0.51100000000E-03 0.  1.
         12    1    3    3    0    0 -0.45316892220E+01  0.11178218047E+02  0.20442942392E+02  0.23736104557E+02  0.00000000000E+00 0. -1.
</event>
<event>
 7    1  0.1884848E-013  0.7246149E+02  0.7816164E-02  0.1226708E+00
        -11   -1    0    0    0    0  0.00000000000E+00  0.00000000000E+00  0.45593999997E+02  0.45594000000E+02  0.51100000000E-03 0. -1.
         11   -1    0    0    0    0 -0.00000000000E+00 -0.00000000000E+00 -0.45593999997E+02  0.45594000000E+02  0.51100000000E-03 0.  1.
    9900012    2    1    2    0    0 -0.14269402469E+02  0.11881869215E+02 -0.24263829942E+01  0.72461494792E+02  0.69999901644E+02 0.  0.
        -12    1    1    2    0    0  0.14269402469E+02 -0.11881869215E+02  0.24263829942E+01  0.18726505208E+02  0.00000000000E+00 0.  1.
         11    1    3    3    0    0 -0.36711844056E+01  0.27526659683E+02  0.29267454045E+01  0.27924190717E+02  0.51100000000E-03 0. -1.
        -11    1    3    3    0    0 -0.19288477638E+02 -0.14746584351E+02  0.10486877461E+02  0.26447716702E+02  0.51100000000E-03 0.  1.
        -12    1    3    3    0    0  0.86902595743E+01 -0.89820611706E+00 -0.15840005860E+02  0.18089587373E+02  0.00000000000E+00 0.  1.
</event>
<event>
 7    1  0.1884848E-013  0.7246223E+02  0.7816164E-02  0.1226706E+00
        -11   -1    0    0    0    0  0.00000000000E+00  0.00000000000E+00  0.45593999997E+02  0.45594000000E+02  0.51100000000E-03 0.  1.
         11   -1    0    0    0    0 -0.00000000000E+00 -0.00000000000E+00 -0.45593999997E+02  0.45594000000E+02  0.51100000000E-03 0. -1.
    9900012    2    1    2    0    0  0.17328618182E+01  0.29180013418E+01 -0.18415668096E+02  0.72462232370E+02  0.70000862472E+02 0.  0.
        -12    1    1    2    0    0 -0.17328618182E+01 -0.29180013418E+01  0.18415668096E+02  0.18725767630E+02  0.00000000000E+00 0.  1.
         11    1    3    3    0    0 -0.12226182513E+02  0.21483335117E+02 -0.16308960543E+02  0.29614108476E+02  0.51100000000E-03 0. -1.
        -11    1    3    3    0    0  0.18308024040E+02 -0.20598467130E+02 -0.13350625639E+02  0.30622210854E+02  0.51100000000E-03 0.  1.
         12    1    3    3    0    0 -0.43489797086E+01  0.20331333549E+01  0.11243918086E+02  0.12225913041E+02  0.00000000000E+00 0. -1.
</event>
<event>
 7    1  0.1884848E-013  0.7246155E+02  0.7816164E-02  0.1226708E+00
        -11   -1    0    0    0    0  0.00000000000E+00  0.00000000000E+00  0.45593999997E+02  0.45594000000E+02  0.51100000000E-03 0.  1.
         11   -1    0    0    0    0 -0.00000000000E+00 -0.00000000000E+00 -0.45593999997E+02  0.45594000000E+02  0.51100000000E-03 0. -1.
    9900012    2    1    2    0    0 -0.12502187826E+02  0.13067834525E+02 -0.48586897855E+01  0.72461551697E+02  0.69999975773E+02 0.  0.
        -12    1    1    2    0    0  0.12502187826E+02 -0.13067834525E+02  0.48586897855E+01  0.18726448303E+02  0.00000000000E+00 0.  1.
         11    1    3    3    0    0 -0.20945904802E+02  0.17364883303E+02 -0.29982180273E+02  0.40487050204E+02  0.51100000000E-03 0. -1.
        -11    1    3    3    0    0  0.24736422509E+01 -0.12185643065E+01  0.25106445171E+02  0.25257422559E+02  0.51100000000E-03 0.  1.
        -12    1    3    3    0    0  0.59700747246E+01 -0.30784844711E+01  0.17045316477E-01  0.67170789335E+01  0.00000000000E+00 0.  1.
</event>
<event>
 7    1  0.1884848E-013  0.7246157E+02  0.7816164E-02  0.1226708E+00
        -11   -1    0    0    0    0  0.00000000000E+00  0.00000000000E+00  0.45593999997E+02  0.45594000000E+02  0.51100000000E-03 0.  1.
         11   -1    0    0    0    0 -0.00000000000E+00 -0.00000000000E+00 -0.45593999997E+02  0.45594000000E+02  0.51100000000E-03 0. -1.
    9900012    2    1    2    0    0 -0.84269681868E+01 -0.10169857113E+02 -0.13275525537E+02  0.72461565080E+02  0.69999993208E+02 0.  0.
        -12    1    1    2    0    0  0.84269681868E+01  0.10169857113E+02  0.13275525537E+02  0.18726434920E+02  0.00000000000E+00 0.  1.
         11    1    3    3    0    0 -0.97652190889E+01 -0.12430519968E+02  0.19805143115E+01  0.15931094367E+02  0.51100000000E-03 0.  1.
        -11    1    3    3    0    0  0.38088492647E+01  0.43224570642E+01 -0.35534391725E+02  0.35998388343E+02  0.51100000000E-03 0. -1.
        -12    1    3    3    0    0 -0.24705983625E+01 -0.20617942094E+01  0.20278351876E+02  0.20532082370E+02  0.00000000000E+00 0.  1.
</event>
<event>
 7    1  0.1884848E-013  0.7246157E+02  0.7816164E-02  0.1226708E+00
        -11   -1    0    0    0    0  0.00000000000E+00  0.00000000000E+00  0.45593999997E+02  0.45594000000E+02  0.51100000000E-03 0.  1.
         11   -1    0    0    0    0 -0.00000000000E+00 -0.00000000000E+00 -0.45593999997E+02  0.45594000000E+02  0.51100000000E-03 0. -1.
    9900012    2    1    2    0    0 -0.90439715026E+01  0.66363654657E+01 -0.14994815749E+02  0.72461567706E+02  0.69999996628E+02 0.  0.
        -12    1    1    2    0    0  0.90439715026E+01 -0.66363654657E+01  0.14994815749E+02  0.18726432294E+02  0.00000000000E+00 0.  1.
         11    1    3    3    0    0  0.47211388895E+01  0.10251804074E+02 -0.14333185425E+02  0.18243597339E+02  0.51100000000E-03 0. -1.
        -11    1    3    3    0    0 -0.27850517104E+02 -0.15354199168E+02 -0.10395855028E+02  0.33458579424E+02  0.51100000000E-03 0.  1.
        -12    1    3    3    0    0  0.14085406712E+02  0.11738760560E+02  0.97342247042E+01  0.20759390942E+02  0.00000000000E+00 0.  1.
</event>
<event>
 7    1  0.1884848E-013  0.7246157E+02  0.7816164E-02  0.1226708E+00
        -11   -1    0    0    0    0  0.00000000000E+00  0.00000000000E+00  0.45593999997E+02  0.45594000000E+02  0.51100000000E-03 0.  1.
         11   -1    0    0    0    0 -0.00000000000E+00 -0.00000000000E+00 -0.45593999997E+02  0.45594000000E+02  0.51100000000E-03 0. -1.
    9900012    2    1    2    0    0  0.63252157126E+01  0.73943947233E+01 -0.15999802306E+02  0.72461572125E+02  0.70000002385E+02 0.  0.
        -12    1    1    2    0    0 -0.63252157126E+01 -0.73943947233E+01  0.15999802306E+02  0.18726427875E+02  0.00000000000E+00 0.  1.
         11    1    3    3    0    0 -0.80208048050E+01  0.42563448992E+01 -0.10435614969E+02  0.13832998289E+02  0.51100000000E-03 0. -1.
        -11    1    3    3    0    0  0.17811382281E+02 -0.13875236276E+02  0.18337215227E+02  0.29086439848E+02  0.51100000000E-03 0.  1.
        -12    1    3    3    0    0 -0.34653617633E+01  0.17013286100E+02 -0.23901402564E+02  0.29542133989E+02  0.00000000000E+00 0.  1.
</event>
<event>
 7    1  0.1884848E-013  0.7246158E+02  0.7816164E-02  0.1226708E+00
        -11   -1    0    0    0    0  0.00000000000E+00  0.00000000000E+00  0.45593999997E+02  0.45594000000E+02  0.51100000000E-03 0.  1.
         11   -1    0    0    0    0 -0.00000000000E+00 -0.00000000000E+00 -0.45593999997E+02  0.45594000000E+02  0.51100000000E-03 0. -1.
    9900012    2    1    2    0    0  0.28198188110E+01 -0.11346761915E+02 -0.14627995464E+02  0.72461584556E+02  0.70000018579E+02 0.  0.
        -12    1    1    2    0    0 -0.28198188110E+01  0.11346761915E+02  0.14627995464E+02  0.18726415444E+02  0.00000000000E+00 0.  1.
         11    1    3    3    0    0  0.29891771240E+02 -0.21605952663E+02 -0.18315275309E+02  0.41179903937E+02  0.51100000000E-03 0. -1.
        -11    1    3    3    0    0 -0.82905323766E+01  0.28311073991E+00  0.54764565838E+01  0.99400531063E+01  0.51100000000E-03 0.  1.
         12    1    3    3    0    0 -0.18781420052E+02  0.99760800083E+01 -0.17891767382E+01  0.21341627513E+02  0.00000000000E+00 0. -1.
</event>
<event>
 7    1  0.1884848E-013  0.7246166E+02  0.7816164E-02  0.1226708E+00
        -11   -1    0    0    0    0  0.00000000000E+00  0.00000000000E+00  0.45593999997E+02  0.45594000000E+02  0.51100000000E-03 0. -1.
         11   -1    0    0    0    0 -0.00000000000E+00 -0.00000000000E+00 -0.45593999997E+02  0.45594000000E+02  0.51100000000E-03 0.  1.
    9900012    2    1    2    0    0 -0.13937657503E+02 -0.12506686582E+02  0.17464998466E-01  0.72461659969E+02  0.70000116818E+02 0.  0.
        -12    1    1    2    0    0  0.13937657503E+02  0.12506686582E+02 -0.17464998466E-01  0.18726340031E+02  0.00000000000E+00 0.  1.
         11    1    3    3    0    0 -0.12976207437E+02  0.44711858467E+01 -0.32410963209E+01  0.14102417095E+02  0.51100000000E-03 0. -1.
        -11    1    3    3    0    0 -0.10487345481E+02 -0.61941517595E+01  0.27552177416E+02  0.30124315957E+02  0.51100000000E-03 0.  1.
        -12    1    3    3    0    0  0.95258954145E+01 -0.10783720669E+02 -0.24293616097E+02  0.28234926916E+02  0.00000000000E+00 0.  1.
</event>
<event>
 7    1  0.1884848E-013  0.7246159E+02  0.7816164E-02  0.1226708E+00
        -11   -1    0    0    0    0  0.00000000000E+00  0.00000000000E+00  0.45593999997E+02  0.45594000000E+02  0.51100000000E-03 0.  1.
         11   -1    0    0    0    0 -0.00000000000E+00 -0.00000000000E+00 -0.45593999997E+02  0.45594000000E+02  0.51100000000E-03 0. -1.
    9900012    2    1    2    0    0  0.81219207848E+01 -0.12620497073E+02 -0.11199824412E+02  0.72461585221E+02  0.70000019445E+02 0.  0.
        -12    1    1    2    0    0 -0.81219207848E+01  0.12620497073E+02  0.11199824412E+02  0.18726414779E+02  0.00000000000E+00 0.  1.
         11    1    3    3    0    0 -0.22383923383E+02 -0.20806229464E+02 -0.96608628972E+01  0.32051076155E+02  0.51100000000E-03 0.  1.
        -11    1    3    3    0    0  0.71330912703E+01  0.12639571686E+02 -0.68234114088E+01  0.16037415846E+02  0.51100000000E-03 0. -1.
         12    1    3    3    0    0  0.23372752897E+02 -0.44538392951E+01  0.52844498936E+01  0.24373093221E+02  0.00000000000E+00 0. -1.
</event>
<event>
 7    1  0.1884848E-013  0.7246156E+02  0.7816164E-02  0.1226708E+00
        -11   -1    0    0    0    0  0.00000000000E+00  0.00000000000E+00  0.45593999997E+02  0.45594000000E+02  0.51100000000E-03 0.  1.
         11   -1    0    0    0    0 -0.00000000000E+00 -0.00000000000E+00 -0.45593999997E+02  0.45594000000E+02  0.51100000000E-03 0. -1.
    9900012    2    1    2    0    0  0.97024076128E+00  0.13292501929E+02 -0.13154748920E+02  0.72461564306E+02  0.69999992199E+02 0.  0.
        -12    1    1    2    0    0 -0.97024076128E+00 -0.13292501929E+02  0.13154748920E+02  0.18726435694E+02  0.00000000000E+00 0.  1.
         11    1    3    3    0    0 -0.10152375128E+02  0.40599763911E+01 -0.20720430594E+02  0.23428409534E+02  0.51100000000E-03 0. -1.
        -11    1    3    3    0    0  0.21921287153E+02  0.14792628279E+02  0.18832744896E+02  0.32465935416E+02  0.51100000000E-03 0.  1.
        -12    1    3    3    0    0 -0.10798671264E+02 -0.55601027417E+01 -0.11267063221E+02  0.16567219356E+02  0.00000000000E+00 0.  1.
</event>
<event>
 7    1  0.1884848E-013  0.7246168E+02  0.7816164E-02  0.1226708E+00
        -11   -1    0    0    0    0  0.00000000000E+00  0.00000000000E+00  0.45593999997E+02  0.45594000000E+02  0.51100000000E-03 0.  1.
         11   -1    0    0    0    0 -0.00000000000E+00 -0.00000000000E+00 -0.45593999997E+02  0.45594000000E+02  0.51100000000E-03 0. -1.
    9900012    2    1    2    0    0  0.42351881872E+01  0.18005404706E+02  0.29229435738E+01  0.72461681175E+02  0.70000144442E+02 0.  0.
        -12    1    1    2    0    0 -0.42351881872E+01 -0.18005404706E+02 -0.29229435738E+01  0.18726318825E+02  0.00000000000E+00 0.  1.
         11    1    3    3    0    0  0.26692276347E+02 -0.10557297227E+01 -0.15276136368E+02  0.30772593723E+02  0.51100000000E-03 0. -1.
        -11    1    3    3    0    0 -0.11362560781E+02 -0.38154789095E+01  0.72387324060E+01  0.14002318162E+02  0.51100000000E-03 0.  1.
         12    1    3    3    0    0 -0.11094527379E+02  0.22876613338E+02  0.10960347536E+02  0.27686769290E+02  0.00000000000E+00 0. -1.
</event>
<event>
 7    1  0.1884848E-013  0.7246154E+02  0.7816164E-02  0.1226708E+00
        -11   -1    0    0    0    0  0.00000000000E+00  0.00000000000E+00  0.45593999997E+02  0.45594000000E+02  0.51100000000E-03 0.  1.
         11   -1    0    0    0    0 -0.00000000000E+00 -0.00000000000E+00 -0.45593999997E+02  0.45594000000E+02  0.51100000000E-03 0. -1.
    9900012    2    1    2    0    0 -0.14237149054E+02  0.73453810095E+01 -0.96968650449E+01  0.72461542058E+02  0.69999963217E+02 0.  0.
        -12    1    1    2    0    0  0.14237149054E+02 -0.73453810095E+01  0.96968650449E+01  0.18726457942E+02  0.00000000000E+00 0.  1.
         11    1    3    3    0    0  0.40214588252E+01 -0.58569466137E+01 -0.10372230833E+02  0.12572156833E+02  0.51100000000E-03 0. -1.
        -11    1    3    3    0    0 -0.25314008195E+02  0.11164134168E+02  0.23257292048E+02  0.36143305553E+02  0.51100000000E-03 0.  1.
        -12    1    3    3    0    0  0.70554003154E+01  0.20381934550E+01 -0.22581926261E+02  0.23746079672E+02  0.00000000000E+00 0.  1.
</event>
<event>
 7    1  0.1884848E-013  0.7246159E+02  0.7816164E-02  0.1226708E+00
        -11   -1    0    0    0    0  0.00000000000E+00  0.00000000000E+00  0.45593999997E+02  0.45594000000E+02  0.51100000000E-03 0.  1.
         11   -1    0    0    0    0 -0.00000000000E+00 -0.00000000000E+00 -0.45593999997E+02  0.45594000000E+02  0.51100000000E-03 0. -1.
    9900012    2    1    2    0    0  0.26586246631E+01  0.62745301893E+01 -0.17442486090E+02  0.72461592571E+02  0.70000029020E+02 0.  0.
        -12    1    1    2    0    0 -0.26586246631E+01 -0.62745301893E+01  0.17442486090E+02  0.18726407429E+02  0.00000000000E+00 0.  1.
         11    1    3    3    0    0 -0.35863050274E+01 -0.91589629040E+01  0.35453666006E+01  0.10455515761E+02  0.51100000000E-03 0.  1.
        -11    1    3    3    0    0  0.71413375118E+01 -0.77249301396E+01 -0.33887004446E+02  0.35482422658E+02  0.51100000000E-03 0. -1.
        -12    1    3    3    0    0 -0.89640782127E+00  0.23158423233E+02  0.12899151755E+02  0.26523654153E+02  0.00000000000E+00 0.  1.
</event>
<event>
 7    1  0.1884848E-013  0.7246222E+02  0.7816164E-02  0.1226706E+00
        -11   -1    0    0    0    0  0.00000000000E+00  0.00000000000E+00  0.45593999997E+02  0.45594000000E+02  0.51100000000E-03 0.  1.
         11   -1    0    0    0    0 -0.00000000000E+00 -0.00000000000E+00 -0.45593999997E+02  0.45594000000E+02  0.51100000000E-03 0. -1.
    9900012    2    1    2    0    0 -0.12552001121E+02  0.65982857786E+01  0.12229664193E+02  0.72462221148E+02  0.70000847852E+02 0.  0.
        -12    1    1    2    0    0  0.12552001121E+02 -0.65982857786E+01 -0.12229664193E+02  0.18725778852E+02  0.00000000000E+00 0.  1.
         11    1    3    3    0    0 -0.20046276084E+02 -0.23017000426E+02 -0.31171606052E+00  0.30524296234E+02  0.51100000000E-03 0. -1.
        -11    1    3    3    0    0 -0.63736501931E+01  0.18577054367E+02  0.14051621225E+02  0.24149087457E+02  0.51100000000E-03 0.  1.
         12    1    3    3    0    0  0.13867925156E+02  0.11038231837E+02 -0.15102409713E+01  0.17788837456E+02  0.00000000000E+00 0. -1.
</event>
<event>
 7    1  0.1884848E-013  0.7246158E+02  0.7816164E-02  0.1226708E+00
        -11   -1    0    0    0    0  0.00000000000E+00  0.00000000000E+00  0.45593999997E+02  0.45594000000E+02  0.51100000000E-03 0. -1.
         11   -1    0    0    0    0 -0.00000000000E+00 -0.00000000000E+00 -0.45593999997E+02  0.45594000000E+02  0.51100000000E-03 0.  1.
    9900012    2    1    2    0    0  0.14477434663E+02  0.50938728979E+01  0.10730109503E+02  0.72461577345E+02  0.70000009184E+02 0.  0.
        -12    1    1    2    0    0 -0.14477434663E+02 -0.50938728979E+01 -0.10730109503E+02  0.18726422655E+02  0.00000000000E+00 0.  1.
         11    1    3    3    0    0  0.35734286796E+02 -0.14273967262E+01  0.12136921052E+01  0.35783372717E+02  0.51100000000E-03 0. -1.
        -11    1    3    3    0    0 -0.97032858616E+01  0.14739235851E+02  0.13190759613E+02  0.22031681039E+02  0.51100000000E-03 0.  1.
        -12    1    3    3    0    0 -0.11553566272E+02 -0.82179662269E+01 -0.36743422154E+01  0.14646523588E+02  0.00000000000E+00 0.  1.
</event>
<event>
 7    1  0.1884848E-013  0.7246160E+02  0.7816164E-02  0.1226708E+00
        -11   -1    0    0    0    0  0.00000000000E+00  0.00000000000E+00  0.45593999997E+02  0.45594000000E+02  0.51100000000E-03 0.  1.
         11   -1    0    0    0    0 -0.00000000000E+00 -0.00000000000E+00 -0.45593999997E+02  0.45594000000E+02  0.51100000000E-03 0. -1.
    9900012    2    1    2    0    0 -0.91419327083E+01 -0.94658454018E+01 -0.13322948028E+02  0.72461598665E+02  0.70000036957E+02 0.  0.
        -12    1    1    2    0    0  0.91419327083E+01  0.94658454018E+01  0.13322948028E+02  0.18726401335E+02  0.00000000000E+00 0.  1.
         11    1    3    3    0    0 -0.12729218307E+02 -0.29323579969E+02 -0.15175727473E+02  0.35386551760E+02  0.51100000000E-03 0. -1.
        -11    1    3    3    0    0 -0.82826940075E+01  0.22884700667E+02  0.39225960218E+01  0.24651557850E+02  0.51100000000E-03 0.  1.
         12    1    3    3    0    0  0.11869979606E+02 -0.30269660998E+01 -0.20698165767E+01  0.12423489054E+02  0.00000000000E+00 0. -1.
</event>
<event>
 7    1  0.1884848E-013  0.7246158E+02  0.7816164E-02  0.1226708E+00
        -11   -1    0    0    0    0  0.00000000000E+00  0.00000000000E+00  0.45593999997E+02  0.45594000000E+02  0.51100000000E-03 0.  1.
         11   -1    0    0    0    0 -0.00000000000E+00 -0.00000000000E+00 -0.45593999997E+02  0.45594000000E+02  0.51100000000E-03 0. -1.
    9900012    2    1    2    0    0 -0.14455001037E+02  0.10100347535E+02 -0.63019522624E+01  0.72461583428E+02  0.70000017109E+02 0.  0.
        -12    1    1    2    0    0  0.14455001037E+02 -0.10100347535E+02  0.63019522624E+01  0.18726416572E+02  0.00000000000E+00 0.  1.
         11    1    3    3    0    0 -0.17382917399E+02 -0.65251428965E+01  0.73653214256E+00  0.18581867155E+02  0.51100000000E-03 0. -1.
        -11    1    3    3    0    0 -0.24303374309E+01  0.28683018183E+02 -0.20260043949E+02  0.35200730862E+02  0.51100000000E-03 0.  1.
        -12    1    3    3    0    0  0.53582537928E+01 -0.12057527752E+02  0.13221559544E+02  0.18678985411E+02  0.00000000000E+00 0.  1.
</event>
<event>
 7    1  0.1884848E-013  0.7246159E+02  0.7816164E-02  0.1226708E+00
        -11   -1    0    0    0    0  0.00000000000E+00  0.00000000000E+00  0.45593999997E+02  0.45594000000E+02  0.51100000000E-03 0. -1.
         11   -1    0    0    0    0 -0.00000000000E+00 -0.00000000000E+00 -0.45593999997E+02  0.45594000000E+02  0.51100000000E-03 0.  1.
    9900012    2    1    2    0    0 -0.11660422936E+01 -0.17383120494E+02  0.68662997051E+01  0.72461585383E+02  0.70000019656E+02 0.  0.
        -12    1    1    2    0    0  0.11660422936E+01  0.17383120494E+02 -0.68662997051E+01  0.18726414617E+02  0.00000000000E+00 0.  1.
         11    1    3    3    0    0 -0.20108992615E+01 -0.28177717548E+02 -0.57839312523E+01  0.28835418205E+02  0.51100000000E-03 0. -1.
        -11    1    3    3    0    0 -0.17074406779E+02  0.17904787286E+01 -0.39222562097E+01  0.17610374072E+02  0.51100000000E-03 0.  1.
         12    1    3    3    0    0  0.17919263747E+02  0.90041183255E+01  0.16572487167E+02  0.26015793106E+02  0.00000000000E+00 0. -1.
</event>
<event>
 7    1  0.2553340E-013  0.7246154E+02  0.7816164E-02  0.1226708E+00
        -11   -1    0    0    0    0  0.00000000000E+00  0.00000000000E+00  0.45593999997E+02  0.45594000000E+02  0.51100000000E-03 0. -1.
         11   -1    0    0    0    0 -0.00000000000E+00 -0.00000000000E+00 -0.45593999997E+02  0.45594000000E+02  0.51100000000E-03 0.  1.
    9900012    2    1    2    0    0  0.13841192699E+01  0.13220127997E+02  0.13190637300E+02  0.72461535230E+02  0.69999954322E+02 0.  0.
        -12    1    1    2    0    0 -0.13841192699E+01 -0.13220127997E+02 -0.13190637300E+02  0.18726464770E+02  0.00000000000E+00 0.  1.
         11    1    3    3    0    0  0.26164097805E+02  0.44715971080E+01  0.15377788742E+02  0.30676238060E+02  0.51100000000E-03 0. -1.
        -11    1    3    3    0    0 -0.44310053949E+01 -0.31875730305E+01 -0.14270988832E+02  0.15279252375E+02  0.51100000000E-03 0.  1.
         12    1    3    3    0    0 -0.20348973140E+02  0.11936103920E+02  0.12083837389E+02  0.26506044795E+02  0.00000000000E+00 0. -1.
</event>
<event>
 7    1  0.1884848E-013  0.7246161E+02  0.7816164E-02  0.1226708E+00
        -11   -1    0    0    0    0  0.00000000000E+00  0.00000000000E+00  0.45593999997E+02  0.45594000000E+02  0.51100000000E-03 0. -1.
         11   -1    0    0    0    0 -0.00000000000E+00 -0.00000000000E+00 -0.45593999997E+02  0.45594000000E+02  0.51100000000E-03 0.  1.
    9900012    2    1    2    0    0  0.25650033232E+01  0.18274573045E+02 -0.31840660728E+01  0.72461613835E+02  0.70000056720E+02 0.  0.
        -12    1    1    2    0    0 -0.25650033232E+01 -0.18274573045E+02  0.31840660728E+01  0.18726386165E+02  0.00000000000E+00 0.  1.
         11    1    3    3    0    0  0.33135536158E+01 -0.15011539775E+02 -0.13164507552E+02  0.20239323688E+02  0.51100000000E-03 0. -1.
        -11    1    3    3    0    0 -0.19744410897E+02  0.18904100071E+02  0.69452331324E+01  0.28203599499E+02  0.51100000000E-03 0.  1.
         12    1    3    3    0    0  0.18995860604E+02  0.14382012749E+02  0.30352083471E+01  0.24018690649E+02  0.00000000000E+00 0. -1.
</event>
<event>
 7    1  0.1884848E-013  0.7246158E+02  0.7816164E-02  0.1226708E+00
        -11   -1    0    0    0    0  0.00000000000E+00  0.00000000000E+00  0.45593999997E+02  0.45594000000E+02  0.51100000000E-03 0.  1.
         11   -1    0    0    0    0 -0.00000000000E+00 -0.00000000000E+00 -0.45593999997E+02  0.45594000000E+02  0.51100000000E-03 0. -1.
    9900012    2    1    2    0    0  0.16746444664E+02  0.55701196986E+01 -0.62617172016E+01  0.72461581638E+02  0.70000014778E+02 0.  0.
        -12    1    1    2    0    0 -0.16746444664E+02 -0.55701196986E+01  0.62617172016E+01  0.18726418362E+02  0.00000000000E+00 0.  1.
         11    1    3    3    0    0  0.10173209235E+02 -0.18193234351E+02 -0.22890115001E+02  0.30958768181E+02  0.51100000000E-03 0. -1.
        -11    1    3    3    0    0  0.90136547537E+01  0.51051763537E+01  0.19870359643E+02  0.22408480319E+02  0.51100000000E-03 0.  1.
         12    1    3    3    0    0 -0.24404193251E+01  0.18658177696E+02 -0.32419618437E+01  0.19094333138E+02  0.00000000000E+00 0. -1.
</event>
<event>
 7    1  0.1884848E-013  0.7246160E+02  0.7816164E-02  0.1226708E+00
        -11   -1    0    0    0    0  0.00000000000E+00  0.00000000000E+00  0.45593999997E+02  0.45594000000E+02  0.51100000000E-03 0.  1.
         11   -1    0    0    0    0 -0.00000000000E+00 -0.00000000000E+00 -0.45593999997E+02  0.45594000000E+02  0.51100000000E-03 0. -1.
    9900012    2    1    2    0    0  0.12169758766E+02 -0.89417245048E+01 -0.11073411712E+02  0.72461603858E+02  0.70000043722E+02 0.  0.
        -12    1    1    2    0    0 -0.12169758766E+02  0.89417245048E+01  0.11073411712E+02  0.18726396142E+02  0.00000000000E+00 0.  1.
         11    1    3    3    0    0  0.64156861196E+01  0.28221099990E+02 -0.99415973956E+01  0.30601092662E+02  0.51100000000E-03 0. -1.
        -11    1    3    3    0    0 -0.57595445214E+01 -0.18542123998E+02 -0.38674601113E+01  0.19797473663E+02  0.51100000000E-03 0.  1.
         12    1    3    3    0    0  0.11513617168E+02 -0.18620700497E+02  0.27356457948E+01  0.22063037533E+02  0.00000000000E+00 0. -1.
</event>
<event>
 7    1  0.1884848E-013  0.7246157E+02  0.7816164E-02  0.1226708E+00
        -11   -1    0    0    0    0  0.00000000000E+00  0.00000000000E+00  0.45593999997E+02  0.45594000000E+02  0.51100000000E-03 0.  1.
         11   -1    0    0    0    0 -0.00000000000E+00 -0.00000000000E+00 -0.45593999997E+02  0.45594000000E+02  0.51100000000E-03 0. -1.
    9900012    2    1    2    0    0  0.39522793110E+01  0.13115870133E+02 -0.12768424638E+02  0.72461568710E+02  0.69999997937E+02 0.  0.
        -12    1    1    2    0    0 -0.39522793110E+01 -0.13115870133E+02  0.12768424638E+02  0.18726431290E+02  0.00000000000E+00 0.  1.
         11    1    3    3    0    0 -0.21302932099E+02  0.20924900197E+02 -0.12579420745E+02  0.32402286814E+02  0.51100000000E-03 0. -1.
        -11    1    3    3    0    0  0.12458765614E+02  0.10083839510E+02  0.61479855247E+01  0.17166897977E+02  0.51100000000E-03 0.  1.
         12    1    3    3    0    0  0.12796445796E+02 -0.17892869574E+02 -0.63369894185E+01  0.22892383919E+02  0.00000000000E+00 0. -1.
</event>
<event>
 7    1  0.1884848E-013  0.7246159E+02  0.7816164E-02  0.1226708E+00
        -11   -1    0    0    0    0  0.00000000000E+00  0.00000000000E+00  0.45593999997E+02  0.45594000000E+02  0.51100000000E-03 0.  1.
         11   -1    0    0    0    0 -0.00000000000E+00 -0.00000000000E+00 -0.45593999997E+02  0.45594000000E+02  0.51100000000E-03 0. -1.
    9900012    2    1    2    0    0  0.16654541125E+02 -0.81947241238E+01 -0.24801242348E+01  0.72461594585E+02  0.70000031643E+02 0.  0.
        -12    1    1    2    0    0 -0.16654541125E+02  0.81947241238E+01  0.24801242348E+01  0.18726405415E+02  0.00000000000E+00 0.  1.
         11    1    3    3    0    0  0.78558983405E+00  0.56714165757E+01 -0.78031308971E+00  0.57784951451E+01  0.51100000000E-03 0. -1.
        -11    1    3    3    0    0  0.31481849296E+02 -0.30270472256E+02 -0.43129061939E+01  0.43886324588E+02  0.51100000000E-03 0.  1.
        -12    1    3    3    0    0 -0.15612898005E+02  0.16404331556E+02  0.26130950488E+01  0.22796774852E+02  0.00000000000E+00 0.  1.
</event>
<event>
 7    1  0.1884848E-013  0.7246151E+02  0.7816164E-02  0.1226708E+00
        -11   -1    0    0    0    0  0.00000000000E+00  0.00000000000E+00  0.45593999997E+02  0.45594000000E+02  0.51100000000E-03 0.  1.
         11   -1    0    0    0    0 -0.00000000000E+00 -0.00000000000E+00 -0.45593999997E+02  0.45594000000E+02  0.51100000000E-03 0. -1.
    9900012    2    1    2    0    0  0.18138147388E+02 -0.45994435374E+01  0.73087210392E+00  0.72461509524E+02  0.69999920835E+02 0.  0.
        -12    1    1    2    0    0 -0.18138147388E+02  0.45994435374E+01 -0.73087210392E+00  0.18726490476E+02  0.00000000000E+00 0.  1.
         11    1    3    3    0    0  0.40619639598E+02  0.11418816058E+02 -0.70547532974E+01  0.42779831995E+02  0.51100000000E-03 0. -1.
        -11    1    3    3    0    0 -0.18483248892E+02 -0.98693621821E+01  0.77692166333E+01  0.22347159257E+02  0.51100000000E-03 0.  1.
         12    1    3    3    0    0 -0.39982433177E+01 -0.61488974137E+01  0.16408767976E-01  0.73345182718E+01  0.00000000000E+00 0. -1.
</event>
<event>
 7    1  0.1884848E-013  0.7246142E+02  0.7816164E-02  0.1226708E+00
        -11   -1    0    0    0    0  0.00000000000E+00  0.00000000000E+00  0.45593999997E+02  0.45594000000E+02  0.51100000000E-03 0.  1.
         11   -1    0    0    0    0 -0.00000000000E+00 -0.00000000000E+00 -0.45593999997E+02  0.45594000000E+02  0.51100000000E-03 0. -1.
    9900012    2    1    2    0    0  0.96689050993E+01  0.97461514049E+01 -0.12736151397E+02  0.72461421417E+02  0.69999806059E+02 0.  0.
        -12    1    1    2    0    0 -0.96689050993E+01 -0.97461514049E+01  0.12736151397E+02  0.18726578583E+02  0.00000000000E+00 0.  1.
         11    1    3    3    0    0  0.19360887237E+02 -0.10669687002E+02 -0.91365730525E+01  0.23919931913E+02  0.51100000000E-03 0. -1.
        -11    1    3    3    0    0 -0.83151442651E+01  0.24687205515E+02 -0.19166091674E+02  0.32340977267E+02  0.51100000000E-03 0.  1.
        -12    1    3    3    0    0 -0.13768378726E+01 -0.42713671076E+01  0.15566513330E+02  0.16200512237E+02  0.00000000000E+00 0.  1.
</event>
<event>
 7    1  0.1884848E-013  0.7246162E+02  0.7816164E-02  0.1226708E+00
        -11   -1    0    0    0    0  0.00000000000E+00  0.00000000000E+00  0.45593999997E+02  0.45594000000E+02  0.51100000000E-03 0.  1.
         11   -1    0    0    0    0 -0.00000000000E+00 -0.00000000000E+00 -0.45593999997E+02  0.45594000000E+02  0.51100000000E-03 0. -1.
    9900012    2    1    2    0    0  0.91387959650E+01  0.36467157392E+01 -0.15933016864E+02  0.72461624116E+02  0.70000070112E+02 0.  0.
        -12    1    1    2    0    0 -0.91387959650E+01 -0.36467157392E+01  0.15933016864E+02  0.18726375884E+02  0.00000000000E+00 0.  1.
         11    1    3    3    0    0  0.15167867775E+02 -0.17227536928E+02  0.37015963799E+01  0.23249818439E+02  0.51100000000E-03 0. -1.
        -11    1    3    3    0    0 -0.17945070343E+02  0.61380678780E+00  0.93154614428E+00  0.17979713203E+02  0.51100000000E-03 0.  1.
        -12    1    3    3    0    0  0.11915998533E+02  0.20260445879E+02 -0.20566159388E+02  0.31232092473E+02  0.00000000000E+00 0.  1.
</event>
<event>
 7    1  0.1884848E-013  0.7246163E+02  0.7816164E-02  0.1226708E+00
        -11   -1    0    0    0    0  0.00000000000E+00  0.00000000000E+00  0.45593999997E+02  0.45594000000E+02  0.51100000000E-03 0. -1.
         11   -1    0    0    0    0 -0.00000000000E+00 -0.00000000000E+00 -0.45593999997E+02  0.45594000000E+02  0.51100000000E-03 0.  1.
    9900012    2    1    2    0    0  0.22520480309E+01  0.20841976381E+01  0.18473258241E+02  0.72461631688E+02  0.70000079976E+02 0.  0.
        -12    1    1    2    0    0 -0.22520480309E+01 -0.20841976381E+01 -0.18473258241E+02  0.18726368312E+02  0.00000000000E+00 0.  1.
         11    1    3    3    0    0  0.47281888048E+00 -0.22131050630E+02  0.28918421797E+02  0.36418155900E+02  0.51100000000E-03 0. -1.
        -11    1    3    3    0    0 -0.94394953445E+01  0.12332059495E+02 -0.12001845258E+02  0.19627227354E+02  0.51100000000E-03 0.  1.
        -12    1    3    3    0    0  0.11218724495E+02  0.11883188773E+02  0.15566817014E+01  0.16416248434E+02  0.00000000000E+00 0.  1.
</event>
<event>
 7    1  0.1884848E-013  0.7246155E+02  0.7816164E-02  0.1226708E+00
        -11   -1    0    0    0    0  0.00000000000E+00  0.00000000000E+00  0.45593999997E+02  0.45594000000E+02  0.51100000000E-03 0. -1.
         11   -1    0    0    0    0 -0.00000000000E+00 -0.00000000000E+00 -0.45593999997E+02  0.45594000000E+02  0.51100000000E-03 0.  1.
    9900012    2    1    2    0    0  0.13057781095E+02 -0.83778295395E+01  0.10487424637E+02  0.72461554783E+02  0.69999979794E+02 0.  0.
        -12    1    1    2    0    0 -0.13057781095E+02  0.83778295395E+01 -0.10487424637E+02  0.18726445217E+02  0.00000000000E+00 0.  1.
         11    1    3    3    0    0 -0.59357951719E+01 -0.40980283186E+01 -0.55690985428E+00  0.72344764337E+01  0.51100000000E-03 0. -1.
        -11    1    3    3    0    0  0.29012461293E+02 -0.17378781911E+02 -0.12863623847E+02  0.36183114705E+02  0.51100000000E-03 0.  1.
        -12    1    3    3    0    0 -0.10018885026E+02  0.13098980690E+02  0.23907958339E+02  0.29043963645E+02  0.00000000000E+00 0.  1.
</event>
<event>
 7    1  0.1884848E-013  0.7246163E+02  0.7816164E-02  0.1226708E+00
        -11   -1    0    0    0    0  0.00000000000E+00  0.00000000000E+00  0.45593999997E+02  0.45594000000E+02  0.51100000000E-03 0.  1.
         11   -1    0    0    0    0 -0.00000000000E+00 -0.00000000000E+00 -0.45593999997E+02  0.45594000000E+02  0.51100000000E-03 0. -1.
    9900012    2    1    2    0    0 -0.89938079595E+01  0.16290332991E+02  0.21007871369E+01  0.72461632569E+02  0.70000081124E+02 0.  0.
        -12    1    1    2    0    0  0.89938079595E+01 -0.16290332991E+02 -0.21007871369E+01  0.18726367431E+02  0.00000000000E+00 0.  1.
         11    1    3    3    0    0 -0.18365535684E+02 -0.55777274812E+01 -0.58076365344E+01  0.20053243807E+02  0.51100000000E-03 0. -1.
        -11    1    3    3    0    0  0.23444776633E+02  0.27776060583E+02  0.34691860972E+01  0.36513043496E+02  0.51100000000E-03 0.  1.
        -12    1    3    3    0    0 -0.14073048909E+02 -0.59080001105E+01  0.44392375741E+01  0.15895345267E+02  0.00000000000E+00 0.  1.
</event>
<event>
 7    1  0.1884848E-013  0.7246161E+02  0.7816164E-02  0.1226708E+00
        -11   -1    0    0    0    0  0.00000000000E+00  0.00000000000E+00  0.45593999997E+02  0.45594000000E+02  0.51100000000E-03 0.  1.
         11   -1    0    0    0    0 -0.00000000000E+00 -0.00000000000E+00 -0.45593999997E+02  0.45594000000E+02  0.51100000000E-03 0. -1.
    9900012    2    1    2    0    0  0.10674545467E+02  0.73822538294E+01 -0.13499412233E+02  0.72461608912E+02  0.70000050307E+02 0.  0.
        -12    1    1    2    0    0 -0.10674545467E+02 -0.73822538294E+01  0.13499412233E+02  0.18726391088E+02  0.00000000000E+00 0.  1.
         11    1    3    3    0    0  0.20602473254E+02  0.16588897430E+02 -0.18136447877E+02  0.32071547577E+02  0.51100000000E-03 0. -1.
        -11    1    3    3    0    0  0.33496335699E+01 -0.14140936100E+02  0.16447279138E+02  0.21947644752E+02  0.51100000000E-03 0.  1.
        -12    1    3    3    0    0 -0.13277561356E+02  0.49342925001E+01 -0.11810243494E+02  0.18442416584E+02  0.00000000000E+00 0.  1.
</event>
<event>
 7    1  0.1884848E-013  0.7246161E+02  0.7816164E-02  0.1226708E+00
        -11   -1    0    0    0    0  0.00000000000E+00  0.00000000000E+00  0.45593999997E+02  0.45594000000E+02  0.51100000000E-03 0.  1.
         11   -1    0    0    0    0 -0.00000000000E+00 -0.00000000000E+00 -0.45593999997E+02  0.45594000000E+02  0.51100000000E-03 0. -1.
    9900012    2    1    2    0    0 -0.36550127671E+01  0.11706642197E+02 -0.14151791120E+02  0.72461607348E+02  0.70000048270E+02 0.  0.
        -12    1    1    2    0    0  0.36550127671E+01 -0.11706642197E+02  0.14151791120E+02  0.18726392652E+02  0.00000000000E+00 0.  1.
         11    1    3    3    0    0  0.32047105547E+01  0.87354012564E+01 -0.13654664151E+02  0.16523536491E+02  0.51100000000E-03 0. -1.
        -11    1    3    3    0    0 -0.14809842778E+01  0.15980020269E+02  0.23298237625E+02  0.28290674063E+02  0.51100000000E-03 0.  1.
        -12    1    3    3    0    0 -0.53787390439E+01 -0.13008779329E+02 -0.23795364594E+02  0.27647396794E+02  0.00000000000E+00 0.  1.
</event>
<event>
 7    1  0.1884848E-013  0.7246158E+02  0.7816164E-02  0.1226708E+00
        -11   -1    0    0    0    0  0.00000000000E+00  0.00000000000E+00  0.45593999997E+02  0.45594000000E+02  0.51100000000E-03 0.  1.
         11   -1    0    0    0    0 -0.00000000000E+00 -0.00000000000E+00 -0.45593999997E+02  0.45594000000E+02  0.51100000000E-03 0. -1.
    9900012    2    1    2    0    0 -0.43470791492E+01  0.91062816917E+01 -0.15775209373E+02  0.72461582987E+02  0.70000016534E+02 0.  0.
        -12    1    1    2    0    0  0.43470791492E+01 -0.91062816917E+01  0.15775209373E+02  0.18726417013E+02  0.00000000000E+00 0.  1.
         11    1    3    3    0    0 -0.57402443753E+01 -0.19393617485E+02 -0.21645509839E+02  0.29624160767E+02  0.51100000000E-03 0.  1.
        -11    1    3    3    0    0  0.74962930413E+01  0.30372014070E+02  0.12449983594E+02  0.33669804570E+02  0.51100000000E-03 0. -1.
         12    1    3    3    0    0 -0.61031278151E+01 -0.18721148932E+01 -0.65796831285E+01  0.91676176498E+01  0.00000000000E+00 0. -1.
</event>
<event>
 7    1  0.1884848E-013  0.7246151E+02  0.7816164E-02  0.1226708E+00
        -11   -1    0    0    0    0  0.00000000000E+00  0.00000000000E+00  0.45593999997E+02  0.45594000000E+02  0.51100000000E-03 0.  1.
         11   -1    0    0    0    0 -0.00000000000E+00 -0.00000000000E+00 -0.45593999997E+02  0.45594000000E+02  0.51100000000E-03 0. -1.
    9900012    2    1    2    0    0  0.70916036872E+01 -0.74908456662E+01 -0.15629390175E+02  0.72461509435E+02  0.69999920719E+02 0.  0.
        -12    1    1    2    0    0 -0.70916036872E+01  0.74908456662E+01  0.15629390175E+02  0.18726490565E+02  0.00000000000E+00 0.  1.
         11    1    3    3    0    0  0.13851847833E+02 -0.51687785553E+01 -0.29170028657E+02  0.32702913207E+02  0.51100000000E-03 0. -1.
        -11    1    3    3    0    0 -0.19345233861E+02  0.71397349377E+01  0.30655136192E+01  0.20847332255E+02  0.51100000000E-03 0.  1.
        -12    1    3    3    0    0  0.12584989716E+02 -0.94618020486E+01  0.10475124862E+02  0.18911263972E+02  0.00000000000E+00 0.  1.
</event>
<event>
 7    1  0.1884848E-013  0.7246164E+02  0.7816164E-02  0.1226708E+00
        -11   -1    0    0    0    0  0.00000000000E+00  0.00000000000E+00  0.45593999997E+02  0.45594000000E+02  0.51100000000E-03 0. -1.
         11   -1    0    0    0    0 -0.00000000000E+00 -0.00000000000E+00 -0.45593999997E+02  0.45594000000E+02  0.51100000000E-03 0.  1.
    9900012    2    1    2    0    0  0.90851637666E+01  0.55124923107E+01  0.15419103353E+02  0.72461641028E+02  0.70000092143E+02 0.  0.
        -12    1    1    2    0    0 -0.90851637666E+01 -0.55124923107E+01 -0.15419103353E+02  0.18726358972E+02  0.00000000000E+00 0.  1.
         11    1    3    3    0    0  0.11349057103E+02  0.16953044629E+02 -0.21367320158E+02  0.29542667285E+02  0.51100000000E-03 0. -1.
        -11    1    3    3    0    0 -0.84669718292E+01 -0.13046091257E+02  0.23690199377E+02  0.28339295260E+02  0.51100000000E-03 0.  1.
         12    1    3    3    0    0  0.62030784923E+01  0.16055389386E+01  0.13096224135E+02  0.14579678482E+02  0.00000000000E+00 0. -1.
</event>
<event>
 7    1  0.1884848E-013  0.7246161E+02  0.7816164E-02  0.1226708E+00
        -11   -1    0    0    0    0  0.00000000000E+00  0.00000000000E+00  0.45593999997E+02  0.45594000000E+02  0.51100000000E-03 0.  1.
         11   -1    0    0    0    0 -0.00000000000E+00 -0.00000000000E+00 -0.45593999997E+02  0.45594000000E+02  0.51100000000E-03 0. -1.
    9900012    2    1    2    0    0  0.14892721793E+02  0.98277158398E+01 -0.56833582727E+01  0.72461608936E+02  0.70000050338E+02 0.  0.
        -12    1    1    2    0    0 -0.14892721793E+02 -0.98277158398E+01  0.56833582727E+01  0.18726391064E+02  0.00000000000E+00 0.  1.
         11    1    3    3    0    0 -0.39508876371E+01 -0.15904470653E+02  0.66755273602E+01  0.17695320445E+02  0.51100000000E-03 0. -1.
        -11    1    3    3    0    0  0.16251457987E+02  0.30996618476E+02 -0.23512513634E+02  0.42163236845E+02  0.51100000000E-03 0.  1.
        -12    1    3    3    0    0  0.25921514422E+01 -0.52644319834E+01  0.11153628001E+02  0.12603051646E+02  0.00000000000E+00 0.  1.
</event>
<event>
 7    1  0.1884848E-013  0.7246155E+02  0.7816164E-02  0.1226708E+00
        -11   -1    0    0    0    0  0.00000000000E+00  0.00000000000E+00  0.45593999997E+02  0.45594000000E+02  0.51100000000E-03 0.  1.
         11   -1    0    0    0    0 -0.00000000000E+00 -0.00000000000E+00 -0.45593999997E+02  0.45594000000E+02  0.51100000000E-03 0. -1.
    9900012    2    1    2    0    0 -0.15759485165E+02  0.15433318616E+01 -0.99968289773E+01  0.72461552513E+02  0.69999976836E+02 0.  0.
        -12    1    1    2    0    0  0.15759485165E+02 -0.15433318616E+01  0.99968289773E+01  0.18726447487E+02  0.00000000000E+00 0.  1.
         11    1    3    3    0    0 -0.41372850699E+02  0.22188418998E+01 -0.68585910235E+01  0.41996146316E+02  0.51100000000E-03 0. -1.
        -11    1    3    3    0    0  0.25522283310E+01 -0.60920837005E+01 -0.36941485780E+00  0.66154229544E+01  0.51100000000E-03 0.  1.
         12    1    3    3    0    0  0.23061137203E+02  0.54165736622E+01 -0.27688230960E+01  0.23849983242E+02  0.00000000000E+00 0. -1.
</event>
<event>
 7    1  0.1884848E-013  0.7246143E+02  0.7816164E-02  0.1226708E+00
        -11   -1    0    0    0    0  0.00000000000E+00  0.00000000000E+00  0.45593999997E+02  0.45594000000E+02  0.51100000000E-03 0.  1.
         11   -1    0    0    0    0 -0.00000000000E+00 -0.00000000000E+00 -0.45593999997E+02  0.45594000000E+02  0.51100000000E-03 0. -1.
    9900012    2    1    2    0    0  0.52083216645E+01 -0.12236658844E+02 -0.13184161969E+02  0.72461426340E+02  0.69999812472E+02 0.  0.
        -12    1    1    2    0    0 -0.52083216645E+01  0.12236658844E+02  0.13184161969E+02  0.18726573660E+02  0.00000000000E+00 0.  1.
         11    1    3    3    0    0  0.13043966222E+02 -0.63459352257E+01  0.23486835706E+02  0.27605206038E+02  0.51100000000E-03 0.  1.
        -11    1    3    3    0    0 -0.32668248305E+01  0.58233553167E+01 -0.65572085166E+00  0.67092161773E+01  0.51100000000E-03 0. -1.
         12    1    3    3    0    0 -0.45688197265E+01 -0.11714078935E+02 -0.36015276823E+02  0.38147004124E+02  0.00000000000E+00 0. -1.
</event>
<event>
 7    1  0.1884848E-013  0.7246160E+02  0.7816164E-02  0.1226708E+00
        -11   -1    0    0    0    0  0.00000000000E+00  0.00000000000E+00  0.45593999997E+02  0.45594000000E+02  0.51100000000E-03 0.  1.
         11   -1    0    0    0    0 -0.00000000000E+00 -0.00000000000E+00 -0.45593999997E+02  0.45594000000E+02  0.51100000000E-03 0. -1.
    9900012    2    1    2    0    0 -0.40026024431E+01  0.71930645563E+00 -0.18279488823E+02  0.72461603130E+02  0.70000042775E+02 0.  0.
        -12    1    1    2    0    0  0.40026024431E+01 -0.71930645563E+00  0.18279488823E+02  0.18726396870E+02  0.00000000000E+00 0.  1.
         11    1    3    3    0    0  0.25362374979E+02 -0.59085698097E+01 -0.40331311363E+00  0.26044652494E+02  0.51100000000E-03 0. -1.
        -11    1    3    3    0    0 -0.31042021203E+02  0.96053387395E+01 -0.47333009150E+01  0.32837078897E+02  0.51100000000E-03 0.  1.
         12    1    3    3    0    0  0.16770437803E+01 -0.29774624742E+01 -0.13142874794E+02  0.13579871740E+02  0.00000000000E+00 0. -1.
</event>
<event>
 7    1  0.1884848E-013  0.7246155E+02  0.7816164E-02  0.1226708E+00
        -11   -1    0    0    0    0  0.00000000000E+00  0.00000000000E+00  0.45593999997E+02  0.45594000000E+02  0.51100000000E-03 0.  1.
         11   -1    0    0    0    0 -0.00000000000E+00 -0.00000000000E+00 -0.45593999997E+02  0.45594000000E+02  0.51100000000E-03 0. -1.
    9900012    2    1    2    0    0 -0.14204615072E+01 -0.12606771105E+02 -0.13774310471E+02  0.72461547652E+02  0.69999970504E+02 0.  0.
        -12    1    1    2    0    0  0.14204615072E+01  0.12606771105E+02  0.13774310471E+02  0.18726452348E+02  0.00000000000E+00 0.  1.
         11    1    3    3    0    0  0.24534999836E+02  0.16737151980E+01 -0.19873960013E+02  0.31618694255E+02  0.51100000000E-03 0. -1.
        -11    1    3    3    0    0 -0.62249423339E+01 -0.10841288503E+02  0.14482009473E+02  0.19131441192E+02  0.51100000000E-03 0.  1.
        -12    1    3    3    0    0 -0.19730519010E+02 -0.34391977996E+01 -0.83823599306E+01  0.21711412204E+02  0.00000000000E+00 0.  1.
</event>
<event>
 8    1  0.1884848E-013  0.7246148E+02  0.7816164E-02  0.1226708E+00
        -11   -1    0    0    0    0  0.00000000000E+00  0.00000000000E+00  0.45593999997E+02  0.45594000000E+02  0.51100000000E-03 0. -1.
         11   -1    0    0    0    0 -0.00000000000E+00 -0.00000000000E+00 -0.45593999997E+02  0.45594000000E+02  0.51100000000E-03 0.  1.
    9900012    2    1    2    0    0 -0.61306054918E+01  0.12041025304E+02  0.12965796421E+02  0.72461481613E+02  0.69999884476E+02 0.  0.
        -24    2    3    3    0    0 -0.14927832284E+02  0.15592802319E+02  0.22303261386E+02  0.59150036484E+02  0.50351918401E+02 0.  0.
        -12    1    1    2    0    0  0.61306054918E+01 -0.12041025304E+02 -0.12965796421E+02  0.18726518387E+02  0.00000000000E+00 0.  1.
         11    1    4    4    0    0 -0.20179373047E+02  0.19771587531E+02  0.34885335118E+02  0.44889969666E+02  0.51100000000E-03 0. -1.
        -11    1    3    3    0    0  0.87972267921E+01 -0.35517770149E+01 -0.93374649656E+01  0.13311445130E+02  0.51100000000E-03 0.  1.
        -12    1    4    4    0    0  0.52515407630E+01 -0.41787852119E+01 -0.12582073732E+02  0.14260066817E+02  0.00000000000E+00 0.  1.
</event>
<event>
 7    1  0.1884848E-013  0.7246155E+02  0.7816164E-02  0.1226708E+00
        -11   -1    0    0    0    0  0.00000000000E+00  0.00000000000E+00  0.45593999997E+02  0.45594000000E+02  0.51100000000E-03 0.  1.
         11   -1    0    0    0    0 -0.00000000000E+00 -0.00000000000E+00 -0.45593999997E+02  0.45594000000E+02  0.51100000000E-03 0. -1.
    9900012    2    1    2    0    0  0.55187738908E+01  0.16912434722E+02 -0.58474320174E+01  0.72461554136E+02  0.69999978951E+02 0.  0.
        -12    1    1    2    0    0 -0.55187738908E+01 -0.16912434722E+02  0.58474320174E+01  0.18726445864E+02  0.00000000000E+00 0.  1.
         11    1    3    3    0    0 -0.14064887171E+01  0.26269384689E+02 -0.25521790131E+02  0.36652701868E+02  0.51100000000E-03 0. -1.
        -11    1    3    3    0    0  0.10749197757E+02 -0.17589592452E+02  0.11564193910E+02  0.23636192504E+02  0.51100000000E-03 0.  1.
        -12    1    3    3    0    0 -0.38239351491E+01  0.82326424849E+01  0.81101642041E+01  0.12172659764E+02  0.00000000000E+00 0.  1.
</event>
<event>
 7    1  0.1884848E-013  0.7246159E+02  0.7816164E-02  0.1226708E+00
        -11   -1    0    0    0    0  0.00000000000E+00  0.00000000000E+00  0.45593999997E+02  0.45594000000E+02  0.51100000000E-03 0. -1.
         11   -1    0    0    0    0 -0.00000000000E+00 -0.00000000000E+00 -0.45593999997E+02  0.45594000000E+02  0.51100000000E-03 0.  1.
    9900012    2    1    2    0    0  0.11846116737E+02  0.13903500392E+02  0.41280272437E+01  0.72461590471E+02  0.70000026284E+02 0.  0.
        -12    1    1    2    0    0 -0.11846116737E+02 -0.13903500392E+02 -0.41280272437E+01  0.18726409529E+02  0.00000000000E+00 0.  1.
         11    1    3    3    0    0  0.95698783385E+01 -0.20763076386E+00  0.31215619213E+02  0.32650276646E+02  0.51100000000E-03 0. -1.
        -11    1    3    3    0    0 -0.61907680237E+01  0.18248041314E+02 -0.14646276628E+02  0.24203926125E+02  0.51100000000E-03 0.  1.
         12    1    3    3    0    0  0.84670064226E+01 -0.41369101581E+01 -0.12441315342E+02  0.15607387701E+02  0.00000000000E+00 0. -1.
</event>
<event>
 7    1  0.1884848E-013  0.7246162E+02  0.7816164E-02  0.1226708E+00
        -11   -1    0    0    0    0  0.00000000000E+00  0.00000000000E+00  0.45593999997E+02  0.45594000000E+02  0.51100000000E-03 0. -1.
         11   -1    0    0    0    0 -0.00000000000E+00 -0.00000000000E+00 -0.45593999997E+02  0.45594000000E+02  0.51100000000E-03 0.  1.
    9900012    2    1    2    0    0 -0.77694920668E+01 -0.10890940476E+02  0.13103426533E+02  0.72461618120E+02  0.70000062302E+02 0.  0.
        -12    1    1    2    0    0  0.77694920668E+01  0.10890940476E+02 -0.13103426533E+02  0.18726381880E+02  0.00000000000E+00 0.  1.
         11    1    3    3    0    0 -0.84622078270E+01  0.13090359663E+02  0.74121441439E+01  0.17259964035E+02  0.51100000000E-03 0. -1.
        -11    1    3    3    0    0  0.16274893433E+01 -0.64855459364E+01 -0.21688491018E+02  0.22695851395E+02  0.51100000000E-03 0.  1.
        -12    1    3    3    0    0 -0.93477358314E+00 -0.17495754202E+02  0.27379773406E+02  0.32505802690E+02  0.00000000000E+00 0.  1.
</event>
<event>
 7    1  0.1884848E-013  0.7246160E+02  0.7816164E-02  0.1226708E+00
        -11   -1    0    0    0    0  0.00000000000E+00  0.00000000000E+00  0.45593999997E+02  0.45594000000E+02  0.51100000000E-03 0.  1.
         11   -1    0    0    0    0 -0.00000000000E+00 -0.00000000000E+00 -0.45593999997E+02  0.45594000000E+02  0.51100000000E-03 0. -1.
    9900012    2    1    2    0    0 -0.93808450975E+01 -0.31792883075E+01 -0.15892454092E+02  0.72461595488E+02  0.70000032819E+02 0.  0.
        -12    1    1    2    0    0  0.93808450975E+01  0.31792883075E+01  0.15892454092E+02  0.18726404512E+02  0.00000000000E+00 0.  1.
         11    1    3    3    0    0 -0.21780769843E+02 -0.85043369836E+01 -0.94086921462E+00  0.23401087958E+02  0.51100000000E-03 0. -1.
        -11    1    3    3    0    0  0.13911248900E+02  0.24133898195E+02 -0.90724986651E+01  0.29296384083E+02  0.51100000000E-03 0.  1.
        -12    1    3    3    0    0 -0.15113241545E+01 -0.18808849519E+02 -0.58790862121E+01  0.19764123447E+02  0.00000000000E+00 0.  1.
</event>
<event>
 7    1  0.1884848E-013  0.7246157E+02  0.7816164E-02  0.1226708E+00
        -11   -1    0    0    0    0  0.00000000000E+00  0.00000000000E+00  0.45593999997E+02  0.45594000000E+02  0.51100000000E-03 0.  1.
         11   -1    0    0    0    0 -0.00000000000E+00 -0.00000000000E+00 -0.45593999997E+02  0.45594000000E+02  0.51100000000E-03 0. -1.
    9900012    2    1    2    0    0  0.15557692113E+02  0.80682407084E+01  0.65985559519E+01  0.72461568609E+02  0.69999997804E+02 0.  0.
        -12    1    1    2    0    0 -0.15557692113E+02 -0.80682407084E+01 -0.65985559519E+01  0.18726431391E+02  0.00000000000E+00 0.  1.
         11    1    3    3    0    0  0.29869363535E+02  0.85648717117E+01 -0.16152537953E+02  0.35020570926E+02  0.51100000000E-03 0. -1.
        -11    1    3    3    0    0 -0.15028077002E+02  0.10213694983E+02  0.98852708321E+01  0.20685290505E+02  0.51100000000E-03 0.  1.
         12    1    3    3    0    0  0.71640558019E+00 -0.10710325987E+02  0.12865823072E+02  0.16755707178E+02  0.00000000000E+00 0. -1.
</event>
<event>
 7    1  0.1884848E-013  0.7246157E+02  0.7816164E-02  0.1226708E+00
        -11   -1    0    0    0    0  0.00000000000E+00  0.00000000000E+00  0.45593999997E+02  0.45594000000E+02  0.51100000000E-03 0. -1.
         11   -1    0    0    0    0 -0.00000000000E+00 -0.00000000000E+00 -0.45593999997E+02  0.45594000000E+02  0.51100000000E-03 0.  1.
    9900012    2    1    2    0    0  0.15203446066E+02 -0.70747681010E+01 -0.83355799498E+01  0.72461574579E+02  0.70000005581E+02 0.  0.
        -12    1    1    2    0    0 -0.15203446066E+02  0.70747681010E+01  0.83355799498E+01  0.18726425421E+02  0.00000000000E+00 0.  1.
         11    1    3    3    0    0  0.54748870762E+01  0.25619176801E+02 -0.15051320173E+02  0.30213554039E+02  0.51100000000E-03 0.  1.
        -11    1    3    3    0    0  0.83356617709E+01 -0.42306754269E+01  0.98491503374E+01  0.13578940841E+02  0.51100000000E-03 0. -1.
         12    1    3    3    0    0  0.13928972186E+01 -0.28463269475E+02 -0.31334101142E+01  0.28669079699E+02  0.00000000000E+00 0. -1.
</event>
<event>
 7    1  0.1884848E-013  0.7246161E+02  0.7816164E-02  0.1226708E+00
        -11   -1    0    0    0    0  0.00000000000E+00  0.00000000000E+00  0.45593999997E+02  0.45594000000E+02  0.51100000000E-03 0. -1.
         11   -1    0    0    0    0 -0.00000000000E+00 -0.00000000000E+00 -0.45593999997E+02  0.45594000000E+02  0.51100000000E-03 0.  1.
    9900012    2    1    2    0    0 -0.80309468658E+01  0.89654579232E+01 -0.14345800479E+02  0.72461613944E+02  0.70000056862E+02 0.  0.
        -12    1    1    2    0    0  0.80309468658E+01 -0.89654579232E+01  0.14345800479E+02  0.18726386056E+02  0.00000000000E+00 0.  1.
         11    1    3    3    0    0  0.10434920695E+01  0.28901045976E+02  0.11472912736E+01  0.28942626207E+02  0.51100000000E-03 0.  1.
        -11    1    3    3    0    0 -0.46217560980E+01 -0.24799003043E+02  0.15210224354E+01  0.25271816137E+02  0.51100000000E-03 0. -1.
         12    1    3    3    0    0 -0.44526828373E+01  0.48634149903E+01 -0.17014114188E+02  0.18247171600E+02  0.00000000000E+00 0. -1.
</event>
<event>
 7    1  0.1884848E-013  0.7246159E+02  0.7816164E-02  0.1226708E+00
        -11   -1    0    0    0    0  0.00000000000E+00  0.00000000000E+00  0.45593999997E+02  0.45594000000E+02  0.51100000000E-03 0. -1.
         11   -1    0    0    0    0 -0.00000000000E+00 -0.00000000000E+00 -0.45593999997E+02  0.45594000000E+02  0.51100000000E-03 0.  1.
    9900012    2    1    2    0    0 -0.17987983736E+02 -0.47602299858E+01  0.21097673847E+01  0.72461589057E+02  0.70000024442E+02 0.  0.
        -12    1    1    2    0    0  0.17987983736E+02  0.47602299858E+01 -0.21097673847E+01  0.18726410943E+02  0.00000000000E+00 0.  1.
         11    1    3    3    0    0 -0.13835226041E+02  0.31094882734E+01 -0.12396941905E+02  0.18835247962E+02  0.51100000000E-03 0. -1.
        -11    1    3    3    0    0  0.53037465319E+01  0.57962465063E+01  0.29935709731E+02  0.30949522099E+02  0.51100000000E-03 0.  1.
        -12    1    3    3    0    0 -0.94565042266E+01 -0.13665964766E+02 -0.15429000441E+02  0.22676818996E+02  0.00000000000E+00 0.  1.
</event>
<event>
 7    1  0.1884848E-013  0.7246151E+02  0.7816164E-02  0.1226708E+00
        -11   -1    0    0    0    0  0.00000000000E+00  0.00000000000E+00  0.45593999997E+02  0.45594000000E+02  0.51100000000E-03 0.  1.
         11   -1    0    0    0    0 -0.00000000000E+00 -0.00000000000E+00 -0.45593999997E+02  0.45594000000E+02  0.51100000000E-03 0. -1.
    9900012    2    1    2    0    0 -0.18155821542E+02  0.45172133824E+01 -0.80137444101E+00  0.72461514115E+02  0.69999926816E+02 0.  0.
        -12    1    1    2    0    0  0.18155821542E+02 -0.45172133824E+01  0.80137444101E+00  0.18726485885E+02  0.00000000000E+00 0.  1.
         11    1    3    3    0    0 -0.34871950337E+02  0.11528177071E+02  0.22319570802E+00  0.36728757173E+02  0.51100000000E-03 0.  1.
        -11    1    3    3    0    0  0.10971607844E+02  0.30108649004E+01 -0.14209711147E+02  0.18203224365E+02  0.51100000000E-03 0. -1.
         12    1    3    3    0    0  0.57445209518E+01 -0.10021828589E+02  0.13185140998E+02  0.17529532578E+02  0.00000000000E+00 0. -1.
</event>
<event>
 7    1  0.1884848E-013  0.7246161E+02  0.7816164E-02  0.1226708E+00
        -11   -1    0    0    0    0  0.00000000000E+00  0.00000000000E+00  0.45593999997E+02  0.45594000000E+02  0.51100000000E-03 0.  1.
         11   -1    0    0    0    0 -0.00000000000E+00 -0.00000000000E+00 -0.45593999997E+02  0.45594000000E+02  0.51100000000E-03 0. -1.
    9900012    2    1    2    0    0  0.17936550938E+02  0.21684249352E+01 -0.49250248983E+01  0.72461606954E+02  0.70000047756E+02 0.  0.
        -12    1    1    2    0    0 -0.17936550938E+02 -0.21684249352E+01  0.49250248983E+01  0.18726393046E+02  0.00000000000E+00 0.  1.
         11    1    3    3    0    0 -0.42647122923E+01  0.16893338935E+02 -0.19059745895E+02  0.25823372846E+02  0.51100000000E-03 0. -1.
        -11    1    3    3    0    0  0.30251483870E+02 -0.68435841036E+01  0.16492542794E+02  0.35128206441E+02  0.51100000000E-03 0.  1.
         12    1    3    3    0    0 -0.80502206394E+01 -0.78813298960E+01 -0.23578217969E+01  0.11510027667E+02  0.00000000000E+00 0. -1.
</event>
<event>
 7    1  0.1884848E-013  0.7246158E+02  0.7816164E-02  0.1226708E+00
        -11   -1    0    0    0    0  0.00000000000E+00  0.00000000000E+00  0.45593999997E+02  0.45594000000E+02  0.51100000000E-03 0.  1.
         11   -1    0    0    0    0 -0.00000000000E+00 -0.00000000000E+00 -0.45593999997E+02  0.45594000000E+02  0.51100000000E-03 0. -1.
    9900012    2    1    2    0    0  0.50302094111E+01 -0.12760192803E+02 -0.12749635944E+02  0.72461581662E+02  0.70000014808E+02 0.  0.
        -12    1    1    2    0    0 -0.50302094111E+01  0.12760192803E+02  0.12749635944E+02  0.18726418338E+02  0.00000000000E+00 0.  1.
         11    1    3    3    0    0  0.26647437548E+02  0.28842908054E+01 -0.25420101172E+02  0.36940311385E+02  0.51100000000E-03 0. -1.
        -11    1    3    3    0    0  0.66951995931E-01 -0.19835350727E+00  0.85838516505E+01  0.85864041427E+01  0.51100000000E-03 0.  1.
         12    1    3    3    0    0 -0.21684180133E+02 -0.15446130101E+02  0.40866135782E+01  0.26934866134E+02  0.00000000000E+00 0. -1.
</event>
<event>
 7    1  0.1884848E-013  0.7246170E+02  0.7816164E-02  0.1226708E+00
        -11   -1    0    0    0    0  0.00000000000E+00  0.00000000000E+00  0.45593999997E+02  0.45594000000E+02  0.51100000000E-03 0. -1.
         11   -1    0    0    0    0 -0.00000000000E+00 -0.00000000000E+00 -0.45593999997E+02  0.45594000000E+02  0.51100000000E-03 0.  1.
    9900012    2    1    2    0    0  0.13416618755E+02 -0.76060600921E+00  0.13041857658E+02  0.72461702141E+02  0.70000171755E+02 0.  0.
        -12    1    1    2    0    0 -0.13416618755E+02  0.76060600921E+00 -0.13041857658E+02  0.18726297859E+02  0.00000000000E+00 0.  1.
         11    1    3    3    0    0  0.26710165832E+02 -0.95926151020E+00 -0.12472257244E+02  0.29494242530E+02  0.51100000000E-03 0. -1.
        -11    1    3    3    0    0 -0.26101265758E+01  0.93178634820E+01  0.27153270917E+02  0.28825951196E+02  0.51100000000E-03 0.  1.
        -12    1    3    3    0    0 -0.10683420501E+02 -0.91192079810E+01 -0.16391560154E+01  0.14141508415E+02  0.00000000000E+00 0.  1.
</event>
<event>
 7    1  0.1884848E-013  0.7246152E+02  0.7816164E-02  0.1226708E+00
        -11   -1    0    0    0    0  0.00000000000E+00  0.00000000000E+00  0.45593999997E+02  0.45594000000E+02  0.51100000000E-03 0. -1.
         11   -1    0    0    0    0 -0.00000000000E+00 -0.00000000000E+00 -0.45593999997E+02  0.45594000000E+02  0.51100000000E-03 0.  1.
    9900012    2    1    2    0    0  0.17181762833E+02  0.48530729667E+01 -0.56494179848E+01  0.72461515684E+02  0.69999928860E+02 0.  0.
        -12    1    1    2    0    0 -0.17181762833E+02 -0.48530729667E+01  0.56494179848E+01  0.18726484316E+02  0.00000000000E+00 0.  1.
         11    1    3    3    0    0 -0.18962404657E+02  0.67584474035E+01  0.11046587750E+02  0.22962502103E+02  0.51100000000E-03 0.  1.
        -11    1    3    3    0    0  0.41157176006E+02 -0.35526937568E+01 -0.15147026595E+02  0.43999627097E+02  0.51100000000E-03 0. -1.
         12    1    3    3    0    0 -0.50130085159E+01  0.16473193200E+01 -0.15489791400E+01  0.54993864839E+01  0.00000000000E+00 0. -1.
</event>
<event>
 7    1  0.1884848E-013  0.7246156E+02  0.7816164E-02  0.1226708E+00
        -11   -1    0    0    0    0  0.00000000000E+00  0.00000000000E+00  0.45593999997E+02  0.45594000000E+02  0.51100000000E-03 0.  1.
         11   -1    0    0    0    0 -0.00000000000E+00 -0.00000000000E+00 -0.45593999997E+02  0.45594000000E+02  0.51100000000E-03 0. -1.
    9900012    2    1    2    0    0 -0.41503260081E+01  0.32331382233E+01 -0.17972235550E+02  0.72461557748E+02  0.69999983656E+02 0.  0.
        -12    1    1    2    0    0  0.41503260081E+01 -0.32331382233E+01  0.17972235550E+02  0.18726442252E+02  0.00000000000E+00 0.  1.
         11    1    3    3    0    0  0.14524040960E+01  0.68962032395E+01 -0.23543627456E+02  0.24575790747E+02  0.51100000000E-03 0. -1.
        -11    1    3    3    0    0  0.24806673668E+01  0.14060860449E+02  0.19333801121E+02  0.24034503806E+02  0.51100000000E-03 0.  1.
         12    1    3    3    0    0 -0.80833974708E+01 -0.17723925465E+02 -0.13762409216E+02  0.23851263195E+02  0.00000000000E+00 0. -1.
</event>
<event>
 7    1  0.1884848E-013  0.7246151E+02  0.7816164E-02  0.1226708E+00
        -11   -1    0    0    0    0  0.00000000000E+00  0.00000000000E+00  0.45593999997E+02  0.45594000000E+02  0.51100000000E-03 0. -1.
         11   -1    0    0    0    0 -0.00000000000E+00 -0.00000000000E+00 -0.45593999997E+02  0.45594000000E+02  0.51100000000E-03 0.  1.
    9900012    2    1    2    0    0 -0.28739145103E+01 -0.17629786497E+02  0.56225291855E+01  0.72461505641E+02  0.69999915776E+02 0.  0.
        -12    1    1    2    0    0  0.28739145103E+01  0.17629786497E+02 -0.56225291855E+01  0.18726494359E+02  0.00000000000E+00 0.  1.
         11    1    3    3    0    0  0.29763835547E+01 -0.37107771032E+02 -0.42534113023E+01  0.37469147815E+02  0.51100000000E-03 0.  1.
        -11    1    3    3    0    0 -0.12005516461E+02  0.23157443125E+02  0.96670460508E+01  0.27818184290E+02  0.51100000000E-03 0. -1.
         12    1    3    3    0    0  0.61552183965E+01 -0.36794585904E+01  0.20889443697E+00  0.71741735351E+01  0.00000000000E+00 0. -1.
</event>
<event>
 7    1  0.1884848E-013  0.7246158E+02  0.7816164E-02  0.1226708E+00
        -11   -1    0    0    0    0  0.00000000000E+00  0.00000000000E+00  0.45593999997E+02  0.45594000000E+02  0.51100000000E-03 0.  1.
         11   -1    0    0    0    0 -0.00000000000E+00 -0.00000000000E+00 -0.45593999997E+02  0.45594000000E+02  0.51100000000E-03 0. -1.
    9900012    2    1    2    0    0 -0.17216834736E+02 -0.54279156238E+01 -0.49796877415E+01  0.72461575986E+02  0.70000007414E+02 0.  0.
        -12    1    1    2    0    0  0.17216834736E+02  0.54279156238E+01  0.49796877415E+01  0.18726424014E+02  0.00000000000E+00 0.  1.
         11    1    3    3    0    0  0.11756386133E+02  0.12802735374E+01 -0.73962736207E+01  0.13948353988E+02  0.51100000000E-03 0. -1.
        -11    1    3    3    0    0 -0.16243033570E+02  0.91225702710E+01  0.22996829988E+02  0.29595804055E+02  0.51100000000E-03 0.  1.
        -12    1    3    3    0    0 -0.12730187300E+02 -0.15830759432E+02 -0.20580244109E+02  0.28917417943E+02  0.00000000000E+00 0.  1.
</event>
<event>
 7    1  0.1884848E-013  0.7246159E+02  0.7816164E-02  0.1226708E+00
        -11   -1    0    0    0    0  0.00000000000E+00  0.00000000000E+00  0.45593999997E+02  0.45594000000E+02  0.51100000000E-03 0.  1.
         11   -1    0    0    0    0 -0.00000000000E+00 -0.00000000000E+00 -0.45593999997E+02  0.45594000000E+02  0.51100000000E-03 0. -1.
    9900012    2    1    2    0    0  0.13922065889E+02  0.77279273747E+01  0.98556466516E+01  0.72461586808E+02  0.70000021512E+02 0.  0.
        -12    1    1    2    0    0 -0.13922065889E+02 -0.77279273747E+01 -0.98556466516E+01  0.18726413192E+02  0.00000000000E+00 0.  1.
         11    1    3    3    0    0  0.33040447711E+02 -0.45272961487E+01  0.68993913418E+01  0.34055384251E+02  0.51100000000E-03 0. -1.
        -11    1    3    3    0    0 -0.18559506527E+02 -0.34664294603E+01 -0.65985491829E+01  0.20000306680E+02  0.51100000000E-03 0.  1.
         12    1    3    3    0    0 -0.55887529536E+00  0.15721652984E+02  0.95548044928E+01  0.18405895877E+02  0.00000000000E+00 0. -1.
</event>
<event>
 7    1  0.1884848E-013  0.7246154E+02  0.7816164E-02  0.1226708E+00
        -11   -1    0    0    0    0  0.00000000000E+00  0.00000000000E+00  0.45593999997E+02  0.45594000000E+02  0.51100000000E-03 0.  1.
         11   -1    0    0    0    0 -0.00000000000E+00 -0.00000000000E+00 -0.45593999997E+02  0.45594000000E+02  0.51100000000E-03 0. -1.
    9900012    2    1    2    0    0  0.17625783348E+02 -0.61828248892E+01 -0.13359149141E+01  0.72461541955E+02  0.69999963083E+02 0.  0.
        -12    1    1    2    0    0 -0.17625783348E+02  0.61828248892E+01  0.13359149141E+01  0.18726458045E+02  0.00000000000E+00 0.  1.
         11    1    3    3    0    0 -0.17444085121E+02 -0.16412411629E+02  0.93503582300E+00  0.23969515086E+02  0.51100000000E-03 0. -1.
        -11    1    3    3    0    0  0.36974154148E+02 -0.10356084744E+01 -0.23980301650E+01  0.37066306922E+02  0.51100000000E-03 0.  1.
        -12    1    3    3    0    0 -0.19042856784E+01  0.11265195214E+02  0.12707942791E+00  0.11425719948E+02  0.00000000000E+00 0.  1.
</event>
<event>
 7    1  0.1884848E-013  0.7246186E+02  0.7816164E-02  0.1226707E+00
        -11   -1    0    0    0    0  0.00000000000E+00  0.00000000000E+00  0.45593999997E+02  0.45594000000E+02  0.51100000000E-03 0.  1.
         11   -1    0    0    0    0 -0.00000000000E+00 -0.00000000000E+00 -0.45593999997E+02  0.45594000000E+02  0.51100000000E-03 0. -1.
    9900012    2    1    2    0    0 -0.94519990847E+01  0.15860852091E+02 -0.31243071640E+01  0.72461862891E+02  0.70000381161E+02 0.  0.
        -12    1    1    2    0    0  0.94519990847E+01 -0.15860852091E+02  0.31243071640E+01  0.18726137109E+02  0.00000000000E+00 0.  1.
         11    1    3    3    0    0 -0.14780913690E+02  0.34842259568E+02 -0.98574604237E+00  0.37860667676E+02  0.51100000000E-03 0. -1.
        -11    1    3    3    0    0 -0.46604806644E+01 -0.37832803643E+01  0.10748504075E+02  0.12311118164E+02  0.51100000000E-03 0.  1.
         12    1    3    3    0    0  0.99893952696E+01 -0.15198127113E+02 -0.12887065197E+02  0.22290077052E+02  0.00000000000E+00 0. -1.
</event>
<event>
 7    1  0.1884848E-013  0.7246157E+02  0.7816164E-02  0.1226708E+00
        -11   -1    0    0    0    0  0.00000000000E+00  0.00000000000E+00  0.45593999997E+02  0.45594000000E+02  0.51100000000E-03 0.  1.
         11   -1    0    0    0    0 -0.00000000000E+00 -0.00000000000E+00 -0.45593999997E+02  0.45594000000E+02  0.51100000000E-03 0. -1.
    9900012    2    1    2    0    0  0.79733106584E+01  0.87509296450E+01 -0.14509533847E+02  0.72461574154E+02  0.70000005028E+02 0.  0.
        -12    1    1    2    0    0 -0.79733106584E+01 -0.87509296450E+01  0.14509533847E+02  0.18726425846E+02  0.00000000000E+00 0.  1.
         11    1    3    3    0    0  0.10631168396E+02  0.15787099218E+01 -0.15627978835E+02  0.18967018459E+02  0.51100000000E-03 0. -1.
        -11    1    3    3    0    0 -0.44400135211E+01 -0.22898748498E+02 -0.45626822915E+00  0.23329693178E+02  0.51100000000E-03 0.  1.
        -12    1    3    3    0    0  0.17821557834E+01  0.30070968221E+02  0.15747132179E+01  0.30164862517E+02  0.00000000000E+00 0.  1.
</event>
<event>
 7    1  0.1884848E-013  0.7246154E+02  0.7816164E-02  0.1226708E+00
        -11   -1    0    0    0    0  0.00000000000E+00  0.00000000000E+00  0.45593999997E+02  0.45594000000E+02  0.51100000000E-03 0. -1.
         11   -1    0    0    0    0 -0.00000000000E+00 -0.00000000000E+00 -0.45593999997E+02  0.45594000000E+02  0.51100000000E-03 0.  1.
    9900012    2    1    2    0    0  0.52083417940E+01 -0.17772022394E+02  0.27764491460E+01  0.72461540802E+02  0.69999961581E+02 0.  0.
        -12    1    1    2    0    0 -0.52083417940E+01  0.17772022394E+02 -0.27764491460E+01  0.18726459198E+02  0.00000000000E+00 0.  1.
         11    1    3    3    0    0  0.45451599073E+00 -0.35471551180E+02  0.55494717821E+01  0.35905907107E+02  0.51100000000E-03 0. -1.
        -11    1    3    3    0    0  0.17564900352E+02  0.15392819602E+02 -0.29251874946E+01  0.23537657951E+02  0.51100000000E-03 0.  1.
        -12    1    3    3    0    0 -0.12811074548E+02  0.23067091832E+01  0.15216485851E+00  0.13017975744E+02  0.00000000000E+00 0.  1.
</event>
<event>
 7    1  0.1884848E-013  0.7246164E+02  0.7816164E-02  0.1226708E+00
        -11   -1    0    0    0    0  0.00000000000E+00  0.00000000000E+00  0.45593999997E+02  0.45594000000E+02  0.51100000000E-03 0. -1.
         11   -1    0    0    0    0 -0.00000000000E+00 -0.00000000000E+00 -0.45593999997E+02  0.45594000000E+02  0.51100000000E-03 0.  1.
    9900012    2    1    2    0    0 -0.13951249580E+02 -0.12368215621E+02  0.17511643079E+01  0.72461636260E+02  0.70000085932E+02 0.  0.
        -12    1    1    2    0    0  0.13951249580E+02  0.12368215621E+02 -0.17511643079E+01  0.18726363740E+02  0.00000000000E+00 0.  1.
         11    1    3    3    0    0 -0.64932346568E+01 -0.72074581523E+01  0.21841254703E+02  0.23898743828E+02  0.51100000000E-03 0. -1.
        -11    1    3    3    0    0  0.12944660111E+02 -0.21241821249E+01 -0.24203146830E+02  0.27529415029E+02  0.51100000000E-03 0.  1.
         12    1    3    3    0    0 -0.20402675035E+02 -0.30365753436E+01  0.41130564356E+01  0.21033477402E+02  0.00000000000E+00 0. -1.
</event>
<event>
 7    1  0.1884848E-013  0.7246157E+02  0.7816164E-02  0.1226708E+00
        -11   -1    0    0    0    0  0.00000000000E+00  0.00000000000E+00  0.45593999997E+02  0.45594000000E+02  0.51100000000E-03 0. -1.
         11   -1    0    0    0    0 -0.00000000000E+00 -0.00000000000E+00 -0.45593999997E+02  0.45594000000E+02  0.51100000000E-03 0.  1.
    9900012    2    1    2    0    0 -0.35994409828E+01  0.17380552060E+02  0.59698940083E+01  0.72461569487E+02  0.69999998948E+02 0.  0.
        -12    1    1    2    0    0  0.35994409828E+01 -0.17380552060E+02 -0.59698940083E+01  0.18726430513E+02  0.00000000000E+00 0.  1.
         11    1    3    3    0    0  0.22067522208E+02 -0.10378684605E+02  0.18210415016E+02  0.30435371623E+02  0.51100000000E-03 0. -1.
        -11    1    3    3    0    0 -0.52193700996E+01  0.10218362961E+02  0.18516960814E+01  0.11622630704E+02  0.51100000000E-03 0.  1.
         12    1    3    3    0    0 -0.20447593092E+02  0.17540873703E+02 -0.14092217089E+02  0.30403567159E+02  0.00000000000E+00 0. -1.
</event>
<event>
 7    1  0.1884848E-013  0.7246158E+02  0.7816164E-02  0.1226708E+00
        -11   -1    0    0    0    0  0.00000000000E+00  0.00000000000E+00  0.45593999997E+02  0.45594000000E+02  0.51100000000E-03 0.  1.
         11   -1    0    0    0    0 -0.00000000000E+00 -0.00000000000E+00 -0.45593999997E+02  0.45594000000E+02  0.51100000000E-03 0. -1.
    9900012    2    1    2    0    0 -0.10289668735E+02 -0.14485390631E+02 -0.59139805321E+01  0.72461575084E+02  0.70000006239E+02 0.  0.
        -12    1    1    2    0    0  0.10289668735E+02  0.14485390631E+02  0.59139805321E+01  0.18726424916E+02  0.00000000000E+00 0.  1.
         11    1    3    3    0    0  0.47734650740E+01 -0.19693922655E+02  0.16671179387E+02  0.26240517921E+02  0.51100000000E-03 0.  1.
        -11    1    3    3    0    0 -0.10959105990E+02  0.21002189888E+02 -0.10485201375E+02  0.25906243115E+02  0.51100000000E-03 0. -1.
        -12    1    3    3    0    0 -0.41040278197E+01 -0.15793657864E+02 -0.12099958543E+02  0.20314814048E+02  0.00000000000E+00 0.  1.
</event>
<event>
 7    1  0.1884848E-013  0.7246167E+02  0.7816164E-02  0.1226708E+00
        -11   -1    0    0    0    0  0.00000000000E+00  0.00000000000E+00  0.45593999997E+02  0.45594000000E+02  0.51100000000E-03 0. -1.
         11   -1    0    0    0    0 -0.00000000000E+00 -0.00000000000E+00 -0.45593999997E+02  0.45594000000E+02  0.51100000000E-03 0.  1.
    9900012    2    1    2    0    0  0.13756635245E+02 -0.47050924033E+01  0.11802230267E+02  0.72461667015E+02  0.70000125997E+02 0.  0.
        -12    1    1    2    0    0 -0.13756635245E+02  0.47050924033E+01 -0.11802230267E+02  0.18726332985E+02  0.00000000000E+00 0.  1.
         11    1    3    3    0    0 -0.10352674514E+01 -0.26926124305E+02  0.21258611427E+02  0.34322245102E+02  0.51100000000E-03 0.  1.
        -11    1    3    3    0    0  0.16002481884E+02  0.13761959711E+02  0.46820216153E+01  0.21619257346E+02  0.51100000000E-03 0. -1.
         12    1    3    3    0    0 -0.12105791876E+01  0.84590721905E+01 -0.14138402775E+02  0.16520164567E+02  0.00000000000E+00 0. -1.
</event>
<event>
 7    1  0.1884848E-013  0.7246157E+02  0.7816164E-02  0.1226708E+00
        -11   -1    0    0    0    0  0.00000000000E+00  0.00000000000E+00  0.45593999997E+02  0.45594000000E+02  0.51100000000E-03 0.  1.
         11   -1    0    0    0    0 -0.00000000000E+00 -0.00000000000E+00 -0.45593999997E+02  0.45594000000E+02  0.51100000000E-03 0. -1.
    9900012    2    1    2    0    0  0.13151053005E+02 -0.11283529081E+02 -0.71000557032E+01  0.72461574429E+02  0.70000005387E+02 0.  0.
        -12    1    1    2    0    0 -0.13151053005E+02  0.11283529081E+02  0.71000557032E+01  0.18726425571E+02  0.00000000000E+00 0.  1.
         11    1    3    3    0    0 -0.20692781788E+02 -0.94131064248E+01  0.28537488696E+01  0.22911605652E+02  0.51100000000E-03 0. -1.
        -11    1    3    3    0    0  0.19656276621E+02  0.71204536793E+01  0.10243677293E+02  0.23280957797E+02  0.51100000000E-03 0.  1.
         12    1    3    3    0    0  0.14187558171E+02 -0.89908763358E+01 -0.20197481866E+02  0.26269010980E+02  0.00000000000E+00 0. -1.
</event>
<event>
 7    1  0.1884848E-013  0.7246157E+02  0.7816164E-02  0.1226708E+00
        -11   -1    0    0    0    0  0.00000000000E+00  0.00000000000E+00  0.45593999997E+02  0.45594000000E+02  0.51100000000E-03 0.  1.
         11   -1    0    0    0    0 -0.00000000000E+00 -0.00000000000E+00 -0.45593999997E+02  0.45594000000E+02  0.51100000000E-03 0. -1.
    9900012    2    1    2    0    0 -0.11675625815E+02 -0.35215653969E+01 -0.14211173256E+02  0.72461571982E+02  0.70000002198E+02 0.  0.
        -12    1    1    2    0    0  0.11675625815E+02  0.35215653969E+01  0.14211173256E+02  0.18726428018E+02  0.00000000000E+00 0.  1.
         11    1    3    3    0    0 -0.19246588590E+02  0.16224543856E+02 -0.80365680411E+01  0.26424485271E+02  0.51100000000E-03 0. -1.
        -11    1    3    3    0    0  0.18072133924E+02 -0.22346337178E+02  0.64058697238E+01  0.29444795415E+02  0.51100000000E-03 0.  1.
        -12    1    3    3    0    0 -0.10501171148E+02  0.26002279250E+01 -0.12580474939E+02  0.16592291295E+02  0.00000000000E+00 0.  1.
</event>
<event>
 7    1  0.1884848E-013  0.7246146E+02  0.7816164E-02  0.1226708E+00
        -11   -1    0    0    0    0  0.00000000000E+00  0.00000000000E+00  0.45593999997E+02  0.45594000000E+02  0.51100000000E-03 0.  1.
         11   -1    0    0    0    0 -0.00000000000E+00 -0.00000000000E+00 -0.45593999997E+02  0.45594000000E+02  0.51100000000E-03 0. -1.
    9900012    2    1    2    0    0 -0.12951262305E+02  0.81126968346E+01 -0.10822768154E+02  0.72461458522E+02  0.69999854395E+02 0.  0.
        -12    1    1    2    0    0  0.12951262305E+02 -0.81126968346E+01  0.10822768154E+02  0.18726541478E+02  0.00000000000E+00 0.  1.
         11    1    3    3    0    0 -0.12641394206E+02  0.84403071010E+01  0.15621883292E+02  0.21796487544E+02  0.51100000000E-03 0. -1.
        -11    1    3    3    0    0 -0.65064763493E+01  0.20488056433E+02 -0.13339520973E+02  0.25298962645E+02  0.51100000000E-03 0.  1.
        -12    1    3    3    0    0  0.61966082500E+01 -0.20815666700E+02 -0.13105130474E+02  0.25366008332E+02  0.00000000000E+00 0.  1.
</event>
<event>
 7    1  0.1884848E-013  0.7246159E+02  0.7816164E-02  0.1226708E+00
        -11   -1    0    0    0    0  0.00000000000E+00  0.00000000000E+00  0.45593999997E+02  0.45594000000E+02  0.51100000000E-03 0. -1.
         11   -1    0    0    0    0 -0.00000000000E+00 -0.00000000000E+00 -0.45593999997E+02  0.45594000000E+02  0.51100000000E-03 0.  1.
    9900012    2    1    2    0    0  0.64384269608E+01  0.96727633839E+01  0.14685461033E+02  0.72461589266E+02  0.70000024715E+02 0.  0.
        -12    1    1    2    0    0 -0.64384269608E+01 -0.96727633839E+01 -0.14685461033E+02  0.18726410734E+02  0.00000000000E+00 0.  1.
         11    1    3    3    0    0  0.20120514311E+02  0.48388304646E+01  0.11902740739E+02  0.23873093929E+02  0.51100000000E-03 0.  1.
        -11    1    3    3    0    0 -0.22034851265E+02 -0.76677333892E+01  0.16226923315E+02  0.28419040204E+02  0.51100000000E-03 0. -1.
        -12    1    3    3    0    0  0.83527639147E+01  0.12501666309E+02 -0.13444203021E+02  0.20169455133E+02  0.00000000000E+00 0.  1.
</event>
<event>
 7    1  0.1884848E-013  0.7246154E+02  0.7816164E-02  0.1226708E+00
        -11   -1    0    0    0    0  0.00000000000E+00  0.00000000000E+00  0.45593999997E+02  0.45594000000E+02  0.51100000000E-03 0.  1.
         11   -1    0    0    0    0 -0.00000000000E+00 -0.00000000000E+00 -0.45593999997E+02  0.45594000000E+02  0.51100000000E-03 0. -1.
    9900012    2    1    2    0    0  0.12773404321E+02  0.51333953554E+01 -0.12695221585E+02  0.72461541260E+02  0.69999962178E+02 0.  0.
        -12    1    1    2    0    0 -0.12773404321E+02 -0.51333953554E+01  0.12695221585E+02  0.18726458740E+02  0.00000000000E+00 0.  1.
         11    1    3    3    0    0 -0.74572690962E+01  0.14896788276E+02 -0.14089675568E+02  0.21818435352E+02  0.51100000000E-03 0. -1.
        -11    1    3    3    0    0  0.33993771336E+02 -0.19172983800E+01  0.49522096070E+01  0.34406059103E+02  0.51100000000E-03 0.  1.
        -12    1    3    3    0    0 -0.13763097919E+02 -0.78460945409E+01 -0.35577556239E+01  0.16237046805E+02  0.00000000000E+00 0.  1.
</event>
<event>
 7    1  0.1884848E-013  0.7246158E+02  0.7816164E-02  0.1226708E+00
        -11   -1    0    0    0    0  0.00000000000E+00  0.00000000000E+00  0.45593999997E+02  0.45594000000E+02  0.51100000000E-03 0.  1.
         11   -1    0    0    0    0 -0.00000000000E+00 -0.00000000000E+00 -0.45593999997E+02  0.45594000000E+02  0.51100000000E-03 0. -1.
    9900012    2    1    2    0    0  0.10763242661E+02 -0.15081602455E+02  0.27160241188E+01  0.72461577165E+02  0.70000008950E+02 0.  0.
        -12    1    1    2    0    0 -0.10763242661E+02  0.15081602455E+02 -0.27160241188E+01  0.18726422835E+02  0.00000000000E+00 0.  1.
         11    1    3    3    0    0  0.30706414236E+02 -0.39361232575E+01  0.14621216607E+02  0.34236777256E+02  0.51100000000E-03 0.  1.
        -11    1    3    3    0    0 -0.26114903280E+02 -0.98374398309E+01 -0.14445798583E+02  0.31423629528E+02  0.51100000000E-03 0. -1.
         12    1    3    3    0    0  0.61717317046E+01 -0.13080393664E+01  0.25406060949E+01  0.68011703807E+01  0.00000000000E+00 0. -1.
</event>
<event>
 7    1  0.1884848E-013  0.7246162E+02  0.7816164E-02  0.1226708E+00
        -11   -1    0    0    0    0  0.00000000000E+00  0.00000000000E+00  0.45593999997E+02  0.45594000000E+02  0.51100000000E-03 0. -1.
         11   -1    0    0    0    0 -0.00000000000E+00 -0.00000000000E+00 -0.45593999997E+02  0.45594000000E+02  0.51100000000E-03 0.  1.
    9900012    2    1    2    0    0  0.37556927003E+01  0.17568136455E+02  0.52851357896E+01  0.72461620038E+02  0.70000064801E+02 0.  0.
        -12    1    1    2    0    0 -0.37556927003E+01 -0.17568136455E+02 -0.52851357896E+01  0.18726379962E+02  0.00000000000E+00 0.  1.
         11    1    3    3    0    0  0.24118352264E+02  0.22938286788E+02  0.11396070333E+02  0.35181391900E+02  0.51100000000E-03 0. -1.
        -11    1    3    3    0    0 -0.61672117689E+01 -0.35051758533E+00 -0.17398310881E+02  0.18462355899E+02  0.51100000000E-03 0.  1.
        -12    1    3    3    0    0 -0.14195447795E+02 -0.50196327479E+01  0.11287376337E+02  0.18817872239E+02  0.00000000000E+00 0.  1.
</event>
<event>
 7    1  0.1884848E-013  0.7246170E+02  0.7816164E-02  0.1226708E+00
        -11   -1    0    0    0    0  0.00000000000E+00  0.00000000000E+00  0.45593999997E+02  0.45594000000E+02  0.51100000000E-03 0. -1.
         11   -1    0    0    0    0 -0.00000000000E+00 -0.00000000000E+00 -0.45593999997E+02  0.45594000000E+02  0.51100000000E-03 0.  1.
    9900012    2    1    2    0    0 -0.68437118184E+01 -0.10780150188E+02  0.13697670868E+02  0.72461702535E+02  0.70000172268E+02 0.  0.
        -12    1    1    2    0    0  0.68437118184E+01  0.10780150188E+02 -0.13697670868E+02  0.18726297465E+02  0.00000000000E+00 0.  1.
         11    1    3    3    0    0 -0.32105990658E+02  0.36683084958E+01 -0.63546068007E+01  0.32933753980E+02  0.51100000000E-03 0. -1.
        -11    1    3    3    0    0  0.19220197934E+02 -0.48380518096E+01  0.45871542314E+01  0.20343665799E+02  0.51100000000E-03 0.  1.
         12    1    3    3    0    0  0.60420809054E+01 -0.96104068742E+01  0.15465123438E+02  0.19184282757E+02  0.00000000000E+00 0. -1.
</event>
<event>
 7    1  0.1884848E-013  0.7246154E+02  0.7816164E-02  0.1226708E+00
        -11   -1    0    0    0    0  0.00000000000E+00  0.00000000000E+00  0.45593999997E+02  0.45594000000E+02  0.51100000000E-03 0. -1.
         11   -1    0    0    0    0 -0.00000000000E+00 -0.00000000000E+00 -0.45593999997E+02  0.45594000000E+02  0.51100000000E-03 0.  1.
    9900012    2    1    2    0    0  0.16921975467E+02  0.76984151441E+01  0.22498080803E+01  0.72461535148E+02  0.69999954215E+02 0.  0.
        -12    1    1    2    0    0 -0.16921975467E+02 -0.76984151441E+01 -0.22498080803E+01  0.18726464852E+02  0.00000000000E+00 0.  1.
         11    1    3    3    0    0  0.72085218355E+01  0.11475452643E+02  0.74850258960E+01  0.15481421555E+02  0.51100000000E-03 0. -1.
        -11    1    3    3    0    0  0.14550645351E+02 -0.28160355847E+02 -0.66128580613E+00  0.31704324953E+02  0.51100000000E-03 0.  1.
        -12    1    3    3    0    0 -0.48371917193E+01  0.24383318347E+02 -0.45739320096E+01  0.25275788640E+02  0.00000000000E+00 0.  1.
</event>
<event>
 7    1  0.1884848E-013  0.7246157E+02  0.7816164E-02  0.1226708E+00
        -11   -1    0    0    0    0  0.00000000000E+00  0.00000000000E+00  0.45593999997E+02  0.45594000000E+02  0.51100000000E-03 0.  1.
         11   -1    0    0    0    0 -0.00000000000E+00 -0.00000000000E+00 -0.45593999997E+02  0.45594000000E+02  0.51100000000E-03 0. -1.
    9900012    2    1    2    0    0  0.12353009937E+02 -0.41958748148E+01 -0.13434167671E+02  0.72461572658E+02  0.70000003080E+02 0.  0.
        -12    1    1    2    0    0 -0.12353009937E+02  0.41958748148E+01  0.13434167671E+02  0.18726427342E+02  0.00000000000E+00 0.  1.
         11    1    3    3    0    0  0.14131185496E+02  0.12886835903E+02 -0.19093929111E+02  0.27024786258E+02  0.51100000000E-03 0. -1.
        -11    1    3    3    0    0 -0.40248526017E+01 -0.16437057237E+02  0.22657171354E+02  0.28279386541E+02  0.51100000000E-03 0.  1.
        -12    1    3    3    0    0  0.22466770423E+01 -0.64565348080E+00 -0.16997409915E+02  0.17157399860E+02  0.00000000000E+00 0.  1.
</event>
<event>
 7    1  0.1884848E-013  0.7246140E+02  0.7816164E-02  0.1226708E+00
        -11   -1    0    0    0    0  0.00000000000E+00  0.00000000000E+00  0.45593999997E+02  0.45594000000E+02  0.51100000000E-03 0. -1.
         11   -1    0    0    0    0 -0.00000000000E+00 -0.00000000000E+00 -0.45593999997E+02  0.45594000000E+02  0.51100000000E-03 0.  1.
    9900012    2    1    2    0    0  0.24396729150E+01 -0.98788610921E+01  0.15720738375E+02  0.72461400857E+02  0.69999779275E+02 0.  0.
        -12    1    1    2    0    0 -0.24396729150E+01  0.98788610921E+01 -0.15720738375E+02  0.18726599143E+02  0.00000000000E+00 0.  1.
         11    1    3    3    0    0 -0.91332870393E+01 -0.17246860668E+02  0.14559637997E+02  0.24348597370E+02  0.51100000000E-03 0. -1.
        -11    1    3    3    0    0  0.23232508785E+02  0.17013255145E+02  0.10126273442E+02  0.30524444780E+02  0.51100000000E-03 0.  1.
        -12    1    3    3    0    0 -0.11659548831E+02 -0.96452555691E+01 -0.89651730630E+01  0.17588358706E+02  0.00000000000E+00 0.  1.
</event>
<event>
 7    1  0.1884848E-013  0.7246157E+02  0.7816164E-02  0.1226708E+00
        -11   -1    0    0    0    0  0.00000000000E+00  0.00000000000E+00  0.45593999997E+02  0.45594000000E+02  0.51100000000E-03 0. -1.
         11   -1    0    0    0    0 -0.00000000000E+00 -0.00000000000E+00 -0.45593999997E+02  0.45594000000E+02  0.51100000000E-03 0.  1.
    9900012    2    1    2    0    0 -0.15763889236E+02 -0.41673855807E+01  0.92093459477E+01  0.72461565230E+02  0.69999993402E+02 0.  0.
        -12    1    1    2    0    0  0.15763889236E+02  0.41673855807E+01 -0.92093459477E+01  0.18726434770E+02  0.00000000000E+00 0.  1.
         11    1    3    3    0    0 -0.19974450583E+02 -0.16563268199E+01 -0.13334545535E+02  0.24073475020E+02  0.51100000000E-03 0. -1.
        -11    1    3    3    0    0  0.48719996186E+01  0.15894076315E+02  0.24775942929E+02  0.29836309934E+02  0.51100000000E-03 0.  1.
         12    1    3    3    0    0 -0.66143827176E+00 -0.18405135076E+02 -0.22320514464E+01  0.18551780276E+02  0.00000000000E+00 0. -1.
</event>
<event>
 7    1  0.1884848E-013  0.7246158E+02  0.7816164E-02  0.1226708E+00
        -11   -1    0    0    0    0  0.00000000000E+00  0.00000000000E+00  0.45593999997E+02  0.45594000000E+02  0.51100000000E-03 0.  1.
         11   -1    0    0    0    0 -0.00000000000E+00 -0.00000000000E+00 -0.45593999997E+02  0.45594000000E+02  0.51100000000E-03 0. -1.
    9900012    2    1    2    0    0  0.55473478218E+01 -0.17068021687E+02 -0.53468237379E+01  0.72461575989E+02  0.70000007418E+02 0.  0.
        -12    1    1    2    0    0 -0.55473478218E+01  0.17068021687E+02  0.53468237379E+01  0.18726424011E+02  0.00000000000E+00 0.  1.
         11    1    3    3    0    0  0.16550989836E+02 -0.54281497180E+01 -0.31122313117E+02  0.35665087242E+02  0.51100000000E-03 0. -1.
        -11    1    3    3    0    0 -0.12779656133E+02 -0.28559900582E+01  0.47309692092E+01  0.13923302769E+02  0.51100000000E-03 0.  1.
         12    1    3    3    0    0  0.17760141184E+01 -0.87838819109E+01  0.21044520170E+02  0.22873185978E+02  0.00000000000E+00 0. -1.
</event>
<event>
 7    1  0.1884848E-013  0.7246157E+02  0.7816164E-02  0.1226708E+00
        -11   -1    0    0    0    0  0.00000000000E+00  0.00000000000E+00  0.45593999997E+02  0.45594000000E+02  0.51100000000E-03 0. -1.
         11   -1    0    0    0    0 -0.00000000000E+00 -0.00000000000E+00 -0.45593999997E+02  0.45594000000E+02  0.51100000000E-03 0.  1.
    9900012    2    1    2    0    0 -0.16369254376E+02  0.85338364249E+01 -0.31464741595E+01  0.72461570746E+02  0.70000000588E+02 0.  0.
        -12    1    1    2    0    0  0.16369254376E+02 -0.85338364249E+01  0.31464741595E+01  0.18726429254E+02  0.00000000000E+00 0.  1.
         11    1    3    3    0    0  0.14198666667E+02  0.13898105566E+02  0.36675859942E+01  0.20204223834E+02  0.51100000000E-03 0. -1.
        -11    1    3    3    0    0 -0.28006448084E+02  0.54818710666E+01 -0.20107656712E+02  0.34910312278E+02  0.51100000000E-03 0.  1.
        -12    1    3    3    0    0 -0.25614729593E+01 -0.10846140208E+02  0.13293596559E+02  0.17347034634E+02  0.00000000000E+00 0.  1.
</event>
<event>
 7    1  0.1884848E-013  0.7246153E+02  0.7816164E-02  0.1226708E+00
        -11   -1    0    0    0    0  0.00000000000E+00  0.00000000000E+00  0.45593999997E+02  0.45594000000E+02  0.51100000000E-03 0.  1.
         11   -1    0    0    0    0 -0.00000000000E+00 -0.00000000000E+00 -0.45593999997E+02  0.45594000000E+02  0.51100000000E-03 0. -1.
    9900012    2    1    2    0    0  0.32880290162E+01  0.15903515493E+01 -0.18366829720E+02  0.72461527112E+02  0.69999943747E+02 0.  0.
        -12    1    1    2    0    0 -0.32880290162E+01 -0.15903515493E+01  0.18366829720E+02  0.18726472888E+02  0.00000000000E+00 0.  1.
         11    1    3    3    0    0  0.60034208475E+01  0.17343458149E+02 -0.48899801641E+01  0.18993380655E+02  0.51100000000E-03 0. -1.
        -11    1    3    3    0    0  0.11870781666E+02 -0.21584196546E+02  0.88450133808E+01  0.26173025424E+02  0.51100000000E-03 0.  1.
        -12    1    3    3    0    0 -0.14586173497E+02  0.58310899461E+01 -0.22321862937E+02  0.27295121033E+02  0.00000000000E+00 0.  1.
</event>
<event>
 8    1  0.1884848E-013  0.7246158E+02  0.7816164E-02  0.1226708E+00
        -11   -1    0    0    0    0  0.00000000000E+00  0.00000000000E+00  0.45593999997E+02  0.45594000000E+02  0.51100000000E-03 0.  1.
         11   -1    0    0    0    0 -0.00000000000E+00 -0.00000000000E+00 -0.45593999997E+02  0.45594000000E+02  0.51100000000E-03 0. -1.
    9900012    2    1    2    0    0 -0.13854968287E+02  0.33352135280E+01  0.12148874903E+02  0.72461575971E+02  0.70000007394E+02 0.  0.
        -24    2    3    3    0    0 -0.22100565441E+02 -0.73908852773E+01  0.77784820585E+01  0.58244002272E+02  0.52809079139E+02 0.  0.
        -12    1    1    2    0    0  0.13854968287E+02 -0.33352135280E+01 -0.12148874903E+02  0.18726424029E+02  0.00000000000E+00 0.  1.
         11    1    4    4    0    0 -0.34505572634E+02  0.10272754830E+02  0.29271514697E+01  0.36121077650E+02  0.51100000000E-03 0. -1.
        -11    1    3    3    0    0  0.82455971541E+01  0.10726098805E+02  0.43703928449E+01  0.14217573699E+02  0.51100000000E-03 0.  1.
        -12    1    4    4    0    0  0.12405007193E+02 -0.17663640108E+02  0.48513305887E+01  0.22122924621E+02  0.00000000000E+00 0.  1.
</event>
<event>
 7    1  0.1884848E-013  0.7246158E+02  0.7816164E-02  0.1226708E+00
        -11   -1    0    0    0    0  0.00000000000E+00  0.00000000000E+00  0.45593999997E+02  0.45594000000E+02  0.51100000000E-03 0.  1.
         11   -1    0    0    0    0 -0.00000000000E+00 -0.00000000000E+00 -0.45593999997E+02  0.45594000000E+02  0.51100000000E-03 0. -1.
    9900012    2    1    2    0    0 -0.71607751069E+01 -0.15547873849E+02 -0.75937981123E+01  0.72461578795E+02  0.70000011074E+02 0.  0.
        -12    1    1    2    0    0  0.71607751069E+01  0.15547873849E+02  0.75937981123E+01  0.18726421205E+02  0.00000000000E+00 0.  1.
         11    1    3    3    0    0 -0.14520628021E+02  0.92344090099E+01 -0.27347599035E+02  0.32311207361E+02  0.51100000000E-03 0. -1.
        -11    1    3    3    0    0 -0.12488656746E+01 -0.52673819626E+01  0.17945815360E+02  0.18744526332E+02  0.51100000000E-03 0.  1.
        -12    1    3    3    0    0  0.86087185887E+01 -0.19514900897E+02  0.18079855626E+01  0.21405845102E+02  0.00000000000E+00 0.  1.
</event>
<event>
 7    1  0.1884848E-013  0.7246159E+02  0.7816164E-02  0.1226708E+00
        -11   -1    0    0    0    0  0.00000000000E+00  0.00000000000E+00  0.45593999997E+02  0.45594000000E+02  0.51100000000E-03 0.  1.
         11   -1    0    0    0    0 -0.00000000000E+00 -0.00000000000E+00 -0.45593999997E+02  0.45594000000E+02  0.51100000000E-03 0. -1.
    9900012    2    1    2    0    0 -0.31766463685E+01 -0.17056619775E+02  0.70469166578E+01  0.72461590983E+02  0.70000026951E+02 0.  0.
        -12    1    1    2    0    0  0.31766463685E+01  0.17056619775E+02 -0.70469166578E+01  0.18726409017E+02  0.00000000000E+00 0.  1.
         11    1    3    3    0    0 -0.10723947810E+02 -0.97491725953E+01 -0.11369768626E+02  0.18420669418E+02  0.51100000000E-03 0. -1.
        -11    1    3    3    0    0 -0.42201531195E+01  0.20222765284E+02  0.51324103894E+01  0.21286417377E+02  0.51100000000E-03 0.  1.
        -12    1    3    3    0    0  0.11767454561E+02 -0.27530212464E+02  0.13284274895E+02  0.32754504188E+02  0.00000000000E+00 0.  1.
</event>
<event>
 7    1  0.1884848E-013  0.7246163E+02  0.7816164E-02  0.1226708E+00
        -11   -1    0    0    0    0  0.00000000000E+00  0.00000000000E+00  0.45593999997E+02  0.45594000000E+02  0.51100000000E-03 0. -1.
         11   -1    0    0    0    0 -0.00000000000E+00 -0.00000000000E+00 -0.45593999997E+02  0.45594000000E+02  0.51100000000E-03 0.  1.
    9900012    2    1    2    0    0  0.14059889788E+02  0.16536470808E+01 -0.12258135231E+02  0.72461630120E+02  0.70000077934E+02 0.  0.
        -12    1    1    2    0    0 -0.14059889788E+02 -0.16536470808E+01  0.12258135231E+02  0.18726369880E+02  0.00000000000E+00 0.  1.
         11    1    3    3    0    0 -0.19988739151E+02 -0.90064539640E+01 -0.10470627147E+02  0.24296088964E+02  0.51100000000E-03 0. -1.
        -11    1    3    3    0    0  0.32225593117E+02  0.70271947278E+01 -0.13597391094E+02  0.35675753143E+02  0.51100000000E-03 0.  1.
         12    1    3    3    0    0  0.18230358217E+01  0.36329063171E+01  0.11809883009E+02  0.12489788013E+02  0.00000000000E+00 0. -1.
</event>
<event>
 7    1  0.1884848E-013  0.7246159E+02  0.7816164E-02  0.1226708E+00
        -11   -1    0    0    0    0  0.00000000000E+00  0.00000000000E+00  0.45593999997E+02  0.45594000000E+02  0.51100000000E-03 0.  1.
         11   -1    0    0    0    0 -0.00000000000E+00 -0.00000000000E+00 -0.45593999997E+02  0.45594000000E+02  0.51100000000E-03 0. -1.
    9900012    2    1    2    0    0  0.14938555475E+02  0.39712431899E+01 -0.10571059123E+02  0.72461588087E+02  0.70000023179E+02 0.  0.
        -12    1    1    2    0    0 -0.14938555475E+02 -0.39712431899E+01  0.10571059123E+02  0.18726411913E+02  0.00000000000E+00 0.  1.
         11    1    3    3    0    0 -0.14236237122E+02 -0.17497065403E+02 -0.11554842199E+01  0.22586564350E+02  0.51100000000E-03 0. -1.
        -11    1    3    3    0    0  0.26712064103E+02  0.14870479885E+02 -0.20452436758E+02  0.36782709392E+02  0.51100000000E-03 0.  1.
        -12    1    3    3    0    0  0.24627284940E+01  0.65978287079E+01  0.11036861855E+02  0.13092314345E+02  0.00000000000E+00 0.  1.
</event>
<event>
 7    1  0.1884848E-013  0.7246159E+02  0.7816164E-02  0.1226708E+00
        -11   -1    0    0    0    0  0.00000000000E+00  0.00000000000E+00  0.45593999997E+02  0.45594000000E+02  0.51100000000E-03 0. -1.
         11   -1    0    0    0    0 -0.00000000000E+00 -0.00000000000E+00 -0.45593999997E+02  0.45594000000E+02  0.51100000000E-03 0.  1.
    9900012    2    1    2    0    0  0.29472619726E+01 -0.97179107583E+01  0.15733853028E+02  0.72461594212E+02  0.70000031157E+02 0.  0.
        -12    1    1    2    0    0 -0.29472619726E+01  0.97179107583E+01 -0.15733853028E+02  0.18726405788E+02  0.00000000000E+00 0.  1.
         11    1    3    3    0    0 -0.23938886879E+02  0.13857465587E+02  0.19646408807E+02  0.33927585189E+02  0.51100000000E-03 0. -1.
        -11    1    3    3    0    0  0.17916434688E+02 -0.21981751542E+02 -0.64386306854E+01  0.29080096254E+02  0.51100000000E-03 0.  1.
         12    1    3    3    0    0  0.89697141643E+01 -0.15936248025E+01  0.25260749059E+01  0.94539127683E+01  0.00000000000E+00 0. -1.
</event>
<event>
 7    1  0.1884848E-013  0.7246160E+02  0.7816164E-02  0.1226708E+00
        -11   -1    0    0    0    0  0.00000000000E+00  0.00000000000E+00  0.45593999997E+02  0.45594000000E+02  0.51100000000E-03 0.  1.
         11   -1    0    0    0    0 -0.00000000000E+00 -0.00000000000E+00 -0.45593999997E+02  0.45594000000E+02  0.51100000000E-03 0. -1.
    9900012    2    1    2    0    0 -0.15896305691E+02  0.31777964056E+01 -0.93748125231E+01  0.72461600601E+02  0.70000039480E+02 0.  0.
        -12    1    1    2    0    0  0.15896305691E+02 -0.31777964056E+01  0.93748125231E+01  0.18726399399E+02  0.00000000000E+00 0.  1.
         11    1    3    3    0    0 -0.25446073036E+02  0.45504487770E+01 -0.33398466606E+02  0.42233479479E+02  0.51100000000E-03 0. -1.
        -11    1    3    3    0    0  0.98960029520E+01  0.53972634346E+01  0.17527191022E+02  0.20838995954E+02  0.51100000000E-03 0.  1.
         12    1    3    3    0    0 -0.34623560711E+00 -0.67699158060E+01  0.64964630610E+01  0.93891251679E+01  0.00000000000E+00 0. -1.
</event>
<event>
 7    1  0.1884848E-013  0.7246158E+02  0.7816164E-02  0.1226708E+00
        -11   -1    0    0    0    0  0.00000000000E+00  0.00000000000E+00  0.45593999997E+02  0.45594000000E+02  0.51100000000E-03 0.  1.
         11   -1    0    0    0    0 -0.00000000000E+00 -0.00000000000E+00 -0.45593999997E+02  0.45594000000E+02  0.51100000000E-03 0. -1.
    9900012    2    1    2    0    0  0.87307488717E+01  0.13929522478E+02 -0.89677972998E+01  0.72461575869E+02  0.70000007262E+02 0.  0.
        -12    1    1    2    0    0 -0.87307488717E+01 -0.13929522478E+02  0.89677972998E+01  0.18726424131E+02  0.00000000000E+00 0.  1.
         11    1    3    3    0    0  0.48509854640E+01  0.38204872919E+01 -0.53759570054E+01  0.81871299674E+01  0.51100000000E-03 0. -1.
        -11    1    3    3    0    0  0.79339058970E+01  0.10014898157E+02  0.28864433539E+02  0.31565813337E+02  0.51100000000E-03 0.  1.
        -12    1    3    3    0    0 -0.40541424893E+01  0.94137029667E-01 -0.32456273833E+02  0.32708632564E+02  0.00000000000E+00 0.  1.
</event>
<event>
 7    1  0.1884848E-013  0.7246157E+02  0.7816164E-02  0.1226708E+00
        -11   -1    0    0    0    0  0.00000000000E+00  0.00000000000E+00  0.45593999997E+02  0.45594000000E+02  0.51100000000E-03 0. -1.
         11   -1    0    0    0    0 -0.00000000000E+00 -0.00000000000E+00 -0.45593999997E+02  0.45594000000E+02  0.51100000000E-03 0.  1.
    9900012    2    1    2    0    0  0.59617952479E+01 -0.17703542530E+02  0.13117500407E+01  0.72461571914E+02  0.70000002110E+02 0.  0.
        -12    1    1    2    0    0 -0.59617952479E+01  0.17703542530E+02 -0.13117500407E+01  0.18726428086E+02  0.00000000000E+00 0.  1.
         11    1    3    3    0    0 -0.11458472289E+02  0.31971067831E+01  0.53759867750E+01  0.13054474829E+02  0.51100000000E-03 0. -1.
        -11    1    3    3    0    0  0.21611494178E+02  0.12909124005E+02 -0.85911665908E+00  0.25188097286E+02  0.51100000000E-03 0.  1.
        -12    1    3    3    0    0 -0.41912266411E+01 -0.33809773318E+02 -0.32051200752E+01  0.34218999800E+02  0.00000000000E+00 0.  1.
</event>
<event>
 7    1  0.1884848E-013  0.7246152E+02  0.7816164E-02  0.1226708E+00
        -11   -1    0    0    0    0  0.00000000000E+00  0.00000000000E+00  0.45593999997E+02  0.45594000000E+02  0.51100000000E-03 0.  1.
         11   -1    0    0    0    0 -0.00000000000E+00 -0.00000000000E+00 -0.45593999997E+02  0.45594000000E+02  0.51100000000E-03 0. -1.
    9900012    2    1    2    0    0 -0.55617311017E+01  0.10248059574E+02 -0.14653519100E+02  0.72461516083E+02  0.69999929379E+02 0.  0.
        -12    1    1    2    0    0  0.55617311017E+01 -0.10248059574E+02  0.14653519100E+02  0.18726483917E+02  0.00000000000E+00 0.  1.
         11    1    3    3    0    0 -0.49463095601E+01  0.29393468316E+01 -0.42085352439E+02  0.42476848144E+02  0.51100000000E-03 0. -1.
        -11    1    3    3    0    0 -0.33499504423E+01  0.61125550881E+00  0.16690829187E+02  0.17034658214E+02  0.51100000000E-03 0.  1.
         12    1    3    3    0    0  0.27345289007E+01  0.66974572333E+01  0.10741004151E+02  0.12950009725E+02  0.00000000000E+00 0. -1.
</event>
<event>
 7    1  0.1884848E-013  0.7246154E+02  0.7816164E-02  0.1226708E+00
        -11   -1    0    0    0    0  0.00000000000E+00  0.00000000000E+00  0.45593999997E+02  0.45594000000E+02  0.51100000000E-03 0. -1.
         11   -1    0    0    0    0 -0.00000000000E+00 -0.00000000000E+00 -0.45593999997E+02  0.45594000000E+02  0.51100000000E-03 0.  1.
    9900012    2    1    2    0    0 -0.15392045576E+02  0.21994138399E+01  0.10436849782E+02  0.72461539533E+02  0.69999959927E+02 0.  0.
        -12    1    1    2    0    0  0.15392045576E+02 -0.21994138399E+01 -0.10436849782E+02  0.18726460467E+02  0.00000000000E+00 0.  1.
         11    1    3    3    0    0  0.18968390394E+02  0.83358947335E+01  0.15929430973E+02  0.26134914321E+02  0.51100000000E-03 0. -1.
        -11    1    3    3    0    0 -0.19383572382E+02 -0.61470861574E+01 -0.17735459653E+02  0.26982514262E+02  0.51100000000E-03 0.  1.
        -12    1    3    3    0    0 -0.14976863589E+02  0.10605263825E-01  0.12242878462E+02  0.19344110950E+02  0.00000000000E+00 0.  1.
</event>
<event>
 7    1  0.1884848E-013  0.7246156E+02  0.7816164E-02  0.1226708E+00
        -11   -1    0    0    0    0  0.00000000000E+00  0.00000000000E+00  0.45593999997E+02  0.45594000000E+02  0.51100000000E-03 0.  1.
         11   -1    0    0    0    0 -0.00000000000E+00 -0.00000000000E+00 -0.45593999997E+02  0.45594000000E+02  0.51100000000E-03 0. -1.
    9900012    2    1    2    0    0 -0.23548627084E+01  0.12792355030E+02 -0.13471815649E+02  0.72461560337E+02  0.69999987029E+02 0.  0.
        -12    1    1    2    0    0  0.23548627084E+01 -0.12792355030E+02  0.13471815649E+02  0.18726439663E+02  0.00000000000E+00 0.  1.
         11    1    3    3    0    0 -0.23841569669E+02 -0.26470697459E+01  0.42037923497E+01  0.24353629973E+02  0.51100000000E-03 0. -1.
        -11    1    3    3    0    0  0.27671408886E+02  0.20297833907E+02 -0.20232503723E+02  0.39837961020E+02  0.51100000000E-03 0.  1.
        -12    1    3    3    0    0 -0.61847019257E+01 -0.48584091314E+01  0.25568957251E+01  0.82699693437E+01  0.00000000000E+00 0.  1.
</event>
<event>
 7    1  0.1884848E-013  0.7246168E+02  0.7816164E-02  0.1226708E+00
        -11   -1    0    0    0    0  0.00000000000E+00  0.00000000000E+00  0.45593999997E+02  0.45594000000E+02  0.51100000000E-03 0.  1.
         11   -1    0    0    0    0 -0.00000000000E+00 -0.00000000000E+00 -0.45593999997E+02  0.45594000000E+02  0.51100000000E-03 0. -1.
    9900012    2    1    2    0    0 -0.29774878501E+01  0.12604174823E+02 -0.13525691067E+02  0.72461682271E+02  0.70000145870E+02 0.  0.
        -12    1    1    2    0    0  0.29774878501E+01 -0.12604174823E+02  0.13525691067E+02  0.18726317729E+02  0.00000000000E+00 0.  1.
         11    1    3    3    0    0 -0.12707945237E+02  0.28727277697E+02  0.83932555594E+01  0.32514536675E+02  0.51100000000E-03 0. -1.
        -11    1    3    3    0    0 -0.37948131122E+01 -0.17916992524E+02 -0.18168033733E+02  0.25797222285E+02  0.51100000000E-03 0.  1.
         12    1    3    3    0    0  0.13525270499E+02  0.17938896489E+01 -0.37509128934E+01  0.14149923310E+02  0.00000000000E+00 0. -1.
</event>
<event>
 7    1  0.1884848E-013  0.7246155E+02  0.7816164E-02  0.1226708E+00
        -11   -1    0    0    0    0  0.00000000000E+00  0.00000000000E+00  0.45593999997E+02  0.45594000000E+02  0.51100000000E-03 0.  1.
         11   -1    0    0    0    0 -0.00000000000E+00 -0.00000000000E+00 -0.45593999997E+02  0.45594000000E+02  0.51100000000E-03 0. -1.
    9900012    2    1    2    0    0  0.45224157804E+01  0.37352100124E+00 -0.18168331572E+02  0.72461547198E+02  0.69999969913E+02 0.  0.
        -12    1    1    2    0    0 -0.45224157804E+01 -0.37352100124E+00  0.18168331572E+02  0.18726452802E+02  0.00000000000E+00 0.  1.
         11    1    3    3    0    0  0.47882850783E+01  0.24425576146E+02 -0.27578856590E+02  0.37150097915E+02  0.51100000000E-03 0. -1.
        -11    1    3    3    0    0  0.25477766827E+01 -0.22603279247E+02  0.16129293276E+02  0.27884646323E+02  0.51100000000E-03 0.  1.
         12    1    3    3    0    0 -0.28136459806E+01 -0.14487758978E+01 -0.67187682575E+01  0.74268029599E+01  0.00000000000E+00 0. -1.
</event>
<event>
 7    1  0.1884848E-013  0.7246159E+02  0.7816164E-02  0.1226708E+00
        -11   -1    0    0    0    0  0.00000000000E+00  0.00000000000E+00  0.45593999997E+02  0.45594000000E+02  0.51100000000E-03 0. -1.
         11   -1    0    0    0    0 -0.00000000000E+00 -0.00000000000E+00 -0.45593999997E+02  0.45594000000E+02  0.51100000000E-03 0.  1.
    9900012    2    1    2    0    0  0.11285285310E+02 -0.68384298547E+01  0.13287454949E+02  0.72461594941E+02  0.70000032106E+02 0.  0.
        -12    1    1    2    0    0 -0.11285285310E+02  0.68384298547E+01 -0.13287454949E+02  0.18726405059E+02  0.00000000000E+00 0.  1.
         11    1    3    3    0    0  0.10496299377E+02  0.25293213397E+02  0.17996769782E+02  0.32768928383E+02  0.51100000000E-03 0. -1.
        -11    1    3    3    0    0 -0.66368077316E+01 -0.28590318235E+02 -0.86106311303E+01  0.30587521678E+02  0.51100000000E-03 0.  1.
        -12    1    3    3    0    0  0.74257936652E+01 -0.35413250159E+01  0.39013162975E+01  0.91051448796E+01  0.00000000000E+00 0.  1.
</event>
<event>
 7    1  0.1884848E-013  0.7246161E+02  0.7816164E-02  0.1226708E+00
        -11   -1    0    0    0    0  0.00000000000E+00  0.00000000000E+00  0.45593999997E+02  0.45594000000E+02  0.51100000000E-03 0.  1.
         11   -1    0    0    0    0 -0.00000000000E+00 -0.00000000000E+00 -0.45593999997E+02  0.45594000000E+02  0.51100000000E-03 0. -1.
    9900012    2    1    2    0    0 -0.60574571373E+01  0.13995041773E+02 -0.10868480316E+02  0.72461605644E+02  0.70000046049E+02 0.  0.
        -12    1    1    2    0    0  0.60574571373E+01 -0.13995041773E+02  0.10868480316E+02  0.18726394356E+02  0.00000000000E+00 0.  1.
         11    1    3    3    0    0 -0.13799850878E+02  0.31314901824E+02 -0.21027067277E+02  0.40164617750E+02  0.51100000000E-03 0. -1.
        -11    1    3    3    0    0  0.14692239519E+02 -0.77664360189E+01  0.11782898610E+02  0.20371944690E+02  0.51100000000E-03 0.  1.
         12    1    3    3    0    0 -0.69498457787E+01 -0.95534240317E+01 -0.16243116496E+01  0.11925043204E+02  0.00000000000E+00 0. -1.
</event>
<event>
 7    1  0.1884848E-013  0.7246159E+02  0.7816164E-02  0.1226708E+00
        -11   -1    0    0    0    0  0.00000000000E+00  0.00000000000E+00  0.45593999997E+02  0.45594000000E+02  0.51100000000E-03 0. -1.
         11   -1    0    0    0    0 -0.00000000000E+00 -0.00000000000E+00 -0.45593999997E+02  0.45594000000E+02  0.51100000000E-03 0.  1.
    9900012    2    1    2    0    0 -0.15090969150E+02  0.10597693871E+02  0.32603849574E+01  0.72461586159E+02  0.70000020667E+02 0.  0.
        -12    1    1    2    0    0  0.15090969150E+02 -0.10597693871E+02 -0.32603849574E+01  0.18726413841E+02  0.00000000000E+00 0.  1.
         11    1    3    3    0    0 -0.12184494927E+02  0.88603058581E+01  0.15564345726E+02  0.21661389490E+02  0.51100000000E-03 0. -1.
        -11    1    3    3    0    0  0.22659669371E+02 -0.34197636625E+01 -0.85062343274E+01  0.24444046764E+02  0.51100000000E-03 0.  1.
        -12    1    3    3    0    0 -0.25566143594E+02  0.51571516752E+01 -0.37977264407E+01  0.26356149905E+02  0.00000000000E+00 0.  1.
</event>
<event>
 7    1  0.1884848E-013  0.7246136E+02  0.7816164E-02  0.1226709E+00
        -11   -1    0    0    0    0  0.00000000000E+00  0.00000000000E+00  0.45593999997E+02  0.45594000000E+02  0.51100000000E-03 0.  1.
         11   -1    0    0    0    0 -0.00000000000E+00 -0.00000000000E+00 -0.45593999997E+02  0.45594000000E+02  0.51100000000E-03 0. -1.
    9900012    2    1    2    0    0 -0.82652192428E+01  0.16185076455E+02 -0.45184618307E+01  0.72461359984E+02  0.69999726031E+02 0.  0.
        -12    1    1    2    0    0  0.82652192428E+01 -0.16185076455E+02  0.45184618307E+01  0.18726640016E+02  0.00000000000E+00 0.  1.
         11    1    3    3    0    0 -0.24387965285E+02  0.15992564713E+02 -0.20079965785E+02  0.35408191186E+02  0.51100000000E-03 0. -1.
        -11    1    3    3    0    0  0.19644812861E+02  0.24241271242E+01 -0.11521123646E+01  0.19827315195E+02  0.51100000000E-03 0.  1.
         12    1    3    3    0    0 -0.35220668190E+01 -0.22316153824E+01  0.16713616319E+02  0.17225853603E+02  0.00000000000E+00 0. -1.
</event>
<event>
 7    1  0.1884848E-013  0.7246159E+02  0.7816164E-02  0.1226708E+00
        -11   -1    0    0    0    0  0.00000000000E+00  0.00000000000E+00  0.45593999997E+02  0.45594000000E+02  0.51100000000E-03 0.  1.
         11   -1    0    0    0    0 -0.00000000000E+00 -0.00000000000E+00 -0.45593999997E+02  0.45594000000E+02  0.51100000000E-03 0. -1.
    9900012    2    1    2    0    0 -0.14779538732E+02  0.10197993250E+02 -0.53145609578E+01  0.72461591118E+02  0.70000027126E+02 0.  0.
        -12    1    1    2    0    0  0.14779538732E+02 -0.10197993250E+02  0.53145609578E+01  0.18726408882E+02  0.00000000000E+00 0.  1.
         11    1    3    3    0    0 -0.21838177368E+01  0.40589214384E+01 -0.22196121248E+02  0.22669620682E+02  0.51100000000E-03 0. -1.
        -11    1    3    3    0    0  0.16081898914E+01  0.23298621798E+02  0.14257996780E+02  0.27362429074E+02  0.51100000000E-03 0.  1.
         12    1    3    3    0    0 -0.14203910886E+02 -0.17159549986E+02  0.26235635104E+01  0.22429541361E+02  0.00000000000E+00 0. -1.
</event>
<event>
 7    1  0.1884848E-013  0.7246158E+02  0.7816164E-02  0.1226708E+00
        -11   -1    0    0    0    0  0.00000000000E+00  0.00000000000E+00  0.45593999997E+02  0.45594000000E+02  0.51100000000E-03 0. -1.
         11   -1    0    0    0    0 -0.00000000000E+00 -0.00000000000E+00 -0.45593999997E+02  0.45594000000E+02  0.51100000000E-03 0.  1.
    9900012    2    1    2    0    0  0.95599584835E+01 -0.12691020954E+02  0.99108028481E+01  0.72461579302E+02  0.70000011734E+02 0.  0.
        -12    1    1    2    0    0 -0.95599584835E+01  0.12691020954E+02 -0.99108028481E+01  0.18726420698E+02  0.00000000000E+00 0.  1.
         11    1    3    3    0    0  0.15978872282E+02  0.20989454639E+02  0.19527398917E+02  0.32820738477E+02  0.51100000000E-03 0. -1.
        -11    1    3    3    0    0 -0.20400486715E+01 -0.14862423138E+02  0.45570665026E+01  0.15678656686E+02  0.51100000000E-03 0.  1.
         12    1    3    3    0    0 -0.43788651273E+01 -0.18818052455E+02 -0.14173662572E+02  0.23962184139E+02  0.00000000000E+00 0. -1.
</event>
<event>
 7    1  0.1884848E-013  0.7246159E+02  0.7816164E-02  0.1226708E+00
        -11   -1    0    0    0    0  0.00000000000E+00  0.00000000000E+00  0.45593999997E+02  0.45594000000E+02  0.51100000000E-03 0.  1.
         11   -1    0    0    0    0 -0.00000000000E+00 -0.00000000000E+00 -0.45593999997E+02  0.45594000000E+02  0.51100000000E-03 0. -1.
    9900012    2    1    2    0    0  0.72979401660E+00 -0.62397475869E+01 -0.17641182049E+02  0.72461592087E+02  0.70000028389E+02 0.  0.
        -12    1    1    2    0    0 -0.72979401660E+00  0.62397475869E+01  0.17641182049E+02  0.18726407913E+02  0.00000000000E+00 0.  1.
         11    1    3    3    0    0  0.73521027498E+01  0.26070824626E+02  0.68474854558E+01  0.27939745326E+02  0.51100000000E-03 0. -1.
        -11    1    3    3    0    0 -0.47217105484E+00 -0.11117986237E+02  0.55667925598E+00  0.11141923331E+02  0.51100000000E-03 0.  1.
         12    1    3    3    0    0 -0.61501376784E+01 -0.21192585977E+02 -0.25045346760E+02  0.33379923430E+02  0.00000000000E+00 0. -1.
</event>
<event>
 7    1  0.1884848E-013  0.7246159E+02  0.7816164E-02  0.1226708E+00
        -11   -1    0    0    0    0  0.00000000000E+00  0.00000000000E+00  0.45593999997E+02  0.45594000000E+02  0.51100000000E-03 0.  1.
         11   -1    0    0    0    0 -0.00000000000E+00 -0.00000000000E+00 -0.45593999997E+02  0.45594000000E+02  0.51100000000E-03 0. -1.
    9900012    2    1    2    0    0 -0.16412614288E+02  0.41842767557E+01 -0.79872685068E+01  0.72461587158E+02  0.70000021968E+02 0.  0.
        -12    1    1    2    0    0  0.16412614288E+02 -0.41842767557E+01  0.79872685068E+01  0.18726412842E+02  0.00000000000E+00 0.  1.
         11    1    3    3    0    0  0.84272728481E+01  0.18938317891E+02 -0.15710450765E+02  0.26009557392E+02  0.51100000000E-03 0. -1.
        -11    1    3    3    0    0 -0.21741313947E+02  0.63777070345E+01  0.10394315441E+02  0.24927929576E+02  0.51100000000E-03 0.  1.
         12    1    3    3    0    0 -0.30985731889E+01 -0.21131748170E+02 -0.26711331829E+01  0.21524100190E+02  0.00000000000E+00 0. -1.
</event>
<event>
 7    1  0.1884848E-013  0.7246157E+02  0.7816164E-02  0.1226708E+00
        -11   -1    0    0    0    0  0.00000000000E+00  0.00000000000E+00  0.45593999997E+02  0.45594000000E+02  0.51100000000E-03 0. -1.
         11   -1    0    0    0    0 -0.00000000000E+00 -0.00000000000E+00 -0.45593999997E+02  0.45594000000E+02  0.51100000000E-03 0.  1.
    9900012    2    1    2    0    0  0.13745465075E+02  0.44911613833E+01  0.11898362354E+02  0.72461565011E+02  0.69999993117E+02 0.  0.
        -12    1    1    2    0    0 -0.13745465075E+02 -0.44911613833E+01 -0.11898362354E+02  0.18726434989E+02  0.00000000000E+00 0.  1.
         11    1    3    3    0    0  0.15354929702E+02  0.94236338177E+00  0.27901066221E+02  0.31861126964E+02  0.51100000000E-03 0. -1.
        -11    1    3    3    0    0 -0.16431003758E+02  0.91720062734E+01 -0.16073398680E+02  0.24747883323E+02  0.51100000000E-03 0.  1.
         12    1    3    3    0    0  0.14821539131E+02 -0.56232082718E+01  0.70694812835E-01  0.15852554723E+02  0.00000000000E+00 0. -1.
</event>
<event>
 7    1  0.1884848E-013  0.7246161E+02  0.7816164E-02  0.1226708E+00
        -11   -1    0    0    0    0  0.00000000000E+00  0.00000000000E+00  0.45593999997E+02  0.45594000000E+02  0.51100000000E-03 0. -1.
         11   -1    0    0    0    0 -0.00000000000E+00 -0.00000000000E+00 -0.45593999997E+02  0.45594000000E+02  0.51100000000E-03 0.  1.
    9900012    2    1    2    0    0 -0.80108013390E+01 -0.22961119516E+01  0.16769986717E+02  0.72461614266E+02  0.70000057281E+02 0.  0.
        -12    1    1    2    0    0  0.80108013390E+01  0.22961119516E+01 -0.16769986717E+02  0.18726385734E+02  0.00000000000E+00 0.  1.
         11    1    3    3    0    0  0.76535570263E+01  0.11433892215E+02  0.13904079741E+02  0.19561039340E+02  0.51100000000E-03 0. -1.
        -11    1    3    3    0    0  0.11218914992E+02 -0.20969937517E+02  0.69132573669E+01  0.24766821773E+02  0.51100000000E-03 0.  1.
        -12    1    3    3    0    0 -0.26883273357E+02  0.72399333496E+01 -0.40473503912E+01  0.28133753153E+02  0.00000000000E+00 0.  1.
</event>
<event>
 7    1  0.1884848E-013  0.7246155E+02  0.7816164E-02  0.1226708E+00
        -11   -1    0    0    0    0  0.00000000000E+00  0.00000000000E+00  0.45593999997E+02  0.45594000000E+02  0.51100000000E-03 0. -1.
         11   -1    0    0    0    0 -0.00000000000E+00 -0.00000000000E+00 -0.45593999997E+02  0.45594000000E+02  0.51100000000E-03 0.  1.
    9900012    2    1    2    0    0  0.99925492651E+01  0.96375774899E+00  0.15808231705E+02  0.72461546533E+02  0.69999969047E+02 0.  0.
        -12    1    1    2    0    0 -0.99925492651E+01 -0.96375774899E+00 -0.15808231705E+02  0.18726453467E+02  0.00000000000E+00 0.  1.
         11    1    3    3    0    0 -0.95699672560E+01 -0.11310646394E+01  0.32808566701E+02  0.34194526312E+02  0.51100000000E-03 0. -1.
        -11    1    3    3    0    0  0.77613805734E+01  0.13774552154E+02 -0.14543877801E+02  0.21482590561E+02  0.51100000000E-03 0.  1.
        -12    1    3    3    0    0  0.11801135948E+02 -0.11679729766E+02 -0.24564571954E+01  0.16784429660E+02  0.00000000000E+00 0.  1.
</event>
<event>
 7    1  0.1884848E-013  0.7246158E+02  0.7816164E-02  0.1226708E+00
        -11   -1    0    0    0    0  0.00000000000E+00  0.00000000000E+00  0.45593999997E+02  0.45594000000E+02  0.51100000000E-03 0. -1.
         11   -1    0    0    0    0 -0.00000000000E+00 -0.00000000000E+00 -0.45593999997E+02  0.45594000000E+02  0.51100000000E-03 0.  1.
    9900012    2    1    2    0    0  0.16114030161E+02  0.69967225777E+01  0.64855722824E+01  0.72461581691E+02  0.70000014847E+02 0.  0.
        -12    1    1    2    0    0 -0.16114030161E+02 -0.69967225777E+01 -0.64855722824E+01  0.18726418309E+02  0.00000000000E+00 0.  1.
         11    1    3    3    0    0  0.36003663992E+02 -0.67958111727E+01  0.34410500141E-01  0.36639433056E+02  0.51100000000E-03 0. -1.
        -11    1    3    3    0    0 -0.16975178870E+02  0.12172633872E+02 -0.69484701378E+01  0.22013880861E+02  0.51100000000E-03 0.  1.
         12    1    3    3    0    0 -0.29144549613E+01  0.16198998784E+01  0.13399631920E+02  0.13808267774E+02  0.00000000000E+00 0. -1.
</event>
<event>
 7    1  0.1884848E-013  0.7246160E+02  0.7816164E-02  0.1226708E+00
        -11   -1    0    0    0    0  0.00000000000E+00  0.00000000000E+00  0.45593999997E+02  0.45594000000E+02  0.51100000000E-03 0.  1.
         11   -1    0    0    0    0 -0.00000000000E+00 -0.00000000000E+00 -0.45593999997E+02  0.45594000000E+02  0.51100000000E-03 0. -1.
    9900012    2    1    2    0    0 -0.71122610376E+01 -0.58686305020E+01 -0.16298866839E+02  0.72461597749E+02  0.70000035765E+02 0.  0.
        -12    1    1    2    0    0  0.71122610376E+01  0.58686305020E+01  0.16298866839E+02  0.18726402251E+02  0.00000000000E+00 0.  1.
         11    1    3    3    0    0 -0.18068711463E+02 -0.19240643006E+02 -0.35646702104E+01  0.26634330312E+02  0.51100000000E-03 0. -1.
        -11    1    3    3    0    0  0.14431290740E+02  0.16411842754E+02  0.89802556460E+01  0.23627435890E+02  0.51100000000E-03 0.  1.
         12    1    3    3    0    0 -0.34748403149E+01 -0.30398302493E+01 -0.21714452274E+02  0.22199831547E+02  0.00000000000E+00 0. -1.
</event>
<event>
 7    1  0.1884848E-013  0.7246159E+02  0.7816164E-02  0.1226708E+00
        -11   -1    0    0    0    0  0.00000000000E+00  0.00000000000E+00  0.45593999997E+02  0.45594000000E+02  0.51100000000E-03 0. -1.
         11   -1    0    0    0    0 -0.00000000000E+00 -0.00000000000E+00 -0.45593999997E+02  0.45594000000E+02  0.51100000000E-03 0.  1.
    9900012    2    1    2    0    0  0.15496919092E+02 -0.93176529179E+01 -0.48688019426E+01  0.72461591119E+02  0.70000027127E+02 0.  0.
        -12    1    1    2    0    0 -0.15496919092E+02  0.93176529179E+01  0.48688019426E+01  0.18726408881E+02  0.00000000000E+00 0.  1.
         11    1    3    3    0    0  0.24365025142E+02 -0.42145050150E+00 -0.26648831206E+01  0.24513948540E+02  0.51100000000E-03 0. -1.
        -11    1    3    3    0    0 -0.17298591678E+00 -0.26770242894E+02  0.41268737381E+01  0.27087024861E+02  0.51100000000E-03 0.  1.
        -12    1    3    3    0    0 -0.86951201333E+01  0.17874040478E+02 -0.63307925601E+01  0.20860617718E+02  0.00000000000E+00 0.  1.
</event>
<event>
 7    1  0.1884848E-013  0.7246157E+02  0.7816164E-02  0.1226708E+00
        -11   -1    0    0    0    0  0.00000000000E+00  0.00000000000E+00  0.45593999997E+02  0.45594000000E+02  0.51100000000E-03 0. -1.
         11   -1    0    0    0    0 -0.00000000000E+00 -0.00000000000E+00 -0.45593999997E+02  0.45594000000E+02  0.51100000000E-03 0.  1.
    9900012    2    1    2    0    0 -0.14148743089E+02  0.14646948560E+01  0.12179768834E+02  0.72461573996E+02  0.70000004823E+02 0.  0.
        -12    1    1    2    0    0  0.14148743089E+02 -0.14646948560E+01 -0.12179768834E+02  0.18726426004E+02  0.00000000000E+00 0.  1.
         11    1    3    3    0    0 -0.12102949021E+02  0.18282635578E+02  0.30004005808E+02  0.37161492213E+02  0.51100000000E-03 0. -1.
        -11    1    3    3    0    0  0.72405291296E+01 -0.18829985462E+02 -0.82037270924E+01  0.21778309232E+02  0.51100000000E-03 0.  1.
         12    1    3    3    0    0 -0.92863231970E+01  0.20120447399E+01 -0.96205098812E+01  0.13521772551E+02  0.00000000000E+00 0. -1.
</event>
<event>
 8    1  0.1884848E-013  0.7246159E+02  0.7816164E-02  0.1226708E+00
        -11   -1    0    0    0    0  0.00000000000E+00  0.00000000000E+00  0.45593999997E+02  0.45594000000E+02  0.51100000000E-03 0. -1.
         11   -1    0    0    0    0 -0.00000000000E+00 -0.00000000000E+00 -0.45593999997E+02  0.45594000000E+02  0.51100000000E-03 0.  1.
    9900012    2    1    2    0    0  0.45171177310E+01  0.14356436278E+02  0.11143017197E+02  0.72461589574E+02  0.70000025115E+02 0.  0.
         24    2    3    3    0    0  0.89475132284E+01  0.21427155688E+02 -0.33105882860E+01  0.55772365836E+02  0.50600551403E+02 0.  0.
        -12    1    1    2    0    0 -0.45171177310E+01 -0.14356436278E+02 -0.11143017197E+02  0.18726410426E+02  0.00000000000E+00 0.  1.
         11    1    3    3    0    0 -0.44303954974E+01 -0.70707194101E+01  0.14453605483E+02  0.16689223738E+02  0.51100000000E-03 0. -1.
        -11    1    4    4    0    0  0.29900135619E+02  0.86603441923E+01 -0.13486125266E+01  0.31158280241E+02  0.51100000000E-03 0.  1.
         12    1    4    4    0    0 -0.20952622391E+02  0.12766811496E+02 -0.19619757594E+01  0.24614085595E+02  0.00000000000E+00 0. -1.
</event>
<event>
 7    1  0.1884848E-013  0.7246158E+02  0.7816164E-02  0.1226708E+00
        -11   -1    0    0    0    0  0.00000000000E+00  0.00000000000E+00  0.45593999997E+02  0.45594000000E+02  0.51100000000E-03 0. -1.
         11   -1    0    0    0    0 -0.00000000000E+00 -0.00000000000E+00 -0.45593999997E+02  0.45594000000E+02  0.51100000000E-03 0.  1.
    9900012    2    1    2    0    0  0.10482199934E+02  0.11951853694E+02  0.98972436938E+01  0.72461581364E+02  0.70000014421E+02 0.  0.
        -12    1    1    2    0    0 -0.10482199934E+02 -0.11951853694E+02 -0.98972436938E+01  0.18726418636E+02  0.00000000000E+00 0.  1.
         11    1    3    3    0    0  0.14735805347E+02  0.16830310055E+02  0.92662180861E+01  0.24212932364E+02  0.51100000000E-03 0. -1.
        -11    1    3    3    0    0  0.43845664788E+01 -0.25450337968E+02 -0.12659073647E+01  0.25856269020E+02  0.51100000000E-03 0.  1.
         12    1    3    3    0    0 -0.86381718920E+01  0.20571881607E+02  0.18969329724E+01  0.22392379981E+02  0.00000000000E+00 0. -1.
</event>
<event>
 7    1  0.1884848E-013  0.7246167E+02  0.7816164E-02  0.1226708E+00
        -11   -1    0    0    0    0  0.00000000000E+00  0.00000000000E+00  0.45593999997E+02  0.45594000000E+02  0.51100000000E-03 0.  1.
         11   -1    0    0    0    0 -0.00000000000E+00 -0.00000000000E+00 -0.45593999997E+02  0.45594000000E+02  0.51100000000E-03 0. -1.
    9900012    2    1    2    0    0  0.14278269203E+02 -0.96107800135E+01 -0.73782965980E+01  0.72461672955E+02  0.70000133734E+02 0.  0.
        -12    1    1    2    0    0 -0.14278269203E+02  0.96107800135E+01  0.73782965980E+01  0.18726327045E+02  0.00000000000E+00 0.  1.
         11    1    3    3    0    0 -0.14866925449E+02  0.33435190560E+00 -0.12701928143E+01  0.14924833452E+02  0.51100000000E-03 0. -1.
        -11    1    3    3    0    0  0.21680155468E+02  0.13271704794E+01 -0.25752528173E+02  0.33689512169E+02  0.51100000000E-03 0.  1.
        -12    1    3    3    0    0  0.74650391844E+01 -0.11272302398E+02  0.19644424390E+02  0.23847327334E+02  0.00000000000E+00 0.  1.
</event>
<event>
 7    1  0.1884848E-013  0.7246158E+02  0.7816164E-02  0.1226708E+00
        -11   -1    0    0    0    0  0.00000000000E+00  0.00000000000E+00  0.45593999997E+02  0.45594000000E+02  0.51100000000E-03 0.  1.
         11   -1    0    0    0    0 -0.00000000000E+00 -0.00000000000E+00 -0.45593999997E+02  0.45594000000E+02  0.51100000000E-03 0. -1.
    9900012    2    1    2    0    0 -0.12024423317E+02 -0.10659997378E+02  0.96154268837E+01  0.72461581913E+02  0.70000015136E+02 0.  0.
        -12    1    1    2    0    0  0.12024423317E+02  0.10659997378E+02 -0.96154268837E+01  0.18726418087E+02  0.00000000000E+00 0.  1.
         11    1    3    3    0    0 -0.35959119246E+02 -0.22181260187E+02  0.12354358340E+02  0.44019276808E+02  0.51100000000E-03 0. -1.
        -11    1    3    3    0    0  0.17163180607E+02  0.40792635301E+01 -0.45508304883E+01  0.18218814942E+02  0.51100000000E-03 0.  1.
         12    1    3    3    0    0  0.67715153215E+01  0.74419992796E+01  0.18118990319E+01  0.10223490164E+02  0.00000000000E+00 0. -1.
</event>
<event>
 7    1  0.1884848E-013  0.7246155E+02  0.7816164E-02  0.1226708E+00
        -11   -1    0    0    0    0  0.00000000000E+00  0.00000000000E+00  0.45593999997E+02  0.45594000000E+02  0.51100000000E-03 0. -1.
         11   -1    0    0    0    0 -0.00000000000E+00 -0.00000000000E+00 -0.45593999997E+02  0.45594000000E+02  0.51100000000E-03 0.  1.
    9900012    2    1    2    0    0 -0.10522408589E+02 -0.14694928788E+02  0.49007940359E+01  0.72461553547E+02  0.69999978183E+02 0.  0.
        -12    1    1    2    0    0  0.10522408589E+02  0.14694928788E+02 -0.49007940359E+01  0.18726446453E+02  0.00000000000E+00 0.  1.
         11    1    3    3    0    0 -0.31302965383E+02  0.38165383420E+01 -0.11205391607E+02  0.33466437038E+02  0.51100000000E-03 0. -1.
        -11    1    3    3    0    0  0.10045218535E+01 -0.69070492494E+01 -0.43858001606E+01  0.82432782797E+01  0.51100000000E-03 0.  1.
         12    1    3    3    0    0  0.19776034941E+02 -0.11604417880E+02  0.20491985803E+02  0.30751838229E+02  0.00000000000E+00 0. -1.
</event>
<event>
 7    1  0.1884848E-013  0.7246161E+02  0.7816164E-02  0.1226708E+00
        -11   -1    0    0    0    0  0.00000000000E+00  0.00000000000E+00  0.45593999997E+02  0.45594000000E+02  0.51100000000E-03 0. -1.
         11   -1    0    0    0    0 -0.00000000000E+00 -0.00000000000E+00 -0.45593999997E+02  0.45594000000E+02  0.51100000000E-03 0.  1.
    9900012    2    1    2    0    0  0.16590956484E+02  0.84791690589E+01 -0.18766151615E+01  0.72461606075E+02  0.70000046611E+02 0.  0.
        -12    1    1    2    0    0 -0.16590956484E+02 -0.84791690589E+01  0.18766151615E+01  0.18726393925E+02  0.00000000000E+00 0.  1.
         11    1    3    3    0    0  0.17632508518E+02  0.58219323277E+01  0.28230109828E+02  0.33789633822E+02  0.51100000000E-03 0. -1.
        -11    1    3    3    0    0  0.85140861669E+01  0.82049073703E+01 -0.90417720243E+01  0.14885019644E+02  0.51100000000E-03 0.  1.
         12    1    3    3    0    0 -0.95556382008E+01 -0.55476706391E+01 -0.21064952966E+02  0.23786952608E+02  0.00000000000E+00 0. -1.
</event>
<event>
 7    1  0.1884848E-013  0.7246152E+02  0.7816164E-02  0.1226708E+00
        -11   -1    0    0    0    0  0.00000000000E+00  0.00000000000E+00  0.45593999997E+02  0.45594000000E+02  0.51100000000E-03 0. -1.
         11   -1    0    0    0    0 -0.00000000000E+00 -0.00000000000E+00 -0.45593999997E+02  0.45594000000E+02  0.51100000000E-03 0.  1.
    9900012    2    1    2    0    0 -0.53898685885E+01 -0.17226949603E+02 -0.49862234212E+01  0.72461524090E+02  0.69999939810E+02 0.  0.
        -12    1    1    2    0    0  0.53898685885E+01  0.17226949603E+02  0.49862234212E+01  0.18726475910E+02  0.00000000000E+00 0.  1.
         11    1    3    3    0    0  0.39632964324E+01  0.84628717572E+01  0.17183858069E+02  0.19560493230E+02  0.51100000000E-03 0. -1.
        -11    1    3    3    0    0  0.10649278231E+02 -0.25089168084E+02 -0.17375942052E+02  0.32323317349E+02  0.51100000000E-03 0.  1.
        -12    1    3    3    0    0 -0.20002443252E+02 -0.60065327550E+00 -0.47941394385E+01  0.20577713511E+02  0.00000000000E+00 0.  1.
</event>
<event>
 7    1  0.1884848E-013  0.7246159E+02  0.7816164E-02  0.1226708E+00
        -11   -1    0    0    0    0  0.00000000000E+00  0.00000000000E+00  0.45593999997E+02  0.45594000000E+02  0.51100000000E-03 0.  1.
         11   -1    0    0    0    0 -0.00000000000E+00 -0.00000000000E+00 -0.45593999997E+02  0.45594000000E+02  0.51100000000E-03 0. -1.
    9900012    2    1    2    0    0  0.12867516835E+02 -0.12588329432E+02 -0.51613243043E+01  0.72461593619E+02  0.70000030385E+02 0.  0.
        -12    1    1    2    0    0 -0.12867516835E+02  0.12588329432E+02  0.51613243043E+01  0.18726406381E+02  0.00000000000E+00 0.  1.
         11    1    3    3    0    0  0.99689148851E+01 -0.31547485760E+02 -0.12057789344E+02  0.35213824074E+02  0.51100000000E-03 0. -1.
        -11    1    3    3    0    0  0.66850700186E+01 -0.12304951684E+01  0.13958900470E+02  0.15525951891E+02  0.51100000000E-03 0.  1.
         12    1    3    3    0    0 -0.37864680692E+01  0.20189651497E+02 -0.70624354307E+01  0.21721817655E+02  0.00000000000E+00 0. -1.
</event>
<event>
 7    1  0.1884848E-013  0.7246160E+02  0.7816164E-02  0.1226708E+00
        -11   -1    0    0    0    0  0.00000000000E+00  0.00000000000E+00  0.45593999997E+02  0.45594000000E+02  0.51100000000E-03 0.  1.
         11   -1    0    0    0    0 -0.00000000000E+00 -0.00000000000E+00 -0.45593999997E+02  0.45594000000E+02  0.51100000000E-03 0. -1.
    9900012    2    1    2    0    0  0.18145061923E+02 -0.11859012967E+00 -0.46282676783E+01  0.72461596247E+02  0.70000033808E+02 0.  0.
        -12    1    1    2    0    0 -0.18145061923E+02  0.11859012967E+00  0.46282676783E+01  0.18726403753E+02  0.00000000000E+00 0.  1.
         11    1    3    3    0    0  0.33841875367E+02  0.97524344929E+01 -0.20313991534E+02  0.40657603953E+02  0.51100000000E-03 0. -1.
        -11    1    3    3    0    0 -0.18235096379E+02 -0.22424059317E+01  0.62474380138E+01  0.19405607600E+02  0.51100000000E-03 0.  1.
        -12    1    3    3    0    0  0.25382829355E+01 -0.76286186909E+01  0.94382858414E+01  0.12398384694E+02  0.00000000000E+00 0.  1.
</event>
<event>
 7    1  0.1884848E-013  0.7246160E+02  0.7816164E-02  0.1226708E+00
        -11   -1    0    0    0    0  0.00000000000E+00  0.00000000000E+00  0.45593999997E+02  0.45594000000E+02  0.51100000000E-03 0. -1.
         11   -1    0    0    0    0 -0.00000000000E+00 -0.00000000000E+00 -0.45593999997E+02  0.45594000000E+02  0.51100000000E-03 0.  1.
    9900012    2    1    2    0    0  0.19966025984E+01  0.42198830952E+01  0.18135167935E+02  0.72461597481E+02  0.70000035415E+02 0.  0.
        -12    1    1    2    0    0 -0.19966025984E+01 -0.42198830952E+01 -0.18135167935E+02  0.18726402519E+02  0.00000000000E+00 0.  1.
         11    1    3    3    0    0 -0.25901770533E+02 -0.55474581049E+01  0.46326632261E+01  0.26891217469E+02  0.51100000000E-03 0. -1.
        -11    1    3    3    0    0  0.13588472646E+02 -0.74914295436E+01 -0.52096670815E+01  0.16367917913E+02  0.51100000000E-03 0.  1.
         12    1    3    3    0    0  0.14309900486E+02  0.17258770744E+02  0.18712171791E+02  0.29202462099E+02  0.00000000000E+00 0. -1.
</event>
<event>
 7    1  0.1884848E-013  0.7246154E+02  0.7816164E-02  0.1226708E+00
        -11   -1    0    0    0    0  0.00000000000E+00  0.00000000000E+00  0.45593999997E+02  0.45594000000E+02  0.51100000000E-03 0.  1.
         11   -1    0    0    0    0 -0.00000000000E+00 -0.00000000000E+00 -0.45593999997E+02  0.45594000000E+02  0.51100000000E-03 0. -1.
    9900012    2    1    2    0    0 -0.13909420165E+02  0.31491376826E+00 -0.12534318869E+02  0.72461540390E+02  0.69999961044E+02 0.  0.
        -12    1    1    2    0    0  0.13909420165E+02 -0.31491376826E+00  0.12534318869E+02  0.18726459610E+02  0.00000000000E+00 0.  1.
         11    1    3    3    0    0  0.40422435149E+01 -0.82531656929E+01 -0.10738706000E+02  0.14134153084E+02  0.51100000000E-03 0. -1.
        -11    1    3    3    0    0 -0.20668682987E+02  0.17066575099E+02  0.20868721500E+02  0.33970074761E+02  0.51100000000E-03 0.  1.
        -12    1    3    3    0    0  0.27170193064E+01 -0.84984956376E+01 -0.22664334368E+02  0.24357312544E+02  0.00000000000E+00 0.  1.
</event>
<event>
 7    1  0.1884848E-013  0.7246210E+02  0.7816164E-02  0.1226707E+00
        -11   -1    0    0    0    0  0.00000000000E+00  0.00000000000E+00  0.45593999997E+02  0.45594000000E+02  0.51100000000E-03 0.  1.
         11   -1    0    0    0    0 -0.00000000000E+00 -0.00000000000E+00 -0.45593999997E+02  0.45594000000E+02  0.51100000000E-03 0. -1.
    9900012    2    1    2    0    0  0.89377386539E+00  0.18413426282E+02 -0.32872682562E+01  0.72462102645E+02  0.70000693483E+02 0.  0.
        -12    1    1    2    0    0 -0.89377386539E+00 -0.18413426282E+02  0.32872682562E+01  0.18725897355E+02  0.00000000000E+00 0.  1.
         11    1    3    3    0    0 -0.28189489552E+02  0.93052092182E+01 -0.56979368487E+01  0.30227482932E+02  0.51100000000E-03 0. -1.
        -11    1    3    3    0    0  0.30519691663E+02  0.13297113110E+02  0.88247070117E+01  0.34440386908E+02  0.51100000000E-03 0.  1.
        -12    1    3    3    0    0 -0.14364282456E+01 -0.41888960463E+01 -0.64140384192E+01  0.77942328060E+01  0.00000000000E+00 0.  1.
</event>
<event>
 7    1  0.1884848E-013  0.7246156E+02  0.7816164E-02  0.1226708E+00
        -11   -1    0    0    0    0  0.00000000000E+00  0.00000000000E+00  0.45593999997E+02  0.45594000000E+02  0.51100000000E-03 0.  1.
         11   -1    0    0    0    0 -0.00000000000E+00 -0.00000000000E+00 -0.45593999997E+02  0.45594000000E+02  0.51100000000E-03 0. -1.
    9900012    2    1    2    0    0 -0.91002923343E+01  0.22888206933E+01 -0.16205730006E+02  0.72461555976E+02  0.69999981348E+02 0.  0.
        -12    1    1    2    0    0  0.91002923343E+01 -0.22888206933E+01  0.16205730006E+02  0.18726444024E+02  0.00000000000E+00 0.  1.
         11    1    3    3    0    0  0.18756029057E+02  0.89954589385E+00 -0.25663448989E+02  0.31799534951E+02  0.51100000000E-03 0.  1.
        -11    1    3    3    0    0 -0.22885377253E+02 -0.69546461999E+01 -0.38089277071E+01  0.24220147116E+02  0.51100000000E-03 0. -1.
         12    1    3    3    0    0 -0.49709441386E+01  0.83439209993E+01  0.13266646690E+02  0.16441873910E+02  0.00000000000E+00 0. -1.
</event>
<event>
 7    1  0.1884848E-013  0.7246158E+02  0.7816164E-02  0.1226708E+00
        -11   -1    0    0    0    0  0.00000000000E+00  0.00000000000E+00  0.45593999997E+02  0.45594000000E+02  0.51100000000E-03 0. -1.
         11   -1    0    0    0    0 -0.00000000000E+00 -0.00000000000E+00 -0.45593999997E+02  0.45594000000E+02  0.51100000000E-03 0.  1.
    9900012    2    1    2    0    0 -0.18174945857E+02 -0.21456563947E+01  0.39681662421E+01  0.72461579050E+02  0.70000011406E+02 0.  0.
        -12    1    1    2    0    0  0.18174945857E+02  0.21456563947E+01 -0.39681662421E+01  0.18726420950E+02  0.00000000000E+00 0.  1.
         11    1    3    3    0    0  0.17495892984E+02 -0.21973551736E+01  0.31183475063E+01  0.17906946487E+02  0.51100000000E-03 0. -1.
        -11    1    3    3    0    0 -0.15452149402E+02  0.12205142861E+02  0.16960188059E+02  0.25988120606E+02  0.51100000000E-03 0.  1.
        -12    1    3    3    0    0 -0.20218689439E+02 -0.12153444082E+02 -0.16110369323E+02  0.28566511957E+02  0.00000000000E+00 0.  1.
</event>
<event>
 7    1  0.1884848E-013  0.7246160E+02  0.7816164E-02  0.1226708E+00
        -11   -1    0    0    0    0  0.00000000000E+00  0.00000000000E+00  0.45593999997E+02  0.45594000000E+02  0.51100000000E-03 0.  1.
         11   -1    0    0    0    0 -0.00000000000E+00 -0.00000000000E+00 -0.45593999997E+02  0.45594000000E+02  0.51100000000E-03 0. -1.
    9900012    2    1    2    0    0  0.77256103907E+01 -0.59606427018E+01 -0.15983230896E+02  0.72461601863E+02  0.70000041124E+02 0.  0.
        -12    1    1    2    0    0 -0.77256103907E+01  0.59606427018E+01  0.15983230896E+02  0.18726398137E+02  0.00000000000E+00 0.  1.
         11    1    3    3    0    0 -0.18856359673E+02  0.75335767923E+01  0.13021665424E+01  0.20347302459E+02  0.51100000000E-03 0. -1.
        -11    1    3    3    0    0  0.36244916042E+02 -0.61642526162E+01 -0.10588634030E+02  0.38259784632E+02  0.51100000000E-03 0.  1.
        -12    1    3    3    0    0 -0.96629459782E+01 -0.73299668778E+01 -0.66967634077E+01  0.13854514771E+02  0.00000000000E+00 0.  1.
</event>
<event>
 7    1  0.1884848E-013  0.7246155E+02  0.7816164E-02  0.1226708E+00
        -11   -1    0    0    0    0  0.00000000000E+00  0.00000000000E+00  0.45593999997E+02  0.45594000000E+02  0.51100000000E-03 0. -1.
         11   -1    0    0    0    0 -0.00000000000E+00 -0.00000000000E+00 -0.45593999997E+02  0.45594000000E+02  0.51100000000E-03 0.  1.
    9900012    2    1    2    0    0  0.55731691524E+00  0.65064396478E+01  0.17550943244E+02  0.72461548981E+02  0.69999972235E+02 0.  0.
        -12    1    1    2    0    0 -0.55731691524E+00 -0.65064396478E+01 -0.17550943244E+02  0.18726451019E+02  0.00000000000E+00 0.  1.
         11    1    3    3    0    0  0.17563705317E+02  0.15910083807E+02 -0.53066371151E+01  0.24285281735E+02  0.51100000000E-03 0. -1.
        -11    1    3    3    0    0 -0.69073699136E+01 -0.19508242129E+02 -0.60805128950E+00  0.20703936744E+02  0.51100000000E-03 0.  1.
         12    1    3    3    0    0 -0.10099018488E+02  0.10104597969E+02  0.23465631648E+02  0.27472330502E+02  0.00000000000E+00 0. -1.
</event>
<event>
 7    1  0.1884848E-013  0.7246161E+02  0.7816164E-02  0.1226708E+00
        -11   -1    0    0    0    0  0.00000000000E+00  0.00000000000E+00  0.45593999997E+02  0.45594000000E+02  0.51100000000E-03 0. -1.
         11   -1    0    0    0    0 -0.00000000000E+00 -0.00000000000E+00 -0.45593999997E+02  0.45594000000E+02  0.51100000000E-03 0.  1.
    9900012    2    1    2    0    0 -0.12464704691E+02 -0.11034878628E+02  0.85755696239E+01  0.72461606761E+02  0.70000047505E+02 0.  0.
        -12    1    1    2    0    0  0.12464704691E+02  0.11034878628E+02 -0.85755696239E+01  0.18726393239E+02  0.00000000000E+00 0.  1.
         11    1    3    3    0    0 -0.20290345753E+01 -0.19484152787E+02  0.15434457500E+02  0.24939359850E+02  0.51100000000E-03 0. -1.
        -11    1    3    3    0    0 -0.27766278445E+02  0.88357793484E+01 -0.77924165825E+01  0.30162210990E+02  0.51100000000E-03 0.  1.
        -12    1    3    3    0    0  0.17330608330E+02 -0.38650518893E+00  0.93352870637E+00  0.17360035921E+02  0.00000000000E+00 0.  1.
</event>
<event>
 7    1  0.1884848E-013  0.7246151E+02  0.7816164E-02  0.1226708E+00
        -11   -1    0    0    0    0  0.00000000000E+00  0.00000000000E+00  0.45593999997E+02  0.45594000000E+02  0.51100000000E-03 0. -1.
         11   -1    0    0    0    0 -0.00000000000E+00 -0.00000000000E+00 -0.45593999997E+02  0.45594000000E+02  0.51100000000E-03 0.  1.
    9900012    2    1    2    0    0 -0.13531870034E+02 -0.99088800924E+01 -0.83296994761E+01  0.72461513285E+02  0.69999925735E+02 0.  0.
        -12    1    1    2    0    0  0.13531870034E+02  0.99088800924E+01  0.83296994761E+01  0.18726486715E+02  0.00000000000E+00 0.  1.
         11    1    3    3    0    0 -0.10081356209E+02  0.11650667434E+02 -0.15019011911E+01  0.15479906398E+02  0.51100000000E-03 0. -1.
        -11    1    3    3    0    0  0.24417412196E+02 -0.10208556659E+02 -0.38400893106E+01  0.26742680000E+02  0.51100000000E-03 0.  1.
        -12    1    3    3    0    0 -0.27867926021E+02 -0.11350990867E+02 -0.29877089745E+01  0.30238926887E+02  0.00000000000E+00 0.  1.
</event>
<event>
 7    1  0.1884848E-013  0.7246156E+02  0.7816164E-02  0.1226708E+00
        -11   -1    0    0    0    0  0.00000000000E+00  0.00000000000E+00  0.45593999997E+02  0.45594000000E+02  0.51100000000E-03 0. -1.
         11   -1    0    0    0    0 -0.00000000000E+00 -0.00000000000E+00 -0.45593999997E+02  0.45594000000E+02  0.51100000000E-03 0.  1.
    9900012    2    1    2    0    0  0.12051988013E+02  0.10955128279E+02  0.92419857255E+01  0.72461560114E+02  0.69999986738E+02 0.  0.
        -12    1    1    2    0    0 -0.12051988013E+02 -0.10955128279E+02 -0.92419857255E+01  0.18726439886E+02  0.00000000000E+00 0.  1.
         11    1    3    3    0    0  0.76082868570E+01 -0.15365820007E+01  0.29426261343E+02  0.30432745029E+02  0.51100000000E-03 0. -1.
        -11    1    3    3    0    0 -0.11097369722E+02  0.16534283779E+02 -0.65486831743E+01  0.20962333039E+02  0.51100000000E-03 0.  1.
        -12    1    3    3    0    0  0.15541070878E+02 -0.40425734998E+01 -0.13635592443E+02  0.21066482046E+02  0.00000000000E+00 0.  1.
</event>
<event>
 7    1  0.1884848E-013  0.7246130E+02  0.7816164E-02  0.1226709E+00
        -11   -1    0    0    0    0  0.00000000000E+00  0.00000000000E+00  0.45593999997E+02  0.45594000000E+02  0.51100000000E-03 0. -1.
         11   -1    0    0    0    0 -0.00000000000E+00 -0.00000000000E+00 -0.45593999997E+02  0.45594000000E+02  0.51100000000E-03 0.  1.
    9900012    2    1    2    0    0 -0.14153103151E+02  0.94434540636E+01  0.78230407470E+01  0.72461304617E+02  0.69999653905E+02 0.  0.
        -12    1    1    2    0    0  0.14153103151E+02 -0.94434540636E+01 -0.78230407470E+01  0.18726695383E+02  0.00000000000E+00 0.  1.
         11    1    3    3    0    0  0.90723136212E-01  0.16328491695E+02  0.67516061014E+01  0.17669523393E+02  0.51100000000E-03 0. -1.
        -11    1    3    3    0    0 -0.85001635018E+01 -0.87872958365E+01 -0.25105818138E+02  0.27924388128E+02  0.51100000000E-03 0.  1.
        -12    1    3    3    0    0 -0.57436627851E+01  0.19022582055E+01  0.26177252784E+02  0.26867393096E+02  0.00000000000E+00 0.  1.
</event>
<event>
 7    1  0.1884848E-013  0.7246140E+02  0.7816164E-02  0.1226708E+00
        -11   -1    0    0    0    0  0.00000000000E+00  0.00000000000E+00  0.45593999997E+02  0.45594000000E+02  0.51100000000E-03 0. -1.
         11   -1    0    0    0    0 -0.00000000000E+00 -0.00000000000E+00 -0.45593999997E+02  0.45594000000E+02  0.51100000000E-03 0.  1.
    9900012    2    1    2    0    0  0.16459216185E+00 -0.93341843073E+01  0.16233649749E+02  0.72461402033E+02  0.69999780808E+02 0.  0.
        -12    1    1    2    0    0 -0.16459216185E+00  0.93341843073E+01 -0.16233649749E+02  0.18726597967E+02  0.00000000000E+00 0.  1.
         11    1    3    3    0    0  0.19916995480E+02  0.97455282062E+01  0.21797624346E+02  0.31093382839E+02  0.51100000000E-03 0. -1.
        -11    1    3    3    0    0 -0.12068457110E+02 -0.67775902282E+01 -0.17690560945E+02  0.22461953012E+02  0.51100000000E-03 0.  1.
         12    1    3    3    0    0 -0.76839462083E+01 -0.12302122285E+02  0.12126586347E+02  0.18906066182E+02  0.00000000000E+00 0. -1.
</event>
<event>
 7    1  0.1884848E-013  0.7246171E+02  0.7816164E-02  0.1226708E+00
        -11   -1    0    0    0    0  0.00000000000E+00  0.00000000000E+00  0.45593999997E+02  0.45594000000E+02  0.51100000000E-03 0.  1.
         11   -1    0    0    0    0 -0.00000000000E+00 -0.00000000000E+00 -0.45593999997E+02  0.45594000000E+02  0.51100000000E-03 0. -1.
    9900012    2    1    2    0    0  0.16922849535E+02 -0.11436553505E+01 -0.79361842071E+01  0.72461713563E+02  0.70000186634E+02 0.  0.
        -12    1    1    2    0    0 -0.16922849535E+02  0.11436553505E+01  0.79361842071E+01  0.18726286437E+02  0.00000000000E+00 0.  1.
         11    1    3    3    0    0  0.15038841224E+02 -0.21978995496E+02 -0.25688515038E+02  0.37001929592E+02  0.51100000000E-03 0. -1.
        -11    1    3    3    0    0  0.11526490112E+02  0.15919193996E+02  0.93881857218E+01  0.21781155690E+02  0.51100000000E-03 0.  1.
         12    1    3    3    0    0 -0.96424818007E+01  0.49161461492E+01  0.83641451094E+01  0.13678628281E+02  0.00000000000E+00 0. -1.
</event>
<event>
 7    1  0.1884848E-013  0.7246157E+02  0.7816164E-02  0.1226708E+00
        -11   -1    0    0    0    0  0.00000000000E+00  0.00000000000E+00  0.45593999997E+02  0.45594000000E+02  0.51100000000E-03 0.  1.
         11   -1    0    0    0    0 -0.00000000000E+00 -0.00000000000E+00 -0.45593999997E+02  0.45594000000E+02  0.51100000000E-03 0. -1.
    9900012    2    1    2    0    0 -0.46575696231E+01 -0.11203856198E+02 -0.14263937078E+02  0.72461568160E+02  0.69999997220E+02 0.  0.
        -12    1    1    2    0    0  0.46575696231E+01  0.11203856198E+02  0.14263937078E+02  0.18726431840E+02  0.00000000000E+00 0.  1.
         11    1    3    3    0    0 -0.18723581498E+02 -0.11509789171E+02  0.16746759688E+02  0.27631534724E+02  0.51100000000E-03 0.  1.
        -11    1    3    3    0    0 -0.60356418313E+01  0.37521643601E+01 -0.20882499342E+02  0.22058705509E+02  0.51100000000E-03 0. -1.
         12    1    3    3    0    0  0.20101653706E+02 -0.34462313872E+01 -0.10128197424E+02  0.22771327927E+02  0.00000000000E+00 0. -1.
</event>
<event>
 7    1  0.1884848E-013  0.7246150E+02  0.7816164E-02  0.1226708E+00
        -11   -1    0    0    0    0  0.00000000000E+00  0.00000000000E+00  0.45593999997E+02  0.45594000000E+02  0.51100000000E-03 0.  1.
         11   -1    0    0    0    0 -0.00000000000E+00 -0.00000000000E+00 -0.45593999997E+02  0.45594000000E+02  0.51100000000E-03 0. -1.
    9900012    2    1    2    0    0  0.15955684567E+02  0.84054231151E+01 -0.50444693496E+01  0.72461503297E+02  0.69999912724E+02 0.  0.
        -12    1    1    2    0    0 -0.15955684567E+02 -0.84054231151E+01  0.50444693496E+01  0.18726496703E+02  0.00000000000E+00 0.  1.
         11    1    3    3    0    0 -0.10026402035E+02  0.16081870959E+02 -0.27022660868E+02  0.33005749680E+02  0.51100000000E-03 0. -1.
        -11    1    3    3    0    0  0.68515783446E+01 -0.99803115620E+01  0.14242423120E+02  0.18692173798E+02  0.51100000000E-03 0.  1.
         12    1    3    3    0    0  0.19130508257E+02  0.23038637180E+01  0.77357683979E+01  0.20763579819E+02  0.00000000000E+00 0. -1.
</event>
<event>
 7    1  0.1884848E-013  0.7246159E+02  0.7816164E-02  0.1226708E+00
        -11   -1    0    0    0    0  0.00000000000E+00  0.00000000000E+00  0.45593999997E+02  0.45594000000E+02  0.51100000000E-03 0.  1.
         11   -1    0    0    0    0 -0.00000000000E+00 -0.00000000000E+00 -0.45593999997E+02  0.45594000000E+02  0.51100000000E-03 0. -1.
    9900012    2    1    2    0    0  0.28191651971E+01  0.13275528321E+02 -0.12903140466E+02  0.72461591415E+02  0.70000027513E+02 0.  0.
        -12    1    1    2    0    0 -0.28191651971E+01 -0.13275528321E+02  0.12903140466E+02  0.18726408585E+02  0.00000000000E+00 0.  1.
         11    1    3    3    0    0 -0.13693228440E+02  0.26932087731E+02 -0.92570881189E+01  0.31599612899E+02  0.51100000000E-03 0. -1.
        -11    1    3    3    0    0  0.20177354996E+02 -0.14458296977E+02 -0.14932702584E+02  0.28968148247E+02  0.51100000000E-03 0.  1.
         12    1    3    3    0    0 -0.36649613590E+01  0.80173756724E+00  0.11286650237E+02  0.11893830269E+02  0.00000000000E+00 0. -1.
</event>
<event>
 7    1  0.1884848E-013  0.7246159E+02  0.7816164E-02  0.1226708E+00
        -11   -1    0    0    0    0  0.00000000000E+00  0.00000000000E+00  0.45593999997E+02  0.45594000000E+02  0.51100000000E-03 0. -1.
         11   -1    0    0    0    0 -0.00000000000E+00 -0.00000000000E+00 -0.45593999997E+02  0.45594000000E+02  0.51100000000E-03 0.  1.
    9900012    2    1    2    0    0 -0.35711156134E+01  0.49770114181E+01  0.17696179711E+02  0.72461593891E+02  0.70000030740E+02 0.  0.
        -12    1    1    2    0    0  0.35711156134E+01 -0.49770114181E+01 -0.17696179711E+02  0.18726406109E+02  0.00000000000E+00 0.  1.
         11    1    3    3    0    0 -0.15655015731E+02 -0.12072588616E+02  0.33259235574E+02  0.38691131602E+02  0.51100000000E-03 0. -1.
        -11    1    3    3    0    0  0.89558020239E+01  0.13189509148E+02 -0.21025545659E+02  0.26386419082E+02  0.51100000000E-03 0.  1.
         12    1    3    3    0    0  0.31280980933E+01  0.38600908854E+01  0.54624897953E+01  0.73840432074E+01  0.00000000000E+00 0. -1.
</event>
<event>
 7    1  0.1884848E-013  0.7246154E+02  0.7816164E-02  0.1226708E+00
        -11   -1    0    0    0    0  0.00000000000E+00  0.00000000000E+00  0.45593999997E+02  0.45594000000E+02  0.51100000000E-03 0.  1.
         11   -1    0    0    0    0 -0.00000000000E+00 -0.00000000000E+00 -0.45593999997E+02  0.45594000000E+02  0.51100000000E-03 0. -1.
    9900012    2    1    2    0    0 -0.10669762230E+02  0.14947680392E+02 -0.36610357030E+01  0.72461543913E+02  0.69999965634E+02 0.  0.
        -12    1    1    2    0    0  0.10669762230E+02 -0.14947680392E+02  0.36610357030E+01  0.18726456087E+02  0.00000000000E+00 0.  1.
         11    1    3    3    0    0 -0.22333194751E+01 -0.12990688517E+02  0.32126673560E+01  0.13567127030E+02  0.51100000000E-03 0. -1.
        -11    1    3    3    0    0 -0.22116471891E+02  0.22379663336E+02  0.13077180634E+02  0.34073454676E+02  0.51100000000E-03 0.  1.
        -12    1    3    3    0    0  0.13680029136E+02  0.55587055735E+01 -0.19950883693E+02  0.24820962208E+02  0.00000000000E+00 0.  1.
</event>
<event>
 7    1  0.1884848E-013  0.7246155E+02  0.7816164E-02  0.1226708E+00
        -11   -1    0    0    0    0  0.00000000000E+00  0.00000000000E+00  0.45593999997E+02  0.45594000000E+02  0.51100000000E-03 0. -1.
         11   -1    0    0    0    0 -0.00000000000E+00 -0.00000000000E+00 -0.45593999997E+02  0.45594000000E+02  0.51100000000E-03 0.  1.
    9900012    2    1    2    0    0  0.11224359309E+01  0.18688508968E+02  0.39947613521E+00  0.72461553165E+02  0.69999977686E+02 0.  0.
        -12    1    1    2    0    0 -0.11224359309E+01 -0.18688508968E+02 -0.39947613521E+00  0.18726446835E+02  0.00000000000E+00 0.  1.
         11    1    3    3    0    0  0.87392512388E+01  0.27688255676E+01  0.31050404184E+02  0.32375430614E+02  0.51100000000E-03 0. -1.
        -11    1    3    3    0    0 -0.11411337731E+02  0.45213134896E+01 -0.86405048683E+01  0.15010637199E+02  0.51100000000E-03 0.  1.
         12    1    3    3    0    0  0.37945224235E+01  0.11398369911E+02 -0.22010423180E+02  0.25075485352E+02  0.00000000000E+00 0. -1.
</event>
<event>
 7    1  0.1884848E-013  0.7246158E+02  0.7816164E-02  0.1226708E+00
        -11   -1    0    0    0    0  0.00000000000E+00  0.00000000000E+00  0.45593999997E+02  0.45594000000E+02  0.51100000000E-03 0. -1.
         11   -1    0    0    0    0 -0.00000000000E+00 -0.00000000000E+00 -0.45593999997E+02  0.45594000000E+02  0.51100000000E-03 0.  1.
    9900012    2    1    2    0    0 -0.28811048585E+01 -0.51159768496E+01  0.17782146661E+02  0.72461582185E+02  0.70000015489E+02 0.  0.
        -12    1    1    2    0    0  0.28811048585E+01  0.51159768496E+01 -0.17782146661E+02  0.18726417815E+02  0.00000000000E+00 0.  1.
         11    1    3    3    0    0  0.28938063952E+02 -0.47406119423E+00 -0.20358456437E+01  0.29013461480E+02  0.51100000000E-03 0. -1.
        -11    1    3    3    0    0 -0.27154774025E+02 -0.11995692690E+02  0.13093138877E+02  0.32445472433E+02  0.51100000000E-03 0.  1.
        -12    1    3    3    0    0 -0.46643947850E+01  0.73537770345E+01  0.67248534276E+01  0.11002648272E+02  0.00000000000E+00 0.  1.
</event>
<event>
 7    1  0.1884848E-013  0.7246166E+02  0.7816164E-02  0.1226708E+00
        -11   -1    0    0    0    0  0.00000000000E+00  0.00000000000E+00  0.45593999997E+02  0.45594000000E+02  0.51100000000E-03 0. -1.
         11   -1    0    0    0    0 -0.00000000000E+00 -0.00000000000E+00 -0.45593999997E+02  0.45594000000E+02  0.51100000000E-03 0.  1.
    9900012    2    1    2    0    0  0.16672207409E+02  0.20500393509E+01  0.82771217480E+01  0.72461657441E+02  0.70000113524E+02 0.  0.
        -12    1    1    2    0    0 -0.16672207409E+02 -0.20500393509E+01 -0.82771217480E+01  0.18726342559E+02  0.00000000000E+00 0.  1.
         11    1    3    3    0    0  0.22334640603E+02  0.71421309653E+01  0.17320448345E+02  0.29152086318E+02  0.51100000000E-03 0. -1.
        -11    1    3    3    0    0 -0.18185052134E+02  0.10941142990E+02 -0.87707649513E+01  0.22963689798E+02  0.51100000000E-03 0.  1.
         12    1    3    3    0    0  0.12522618940E+02 -0.16033234605E+02 -0.27256164590E+00  0.20345881324E+02  0.00000000000E+00 0. -1.
</event>
<event>
 7    1  0.1884848E-013  0.7246150E+02  0.7816164E-02  0.1226708E+00
        -11   -1    0    0    0    0  0.00000000000E+00  0.00000000000E+00  0.45593999997E+02  0.45594000000E+02  0.51100000000E-03 0. -1.
         11   -1    0    0    0    0 -0.00000000000E+00 -0.00000000000E+00 -0.45593999997E+02  0.45594000000E+02  0.51100000000E-03 0.  1.
    9900012    2    1    2    0    0  0.27713133143E+01 -0.18252237695E+02 -0.31396715133E+01  0.72461497508E+02  0.69999905183E+02 0.  0.
        -12    1    1    2    0    0 -0.27713133143E+01  0.18252237695E+02  0.31396715133E+01  0.18726502492E+02  0.00000000000E+00 0.  1.
         11    1    3    3    0    0  0.29081814530E+02  0.46628523391E+01 -0.55515196461E+01  0.29971878469E+02  0.51100000000E-03 0.  1.
        -11    1    3    3    0    0 -0.16845932876E+02 -0.13378012511E+02  0.13216973995E+02  0.25247674647E+02  0.51100000000E-03 0. -1.
        -12    1    3    3    0    0 -0.94645683398E+01 -0.95370775233E+01 -0.10805125862E+02  0.17241944393E+02  0.00000000000E+00 0.  1.
</event>
<event>
 7    1  0.1884848E-013  0.7246156E+02  0.7816164E-02  0.1226708E+00
        -11   -1    0    0    0    0  0.00000000000E+00  0.00000000000E+00  0.45593999997E+02  0.45594000000E+02  0.51100000000E-03 0. -1.
         11   -1    0    0    0    0 -0.00000000000E+00 -0.00000000000E+00 -0.45593999997E+02  0.45594000000E+02  0.51100000000E-03 0.  1.
    9900012    2    1    2    0    0 -0.16089828363E+02  0.60780504135E+00  0.95617682060E+01  0.72461563741E+02  0.69999991464E+02 0.  0.
        -12    1    1    2    0    0  0.16089828363E+02 -0.60780504135E+00 -0.95617682060E+01  0.18726436259E+02  0.00000000000E+00 0.  1.
         11    1    3    3    0    0 -0.91160152031E+01  0.26397454444E+02 -0.11327719902E+01  0.27950143237E+02  0.51100000000E-03 0. -1.
        -11    1    3    3    0    0  0.76693748696E+01 -0.42699062623E+01 -0.84622142997E+01  0.12192640464E+02  0.51100000000E-03 0.  1.
         12    1    3    3    0    0 -0.14643188030E+02 -0.21519743140E+02  0.19156754496E+02  0.32318780040E+02  0.00000000000E+00 0. -1.
</event>
<event>
 7    1  0.1884848E-013  0.7246157E+02  0.7816164E-02  0.1226708E+00
        -11   -1    0    0    0    0  0.00000000000E+00  0.00000000000E+00  0.45593999997E+02  0.45594000000E+02  0.51100000000E-03 0.  1.
         11   -1    0    0    0    0 -0.00000000000E+00 -0.00000000000E+00 -0.45593999997E+02  0.45594000000E+02  0.51100000000E-03 0. -1.
    9900012    2    1    2    0    0  0.10458603225E+02  0.12603658052E+02 -0.90799048267E+01  0.72461568162E+02  0.69999997223E+02 0.  0.
        -12    1    1    2    0    0 -0.10458603225E+02 -0.12603658052E+02  0.90799048267E+01  0.18726431838E+02  0.00000000000E+00 0.  1.
         11    1    3    3    0    0  0.29306951356E+02 -0.16725214973E+02  0.48431450307E+01  0.34089386438E+02  0.51100000000E-03 0.  1.
        -11    1    3    3    0    0 -0.16657936368E+02  0.19775042782E+02 -0.11355229835E+02  0.28239695571E+02  0.51100000000E-03 0. -1.
        -12    1    3    3    0    0 -0.21904117629E+01  0.95538302421E+01 -0.25678200221E+01  0.10132486154E+02  0.00000000000E+00 0.  1.
</event>
<event>
 7    1  0.1884848E-013  0.7246157E+02  0.7816164E-02  0.1226708E+00
        -11   -1    0    0    0    0  0.00000000000E+00  0.00000000000E+00  0.45593999997E+02  0.45594000000E+02  0.51100000000E-03 0.  1.
         11   -1    0    0    0    0 -0.00000000000E+00 -0.00000000000E+00 -0.45593999997E+02  0.45594000000E+02  0.51100000000E-03 0. -1.
    9900012    2    1    2    0    0 -0.23897023025E+01 -0.13443548199E+02 -0.12815596289E+02  0.72461570187E+02  0.69999999860E+02 0.  0.
        -12    1    1    2    0    0  0.23897023025E+01  0.13443548199E+02  0.12815596289E+02  0.18726429813E+02  0.00000000000E+00 0.  1.
         11    1    3    3    0    0 -0.51014388493E+01  0.17611129358E+02  0.11394124680E+02  0.21587094133E+02  0.51100000000E-03 0. -1.
        -11    1    3    3    0    0  0.12592139572E+02 -0.28926186118E+02 -0.93523343795E+01  0.32905202946E+02  0.51100000000E-03 0.  1.
         12    1    3    3    0    0 -0.98804030250E+01 -0.21284914395E+01 -0.14857386590E+02  0.17969273108E+02  0.00000000000E+00 0. -1.
</event>
<event>
 7    1  0.1884848E-013  0.7246157E+02  0.7816164E-02  0.1226708E+00
        -11   -1    0    0    0    0  0.00000000000E+00  0.00000000000E+00  0.45593999997E+02  0.45594000000E+02  0.51100000000E-03 0.  1.
         11   -1    0    0    0    0 -0.00000000000E+00 -0.00000000000E+00 -0.45593999997E+02  0.45594000000E+02  0.51100000000E-03 0. -1.
    9900012    2    1    2    0    0  0.91325691091E+01  0.59892152495E+01 -0.15211991672E+02  0.72461569255E+02  0.69999998646E+02 0.  0.
        -12    1    1    2    0    0 -0.91325691091E+01 -0.59892152495E+01  0.15211991672E+02  0.18726430745E+02  0.00000000000E+00 0.  1.
         11    1    3    3    0    0  0.29934900403E+01  0.14775881096E+02 -0.30106664767E+02  0.33670445623E+02  0.51100000000E-03 0. -1.
        -11    1    3    3    0    0  0.11186953338E+02 -0.20240273057E+02  0.78142659979E+01  0.24410639724E+02  0.51100000000E-03 0.  1.
        -12    1    3    3    0    0 -0.50478742690E+01  0.11453607210E+02  0.70804070976E+01  0.14380483908E+02  0.00000000000E+00 0.  1.
</event>
<event>
 7    1  0.1884848E-013  0.7246162E+02  0.7816164E-02  0.1226708E+00
        -11   -1    0    0    0    0  0.00000000000E+00  0.00000000000E+00  0.45593999997E+02  0.45594000000E+02  0.51100000000E-03 0.  1.
         11   -1    0    0    0    0 -0.00000000000E+00 -0.00000000000E+00 -0.45593999997E+02  0.45594000000E+02  0.51100000000E-03 0. -1.
    9900012    2    1    2    0    0  0.20496177053E+01 -0.11499236950E+02 -0.14637070053E+02  0.72461622803E+02  0.70000068403E+02 0.  0.
        -12    1    1    2    0    0 -0.20496177053E+01  0.11499236950E+02  0.14637070053E+02  0.18726377197E+02  0.00000000000E+00 0.  1.
         11    1    3    3    0    0 -0.17772682937E+02 -0.27572315378E+02 -0.65525360380E+01  0.33452003870E+02  0.51100000000E-03 0. -1.
        -11    1    3    3    0    0 -0.44678659215E+01  0.12828527229E+02 -0.17362295329E+01  0.13694795727E+02  0.51100000000E-03 0.  1.
         12    1    3    3    0    0  0.24290166564E+02  0.32445511997E+01 -0.63483044824E+01  0.25314823207E+02  0.00000000000E+00 0. -1.
</event>
<event>
 7    1  0.1884848E-013  0.7246160E+02  0.7816164E-02  0.1226708E+00
        -11   -1    0    0    0    0  0.00000000000E+00  0.00000000000E+00  0.45593999997E+02  0.45594000000E+02  0.51100000000E-03 0. -1.
         11   -1    0    0    0    0 -0.00000000000E+00 -0.00000000000E+00 -0.45593999997E+02  0.45594000000E+02  0.51100000000E-03 0.  1.
    9900012    2    1    2    0    0 -0.16304478684E+02  0.84277944607E+01 -0.37167754815E+01  0.72461597126E+02  0.70000034953E+02 0.  0.
        -12    1    1    2    0    0  0.16304478684E+02 -0.84277944607E+01  0.37167754815E+01  0.18726402874E+02  0.00000000000E+00 0.  1.
         11    1    3    3    0    0  0.22279951958E+02 -0.51705735884E+01 -0.16229533626E+02  0.28045121723E+02  0.51100000000E-03 0.  1.
        -11    1    3    3    0    0 -0.38208853088E+02  0.12804976858E+02  0.96702221716E+01  0.41441489884E+02  0.51100000000E-03 0. -1.
        -12    1    3    3    0    0 -0.37557755337E+00  0.79339119074E+00  0.28425359732E+01  0.29749855192E+01  0.00000000000E+00 0.  1.
</event>
<event>
 7    1  0.1884848E-013  0.7246171E+02  0.7816164E-02  0.1226708E+00
        -11   -1    0    0    0    0  0.00000000000E+00  0.00000000000E+00  0.45593999997E+02  0.45594000000E+02  0.51100000000E-03 0. -1.
         11   -1    0    0    0    0 -0.00000000000E+00 -0.00000000000E+00 -0.45593999997E+02  0.45594000000E+02  0.51100000000E-03 0.  1.
    9900012    2    1    2    0    0  0.17632061776E+01 -0.17428167112E+02 -0.66199672666E+01  0.72461711753E+02  0.70000184275E+02 0.  0.
        -12    1    1    2    0    0 -0.17632061776E+01  0.17428167112E+02  0.66199672666E+01  0.18726288247E+02  0.00000000000E+00 0.  1.
         11    1    3    3    0    0  0.14480857278E+01 -0.24944527637E+02 -0.12593354710E+01  0.25018240094E+02  0.51100000000E-03 0. -1.
        -11    1    3    3    0    0 -0.27272027207E+01  0.20848594674E+02 -0.18847265051E+02  0.28236871901E+02  0.51100000000E-03 0.  1.
        -12    1    3    3    0    0  0.30423231704E+01 -0.13332234149E+02  0.13486633255E+02  0.19206599757E+02  0.00000000000E+00 0.  1.
</event>
<event>
 7    1  0.1884848E-013  0.7246153E+02  0.7816164E-02  0.1226708E+00
        -11   -1    0    0    0    0  0.00000000000E+00  0.00000000000E+00  0.45593999997E+02  0.45594000000E+02  0.51100000000E-03 0.  1.
         11   -1    0    0    0    0 -0.00000000000E+00 -0.00000000000E+00 -0.45593999997E+02  0.45594000000E+02  0.51100000000E-03 0. -1.
    9900012    2    1    2    0    0 -0.35877102245E+01  0.35483380974E+00 -0.18376152617E+02  0.72461533256E+02  0.69999951751E+02 0.  0.
        -12    1    1    2    0    0  0.35877102245E+01 -0.35483380974E+00  0.18376152617E+02  0.18726466744E+02  0.00000000000E+00 0.  1.
         11    1    3    3    0    0  0.57350665513E+01 -0.14279935927E+02 -0.10050776202E+02  0.18380034303E+02  0.51100000000E-03 0. -1.
        -11    1    3    3    0    0 -0.25955725177E+02  0.85217350144E+01 -0.19107900470E+02  0.33338138786E+02  0.51100000000E-03 0.  1.
        -12    1    3    3    0    0  0.16632948401E+02  0.61130347227E+01  0.10782524055E+02  0.20743360167E+02  0.00000000000E+00 0.  1.
</event>
<event>
 7    1  0.1884848E-013  0.7246159E+02  0.7816164E-02  0.1226708E+00
        -11   -1    0    0    0    0  0.00000000000E+00  0.00000000000E+00  0.45593999997E+02  0.45594000000E+02  0.51100000000E-03 0.  1.
         11   -1    0    0    0    0 -0.00000000000E+00 -0.00000000000E+00 -0.45593999997E+02  0.45594000000E+02  0.51100000000E-03 0. -1.
    9900012    2    1    2    0    0 -0.98115190448E+01 -0.15462388786E+02  0.39149769762E+01  0.72461590370E+02  0.70000026152E+02 0.  0.
        -12    1    1    2    0    0  0.98115190448E+01  0.15462388786E+02 -0.39149769762E+01  0.18726409630E+02  0.00000000000E+00 0.  1.
         11    1    3    3    0    0 -0.18888544038E+02 -0.23476255289E+00 -0.23509803488E+02  0.30158631760E+02  0.51100000000E-03 0. -1.
        -11    1    3    3    0    0  0.81744638451E+01 -0.13788146725E+02  0.32885500672E+02  0.36584026623E+02  0.51100000000E-03 0.  1.
        -12    1    3    3    0    0  0.90256114783E+00 -0.14394795079E+01 -0.54607202079E+01  0.57189319867E+01  0.00000000000E+00 0.  1.
</event>
<event>
 7    1  0.1884848E-013  0.7246154E+02  0.7816164E-02  0.1226708E+00
        -11   -1    0    0    0    0  0.00000000000E+00  0.00000000000E+00  0.45593999997E+02  0.45594000000E+02  0.51100000000E-03 0.  1.
         11   -1    0    0    0    0 -0.00000000000E+00 -0.00000000000E+00 -0.45593999997E+02  0.45594000000E+02  0.51100000000E-03 0. -1.
    9900012    2    1    2    0    0  0.81714353494E+01 -0.10950671309E+02 -0.12805891119E+02  0.72461537303E+02  0.69999957022E+02 0.  0.
        -12    1    1    2    0    0 -0.81714353494E+01  0.10950671309E+02  0.12805891119E+02  0.18726462697E+02  0.00000000000E+00 0.  1.
         11    1    3    3    0    0  0.23644415482E+02 -0.94848648353E+01 -0.31713718384E+02  0.40678999231E+02  0.51100000000E-03 0. -1.
        -11    1    3    3    0    0 -0.88574774595E+01 -0.66336997753E+01  0.20445405526E+02  0.23248128678E+02  0.51100000000E-03 0.  1.
        -12    1    3    3    0    0 -0.66155026734E+01  0.51678933011E+01 -0.15375782613E+01  0.85344093939E+01  0.00000000000E+00 0.  1.
</event>
<event>
 7    1  0.1884848E-013  0.7246193E+02  0.7816164E-02  0.1226707E+00
        -11   -1    0    0    0    0  0.00000000000E+00  0.00000000000E+00  0.45593999997E+02  0.45594000000E+02  0.51100000000E-03 0.  1.
         11   -1    0    0    0    0 -0.00000000000E+00 -0.00000000000E+00 -0.45593999997E+02  0.45594000000E+02  0.51100000000E-03 0. -1.
    9900012    2    1    2    0    0  0.15667942420E+02  0.90849523451E+01 -0.47586692521E+01  0.72461929621E+02  0.70000468088E+02 0.  0.
        -12    1    1    2    0    0 -0.15667942420E+02 -0.90849523451E+01  0.47586692521E+01  0.18726070379E+02  0.00000000000E+00 0.  1.
         11    1    3    3    0    0 -0.60776799851E+01 -0.20969208182E+02  0.98187039781E+01  0.23938521964E+02  0.51100000000E-03 0. -1.
        -11    1    3    3    0    0 -0.16882232740E+01  0.20224327589E+02 -0.27027208251E+01  0.20473842443E+02  0.51100000000E-03 0.  1.
         12    1    3    3    0    0  0.23433845679E+02  0.98298329375E+01 -0.11874652405E+02  0.28049565213E+02  0.00000000000E+00 0. -1.
</event>
<event>
 7    1  0.1884848E-013  0.7246158E+02  0.7816164E-02  0.1226708E+00
        -11   -1    0    0    0    0  0.00000000000E+00  0.00000000000E+00  0.45593999997E+02  0.45594000000E+02  0.51100000000E-03 0. -1.
         11   -1    0    0    0    0 -0.00000000000E+00 -0.00000000000E+00 -0.45593999997E+02  0.45594000000E+02  0.51100000000E-03 0.  1.
    9900012    2    1    2    0    0 -0.15669943149E+02 -0.72401970891E+01 -0.72602421683E+01  0.72461583137E+02  0.70000016730E+02 0.  0.
        -12    1    1    2    0    0  0.15669943149E+02  0.72401970891E+01  0.72602421683E+01  0.18726416863E+02  0.00000000000E+00 0.  1.
         11    1    3    3    0    0 -0.29746658259E+02 -0.59449146964E+01 -0.17015601422E+02  0.34781264790E+02  0.51100000000E-03 0.  1.
        -11    1    3    3    0    0  0.23743673362E+02 -0.64845760089E+01  0.10331065874E+02  0.26693494958E+02  0.51100000000E-03 0. -1.
         12    1    3    3    0    0 -0.96669582515E+01  0.51892936162E+01 -0.57570661961E+00  0.10986823389E+02  0.00000000000E+00 0. -1.
</event>
<event>
 7    1  0.1884848E-013  0.7246157E+02  0.7816164E-02  0.1226708E+00
        -11   -1    0    0    0    0  0.00000000000E+00  0.00000000000E+00  0.45593999997E+02  0.45594000000E+02  0.51100000000E-03 0.  1.
         11   -1    0    0    0    0 -0.00000000000E+00 -0.00000000000E+00 -0.45593999997E+02  0.45594000000E+02  0.51100000000E-03 0. -1.
    9900012    2    1    2    0    0  0.50051647653E-01  0.77463407597E+01 -0.17049076894E+02  0.72461566189E+02  0.69999994652E+02 0.  0.
        -12    1    1    2    0    0 -0.50051647653E-01 -0.77463407597E+01  0.17049076894E+02  0.18726433811E+02  0.00000000000E+00 0.  1.
         11    1    3    3    0    0  0.60943843522E+01  0.16280172782E+02 -0.30680838958E+02  0.35263287224E+02  0.51100000000E-03 0. -1.
        -11    1    3    3    0    0 -0.18989657640E+01  0.56046663228E+01  0.20213092500E+02  0.21061516191E+02  0.51100000000E-03 0.  1.
         12    1    3    3    0    0 -0.41453669405E+01 -0.14138498345E+02 -0.65813304361E+01  0.16136762774E+02  0.00000000000E+00 0. -1.
</event>
<event>
 7    1  0.1884848E-013  0.7246156E+02  0.7816164E-02  0.1226708E+00
        -11   -1    0    0    0    0  0.00000000000E+00  0.00000000000E+00  0.45593999997E+02  0.45594000000E+02  0.51100000000E-03 0.  1.
         11   -1    0    0    0    0 -0.00000000000E+00 -0.00000000000E+00 -0.45593999997E+02  0.45594000000E+02  0.51100000000E-03 0. -1.
    9900012    2    1    2    0    0  0.11560178632E+02 -0.14719477785E+02 -0.61543271993E+00  0.72461561105E+02  0.69999988029E+02 0.  0.
        -12    1    1    2    0    0 -0.11560178632E+02  0.14719477785E+02  0.61543271993E+00  0.18726438895E+02  0.00000000000E+00 0.  1.
         11    1    3    3    0    0  0.19748626361E+02  0.21640306340E+02 -0.54073799825E+01  0.29791791825E+02  0.51100000000E-03 0. -1.
        -11    1    3    3    0    0  0.12323481645E+00 -0.31726505462E+02  0.78337755482E+01  0.32679571222E+02  0.51100000000E-03 0.  1.
         12    1    3    3    0    0 -0.83116825459E+01 -0.46332786623E+01 -0.30418282856E+01  0.99901980573E+01  0.00000000000E+00 0. -1.
</event>
<event>
 7    1  0.1884848E-013  0.7246162E+02  0.7816164E-02  0.1226708E+00
        -11   -1    0    0    0    0  0.00000000000E+00  0.00000000000E+00  0.45593999997E+02  0.45594000000E+02  0.51100000000E-03 0.  1.
         11   -1    0    0    0    0 -0.00000000000E+00 -0.00000000000E+00 -0.45593999997E+02  0.45594000000E+02  0.51100000000E-03 0. -1.
    9900012    2    1    2    0    0 -0.34902225365E+01  0.18042807712E+02 -0.35989941092E+01  0.72461619621E+02  0.70000064258E+02 0.  0.
        -12    1    1    2    0    0  0.34902225365E+01 -0.18042807712E+02  0.35989941092E+01  0.18726380379E+02  0.00000000000E+00 0.  1.
         11    1    3    3    0    0 -0.40065064118E+01 -0.12309666235E+02 -0.19574274038E+02  0.23467683755E+02  0.51100000000E-03 0. -1.
        -11    1    3    3    0    0  0.62471787283E+01  0.64245912145E+00  0.17605783140E+02  0.18692340571E+02  0.51100000000E-03 0.  1.
         12    1    3    3    0    0 -0.57308948530E+01  0.29710014825E+02 -0.16305032111E+01  0.30301595296E+02  0.00000000000E+00 0. -1.
</event>
<event>
 7    1  0.1884848E-013  0.7246157E+02  0.7816164E-02  0.1226708E+00
        -11   -1    0    0    0    0  0.00000000000E+00  0.00000000000E+00  0.45593999997E+02  0.45594000000E+02  0.51100000000E-03 0.  1.
         11   -1    0    0    0    0 -0.00000000000E+00 -0.00000000000E+00 -0.45593999997E+02  0.45594000000E+02  0.51100000000E-03 0. -1.
    9900012    2    1    2    0    0 -0.17853319753E+02  0.44541599691E+00 -0.56337914430E+01  0.72461574082E+02  0.70000004934E+02 0.  0.
        -12    1    1    2    0    0  0.17853319753E+02 -0.44541599691E+00  0.56337914430E+01  0.18726425918E+02  0.00000000000E+00 0.  1.
         11    1    3    3    0    0  0.14021776264E+02 -0.15065091631E+01 -0.29317906160E+02  0.32533358285E+02  0.51100000000E-03 0. -1.
        -11    1    3    3    0    0 -0.14510934126E+02  0.85900011628E+00  0.13066550463E+02  0.19545839242E+02  0.51100000000E-03 0.  1.
         12    1    3    3    0    0 -0.17364161892E+02  0.10929250438E+01  0.10617564254E+02  0.20382376555E+02  0.00000000000E+00 0. -1.
</event>
<event>
 7    1  0.1884848E-013  0.7246163E+02  0.7816164E-02  0.1226708E+00
        -11   -1    0    0    0    0  0.00000000000E+00  0.00000000000E+00  0.45593999997E+02  0.45594000000E+02  0.51100000000E-03 0. -1.
         11   -1    0    0    0    0 -0.00000000000E+00 -0.00000000000E+00 -0.45593999997E+02  0.45594000000E+02  0.51100000000E-03 0.  1.
    9900012    2    1    2    0    0 -0.72557632254E+01 -0.16875095970E+02  0.36417242747E+01  0.72461625026E+02  0.70000071298E+02 0.  0.
        -12    1    1    2    0    0  0.72557632254E+01  0.16875095970E+02 -0.36417242747E+01  0.18726374974E+02  0.00000000000E+00 0.  1.
         11    1    3    3    0    0 -0.99485082145E+01 -0.35161346304E+02  0.29342233117E+01  0.36659279266E+02  0.51100000000E-03 0. -1.
        -11    1    3    3    0    0  0.12845891047E+02  0.19877481947E+02  0.57489363315E+01  0.24355317172E+02  0.51100000000E-03 0.  1.
        -12    1    3    3    0    0 -0.10153146058E+02 -0.15912316128E+01 -0.50414353684E+01  0.11447028588E+02  0.00000000000E+00 0.  1.
</event>
<event>
 7    1  0.1884848E-013  0.7246167E+02  0.7816164E-02  0.1226708E+00
        -11   -1    0    0    0    0  0.00000000000E+00  0.00000000000E+00  0.45593999997E+02  0.45594000000E+02  0.51100000000E-03 0. -1.
         11   -1    0    0    0    0 -0.00000000000E+00 -0.00000000000E+00 -0.45593999997E+02  0.45594000000E+02  0.51100000000E-03 0.  1.
    9900012    2    1    2    0    0 -0.17147947579E+02 -0.33644463894E+01 -0.67308214815E+01  0.72461666577E+02  0.70000125425E+02 0.  0.
        -12    1    1    2    0    0  0.17147947579E+02  0.33644463894E+01  0.67308214815E+01  0.18726333423E+02  0.00000000000E+00 0.  1.
         11    1    3    3    0    0 -0.56267371046E+00  0.26187326975E+02 -0.25498460146E+00  0.26194612293E+02  0.51100000000E-03 0. -1.
        -11    1    3    3    0    0  0.12730686782E+00 -0.28774862328E+02 -0.15087744087E+01  0.28814671775E+02  0.51100000000E-03 0.  1.
        -12    1    3    3    0    0 -0.16712580736E+02 -0.77691103619E+00 -0.49670624714E+01  0.17452382508E+02  0.00000000000E+00 0.  1.
</event>
<event>
 7    1  0.1884848E-013  0.7246161E+02  0.7816164E-02  0.1226708E+00
        -11   -1    0    0    0    0  0.00000000000E+00  0.00000000000E+00  0.45593999997E+02  0.45594000000E+02  0.51100000000E-03 0.  1.
         11   -1    0    0    0    0 -0.00000000000E+00 -0.00000000000E+00 -0.45593999997E+02  0.45594000000E+02  0.51100000000E-03 0. -1.
    9900012    2    1    2    0    0  0.24190155446E+00 -0.21626779503E+01 -0.18599518816E+02  0.72461607062E+02  0.70000047897E+02 0.  0.
        -12    1    1    2    0    0 -0.24190155446E+00  0.21626779503E+01  0.18599518816E+02  0.18726392938E+02  0.00000000000E+00 0.  1.
         11    1    3    3    0    0  0.11754565643E+02 -0.54931234823E+01 -0.18192637824E+02  0.22345386332E+02  0.51100000000E-03 0. -1.
        -11    1    3    3    0    0 -0.22940993193E+02  0.19311705193E+02 -0.36315436924E+01  0.30206278089E+02  0.51100000000E-03 0.  1.
        -12    1    3    3    0    0  0.11428329104E+02 -0.15981259661E+02  0.32246627011E+01  0.19909942642E+02  0.00000000000E+00 0.  1.
</event>
<event>
 7    1  0.1884848E-013  0.7246158E+02  0.7816164E-02  0.1226708E+00
        -11   -1    0    0    0    0  0.00000000000E+00  0.00000000000E+00  0.45593999997E+02  0.45594000000E+02  0.51100000000E-03 0. -1.
         11   -1    0    0    0    0 -0.00000000000E+00 -0.00000000000E+00 -0.45593999997E+02  0.45594000000E+02  0.51100000000E-03 0.  1.
    9900012    2    1    2    0    0 -0.91292947856E+00  0.48610050520E+01  0.18061449172E+02  0.72461581321E+02  0.70000014364E+02 0.  0.
        -12    1    1    2    0    0  0.91292947856E+00 -0.48610050520E+01 -0.18061449172E+02  0.18726418679E+02  0.00000000000E+00 0.  1.
         11    1    3    3    0    0 -0.49265217469E+01 -0.61394556630E+01  0.31269860317E+02  0.32245429085E+02  0.51100000000E-03 0. -1.
        -11    1    3    3    0    0 -0.10225685574E+02 -0.73930010426E+01 -0.11194207648E+02  0.16868058424E+02  0.51100000000E-03 0.  1.
         12    1    3    3    0    0  0.14239277842E+02  0.18393461758E+02 -0.20142034975E+01  0.23348093812E+02  0.00000000000E+00 0. -1.
</event>
<event>
 7    1  0.1884848E-013  0.7246148E+02  0.7816164E-02  0.1226708E+00
        -11   -1    0    0    0    0  0.00000000000E+00  0.00000000000E+00  0.45593999997E+02  0.45594000000E+02  0.51100000000E-03 0.  1.
         11   -1    0    0    0    0 -0.00000000000E+00 -0.00000000000E+00 -0.45593999997E+02  0.45594000000E+02  0.51100000000E-03 0. -1.
    9900012    2    1    2    0    0  0.11663071721E+02 -0.43296681959E+01 -0.13996761983E+02  0.72461478308E+02  0.69999880171E+02 0.  0.
        -12    1    1    2    0    0 -0.11663071721E+02  0.43296681959E+01  0.13996761983E+02  0.18726521692E+02  0.00000000000E+00 0.  1.
         11    1    3    3    0    0 -0.19191585640E+01 -0.28935592674E+02 -0.16742192837E+02  0.33485111830E+02  0.51100000000E-03 0. -1.
        -11    1    3    3    0    0  0.12903518346E+02  0.20151110601E+02 -0.96395503672E+01  0.25797073007E+02  0.51100000000E-03 0.  1.
        -12    1    3    3    0    0  0.67871193876E+00  0.44548138775E+01  0.12384981221E+02  0.13179293472E+02  0.00000000000E+00 0.  1.
</event>
<event>
 7    1  0.1884848E-013  0.7246158E+02  0.7816164E-02  0.1226708E+00
        -11   -1    0    0    0    0  0.00000000000E+00  0.00000000000E+00  0.45593999997E+02  0.45594000000E+02  0.51100000000E-03 0. -1.
         11   -1    0    0    0    0 -0.00000000000E+00 -0.00000000000E+00 -0.45593999997E+02  0.45594000000E+02  0.51100000000E-03 0.  1.
    9900012    2    1    2    0    0  0.10954309692E+02  0.11654497874E+02  0.97393400832E+01  0.72461575708E+02  0.70000007052E+02 0.  0.
        -12    1    1    2    0    0 -0.10954309692E+02 -0.11654497874E+02 -0.97393400832E+01  0.18726424292E+02  0.00000000000E+00 0.  1.
         11    1    3    3    0    0  0.10486994546E+02  0.28143443309E+02 -0.14452969213E+02  0.33330448170E+02  0.51100000000E-03 0.  1.
        -11    1    3    3    0    0  0.13008944038E+02 -0.10971379437E+02  0.12440839138E+02  0.21080281556E+02  0.51100000000E-03 0. -1.
         12    1    3    3    0    0 -0.12541628892E+02 -0.55175659978E+01  0.11751470158E+02  0.18050845982E+02  0.00000000000E+00 0. -1.
</event>
<event>
 7    1  0.1884848E-013  0.7246159E+02  0.7816164E-02  0.1226708E+00
        -11   -1    0    0    0    0  0.00000000000E+00  0.00000000000E+00  0.45593999997E+02  0.45594000000E+02  0.51100000000E-03 0. -1.
         11   -1    0    0    0    0 -0.00000000000E+00 -0.00000000000E+00 -0.45593999997E+02  0.45594000000E+02  0.51100000000E-03 0.  1.
    9900012    2    1    2    0    0  0.12140927164E+02  0.91187991036E+01  0.10960108340E+02  0.72461585920E+02  0.70000020355E+02 0.  0.
        -12    1    1    2    0    0 -0.12140927164E+02 -0.91187991036E+01 -0.10960108340E+02  0.18726414080E+02  0.00000000000E+00 0.  1.
         11    1    3    3    0    0 -0.90560313905E+01 -0.11891945492E+00  0.38802554900E+01  0.98530314783E+01  0.51100000000E-03 0. -1.
        -11    1    3    3    0    0  0.27253271774E+02  0.84973813516E+00  0.28115982242E+02  0.39165946114E+02  0.51100000000E-03 0.  1.
        -12    1    3    3    0    0 -0.60563132193E+01  0.83879804234E+01 -0.21036129392E+02  0.23442608328E+02  0.00000000000E+00 0.  1.
</event>
<event>
 7    1  0.1884848E-013  0.7246168E+02  0.7816164E-02  0.1226708E+00
        -11   -1    0    0    0    0  0.00000000000E+00  0.00000000000E+00  0.45593999997E+02  0.45594000000E+02  0.51100000000E-03 0. -1.
         11   -1    0    0    0    0 -0.00000000000E+00 -0.00000000000E+00 -0.45593999997E+02  0.45594000000E+02  0.51100000000E-03 0.  1.
    9900012    2    1    2    0    0  0.38256992113E+01 -0.17080033595E+02  0.66567042067E+01  0.72461675401E+02  0.70000136921E+02 0.  0.
        -12    1    1    2    0    0 -0.38256992113E+01  0.17080033595E+02 -0.66567042067E+01  0.18726324599E+02  0.00000000000E+00 0.  1.
         11    1    3    3    0    0 -0.34343570917E+01 -0.32165370227E+02 -0.19658118807E+02  0.37852971954E+02  0.51100000000E-03 0.  1.
        -11    1    3    3    0    0 -0.33435691974E+01  0.21053817001E+00  0.83092005465E+01  0.89591626441E+01  0.51100000000E-03 0. -1.
         12    1    3    3    0    0  0.10603625500E+02  0.14874798461E+02  0.18005622467E+02  0.25649540804E+02  0.00000000000E+00 0. -1.
</event>
<event>
 7    1  0.3084437E-013  0.7246175E+02  0.7816164E-02  0.1226708E+00
        -11   -1    0    0    0    0  0.00000000000E+00  0.00000000000E+00  0.45593999997E+02  0.45594000000E+02  0.51100000000E-03 0. -1.
         11   -1    0    0    0    0 -0.00000000000E+00 -0.00000000000E+00 -0.45593999997E+02  0.45594000000E+02  0.51100000000E-03 0.  1.
    9900012    2    1    2    0    0  0.49236652575E+01  0.13230348120E+02  0.12303972122E+02  0.72461753154E+02  0.70000238208E+02 0.  0.
        -12    1    1    2    0    0 -0.49236652575E+01 -0.13230348120E+02 -0.12303972122E+02  0.18726246846E+02  0.00000000000E+00 0.  1.
         11    1    3    3    0    0  0.27521664394E+02  0.37864459037E+01  0.24509959181E+02  0.37047500360E+02  0.51100000000E-03 0. -1.
        -11    1    3    3    0    0  0.12013910233E+01  0.14210319336E+01 -0.10034155302E+02  0.10205241057E+02  0.51100000000E-03 0.  1.
         12    1    3    3    0    0 -0.23799390160E+02  0.80228702831E+01 -0.21718317572E+01  0.25209011737E+02  0.00000000000E+00 0. -1.
</event>
<event>
 7    1  0.1884848E-013  0.7246158E+02  0.7816164E-02  0.1226708E+00
        -11   -1    0    0    0    0  0.00000000000E+00  0.00000000000E+00  0.45593999997E+02  0.45594000000E+02  0.51100000000E-03 0.  1.
         11   -1    0    0    0    0 -0.00000000000E+00 -0.00000000000E+00 -0.45593999997E+02  0.45594000000E+02  0.51100000000E-03 0. -1.
    9900012    2    1    2    0    0  0.44897128875E+01  0.77134906122E+01 -0.16462788130E+02  0.72461578765E+02  0.70000011035E+02 0.  0.
        -12    1    1    2    0    0 -0.44897128875E+01 -0.77134906122E+01  0.16462788130E+02  0.18726421235E+02  0.00000000000E+00 0.  1.
         11    1    3    3    0    0 -0.72694820470E+01  0.42033136460E+01  0.25328976282E+02  0.26684644547E+02  0.51100000000E-03 0. -1.
        -11    1    3    3    0    0  0.13999996839E+02  0.87354444732E-01 -0.26794107507E+02  0.30231303969E+02  0.51100000000E-03 0.  1.
         12    1    3    3    0    0 -0.22408019050E+01  0.34228225214E+01 -0.14997656905E+02  0.15545630249E+02  0.00000000000E+00 0. -1.
</event>
<event>
 7    1  0.1884848E-013  0.7246156E+02  0.7816164E-02  0.1226708E+00
        -11   -1    0    0    0    0  0.00000000000E+00  0.00000000000E+00  0.45593999997E+02  0.45594000000E+02  0.51100000000E-03 0. -1.
         11   -1    0    0    0    0 -0.00000000000E+00 -0.00000000000E+00 -0.45593999997E+02  0.45594000000E+02  0.51100000000E-03 0.  1.
    9900012    2    1    2    0    0 -0.65996013155E+01 -0.16716666037E+02  0.52609955029E+01  0.72461555207E+02  0.69999980346E+02 0.  0.
        -12    1    1    2    0    0  0.65996013155E+01  0.16716666037E+02 -0.52609955029E+01  0.18726444793E+02  0.00000000000E+00 0.  1.
         11    1    3    3    0    0  0.15544736374E+02 -0.51073585751E+01 -0.13494857478E+02  0.21209316800E+02  0.51100000000E-03 0. -1.
        -11    1    3    3    0    0 -0.59988950546E+01 -0.25238783121E+02  0.14429074481E+02  0.29684694810E+02  0.51100000000E-03 0.  1.
        -12    1    3    3    0    0 -0.16145442634E+02  0.13629475659E+02  0.43267784995E+01  0.21567543597E+02  0.00000000000E+00 0.  1.
</event>
<event>
 7    1  0.1884848E-013  0.7246149E+02  0.7816164E-02  0.1226708E+00
        -11   -1    0    0    0    0  0.00000000000E+00  0.00000000000E+00  0.45593999997E+02  0.45594000000E+02  0.51100000000E-03 0. -1.
         11   -1    0    0    0    0 -0.00000000000E+00 -0.00000000000E+00 -0.45593999997E+02  0.45594000000E+02  0.51100000000E-03 0.  1.
    9900012    2    1    2    0    0  0.98473144393E+01  0.12151164430E+02  0.10298635414E+02  0.72461486975E+02  0.69999891461E+02 0.  0.
        -12    1    1    2    0    0 -0.98473144393E+01 -0.12151164430E+02 -0.10298635414E+02  0.18726513025E+02  0.00000000000E+00 0.  1.
         11    1    3    3    0    0 -0.67350143299E+01  0.87032111884E+01  0.26349376640E+02  0.28555138812E+02  0.51100000000E-03 0. -1.
        -11    1    3    3    0    0  0.10165809631E+02  0.20247684071E+02 -0.66396078128E+01  0.23609252167E+02  0.51100000000E-03 0.  1.
        -12    1    3    3    0    0  0.64165191378E+01 -0.16799730829E+02 -0.94111334131E+01  0.20297095996E+02  0.00000000000E+00 0.  1.
</event>
<event>
 7    1  0.1884848E-013  0.7246164E+02  0.7816164E-02  0.1226708E+00
        -11   -1    0    0    0    0  0.00000000000E+00  0.00000000000E+00  0.45593999997E+02  0.45594000000E+02  0.51100000000E-03 0. -1.
         11   -1    0    0    0    0 -0.00000000000E+00 -0.00000000000E+00 -0.45593999997E+02  0.45594000000E+02  0.51100000000E-03 0.  1.
    9900012    2    1    2    0    0 -0.16082552142E+02 -0.41854094664E+01  0.86319510501E+01  0.72461635838E+02  0.70000085382E+02 0.  0.
        -12    1    1    2    0    0  0.16082552142E+02  0.41854094664E+01 -0.86319510501E+01  0.18726364162E+02  0.00000000000E+00 0.  1.
         11    1    3    3    0    0 -0.30491007152E+02  0.42003099897E+01  0.23452397120E+02  0.38695723951E+02  0.51100000000E-03 0. -1.
        -11    1    3    3    0    0  0.18282595484E+02  0.80587945814E+00 -0.34188596254E+01  0.18616963789E+02  0.51100000000E-03 0.  1.
        -12    1    3    3    0    0 -0.38741404744E+01 -0.91915989143E+01 -0.11401586445E+02  0.15148948098E+02  0.00000000000E+00 0.  1.
</event>
<event>
 7    1  0.1884848E-013  0.7246165E+02  0.7816164E-02  0.1226708E+00
        -11   -1    0    0    0    0  0.00000000000E+00  0.00000000000E+00  0.45593999997E+02  0.45594000000E+02  0.51100000000E-03 0. -1.
         11   -1    0    0    0    0 -0.00000000000E+00 -0.00000000000E+00 -0.45593999997E+02  0.45594000000E+02  0.51100000000E-03 0.  1.
    9900012    2    1    2    0    0 -0.81560832171E+01  0.15491652163E+02 -0.66455395395E+01  0.72461650223E+02  0.70000104122E+02 0.  0.
        -12    1    1    2    0    0  0.81560832171E+01 -0.15491652163E+02  0.66455395395E+01  0.18726349777E+02  0.00000000000E+00 0.  1.
         11    1    3    3    0    0 -0.18975652874E+02  0.30918293674E+02 -0.12645383755E+02  0.38417730494E+02  0.51100000000E-03 0.  1.
        -11    1    3    3    0    0  0.42112318613E+01 -0.22604679780E+02  0.74709639984E+01  0.24176875834E+02  0.51100000000E-03 0. -1.
         12    1    3    3    0    0  0.66083377960E+01  0.71780382694E+01 -0.14711197833E+01  0.98670438957E+01  0.00000000000E+00 0. -1.
</event>
<event>
 7    1  0.1884848E-013  0.7246153E+02  0.7816164E-02  0.1226708E+00
        -11   -1    0    0    0    0  0.00000000000E+00  0.00000000000E+00  0.45593999997E+02  0.45594000000E+02  0.51100000000E-03 0.  1.
         11   -1    0    0    0    0 -0.00000000000E+00 -0.00000000000E+00 -0.45593999997E+02  0.45594000000E+02  0.51100000000E-03 0. -1.
    9900012    2    1    2    0    0 -0.83890962139E+01 -0.14751587040E+02 -0.79179696496E+01  0.72461534801E+02  0.69999953763E+02 0.  0.
        -12    1    1    2    0    0  0.83890962139E+01  0.14751587040E+02  0.79179696496E+01  0.18726465199E+02  0.00000000000E+00 0.  1.
         11    1    3    3    0    0 -0.38792447315E+01  0.45426212726E+01 -0.19442283974E+02  0.20339281062E+02  0.51100000000E-03 0. -1.
        -11    1    3    3    0    0  0.10731413662E+02  0.10100019740E+02  0.12005562160E+02  0.19008081465E+02  0.51100000000E-03 0.  1.
        -12    1    3    3    0    0 -0.15241265144E+02 -0.29394228052E+02 -0.48124783529E+00  0.33114172275E+02  0.00000000000E+00 0.  1.
</event>
<event>
 7    1  0.1884848E-013  0.7246162E+02  0.7816164E-02  0.1226708E+00
        -11   -1    0    0    0    0  0.00000000000E+00  0.00000000000E+00  0.45593999997E+02  0.45594000000E+02  0.51100000000E-03 0.  1.
         11   -1    0    0    0    0 -0.00000000000E+00 -0.00000000000E+00 -0.45593999997E+02  0.45594000000E+02  0.51100000000E-03 0. -1.
    9900012    2    1    2    0    0 -0.11248755349E+02 -0.34527510331E+00 -0.14967423460E+02  0.72461615490E+02  0.70000058875E+02 0.  0.
        -12    1    1    2    0    0  0.11248755349E+02  0.34527510331E+00  0.14967423460E+02  0.18726384510E+02  0.00000000000E+00 0.  1.
         11    1    3    3    0    0  0.33676110122E+01  0.18882218334E+02  0.54631360297E+01  0.19943039605E+02  0.51100000000E-03 0.  1.
        -11    1    3    3    0    0  0.50158035633E+01 -0.19144919409E+02 -0.25464622899E+02  0.32251096791E+02  0.51100000000E-03 0. -1.
        -12    1    3    3    0    0 -0.19632169924E+02 -0.82574029180E-01  0.50340634095E+01  0.20267479094E+02  0.00000000000E+00 0.  1.
</event>
<event>
 7    1  0.1884848E-013  0.7246157E+02  0.7816164E-02  0.1226708E+00
        -11   -1    0    0    0    0  0.00000000000E+00  0.00000000000E+00  0.45593999997E+02  0.45594000000E+02  0.51100000000E-03 0.  1.
         11   -1    0    0    0    0 -0.00000000000E+00 -0.00000000000E+00 -0.45593999997E+02  0.45594000000E+02  0.51100000000E-03 0. -1.
    9900012    2    1    2    0    0 -0.13435097941E+02 -0.10305345872E+02 -0.79985785289E+01  0.72461567646E+02  0.69999996550E+02 0.  0.
        -12    1    1    2    0    0  0.13435097941E+02  0.10305345872E+02  0.79985785289E+01  0.18726432354E+02  0.00000000000E+00 0.  1.
         11    1    3    3    0    0 -0.25235181580E+02 -0.30950748305E+02 -0.17119226887E+02  0.43449178812E+02  0.51100000000E-03 0. -1.
        -11    1    3    3    0    0  0.43699505909E+01  0.98032744091E+01 -0.29879247249E+01  0.11141290398E+02  0.51100000000E-03 0.  1.
         12    1    3    3    0    0  0.74301330478E+01  0.10842128024E+02  0.12108573083E+02  0.17871098436E+02  0.00000000000E+00 0. -1.
</event>
<event>
 7    1  0.1884848E-013  0.7246157E+02  0.7816164E-02  0.1226708E+00
        -11   -1    0    0    0    0  0.00000000000E+00  0.00000000000E+00  0.45593999997E+02  0.45594000000E+02  0.51100000000E-03 0.  1.
         11   -1    0    0    0    0 -0.00000000000E+00 -0.00000000000E+00 -0.45593999997E+02  0.45594000000E+02  0.51100000000E-03 0. -1.
    9900012    2    1    2    0    0  0.54542372054E+01 -0.43834039522E+01 -0.17369975830E+02  0.72461574980E+02  0.70000006103E+02 0.  0.
        -12    1    1    2    0    0 -0.54542372054E+01  0.43834039522E+01  0.17369975830E+02  0.18726425020E+02  0.00000000000E+00 0.  1.
         11    1    3    3    0    0 -0.18895092270E+02 -0.14434773628E+02 -0.97216750206E+01  0.25688483160E+02  0.51100000000E-03 0. -1.
        -11    1    3    3    0    0  0.33171847091E+02  0.11390723829E+01 -0.83073560848E+01  0.34215217239E+02  0.51100000000E-03 0.  1.
         12    1    3    3    0    0 -0.88225176158E+01  0.89122972931E+01  0.65905527520E+00  0.12557874580E+02  0.00000000000E+00 0. -1.
</event>
<event>
 7    1  0.1884848E-013  0.7246169E+02  0.7816164E-02  0.1226708E+00
        -11   -1    0    0    0    0  0.00000000000E+00  0.00000000000E+00  0.45593999997E+02  0.45594000000E+02  0.51100000000E-03 0. -1.
         11   -1    0    0    0    0 -0.00000000000E+00 -0.00000000000E+00 -0.45593999997E+02  0.45594000000E+02  0.51100000000E-03 0.  1.
    9900012    2    1    2    0    0 -0.13493467767E+02 -0.20528047564E-01  0.12984636101E+02  0.72461685134E+02  0.70000149600E+02 0.  0.
        -12    1    1    2    0    0  0.13493467767E+02  0.20528047564E-01 -0.12984636101E+02  0.18726314866E+02  0.00000000000E+00 0.  1.
         11    1    3    3    0    0 -0.21209538000E+02  0.22339551586E+02 -0.72642460180E+01  0.31649160142E+02  0.51100000000E-03 0.  1.
        -11    1    3    3    0    0  0.12742449395E+01 -0.23781714538E+02  0.51938303581E+01  0.24375592722E+02  0.51100000000E-03 0. -1.
        -12    1    3    3    0    0  0.64418252932E+01  0.14216349040E+01  0.15055051761E+02  0.16436932269E+02  0.00000000000E+00 0.  1.
</event>
<event>
 7    1  0.1884848E-013  0.7246154E+02  0.7816164E-02  0.1226708E+00
        -11   -1    0    0    0    0  0.00000000000E+00  0.00000000000E+00  0.45593999997E+02  0.45594000000E+02  0.51100000000E-03 0. -1.
         11   -1    0    0    0    0 -0.00000000000E+00 -0.00000000000E+00 -0.45593999997E+02  0.45594000000E+02  0.51100000000E-03 0.  1.
    9900012    2    1    2    0    0 -0.18332839734E+02 -0.64814488959E+00  0.37639140791E+01  0.72461544016E+02  0.69999965768E+02 0.  0.
        -12    1    1    2    0    0  0.18332839734E+02  0.64814488959E+00 -0.37639140791E+01  0.18726455984E+02  0.00000000000E+00 0.  1.
         11    1    3    3    0    0 -0.15159400301E+01  0.27514720093E+02  0.11097031656E+02  0.29706935349E+02  0.51100000000E-03 0. -1.
        -11    1    3    3    0    0 -0.20245751403E+02 -0.26083681192E+02 -0.13273872633E+02  0.35587140506E+02  0.51100000000E-03 0.  1.
         12    1    3    3    0    0  0.34288516995E+01 -0.20791837906E+01  0.59407550563E+01  0.71674681619E+01  0.00000000000E+00 0. -1.
</event>
<event>
 7    1  0.1884848E-013  0.7246159E+02  0.7816164E-02  0.1226708E+00
        -11   -1    0    0    0    0  0.00000000000E+00  0.00000000000E+00  0.45593999997E+02  0.45594000000E+02  0.51100000000E-03 0.  1.
         11   -1    0    0    0    0 -0.00000000000E+00 -0.00000000000E+00 -0.45593999997E+02  0.45594000000E+02  0.51100000000E-03 0. -1.
    9900012    2    1    2    0    0  0.19945484874E+01  0.11763962422E+02 -0.14432927796E+02  0.72461589765E+02  0.70000025364E+02 0.  0.
        -12    1    1    2    0    0 -0.19945484874E+01 -0.11763962422E+02  0.14432927796E+02  0.18726410235E+02  0.00000000000E+00 0.  1.
         11    1    3    3    0    0  0.26559149883E+02 -0.10925436604E+02 -0.12992389032E+02  0.31520719860E+02  0.51100000000E-03 0.  1.
        -11    1    3    3    0    0 -0.26029549803E+02  0.96446719211E+01 -0.24721020755E+00  0.27760012114E+02  0.51100000000E-03 0. -1.
        -12    1    3    3    0    0  0.14649484076E+01  0.13044727104E+02 -0.11933285571E+01  0.13180857791E+02  0.00000000000E+00 0.  1.
</event>
<event>
 7    1  0.1884848E-013  0.7246156E+02  0.7816164E-02  0.1226708E+00
        -11   -1    0    0    0    0  0.00000000000E+00  0.00000000000E+00  0.45593999997E+02  0.45594000000E+02  0.51100000000E-03 0.  1.
         11   -1    0    0    0    0 -0.00000000000E+00 -0.00000000000E+00 -0.45593999997E+02  0.45594000000E+02  0.51100000000E-03 0. -1.
    9900012    2    1    2    0    0 -0.64389241681E+01 -0.10169285829E+02 -0.14345922732E+02  0.72461558326E+02  0.69999984410E+02 0.  0.
        -12    1    1    2    0    0  0.64389241681E+01  0.10169285829E+02  0.14345922732E+02  0.18726441674E+02  0.00000000000E+00 0.  1.
         11    1    3    3    0    0 -0.19832942411E+01 -0.18765743022E+02  0.25089159331E+02  0.31393510212E+02  0.51100000000E-03 0.  1.
        -11    1    3    3    0    0  0.54383368793E+00  0.54874255534E+01 -0.21243504984E+02  0.21947530579E+02  0.51100000000E-03 0. -1.
        -12    1    3    3    0    0 -0.49994636149E+01  0.31090316393E+01 -0.18191577080E+02  0.19120517535E+02  0.00000000000E+00 0.  1.
</event>
<event>
 7    1  0.1884848E-013  0.7246155E+02  0.7816164E-02  0.1226708E+00
        -11   -1    0    0    0    0  0.00000000000E+00  0.00000000000E+00  0.45593999997E+02  0.45594000000E+02  0.51100000000E-03 0.  1.
         11   -1    0    0    0    0 -0.00000000000E+00 -0.00000000000E+00 -0.45593999997E+02  0.45594000000E+02  0.51100000000E-03 0. -1.
    9900012    2    1    2    0    0  0.22223943910E+01  0.17883072476E+02  0.50927861566E+01  0.72461553758E+02  0.69999978458E+02 0.  0.
        -12    1    1    2    0    0 -0.22223943910E+01 -0.17883072476E+02 -0.50927861566E+01  0.18726446242E+02  0.00000000000E+00 0.  1.
         11    1    3    3    0    0  0.19132127718E+02  0.64921118996E+01 -0.70974649587E+01  0.21414010297E+02  0.51100000000E-03 0. -1.
        -11    1    3    3    0    0 -0.74992586440E+01 -0.12843183396E+02  0.19042989840E+02  0.24162402659E+02  0.51100000000E-03 0.  1.
         12    1    3    3    0    0 -0.94104746826E+01  0.24234143973E+02 -0.68527387246E+01  0.26885140801E+02  0.00000000000E+00 0. -1.
</event>
<event>
 7    1  0.1884848E-013  0.7246143E+02  0.7816164E-02  0.1226708E+00
        -11   -1    0    0    0    0  0.00000000000E+00  0.00000000000E+00  0.45593999997E+02  0.45594000000E+02  0.51100000000E-03 0.  1.
         11   -1    0    0    0    0 -0.00000000000E+00 -0.00000000000E+00 -0.45593999997E+02  0.45594000000E+02  0.51100000000E-03 0. -1.
    9900012    2    1    2    0    0 -0.83406386131E+01 -0.12849679259E+02 -0.10770509412E+02  0.72461431106E+02  0.69999818681E+02 0.  0.
        -12    1    1    2    0    0  0.83406386131E+01  0.12849679259E+02  0.10770509412E+02  0.18726568894E+02  0.00000000000E+00 0.  1.
         11    1    3    3    0    0 -0.12750220026E+02 -0.30259969554E+00 -0.29322728017E+02  0.31976273327E+02  0.51100000000E-03 0. -1.
        -11    1    3    3    0    0  0.87168887791E+01  0.76717218691E+01  0.15832736826E+02  0.19634536462E+02  0.51100000000E-03 0.  1.
         12    1    3    3    0    0 -0.43073073663E+01 -0.20218801433E+02  0.27194817791E+01  0.20850621316E+02  0.00000000000E+00 0. -1.
</event>
<event>
 7    1  0.1884848E-013  0.7246157E+02  0.7816164E-02  0.1226708E+00
        -11   -1    0    0    0    0  0.00000000000E+00  0.00000000000E+00  0.45593999997E+02  0.45594000000E+02  0.51100000000E-03 0.  1.
         11   -1    0    0    0    0 -0.00000000000E+00 -0.00000000000E+00 -0.45593999997E+02  0.45594000000E+02  0.51100000000E-03 0. -1.
    9900012    2    1    2    0    0  0.17513050536E+02 -0.54030694317E+01 -0.38443659825E+01  0.72461568195E+02  0.69999997265E+02 0.  0.
        -12    1    1    2    0    0 -0.17513050536E+02  0.54030694317E+01  0.38443659825E+01  0.18726431805E+02  0.00000000000E+00 0.  1.
         11    1    3    3    0    0  0.66601802122E+01 -0.74073893191E+01 -0.73386246785E+01  0.12372664605E+02  0.51100000000E-03 0. -1.
        -11    1    3    3    0    0  0.26605956391E+02  0.11403854163E+02  0.20183565581E+02  0.35288824365E+02  0.51100000000E-03 0.  1.
        -12    1    3    3    0    0 -0.15753086068E+02 -0.93995342755E+01 -0.16689306885E+02  0.24800079225E+02  0.00000000000E+00 0.  1.
</event>
<event>
 7    1  0.1884848E-013  0.7246162E+02  0.7816164E-02  0.1226708E+00
        -11   -1    0    0    0    0  0.00000000000E+00  0.00000000000E+00  0.45593999997E+02  0.45594000000E+02  0.51100000000E-03 0. -1.
         11   -1    0    0    0    0 -0.00000000000E+00 -0.00000000000E+00 -0.45593999997E+02  0.45594000000E+02  0.51100000000E-03 0.  1.
    9900012    2    1    2    0    0  0.17219901982E+02 -0.30748601607E+01  0.66856234928E+01  0.72461618855E+02  0.70000063259E+02 0.  0.
        -12    1    1    2    0    0 -0.17219901982E+02  0.30748601607E+01 -0.66856234928E+01  0.18726381145E+02  0.00000000000E+00 0.  1.
         11    1    3    3    0    0  0.14914961333E+02 -0.20132235721E+02 -0.20115272755E+02  0.32130782514E+02  0.51100000000E-03 0. -1.
        -11    1    3    3    0    0 -0.10311715292E+02  0.54822706123E+01  0.16930140313E+02  0.20567362850E+02  0.51100000000E-03 0.  1.
         12    1    3    3    0    0  0.12616655942E+02  0.11575104948E+02  0.98707559348E+01  0.19763473491E+02  0.00000000000E+00 0. -1.
</event>
<event>
 7    1  0.1884848E-013  0.7246156E+02  0.7816164E-02  0.1226708E+00
        -11   -1    0    0    0    0  0.00000000000E+00  0.00000000000E+00  0.45593999997E+02  0.45594000000E+02  0.51100000000E-03 0.  1.
         11   -1    0    0    0    0 -0.00000000000E+00 -0.00000000000E+00 -0.45593999997E+02  0.45594000000E+02  0.51100000000E-03 0. -1.
    9900012    2    1    2    0    0 -0.45661480714E+01  0.10213780516E+02  0.15016945606E+02  0.72461556772E+02  0.69999982385E+02 0.  0.
        -12    1    1    2    0    0  0.45661480714E+01 -0.10213780516E+02 -0.15016945606E+02  0.18726443228E+02  0.00000000000E+00 0.  1.
         11    1    3    3    0    0  0.13377989863E+01  0.15127784170E+02 -0.15085895873E+02  0.21406163004E+02  0.51100000000E-03 0. -1.
        -11    1    3    3    0    0 -0.21206380397E+02 -0.11397371206E+02  0.21795991453E+02  0.32475773796E+02  0.51100000000E-03 0.  1.
         12    1    3    3    0    0  0.15302433340E+02  0.64833675520E+01  0.83068500270E+01  0.18579619972E+02  0.00000000000E+00 0. -1.
</event>
<event>
 7    1  0.1884848E-013  0.7246165E+02  0.7816164E-02  0.1226708E+00
        -11   -1    0    0    0    0  0.00000000000E+00  0.00000000000E+00  0.45593999997E+02  0.45594000000E+02  0.51100000000E-03 0. -1.
         11   -1    0    0    0    0 -0.00000000000E+00 -0.00000000000E+00 -0.45593999997E+02  0.45594000000E+02  0.51100000000E-03 0.  1.
    9900012    2    1    2    0    0  0.83760317087E+00  0.73539442468E+01  0.17201573581E+02  0.72461649349E+02  0.70000102983E+02 0.  0.
        -12    1    1    2    0    0 -0.83760317087E+00 -0.73539442468E+01 -0.17201573581E+02  0.18726350651E+02  0.00000000000E+00 0.  1.
         11    1    3    3    0    0 -0.59931493756E+01  0.40285558008E+01  0.78111517495E+01  0.10637725001E+02  0.51100000000E-03 0. -1.
        -11    1    3    3    0    0  0.26929350350E+02  0.45571247014E+01  0.24467200661E+02  0.36668804238E+02  0.51100000000E-03 0.  1.
        -12    1    3    3    0    0 -0.20098597803E+02 -0.12317362555E+01 -0.15076778829E+02  0.25155120110E+02  0.00000000000E+00 0.  1.
</event>
<event>
 7    1  0.1884848E-013  0.7246163E+02  0.7816164E-02  0.1226708E+00
        -11   -1    0    0    0    0  0.00000000000E+00  0.00000000000E+00  0.45593999997E+02  0.45594000000E+02  0.51100000000E-03 0.  1.
         11   -1    0    0    0    0 -0.00000000000E+00 -0.00000000000E+00 -0.45593999997E+02  0.45594000000E+02  0.51100000000E-03 0. -1.
    9900012    2    1    2    0    0  0.12014501163E+02  0.58939943345E+01 -0.13099223057E+02  0.72461626830E+02  0.70000073648E+02 0.  0.
        -12    1    1    2    0    0 -0.12014501163E+02 -0.58939943345E+01  0.13099223057E+02  0.18726373170E+02  0.00000000000E+00 0.  1.
         11    1    3    3    0    0 -0.27028750952E+00 -0.25504738352E+02 -0.84747060748E+01  0.26877227852E+02  0.51100000000E-03 0. -1.
        -11    1    3    3    0    0  0.17323120352E+02  0.47098772517E+01 -0.41237529705E+01  0.18419521744E+02  0.51100000000E-03 0.  1.
         12    1    3    3    0    0 -0.50383316793E+01  0.26688855434E+02 -0.50076401164E+00  0.27164877233E+02  0.00000000000E+00 0. -1.
</event>
<event>
 7    1  0.1884848E-013  0.7246157E+02  0.7816164E-02  0.1226708E+00
        -11   -1    0    0    0    0  0.00000000000E+00  0.00000000000E+00  0.45593999997E+02  0.45594000000E+02  0.51100000000E-03 0.  1.
         11   -1    0    0    0    0 -0.00000000000E+00 -0.00000000000E+00 -0.45593999997E+02  0.45594000000E+02  0.51100000000E-03 0. -1.
    9900012    2    1    2    0    0  0.18994032262E+01  0.12318854136E+02 -0.13975596336E+02  0.72461569674E+02  0.69999999191E+02 0.  0.
        -12    1    1    2    0    0 -0.18994032262E+01 -0.12318854136E+02  0.13975596336E+02  0.18726430326E+02  0.00000000000E+00 0.  1.
         11    1    3    3    0    0 -0.11043992572E+01  0.34829816332E+02 -0.23339168053E+01  0.34925391499E+02  0.51100000000E-03 0. -1.
        -11    1    3    3    0    0  0.63049527221E+01 -0.17872726680E+02  0.52870053877E+01  0.19675853579E+02  0.51100000000E-03 0.  1.
        -12    1    3    3    0    0 -0.33011502387E+01 -0.46382355162E+01 -0.16928684918E+02  0.17860324596E+02  0.00000000000E+00 0.  1.
</event>
<event>
 7    1  0.1884848E-013  0.7246164E+02  0.7816164E-02  0.1226708E+00
        -11   -1    0    0    0    0  0.00000000000E+00  0.00000000000E+00  0.45593999997E+02  0.45594000000E+02  0.51100000000E-03 0. -1.
         11   -1    0    0    0    0 -0.00000000000E+00 -0.00000000000E+00 -0.45593999997E+02  0.45594000000E+02  0.51100000000E-03 0.  1.
    9900012    2    1    2    0    0 -0.10586756927E+02  0.15442822398E+02 -0.34101053927E+00  0.72461642264E+02  0.70000093754E+02 0.  0.
        -12    1    1    2    0    0  0.10586756927E+02 -0.15442822398E+02  0.34101053927E+00  0.18726357736E+02  0.00000000000E+00 0.  1.
         11    1    3    3    0    0  0.80388440025E+01 -0.15684981495E+02  0.28885448031E+01  0.17860160938E+02  0.51100000000E-03 0. -1.
        -11    1    3    3    0    0 -0.15774738956E+02  0.29875445104E+02 -0.18840737686E+02  0.38682786948E+02  0.51100000000E-03 0.  1.
         12    1    3    3    0    0 -0.28508619736E+01  0.12523587891E+01  0.15611182344E+02  0.15918694378E+02  0.00000000000E+00 0. -1.
</event>
<event>
 7    1  0.1884848E-013  0.7246151E+02  0.7816164E-02  0.1226708E+00
        -11   -1    0    0    0    0  0.00000000000E+00  0.00000000000E+00  0.45593999997E+02  0.45594000000E+02  0.51100000000E-03 0.  1.
         11   -1    0    0    0    0 -0.00000000000E+00 -0.00000000000E+00 -0.45593999997E+02  0.45594000000E+02  0.51100000000E-03 0. -1.
    9900012    2    1    2    0    0 -0.21296574120E+01 -0.17168055350E+02  0.71696545127E+01  0.72461507776E+02  0.69999918558E+02 0.  0.
        -12    1    1    2    0    0  0.21296574120E+01  0.17168055350E+02 -0.71696545127E+01  0.18726492224E+02  0.00000000000E+00 0.  1.
         11    1    3    3    0    0 -0.11745860026E+02 -0.39221216465E+02 -0.84949434864E+01  0.41814269261E+02  0.51100000000E-03 0. -1.
        -11    1    3    3    0    0  0.76919441115E+01  0.51150139831E+01  0.45530488488E+01  0.10298525445E+02  0.51100000000E-03 0.  1.
         12    1    3    3    0    0  0.19242585022E+01  0.16938147132E+02  0.11111549150E+02  0.20348713069E+02  0.00000000000E+00 0. -1.
</event>
<event>
 7    1  0.1884848E-013  0.7246157E+02  0.7816164E-02  0.1226708E+00
        -11   -1    0    0    0    0  0.00000000000E+00  0.00000000000E+00  0.45593999997E+02  0.45594000000E+02  0.51100000000E-03 0. -1.
         11   -1    0    0    0    0 -0.00000000000E+00 -0.00000000000E+00 -0.45593999997E+02  0.45594000000E+02  0.51100000000E-03 0.  1.
    9900012    2    1    2    0    0 -0.87604120096E+01  0.16292034587E+02  0.29161484428E+01  0.72461571315E+02  0.70000001330E+02 0.  0.
        -12    1    1    2    0    0  0.87604120096E+01 -0.16292034587E+02 -0.29161484428E+01  0.18726428685E+02  0.00000000000E+00 0.  1.
         11    1    3    3    0    0 -0.24015799491E+02  0.77104192296E+01  0.27669101916E+02  0.37440464620E+02  0.51100000000E-03 0. -1.
        -11    1    3    3    0    0 -0.27331456935E+01  0.50186558986E+01 -0.98642781707E+01  0.11400042829E+02  0.51100000000E-03 0.  1.
         12    1    3    3    0    0  0.17988533175E+02  0.35629594586E+01 -0.14888675302E+02  0.23621063866E+02  0.00000000000E+00 0. -1.
</event>
<event>
 7    1  0.1884848E-013  0.7246155E+02  0.7816164E-02  0.1226708E+00
        -11   -1    0    0    0    0  0.00000000000E+00  0.00000000000E+00  0.45593999997E+02  0.45594000000E+02  0.51100000000E-03 0. -1.
         11   -1    0    0    0    0 -0.00000000000E+00 -0.00000000000E+00 -0.45593999997E+02  0.45594000000E+02  0.51100000000E-03 0.  1.
    9900012    2    1    2    0    0  0.87299063259E-01 -0.35540150274E+01  0.18385895517E+02  0.72461553517E+02  0.69999978144E+02 0.  0.
        -12    1    1    2    0    0 -0.87299063259E-01  0.35540150274E+01 -0.18385895517E+02  0.18726446483E+02  0.00000000000E+00 0.  1.
         11    1    3    3    0    0 -0.94018178277E+01 -0.16500763240E+02  0.23944763135E+02  0.30561757931E+02  0.51100000000E-03 0. -1.
        -11    1    3    3    0    0  0.73041792574E+01 -0.51239107016E+01 -0.17836698200E+02  0.19943753369E+02  0.51100000000E-03 0.  1.
         12    1    3    3    0    0  0.21849376336E+01  0.18070658914E+02  0.12277830581E+02  0.21956042217E+02  0.00000000000E+00 0. -1.
</event>
<event>
 7    1  0.1884848E-013  0.7246144E+02  0.7816164E-02  0.1226708E+00
        -11   -1    0    0    0    0  0.00000000000E+00  0.00000000000E+00  0.45593999997E+02  0.45594000000E+02  0.51100000000E-03 0.  1.
         11   -1    0    0    0    0 -0.00000000000E+00 -0.00000000000E+00 -0.45593999997E+02  0.45594000000E+02  0.51100000000E-03 0. -1.
    9900012    2    1    2    0    0  0.12091359052E+02  0.12425646195E+02  0.70771871563E+01  0.72461435309E+02  0.69999824156E+02 0.  0.
        -12    1    1    2    0    0 -0.12091359052E+02 -0.12425646195E+02 -0.70771871563E+01  0.18726564691E+02  0.00000000000E+00 0.  1.
         11    1    3    3    0    0  0.29130715770E+02  0.24247710017E+01 -0.17180799092E+02  0.33906606633E+02  0.51100000000E-03 0. -1.
        -11    1    3    3    0    0 -0.63415275553E+01  0.77494647654E+01  0.25649156749E+02  0.27534495057E+02  0.51100000000E-03 0.  1.
        -12    1    3    3    0    0 -0.10697829162E+02  0.22514104277E+01 -0.13911705005E+01  0.11020333619E+02  0.00000000000E+00 0.  1.
</event>
<event>
 7    1  0.1884848E-013  0.7246186E+02  0.7816164E-02  0.1226707E+00
        -11   -1    0    0    0    0  0.00000000000E+00  0.00000000000E+00  0.45593999997E+02  0.45594000000E+02  0.51100000000E-03 0.  1.
         11   -1    0    0    0    0 -0.00000000000E+00 -0.00000000000E+00 -0.45593999997E+02  0.45594000000E+02  0.51100000000E-03 0. -1.
    9900012    2    1    2    0    0 -0.45750893995E+01  0.15590844352E+02  0.93092596312E+01  0.72461863573E+02  0.70000382048E+02 0.  0.
        -12    1    1    2    0    0  0.45750893995E+01 -0.15590844352E+02 -0.93092596312E+01  0.18726136427E+02  0.00000000000E+00 0.  1.
         11    1    3    3    0    0  0.19419929630E+02  0.10018762529E+02  0.17497286742E+01  0.21921925557E+02  0.51100000000E-03 0. -1.
        -11    1    3    3    0    0 -0.22934524070E+02  0.85500539542E+01 -0.14370515057E+02  0.28383226036E+02  0.51100000000E-03 0.  1.
        -12    1    3    3    0    0 -0.10604949596E+01 -0.29779721310E+01  0.21930046014E+02  0.22156711980E+02  0.00000000000E+00 0.  1.
</event>
<event>
 7    1  0.1884848E-013  0.7246157E+02  0.7816164E-02  0.1226708E+00
        -11   -1    0    0    0    0  0.00000000000E+00  0.00000000000E+00  0.45593999997E+02  0.45594000000E+02  0.51100000000E-03 0. -1.
         11   -1    0    0    0    0 -0.00000000000E+00 -0.00000000000E+00 -0.45593999997E+02  0.45594000000E+02  0.51100000000E-03 0.  1.
    9900012    2    1    2    0    0  0.51615752953E+01 -0.16871895606E+02 -0.62750646557E+01  0.72461570620E+02  0.70000000425E+02 0.  0.
        -12    1    1    2    0    0 -0.51615752953E+01  0.16871895606E+02  0.62750646557E+01  0.18726429380E+02  0.00000000000E+00 0.  1.
         11    1    3    3    0    0  0.47264944533E+01 -0.24035815760E+01  0.25236121145E+02  0.25787182183E+02  0.51100000000E-03 0. -1.
        -11    1    3    3    0    0  0.14706833892E+02 -0.10009411328E+02 -0.24186954322E+02  0.30024790389E+02  0.51100000000E-03 0.  1.
        -12    1    3    3    0    0 -0.14271753050E+02 -0.44589027022E+01 -0.73242314789E+01  0.16649598049E+02  0.00000000000E+00 0.  1.
</event>
<event>
 7    1  0.1884848E-013  0.7246155E+02  0.7816164E-02  0.1226708E+00
        -11   -1    0    0    0    0  0.00000000000E+00  0.00000000000E+00  0.45593999997E+02  0.45594000000E+02  0.51100000000E-03 0.  1.
         11   -1    0    0    0    0 -0.00000000000E+00 -0.00000000000E+00 -0.45593999997E+02  0.45594000000E+02  0.51100000000E-03 0. -1.
    9900012    2    1    2    0    0 -0.10002798666E+02  0.10173964550E+02  0.12129078889E+02  0.72461545704E+02  0.69999967966E+02 0.  0.
        -12    1    1    2    0    0  0.10002798666E+02 -0.10173964550E+02 -0.12129078889E+02  0.18726454296E+02  0.00000000000E+00 0.  1.
         11    1    3    3    0    0 -0.44313943357E+01  0.10136114952E+02  0.32308365933E+02  0.34149796363E+02  0.51100000000E-03 0.  1.
        -11    1    3    3    0    0 -0.10415253880E+00 -0.15463420557E+02 -0.13645916792E+02  0.20623754954E+02  0.51100000000E-03 0. -1.
        -12    1    3    3    0    0 -0.54672517919E+01  0.15501270155E+02 -0.65333702520E+01  0.17687994386E+02  0.00000000000E+00 0.  1.
</event>
<event>
 7    1  0.1884848E-013  0.7246150E+02  0.7816164E-02  0.1226708E+00
        -11   -1    0    0    0    0  0.00000000000E+00  0.00000000000E+00  0.45593999997E+02  0.45594000000E+02  0.51100000000E-03 0.  1.
         11   -1    0    0    0    0 -0.00000000000E+00 -0.00000000000E+00 -0.45593999997E+02  0.45594000000E+02  0.51100000000E-03 0. -1.
    9900012    2    1    2    0    0 -0.84037576838E+01  0.81728590967E+01 -0.14603529121E+02  0.72461499211E+02  0.69999907401E+02 0.  0.
        -12    1    1    2    0    0  0.84037576838E+01 -0.81728590967E+01  0.14603529121E+02  0.18726500789E+02  0.00000000000E+00 0.  1.
         11    1    3    3    0    0 -0.14338370547E+02  0.14801544291E+02 -0.29198131115E+02  0.35738011196E+02  0.51100000000E-03 0. -1.
        -11    1    3    3    0    0  0.26683163614E+01  0.13090740302E+02  0.84679189196E+01  0.15817491740E+02  0.51100000000E-03 0.  1.
         12    1    3    3    0    0  0.32662965020E+01 -0.19719425496E+02  0.61266830748E+01  0.20905996275E+02  0.00000000000E+00 0. -1.
</event>
<event>
 7    1  0.1884848E-013  0.7246148E+02  0.7816164E-02  0.1226708E+00
        -11   -1    0    0    0    0  0.00000000000E+00  0.00000000000E+00  0.45593999997E+02  0.45594000000E+02  0.51100000000E-03 0.  1.
         11   -1    0    0    0    0 -0.00000000000E+00 -0.00000000000E+00 -0.45593999997E+02  0.45594000000E+02  0.51100000000E-03 0. -1.
    9900012    2    1    2    0    0  0.17025582046E+02 -0.77027891744E+01  0.12161801144E+01  0.72461481393E+02  0.69999884190E+02 0.  0.
        -12    1    1    2    0    0 -0.17025582046E+02  0.77027891744E+01 -0.12161801144E+01  0.18726518607E+02  0.00000000000E+00 0.  1.
         11    1    3    3    0    0  0.93050421315E+00 -0.13435317187E+02 -0.10587031574E+01  0.13509050249E+02  0.51100000000E-03 0. -1.
        -11    1    3    3    0    0 -0.11754795236E+02  0.21884660652E+02  0.83139642628E+01  0.26196098658E+02  0.51100000000E-03 0.  1.
        -12    1    3    3    0    0  0.27849873068E+02 -0.16152132639E+02 -0.60390809910E+01  0.32756332486E+02  0.00000000000E+00 0.  1.
</event>
<event>
 7    1  0.1884848E-013  0.7246160E+02  0.7816164E-02  0.1226708E+00
        -11   -1    0    0    0    0  0.00000000000E+00  0.00000000000E+00  0.45593999997E+02  0.45594000000E+02  0.51100000000E-03 0.  1.
         11   -1    0    0    0    0 -0.00000000000E+00 -0.00000000000E+00 -0.45593999997E+02  0.45594000000E+02  0.51100000000E-03 0. -1.
    9900012    2    1    2    0    0 -0.14338457646E+00  0.78507277527E+01 -0.17000691258E+02  0.72461601825E+02  0.70000041074E+02 0.  0.
        -12    1    1    2    0    0  0.14338457646E+00 -0.78507277527E+01  0.17000691258E+02  0.18726398175E+02  0.00000000000E+00 0.  1.
         11    1    3    3    0    0  0.32893509951E+02 -0.84438478434E+00 -0.18633697998E+02  0.37814159833E+02  0.51100000000E-03 0. -1.
        -11    1    3    3    0    0 -0.10170761208E+02  0.25640995595E+00 -0.45822357811E+00  0.10184306492E+02  0.51100000000E-03 0.  1.
         12    1    3    3    0    0 -0.22866133320E+02  0.84387025811E+01  0.20912303183E+01  0.24463135500E+02  0.00000000000E+00 0. -1.
</event>
<event>
 7    1  0.1884848E-013  0.7246158E+02  0.7816164E-02  0.1226708E+00
        -11   -1    0    0    0    0  0.00000000000E+00  0.00000000000E+00  0.45593999997E+02  0.45594000000E+02  0.51100000000E-03 0. -1.
         11   -1    0    0    0    0 -0.00000000000E+00 -0.00000000000E+00 -0.45593999997E+02  0.45594000000E+02  0.51100000000E-03 0.  1.
    9900012    2    1    2    0    0 -0.18256118543E+02 -0.29222604988E+01 -0.29754536895E+01  0.72461580285E+02  0.70000013015E+02 0.  0.
        -12    1    1    2    0    0  0.18256118543E+02  0.29222604988E+01  0.29754536895E+01  0.18726419715E+02  0.00000000000E+00 0.  1.
         11    1    3    3    0    0 -0.18813686833E+02  0.22296733354E+02  0.81637618605E+01  0.30294325186E+02  0.51100000000E-03 0. -1.
        -11    1    3    3    0    0 -0.90401333887E+01 -0.28020175284E+02 -0.36343839437E+01  0.29665855483E+02  0.51100000000E-03 0.  1.
         12    1    3    3    0    0  0.95977016788E+01  0.28011814308E+01 -0.75048316063E+01  0.12501399616E+02  0.00000000000E+00 0. -1.
</event>
<event>
 7    1  0.1884848E-013  0.7246164E+02  0.7816164E-02  0.1226708E+00
        -11   -1    0    0    0    0  0.00000000000E+00  0.00000000000E+00  0.45593999997E+02  0.45594000000E+02  0.51100000000E-03 0. -1.
         11   -1    0    0    0    0 -0.00000000000E+00 -0.00000000000E+00 -0.45593999997E+02  0.45594000000E+02  0.51100000000E-03 0.  1.
    9900012    2    1    2    0    0 -0.12772777096E+02  0.13301698896E+02 -0.32553616124E+01  0.72461644041E+02  0.70000096069E+02 0.  0.
        -12    1    1    2    0    0  0.12772777096E+02 -0.13301698896E+02  0.32553616124E+01  0.18726355959E+02  0.00000000000E+00 0.  1.
         11    1    3    3    0    0  0.13275337261E+02 -0.13631009824E+02  0.27719578509E+01  0.19228176170E+02  0.51100000000E-03 0. -1.
        -11    1    3    3    0    0 -0.16960407538E+02  0.31118079734E+02  0.76805091204E+01  0.36262660283E+02  0.51100000000E-03 0.  1.
        -12    1    3    3    0    0 -0.90877068185E+01 -0.41853710138E+01 -0.13707828584E+02  0.16970807589E+02  0.00000000000E+00 0.  1.
</event>
<event>
 7    1  0.1884848E-013  0.7246157E+02  0.7816164E-02  0.1226708E+00
        -11   -1    0    0    0    0  0.00000000000E+00  0.00000000000E+00  0.45593999997E+02  0.45594000000E+02  0.51100000000E-03 0.  1.
         11   -1    0    0    0    0 -0.00000000000E+00 -0.00000000000E+00 -0.45593999997E+02  0.45594000000E+02  0.51100000000E-03 0. -1.
    9900012    2    1    2    0    0 -0.53520157882E+01 -0.92900191333E+01 -0.15353516788E+02  0.72461574654E+02  0.70000005679E+02 0.  0.
        -12    1    1    2    0    0  0.53520157882E+01  0.92900191333E+01  0.15353516788E+02  0.18726425346E+02  0.00000000000E+00 0.  1.
         11    1    3    3    0    0  0.25483172006E+02 -0.21229996803E+01 -0.10517421245E+02  0.27649870398E+02  0.51100000000E-03 0. -1.
        -11    1    3    3    0    0 -0.87967920234E+01 -0.28335736240E+01  0.13125351926E+02  0.16052649402E+02  0.51100000000E-03 0.  1.
         12    1    3    3    0    0 -0.22038395771E+02 -0.43334458289E+01 -0.17961447469E+02  0.28759054853E+02  0.00000000000E+00 0. -1.
</event>
<event>
 7    1  0.1884848E-013  0.7246156E+02  0.7816164E-02  0.1226708E+00
        -11   -1    0    0    0    0  0.00000000000E+00  0.00000000000E+00  0.45593999997E+02  0.45594000000E+02  0.51100000000E-03 0.  1.
         11   -1    0    0    0    0 -0.00000000000E+00 -0.00000000000E+00 -0.45593999997E+02  0.45594000000E+02  0.51100000000E-03 0. -1.
    9900012    2    1    2    0    0 -0.32287097144E+01 -0.10073577137E+01 -0.18418475228E+02  0.72461559716E+02  0.69999986220E+02 0.  0.
        -12    1    1    2    0    0  0.32287097144E+01  0.10073577137E+01  0.18418475228E+02  0.18726440284E+02  0.00000000000E+00 0.  1.
         11    1    3    3    0    0  0.31136728457E+02 -0.36384940143E+01 -0.29361907005E+01  0.31485801781E+02  0.51100000000E-03 0. -1.
        -11    1    3    3    0    0 -0.23968501489E+02 -0.35888432408E+01 -0.45541709878E+01  0.24659872933E+02  0.51100000000E-03 0.  1.
         12    1    3    3    0    0 -0.10396936683E+02  0.62199795413E+01 -0.10928113539E+02  0.16315885003E+02  0.00000000000E+00 0. -1.
</event>
<event>
 7    1  0.1884848E-013  0.7246153E+02  0.7816164E-02  0.1226708E+00
        -11   -1    0    0    0    0  0.00000000000E+00  0.00000000000E+00  0.45593999997E+02  0.45594000000E+02  0.51100000000E-03 0. -1.
         11   -1    0    0    0    0 -0.00000000000E+00 -0.00000000000E+00 -0.45593999997E+02  0.45594000000E+02  0.51100000000E-03 0.  1.
    9900012    2    1    2    0    0 -0.42250827537E+01  0.71172420576E+00  0.18229721220E+02  0.72461531796E+02  0.69999949849E+02 0.  0.
        -12    1    1    2    0    0  0.42250827537E+01 -0.71172420576E+00 -0.18229721220E+02  0.18726468204E+02  0.00000000000E+00 0.  1.
         11    1    3    3    0    0  0.63476071536E+01 -0.54752112823E+01  0.27015909451E+02  0.28286558979E+02  0.51100000000E-03 0. -1.
        -11    1    3    3    0    0 -0.22928918216E+02  0.41807338419E+01 -0.17308767608E+02  0.29031142974E+02  0.51100000000E-03 0.  1.
        -12    1    3    3    0    0  0.12356228309E+02  0.20062016461E+01  0.85225793771E+01  0.15143829843E+02  0.00000000000E+00 0.  1.
</event>
<event>
 7    1  0.1884848E-013  0.7246162E+02  0.7816164E-02  0.1226708E+00
        -11   -1    0    0    0    0  0.00000000000E+00  0.00000000000E+00  0.45593999997E+02  0.45594000000E+02  0.51100000000E-03 0. -1.
         11   -1    0    0    0    0 -0.00000000000E+00 -0.00000000000E+00 -0.45593999997E+02  0.45594000000E+02  0.51100000000E-03 0.  1.
    9900012    2    1    2    0    0  0.17244490674E+02 -0.19209297061E+01  0.70437863960E+01  0.72461618707E+02  0.70000063067E+02 0.  0.
        -12    1    1    2    0    0 -0.17244490674E+02  0.19209297061E+01 -0.70437863960E+01  0.18726381293E+02  0.00000000000E+00 0.  1.
         11    1    3    3    0    0  0.74328671375E+01  0.27832883140E+01  0.10584632919E+01  0.80071563319E+01  0.51100000000E-03 0. -1.
        -11    1    3    3    0    0 -0.15728729259E+02  0.28253600919E+01  0.26428772909E+02  0.30884553121E+02  0.51100000000E-03 0.  1.
        -12    1    3    3    0    0  0.25540352795E+02 -0.75295781120E+01 -0.20443449805E+02  0.33569909255E+02  0.00000000000E+00 0.  1.
</event>
<event>
 7    1  0.1884848E-013  0.7246152E+02  0.7816164E-02  0.1226708E+00
        -11   -1    0    0    0    0  0.00000000000E+00  0.00000000000E+00  0.45593999997E+02  0.45594000000E+02  0.51100000000E-03 0.  1.
         11   -1    0    0    0    0 -0.00000000000E+00 -0.00000000000E+00 -0.45593999997E+02  0.45594000000E+02  0.51100000000E-03 0. -1.
    9900012    2    1    2    0    0 -0.93891711016E+01  0.14651621124E+02 -0.69176976640E+01  0.72461519378E+02  0.69999933672E+02 0.  0.
        -12    1    1    2    0    0  0.93891711016E+01 -0.14651621124E+02  0.69176976640E+01  0.18726480622E+02  0.00000000000E+00 0.  1.
         11    1    3    3    0    0  0.55840179375E+01 -0.19718147369E+02 -0.10920979108E+02  0.23221851281E+02  0.51100000000E-03 0. -1.
        -11    1    3    3    0    0 -0.91354081472E+01  0.21132277147E+02  0.17912805364E+02  0.29170145967E+02  0.51100000000E-03 0.  1.
        -12    1    3    3    0    0 -0.58377808918E+01  0.13237491345E+02 -0.13909523920E+02  0.20069522130E+02  0.00000000000E+00 0.  1.
</event>
<event>
 7    1  0.1884848E-013  0.7246156E+02  0.7816164E-02  0.1226708E+00
        -11   -1    0    0    0    0  0.00000000000E+00  0.00000000000E+00  0.45593999997E+02  0.45594000000E+02  0.51100000000E-03 0. -1.
         11   -1    0    0    0    0 -0.00000000000E+00 -0.00000000000E+00 -0.45593999997E+02  0.45594000000E+02  0.51100000000E-03 0.  1.
    9900012    2    1    2    0    0 -0.89219219447E+01  0.95376855745E+01  0.13420554727E+02  0.72461563434E+02  0.69999991063E+02 0.  0.
        -12    1    1    2    0    0  0.89219219447E+01 -0.95376855745E+01 -0.13420554727E+02  0.18726436566E+02  0.00000000000E+00 0.  1.
         11    1    3    3    0    0 -0.18870378635E+02  0.38163249512E+01  0.32883538723E+02  0.38104890043E+02  0.51100000000E-03 0. -1.
        -11    1    3    3    0    0 -0.35868285644E+01  0.24053549437E+01 -0.19950505662E+02  0.20412587978E+02  0.51100000000E-03 0.  1.
         12    1    3    3    0    0  0.13535285255E+02  0.33160056796E+01  0.48752166533E+00  0.13944085412E+02  0.00000000000E+00 0. -1.
</event>
<event>
 7    1  0.1884848E-013  0.7246153E+02  0.7816164E-02  0.1226708E+00
        -11   -1    0    0    0    0  0.00000000000E+00  0.00000000000E+00  0.45593999997E+02  0.45594000000E+02  0.51100000000E-03 0.  1.
         11   -1    0    0    0    0 -0.00000000000E+00 -0.00000000000E+00 -0.45593999997E+02  0.45594000000E+02  0.51100000000E-03 0. -1.
    9900012    2    1    2    0    0  0.14730415344E+02 -0.32831648073E+01 -0.11086757898E+02  0.72461534556E+02  0.69999953444E+02 0.  0.
        -12    1    1    2    0    0 -0.14730415344E+02  0.32831648073E+01  0.11086757898E+02  0.18726465444E+02  0.00000000000E+00 0.  1.
         11    1    3    3    0    0 -0.22686537883E+02 -0.41187240710E+01 -0.22793894454E+02  0.32422284215E+02  0.51100000000E-03 0. -1.
        -11    1    3    3    0    0  0.16673871506E+02 -0.36458403688E+01  0.52408846426E+01  0.17854327629E+02  0.51100000000E-03 0.  1.
         12    1    3    3    0    0  0.20743081720E+02  0.44813996325E+01  0.64662519132E+01  0.22184922712E+02  0.00000000000E+00 0. -1.
</event>
<event>
 7    1  0.1884848E-013  0.7246162E+02  0.7816164E-02  0.1226708E+00
        -11   -1    0    0    0    0  0.00000000000E+00  0.00000000000E+00  0.45593999997E+02  0.45594000000E+02  0.51100000000E-03 0.  1.
         11   -1    0    0    0    0 -0.00000000000E+00 -0.00000000000E+00 -0.45593999997E+02  0.45594000000E+02  0.51100000000E-03 0. -1.
    9900012    2    1    2    0    0 -0.10779693313E+02  0.21027182074E+01 -0.15167531488E+02  0.72461622261E+02  0.70000067696E+02 0.  0.
        -12    1    1    2    0    0  0.10779693313E+02 -0.21027182074E+01  0.15167531488E+02  0.18726377739E+02  0.00000000000E+00 0.  1.
         11    1    3    3    0    0 -0.20723308186E+02 -0.79022751697E+01 -0.16001530122E+02  0.27348682263E+02  0.51100000000E-03 0. -1.
        -11    1    3    3    0    0  0.14847989373E+02 -0.13844388388E+02  0.35657279189E+01  0.20611751359E+02  0.51100000000E-03 0.  1.
         12    1    3    3    0    0 -0.49043744998E+01  0.23849381765E+02 -0.27317292847E+01  0.24501188638E+02  0.00000000000E+00 0. -1.
</event>
<event>
 7    1  0.1884848E-013  0.7246158E+02  0.7816164E-02  0.1226708E+00
        -11   -1    0    0    0    0  0.00000000000E+00  0.00000000000E+00  0.45593999997E+02  0.45594000000E+02  0.51100000000E-03 0.  1.
         11   -1    0    0    0    0 -0.00000000000E+00 -0.00000000000E+00 -0.45593999997E+02  0.45594000000E+02  0.51100000000E-03 0. -1.
    9900012    2    1    2    0    0 -0.58955687281E+00  0.11817814613E+02 -0.14514495668E+02  0.72461577383E+02  0.70000009234E+02 0.  0.
        -12    1    1    2    0    0  0.58955687281E+00 -0.11817814613E+02  0.14514495668E+02  0.18726422617E+02  0.00000000000E+00 0.  1.
         11    1    3    3    0    0 -0.23216969428E+02  0.99946355289E+01  0.11187065996E+02  0.27641831608E+02  0.51100000000E-03 0. -1.
        -11    1    3    3    0    0 -0.48836843291E+01 -0.61425436349E+01 -0.76825318670E+01  0.10981917459E+02  0.51100000000E-03 0.  1.
         12    1    3    3    0    0  0.27511096885E+02  0.79657227192E+01 -0.18019029798E+02  0.33837828315E+02  0.00000000000E+00 0. -1.
</event>
<event>
 7    1  0.1884848E-013  0.7246157E+02  0.7816164E-02  0.1226708E+00
        -11   -1    0    0    0    0  0.00000000000E+00  0.00000000000E+00  0.45593999997E+02  0.45594000000E+02  0.51100000000E-03 0. -1.
         11   -1    0    0    0    0 -0.00000000000E+00 -0.00000000000E+00 -0.45593999997E+02  0.45594000000E+02  0.51100000000E-03 0.  1.
    9900012    2    1    2    0    0 -0.35422130818E+01 -0.15713963749E+02  0.95500484081E+01  0.72461565347E+02  0.69999993555E+02 0.  0.
        -12    1    1    2    0    0  0.35422130818E+01  0.15713963749E+02 -0.95500484081E+01  0.18726434653E+02  0.00000000000E+00 0.  1.
         11    1    3    3    0    0  0.30602290553E+02 -0.93741663303E+01  0.13668611771E+02  0.34802386836E+02  0.51100000000E-03 0. -1.
        -11    1    3    3    0    0 -0.26473396405E+02 -0.61268978044E+01  0.28126768109E+01  0.27318322515E+02  0.51100000000E-03 0.  1.
         12    1    3    3    0    0 -0.76711072300E+01 -0.21289961414E+00 -0.69312401742E+01  0.10340855996E+02  0.00000000000E+00 0. -1.
</event>
<event>
 7    1  0.1884848E-013  0.7246156E+02  0.7816164E-02  0.1226708E+00
        -11   -1    0    0    0    0  0.00000000000E+00  0.00000000000E+00  0.45593999997E+02  0.45594000000E+02  0.51100000000E-03 0. -1.
         11   -1    0    0    0    0 -0.00000000000E+00 -0.00000000000E+00 -0.45593999997E+02  0.45594000000E+02  0.51100000000E-03 0.  1.
    9900012    2    1    2    0    0 -0.10123554521E+02  0.14095012184E+02  0.70373107833E+01  0.72461562334E+02  0.69999989630E+02 0.  0.
        -12    1    1    2    0    0  0.10123554521E+02 -0.14095012184E+02 -0.70373107833E+01  0.18726437666E+02  0.00000000000E+00 0.  1.
         11    1    3    3    0    0  0.13599782267E+02  0.21602370060E+02  0.84461207828E+01  0.26887793261E+02  0.51100000000E-03 0. -1.
        -11    1    3    3    0    0 -0.21349112916E+02  0.67549832898E+01 -0.13993716427E+02  0.26405274497E+02  0.51100000000E-03 0.  1.
         12    1    3    3    0    0 -0.23742238713E+01 -0.14262341165E+02  0.12584906427E+02  0.19168494575E+02  0.00000000000E+00 0. -1.
</event>
<event>
 7    1  0.1884848E-013  0.7246160E+02  0.7816164E-02  0.1226708E+00
        -11   -1    0    0    0    0  0.00000000000E+00  0.00000000000E+00  0.45593999997E+02  0.45594000000E+02  0.51100000000E-03 0.  1.
         11   -1    0    0    0    0 -0.00000000000E+00 -0.00000000000E+00 -0.45593999997E+02  0.45594000000E+02  0.51100000000E-03 0. -1.
    9900012    2    1    2    0    0  0.18054873047E+02  0.26071275824E+00 -0.49630101443E+01  0.72461604682E+02  0.70000044797E+02 0.  0.
        -12    1    1    2    0    0 -0.18054873047E+02 -0.26071275824E+00  0.49630101443E+01  0.18726395318E+02  0.00000000000E+00 0.  1.
         11    1    3    3    0    0 -0.79998284667E+01  0.41483383159E+01 -0.68406457540E+01  0.11313726215E+02  0.51100000000E-03 0. -1.
        -11    1    3    3    0    0  0.34111896685E+02 -0.21957159056E+02 -0.32862196029E+01  0.40700584379E+02  0.51100000000E-03 0.  1.
        -12    1    3    3    0    0 -0.80571951708E+01  0.18069533498E+02  0.51638552125E+01  0.20447294088E+02  0.00000000000E+00 0.  1.
</event>
<event>
 7    1  0.1884848E-013  0.7246159E+02  0.7816164E-02  0.1226708E+00
        -11   -1    0    0    0    0  0.00000000000E+00  0.00000000000E+00  0.45593999997E+02  0.45594000000E+02  0.51100000000E-03 0.  1.
         11   -1    0    0    0    0 -0.00000000000E+00 -0.00000000000E+00 -0.45593999997E+02  0.45594000000E+02  0.51100000000E-03 0. -1.
    9900012    2    1    2    0    0  0.12313435735E+02  0.13681037506E+02 -0.34477599588E+01  0.72461587221E+02  0.70000022050E+02 0.  0.
        -12    1    1    2    0    0 -0.12313435735E+02 -0.13681037506E+02  0.34477599588E+01  0.18726412779E+02  0.00000000000E+00 0.  1.
         11    1    3    3    0    0 -0.12765749223E+02  0.68955029133E+01 -0.25112921808E+01  0.14724771724E+02  0.51100000000E-03 0.  1.
        -11    1    3    3    0    0  0.11558662727E+02 -0.22570920857E+02 -0.16095429886E+01  0.25409442758E+02  0.51100000000E-03 0. -1.
        -12    1    3    3    0    0  0.13520522230E+02  0.29356455450E+02  0.67307521057E+00  0.32327372739E+02  0.00000000000E+00 0.  1.
</event>
<event>
 7    1  0.1884848E-013  0.7246154E+02  0.7816164E-02  0.1226708E+00
        -11   -1    0    0    0    0  0.00000000000E+00  0.00000000000E+00  0.45593999997E+02  0.45594000000E+02  0.51100000000E-03 0.  1.
         11   -1    0    0    0    0 -0.00000000000E+00 -0.00000000000E+00 -0.45593999997E+02  0.45594000000E+02  0.51100000000E-03 0. -1.
    9900012    2    1    2    0    0  0.11838699986E+02  0.13107625338E+02  0.62221827443E+01  0.72461542314E+02  0.69999963550E+02 0.  0.
        -12    1    1    2    0    0 -0.11838699986E+02 -0.13107625338E+02 -0.62221827443E+01  0.18726457686E+02  0.00000000000E+00 0.  1.
         11    1    3    3    0    0  0.69048539898E+01  0.31965009911E+01 -0.33211147163E+01  0.83020738630E+01  0.51100000000E-03 0. -1.
        -11    1    3    3    0    0 -0.23856115496E+02  0.38139781971E+01 -0.12678125463E+02  0.27283613063E+02  0.51100000000E-03 0.  1.
        -12    1    3    3    0    0  0.28789961492E+02  0.60971461500E+01  0.22221422923E+02  0.36875855388E+02  0.00000000000E+00 0.  1.
</event>
<event>
 7    1  0.1884848E-013  0.7246137E+02  0.7816164E-02  0.1226709E+00
        -11   -1    0    0    0    0  0.00000000000E+00  0.00000000000E+00  0.45593999997E+02  0.45594000000E+02  0.51100000000E-03 0.  1.
         11   -1    0    0    0    0 -0.00000000000E+00 -0.00000000000E+00 -0.45593999997E+02  0.45594000000E+02  0.51100000000E-03 0. -1.
    9900012    2    1    2    0    0  0.47597878169E+01 -0.15303207960E+02 -0.96872499649E+01  0.72461372812E+02  0.69999742743E+02 0.  0.
        -12    1    1    2    0    0 -0.47597878169E+01  0.15303207960E+02  0.96872499649E+01  0.18726627188E+02  0.00000000000E+00 0.  1.
         11    1    3    3    0    0  0.16081279928E+02 -0.16120502404E+02 -0.12150441976E+02  0.25809134088E+02  0.51100000000E-03 0. -1.
        -11    1    3    3    0    0 -0.28511677158E+01 -0.93076593416E+01  0.21433716949E+02  0.23540728585E+02  0.51100000000E-03 0.  1.
        -12    1    3    3    0    0 -0.84703243955E+01  0.10124953785E+02 -0.18970524938E+02  0.23111510140E+02  0.00000000000E+00 0.  1.
</event>
<event>
 7    1  0.1884848E-013  0.7246150E+02  0.7816164E-02  0.1226708E+00
        -11   -1    0    0    0    0  0.00000000000E+00  0.00000000000E+00  0.45593999997E+02  0.45594000000E+02  0.51100000000E-03 0. -1.
         11   -1    0    0    0    0 -0.00000000000E+00 -0.00000000000E+00 -0.45593999997E+02  0.45594000000E+02  0.51100000000E-03 0.  1.
    9900012    2    1    2    0    0 -0.15872093631E+02 -0.51089611153E+01  0.85238963106E+01  0.72461504113E+02  0.69999913786E+02 0.  0.
        -12    1    1    2    0    0  0.15872093631E+02  0.51089611153E+01 -0.85238963106E+01  0.18726495887E+02  0.00000000000E+00 0.  1.
         11    1    3    3    0    0 -0.26420472411E+01  0.27300444012E+02  0.14615270973E+02  0.31078944685E+02  0.51100000000E-03 0. -1.
        -11    1    3    3    0    0 -0.38267225882E+01 -0.13107940251E+01 -0.78658422648E+01  0.88449681480E+01  0.51100000000E-03 0.  1.
         12    1    3    3    0    0 -0.94033238014E+01 -0.31098611102E+02  0.17744676019E+01  0.32537591279E+02  0.00000000000E+00 0. -1.
</event>
<event>
 7    1  0.1884848E-013  0.7246138E+02  0.7816164E-02  0.1226709E+00
        -11   -1    0    0    0    0  0.00000000000E+00  0.00000000000E+00  0.45593999997E+02  0.45594000000E+02  0.51100000000E-03 0. -1.
         11   -1    0    0    0    0 -0.00000000000E+00 -0.00000000000E+00 -0.45593999997E+02  0.45594000000E+02  0.51100000000E-03 0.  1.
    9900012    2    1    2    0    0 -0.12606276997E+02  0.13563990650E+02 -0.27903945959E+01  0.72461378199E+02  0.69999749760E+02 0.  0.
        -12    1    1    2    0    0  0.12606276997E+02 -0.13563990650E+02  0.27903945959E+01  0.18726621801E+02  0.00000000000E+00 0.  1.
         11    1    3    3    0    0 -0.25007937237E+02  0.17125430727E+02  0.31959533270E+00  0.30311374827E+02  0.51100000000E-03 0. -1.
        -11    1    3    3    0    0 -0.10514292269E+02 -0.11887666717E+02 -0.72007820289E+01  0.17427513419E+02  0.51100000000E-03 0.  1.
         12    1    3    3    0    0  0.22915952509E+02  0.83262266396E+01  0.40907921003E+01  0.24722489952E+02  0.00000000000E+00 0. -1.
</event>
<event>
 7    1  0.1884848E-013  0.7246156E+02  0.7816164E-02  0.1226708E+00
        -11   -1    0    0    0    0  0.00000000000E+00  0.00000000000E+00  0.45593999997E+02  0.45594000000E+02  0.51100000000E-03 0.  1.
         11   -1    0    0    0    0 -0.00000000000E+00 -0.00000000000E+00 -0.45593999997E+02  0.45594000000E+02  0.51100000000E-03 0. -1.
    9900012    2    1    2    0    0 -0.15140863682E+02 -0.90357278811E+01 -0.63078765070E+01  0.72461563142E+02  0.69999990683E+02 0.  0.
        -12    1    1    2    0    0  0.15140863682E+02  0.90357278811E+01  0.63078765070E+01  0.18726436858E+02  0.00000000000E+00 0.  1.
         11    1    3    3    0    0 -0.98137039678E+01  0.41012230493E+01  0.26264236258E+02  0.28336176922E+02  0.51100000000E-03 0.  1.
        -11    1    3    3    0    0 -0.99447848183E+01  0.19381110823E+01 -0.24284772505E+02  0.26313593360E+02  0.51100000000E-03 0. -1.
        -12    1    3    3    0    0  0.46176251044E+01 -0.15075062013E+02 -0.82873402601E+01  0.17811792860E+02  0.00000000000E+00 0.  1.
</event>
<event>
 7    1  0.1884848E-013  0.7246158E+02  0.7816164E-02  0.1226708E+00
        -11   -1    0    0    0    0  0.00000000000E+00  0.00000000000E+00  0.45593999997E+02  0.45594000000E+02  0.51100000000E-03 0. -1.
         11   -1    0    0    0    0 -0.00000000000E+00 -0.00000000000E+00 -0.45593999997E+02  0.45594000000E+02  0.51100000000E-03 0.  1.
    9900012    2    1    2    0    0 -0.31358796484E+01 -0.81815124993E+01  0.16550162696E+02  0.72461580876E+02  0.70000013785E+02 0.  0.
        -12    1    1    2    0    0  0.31358796484E+01  0.81815124993E+01 -0.16550162696E+02  0.18726419124E+02  0.00000000000E+00 0.  1.
         11    1    3    3    0    0  0.10370476865E+02 -0.24478291115E+02  0.20582087096E+02  0.33620764949E+02  0.51100000000E-03 0. -1.
        -11    1    3    3    0    0 -0.20361684441E+02  0.16782722138E+02 -0.11418683065E+02  0.28751422205E+02  0.51100000000E-03 0.  1.
         12    1    3    3    0    0  0.68553279278E+01 -0.48594352290E+00  0.73867586641E+01  0.10089393721E+02  0.00000000000E+00 0. -1.
</event>
<event>
 7    1  0.1884848E-013  0.7246157E+02  0.7816164E-02  0.1226708E+00
        -11   -1    0    0    0    0  0.00000000000E+00  0.00000000000E+00  0.45593999997E+02  0.45594000000E+02  0.51100000000E-03 0.  1.
         11   -1    0    0    0    0 -0.00000000000E+00 -0.00000000000E+00 -0.45593999997E+02  0.45594000000E+02  0.51100000000E-03 0. -1.
    9900012    2    1    2    0    0  0.13891276558E+02 -0.12436436500E+01  0.12496599249E+02  0.72461569301E+02  0.69999998706E+02 0.  0.
        -12    1    1    2    0    0 -0.13891276558E+02  0.12436436500E+01 -0.12496599249E+02  0.18726430699E+02  0.00000000000E+00 0.  1.
         11    1    3    3    0    0 -0.42636597392E+01  0.50452255098E+00 -0.18907349535E+02  0.19388687528E+02  0.51100000000E-03 0. -1.
        -11    1    3    3    0    0 -0.28189247508E+00 -0.21790300672E+01  0.34330080317E+02  0.34400320496E+02  0.51100000000E-03 0.  1.
         12    1    3    3    0    0  0.18436828773E+02  0.43086386625E+00 -0.29261315337E+01  0.18672561276E+02  0.00000000000E+00 0. -1.
</event>
<event>
 7    1  0.1884848E-013  0.7246157E+02  0.7816164E-02  0.1226708E+00
        -11   -1    0    0    0    0  0.00000000000E+00  0.00000000000E+00  0.45593999997E+02  0.45594000000E+02  0.51100000000E-03 0. -1.
         11   -1    0    0    0    0 -0.00000000000E+00 -0.00000000000E+00 -0.45593999997E+02  0.45594000000E+02  0.51100000000E-03 0.  1.
    9900012    2    1    2    0    0 -0.78804350032E+01  0.85171508629E+01  0.14698168235E+02  0.72461567769E+02  0.69999996710E+02 0.  0.
        -12    1    1    2    0    0  0.78804350032E+01 -0.85171508629E+01 -0.14698168235E+02  0.18726432231E+02  0.00000000000E+00 0.  1.
         11    1    3    3    0    0 -0.26244726357E+02 -0.19845895289E+02  0.10048689958E+02  0.34403799085E+02  0.51100000000E-03 0. -1.
        -11    1    3    3    0    0  0.36576676355E+01  0.45588501293E+01 -0.57575027944E+01  0.82042967841E+01  0.51100000000E-03 0.  1.
         12    1    3    3    0    0  0.14706623718E+02  0.23804196022E+02  0.10406981071E+02  0.29853471900E+02  0.00000000000E+00 0. -1.
</event>
<event>
 7    1  0.1884848E-013  0.7246155E+02  0.7816164E-02  0.1226708E+00
        -11   -1    0    0    0    0  0.00000000000E+00  0.00000000000E+00  0.45593999997E+02  0.45594000000E+02  0.51100000000E-03 0.  1.
         11   -1    0    0    0    0 -0.00000000000E+00 -0.00000000000E+00 -0.45593999997E+02  0.45594000000E+02  0.51100000000E-03 0. -1.
    9900012    2    1    2    0    0  0.38697287778E+01 -0.16732492111E+02 -0.74651673141E+01  0.72461553031E+02  0.69999977511E+02 0.  0.
        -12    1    1    2    0    0 -0.38697287778E+01  0.16732492111E+02  0.74651673141E+01  0.18726446969E+02  0.00000000000E+00 0.  1.
         11    1    3    3    0    0 -0.15339236387E+02 -0.19174620532E+02  0.12628347712E+02  0.27612196792E+02  0.51100000000E-03 0. -1.
        -11    1    3    3    0    0  0.23659926554E+02  0.14132653845E+02 -0.13042929522E+02  0.30490031814E+02  0.51100000000E-03 0.  1.
        -12    1    3    3    0    0 -0.44509613893E+01 -0.11690525424E+02 -0.70505855041E+01  0.14359324425E+02  0.00000000000E+00 0.  1.
</event>
<event>
 7    1  0.1884848E-013  0.7246157E+02  0.7816164E-02  0.1226708E+00
        -11   -1    0    0    0    0  0.00000000000E+00  0.00000000000E+00  0.45593999997E+02  0.45594000000E+02  0.51100000000E-03 0. -1.
         11   -1    0    0    0    0 -0.00000000000E+00 -0.00000000000E+00 -0.45593999997E+02  0.45594000000E+02  0.51100000000E-03 0.  1.
    9900012    2    1    2    0    0 -0.15677532024E+02  0.10008022080E+02 -0.21757251869E+01  0.72461566907E+02  0.69999995587E+02 0.  0.
        -12    1    1    2    0    0  0.15677532024E+02 -0.10008022080E+02  0.21757251869E+01  0.18726433093E+02  0.00000000000E+00 0.  1.
         11    1    3    3    0    0  0.61152394679E+01  0.50269537823E+01  0.45449293557E+00  0.79292485249E+01  0.51100000000E-03 0.  1.
        -11    1    3    3    0    0 -0.38211889441E+02  0.16773577147E+02 -0.10177230921E+02  0.42954364323E+02  0.51100000000E-03 0. -1.
        -12    1    3    3    0    0  0.16419117949E+02 -0.11792508849E+02  0.75470127990E+01  0.21577954059E+02  0.00000000000E+00 0.  1.
</event>
<event>
 7    1  0.1884848E-013  0.7246154E+02  0.7816164E-02  0.1226708E+00
        -11   -1    0    0    0    0  0.00000000000E+00  0.00000000000E+00  0.45593999997E+02  0.45594000000E+02  0.51100000000E-03 0.  1.
         11   -1    0    0    0    0 -0.00000000000E+00 -0.00000000000E+00 -0.45593999997E+02  0.45594000000E+02  0.51100000000E-03 0. -1.
    9900012    2    1    2    0    0 -0.76791967087E+01 -0.93920506915E+01 -0.14265334455E+02  0.72461536228E+02  0.69999955622E+02 0.  0.
        -12    1    1    2    0    0  0.76791967087E+01  0.93920506915E+01  0.14265334455E+02  0.18726463772E+02  0.00000000000E+00 0.  1.
         11    1    3    3    0    0  0.54241899294E+01 -0.17468836291E+02 -0.11153474359E+02  0.21423866791E+02  0.51100000000E-03 0. -1.
        -11    1    3    3    0    0  0.14638466268E+02  0.14661282969E+02  0.51571188283E+01  0.21350264351E+02  0.51100000000E-03 0.  1.
        -12    1    3    3    0    0 -0.27741852906E+02 -0.65844973697E+01 -0.82689789244E+01  0.29687405086E+02  0.00000000000E+00 0.  1.
</event>
<event>
 7    1  0.1884848E-013  0.7246159E+02  0.7816164E-02  0.1226708E+00
        -11   -1    0    0    0    0  0.00000000000E+00  0.00000000000E+00  0.45593999997E+02  0.45594000000E+02  0.51100000000E-03 0.  1.
         11   -1    0    0    0    0 -0.00000000000E+00 -0.00000000000E+00 -0.45593999997E+02  0.45594000000E+02  0.51100000000E-03 0. -1.
    9900012    2    1    2    0    0  0.71699677571E+01  0.16165444759E+02 -0.61602130813E+01  0.72461594389E+02  0.70000031388E+02 0.  0.
        -12    1    1    2    0    0 -0.71699677571E+01 -0.16165444759E+02  0.61602130813E+01  0.18726405611E+02  0.00000000000E+00 0.  1.
         11    1    3    3    0    0  0.97660116569E+01  0.18423797817E+02  0.92639735252E+01  0.22817373105E+02  0.51100000000E-03 0. -1.
        -11    1    3    3    0    0 -0.13976680293E+02 -0.15342184515E+02 -0.22772204729E+02  0.30810769646E+02  0.51100000000E-03 0.  1.
        -12    1    3    3    0    0  0.11380636393E+02  0.13083831457E+02  0.73480181222E+01  0.18833451639E+02  0.00000000000E+00 0.  1.
</event>
<event>
 7    1  0.1884848E-013  0.7246153E+02  0.7816164E-02  0.1226708E+00
        -11   -1    0    0    0    0  0.00000000000E+00  0.00000000000E+00  0.45593999997E+02  0.45594000000E+02  0.51100000000E-03 0. -1.
         11   -1    0    0    0    0 -0.00000000000E+00 -0.00000000000E+00 -0.45593999997E+02  0.45594000000E+02  0.51100000000E-03 0.  1.
    9900012    2    1    2    0    0 -0.40938311865E+01 -0.17372034497E+02 -0.56686568713E+01  0.72461529242E+02  0.69999946521E+02 0.  0.
        -12    1    1    2    0    0  0.40938311865E+01  0.17372034497E+02  0.56686568713E+01  0.18726470758E+02  0.00000000000E+00 0.  1.
         11    1    3    3    0    0 -0.17758873933E+02 -0.18384193875E+02  0.13692799873E+02  0.28997395683E+02  0.51100000000E-03 0. -1.
        -11    1    3    3    0    0  0.24192342116E+01  0.18050251317E+02 -0.65059709330E+01  0.19338870826E+02  0.51100000000E-03 0.  1.
         12    1    3    3    0    0  0.11245808535E+02 -0.17038091939E+02 -0.12855485811E+02  0.24125262733E+02  0.00000000000E+00 0. -1.
</event>
<event>
 7    1  0.1884848E-013  0.7246228E+02  0.7816164E-02  0.1226706E+00
        -11   -1    0    0    0    0  0.00000000000E+00  0.00000000000E+00  0.45593999997E+02  0.45594000000E+02  0.51100000000E-03 0.  1.
         11   -1    0    0    0    0 -0.00000000000E+00 -0.00000000000E+00 -0.45593999997E+02  0.45594000000E+02  0.51100000000E-03 0. -1.
    9900012    2    1    2    0    0 -0.73170129149E+01  0.73291819566E+01 -0.15601186709E+02  0.72462279376E+02  0.70000923705E+02 0.  0.
        -12    1    1    2    0    0  0.73170129149E+01 -0.73291819566E+01  0.15601186709E+02  0.18725720624E+02  0.00000000000E+00 0.  1.
         11    1    3    3    0    0  0.49892790844E+01 -0.20915422382E+02 -0.23624199883E+02  0.31944492789E+02  0.51100000000E-03 0. -1.
        -11    1    3    3    0    0 -0.79720035145E+01  0.95762469605E+01  0.15551222011E+02  0.19927314224E+02  0.51100000000E-03 0.  1.
        -12    1    3    3    0    0 -0.43342884849E+01  0.18668357378E+02 -0.75282088364E+01  0.20590472363E+02  0.00000000000E+00 0.  1.
</event>
<event>
 7    1  0.1884848E-013  0.7246156E+02  0.7816164E-02  0.1226708E+00
        -11   -1    0    0    0    0  0.00000000000E+00  0.00000000000E+00  0.45593999997E+02  0.45594000000E+02  0.51100000000E-03 0.  1.
         11   -1    0    0    0    0 -0.00000000000E+00 -0.00000000000E+00 -0.45593999997E+02  0.45594000000E+02  0.51100000000E-03 0. -1.
    9900012    2    1    2    0    0  0.17711169605E+02  0.55542734748E+01 -0.24787491769E+01  0.72461556662E+02  0.69999982241E+02 0.  0.
        -12    1    1    2    0    0 -0.17711169605E+02 -0.55542734748E+01  0.24787491769E+01  0.18726443338E+02  0.00000000000E+00 0.  1.
         11    1    3    3    0    0  0.12403752972E-01  0.22641178509E+02 -0.37841146312E+01  0.22955231254E+02  0.51100000000E-03 0. -1.
        -11    1    3    3    0    0 -0.24832619695E+01 -0.26630653075E+02 -0.24875059846E+01  0.26861607538E+02  0.51100000000E-03 0.  1.
        -12    1    3    3    0    0  0.20182027822E+02  0.95437480414E+01  0.37928714390E+01  0.22644717870E+02  0.00000000000E+00 0.  1.
</event>
<event>
 7    1  0.1884848E-013  0.7246157E+02  0.7816164E-02  0.1226708E+00
        -11   -1    0    0    0    0  0.00000000000E+00  0.00000000000E+00  0.45593999997E+02  0.45594000000E+02  0.51100000000E-03 0.  1.
         11   -1    0    0    0    0 -0.00000000000E+00 -0.00000000000E+00 -0.45593999997E+02  0.45594000000E+02  0.51100000000E-03 0. -1.
    9900012    2    1    2    0    0 -0.28817766936E+01 -0.11513666535E+02  0.14484816981E+02  0.72461572765E+02  0.70000003219E+02 0.  0.
        -12    1    1    2    0    0  0.28817766936E+01  0.11513666535E+02 -0.14484816981E+02  0.18726427235E+02  0.00000000000E+00 0.  1.
         11    1    3    3    0    0  0.21802973191E+02 -0.13203784135E+02 -0.41883134048E+01  0.25831212223E+02  0.51100000000E-03 0. -1.
        -11    1    3    3    0    0 -0.19660530498E+02 -0.57805048115E+01  0.27317252927E+02  0.34149421709E+02  0.51100000000E-03 0.  1.
         12    1    3    3    0    0 -0.50242193868E+01  0.74706224112E+01 -0.86441225413E+01  0.12480938834E+02  0.00000000000E+00 0. -1.
</event>
<event>
 7    1  0.1884848E-013  0.7246156E+02  0.7816164E-02  0.1226708E+00
        -11   -1    0    0    0    0  0.00000000000E+00  0.00000000000E+00  0.45593999997E+02  0.45594000000E+02  0.51100000000E-03 0. -1.
         11   -1    0    0    0    0 -0.00000000000E+00 -0.00000000000E+00 -0.45593999997E+02  0.45594000000E+02  0.51100000000E-03 0.  1.
    9900012    2    1    2    0    0 -0.30538195205E+01  0.17730811495E+02  0.51934676627E+01  0.72461558899E+02  0.69999985155E+02 0.  0.
        -12    1    1    2    0    0  0.30538195205E+01 -0.17730811495E+02 -0.51934676627E+01  0.18726441101E+02  0.00000000000E+00 0.  1.
         11    1    3    3    0    0 -0.17651718378E+02 -0.47259411195E+00  0.63453883816E+01  0.18763540733E+02  0.51100000000E-03 0. -1.
        -11    1    3    3    0    0  0.13860856653E+02  0.19983715836E+02 -0.21980012420E+02  0.32780988271E+02  0.51100000000E-03 0.  1.
        -12    1    3    3    0    0  0.73704220398E+00 -0.17803102285E+01  0.20828091701E+02  0.20917029895E+02  0.00000000000E+00 0.  1.
</event>
<event>
 7    1  0.1884848E-013  0.7246160E+02  0.7816164E-02  0.1226708E+00
        -11   -1    0    0    0    0  0.00000000000E+00  0.00000000000E+00  0.45593999997E+02  0.45594000000E+02  0.51100000000E-03 0.  1.
         11   -1    0    0    0    0 -0.00000000000E+00 -0.00000000000E+00 -0.45593999997E+02  0.45594000000E+02  0.51100000000E-03 0. -1.
    9900012    2    1    2    0    0  0.12306866427E+02 -0.93931416282E+01 -0.10535077315E+02  0.72461603525E+02  0.70000043289E+02 0.  0.
        -12    1    1    2    0    0 -0.12306866427E+02  0.93931416282E+01  0.10535077315E+02  0.18726396475E+02  0.00000000000E+00 0.  1.
         11    1    3    3    0    0  0.28372773826E+02  0.95474728867E+00 -0.36760624607E+01  0.28625849724E+02  0.51100000000E-03 0. -1.
        -11    1    3    3    0    0 -0.12662330827E+02 -0.19519960577E+02  0.92092905894E+01  0.25023479301E+02  0.51100000000E-03 0.  1.
         12    1    3    3    0    0 -0.34035765716E+01  0.91720716606E+01 -0.16068305444E+02  0.18812274500E+02  0.00000000000E+00 0. -1.
</event>
<event>
 7    1  0.1884848E-013  0.7246154E+02  0.7816164E-02  0.1226708E+00
        -11   -1    0    0    0    0  0.00000000000E+00  0.00000000000E+00  0.45593999997E+02  0.45594000000E+02  0.51100000000E-03 0. -1.
         11   -1    0    0    0    0 -0.00000000000E+00 -0.00000000000E+00 -0.45593999997E+02  0.45594000000E+02  0.51100000000E-03 0.  1.
    9900012    2    1    2    0    0  0.12398157441E+02  0.81164952877E+01  0.11449382216E+02  0.72461543933E+02  0.69999965660E+02 0.  0.
        -12    1    1    2    0    0 -0.12398157441E+02 -0.81164952877E+01 -0.11449382216E+02  0.18726456067E+02  0.00000000000E+00 0.  1.
         11    1    3    3    0    0  0.19055033319E+01 -0.18878466039E+00  0.86937074996E+01  0.89020858761E+01  0.51100000000E-03 0. -1.
        -11    1    3    3    0    0  0.18894663702E+02 -0.14147249978E+02 -0.19675087877E+02  0.30728847710E+02  0.51100000000E-03 0.  1.
        -12    1    3    3    0    0 -0.84020095924E+01  0.22452529926E+02  0.22430762594E+02  0.32830610347E+02  0.00000000000E+00 0.  1.
</event>
<event>
 7    1  0.1884848E-013  0.7246212E+02  0.7816164E-02  0.1226707E+00
        -11   -1    0    0    0    0  0.00000000000E+00  0.00000000000E+00  0.45593999997E+02  0.45594000000E+02  0.51100000000E-03 0.  1.
         11   -1    0    0    0    0 -0.00000000000E+00 -0.00000000000E+00 -0.45593999997E+02  0.45594000000E+02  0.51100000000E-03 0. -1.
    9900012    2    1    2    0    0 -0.33950594361E+01  0.18388142946E+02  0.10042015241E+01  0.72462118170E+02  0.70000713707E+02 0.  0.
        -12    1    1    2    0    0  0.33950594361E+01 -0.18388142946E+02 -0.10042015241E+01  0.18725881830E+02  0.00000000000E+00 0.  1.
         11    1    3    3    0    0 -0.20252351707E+02 -0.18355638411E+01 -0.11380784595E+02  0.23303418259E+02  0.51100000000E-03 0. -1.
        -11    1    3    3    0    0  0.14893996187E+02 -0.31772730467E+01  0.19387556911E+02  0.24653672133E+02  0.51100000000E-03 0.  1.
         12    1    3    3    0    0  0.19632960845E+01  0.23400979834E+02 -0.70025707922E+01  0.24505027778E+02  0.00000000000E+00 0. -1.
</event>
<event>
 7    1  0.1884848E-013  0.7246156E+02  0.7816164E-02  0.1226708E+00
        -11   -1    0    0    0    0  0.00000000000E+00  0.00000000000E+00  0.45593999997E+02  0.45594000000E+02  0.51100000000E-03 0. -1.
         11   -1    0    0    0    0 -0.00000000000E+00 -0.00000000000E+00 -0.45593999997E+02  0.45594000000E+02  0.51100000000E-03 0.  1.
    9900012    2    1    2    0    0  0.79207356803E+01 -0.13338342450E+02  0.10489517865E+02  0.72461563658E+02  0.69999991355E+02 0.  0.
        -12    1    1    2    0    0 -0.79207356803E+01  0.13338342450E+02 -0.10489517865E+02  0.18726436342E+02  0.00000000000E+00 0.  1.
         11    1    3    3    0    0  0.27929674162E+02  0.10470629513E+02  0.57774841907E+01  0.30382233378E+02  0.51100000000E-03 0. -1.
        -11    1    3    3    0    0 -0.94628627711E+00 -0.20777218544E+02 -0.35208415861E+01  0.21094657947E+02  0.51100000000E-03 0.  1.
         12    1    3    3    0    0 -0.19062652205E+02 -0.30317534191E+01  0.82328752602E+01  0.20984672333E+02  0.00000000000E+00 0. -1.
</event>
<event>
 7    1  0.1913932E-013  0.7246176E+02  0.7816164E-02  0.1226708E+00
        -11   -1    0    0    0    0  0.00000000000E+00  0.00000000000E+00  0.45593999997E+02  0.45594000000E+02  0.51100000000E-03 0. -1.
         11   -1    0    0    0    0 -0.00000000000E+00 -0.00000000000E+00 -0.45593999997E+02  0.45594000000E+02  0.51100000000E-03 0.  1.
    9900012    2    1    2    0    0  0.15133811293E+02 -0.97691271844E+01  0.51189818056E+01  0.72461759989E+02  0.70000247113E+02 0.  0.
        -12    1    1    2    0    0 -0.15133811293E+02  0.97691271844E+01 -0.51189818056E+01  0.18726240011E+02  0.00000000000E+00 0.  1.
         11    1    3    3    0    0  0.35117301730E+02 -0.51536698339E+01  0.11050552768E+02  0.37173914380E+02  0.51100000000E-03 0. -1.
        -11    1    3    3    0    0 -0.51044791910E+01  0.77245479966E+01 -0.11881076509E+02  0.15062680002E+02  0.51100000000E-03 0.  1.
         12    1    3    3    0    0 -0.14879011246E+02 -0.12340005347E+02  0.59495055458E+01  0.20225165608E+02  0.00000000000E+00 0. -1.
</event>
<event>
 7    1  0.1884848E-013  0.7246157E+02  0.7816164E-02  0.1226708E+00
        -11   -1    0    0    0    0  0.00000000000E+00  0.00000000000E+00  0.45593999997E+02  0.45594000000E+02  0.51100000000E-03 0. -1.
         11   -1    0    0    0    0 -0.00000000000E+00 -0.00000000000E+00 -0.45593999997E+02  0.45594000000E+02  0.51100000000E-03 0.  1.
    9900012    2    1    2    0    0 -0.81455679248E+01  0.30535363940E+01  0.16583267695E+02  0.72461571382E+02  0.70000001417E+02 0.  0.
        -12    1    1    2    0    0  0.81455679248E+01 -0.30535363940E+01 -0.16583267695E+02  0.18726428618E+02  0.00000000000E+00 0.  1.
         11    1    3    3    0    0 -0.14502159054E+02  0.19242990526E+02  0.49325396003E+01  0.24595431461E+02  0.51100000000E-03 0. -1.
        -11    1    3    3    0    0 -0.12696616427E+02 -0.21613289910E+02  0.12555512656E+02  0.28035321788E+02  0.51100000000E-03 0.  1.
        -12    1    3    3    0    0  0.19053207556E+02  0.54238357780E+01 -0.90478456059E+00  0.19830818133E+02  0.00000000000E+00 0.  1.
</event>
<event>
 7    1  0.1884848E-013  0.7246169E+02  0.7816164E-02  0.1226708E+00
        -11   -1    0    0    0    0  0.00000000000E+00  0.00000000000E+00  0.45593999997E+02  0.45594000000E+02  0.51100000000E-03 0. -1.
         11   -1    0    0    0    0 -0.00000000000E+00 -0.00000000000E+00 -0.45593999997E+02  0.45594000000E+02  0.51100000000E-03 0.  1.
    9900012    2    1    2    0    0  0.54211971988E+01 -0.19637347587E+01  0.17816541664E+02  0.72461687226E+02  0.70000152325E+02 0.  0.
        -12    1    1    2    0    0 -0.54211971988E+01  0.19637347587E+01 -0.17816541664E+02  0.18726312774E+02  0.00000000000E+00 0.  1.
         11    1    3    3    0    0  0.19564076576E+02  0.72817205786E+01  0.20485588401E+02  0.29247835463E+02  0.51100000000E-03 0. -1.
        -11    1    3    3    0    0 -0.25956864031E+02 -0.11359346082E+02  0.52760850645E+01  0.28820662859E+02  0.51100000000E-03 0.  1.
        -12    1    3    3    0    0  0.11813984654E+02  0.21138907450E+01 -0.79451318020E+01  0.14393188904E+02  0.00000000000E+00 0.  1.
</event>
<event>
 7    1  0.1884848E-013  0.7246128E+02  0.7816164E-02  0.1226709E+00
        -11   -1    0    0    0    0  0.00000000000E+00  0.00000000000E+00  0.45593999997E+02  0.45594000000E+02  0.51100000000E-03 0. -1.
         11   -1    0    0    0    0 -0.00000000000E+00 -0.00000000000E+00 -0.45593999997E+02  0.45594000000E+02  0.51100000000E-03 0.  1.
    9900012    2    1    2    0    0  0.42233614814E+01  0.16746790627E+02  0.72386656129E+01  0.72461279562E+02  0.69999621266E+02 0.  0.
        -12    1    1    2    0    0 -0.42233614814E+01 -0.16746790627E+02 -0.72386656129E+01  0.18726720438E+02  0.00000000000E+00 0.  1.
         11    1    3    3    0    0  0.14052853437E+02  0.32067356983E+02  0.22509985667E+02  0.41623281088E+02  0.51100000000E-03 0. -1.
        -11    1    3    3    0    0  0.15782507617E+01 -0.95886864494E+01 -0.15235906776E+02  0.18071154884E+02  0.51100000000E-03 0.  1.
        -12    1    3    3    0    0 -0.11407742717E+02 -0.57318799064E+01 -0.35413278121E-01  0.12766843590E+02  0.00000000000E+00 0.  1.
</event>
<event>
 7    1  0.1884848E-013  0.7246155E+02  0.7816164E-02  0.1226708E+00
        -11   -1    0    0    0    0  0.00000000000E+00  0.00000000000E+00  0.45593999997E+02  0.45594000000E+02  0.51100000000E-03 0.  1.
         11   -1    0    0    0    0 -0.00000000000E+00 -0.00000000000E+00 -0.45593999997E+02  0.45594000000E+02  0.51100000000E-03 0. -1.
    9900012    2    1    2    0    0  0.93220441970E+01  0.86261576584E+01 -0.13761130806E+02  0.72461552792E+02  0.69999977200E+02 0.  0.
        -12    1    1    2    0    0 -0.93220441970E+01 -0.86261576584E+01  0.13761130806E+02  0.18726447208E+02  0.00000000000E+00 0.  1.
         11    1    3    3    0    0  0.98677050564E+01  0.28234391682E+02 -0.17447247355E+02  0.34625986156E+02  0.51100000000E-03 0. -1.
        -11    1    3    3    0    0 -0.77498300820E+00 -0.27625555893E+02  0.79431063509E+01  0.28755258229E+02  0.51100000000E-03 0.  1.
        -12    1    3    3    0    0  0.22932214880E+00  0.80173218693E+01 -0.42569898018E+01  0.90803084076E+01  0.00000000000E+00 0.  1.
</event>
<event>
 7    1  0.1884848E-013  0.7246156E+02  0.7816164E-02  0.1226708E+00
        -11   -1    0    0    0    0  0.00000000000E+00  0.00000000000E+00  0.45593999997E+02  0.45594000000E+02  0.51100000000E-03 0.  1.
         11   -1    0    0    0    0 -0.00000000000E+00 -0.00000000000E+00 -0.45593999997E+02  0.45594000000E+02  0.51100000000E-03 0. -1.
    9900012    2    1    2    0    0 -0.45563001324E+01  0.42138868365E+01 -0.17668125533E+02  0.72461564861E+02  0.69999992922E+02 0.  0.
        -12    1    1    2    0    0  0.45563001324E+01 -0.42138868365E+01  0.17668125533E+02  0.18726435139E+02  0.00000000000E+00 0.  1.
         11    1    3    3    0    0 -0.16167522587E+01 -0.21518062039E+02 -0.19860667799E+02  0.29327240024E+02  0.51100000000E-03 0. -1.
        -11    1    3    3    0    0 -0.13679077249E+02  0.29877463758E+01  0.95259479252E+01  0.16934800469E+02  0.51100000000E-03 0.  1.
         12    1    3    3    0    0  0.10739529375E+02  0.22744202499E+02 -0.73334056593E+01  0.26199524368E+02  0.00000000000E+00 0. -1.
</event>
<event>
 7    1  0.1884848E-013  0.7246156E+02  0.7816164E-02  0.1226708E+00
        -11   -1    0    0    0    0  0.00000000000E+00  0.00000000000E+00  0.45593999997E+02  0.45594000000E+02  0.51100000000E-03 0. -1.
         11   -1    0    0    0    0 -0.00000000000E+00 -0.00000000000E+00 -0.45593999997E+02  0.45594000000E+02  0.51100000000E-03 0.  1.
    9900012    2    1    2    0    0  0.12262953973E+02  0.62845057401E+01  0.12680874642E+02  0.72461557887E+02  0.69999983837E+02 0.  0.
        -12    1    1    2    0    0 -0.12262953973E+02 -0.62845057401E+01 -0.12680874642E+02  0.18726442113E+02  0.00000000000E+00 0.  1.
         11    1    3    3    0    0 -0.90015056845E+01  0.17136081877E+02  0.29162763073E+02  0.35001987901E+02  0.51100000000E-03 0.  1.
        -11    1    3    3    0    0  0.24786709964E+02 -0.36343960374E+01 -0.94161806383E+01  0.26762927409E+02  0.51100000000E-03 0. -1.
        -12    1    3    3    0    0 -0.35222503065E+01 -0.72171800992E+01 -0.70657077936E+01  0.10696642577E+02  0.00000000000E+00 0.  1.
</event>
<event>
 7    1  0.1884848E-013  0.7246168E+02  0.7816164E-02  0.1226708E+00
        -11   -1    0    0    0    0  0.00000000000E+00  0.00000000000E+00  0.45593999997E+02  0.45594000000E+02  0.51100000000E-03 0.  1.
         11   -1    0    0    0    0 -0.00000000000E+00 -0.00000000000E+00 -0.45593999997E+02  0.45594000000E+02  0.51100000000E-03 0. -1.
    9900012    2    1    2    0    0  0.13752357727E+02 -0.99232406151E+01 -0.79421028589E+01  0.72461680416E+02  0.70000143454E+02 0.  0.
        -12    1    1    2    0    0 -0.13752357727E+02  0.99232406151E+01  0.79421028589E+01  0.18726319584E+02  0.00000000000E+00 0.  1.
         11    1    3    3    0    0  0.15010623125E+02  0.19622098923E+00 -0.22944910428E+02  0.27419449741E+02  0.51100000000E-03 0. -1.
        -11    1    3    3    0    0  0.14462803513E+01 -0.26120431528E+02  0.10611050735E+02  0.28230534321E+02  0.51100000000E-03 0.  1.
        -12    1    3    3    0    0 -0.27045457492E+01  0.16000969924E+02  0.43917568348E+01  0.16811696354E+02  0.00000000000E+00 0.  1.
</event>
<event>
 7    1  0.1884848E-013  0.7246159E+02  0.7816164E-02  0.1226708E+00
        -11   -1    0    0    0    0  0.00000000000E+00  0.00000000000E+00  0.45593999997E+02  0.45594000000E+02  0.51100000000E-03 0.  1.
         11   -1    0    0    0    0 -0.00000000000E+00 -0.00000000000E+00 -0.45593999997E+02  0.45594000000E+02  0.51100000000E-03 0. -1.
    9900012    2    1    2    0    0 -0.10295993056E+02 -0.11839220467E+02 -0.10222710318E+02  0.72461590293E+02  0.70000026052E+02 0.  0.
        -12    1    1    2    0    0  0.10295993056E+02  0.11839220467E+02  0.10222710318E+02  0.18726409707E+02  0.00000000000E+00 0.  1.
         11    1    3    3    0    0 -0.47172973268E+01 -0.27049287888E+02 -0.14721814290E+02  0.31155235283E+02  0.51100000000E-03 0. -1.
        -11    1    3    3    0    0  0.16033575414E+02  0.96255184823E+01  0.11722273218E+01  0.18737669646E+02  0.51100000000E-03 0.  1.
        -12    1    3    3    0    0 -0.21612271143E+02  0.55845489384E+01  0.33268766500E+01  0.22568685364E+02  0.00000000000E+00 0.  1.
</event>
<event>
 7    1  0.1884848E-013  0.7246159E+02  0.7816164E-02  0.1226708E+00
        -11   -1    0    0    0    0  0.00000000000E+00  0.00000000000E+00  0.45593999997E+02  0.45594000000E+02  0.51100000000E-03 0. -1.
         11   -1    0    0    0    0 -0.00000000000E+00 -0.00000000000E+00 -0.45593999997E+02  0.45594000000E+02  0.51100000000E-03 0.  1.
    9900012    2    1    2    0    0  0.98353036523E+01  0.15318230976E+02 -0.43928197179E+01  0.72461594492E+02  0.70000031522E+02 0.  0.
        -12    1    1    2    0    0 -0.98353036523E+01 -0.15318230976E+02  0.43928197179E+01  0.18726405508E+02  0.00000000000E+00 0.  1.
         11    1    3    3    0    0  0.14343788991E+02  0.15682981098E+02  0.14089722002E+02  0.25499420485E+02  0.51100000000E-03 0. -1.
        -11    1    3    3    0    0 -0.35614107379E+01 -0.20588800241E+02 -0.22562007852E+01  0.21016012563E+02  0.51100000000E-03 0.  1.
        -12    1    3    3    0    0 -0.94707460087E+00  0.20224050119E+02 -0.16226340935E+02  0.25946161444E+02  0.00000000000E+00 0.  1.
</event>
<event>
 7    1  0.1884848E-013  0.7246160E+02  0.7816164E-02  0.1226708E+00
        -11   -1    0    0    0    0  0.00000000000E+00  0.00000000000E+00  0.45593999997E+02  0.45594000000E+02  0.51100000000E-03 0. -1.
         11   -1    0    0    0    0 -0.00000000000E+00 -0.00000000000E+00 -0.45593999997E+02  0.45594000000E+02  0.51100000000E-03 0.  1.
    9900012    2    1    2    0    0  0.53327293030E+01 -0.16391863923E+02 -0.73175838909E+01  0.72461595148E+02  0.70000032376E+02 0.  0.
        -12    1    1    2    0    0 -0.53327293030E+01  0.16391863923E+02  0.73175838909E+01  0.18726404852E+02  0.00000000000E+00 0.  1.
         11    1    3    3    0    0  0.35895904139E+02 -0.76132640146E+01  0.21112001203E+01  0.36755066169E+02  0.51100000000E-03 0. -1.
        -11    1    3    3    0    0 -0.24378528695E+02 -0.21102634582E+01 -0.31882294985E+01  0.24676520841E+02  0.51100000000E-03 0.  1.
         12    1    3    3    0    0 -0.61846461403E+01 -0.66683364501E+01 -0.62405545126E+01  0.11030008138E+02  0.00000000000E+00 0. -1.
</event>
<event>
 7    1  0.1884848E-013  0.7246156E+02  0.7816164E-02  0.1226708E+00
        -11   -1    0    0    0    0  0.00000000000E+00  0.00000000000E+00  0.45593999997E+02  0.45594000000E+02  0.51100000000E-03 0. -1.
         11   -1    0    0    0    0 -0.00000000000E+00 -0.00000000000E+00 -0.45593999997E+02  0.45594000000E+02  0.51100000000E-03 0.  1.
    9900012    2    1    2    0    0  0.13293711289E+02  0.11185500284E+02  0.69886499002E+01  0.72461564038E+02  0.69999991849E+02 0.  0.
        -12    1    1    2    0    0 -0.13293711289E+02 -0.11185500284E+02 -0.69886499002E+01  0.18726435962E+02  0.00000000000E+00 0.  1.
         11    1    3    3    0    0  0.21896174543E+02  0.83451969452E+01  0.13331782443E+02  0.26959621567E+02  0.51100000000E-03 0. -1.
        -11    1    3    3    0    0  0.33094437671E+01 -0.13693571509E+02 -0.17343678890E+02  0.22344339695E+02  0.51100000000E-03 0.  1.
        -12    1    3    3    0    0 -0.11911907021E+02  0.16533874847E+02  0.11000546347E+02  0.23157602775E+02  0.00000000000E+00 0.  1.
</event>
<event>
 7    1  0.1884848E-013  0.7246154E+02  0.7816164E-02  0.1226708E+00
        -11   -1    0    0    0    0  0.00000000000E+00  0.00000000000E+00  0.45593999997E+02  0.45594000000E+02  0.51100000000E-03 0.  1.
         11   -1    0    0    0    0 -0.00000000000E+00 -0.00000000000E+00 -0.45593999997E+02  0.45594000000E+02  0.51100000000E-03 0. -1.
    9900012    2    1    2    0    0 -0.97859881881E+01 -0.15646685419E+02 -0.31774294366E+01  0.72461537781E+02  0.69999957646E+02 0.  0.
        -12    1    1    2    0    0  0.97859881881E+01  0.15646685419E+02  0.31774294366E+01  0.18726462219E+02  0.00000000000E+00 0.  1.
         11    1    3    3    0    0 -0.15900161337E+02  0.18084011961E+02 -0.11496160833E+02  0.26683484280E+02  0.51100000000E-03 0. -1.
        -11    1    3    3    0    0  0.14706507615E+02 -0.16358184752E+02  0.13380117010E+02  0.25746827107E+02  0.51100000000E-03 0.  1.
         12    1    3    3    0    0 -0.85923344657E+01 -0.17372512627E+02 -0.50613856136E+01  0.20031226395E+02  0.00000000000E+00 0. -1.
</event>
<event>
 7    1  0.1884848E-013  0.7246167E+02  0.7816164E-02  0.1226708E+00
        -11   -1    0    0    0    0  0.00000000000E+00  0.00000000000E+00  0.45593999997E+02  0.45594000000E+02  0.51100000000E-03 0. -1.
         11   -1    0    0    0    0 -0.00000000000E+00 -0.00000000000E+00 -0.45593999997E+02  0.45594000000E+02  0.51100000000E-03 0.  1.
    9900012    2    1    2    0    0 -0.71739512273E+01  0.12468007214E+02  0.11989946976E+02  0.72461665373E+02  0.70000123857E+02 0.  0.
        -12    1    1    2    0    0  0.71739512273E+01 -0.12468007214E+02 -0.11989946976E+02  0.18726334627E+02  0.00000000000E+00 0.  1.
         11    1    3    3    0    0  0.28818403182E+02  0.39644966604E+01 -0.29924301365E+01  0.29243328027E+02  0.51100000000E-03 0. -1.
        -11    1    3    3    0    0 -0.14509412927E+02 -0.31156427273E+01  0.55269499494E+00  0.14850446630E+02  0.51100000000E-03 0.  1.
         12    1    3    3    0    0 -0.21482941482E+02  0.11619153281E+02  0.14429682117E+02  0.28367890716E+02  0.00000000000E+00 0. -1.
</event>
<event>
 7    1  0.1884848E-013  0.7246184E+02  0.7816164E-02  0.1226707E+00
        -11   -1    0    0    0    0  0.00000000000E+00  0.00000000000E+00  0.45593999997E+02  0.45594000000E+02  0.51100000000E-03 0.  1.
         11   -1    0    0    0    0 -0.00000000000E+00 -0.00000000000E+00 -0.45593999997E+02  0.45594000000E+02  0.51100000000E-03 0. -1.
    9900012    2    1    2    0    0 -0.44753590606E+01  0.16685927145E+02 -0.72263521951E+01  0.72461837300E+02  0.70000347824E+02 0.  0.
        -12    1    1    2    0    0  0.44753590606E+01 -0.16685927145E+02  0.72263521951E+01  0.18726162700E+02  0.00000000000E+00 0.  1.
         11    1    3    3    0    0 -0.10828816483E+02 -0.19726049191E+02  0.22706873255E+00  0.22504040605E+02  0.51100000000E-03 0. -1.
        -11    1    3    3    0    0  0.10522501188E+02  0.38467212330E+02  0.14579199997E+01  0.39907079405E+02  0.51100000000E-03 0.  1.
        -12    1    3    3    0    0 -0.41690437653E+01 -0.20552359943E+01 -0.89113409274E+01  0.10050717289E+02  0.00000000000E+00 0.  1.
</event>
<event>
 7    1  0.2154493E-013  0.7246119E+02  0.7816164E-02  0.1226709E+00
        -11   -1    0    0    0    0  0.00000000000E+00  0.00000000000E+00  0.45593999997E+02  0.45594000000E+02  0.51100000000E-03 0. -1.
         11   -1    0    0    0    0 -0.00000000000E+00 -0.00000000000E+00 -0.45593999997E+02  0.45594000000E+02  0.51100000000E-03 0.  1.
    9900012    2    1    2    0    0 -0.59336397616E+01 -0.39177944710E+01  0.17324440027E+02  0.72461189899E+02  0.69999504462E+02 0.  0.
        -12    1    1    2    0    0  0.59336397616E+01  0.39177944710E+01 -0.17324440027E+02  0.18726810101E+02  0.00000000000E+00 0.  1.
         11    1    3    3    0    0 -0.44390714808E+01 -0.13246549477E+02  0.36415305407E+02  0.39003216493E+02  0.51100000000E-03 0. -1.
        -11    1    3    3    0    0 -0.10808448003E+02 -0.22410205876E+01 -0.13843167729E+02  0.17705310348E+02  0.51100000000E-03 0.  1.
         12    1    3    3    0    0  0.93138797219E+01  0.11569775593E+02 -0.52476976517E+01  0.15752663057E+02  0.00000000000E+00 0. -1.
</event>
<event>
 7    1  0.1884848E-013  0.7246163E+02  0.7816164E-02  0.1226708E+00
        -11   -1    0    0    0    0  0.00000000000E+00  0.00000000000E+00  0.45593999997E+02  0.45594000000E+02  0.51100000000E-03 0.  1.
         11   -1    0    0    0    0 -0.00000000000E+00 -0.00000000000E+00 -0.45593999997E+02  0.45594000000E+02  0.51100000000E-03 0. -1.
    9900012    2    1    2    0    0  0.78877133143E-02  0.18719445159E+02 -0.50915077919E+00  0.72461630256E+02  0.70000078111E+02 0.  0.
        -12    1    1    2    0    0 -0.78877133143E-02 -0.18719445159E+02  0.50915077919E+00  0.18726369744E+02  0.00000000000E+00 0.  1.
         11    1    3    3    0    0  0.12270560838E+02  0.13190410867E+02  0.12173752472E+02  0.21742903478E+02  0.51100000000E-03 0.  1.
        -11    1    3    3    0    0 -0.12444502346E+02 -0.19288194135E+02 -0.23836373239E+00  0.22955541578E+02  0.51100000000E-03 0. -1.
         12    1    3    3    0    0  0.18182922102E+00  0.24817228426E+02 -0.12444539519E+02  0.27763185200E+02  0.00000000000E+00 0. -1.
</event>
<event>
 7    1  0.1884848E-013  0.7246149E+02  0.7816164E-02  0.1226708E+00
        -11   -1    0    0    0    0  0.00000000000E+00  0.00000000000E+00  0.45593999997E+02  0.45594000000E+02  0.51100000000E-03 0.  1.
         11   -1    0    0    0    0 -0.00000000000E+00 -0.00000000000E+00 -0.45593999997E+02  0.45594000000E+02  0.51100000000E-03 0. -1.
    9900012    2    1    2    0    0 -0.10813431194E+02 -0.63954340414E+01 -0.13887055658E+02  0.72461489764E+02  0.69999895095E+02 0.  0.
        -12    1    1    2    0    0  0.10813431194E+02  0.63954340414E+01  0.13887055658E+02  0.18726510236E+02  0.00000000000E+00 0.  1.
         11    1    3    3    0    0 -0.38546474031E+01  0.27387298345E+02  0.39158949154E+01  0.27933074491E+02  0.51100000000E-03 0. -1.
        -11    1    3    3    0    0  0.68287334806E+01 -0.16387253173E+02 -0.12484391172E+02  0.21703310593E+02  0.51100000000E-03 0.  1.
         12    1    3    3    0    0 -0.13787517271E+02 -0.17395479214E+02 -0.53185594009E+01  0.22825104681E+02  0.00000000000E+00 0. -1.
</event>
<event>
 7    1  0.1884848E-013  0.7246157E+02  0.7816164E-02  0.1226708E+00
        -11   -1    0    0    0    0  0.00000000000E+00  0.00000000000E+00  0.45593999997E+02  0.45594000000E+02  0.51100000000E-03 0.  1.
         11   -1    0    0    0    0 -0.00000000000E+00 -0.00000000000E+00 -0.45593999997E+02  0.45594000000E+02  0.51100000000E-03 0. -1.
    9900012    2    1    2    0    0  0.16920987411E+02  0.64001853729E+01 -0.48370353986E+01  0.72461572171E+02  0.70000002445E+02 0.  0.
        -12    1    1    2    0    0 -0.16920987411E+02 -0.64001853729E+01  0.48370353986E+01  0.18726427829E+02  0.00000000000E+00 0.  1.
         11    1    3    3    0    0  0.17447100792E+02  0.32182885456E+01 -0.30677641682E+02  0.35438346557E+02  0.51100000000E-03 0. -1.
        -11    1    3    3    0    0 -0.68223579223E+01 -0.55178499357E+01 -0.28232729053E+00  0.87790058943E+01  0.51100000000E-03 0.  1.
         12    1    3    3    0    0  0.62962445413E+01  0.86997467630E+01  0.26122933574E+02  0.28244219720E+02  0.00000000000E+00 0. -1.
</event>
<event>
 7    1  0.1884848E-013  0.7246147E+02  0.7816164E-02  0.1226708E+00
        -11   -1    0    0    0    0  0.00000000000E+00  0.00000000000E+00  0.45593999997E+02  0.45594000000E+02  0.51100000000E-03 0.  1.
         11   -1    0    0    0    0 -0.00000000000E+00 -0.00000000000E+00 -0.45593999997E+02  0.45594000000E+02  0.51100000000E-03 0. -1.
    9900012    2    1    2    0    0  0.16767213393E+02 -0.60067796421E-01 -0.83390528984E+01  0.72461471855E+02  0.69999871765E+02 0.  0.
        -12    1    1    2    0    0 -0.16767213393E+02  0.60067796421E-01  0.83390528984E+01  0.18726528145E+02  0.00000000000E+00 0.  1.
         11    1    3    3    0    0  0.16734305186E+02  0.77627798341E+01 -0.34948423717E+01  0.18775293454E+02  0.51100000000E-03 0. -1.
        -11    1    3    3    0    0 -0.12372449598E+02 -0.17834763148E+02 -0.21555482459E+02  0.30590768377E+02  0.51100000000E-03 0.  1.
        -12    1    3    3    0    0  0.12405357805E+02  0.10011915518E+02  0.16711271932E+02  0.23095410024E+02  0.00000000000E+00 0.  1.
</event>
<event>
 7    1  0.1884848E-013  0.7246165E+02  0.7816164E-02  0.1226708E+00
        -11   -1    0    0    0    0  0.00000000000E+00  0.00000000000E+00  0.45593999997E+02  0.45594000000E+02  0.51100000000E-03 0.  1.
         11   -1    0    0    0    0 -0.00000000000E+00 -0.00000000000E+00 -0.45593999997E+02  0.45594000000E+02  0.51100000000E-03 0. -1.
    9900012    2    1    2    0    0 -0.92798467961E+00  0.14896522555E+02 -0.11309667467E+02  0.72461651771E+02  0.70000106138E+02 0.  0.
        -12    1    1    2    0    0  0.92798467961E+00 -0.14896522555E+02  0.11309667467E+02  0.18726348229E+02  0.00000000000E+00 0.  1.
         11    1    3    3    0    0  0.18142933657E+02  0.22407807539E+02 -0.18203618135E+02  0.34097618595E+02  0.51100000000E-03 0. -1.
        -11    1    3    3    0    0  0.46260376599E+01 -0.47034292685E+01  0.12244651155E+02  0.13908772537E+02  0.51100000000E-03 0.  1.
         12    1    3    3    0    0 -0.23696955997E+02 -0.28078557159E+01 -0.53507004862E+01  0.24455260639E+02  0.00000000000E+00 0. -1.
</event>
<event>
 7    1  0.1884848E-013  0.7246158E+02  0.7816164E-02  0.1226708E+00
        -11   -1    0    0    0    0  0.00000000000E+00  0.00000000000E+00  0.45593999997E+02  0.45594000000E+02  0.51100000000E-03 0.  1.
         11   -1    0    0    0    0 -0.00000000000E+00 -0.00000000000E+00 -0.45593999997E+02  0.45594000000E+02  0.51100000000E-03 0. -1.
    9900012    2    1    2    0    0 -0.10567217079E+02  0.55558542337E+01 -0.14427241689E+02  0.72461577602E+02  0.70000009520E+02 0.  0.
        -12    1    1    2    0    0  0.10567217079E+02 -0.55558542337E+01  0.14427241689E+02  0.18726422398E+02  0.00000000000E+00 0.  1.
         11    1    3    3    0    0 -0.73805383730E+01 -0.10044993689E+02 -0.20857219429E+02  0.24298103783E+02  0.51100000000E-03 0. -1.
        -11    1    3    3    0    0 -0.16838129233E+01 -0.83129506584E+01  0.19215885122E+02  0.21004537983E+02  0.51100000000E-03 0.  1.
         12    1    3    3    0    0 -0.15028657832E+01  0.23913798582E+02 -0.12785907382E+02  0.27158935836E+02  0.00000000000E+00 0. -1.
</event>
<event>
 7    1  0.1884848E-013  0.7246158E+02  0.7816164E-02  0.1226708E+00
        -11   -1    0    0    0    0  0.00000000000E+00  0.00000000000E+00  0.45593999997E+02  0.45594000000E+02  0.51100000000E-03 0. -1.
         11   -1    0    0    0    0 -0.00000000000E+00 -0.00000000000E+00 -0.45593999997E+02  0.45594000000E+02  0.51100000000E-03 0.  1.
    9900012    2    1    2    0    0 -0.18711636256E+02  0.53803727755E+00  0.51365173253E+00  0.72461584070E+02  0.70000017945E+02 0.  0.
        -12    1    1    2    0    0  0.18711636256E+02 -0.53803727755E+00 -0.51365173253E+00  0.18726415930E+02  0.00000000000E+00 0.  1.
         11    1    3    3    0    0 -0.63836789683E+01 -0.16340712957E+02 -0.14347636511E+02  0.22663294792E+02  0.51100000000E-03 0. -1.
        -11    1    3    3    0    0  0.81436643257E+01  0.21239333586E+01  0.22015254243E+02  0.23569085286E+02  0.51100000000E-03 0.  1.
         12    1    3    3    0    0 -0.20471621614E+02  0.14754816876E+02 -0.71539659994E+01  0.26229203992E+02  0.00000000000E+00 0. -1.
</event>
<event>
 7    1  0.1884848E-013  0.7246170E+02  0.7816164E-02  0.1226708E+00
        -11   -1    0    0    0    0  0.00000000000E+00  0.00000000000E+00  0.45593999997E+02  0.45594000000E+02  0.51100000000E-03 0. -1.
         11   -1    0    0    0    0 -0.00000000000E+00 -0.00000000000E+00 -0.45593999997E+02  0.45594000000E+02  0.51100000000E-03 0.  1.
    9900012    2    1    2    0    0 -0.46924639278E+01  0.13821303477E+02  0.11731440950E+02  0.72461698863E+02  0.70000167484E+02 0.  0.
        -12    1    1    2    0    0  0.46924639278E+01 -0.13821303477E+02 -0.11731440950E+02  0.18726301137E+02  0.00000000000E+00 0.  1.
         11    1    3    3    0    0 -0.45979922134E+01 -0.99602005588E+01  0.15545233890E+02  0.19026335026E+02  0.51100000000E-03 0. -1.
        -11    1    3    3    0    0 -0.94909366677E+01  0.33961114200E+02 -0.12114634726E+02  0.37285379593E+02  0.51100000000E-03 0.  1.
        -12    1    3    3    0    0  0.93964649533E+01 -0.10179610164E+02  0.83008417862E+01  0.16149984244E+02  0.00000000000E+00 0.  1.
</event>
<event>
 7    1  0.1884848E-013  0.7246154E+02  0.7816164E-02  0.1226708E+00
        -11   -1    0    0    0    0  0.00000000000E+00  0.00000000000E+00  0.45593999997E+02  0.45594000000E+02  0.51100000000E-03 0.  1.
         11   -1    0    0    0    0 -0.00000000000E+00 -0.00000000000E+00 -0.45593999997E+02  0.45594000000E+02  0.51100000000E-03 0. -1.
    9900012    2    1    2    0    0 -0.68677293966E+01 -0.17408501807E+02 -0.67721828313E+00  0.72461540996E+02  0.69999961833E+02 0.  0.
        -12    1    1    2    0    0  0.68677293966E+01  0.17408501807E+02  0.67721828313E+00  0.18726459004E+02  0.00000000000E+00 0.  1.
         11    1    3    3    0    0 -0.22576440702E+01 -0.97781881311E+01 -0.32926518938E+02  0.34421876321E+02  0.51100000000E-03 0. -1.
        -11    1    3    3    0    0 -0.85184160635E+01  0.28547373234E+01  0.14245156495E+02  0.16841538565E+02  0.51100000000E-03 0.  1.
         12    1    3    3    0    0  0.39083307372E+01 -0.10485051000E+02  0.18004144159E+02  0.21198126109E+02  0.00000000000E+00 0. -1.
</event>
<event>
 7    1  0.1884848E-013  0.7246157E+02  0.7816164E-02  0.1226708E+00
        -11   -1    0    0    0    0  0.00000000000E+00  0.00000000000E+00  0.45593999997E+02  0.45594000000E+02  0.51100000000E-03 0.  1.
         11   -1    0    0    0    0 -0.00000000000E+00 -0.00000000000E+00 -0.45593999997E+02  0.45594000000E+02  0.51100000000E-03 0. -1.
    9900012    2    1    2    0    0 -0.11526990522E+02 -0.64964147847E+01 -0.13251574526E+02  0.72461571004E+02  0.70000000924E+02 0.  0.
        -12    1    1    2    0    0  0.11526990522E+02  0.64964147847E+01  0.13251574526E+02  0.18726428996E+02  0.00000000000E+00 0.  1.
         11    1    3    3    0    0 -0.17521969805E+02  0.29852790027E+01 -0.22369384005E+01  0.17914664670E+02  0.51100000000E-03 0. -1.
        -11    1    3    3    0    0  0.69158190985E+01 -0.17643824806E+02  0.16935122711E+02  0.25415182256E+02  0.51100000000E-03 0.  1.
        -12    1    3    3    0    0 -0.92083981525E+00  0.81621310190E+01 -0.27949758836E+02  0.29131724078E+02  0.00000000000E+00 0.  1.
</event>
<event>
 7    1  0.1884848E-013  0.7246168E+02  0.7816164E-02  0.1226708E+00
        -11   -1    0    0    0    0  0.00000000000E+00  0.00000000000E+00  0.45593999997E+02  0.45594000000E+02  0.51100000000E-03 0.  1.
         11   -1    0    0    0    0 -0.00000000000E+00 -0.00000000000E+00 -0.45593999997E+02  0.45594000000E+02  0.51100000000E-03 0. -1.
    9900012    2    1    2    0    0 -0.10007416249E+02 -0.27796538215E+01 -0.15582045123E+02  0.72461682008E+02  0.70000145527E+02 0.  0.
        -12    1    1    2    0    0  0.10007416249E+02  0.27796538215E+01  0.15582045123E+02  0.18726317992E+02  0.00000000000E+00 0.  1.
         11    1    3    3    0    0  0.95255007376E+01  0.11826716069E+02 -0.12782581489E+02  0.19849452563E+02  0.51100000000E-03 0. -1.
        -11    1    3    3    0    0 -0.93358514944E+00  0.99903516761E+01  0.14209602010E+02  0.17395157297E+02  0.51100000000E-03 0.  1.
        -12    1    3    3    0    0 -0.18599331837E+02 -0.24596721566E+02 -0.17009065643E+02  0.35217072148E+02  0.00000000000E+00 0.  1.
</event>
<event>
 7    1  0.1884848E-013  0.7246156E+02  0.7816164E-02  0.1226708E+00
        -11   -1    0    0    0    0  0.00000000000E+00  0.00000000000E+00  0.45593999997E+02  0.45594000000E+02  0.51100000000E-03 0.  1.
         11   -1    0    0    0    0 -0.00000000000E+00 -0.00000000000E+00 -0.45593999997E+02  0.45594000000E+02  0.51100000000E-03 0. -1.
    9900012    2    1    2    0    0  0.12709186636E+02 -0.70159928145E+00 -0.13735498677E+02  0.72461559057E+02  0.69999985361E+02 0.  0.
        -12    1    1    2    0    0 -0.12709186636E+02  0.70159928145E+00  0.13735498677E+02  0.18726440943E+02  0.00000000000E+00 0.  1.
         11    1    3    3    0    0 -0.86942956756E+01 -0.25882828102E+01  0.22409588081E+01  0.93440827181E+01  0.51100000000E-03 0. -1.
        -11    1    3    3    0    0  0.21768389956E+02  0.21327093171E+02  0.87083397586E+01  0.31694524543E+02  0.51100000000E-03 0.  1.
        -12    1    3    3    0    0 -0.36490764453E+00 -0.19440409642E+02 -0.24684797243E+02  0.31422951796E+02  0.00000000000E+00 0.  1.
</event>
<event>
 7    1  0.1884848E-013  0.7246176E+02  0.7816164E-02  0.1226707E+00
        -11   -1    0    0    0    0  0.00000000000E+00  0.00000000000E+00  0.45593999997E+02  0.45594000000E+02  0.51100000000E-03 0. -1.
         11   -1    0    0    0    0 -0.00000000000E+00 -0.00000000000E+00 -0.45593999997E+02  0.45594000000E+02  0.51100000000E-03 0.  1.
    9900012    2    1    2    0    0 -0.17859593651E+01 -0.80346253187E+01  0.16820435205E+02  0.72461764517E+02  0.70000253011E+02 0.  0.
        -12    1    1    2    0    0  0.17859593651E+01  0.80346253187E+01 -0.16820435205E+02  0.18726235483E+02  0.00000000000E+00 0.  1.
         11    1    3    3    0    0 -0.55827718987E+01 -0.24742678185E+02  0.99047474906E+01  0.27229974090E+02  0.51100000000E-03 0.  1.
        -11    1    3    3    0    0  0.56941752039E+01  0.99401390171E+01  0.24089868962E+02  0.26674927963E+02  0.51100000000E-03 0. -1.
         12    1    3    3    0    0 -0.18973626702E+01  0.67679138495E+01 -0.17174181248E+02  0.18556862464E+02  0.00000000000E+00 0. -1.
</event>
<event>
 7    1  0.1884848E-013  0.7246158E+02  0.7816164E-02  0.1226708E+00
        -11   -1    0    0    0    0  0.00000000000E+00  0.00000000000E+00  0.45593999997E+02  0.45594000000E+02  0.51100000000E-03 0.  1.
         11   -1    0    0    0    0 -0.00000000000E+00 -0.00000000000E+00 -0.45593999997E+02  0.45594000000E+02  0.51100000000E-03 0. -1.
    9900012    2    1    2    0    0 -0.82970299294E+01  0.10710373955E+02 -0.12927727320E+02  0.72461576168E+02  0.70000007651E+02 0.  0.
        -12    1    1    2    0    0  0.82970299294E+01 -0.10710373955E+02  0.12927727320E+02  0.18726423832E+02  0.00000000000E+00 0.  1.
         11    1    3    3    0    0 -0.43856909379E+01  0.21995197816E+01  0.17155449905E+02  0.17843251777E+02  0.51100000000E-03 0.  1.
        -11    1    3    3    0    0  0.11877954670E+02  0.21700117820E+02 -0.13422863201E+02  0.28145233652E+02  0.51100000000E-03 0. -1.
        -12    1    3    3    0    0 -0.15789293661E+02 -0.13189263647E+02 -0.16660314024E+02  0.26473090739E+02  0.00000000000E+00 0.  1.
</event>
<event>
 7    1  0.1884848E-013  0.7246161E+02  0.7816164E-02  0.1226708E+00
        -11   -1    0    0    0    0  0.00000000000E+00  0.00000000000E+00  0.45593999997E+02  0.45594000000E+02  0.51100000000E-03 0.  1.
         11   -1    0    0    0    0 -0.00000000000E+00 -0.00000000000E+00 -0.45593999997E+02  0.45594000000E+02  0.51100000000E-03 0. -1.
    9900012    2    1    2    0    0 -0.13283932080E+02 -0.12858455929E+02 -0.29790938404E+01  0.72461608450E+02  0.70000049704E+02 0.  0.
        -12    1    1    2    0    0  0.13283932080E+02  0.12858455929E+02  0.29790938404E+01  0.18726391550E+02  0.00000000000E+00 0.  1.
         11    1    3    3    0    0 -0.97188164702E+01 -0.30317008397E+02  0.21367748255E+01  0.31908340581E+02  0.51100000000E-03 0. -1.
        -11    1    3    3    0    0  0.14015688128E+02  0.86269373218E+01  0.65122156137E+01  0.17699506030E+02  0.51100000000E-03 0.  1.
         12    1    3    3    0    0 -0.17580803738E+02  0.88316151461E+01 -0.11628084280E+02  0.22853761838E+02  0.00000000000E+00 0. -1.
</event>
<event>
 7    1  0.1884848E-013  0.7246157E+02  0.7816164E-02  0.1226708E+00
        -11   -1    0    0    0    0  0.00000000000E+00  0.00000000000E+00  0.45593999997E+02  0.45594000000E+02  0.51100000000E-03 0. -1.
         11   -1    0    0    0    0 -0.00000000000E+00 -0.00000000000E+00 -0.45593999997E+02  0.45594000000E+02  0.51100000000E-03 0.  1.
    9900012    2    1    2    0    0  0.61750556659E-01 -0.16262998508E+02  0.92838626763E+01  0.72461573758E+02  0.70000004512E+02 0.  0.
        -12    1    1    2    0    0 -0.61750556659E-01  0.16262998508E+02 -0.92838626763E+01  0.18726426242E+02  0.00000000000E+00 0.  1.
         11    1    3    3    0    0  0.19373724735E+02 -0.25857533058E+02  0.26254039685E+02  0.41632052868E+02  0.51100000000E-03 0. -1.
        -11    1    3    3    0    0 -0.21339682923E+02  0.96792064855E+01 -0.16717362758E+02  0.28784359005E+02  0.51100000000E-03 0.  1.
        -12    1    3    3    0    0  0.20277087452E+01 -0.84671935224E-01 -0.25281425105E+00  0.20451618854E+01  0.00000000000E+00 0.  1.
</event>
<event>
 7    1  0.1884848E-013  0.7246157E+02  0.7816164E-02  0.1226708E+00
        -11   -1    0    0    0    0  0.00000000000E+00  0.00000000000E+00  0.45593999997E+02  0.45594000000E+02  0.51100000000E-03 0.  1.
         11   -1    0    0    0    0 -0.00000000000E+00 -0.00000000000E+00 -0.45593999997E+02  0.45594000000E+02  0.51100000000E-03 0. -1.
    9900012    2    1    2    0    0  0.15372594279E+02 -0.32239586012E+01 -0.10196503055E+02  0.72461568453E+02  0.69999997602E+02 0.  0.
        -12    1    1    2    0    0 -0.15372594279E+02  0.32239586012E+01  0.10196503055E+02  0.18726431547E+02  0.00000000000E+00 0.  1.
         11    1    3    3    0    0 -0.29530104531E+01 -0.80237784226E+00 -0.33212717332E+02  0.33353390738E+02  0.51100000000E-03 0. -1.
        -11    1    3    3    0    0  0.21879494824E+02 -0.47704138235E+01  0.84548040449E+01  0.23936433600E+02  0.51100000000E-03 0.  1.
        -12    1    3    3    0    0 -0.35538900922E+01  0.23488330646E+01  0.14561410231E+02  0.15171744115E+02  0.00000000000E+00 0.  1.
</event>
<event>
 7    1  0.1884848E-013  0.7246158E+02  0.7816164E-02  0.1226708E+00
        -11   -1    0    0    0    0  0.00000000000E+00  0.00000000000E+00  0.45593999997E+02  0.45594000000E+02  0.51100000000E-03 0.  1.
         11   -1    0    0    0    0 -0.00000000000E+00 -0.00000000000E+00 -0.45593999997E+02  0.45594000000E+02  0.51100000000E-03 0. -1.
    9900012    2    1    2    0    0  0.31635403036E+01  0.12121225996E+02 -0.13919288230E+02  0.72461583052E+02  0.70000016619E+02 0.  0.
        -12    1    1    2    0    0 -0.31635403036E+01 -0.12121225996E+02  0.13919288230E+02  0.18726416948E+02  0.00000000000E+00 0.  1.
         11    1    3    3    0    0 -0.11422396640E+02 -0.16955657174E+02  0.45911998651E+01  0.20953390458E+02  0.51100000000E-03 0. -1.
        -11    1    3    3    0    0 -0.39115297440E+01  0.25816399705E+02 -0.19668345856E+02  0.32689912628E+02  0.51100000000E-03 0.  1.
        -12    1    3    3    0    0  0.18497466688E+02  0.32604834654E+01  0.11578577610E+01  0.18818279966E+02  0.00000000000E+00 0.  1.
</event>
<event>
 7    1  0.1884848E-013  0.7246146E+02  0.7816164E-02  0.1226708E+00
        -11   -1    0    0    0    0  0.00000000000E+00  0.00000000000E+00  0.45593999997E+02  0.45594000000E+02  0.51100000000E-03 0.  1.
         11   -1    0    0    0    0 -0.00000000000E+00 -0.00000000000E+00 -0.45593999997E+02  0.45594000000E+02  0.51100000000E-03 0. -1.
    9900012    2    1    2    0    0  0.13159938841E+02 -0.60882373635E+01 -0.11850428309E+02  0.72461460661E+02  0.69999857182E+02 0.  0.
        -12    1    1    2    0    0 -0.13159938841E+02  0.60882373635E+01  0.11850428309E+02  0.18726539339E+02  0.00000000000E+00 0.  1.
         11    1    3    3    0    0  0.34860382903E+02 -0.31729465909E+00 -0.63821309267E+01  0.35441198730E+02  0.51100000000E-03 0. -1.
        -11    1    3    3    0    0 -0.14167028609E+02  0.62886687208E-01  0.11039174079E+02  0.17960290057E+02  0.51100000000E-03 0.  1.
        -12    1    3    3    0    0 -0.75334154527E+01 -0.58338293916E+01 -0.16507471462E+02  0.19059971873E+02  0.00000000000E+00 0.  1.
</event>
<event>
 7    1  0.1884848E-013  0.7246154E+02  0.7816164E-02  0.1226708E+00
        -11   -1    0    0    0    0  0.00000000000E+00  0.00000000000E+00  0.45593999997E+02  0.45594000000E+02  0.51100000000E-03 0.  1.
         11   -1    0    0    0    0 -0.00000000000E+00 -0.00000000000E+00 -0.45593999997E+02  0.45594000000E+02  0.51100000000E-03 0. -1.
    9900012    2    1    2    0    0  0.30402773638E+01  0.11274287378E+02 -0.14639930173E+02  0.72461537498E+02  0.69999957277E+02 0.  0.
        -12    1    1    2    0    0 -0.30402773638E+01 -0.11274287378E+02  0.14639930173E+02  0.18726462502E+02  0.00000000000E+00 0.  1.
         11    1    3    3    0    0 -0.10751779387E+02  0.13357210988E+02 -0.17631226059E+02  0.24594226517E+02  0.51100000000E-03 0. -1.
        -11    1    3    3    0    0 -0.94149904529E+01 -0.17007571590E+02  0.53852301473E+01  0.20171768406E+02  0.51100000000E-03 0.  1.
        -12    1    3    3    0    0  0.23207047204E+02  0.14924647980E+02 -0.23939342618E+01  0.27695542575E+02  0.00000000000E+00 0.  1.
</event>
<event>
 7    1  0.1884848E-013  0.7246160E+02  0.7816164E-02  0.1226708E+00
        -11   -1    0    0    0    0  0.00000000000E+00  0.00000000000E+00  0.45593999997E+02  0.45594000000E+02  0.51100000000E-03 0. -1.
         11   -1    0    0    0    0 -0.00000000000E+00 -0.00000000000E+00 -0.45593999997E+02  0.45594000000E+02  0.51100000000E-03 0.  1.
    9900012    2    1    2    0    0  0.11655215751E+02 -0.11222871566E+02  0.94276816140E+01  0.72461599358E+02  0.70000037860E+02 0.  0.
        -12    1    1    2    0    0 -0.11655215751E+02  0.11222871566E+02 -0.94276816140E+01  0.18726400642E+02  0.00000000000E+00 0.  1.
         11    1    3    3    0    0  0.19725077969E+02 -0.16823890114E+02  0.92391800246E+00  0.25941773343E+02  0.51100000000E-03 0. -1.
        -11    1    3    3    0    0 -0.24215962682E+02  0.47744585583E+01 -0.53192605943E+01  0.25248818520E+02  0.51100000000E-03 0.  1.
        -12    1    3    3    0    0  0.16146100464E+02  0.82655998942E+00  0.13823024206E+02  0.21271007494E+02  0.00000000000E+00 0.  1.
</event>
<event>
 7    1  0.1884848E-013  0.7246154E+02  0.7816164E-02  0.1226708E+00
        -11   -1    0    0    0    0  0.00000000000E+00  0.00000000000E+00  0.45593999997E+02  0.45594000000E+02  0.51100000000E-03 0.  1.
         11   -1    0    0    0    0 -0.00000000000E+00 -0.00000000000E+00 -0.45593999997E+02  0.45594000000E+02  0.51100000000E-03 0. -1.
    9900012    2    1    2    0    0 -0.11188979074E+02 -0.15013057006E+02  0.30826498848E+00  0.72461543830E+02  0.69999965525E+02 0.  0.
        -12    1    1    2    0    0  0.11188979074E+02  0.15013057006E+02 -0.30826498848E+00  0.18726456170E+02  0.00000000000E+00 0.  1.
         11    1    3    3    0    0 -0.74002549642E+01 -0.10124184880E+02 -0.24042471027E+02  0.27116476659E+02  0.51100000000E-03 0. -1.
        -11    1    3    3    0    0 -0.64247640341E+01 -0.17293394368E+02  0.26694318968E+02  0.32448817345E+02  0.51100000000E-03 0.  1.
        -12    1    3    3    0    0  0.26360399244E+01  0.12404522242E+02 -0.23435829524E+01  0.12896249827E+02  0.00000000000E+00 0.  1.
</event>
<event>
 7    1  0.1884848E-013  0.7246165E+02  0.7816164E-02  0.1226708E+00
        -11   -1    0    0    0    0  0.00000000000E+00  0.00000000000E+00  0.45593999997E+02  0.45594000000E+02  0.51100000000E-03 0. -1.
         11   -1    0    0    0    0 -0.00000000000E+00 -0.00000000000E+00 -0.45593999997E+02  0.45594000000E+02  0.51100000000E-03 0.  1.
    9900012    2    1    2    0    0  0.17081694688E+02  0.57341567394E+01  0.51001394817E+01  0.72461647722E+02  0.70000100863E+02 0.  0.
        -12    1    1    2    0    0 -0.17081694688E+02 -0.57341567394E+01 -0.51001394817E+01  0.18726352278E+02  0.00000000000E+00 0.  1.
         11    1    3    3    0    0 -0.11537100653E+02 -0.27136811231E+01  0.97093300377E+01  0.15321222104E+02  0.51100000000E-03 0. -1.
        -11    1    3    3    0    0  0.14363467777E+02  0.18848952447E+02 -0.22021014931E+02  0.32349919841E+02  0.51100000000E-03 0.  1.
         12    1    3    3    0    0  0.14255327565E+02 -0.10401114584E+02  0.17411824375E+02  0.24790505776E+02  0.00000000000E+00 0. -1.
</event>
<event>
 7    1  0.1884848E-013  0.7246157E+02  0.7816164E-02  0.1226708E+00
        -11   -1    0    0    0    0  0.00000000000E+00  0.00000000000E+00  0.45593999997E+02  0.45594000000E+02  0.51100000000E-03 0.  1.
         11   -1    0    0    0    0 -0.00000000000E+00 -0.00000000000E+00 -0.45593999997E+02  0.45594000000E+02  0.51100000000E-03 0. -1.
    9900012    2    1    2    0    0 -0.12821526290E+02  0.12112557299E+02  0.62907412692E+01  0.72461574648E+02  0.70000005672E+02 0.  0.
        -12    1    1    2    0    0  0.12821526290E+02 -0.12112557299E+02 -0.62907412692E+01  0.18726425352E+02  0.00000000000E+00 0.  1.
         11    1    3    3    0    0 -0.19499651114E+02 -0.14153636709E+02 -0.12315051212E+02  0.27059606654E+02  0.51100000000E-03 0. -1.
        -11    1    3    3    0    0 -0.82933427085E+01  0.21219278891E+02  0.18897727892E+02  0.29600024488E+02  0.51100000000E-03 0.  1.
        -12    1    3    3    0    0  0.14971467532E+02  0.50469151170E+01 -0.29193541059E+00  0.15801943506E+02  0.00000000000E+00 0.  1.
</event>
<event>
 7    1  0.1884848E-013  0.7246157E+02  0.7816164E-02  0.1226708E+00
        -11   -1    0    0    0    0  0.00000000000E+00  0.00000000000E+00  0.45593999997E+02  0.45594000000E+02  0.51100000000E-03 0. -1.
         11   -1    0    0    0    0 -0.00000000000E+00 -0.00000000000E+00 -0.45593999997E+02  0.45594000000E+02  0.51100000000E-03 0.  1.
    9900012    2    1    2    0    0  0.16177199216E+02 -0.67683979987E+01  0.65700889360E+01  0.72461573363E+02  0.70000003998E+02 0.  0.
        -12    1    1    2    0    0 -0.16177199216E+02  0.67683979987E+01 -0.65700889360E+01  0.18726426637E+02  0.00000000000E+00 0.  1.
         11    1    3    3    0    0  0.32525579927E+02 -0.40323591860E+00 -0.95473996058E+00  0.32542087786E+02  0.51100000000E-03 0. -1.
        -11    1    3    3    0    0 -0.15932312105E+02  0.12480551218E+02  0.23691574933E+01  0.20376840658E+02  0.51100000000E-03 0.  1.
         12    1    3    3    0    0 -0.41606860613E+00 -0.18845713298E+02  0.51556714033E+01  0.19542644919E+02  0.00000000000E+00 0. -1.
</event>
<event>
 7    1  0.1884848E-013  0.7246155E+02  0.7816164E-02  0.1226708E+00
        -11   -1    0    0    0    0  0.00000000000E+00  0.00000000000E+00  0.45593999997E+02  0.45594000000E+02  0.51100000000E-03 0.  1.
         11   -1    0    0    0    0 -0.00000000000E+00 -0.00000000000E+00 -0.45593999997E+02  0.45594000000E+02  0.51100000000E-03 0. -1.
    9900012    2    1    2    0    0 -0.15163758040E+02 -0.10481018713E+02 -0.32998026986E+01  0.72461547880E+02  0.69999970801E+02 0.  0.
        -12    1    1    2    0    0  0.15163758040E+02  0.10481018713E+02  0.32998026986E+01  0.18726452120E+02  0.00000000000E+00 0.  1.
         11    1    3    3    0    0 -0.17656652132E+02 -0.25720673823E+02 -0.78239212385E+01  0.32164019808E+02  0.51100000000E-03 0. -1.
        -11    1    3    3    0    0 -0.89599226287E+01  0.12813782551E+02  0.17062742535E+02  0.23143258627E+02  0.51100000000E-03 0.  1.
         12    1    3    3    0    0  0.11452816721E+02  0.24258725586E+01 -0.12538623995E+02  0.17154269445E+02  0.00000000000E+00 0. -1.
</event>
<event>
 7    1  0.1884848E-013  0.7246205E+02  0.7816164E-02  0.1226707E+00
        -11   -1    0    0    0    0  0.00000000000E+00  0.00000000000E+00  0.45593999997E+02  0.45594000000E+02  0.51100000000E-03 0. -1.
         11   -1    0    0    0    0 -0.00000000000E+00 -0.00000000000E+00 -0.45593999997E+02  0.45594000000E+02  0.51100000000E-03 0.  1.
    9900012    2    1    2    0    0  0.20406677200E+01  0.10941204185E+02  0.15059442218E+02  0.72462053464E+02  0.70000629415E+02 0.  0.
        -12    1    1    2    0    0 -0.20406677200E+01 -0.10941204185E+02 -0.15059442218E+02  0.18725946536E+02  0.00000000000E+00 0.  1.
         11    1    3    3    0    0 -0.33058999689E+01  0.55948967036E+01  0.30226066965E+02  0.30916774867E+02  0.51100000000E-03 0. -1.
        -11    1    3    3    0    0 -0.12639945466E+02 -0.71897901609E+01 -0.13015673056E+02  0.19515866604E+02  0.51100000000E-03 0.  1.
        -12    1    3    3    0    0  0.17986513155E+02  0.12536097642E+02 -0.21509516918E+01  0.22029411993E+02  0.00000000000E+00 0.  1.
</event>
<event>
 7    1  0.1884848E-013  0.7246165E+02  0.7816164E-02  0.1226708E+00
        -11   -1    0    0    0    0  0.00000000000E+00  0.00000000000E+00  0.45593999997E+02  0.45594000000E+02  0.51100000000E-03 0.  1.
         11   -1    0    0    0    0 -0.00000000000E+00 -0.00000000000E+00 -0.45593999997E+02  0.45594000000E+02  0.51100000000E-03 0. -1.
    9900012    2    1    2    0    0 -0.66588580552E+01  0.14058296401E+02 -0.10425933136E+02  0.72461650381E+02  0.70000104328E+02 0.  0.
        -12    1    1    2    0    0  0.66588580552E+01 -0.14058296401E+02  0.10425933136E+02  0.18726349619E+02  0.00000000000E+00 0.  1.
         11    1    3    3    0    0  0.19449641334E+02 -0.11237758979E+02 -0.20168390584E+02  0.30188404296E+02  0.51100000000E-03 0. -1.
        -11    1    3    3    0    0 -0.74549485831E+00  0.40110221711E+01  0.81617469436E+01  0.91245917647E+01  0.51100000000E-03 0.  1.
         12    1    3    3    0    0 -0.25363004531E+02  0.21285033210E+02  0.15807105047E+01  0.33148654321E+02  0.00000000000E+00 0. -1.
</event>
<event>
 7    1  0.1884848E-013  0.7246163E+02  0.7816164E-02  0.1226708E+00
        -11   -1    0    0    0    0  0.00000000000E+00  0.00000000000E+00  0.45593999997E+02  0.45594000000E+02  0.51100000000E-03 0. -1.
         11   -1    0    0    0    0 -0.00000000000E+00 -0.00000000000E+00 -0.45593999997E+02  0.45594000000E+02  0.51100000000E-03 0.  1.
    9900012    2    1    2    0    0 -0.12434494011E+02 -0.61530407139E+01  0.12577766477E+02  0.72461634605E+02  0.70000083777E+02 0.  0.
        -12    1    1    2    0    0  0.12434494011E+02  0.61530407139E+01 -0.12577766477E+02  0.18726365395E+02  0.00000000000E+00 0.  1.
         11    1    3    3    0    0 -0.22052269273E+02 -0.20337013105E+02 -0.34481570368E+01  0.30195802181E+02  0.51100000000E-03 0. -1.
        -11    1    3    3    0    0  0.18528716919E+02  0.20731343903E+02  0.92782254026E+01  0.29311899249E+02  0.51100000000E-03 0.  1.
        -12    1    3    3    0    0 -0.89109416570E+01 -0.65473715114E+01  0.67476981114E+01  0.12953933176E+02  0.00000000000E+00 0.  1.
</event>
<event>
 7    1  0.1884848E-013  0.7246156E+02  0.7816164E-02  0.1226708E+00
        -11   -1    0    0    0    0  0.00000000000E+00  0.00000000000E+00  0.45593999997E+02  0.45594000000E+02  0.51100000000E-03 0. -1.
         11   -1    0    0    0    0 -0.00000000000E+00 -0.00000000000E+00 -0.45593999997E+02  0.45594000000E+02  0.51100000000E-03 0.  1.
    9900012    2    1    2    0    0 -0.17018612998E+00  0.18191180040E+02 -0.44420170025E+01  0.72461561213E+02  0.69999988170E+02 0.  0.
        -12    1    1    2    0    0  0.17018612998E+00 -0.18191180040E+02  0.44420170025E+01  0.18726438787E+02  0.00000000000E+00 0.  1.
         11    1    3    3    0    0  0.38109574132E+01  0.29779248934E+02 -0.75777662137E+01  0.30963682024E+02  0.51100000000E-03 0. -1.
        -11    1    3    3    0    0 -0.60237115300E+01 -0.94298169977E+01 -0.17433258270E+02  0.20715333532E+02  0.51100000000E-03 0.  1.
         12    1    3    3    0    0  0.20425679869E+01 -0.21582518957E+01  0.20569007481E+02  0.20782545657E+02  0.00000000000E+00 0. -1.
</event>
<event>
 7    1  0.1884848E-013  0.7246161E+02  0.7816164E-02  0.1226708E+00
        -11   -1    0    0    0    0  0.00000000000E+00  0.00000000000E+00  0.45593999997E+02  0.45594000000E+02  0.51100000000E-03 0.  1.
         11   -1    0    0    0    0 -0.00000000000E+00 -0.00000000000E+00 -0.45593999997E+02  0.45594000000E+02  0.51100000000E-03 0. -1.
    9900012    2    1    2    0    0  0.46958987518E+01 -0.79762492614E+01 -0.16278996245E+02  0.72461608567E+02  0.70000049857E+02 0.  0.
        -12    1    1    2    0    0 -0.46958987518E+01  0.79762492614E+01  0.16278996245E+02  0.18726391433E+02  0.00000000000E+00 0.  1.
         11    1    3    3    0    0  0.12473430223E+02 -0.25788095672E+02  0.81962529069E+01  0.29795820208E+02  0.51100000000E-03 0.  1.
        -11    1    3    3    0    0 -0.16290077713E+02  0.12112741420E+02 -0.53872339283E+01  0.21002557612E+02  0.51100000000E-03 0. -1.
        -12    1    3    3    0    0  0.85125462421E+01  0.56991049902E+01 -0.19088015223E+02  0.21663230747E+02  0.00000000000E+00 0.  1.
</event>
<event>
 7    1  0.1884848E-013  0.7246154E+02  0.7816164E-02  0.1226708E+00
        -11   -1    0    0    0    0  0.00000000000E+00  0.00000000000E+00  0.45593999997E+02  0.45594000000E+02  0.51100000000E-03 0.  1.
         11   -1    0    0    0    0 -0.00000000000E+00 -0.00000000000E+00 -0.45593999997E+02  0.45594000000E+02  0.51100000000E-03 0. -1.
    9900012    2    1    2    0    0  0.10220285289E+02  0.15674809583E+02 -0.72557972022E+00  0.72461538701E+02  0.69999958844E+02 0.  0.
        -12    1    1    2    0    0 -0.10220285289E+02 -0.15674809583E+02  0.72557972022E+00  0.18726461299E+02  0.00000000000E+00 0.  1.
         11    1    3    3    0    0  0.25062187106E+02  0.25670100185E+02 -0.16964475191E+02  0.39684514420E+02  0.51100000000E-03 0. -1.
        -11    1    3    3    0    0 -0.13560555795E+02  0.20359607202E+01  0.16312046360E+01  0.13809222945E+02  0.51100000000E-03 0.  1.
         12    1    3    3    0    0 -0.12813460221E+01 -0.12031251322E+02  0.14607690835E+02  0.18967801336E+02  0.00000000000E+00 0. -1.
</event>
<event>
 7    1  0.1884848E-013  0.7246162E+02  0.7816164E-02  0.1226708E+00
        -11   -1    0    0    0    0  0.00000000000E+00  0.00000000000E+00  0.45593999997E+02  0.45594000000E+02  0.51100000000E-03 0.  1.
         11   -1    0    0    0    0 -0.00000000000E+00 -0.00000000000E+00 -0.45593999997E+02  0.45594000000E+02  0.51100000000E-03 0. -1.
    9900012    2    1    2    0    0 -0.14619616869E+02  0.11255633330E+02 -0.32023174031E+01  0.72461619789E+02  0.70000064476E+02 0.  0.
        -12    1    1    2    0    0  0.14619616869E+02 -0.11255633330E+02  0.32023174031E+01  0.18726380211E+02  0.00000000000E+00 0.  1.
         11    1    3    3    0    0  0.82145811591E+01  0.11533779694E+02 -0.55782029498E+01  0.15219190716E+02  0.51100000000E-03 0. -1.
        -11    1    3    3    0    0 -0.14786871197E+02  0.50001680666E-01  0.27301025637E+02  0.31048350376E+02  0.51100000000E-03 0.  1.
        -12    1    3    3    0    0 -0.80473268310E+01 -0.32814804435E+00 -0.24925140091E+02  0.26194078697E+02  0.00000000000E+00 0.  1.
</event>
<event>
 7    1  0.1884848E-013  0.7246140E+02  0.7816164E-02  0.1226708E+00
        -11   -1    0    0    0    0  0.00000000000E+00  0.00000000000E+00  0.45593999997E+02  0.45594000000E+02  0.51100000000E-03 0. -1.
         11   -1    0    0    0    0 -0.00000000000E+00 -0.00000000000E+00 -0.45593999997E+02  0.45594000000E+02  0.51100000000E-03 0.  1.
    9900012    2    1    2    0    0 -0.32609307797E+01  0.16248747511E+02 -0.87195186630E+01  0.72461402045E+02  0.69999780824E+02 0.  0.
        -12    1    1    2    0    0  0.32609307797E+01 -0.16248747511E+02  0.87195186630E+01  0.18726597955E+02  0.00000000000E+00 0.  1.
         11    1    3    3    0    0 -0.20933151689E+02 -0.14916126450E+02 -0.12277432511E+02  0.28485487835E+02  0.51100000000E-03 0. -1.
        -11    1    3    3    0    0  0.11438089868E+02  0.27831973162E+02 -0.73521423831E+01  0.30975839421E+02  0.51100000000E-03 0.  1.
         12    1    3    3    0    0  0.62341310409E+01  0.33329007990E+01  0.10910056231E+02  0.13000074789E+02  0.00000000000E+00 0. -1.
</event>
<event>
 7    1  0.1884848E-013  0.7246155E+02  0.7816164E-02  0.1226708E+00
        -11   -1    0    0    0    0  0.00000000000E+00  0.00000000000E+00  0.45593999997E+02  0.45594000000E+02  0.51100000000E-03 0. -1.
         11   -1    0    0    0    0 -0.00000000000E+00 -0.00000000000E+00 -0.45593999997E+02  0.45594000000E+02  0.51100000000E-03 0.  1.
    9900012    2    1    2    0    0  0.11489260721E+01  0.11301296407E+02  0.14887592598E+02  0.72461554930E+02  0.69999979985E+02 0.  0.
        -12    1    1    2    0    0 -0.11489260721E+01 -0.11301296407E+02 -0.14887592598E+02  0.18726445070E+02  0.00000000000E+00 0.  1.
         11    1    3    3    0    0 -0.54221575459E+01  0.29940299453E+02  0.18033069609E+02  0.35369661061E+02  0.51100000000E-03 0. -1.
        -11    1    3    3    0    0  0.11332493294E+02 -0.25894800568E+02 -0.28344618117E+01  0.28407750259E+02  0.51100000000E-03 0.  1.
         12    1    3    3    0    0 -0.47614096757E+01  0.72557975225E+01 -0.31101519868E+00  0.86841436101E+01  0.00000000000E+00 0. -1.
</event>
<event>
 7    1  0.1884848E-013  0.7246151E+02  0.7816164E-02  0.1226708E+00
        -11   -1    0    0    0    0  0.00000000000E+00  0.00000000000E+00  0.45593999997E+02  0.45594000000E+02  0.51100000000E-03 0. -1.
         11   -1    0    0    0    0 -0.00000000000E+00 -0.00000000000E+00 -0.45593999997E+02  0.45594000000E+02  0.51100000000E-03 0.  1.
    9900012    2    1    2    0    0  0.13537506773E+02  0.12610332254E+02 -0.28977181520E+01  0.72461512351E+02  0.69999924518E+02 0.  0.
        -12    1    1    2    0    0 -0.13537506773E+02 -0.12610332254E+02  0.28977181520E+01  0.18726487649E+02  0.00000000000E+00 0.  1.
         11    1    3    3    0    0 -0.13536244207E+02  0.57610936592E+01  0.17592227872E+02  0.22932653339E+02  0.51100000000E-03 0. -1.
        -11    1    3    3    0    0  0.80496212597E+01  0.11652684601E+02 -0.25597072102E+02  0.29253915315E+02  0.51100000000E-03 0.  1.
         12    1    3    3    0    0  0.19024129720E+02 -0.48034460060E+01  0.51071260773E+01  0.20274943697E+02  0.00000000000E+00 0. -1.
</event>
<event>
 7    1  0.1884848E-013  0.7246159E+02  0.7816164E-02  0.1226708E+00
        -11   -1    0    0    0    0  0.00000000000E+00  0.00000000000E+00  0.45593999997E+02  0.45594000000E+02  0.51100000000E-03 0.  1.
         11   -1    0    0    0    0 -0.00000000000E+00 -0.00000000000E+00 -0.45593999997E+02  0.45594000000E+02  0.51100000000E-03 0. -1.
    9900012    2    1    2    0    0  0.52353477812E+01 -0.17074546167E+02 -0.56328937751E+01  0.72461588559E+02  0.70000023793E+02 0.  0.
        -12    1    1    2    0    0 -0.52353477812E+01  0.17074546167E+02  0.56328937751E+01  0.18726411441E+02  0.00000000000E+00 0.  1.
         11    1    3    3    0    0 -0.11628122150E+02 -0.24239234049E+02 -0.10002545572E+02  0.28684570943E+02  0.51100000000E-03 0. -1.
        -11    1    3    3    0    0  0.17266914900E+02 -0.13525221866E+02  0.67452814972E+01  0.22947261262E+02  0.51100000000E-03 0.  1.
         12    1    3    3    0    0 -0.40344496890E+00  0.20689909749E+02 -0.23756296999E+01  0.20829756353E+02  0.00000000000E+00 0. -1.
</event>
<event>
 7    1  0.1884848E-013  0.7246160E+02  0.7816164E-02  0.1226708E+00
        -11   -1    0    0    0    0  0.00000000000E+00  0.00000000000E+00  0.45593999997E+02  0.45594000000E+02  0.51100000000E-03 0. -1.
         11   -1    0    0    0    0 -0.00000000000E+00 -0.00000000000E+00 -0.45593999997E+02  0.45594000000E+02  0.51100000000E-03 0.  1.
    9900012    2    1    2    0    0  0.92314807200E+01  0.13474528420E+02  0.91594098188E+01  0.72461603106E+02  0.70000042743E+02 0.  0.
        -12    1    1    2    0    0 -0.92314807200E+01 -0.13474528420E+02 -0.91594098188E+01  0.18726396894E+02  0.00000000000E+00 0.  1.
         11    1    3    3    0    0  0.11997932677E+02  0.15789326936E+02  0.22850691095E+02  0.30255698924E+02  0.51100000000E-03 0. -1.
        -11    1    3    3    0    0 -0.22362248272E+01  0.15825270038E+02 -0.17460447168E+02  0.23670806678E+02  0.51100000000E-03 0.  1.
         12    1    3    3    0    0 -0.53022712968E+00 -0.18140068554E+02  0.37691658915E+01  0.18535097504E+02  0.00000000000E+00 0. -1.
</event>
<event>
 7    1  0.1884848E-013  0.7246157E+02  0.7816164E-02  0.1226708E+00
        -11   -1    0    0    0    0  0.00000000000E+00  0.00000000000E+00  0.45593999997E+02  0.45594000000E+02  0.51100000000E-03 0.  1.
         11   -1    0    0    0    0 -0.00000000000E+00 -0.00000000000E+00 -0.45593999997E+02  0.45594000000E+02  0.51100000000E-03 0. -1.
    9900012    2    1    2    0    0 -0.12552886940E+02 -0.94673756437E+01 -0.10172167321E+02  0.72461570545E+02  0.70000000327E+02 0.  0.
        -12    1    1    2    0    0  0.12552886940E+02  0.94673756437E+01  0.10172167321E+02  0.18726429455E+02  0.00000000000E+00 0.  1.
         11    1    3    3    0    0  0.97856199907E+01  0.17453150448E+02 -0.21089160096E+02  0.29071007774E+02  0.51100000000E-03 0. -1.
        -11    1    3    3    0    0 -0.95490569392E+01 -0.20915871253E+00  0.99020384578E+01  0.13757855999E+02  0.51100000000E-03 0.  1.
         12    1    3    3    0    0 -0.12789449992E+02 -0.26711367380E+02  0.10149543172E+01  0.29632706772E+02  0.00000000000E+00 0. -1.
</event>
<event>
 7    1  0.1884848E-013  0.7246169E+02  0.7816164E-02  0.1226708E+00
        -11   -1    0    0    0    0  0.00000000000E+00  0.00000000000E+00  0.45593999997E+02  0.45594000000E+02  0.51100000000E-03 0. -1.
         11   -1    0    0    0    0 -0.00000000000E+00 -0.00000000000E+00 -0.45593999997E+02  0.45594000000E+02  0.51100000000E-03 0.  1.
    9900012    2    1    2    0    0  0.75653100364E+01 -0.14629273430E+02  0.89120672340E+01  0.72461694987E+02  0.70000162436E+02 0.  0.
        -12    1    1    2    0    0 -0.75653100364E+01  0.14629273430E+02 -0.89120672340E+01  0.18726305013E+02  0.00000000000E+00 0.  1.
         11    1    3    3    0    0 -0.50087952887E+01 -0.10862262247E+02  0.32550091672E+02  0.34678310794E+02  0.51100000000E-03 0. -1.
        -11    1    3    3    0    0 -0.19571363434E+01 -0.10769312083E+02 -0.17259417888E+02  0.20437611687E+02  0.51100000000E-03 0.  1.
         12    1    3    3    0    0  0.14531241668E+02  0.70023008999E+01 -0.63786065505E+01  0.17345772506E+02  0.00000000000E+00 0. -1.
</event>
<event>
 7    1  0.1884848E-013  0.7246151E+02  0.7816164E-02  0.1226708E+00
        -11   -1    0    0    0    0  0.00000000000E+00  0.00000000000E+00  0.45593999997E+02  0.45594000000E+02  0.51100000000E-03 0.  1.
         11   -1    0    0    0    0 -0.00000000000E+00 -0.00000000000E+00 -0.45593999997E+02  0.45594000000E+02  0.51100000000E-03 0. -1.
    9900012    2    1    2    0    0  0.74395150581E+01 -0.17057013847E+02 -0.20959999544E+01  0.72461512836E+02  0.69999925150E+02 0.  0.
        -12    1    1    2    0    0 -0.74395150581E+01  0.17057013847E+02  0.20959999544E+01  0.18726487164E+02  0.00000000000E+00 0.  1.
         11    1    3    3    0    0  0.17090178806E+01  0.13755165685E+02 -0.22279942007E+02  0.26239686379E+02  0.51100000000E-03 0.  1.
        -11    1    3    3    0    0  0.12383835061E+02 -0.31687151890E+02  0.20091024888E+02  0.39510558678E+02  0.51100000000E-03 0. -1.
         12    1    3    3    0    0 -0.66533378832E+01  0.87497235743E+00  0.92917164269E-01  0.67112677799E+01  0.00000000000E+00 0. -1.
</event>
<event>
 7    1  0.1884848E-013  0.7246162E+02  0.7816164E-02  0.1226708E+00
        -11   -1    0    0    0    0  0.00000000000E+00  0.00000000000E+00  0.45593999997E+02  0.45594000000E+02  0.51100000000E-03 0.  1.
         11   -1    0    0    0    0 -0.00000000000E+00 -0.00000000000E+00 -0.45593999997E+02  0.45594000000E+02  0.51100000000E-03 0. -1.
    9900012    2    1    2    0    0  0.77830443048E+01  0.90286828045E+01 -0.14442457473E+02  0.72461615680E+02  0.70000059124E+02 0.  0.
        -12    1    1    2    0    0 -0.77830443048E+01 -0.90286828045E+01  0.14442457473E+02  0.18726384320E+02  0.00000000000E+00 0.  1.
         11    1    3    3    0    0  0.31727511353E+02 -0.16198017340E+01  0.25514849814E+00  0.31769857338E+02  0.51100000000E-03 0. -1.
        -11    1    3    3    0    0 -0.11541051262E+02  0.21569987166E+01 -0.21262773471E+02  0.24288969588E+02  0.51100000000E-03 0.  1.
        -12    1    3    3    0    0 -0.12403415786E+02  0.84914858218E+01  0.65651675001E+01  0.16402788754E+02  0.00000000000E+00 0.  1.
</event>
<event>
 7    1  0.1884848E-013  0.7246139E+02  0.7816164E-02  0.1226708E+00
        -11   -1    0    0    0    0  0.00000000000E+00  0.00000000000E+00  0.45593999997E+02  0.45594000000E+02  0.51100000000E-03 0. -1.
         11   -1    0    0    0    0 -0.00000000000E+00 -0.00000000000E+00 -0.45593999997E+02  0.45594000000E+02  0.51100000000E-03 0.  1.
    9900012    2    1    2    0    0 -0.95211511666E+01 -0.16104831677E+02  0.81725545498E+00  0.72461392476E+02  0.69999768358E+02 0.  0.
        -12    1    1    2    0    0  0.95211511666E+01  0.16104831677E+02 -0.81725545498E+00  0.18726607524E+02  0.00000000000E+00 0.  1.
         11    1    3    3    0    0  0.96637463187E+01  0.12327392060E+02  0.12290370045E+02  0.19909941839E+02  0.51100000000E-03 0. -1.
        -11    1    3    3    0    0  0.12563029844E-01 -0.17545429552E+02 -0.21967126681E+02  0.28113998486E+02  0.51100000000E-03 0.  1.
         12    1    3    3    0    0 -0.19197460515E+02 -0.10886794186E+02  0.10494012090E+02  0.24437452151E+02  0.00000000000E+00 0. -1.
</event>
<event>
 7    1  0.1884848E-013  0.7246156E+02  0.7816164E-02  0.1226708E+00
        -11   -1    0    0    0    0  0.00000000000E+00  0.00000000000E+00  0.45593999997E+02  0.45594000000E+02  0.51100000000E-03 0. -1.
         11   -1    0    0    0    0 -0.00000000000E+00 -0.00000000000E+00 -0.45593999997E+02  0.45594000000E+02  0.51100000000E-03 0.  1.
    9900012    2    1    2    0    0  0.19889387143E+01 -0.40835340541E+01  0.18167235486E+02  0.72461559527E+02  0.69999985973E+02 0.  0.
        -12    1    1    2    0    0 -0.19889387143E+01  0.40835340541E+01 -0.18167235486E+02  0.18726440473E+02  0.00000000000E+00 0.  1.
         11    1    3    3    0    0  0.84765623761E+01 -0.87123976707E+01  0.20027554741E+00  0.12157223920E+02  0.51100000000E-03 0. -1.
        -11    1    3    3    0    0 -0.28126261387E+02  0.78337620816E+01  0.23796711752E+02  0.37666137291E+02  0.51100000000E-03 0.  1.
        -12    1    3    3    0    0  0.21638637725E+02 -0.32048984650E+01 -0.58297518131E+01  0.22638198316E+02  0.00000000000E+00 0.  1.
</event>
<event>
 7    1  0.1884848E-013  0.7246160E+02  0.7816164E-02  0.1226708E+00
        -11   -1    0    0    0    0  0.00000000000E+00  0.00000000000E+00  0.45593999997E+02  0.45594000000E+02  0.51100000000E-03 0.  1.
         11   -1    0    0    0    0 -0.00000000000E+00 -0.00000000000E+00 -0.45593999997E+02  0.45594000000E+02  0.51100000000E-03 0. -1.
    9900012    2    1    2    0    0 -0.34343841880E+01  0.96398257263E+01 -0.15683015482E+02  0.72461595930E+02  0.70000033396E+02 0.  0.
        -12    1    1    2    0    0  0.34343841880E+01 -0.96398257263E+01  0.15683015482E+02  0.18726404070E+02  0.00000000000E+00 0.  1.
         11    1    3    3    0    0  0.19979589287E+02 -0.95461628624E+01 -0.11170782063E+02  0.24801201294E+02  0.51100000000E-03 0. -1.
        -11    1    3    3    0    0 -0.28539026653E+02  0.20359021286E+01 -0.73421403119E+01  0.29538584333E+02  0.51100000000E-03 0.  1.
         12    1    3    3    0    0  0.51250531777E+01  0.17150086460E+02  0.28299068931E+01  0.18121810304E+02  0.00000000000E+00 0. -1.
</event>
<event>
 7    1  0.1884848E-013  0.7246155E+02  0.7816164E-02  0.1226708E+00
        -11   -1    0    0    0    0  0.00000000000E+00  0.00000000000E+00  0.45593999997E+02  0.45594000000E+02  0.51100000000E-03 0.  1.
         11   -1    0    0    0    0 -0.00000000000E+00 -0.00000000000E+00 -0.45593999997E+02  0.45594000000E+02  0.51100000000E-03 0. -1.
    9900012    2    1    2    0    0  0.15197452829E+02  0.47929553132E+01 -0.98358919154E+01  0.72461554451E+02  0.69999979361E+02 0.  0.
        -12    1    1    2    0    0 -0.15197452829E+02 -0.47929553132E+01  0.98358919154E+01  0.18726445549E+02  0.00000000000E+00 0.  1.
         11    1    3    3    0    0 -0.15503440848E+01 -0.10630051889E+02 -0.18894638506E+02  0.21734970312E+02  0.51100000000E-03 0. -1.
        -11    1    3    3    0    0  0.21952846731E+02  0.17157131202E+01  0.22031654887E+02  0.31149076526E+02  0.51100000000E-03 0.  1.
        -12    1    3    3    0    0 -0.52050498167E+01  0.13707294082E+02 -0.12972908297E+02  0.19577507613E+02  0.00000000000E+00 0.  1.
</event>
<event>
 7    1  0.1884848E-013  0.7246104E+02  0.7816164E-02  0.1226709E+00
        -11   -1    0    0    0    0  0.00000000000E+00  0.00000000000E+00  0.45593999997E+02  0.45594000000E+02  0.51100000000E-03 0.  1.
         11   -1    0    0    0    0 -0.00000000000E+00 -0.00000000000E+00 -0.45593999997E+02  0.45594000000E+02  0.51100000000E-03 0. -1.
    9900012    2    1    2    0    0  0.15113778136E+02  0.10091090176E+02 -0.45213714793E+01  0.72461035736E+02  0.69999303635E+02 0.  0.
        -12    1    1    2    0    0 -0.15113778136E+02 -0.10091090176E+02  0.45213714793E+01  0.18726964264E+02  0.00000000000E+00 0.  1.
         11    1    3    3    0    0  0.18146763022E+02 -0.14952075838E+02 -0.38880039370E+01  0.23832460110E+02  0.51100000000E-03 0. -1.
        -11    1    3    3    0    0  0.14070898605E+00  0.28989460258E+02  0.14683415903E+02  0.32496327606E+02  0.51100000000E-03 0.  1.
        -12    1    3    3    0    0 -0.31736938721E+01 -0.39462942438E+01 -0.15316783445E+02  0.16132248020E+02  0.00000000000E+00 0.  1.
</event>
<event>
 7    1  0.1884848E-013  0.7246157E+02  0.7816164E-02  0.1226708E+00
        -11   -1    0    0    0    0  0.00000000000E+00  0.00000000000E+00  0.45593999997E+02  0.45594000000E+02  0.51100000000E-03 0. -1.
         11   -1    0    0    0    0 -0.00000000000E+00 -0.00000000000E+00 -0.45593999997E+02  0.45594000000E+02  0.51100000000E-03 0.  1.
    9900012    2    1    2    0    0 -0.11549915185E+02 -0.10213151620E+02  0.10628735987E+02  0.72461573874E+02  0.70000004663E+02 0.  0.
        -12    1    1    2    0    0  0.11549915185E+02  0.10213151620E+02 -0.10628735987E+02  0.18726426126E+02  0.00000000000E+00 0.  1.
         11    1    3    3    0    0 -0.58055487014E+01 -0.26009280163E+01  0.10377270773E+01  0.64456264257E+01  0.51100000000E-03 0. -1.
        -11    1    3    3    0    0  0.53292837999E+01 -0.31770720773E+01  0.36267214859E+02  0.36794101793E+02  0.51100000000E-03 0.  1.
        -12    1    3    3    0    0 -0.11073650283E+02 -0.44351515259E+01 -0.26676205950E+02  0.29221845656E+02  0.00000000000E+00 0.  1.
</event>
<event>
 7    1  0.1884848E-013  0.7246158E+02  0.7816164E-02  0.1226708E+00
        -11   -1    0    0    0    0  0.00000000000E+00  0.00000000000E+00  0.45593999997E+02  0.45594000000E+02  0.51100000000E-03 0. -1.
         11   -1    0    0    0    0 -0.00000000000E+00 -0.00000000000E+00 -0.45593999997E+02  0.45594000000E+02  0.51100000000E-03 0.  1.
    9900012    2    1    2    0    0  0.13857502179E+02 -0.30305493691E+01  0.12225562999E+02  0.72461575174E+02  0.70000006357E+02 0.  0.
        -12    1    1    2    0    0 -0.13857502179E+02  0.30305493691E+01 -0.12225562999E+02  0.18726424826E+02  0.00000000000E+00 0.  1.
         11    1    3    3    0    0  0.63353628834E+01 -0.68003339894E+01  0.25784894857E+02  0.27408797279E+02  0.51100000000E-03 0. -1.
        -11    1    3    3    0    0  0.12377172518E+02  0.13297731179E+02 -0.24004872087E+02  0.30104118294E+02  0.51100000000E-03 0.  1.
        -12    1    3    3    0    0 -0.48550332221E+01 -0.95279465591E+01  0.10445540228E+02  0.14948659601E+02  0.00000000000E+00 0.  1.
</event>
<event>
 7    1  0.1884848E-013  0.7246158E+02  0.7816164E-02  0.1226708E+00
        -11   -1    0    0    0    0  0.00000000000E+00  0.00000000000E+00  0.45593999997E+02  0.45594000000E+02  0.51100000000E-03 0. -1.
         11   -1    0    0    0    0 -0.00000000000E+00 -0.00000000000E+00 -0.45593999997E+02  0.45594000000E+02  0.51100000000E-03 0.  1.
    9900012    2    1    2    0    0 -0.17006994846E+02 -0.38025810675E+01 -0.68542977019E+01  0.72461577666E+02  0.70000009603E+02 0.  0.
        -12    1    1    2    0    0  0.17006994846E+02  0.38025810675E+01  0.68542977019E+01  0.18726422334E+02  0.00000000000E+00 0.  1.
         11    1    3    3    0    0 -0.29374719519E+02  0.56807652944E+00 -0.21400592730E+01  0.29458050033E+02  0.51100000000E-03 0. -1.
        -11    1    3    3    0    0  0.13362833501E+02  0.13145012622E+02 -0.13771455095E+02  0.23259614178E+02  0.51100000000E-03 0.  1.
        -12    1    3    3    0    0 -0.99510882681E+00 -0.17515670219E+02  0.90572166659E+01  0.19743913455E+02  0.00000000000E+00 0.  1.
</event>
<event>
 7    1  0.1884848E-013  0.7246158E+02  0.7816164E-02  0.1226708E+00
        -11   -1    0    0    0    0  0.00000000000E+00  0.00000000000E+00  0.45593999997E+02  0.45594000000E+02  0.51100000000E-03 0.  1.
         11   -1    0    0    0    0 -0.00000000000E+00 -0.00000000000E+00 -0.45593999997E+02  0.45594000000E+02  0.51100000000E-03 0. -1.
    9900012    2    1    2    0    0 -0.96035277255E+00 -0.44137670073E+01 -0.18173475765E+02  0.72461579145E+02  0.70000011530E+02 0.  0.
        -12    1    1    2    0    0  0.96035277255E+00  0.44137670073E+01  0.18173475765E+02  0.18726420855E+02  0.00000000000E+00 0.  1.
         11    1    3    3    0    0  0.94156000311E+01 -0.21906381862E+02 -0.17146049685E+02  0.29368862938E+02  0.51100000000E-03 0. -1.
        -11    1    3    3    0    0 -0.90215173693E+01  0.24762939449E+02  0.11333285300E+02  0.28688574411E+02  0.51100000000E-03 0.  1.
        -12    1    3    3    0    0 -0.13544354343E+01 -0.72703245944E+01 -0.12360711380E+02  0.14404141796E+02  0.00000000000E+00 0.  1.
</event>
<event>
 7    1  0.1884848E-013  0.7246155E+02  0.7816164E-02  0.1226708E+00
        -11   -1    0    0    0    0  0.00000000000E+00  0.00000000000E+00  0.45593999997E+02  0.45594000000E+02  0.51100000000E-03 0. -1.
         11   -1    0    0    0    0 -0.00000000000E+00 -0.00000000000E+00 -0.45593999997E+02  0.45594000000E+02  0.51100000000E-03 0.  1.
    9900012    2    1    2    0    0 -0.97917104765E+01 -0.48711987578E+01  0.15201108785E+02  0.72461551333E+02  0.69999975299E+02 0.  0.
        -12    1    1    2    0    0  0.97917104765E+01  0.48711987578E+01 -0.15201108785E+02  0.18726448667E+02  0.00000000000E+00 0.  1.
         11    1    3    3    0    0 -0.19492875520E+02 -0.28221435568E+02  0.54519290532E+01  0.34729600519E+02  0.51100000000E-03 0. -1.
        -11    1    3    3    0    0 -0.82832916640E+01  0.12038461338E+02  0.67302639375E+00  0.14628411977E+02  0.51100000000E-03 0.  1.
         12    1    3    3    0    0  0.17984456707E+02  0.11311775472E+02  0.90761533376E+01  0.23103538837E+02  0.00000000000E+00 0. -1.
</event>
<event>
 7    1  0.1884848E-013  0.7246163E+02  0.7816164E-02  0.1226708E+00
        -11   -1    0    0    0    0  0.00000000000E+00  0.00000000000E+00  0.45593999997E+02  0.45594000000E+02  0.51100000000E-03 0.  1.
         11   -1    0    0    0    0 -0.00000000000E+00 -0.00000000000E+00 -0.45593999997E+02  0.45594000000E+02  0.51100000000E-03 0. -1.
    9900012    2    1    2    0    0  0.15711101484E+02  0.77484635246E+01 -0.66181127354E+01  0.72461633214E+02  0.70000081964E+02 0.  0.
        -12    1    1    2    0    0 -0.15711101484E+02 -0.77484635246E+01  0.66181127354E+01  0.18726366786E+02  0.00000000000E+00 0.  1.
         11    1    3    3    0    0  0.34092614352E+02  0.22272826436E+01 -0.76906983418E+01  0.35020193925E+02  0.51100000000E-03 0. -1.
        -11    1    3    3    0    0 -0.98203547544E+01  0.18796919556E+02 -0.21598125399E+01  0.21317324944E+02  0.51100000000E-03 0.  1.
         12    1    3    3    0    0 -0.85611581131E+01 -0.13275738675E+02  0.32323981463E+01  0.16124114344E+02  0.00000000000E+00 0. -1.
</event>
<event>
 7    1  0.1884848E-013  0.7246152E+02  0.7816164E-02  0.1226708E+00
        -11   -1    0    0    0    0  0.00000000000E+00  0.00000000000E+00  0.45593999997E+02  0.45594000000E+02  0.51100000000E-03 0.  1.
         11   -1    0    0    0    0 -0.00000000000E+00 -0.00000000000E+00 -0.45593999997E+02  0.45594000000E+02  0.51100000000E-03 0. -1.
    9900012    2    1    2    0    0 -0.99686727460E+00  0.47615379790E+00 -0.18693866322E+02  0.72461518620E+02  0.69999932685E+02 0.  0.
        -12    1    1    2    0    0  0.99686727460E+00 -0.47615379790E+00  0.18693866322E+02  0.18726481380E+02  0.00000000000E+00 0.  1.
         11    1    3    3    0    0 -0.84756483431E+01  0.30526222794E+02 -0.23601839143E+02  0.39506122362E+02  0.51100000000E-03 0. -1.
        -11    1    3    3    0    0  0.30006885672E+00 -0.65503703349E+01  0.52206486930E+01  0.83816803733E+01  0.51100000000E-03 0.  1.
         12    1    3    3    0    0  0.71787122118E+01 -0.23499698661E+02 -0.31267587229E+00  0.24573715885E+02  0.00000000000E+00 0. -1.
</event>
<event>
 7    1  0.1884848E-013  0.7246149E+02  0.7816164E-02  0.1226708E+00
        -11   -1    0    0    0    0  0.00000000000E+00  0.00000000000E+00  0.45593999997E+02  0.45594000000E+02  0.51100000000E-03 0. -1.
         11   -1    0    0    0    0 -0.00000000000E+00 -0.00000000000E+00 -0.45593999997E+02  0.45594000000E+02  0.51100000000E-03 0.  1.
    9900012    2    1    2    0    0 -0.12701456697E+02 -0.11557364713E+02  0.74687721665E+01  0.72461488338E+02  0.69999893237E+02 0.  0.
        -12    1    1    2    0    0  0.12701456697E+02  0.11557364713E+02 -0.74687721665E+01  0.18726511662E+02  0.00000000000E+00 0.  1.
         11    1    3    3    0    0 -0.13548184664E+02  0.11369957582E+01  0.21099962088E+02  0.25100885789E+02  0.51100000000E-03 0. -1.
        -11    1    3    3    0    0 -0.15508084291E+02 -0.20818697498E+02 -0.13131545904E+02  0.29092204145E+02  0.51100000000E-03 0.  1.
        -12    1    3    3    0    0  0.16354812258E+02  0.81243370269E+01 -0.49964401694E+00  0.18268398405E+02  0.00000000000E+00 0.  1.
</event>
<event>
 7    1  0.1884848E-013  0.7246152E+02  0.7816164E-02  0.1226708E+00
        -11   -1    0    0    0    0  0.00000000000E+00  0.00000000000E+00  0.45593999997E+02  0.45594000000E+02  0.51100000000E-03 0. -1.
         11   -1    0    0    0    0 -0.00000000000E+00 -0.00000000000E+00 -0.45593999997E+02  0.45594000000E+02  0.51100000000E-03 0.  1.
    9900012    2    1    2    0    0 -0.16769656208E+02  0.45134395412E+01 -0.70063231092E+01  0.72461519569E+02  0.69999933921E+02 0.  0.
        -12    1    1    2    0    0  0.16769656208E+02 -0.45134395412E+01  0.70063231092E+01  0.18726480431E+02  0.00000000000E+00 0.  1.
         11    1    3    3    0    0 -0.21566091279E+02  0.51546440034E+01  0.11870630082E+02  0.25151113428E+02  0.51100000000E-03 0. -1.
        -11    1    3    3    0    0  0.23308345104E+02  0.27181045138E+01 -0.51605515395E+01  0.24027033444E+02  0.51100000000E-03 0.  1.
        -12    1    3    3    0    0 -0.18511910034E+02 -0.33593089760E+01 -0.13716401652E+02  0.23283372697E+02  0.00000000000E+00 0.  1.
</event>
<event>
 7    1  0.1884848E-013  0.7246160E+02  0.7816164E-02  0.1226708E+00
        -11   -1    0    0    0    0  0.00000000000E+00  0.00000000000E+00  0.45593999997E+02  0.45594000000E+02  0.51100000000E-03 0. -1.
         11   -1    0    0    0    0 -0.00000000000E+00 -0.00000000000E+00 -0.45593999997E+02  0.45594000000E+02  0.51100000000E-03 0.  1.
    9900012    2    1    2    0    0  0.94943300015E+01 -0.77087004454E+01  0.14181381297E+02  0.72461603117E+02  0.70000042757E+02 0.  0.
        -12    1    1    2    0    0 -0.94943300015E+01  0.77087004454E+01 -0.14181381297E+02  0.18726396883E+02  0.00000000000E+00 0.  1.
         11    1    3    3    0    0  0.22707144221E+02  0.13434050449E+02  0.28781554729E+02  0.39044410650E+02  0.51100000000E-03 0. -1.
        -11    1    3    3    0    0  0.20400840315E+01 -0.84631582265E+01 -0.96046802737E+01  0.12962903743E+02  0.51100000000E-03 0.  1.
         12    1    3    3    0    0 -0.15252898251E+02 -0.12679592668E+02 -0.49954931580E+01  0.20454288724E+02  0.00000000000E+00 0. -1.
</event>
<event>
 7    1  0.1884848E-013  0.7246153E+02  0.7816164E-02  0.1226708E+00
        -11   -1    0    0    0    0  0.00000000000E+00  0.00000000000E+00  0.45593999997E+02  0.45594000000E+02  0.51100000000E-03 0. -1.
         11   -1    0    0    0    0 -0.00000000000E+00 -0.00000000000E+00 -0.45593999997E+02  0.45594000000E+02  0.51100000000E-03 0.  1.
    9900012    2    1    2    0    0 -0.77874248110E+01  0.49260058089E+01  0.16302493107E+02  0.72461526763E+02  0.69999943292E+02 0.  0.
        -12    1    1    2    0    0  0.77874248110E+01 -0.49260058089E+01 -0.16302493107E+02  0.18726473237E+02  0.00000000000E+00 0.  1.
         11    1    3    3    0    0  0.62312814114E+01  0.48364566432E+01  0.16756668813E+02  0.18520424694E+02  0.51100000000E-03 0. -1.
        -11    1    3    3    0    0 -0.62811035149E+01 -0.18774866019E+02 -0.18213793164E+02  0.26901489124E+02  0.51100000000E-03 0.  1.
        -12    1    3    3    0    0 -0.77376027075E+01  0.18864415185E+02  0.17759617458E+02  0.27039612945E+02  0.00000000000E+00 0.  1.
</event>
<event>
 7    1  0.1884848E-013  0.7246186E+02  0.7816164E-02  0.1226707E+00
        -11   -1    0    0    0    0  0.00000000000E+00  0.00000000000E+00  0.45593999997E+02  0.45594000000E+02  0.51100000000E-03 0.  1.
         11   -1    0    0    0    0 -0.00000000000E+00 -0.00000000000E+00 -0.45593999997E+02  0.45594000000E+02  0.51100000000E-03 0. -1.
    9900012    2    1    2    0    0  0.11814296018E+02 -0.88897565148E+01 -0.11491868398E+02  0.72461857830E+02  0.70000374568E+02 0.  0.
        -12    1    1    2    0    0 -0.11814296018E+02  0.88897565148E+01  0.11491868398E+02  0.18726142170E+02  0.00000000000E+00 0.  1.
         11    1    3    3    0    0 -0.18903496367E+02  0.58991348828E+01 -0.59317758810E+01  0.20671911683E+02  0.51100000000E-03 0. -1.
        -11    1    3    3    0    0  0.33607034633E+02  0.23569145394E+01 -0.67598273120E+01  0.34361069374E+02  0.51100000000E-03 0.  1.
         12    1    3    3    0    0 -0.28892422489E+01 -0.17145805937E+02  0.11997347948E+01  0.17428876773E+02  0.00000000000E+00 0. -1.
</event>
<event>
 7    1  0.1884848E-013  0.7246157E+02  0.7816164E-02  0.1226708E+00
        -11   -1    0    0    0    0  0.00000000000E+00  0.00000000000E+00  0.45593999997E+02  0.45594000000E+02  0.51100000000E-03 0. -1.
         11   -1    0    0    0    0 -0.00000000000E+00 -0.00000000000E+00 -0.45593999997E+02  0.45594000000E+02  0.51100000000E-03 0.  1.
    9900012    2    1    2    0    0  0.76128011971E+01 -0.93016688846E+01  0.14359781576E+02  0.72461571803E+02  0.70000001966E+02 0.  0.
        -12    1    1    2    0    0 -0.76128011971E+01  0.93016688846E+01 -0.14359781576E+02  0.18726428197E+02  0.00000000000E+00 0.  1.
         11    1    3    3    0    0 -0.69531074700E+01 -0.54286961707E+01  0.83343956846E+01  0.12135839373E+02  0.51100000000E-03 0. -1.
        -11    1    3    3    0    0 -0.12652507494E+02  0.58877578771E+01 -0.17968708318E+02  0.22751398146E+02  0.51100000000E-03 0.  1.
        -12    1    3    3    0    0  0.27218416161E+02 -0.97607305910E+01  0.23994094209E+02  0.37574334284E+02  0.00000000000E+00 0.  1.
</event>
<event>
 7    1  0.1884848E-013  0.7246162E+02  0.7816164E-02  0.1226708E+00
        -11   -1    0    0    0    0  0.00000000000E+00  0.00000000000E+00  0.45593999997E+02  0.45594000000E+02  0.51100000000E-03 0. -1.
         11   -1    0    0    0    0 -0.00000000000E+00 -0.00000000000E+00 -0.45593999997E+02  0.45594000000E+02  0.51100000000E-03 0.  1.
    9900012    2    1    2    0    0  0.43976730166E+01  0.10926686271E+02  0.14558346852E+02  0.72461615835E+02  0.70000059325E+02 0.  0.
        -12    1    1    2    0    0 -0.43976730166E+01 -0.10926686271E+02 -0.14558346852E+02  0.18726384165E+02  0.00000000000E+00 0.  1.
         11    1    3    3    0    0 -0.88536101759E+01  0.11508081563E+01  0.71016073727E+01  0.11408049794E+02  0.51100000000E-03 0. -1.
        -11    1    3    3    0    0  0.36434075595E+02  0.82002857573E+01  0.39419804800E+01  0.37552972736E+02  0.51100000000E-03 0.  1.
        -12    1    3    3    0    0 -0.23182792402E+02  0.15755923577E+01  0.35147589998E+01  0.23500593305E+02  0.00000000000E+00 0.  1.
</event>
<event>
 7    1  0.1884848E-013  0.7246155E+02  0.7816164E-02  0.1226708E+00
        -11   -1    0    0    0    0  0.00000000000E+00  0.00000000000E+00  0.45593999997E+02  0.45594000000E+02  0.51100000000E-03 0.  1.
         11   -1    0    0    0    0 -0.00000000000E+00 -0.00000000000E+00 -0.45593999997E+02  0.45594000000E+02  0.51100000000E-03 0. -1.
    9900012    2    1    2    0    0 -0.18100146739E+02  0.10345084175E+01 -0.46898062343E+01  0.72461553403E+02  0.69999977996E+02 0.  0.
        -12    1    1    2    0    0  0.18100146739E+02 -0.10345084175E+01  0.46898062343E+01  0.18726446597E+02  0.00000000000E+00 0.  1.
         11    1    3    3    0    0  0.14874821638E+02 -0.29627616194E+01  0.42295713766E+01  0.15745715274E+02  0.51100000000E-03 0. -1.
        -11    1    3    3    0    0 -0.27685352458E+02  0.94821201055E+01  0.14088588516E+02  0.32478880355E+02  0.51100000000E-03 0.  1.
        -12    1    3    3    0    0 -0.52896159193E+01 -0.54848500686E+01 -0.23007966127E+02  0.24236957774E+02  0.00000000000E+00 0.  1.
</event>
<event>
 7    1  0.1884848E-013  0.7246152E+02  0.7816164E-02  0.1226708E+00
        -11   -1    0    0    0    0  0.00000000000E+00  0.00000000000E+00  0.45593999997E+02  0.45594000000E+02  0.51100000000E-03 0.  1.
         11   -1    0    0    0    0 -0.00000000000E+00 -0.00000000000E+00 -0.45593999997E+02  0.45594000000E+02  0.51100000000E-03 0. -1.
    9900012    2    1    2    0    0 -0.44734474555E+01 -0.15121001279E+02 -0.10100724554E+02  0.72461520130E+02  0.69999934652E+02 0.  0.
        -12    1    1    2    0    0  0.44734474555E+01  0.15121001279E+02  0.10100724554E+02  0.18726479870E+02  0.00000000000E+00 0.  1.
         11    1    3    3    0    0  0.12714053427E+02 -0.95811348938E+00 -0.27473692796E+02  0.30288098853E+02  0.51100000000E-03 0. -1.
        -11    1    3    3    0    0 -0.25149390807E+02 -0.47864453215E+01  0.14917509501E+02  0.29629951178E+02  0.51100000000E-03 0.  1.
         12    1    3    3    0    0  0.79618899247E+01 -0.93764424678E+01  0.24554587407E+01  0.12543470100E+02  0.00000000000E+00 0. -1.
</event>
<event>
 7    1  0.1884848E-013  0.7246160E+02  0.7816164E-02  0.1226708E+00
        -11   -1    0    0    0    0  0.00000000000E+00  0.00000000000E+00  0.45593999997E+02  0.45594000000E+02  0.51100000000E-03 0. -1.
         11   -1    0    0    0    0 -0.00000000000E+00 -0.00000000000E+00 -0.45593999997E+02  0.45594000000E+02  0.51100000000E-03 0.  1.
    9900012    2    1    2    0    0  0.37926806859E+01  0.12719893360E+02  0.13209771736E+02  0.72461596630E+02  0.70000034307E+02 0.  0.
        -12    1    1    2    0    0 -0.37926806859E+01 -0.12719893360E+02 -0.13209771736E+02  0.18726403370E+02  0.00000000000E+00 0.  1.
         11    1    3    3    0    0 -0.12077139990E+02  0.99757208178E+01  0.29095299083E+02  0.33044042507E+02  0.51100000000E-03 0. -1.
        -11    1    3    3    0    0  0.24150404005E+02 -0.71468740209E+00 -0.18082850084E+02  0.30178506575E+02  0.51100000000E-03 0.  1.
        -12    1    3    3    0    0 -0.82805833288E+01  0.34588599444E+01  0.21973227363E+01  0.92390475477E+01  0.00000000000E+00 0.  1.
</event>
<event>
 7    1  0.1884848E-013  0.7246156E+02  0.7816164E-02  0.1226708E+00
        -11   -1    0    0    0    0  0.00000000000E+00  0.00000000000E+00  0.45593999997E+02  0.45594000000E+02  0.51100000000E-03 0.  1.
         11   -1    0    0    0    0 -0.00000000000E+00 -0.00000000000E+00 -0.45593999997E+02  0.45594000000E+02  0.51100000000E-03 0. -1.
    9900012    2    1    2    0    0  0.75003522295E+01  0.21879319733E+01 -0.17018735121E+02  0.72461556798E+02  0.69999982418E+02 0.  0.
        -12    1    1    2    0    0 -0.75003522295E+01 -0.21879319733E+01  0.17018735121E+02  0.18726443202E+02  0.00000000000E+00 0.  1.
         11    1    3    3    0    0 -0.26921715526E+02  0.67109552062E+01 -0.12484632850E+02  0.30425018394E+02  0.51100000000E-03 0. -1.
        -11    1    3    3    0    0  0.83902791526E+01 -0.11539955780E+02 -0.48627593531E+01  0.15073612455E+02  0.51100000000E-03 0.  1.
         12    1    3    3    0    0  0.26031788602E+02  0.70169325475E+01  0.32865708157E+00  0.26962925948E+02  0.00000000000E+00 0. -1.
</event>
<event>
 7    1  0.1884848E-013  0.7246155E+02  0.7816164E-02  0.1226708E+00
        -11   -1    0    0    0    0  0.00000000000E+00  0.00000000000E+00  0.45593999997E+02  0.45594000000E+02  0.51100000000E-03 0.  1.
         11   -1    0    0    0    0 -0.00000000000E+00 -0.00000000000E+00 -0.45593999997E+02  0.45594000000E+02  0.51100000000E-03 0. -1.
    9900012    2    1    2    0    0  0.16923757294E+02  0.52365040183E+01 -0.60700451602E+01  0.72461548560E+02  0.69999971687E+02 0.  0.
        -12    1    1    2    0    0 -0.16923757294E+02 -0.52365040183E+01  0.60700451602E+01  0.18726451440E+02  0.00000000000E+00 0.  1.
         11    1    3    3    0    0  0.18120305251E+02 -0.19357431432E+02 -0.65805425682E+01  0.27319574572E+02  0.51100000000E-03 0. -1.
        -11    1    3    3    0    0 -0.19496785620E+02  0.11586059154E+02 -0.14936447641E+00  0.22680029238E+02  0.51100000000E-03 0.  1.
        -12    1    3    3    0    0  0.18300237663E+02  0.13007876296E+02  0.65986188440E+00  0.22461944750E+02  0.00000000000E+00 0.  1.
</event>
<event>
 7    1  0.1884848E-013  0.7246152E+02  0.7816164E-02  0.1226708E+00
        -11   -1    0    0    0    0  0.00000000000E+00  0.00000000000E+00  0.45593999997E+02  0.45594000000E+02  0.51100000000E-03 0.  1.
         11   -1    0    0    0    0 -0.00000000000E+00 -0.00000000000E+00 -0.45593999997E+02  0.45594000000E+02  0.51100000000E-03 0. -1.
    9900012    2    1    2    0    0  0.27829257339E+01 -0.38880401878E+01 -0.18105791085E+02  0.72461516001E+02  0.69999929273E+02 0.  0.
        -12    1    1    2    0    0 -0.27829257339E+01  0.38880401878E+01  0.18105791085E+02  0.18726483999E+02  0.00000000000E+00 0.  1.
         11    1    3    3    0    0 -0.10277756706E+02  0.10566936272E+02 -0.43827816670E+01  0.15378595531E+02  0.51100000000E-03 0. -1.
        -11    1    3    3    0    0  0.18435699692E+02 -0.16039098807E+02  0.14429275477E+02  0.28378366844E+02  0.51100000000E-03 0.  1.
        -12    1    3    3    0    0 -0.53750172522E+01  0.15841223470E+01 -0.28152284895E+02  0.28704553626E+02  0.00000000000E+00 0.  1.
</event>
<event>
 7    1  0.1884848E-013  0.7246196E+02  0.7816164E-02  0.1226707E+00
        -11   -1    0    0    0    0  0.00000000000E+00  0.00000000000E+00  0.45593999997E+02  0.45594000000E+02  0.51100000000E-03 0.  1.
         11   -1    0    0    0    0 -0.00000000000E+00 -0.00000000000E+00 -0.45593999997E+02  0.45594000000E+02  0.51100000000E-03 0. -1.
    9900012    2    1    2    0    0  0.14883862933E+02 -0.62095620443E+01 -0.95171686656E+01  0.72461961017E+02  0.70000508987E+02 0.  0.
        -12    1    1    2    0    0 -0.14883862933E+02  0.62095620443E+01  0.95171686656E+01  0.18726038983E+02  0.00000000000E+00 0.  1.
         11    1    3    3    0    0 -0.22361417875E+01 -0.23043951819E+02 -0.20462021132E+02  0.30898517030E+02  0.51100000000E-03 0. -1.
        -11    1    3    3    0    0  0.81263347592E+01  0.17845895326E+02 -0.75186997955E+01  0.21001051009E+02  0.51100000000E-03 0.  1.
        -12    1    3    3    0    0  0.89936699610E+01 -0.10115055512E+01  0.18463552262E+02  0.20562392978E+02  0.00000000000E+00 0.  1.
</event>
<event>
 7    1  0.1884848E-013  0.7246157E+02  0.7816164E-02  0.1226708E+00
        -11   -1    0    0    0    0  0.00000000000E+00  0.00000000000E+00  0.45593999997E+02  0.45594000000E+02  0.51100000000E-03 0.  1.
         11   -1    0    0    0    0 -0.00000000000E+00 -0.00000000000E+00 -0.45593999997E+02  0.45594000000E+02  0.51100000000E-03 0. -1.
    9900012    2    1    2    0    0 -0.23564903382E+01 -0.18408855950E+02 -0.24980238900E+01  0.72461570883E+02  0.70000000767E+02 0.  0.
        -12    1    1    2    0    0  0.23564903382E+01  0.18408855950E+02  0.24980238900E+01  0.18726429117E+02  0.00000000000E+00 0.  1.
         11    1    3    3    0    0 -0.24735962377E+02  0.11451618237E+01 -0.87151185116E+01  0.26251333704E+02  0.51100000000E-03 0. -1.
        -11    1    3    3    0    0  0.16507913226E+02 -0.17300679933E+02  0.19926575203E+02  0.31127048122E+02  0.51100000000E-03 0.  1.
         12    1    3    3    0    0  0.58715588130E+01 -0.22533378410E+01 -0.13709480581E+02  0.15083189057E+02  0.00000000000E+00 0. -1.
</event>
<event>
 7    1  0.1884848E-013  0.7246156E+02  0.7816164E-02  0.1226708E+00
        -11   -1    0    0    0    0  0.00000000000E+00  0.00000000000E+00  0.45593999997E+02  0.45594000000E+02  0.51100000000E-03 0.  1.
         11   -1    0    0    0    0 -0.00000000000E+00 -0.00000000000E+00 -0.45593999997E+02  0.45594000000E+02  0.51100000000E-03 0. -1.
    9900012    2    1    2    0    0 -0.19595023558E+01 -0.10325713524E+02 -0.15499017482E+02  0.72461560077E+02  0.69999986690E+02 0.  0.
        -12    1    1    2    0    0  0.19595023558E+01  0.10325713524E+02  0.15499017482E+02  0.18726439923E+02  0.00000000000E+00 0.  1.
         11    1    3    3    0    0  0.19252766868E+02 -0.36410290001E+01 -0.10624622952E+02  0.22289206746E+02  0.51100000000E-03 0.  1.
        -11    1    3    3    0    0 -0.32310663781E+02  0.57494192267E+01 -0.38668025708E-01  0.32818231380E+02  0.51100000000E-03 0. -1.
         12    1    3    3    0    0  0.11098394558E+02 -0.12434103751E+02 -0.48357265050E+01  0.17354121951E+02  0.00000000000E+00 0. -1.
</event>
<event>
 7    1  0.1884848E-013  0.7246158E+02  0.7816164E-02  0.1226708E+00
        -11   -1    0    0    0    0  0.00000000000E+00  0.00000000000E+00  0.45593999997E+02  0.45594000000E+02  0.51100000000E-03 0.  1.
         11   -1    0    0    0    0 -0.00000000000E+00 -0.00000000000E+00 -0.45593999997E+02  0.45594000000E+02  0.51100000000E-03 0. -1.
    9900012    2    1    2    0    0  0.96297731442E+01  0.62051466614E+01 -0.14813594383E+02  0.72461576037E+02  0.70000007481E+02 0.  0.
        -12    1    1    2    0    0 -0.96297731442E+01 -0.62051466614E+01  0.14813594383E+02  0.18726423963E+02  0.00000000000E+00 0.  1.
         11    1    3    3    0    0  0.15480562857E+01  0.23059291953E+02  0.41454072490E+00  0.23114914404E+02  0.51100000000E-03 0. -1.
        -11    1    3    3    0    0 -0.13421165361E+02 -0.15809931032E+02 -0.18227876987E+02  0.27610452706E+02  0.51100000000E-03 0.  1.
        -12    1    3    3    0    0  0.21502882220E+02 -0.10442142601E+01  0.29997418794E+01  0.21736208927E+02  0.00000000000E+00 0.  1.
</event>
<event>
 7    1  0.1884848E-013  0.7246160E+02  0.7816164E-02  0.1226708E+00
        -11   -1    0    0    0    0  0.00000000000E+00  0.00000000000E+00  0.45593999997E+02  0.45594000000E+02  0.51100000000E-03 0. -1.
         11   -1    0    0    0    0 -0.00000000000E+00 -0.00000000000E+00 -0.45593999997E+02  0.45594000000E+02  0.51100000000E-03 0.  1.
    9900012    2    1    2    0    0 -0.95639642376E+01 -0.58616852362E+01  0.14994980638E+02  0.72461595912E+02  0.70000033372E+02 0.  0.
        -12    1    1    2    0    0  0.95639642376E+01  0.58616852362E+01 -0.14994980638E+02  0.18726404088E+02  0.00000000000E+00 0.  1.
         11    1    3    3    0    0 -0.47578489642E+01  0.84004623168E+01  0.37302289550E+02  0.38531359953E+02  0.51100000000E-03 0. -1.
        -11    1    3    3    0    0 -0.90068483023E+01 -0.17485928615E+02 -0.20303517681E+02  0.28268601776E+02  0.51100000000E-03 0.  1.
         12    1    3    3    0    0  0.42007330289E+01  0.32237810623E+01 -0.20037912311E+01  0.56616341825E+01  0.00000000000E+00 0. -1.
</event>
<event>
 7    1  0.1884848E-013  0.7246159E+02  0.7816164E-02  0.1226708E+00
        -11   -1    0    0    0    0  0.00000000000E+00  0.00000000000E+00  0.45593999997E+02  0.45594000000E+02  0.51100000000E-03 0.  1.
         11   -1    0    0    0    0 -0.00000000000E+00 -0.00000000000E+00 -0.45593999997E+02  0.45594000000E+02  0.51100000000E-03 0. -1.
    9900012    2    1    2    0    0 -0.97592306038E+01  0.20949314622E+01 -0.15844469011E+02  0.72461587689E+02  0.70000022660E+02 0.  0.
        -12    1    1    2    0    0  0.97592306038E+01 -0.20949314622E+01  0.15844469011E+02  0.18726412311E+02  0.00000000000E+00 0.  1.
         11    1    3    3    0    0  0.28479756587E+02  0.50031570398E+01 -0.14806562706E+01  0.28953764158E+02  0.51100000000E-03 0. -1.
        -11    1    3    3    0    0 -0.20314609574E+02 -0.74937752890E+01 -0.12271260845E+02  0.24888227603E+02  0.51100000000E-03 0.  1.
         12    1    3    3    0    0 -0.17924377617E+02  0.45855497114E+01 -0.20925518949E+01  0.18619595928E+02  0.00000000000E+00 0. -1.
</event>
<event>
 7    1  0.1884848E-013  0.7246158E+02  0.7816164E-02  0.1226708E+00
        -11   -1    0    0    0    0  0.00000000000E+00  0.00000000000E+00  0.45593999997E+02  0.45594000000E+02  0.51100000000E-03 0.  1.
         11   -1    0    0    0    0 -0.00000000000E+00 -0.00000000000E+00 -0.45593999997E+02  0.45594000000E+02  0.51100000000E-03 0. -1.
    9900012    2    1    2    0    0 -0.39615006694E+01 -0.76682330452E+01 -0.16618768613E+02  0.72461581341E+02  0.70000014390E+02 0.  0.
        -12    1    1    2    0    0  0.39615006694E+01  0.76682330452E+01  0.16618768613E+02  0.18726418659E+02  0.00000000000E+00 0.  1.
         11    1    3    3    0    0  0.80939371966E+01 -0.29055086722E+02 -0.12022882492E+02  0.32469363829E+02  0.51100000000E-03 0. -1.
        -11    1    3    3    0    0  0.39782071862E+01  0.19979429519E+02  0.53621008849E+01  0.21065513583E+02  0.51100000000E-03 0.  1.
         12    1    3    3    0    0 -0.16033645052E+02  0.14074241579E+01 -0.99579870053E+01  0.18926703929E+02  0.00000000000E+00 0. -1.
</event>
<event>
 7    1  0.1884848E-013  0.7246176E+02  0.7816164E-02  0.1226708E+00
        -11   -1    0    0    0    0  0.00000000000E+00  0.00000000000E+00  0.45593999997E+02  0.45594000000E+02  0.51100000000E-03 0.  1.
         11   -1    0    0    0    0 -0.00000000000E+00 -0.00000000000E+00 -0.45593999997E+02  0.45594000000E+02  0.51100000000E-03 0. -1.
    9900012    2    1    2    0    0  0.18137321882E+02 -0.45657577672E+01 -0.92921724773E+00  0.72461760823E+02  0.70000248198E+02 0.  0.
        -12    1    1    2    0    0 -0.18137321882E+02  0.45657577672E+01  0.92921724773E+00  0.18726239177E+02  0.00000000000E+00 0.  1.
         11    1    3    3    0    0  0.27133306622E+02  0.16827528388E+02  0.15559780346E+02  0.35517443666E+02  0.51100000000E-03 0.  1.
        -11    1    3    3    0    0 -0.17054517115E+02 -0.15204480939E+02 -0.12356814725E+02  0.25975443500E+02  0.51100000000E-03 0. -1.
         12    1    3    3    0    0  0.80585323742E+01 -0.61888052158E+01 -0.41321828692E+01  0.10968873656E+02  0.00000000000E+00 0. -1.
</event>
<event>
 7    1  0.1884848E-013  0.7246157E+02  0.7816164E-02  0.1226708E+00
        -11   -1    0    0    0    0  0.00000000000E+00  0.00000000000E+00  0.45593999997E+02  0.45594000000E+02  0.51100000000E-03 0. -1.
         11   -1    0    0    0    0 -0.00000000000E+00 -0.00000000000E+00 -0.45593999997E+02  0.45594000000E+02  0.51100000000E-03 0.  1.
    9900012    2    1    2    0    0 -0.60480474850E+01 -0.17717282328E+02  0.44506980762E+00  0.72461573256E+02  0.70000003857E+02 0.  0.
        -12    1    1    2    0    0  0.60480474850E+01  0.17717282328E+02 -0.44506980762E+00  0.18726426744E+02  0.00000000000E+00 0.  1.
         11    1    3    3    0    0  0.99557800809E+01 -0.12896243125E+02  0.96248787752E+01  0.18922709517E+02  0.51100000000E-03 0. -1.
        -11    1    3    3    0    0 -0.14320837837E+02  0.28263680612E+01 -0.28869092419E+02  0.32349640649E+02  0.51100000000E-03 0.  1.
        -12    1    3    3    0    0 -0.16829897294E+01 -0.76474072646E+01  0.19689283452E+02  0.21189223090E+02  0.00000000000E+00 0.  1.
</event>
<event>
 7    1  0.1884848E-013  0.7246166E+02  0.7816164E-02  0.1226708E+00
        -11   -1    0    0    0    0  0.00000000000E+00  0.00000000000E+00  0.45593999997E+02  0.45594000000E+02  0.51100000000E-03 0.  1.
         11   -1    0    0    0    0 -0.00000000000E+00 -0.00000000000E+00 -0.45593999997E+02  0.45594000000E+02  0.51100000000E-03 0. -1.
    9900012    2    1    2    0    0  0.10870851940E+02  0.93312780757E+01 -0.12059335738E+02  0.72461661574E+02  0.70000118908E+02 0.  0.
        -12    1    1    2    0    0 -0.10870851940E+02 -0.93312780757E+01  0.12059335738E+02  0.18726338426E+02  0.00000000000E+00 0.  1.
         11    1    3    3    0    0  0.22899037615E+02  0.13961488847E+02 -0.29901673139E+02  0.40167140193E+02  0.51100000000E-03 0. -1.
        -11    1    3    3    0    0 -0.35816789138E+01  0.88431886127E+01  0.12051115327E+02  0.15370744600E+02  0.51100000000E-03 0.  1.
         12    1    3    3    0    0 -0.84465067610E+01 -0.13473399384E+02  0.57912220745E+01  0.16923776781E+02  0.00000000000E+00 0. -1.
</event>
<event>
 7    1  0.1884848E-013  0.7246179E+02  0.7816164E-02  0.1226707E+00
        -11   -1    0    0    0    0  0.00000000000E+00  0.00000000000E+00  0.45593999997E+02  0.45594000000E+02  0.51100000000E-03 0. -1.
         11   -1    0    0    0    0 -0.00000000000E+00 -0.00000000000E+00 -0.45593999997E+02  0.45594000000E+02  0.51100000000E-03 0.  1.
    9900012    2    1    2    0    0  0.88199373558E+01 -0.33648791517E+01  0.16172732112E+02  0.72461789208E+02  0.70000285175E+02 0.  0.
        -12    1    1    2    0    0 -0.88199373558E+01  0.33648791517E+01 -0.16172732112E+02  0.18726210792E+02  0.00000000000E+00 0.  1.
         11    1    3    3    0    0  0.10525082041E+02  0.10716980441E+02 -0.12519635063E+02  0.19554341822E+02  0.51100000000E-03 0. -1.
        -11    1    3    3    0    0 -0.20542670980E+01 -0.68685791389E+01  0.39369733218E+02  0.40017162401E+02  0.51100000000E-03 0.  1.
        -12    1    3    3    0    0  0.34912241293E+00 -0.72132804535E+01 -0.10677366043E+02  0.12890284985E+02  0.00000000000E+00 0.  1.
</event>
<event>
 7    1  0.1988451E-013  0.7246153E+02  0.7816164E-02  0.1226708E+00
        -11   -1    0    0    0    0  0.00000000000E+00  0.00000000000E+00  0.45593999997E+02  0.45594000000E+02  0.51100000000E-03 0. -1.
         11   -1    0    0    0    0 -0.00000000000E+00 -0.00000000000E+00 -0.45593999997E+02  0.45594000000E+02  0.51100000000E-03 0.  1.
    9900012    2    1    2    0    0  0.96347079126E+01 -0.72005513987E+00  0.16041647951E+02  0.72461533570E+02  0.69999952160E+02 0.  0.
        -12    1    1    2    0    0 -0.96347079126E+01  0.72005513987E+00 -0.16041647951E+02  0.18726466430E+02  0.00000000000E+00 0.  1.
         11    1    3    3    0    0 -0.20019166977E+02  0.13182464216E+02  0.20726504461E+02  0.31688048168E+02  0.51100000000E-03 0. -1.
        -11    1    3    3    0    0  0.91801681956E+01 -0.70075051134E+01 -0.13211810714E+02  0.17548007255E+02  0.51100000000E-03 0.  1.
         12    1    3    3    0    0  0.20473706694E+02 -0.68950142421E+01  0.85269542039E+01  0.23225478147E+02  0.00000000000E+00 0. -1.
</event>
<event>
 7    1  0.1884848E-013  0.7246156E+02  0.7816164E-02  0.1226708E+00
        -11   -1    0    0    0    0  0.00000000000E+00  0.00000000000E+00  0.45593999997E+02  0.45594000000E+02  0.51100000000E-03 0.  1.
         11   -1    0    0    0    0 -0.00000000000E+00 -0.00000000000E+00 -0.45593999997E+02  0.45594000000E+02  0.51100000000E-03 0. -1.
    9900012    2    1    2    0    0  0.16491049450E+02  0.27149287653E+01 -0.84471310642E+01  0.72461559511E+02  0.69999985953E+02 0.  0.
        -12    1    1    2    0    0 -0.16491049450E+02 -0.27149287653E+01  0.84471310642E+01  0.18726440489E+02  0.00000000000E+00 0.  1.
         11    1    3    3    0    0  0.88138979104E+01 -0.13817227093E+02  0.25536420020E+02  0.30343192130E+02  0.51100000000E-03 0.  1.
        -11    1    3    3    0    0  0.70189393761E+01  0.24762818862E+01 -0.23274069637E+02  0.24435216383E+02  0.51100000000E-03 0. -1.
        -12    1    3    3    0    0  0.65821216376E+00  0.14055873973E+02 -0.10709481447E+02  0.17683150999E+02  0.00000000000E+00 0.  1.
</event>
<event>
 7    1  0.1884848E-013  0.7246151E+02  0.7816164E-02  0.1226708E+00
        -11   -1    0    0    0    0  0.00000000000E+00  0.00000000000E+00  0.45593999997E+02  0.45594000000E+02  0.51100000000E-03 0.  1.
         11   -1    0    0    0    0 -0.00000000000E+00 -0.00000000000E+00 -0.45593999997E+02  0.45594000000E+02  0.51100000000E-03 0. -1.
    9900012    2    1    2    0    0  0.64437331837E+01 -0.97291108560E+01 -0.14645962369E+02  0.72461507827E+02  0.69999918625E+02 0.  0.
        -12    1    1    2    0    0 -0.64437331837E+01  0.97291108560E+01  0.14645962369E+02  0.18726492173E+02  0.00000000000E+00 0.  1.
         11    1    3    3    0    0 -0.26763648050E+01  0.17212513924E+02 -0.22521840634E+02  0.28472212242E+02  0.51100000000E-03 0. -1.
        -11    1    3    3    0    0  0.20356457263E+02 -0.17498143674E+02 -0.95387197272E+00  0.26860384516E+02  0.51100000000E-03 0.  1.
        -12    1    3    3    0    0 -0.11236359275E+02 -0.94434811051E+01  0.88297502380E+01  0.17128911069E+02  0.00000000000E+00 0.  1.
</event>
<event>
 7    1  0.1884848E-013  0.7246158E+02  0.7816164E-02  0.1226708E+00
        -11   -1    0    0    0    0  0.00000000000E+00  0.00000000000E+00  0.45593999997E+02  0.45594000000E+02  0.51100000000E-03 0. -1.
         11   -1    0    0    0    0 -0.00000000000E+00 -0.00000000000E+00 -0.45593999997E+02  0.45594000000E+02  0.51100000000E-03 0.  1.
    9900012    2    1    2    0    0  0.47307924032E+01  0.16957937219E+02  0.63817611894E+01  0.72461577294E+02  0.70000009119E+02 0.  0.
        -12    1    1    2    0    0 -0.47307924032E+01 -0.16957937219E+02 -0.63817611894E+01  0.18726422706E+02  0.00000000000E+00 0.  1.
         11    1    3    3    0    0 -0.17619952346E+01  0.29699496569E+02  0.14868435586E+02  0.33260112758E+02  0.51100000000E-03 0. -1.
        -11    1    3    3    0    0 -0.16155588816E+01 -0.24112575291E+02 -0.37597965744E+01  0.24457358570E+02  0.51100000000E-03 0.  1.
        -12    1    3    3    0    0  0.81083465194E+01  0.11371015940E+02 -0.47268778222E+01  0.14744105966E+02  0.00000000000E+00 0.  1.
</event>
<event>
 7    1  0.1884848E-013  0.7246157E+02  0.7816164E-02  0.1226708E+00
        -11   -1    0    0    0    0  0.00000000000E+00  0.00000000000E+00  0.45593999997E+02  0.45594000000E+02  0.51100000000E-03 0. -1.
         11   -1    0    0    0    0 -0.00000000000E+00 -0.00000000000E+00 -0.45593999997E+02  0.45594000000E+02  0.51100000000E-03 0.  1.
    9900012    2    1    2    0    0 -0.12658652572E+02  0.72715415121E+01  0.11728695745E+02  0.72461572023E+02  0.70000002251E+02 0.  0.
        -12    1    1    2    0    0  0.12658652572E+02 -0.72715415121E+01 -0.11728695745E+02  0.18726427977E+02  0.00000000000E+00 0.  1.
         11    1    3    3    0    0 -0.34812910329E+01  0.26782930724E+01 -0.31644319297E+01  0.54135266450E+01  0.51100000000E-03 0. -1.
        -11    1    3    3    0    0  0.15089787386E+02  0.25530356189E+02  0.18250004866E+02  0.34821881747E+02  0.51100000000E-03 0.  1.
        -12    1    3    3    0    0 -0.24267148925E+02 -0.20937107750E+02 -0.33568771910E+01  0.32226163631E+02  0.00000000000E+00 0.  1.
</event>
<event>
 7    1  0.1884848E-013  0.7246154E+02  0.7816164E-02  0.1226708E+00
        -11   -1    0    0    0    0  0.00000000000E+00  0.00000000000E+00  0.45593999997E+02  0.45594000000E+02  0.51100000000E-03 0.  1.
         11   -1    0    0    0    0 -0.00000000000E+00 -0.00000000000E+00 -0.45593999997E+02  0.45594000000E+02  0.51100000000E-03 0. -1.
    9900012    2    1    2    0    0 -0.93886737339E+01  0.88551797093E+01 -0.13569040749E+02  0.72461540937E+02  0.69999961757E+02 0.  0.
        -12    1    1    2    0    0  0.93886737339E+01 -0.88551797093E+01  0.13569040749E+02  0.18726459063E+02  0.00000000000E+00 0.  1.
         11    1    3    3    0    0  0.15848909602E+02  0.97065089084E+01 -0.34259675291E+02  0.38976013163E+02  0.51100000000E-03 0. -1.
        -11    1    3    3    0    0 -0.13324861536E+02  0.15327930639E+01  0.68212801104E+01  0.15047632775E+02  0.51100000000E-03 0.  1.
         12    1    3    3    0    0 -0.11912721800E+02 -0.23841222631E+01  0.13869354431E+02  0.18437894999E+02  0.00000000000E+00 0. -1.
</event>
<event>
 7    1  0.1884848E-013  0.7246160E+02  0.7816164E-02  0.1226708E+00
        -11   -1    0    0    0    0  0.00000000000E+00  0.00000000000E+00  0.45593999997E+02  0.45594000000E+02  0.51100000000E-03 0.  1.
         11   -1    0    0    0    0 -0.00000000000E+00 -0.00000000000E+00 -0.45593999997E+02  0.45594000000E+02  0.51100000000E-03 0. -1.
    9900012    2    1    2    0    0 -0.11043828892E+01 -0.24962852804E+01 -0.18526383431E+02  0.72461601927E+02  0.70000041208E+02 0.  0.
        -12    1    1    2    0    0  0.11043828892E+01  0.24962852804E+01  0.18526383431E+02  0.18726398073E+02  0.00000000000E+00 0.  1.
         11    1    3    3    0    0 -0.17999341379E+02 -0.15501349954E+02  0.42927798512E+01  0.24139098981E+02  0.51100000000E-03 0. -1.
        -11    1    3    3    0    0  0.17916182701E+02 -0.40090850878E+00 -0.28549115706E+02  0.33707600598E+02  0.51100000000E-03 0.  1.
         12    1    3    3    0    0 -0.10212242107E+01  0.13405973183E+02  0.57299524243E+01  0.14614902348E+02  0.00000000000E+00 0. -1.
</event>
<event>
 7    1  0.1884848E-013  0.7246155E+02  0.7816164E-02  0.1226708E+00
        -11   -1    0    0    0    0  0.00000000000E+00  0.00000000000E+00  0.45593999997E+02  0.45594000000E+02  0.51100000000E-03 0.  1.
         11   -1    0    0    0    0 -0.00000000000E+00 -0.00000000000E+00 -0.45593999997E+02  0.45594000000E+02  0.51100000000E-03 0. -1.
    9900012    2    1    2    0    0  0.11738993074E+02  0.62021756008E+01 -0.13206397263E+02  0.72461551612E+02  0.69999975663E+02 0.  0.
        -12    1    1    2    0    0 -0.11738993074E+02 -0.62021756008E+01  0.13206397263E+02  0.18726448388E+02  0.00000000000E+00 0.  1.
         11    1    3    3    0    0  0.31356549483E+02 -0.17612726134E+01 -0.96718806037E+01  0.32861536047E+02  0.51100000000E-03 0. -1.
        -11    1    3    3    0    0 -0.18016047635E+02  0.14157332455E+02 -0.14348788435E+02  0.27035083955E+02  0.51100000000E-03 0.  1.
        -12    1    3    3    0    0 -0.16015087738E+01 -0.61938842407E+01  0.10814271776E+02  0.12564931610E+02  0.00000000000E+00 0.  1.
</event>
<event>
 7    1  0.1884848E-013  0.7246159E+02  0.7816164E-02  0.1226708E+00
        -11   -1    0    0    0    0  0.00000000000E+00  0.00000000000E+00  0.45593999997E+02  0.45594000000E+02  0.51100000000E-03 0. -1.
         11   -1    0    0    0    0 -0.00000000000E+00 -0.00000000000E+00 -0.45593999997E+02  0.45594000000E+02  0.51100000000E-03 0.  1.
    9900012    2    1    2    0    0 -0.14116901974E+01 -0.16270226940E+02  0.91632577069E+01  0.72461589620E+02  0.70000025176E+02 0.  0.
        -12    1    1    2    0    0  0.14116901974E+01  0.16270226940E+02 -0.91632577069E+01  0.18726410380E+02  0.00000000000E+00 0.  1.
         11    1    3    3    0    0 -0.50718617879E+01  0.53164187024E+01  0.14284302936E+02  0.16063293574E+02  0.51100000000E-03 0. -1.
        -11    1    3    3    0    0  0.21607771898E+02 -0.91238343469E+01 -0.19279482667E+02  0.30361795266E+02  0.51100000000E-03 0.  1.
        -12    1    3    3    0    0 -0.17947600308E+02 -0.12462811296E+02  0.14158437438E+02  0.26036500781E+02  0.00000000000E+00 0.  1.
</event>
<event>
 7    1  0.1884848E-013  0.7246155E+02  0.7816164E-02  0.1226708E+00
        -11   -1    0    0    0    0  0.00000000000E+00  0.00000000000E+00  0.45593999997E+02  0.45594000000E+02  0.51100000000E-03 0.  1.
         11   -1    0    0    0    0 -0.00000000000E+00 -0.00000000000E+00 -0.45593999997E+02  0.45594000000E+02  0.51100000000E-03 0. -1.
    9900012    2    1    2    0    0  0.81023620570E+01  0.14458477144E+02 -0.87168897628E+01  0.72461548138E+02  0.69999971137E+02 0.  0.
        -12    1    1    2    0    0 -0.81023620570E+01 -0.14458477144E+02  0.87168897628E+01  0.18726451862E+02  0.00000000000E+00 0.  1.
         11    1    3    3    0    0 -0.24272161166E+02  0.17871531812E+02 -0.18280380578E+02  0.35251975424E+02  0.51100000000E-03 0. -1.
        -11    1    3    3    0    0  0.55374256434E+01  0.27101237050E+01 -0.31104285730E+01  0.69052602718E+01  0.51100000000E-03 0.  1.
         12    1    3    3    0    0  0.26837097580E+02 -0.61231783735E+01  0.12673919388E+02  0.30304312442E+02  0.00000000000E+00 0. -1.
</event>
<event>
 7    1  0.1884848E-013  0.7246157E+02  0.7816164E-02  0.1226708E+00
        -11   -1    0    0    0    0  0.00000000000E+00  0.00000000000E+00  0.45593999997E+02  0.45594000000E+02  0.51100000000E-03 0.  1.
         11   -1    0    0    0    0 -0.00000000000E+00 -0.00000000000E+00 -0.45593999997E+02  0.45594000000E+02  0.51100000000E-03 0. -1.
    9900012    2    1    2    0    0 -0.10908476159E+02  0.14691300205E+02  0.39812192639E+01  0.72461567861E+02  0.69999996830E+02 0.  0.
        -12    1    1    2    0    0  0.10908476159E+02 -0.14691300205E+02 -0.39812192639E+01  0.18726432139E+02  0.00000000000E+00 0.  1.
         11    1    3    3    0    0 -0.16869536561E+02 -0.13205354653E+02 -0.13061577949E+02  0.25091183195E+02  0.51100000000E-03 0. -1.
        -11    1    3    3    0    0  0.16061152251E+02  0.38522352633E+01  0.57499435531E+00  0.16526673801E+02  0.51100000000E-03 0.  1.
         12    1    3    3    0    0 -0.10100091848E+02  0.24044419595E+02  0.16467802858E+02  0.30843710866E+02  0.00000000000E+00 0. -1.
</event>
<event>
 7    1  0.2140899E-013  0.7246208E+02  0.7816164E-02  0.1226707E+00
        -11   -1    0    0    0    0  0.00000000000E+00  0.00000000000E+00  0.45593999997E+02  0.45594000000E+02  0.51100000000E-03 0.  1.
         11   -1    0    0    0    0 -0.00000000000E+00 -0.00000000000E+00 -0.45593999997E+02  0.45594000000E+02  0.51100000000E-03 0. -1.
    9900012    2    1    2    0    0  0.77224919416E+01  0.13202817523E+02 -0.10803184781E+02  0.72462080163E+02  0.70000664195E+02 0.  0.
        -12    1    1    2    0    0 -0.77224919416E+01 -0.13202817523E+02  0.10803184781E+02  0.18725919837E+02  0.00000000000E+00 0.  1.
         11    1    3    3    0    0 -0.97885756572E+00  0.43833292136E+01 -0.27165695009E+02  0.27534464271E+02  0.51100000000E-03 0. -1.
        -11    1    3    3    0    0  0.12817987502E+02 -0.11808884725E+02  0.16343198482E+02  0.23892482059E+02  0.51100000000E-03 0.  1.
         12    1    3    3    0    0 -0.41166379951E+01  0.20628373034E+02  0.19311745615E-01  0.21035133833E+02  0.00000000000E+00 0. -1.
</event>
<event>
 7    1  0.1884848E-013  0.7246144E+02  0.7816164E-02  0.1226708E+00
        -11   -1    0    0    0    0  0.00000000000E+00  0.00000000000E+00  0.45593999997E+02  0.45594000000E+02  0.51100000000E-03 0.  1.
         11   -1    0    0    0    0 -0.00000000000E+00 -0.00000000000E+00 -0.45593999997E+02  0.45594000000E+02  0.51100000000E-03 0. -1.
    9900012    2    1    2    0    0  0.17623857156E+01 -0.56532839143E+01 -0.17765650806E+02  0.72461442095E+02  0.69999832996E+02 0.  0.
        -12    1    1    2    0    0 -0.17623857156E+01  0.56532839143E+01  0.17765650806E+02  0.18726557905E+02  0.00000000000E+00 0.  1.
         11    1    3    3    0    0 -0.88486572758E+01  0.19467921782E+01 -0.18309199899E+02  0.20428302342E+02  0.51100000000E-03 0. -1.
        -11    1    3    3    0    0  0.25796368296E+02 -0.17155274116E+02 -0.82399287344E+01  0.32057019092E+02  0.51100000000E-03 0.  1.
        -12    1    3    3    0    0 -0.15185325305E+02  0.95551980231E+01  0.87834778282E+01  0.19976120660E+02  0.00000000000E+00 0.  1.
</event>
<event>
 7    1  0.1884848E-013  0.7246153E+02  0.7816164E-02  0.1226708E+00
        -11   -1    0    0    0    0  0.00000000000E+00  0.00000000000E+00  0.45593999997E+02  0.45594000000E+02  0.51100000000E-03 0. -1.
         11   -1    0    0    0    0 -0.00000000000E+00 -0.00000000000E+00 -0.45593999997E+02  0.45594000000E+02  0.51100000000E-03 0.  1.
    9900012    2    1    2    0    0  0.22907818739E+01 -0.15603038512E+02  0.10098424194E+02  0.72461530402E+02  0.69999948033E+02 0.  0.
        -12    1    1    2    0    0 -0.22907818739E+01  0.15603038512E+02 -0.10098424194E+02  0.18726469598E+02  0.00000000000E+00 0.  1.
         11    1    3    3    0    0  0.14334895150E+02 -0.28585196329E+02 -0.47121419301E+00  0.31981630840E+02  0.51100000000E-03 0. -1.
        -11    1    3    3    0    0 -0.22684764337E+02  0.85358522845E+00  0.83762855826E+01  0.24196886188E+02  0.51100000000E-03 0.  1.
         12    1    3    3    0    0  0.10640651061E+02  0.12128572589E+02  0.21933528040E+01  0.16283013375E+02  0.00000000000E+00 0. -1.
</event>
<event>
 7    1  0.1884848E-013  0.7246158E+02  0.7816164E-02  0.1226708E+00
        -11   -1    0    0    0    0  0.00000000000E+00  0.00000000000E+00  0.45593999997E+02  0.45594000000E+02  0.51100000000E-03 0.  1.
         11   -1    0    0    0    0 -0.00000000000E+00 -0.00000000000E+00 -0.45593999997E+02  0.45594000000E+02  0.51100000000E-03 0. -1.
    9900012    2    1    2    0    0  0.83986513873E+01 -0.65600561997E+01 -0.15398288220E+02  0.72461575820E+02  0.70000007198E+02 0.  0.
        -12    1    1    2    0    0 -0.83986513873E+01  0.65600561997E+01  0.15398288220E+02  0.18726424180E+02  0.00000000000E+00 0.  1.
         11    1    3    3    0    0  0.22858666108E+02 -0.29296911122E+02  0.37153952741E+01  0.37344769109E+02  0.51100000000E-03 0. -1.
        -11    1    3    3    0    0 -0.48893024630E+01  0.95429903394E+01 -0.14763846855E+02  0.18246783755E+02  0.51100000000E-03 0.  1.
         12    1    3    3    0    0 -0.95707122579E+01  0.13193864583E+02 -0.43498366391E+01  0.16870022956E+02  0.00000000000E+00 0. -1.
</event>
<event>
 7    1  0.1884848E-013  0.7246157E+02  0.7816164E-02  0.1226708E+00
        -11   -1    0    0    0    0  0.00000000000E+00  0.00000000000E+00  0.45593999997E+02  0.45594000000E+02  0.51100000000E-03 0. -1.
         11   -1    0    0    0    0 -0.00000000000E+00 -0.00000000000E+00 -0.45593999997E+02  0.45594000000E+02  0.51100000000E-03 0.  1.
    9900012    2    1    2    0    0 -0.27386477724E+01 -0.11813085412E+02  0.14269897720E+02  0.72461570562E+02  0.70000000348E+02 0.  0.
        -12    1    1    2    0    0  0.27386477724E+01  0.11813085412E+02 -0.14269897720E+02  0.18726429438E+02  0.00000000000E+00 0.  1.
         11    1    3    3    0    0  0.71503800694E+01  0.16600432424E+02 -0.11356211299E+02  0.21346330531E+02  0.51100000000E-03 0. -1.
        -11    1    3    3    0    0  0.71394722694E+00 -0.28331466120E+02  0.62406869170E+01  0.29019439460E+02  0.51100000000E-03 0.  1.
         12    1    3    3    0    0 -0.10602975069E+02 -0.82051716499E-01  0.19385422102E+02  0.22095800571E+02  0.00000000000E+00 0. -1.
</event>
<event>
 7    1  0.1884848E-013  0.7246158E+02  0.7816164E-02  0.1226708E+00
        -11   -1    0    0    0    0  0.00000000000E+00  0.00000000000E+00  0.45593999997E+02  0.45594000000E+02  0.51100000000E-03 0. -1.
         11   -1    0    0    0    0 -0.00000000000E+00 -0.00000000000E+00 -0.45593999997E+02  0.45594000000E+02  0.51100000000E-03 0.  1.
    9900012    2    1    2    0    0  0.79258578727E+00  0.18472198644E+02 -0.29712882888E+01  0.72461578317E+02  0.70000010451E+02 0.  0.
        -12    1    1    2    0    0 -0.79258578727E+00 -0.18472198644E+02  0.29712882888E+01  0.18726421683E+02  0.00000000000E+00 0.  1.
         11    1    3    3    0    0  0.11111702941E+02  0.50349931665E+01 -0.60437760335E+01  0.13614269258E+02  0.51100000000E-03 0. -1.
        -11    1    3    3    0    0 -0.17881763002E+02  0.23910594773E+02  0.21177861641E+02  0.36605680083E+02  0.51100000000E-03 0.  1.
        -12    1    3    3    0    0  0.75626458479E+01 -0.10473389295E+02 -0.18105373896E+02  0.22241628975E+02  0.00000000000E+00 0.  1.
</event>
<event>
 7    1  0.1884848E-013  0.7246156E+02  0.7816164E-02  0.1226708E+00
        -11   -1    0    0    0    0  0.00000000000E+00  0.00000000000E+00  0.45593999997E+02  0.45594000000E+02  0.51100000000E-03 0. -1.
         11   -1    0    0    0    0 -0.00000000000E+00 -0.00000000000E+00 -0.45593999997E+02  0.45594000000E+02  0.51100000000E-03 0.  1.
    9900012    2    1    2    0    0  0.11912983046E+02  0.13469410021E+02  0.52283379156E+01  0.72461556432E+02  0.69999981941E+02 0.  0.
        -12    1    1    2    0    0 -0.11912983046E+02 -0.13469410021E+02 -0.52283379156E+01  0.18726443568E+02  0.00000000000E+00 0.  1.
         11    1    3    3    0    0  0.15199884897E+02  0.19001885525E+01  0.88954657769E+01  0.17713738427E+02  0.51100000000E-03 0. -1.
        -11    1    3    3    0    0 -0.86437879385E+01  0.17704514248E+02  0.20985453646E+02  0.28784616719E+02  0.51100000000E-03 0.  1.
        -12    1    3    3    0    0  0.53568860876E+01 -0.61352927795E+01 -0.24652581507E+02  0.25963201286E+02  0.00000000000E+00 0.  1.
</event>
<event>
 7    1  0.1884848E-013  0.7246154E+02  0.7816164E-02  0.1226708E+00
        -11   -1    0    0    0    0  0.00000000000E+00  0.00000000000E+00  0.45593999997E+02  0.45594000000E+02  0.51100000000E-03 0. -1.
         11   -1    0    0    0    0 -0.00000000000E+00 -0.00000000000E+00 -0.45593999997E+02  0.45594000000E+02  0.51100000000E-03 0.  1.
    9900012    2    1    2    0    0  0.14572738291E+02 -0.83109097387E+01 -0.83213135881E+01  0.72461543266E+02  0.69999964791E+02 0.  0.
        -12    1    1    2    0    0 -0.14572738291E+02  0.83109097387E+01  0.83213135881E+01  0.18726456734E+02  0.00000000000E+00 0.  1.
         11    1    3    3    0    0  0.11162978587E+02  0.11600816571E+02 -0.31990960316E+02  0.35813580919E+02  0.51100000000E-03 0. -1.
        -11    1    3    3    0    0 -0.60922769942E+01 -0.70573814702E+01  0.16977788021E+01  0.94765460645E+01  0.51100000000E-03 0.  1.
         12    1    3    3    0    0  0.95020366986E+01 -0.12854344840E+02  0.21971867925E+02  0.27171416283E+02  0.00000000000E+00 0. -1.
</event>
<event>
 7    1  0.1884848E-013  0.7246163E+02  0.7816164E-02  0.1226708E+00
        -11   -1    0    0    0    0  0.00000000000E+00  0.00000000000E+00  0.45593999997E+02  0.45594000000E+02  0.51100000000E-03 0.  1.
         11   -1    0    0    0    0 -0.00000000000E+00 -0.00000000000E+00 -0.45593999997E+02  0.45594000000E+02  0.51100000000E-03 0. -1.
    9900012    2    1    2    0    0 -0.14850877069E+02  0.73840907031E+01 -0.86950251742E+01  0.72461633347E+02  0.70000082138E+02 0.  0.
        -12    1    1    2    0    0  0.14850877069E+02 -0.73840907031E+01  0.86950251742E+01  0.18726366653E+02  0.00000000000E+00 0.  1.
         11    1    3    3    0    0 -0.57814444746E+01  0.12397419248E+02 -0.93205083613E+01  0.16552733327E+02  0.51100000000E-03 0. -1.
        -11    1    3    3    0    0  0.22875359340E+02 -0.49991512820E+01 -0.35840221199E+01  0.23687946160E+02  0.51100000000E-03 0.  1.
        -12    1    3    3    0    0 -0.31944791934E+02 -0.14177262786E-01  0.42095053070E+01  0.32220953860E+02  0.00000000000E+00 0.  1.
</event>
<event>
 7    1  0.1884848E-013  0.7246158E+02  0.7816164E-02  0.1226708E+00
        -11   -1    0    0    0    0  0.00000000000E+00  0.00000000000E+00  0.45593999997E+02  0.45594000000E+02  0.51100000000E-03 0.  1.
         11   -1    0    0    0    0 -0.00000000000E+00 -0.00000000000E+00 -0.45593999997E+02  0.45594000000E+02  0.51100000000E-03 0. -1.
    9900012    2    1    2    0    0 -0.12226681718E+02  0.13891942494E+02  0.28637606722E+01  0.72461576495E+02  0.70000008078E+02 0.  0.
        -12    1    1    2    0    0  0.12226681718E+02 -0.13891942494E+02 -0.28637606722E+01  0.18726423505E+02  0.00000000000E+00 0.  1.
         11    1    3    3    0    0 -0.24215757364E+02  0.34088490882E+02  0.10530111708E+02  0.43119732932E+02  0.51100000000E-03 0. -1.
        -11    1    3    3    0    0  0.95313255865E+01 -0.84231869523E+01  0.32181702367E+01  0.13120703708E+02  0.51100000000E-03 0.  1.
         12    1    3    3    0    0  0.24577500601E+01 -0.11773361435E+02 -0.10884521273E+02  0.16221139854E+02  0.00000000000E+00 0. -1.
</event>
<event>
 7    1  0.1884848E-013  0.7246138E+02  0.7816164E-02  0.1226709E+00
        -11   -1    0    0    0    0  0.00000000000E+00  0.00000000000E+00  0.45593999997E+02  0.45594000000E+02  0.51100000000E-03 0.  1.
         11   -1    0    0    0    0 -0.00000000000E+00 -0.00000000000E+00 -0.45593999997E+02  0.45594000000E+02  0.51100000000E-03 0. -1.
    9900012    2    1    2    0    0  0.58047123499E+01  0.87509027633E+01 -0.15505266805E+02  0.72461380355E+02  0.69999752568E+02 0.  0.
        -12    1    1    2    0    0 -0.58047123499E+01 -0.87509027633E+01  0.15505266805E+02  0.18726619645E+02  0.00000000000E+00 0.  1.
         11    1    3    3    0    0 -0.15399178539E+02 -0.17516590832E+02 -0.25052224422E+02  0.34228345020E+02  0.51100000000E-03 0. -1.
        -11    1    3    3    0    0  0.30223051256E+00  0.32806014029E+01  0.61527794987E+01  0.69792825325E+01  0.51100000000E-03 0.  1.
         12    1    3    3    0    0  0.20901660376E+02  0.22986892192E+02  0.33941781189E+01  0.31253752802E+02  0.00000000000E+00 0. -1.
</event>
<event>
 7    1  0.1884848E-013  0.7246158E+02  0.7816164E-02  0.1226708E+00
        -11   -1    0    0    0    0  0.00000000000E+00  0.00000000000E+00  0.45593999997E+02  0.45594000000E+02  0.51100000000E-03 0.  1.
         11   -1    0    0    0    0 -0.00000000000E+00 -0.00000000000E+00 -0.45593999997E+02  0.45594000000E+02  0.51100000000E-03 0. -1.
    9900012    2    1    2    0    0  0.13728280761E+02  0.11382536352E+02 -0.57140957333E+01  0.72461582390E+02  0.70000015757E+02 0.  0.
        -12    1    1    2    0    0 -0.13728280761E+02 -0.11382536352E+02  0.57140957333E+01  0.18726417610E+02  0.00000000000E+00 0.  1.
         11    1    3    3    0    0 -0.24005572067E+02  0.27506455344E+01 -0.48831604659E+01  0.24651141911E+02  0.51100000000E-03 0.  1.
        -11    1    3    3    0    0  0.22242721972E+02 -0.46356660921E+01  0.98766136812E+01  0.24774494524E+02  0.51100000000E-03 0. -1.
         12    1    3    3    0    0  0.15491130856E+02  0.13267556910E+02 -0.10707548949E+02  0.23035945955E+02  0.00000000000E+00 0. -1.
</event>
<event>
 7    1  0.1884848E-013  0.7246156E+02  0.7816164E-02  0.1226708E+00
        -11   -1    0    0    0    0  0.00000000000E+00  0.00000000000E+00  0.45593999997E+02  0.45594000000E+02  0.51100000000E-03 0. -1.
         11   -1    0    0    0    0 -0.00000000000E+00 -0.00000000000E+00 -0.45593999997E+02  0.45594000000E+02  0.51100000000E-03 0.  1.
    9900012    2    1    2    0    0 -0.96769818536E+01 -0.69361579426E+01  0.14454246954E+02  0.72461560941E+02  0.69999987816E+02 0.  0.
        -12    1    1    2    0    0  0.96769818536E+01  0.69361579426E+01 -0.14454246954E+02  0.18726439059E+02  0.00000000000E+00 0.  1.
         11    1    3    3    0    0 -0.81916763804E+01 -0.14083705662E+02  0.19077638546E+02  0.25088057315E+02  0.51100000000E-03 0. -1.
        -11    1    3    3    0    0  0.21248650699E+02  0.10983026906E+02 -0.43799367782E+01  0.24316987539E+02  0.51100000000E-03 0.  1.
        -12    1    3    3    0    0 -0.22733956172E+02 -0.38354791873E+01 -0.24345481360E+00  0.23056516087E+02  0.00000000000E+00 0.  1.
</event>
<event>
 7    1  0.1884848E-013  0.7246192E+02  0.7816164E-02  0.1226707E+00
        -11   -1    0    0    0    0  0.00000000000E+00  0.00000000000E+00  0.45593999997E+02  0.45594000000E+02  0.51100000000E-03 0.  1.
         11   -1    0    0    0    0 -0.00000000000E+00 -0.00000000000E+00 -0.45593999997E+02  0.45594000000E+02  0.51100000000E-03 0. -1.
    9900012    2    1    2    0    0 -0.88940050923E+01  0.16236078723E+02 -0.28200366926E+01  0.72461916965E+02  0.70000451602E+02 0.  0.
        -12    1    1    2    0    0  0.88940050923E+01 -0.16236078723E+02  0.28200366926E+01  0.18726083035E+02  0.00000000000E+00 0.  1.
         11    1    3    3    0    0  0.18727740201E+02  0.46337307775E+01 -0.22985806375E+02  0.30009115431E+02  0.51100000000E-03 0. -1.
        -11    1    3    3    0    0 -0.17746278221E+01 -0.57408354744E+01  0.50547111516E+01  0.78521717339E+01  0.51100000000E-03 0.  1.
         12    1    3    3    0    0 -0.25847117471E+02  0.17343183420E+02  0.15111058531E+02  0.34600629801E+02  0.00000000000E+00 0. -1.
</event>
<event>
 7    1  0.1884848E-013  0.7246157E+02  0.7816164E-02  0.1226708E+00
        -11   -1    0    0    0    0  0.00000000000E+00  0.00000000000E+00  0.45593999997E+02  0.45594000000E+02  0.51100000000E-03 0.  1.
         11   -1    0    0    0    0 -0.00000000000E+00 -0.00000000000E+00 -0.45593999997E+02  0.45594000000E+02  0.51100000000E-03 0. -1.
    9900012    2    1    2    0    0 -0.12524912368E+02 -0.66304981298E+01 -0.12241000083E+02  0.72461574332E+02  0.70000005260E+02 0.  0.
        -12    1    1    2    0    0  0.12524912368E+02  0.66304981298E+01  0.12241000083E+02  0.18726425668E+02  0.00000000000E+00 0.  1.
         11    1    3    3    0    0 -0.10080669375E+02  0.43188080001E+01 -0.59263096536E+01  0.12465678641E+02  0.51100000000E-03 0. -1.
        -11    1    3    3    0    0 -0.12795375670E+02 -0.24848008169E+02  0.15638709774E+02  0.32026776174E+02  0.51100000000E-03 0.  1.
        -12    1    3    3    0    0  0.10351132677E+02  0.13898702039E+02 -0.21953400203E+02  0.27969119517E+02  0.00000000000E+00 0.  1.
</event>
<event>
 7    1  0.1884848E-013  0.7246152E+02  0.7816164E-02  0.1226708E+00
        -11   -1    0    0    0    0  0.00000000000E+00  0.00000000000E+00  0.45593999997E+02  0.45594000000E+02  0.51100000000E-03 0.  1.
         11   -1    0    0    0    0 -0.00000000000E+00 -0.00000000000E+00 -0.45593999997E+02  0.45594000000E+02  0.51100000000E-03 0. -1.
    9900012    2    1    2    0    0 -0.17685960459E+02  0.16326715873E+01 -0.59348426776E+01  0.72461516841E+02  0.69999930367E+02 0.  0.
        -12    1    1    2    0    0  0.17685960459E+02 -0.16326715873E+01  0.59348426776E+01  0.18726483159E+02  0.00000000000E+00 0.  1.
         11    1    3    3    0    0 -0.11728691671E+02 -0.18844535764E+02 -0.27458639142E+01  0.22365565169E+02  0.51100000000E-03 0.  1.
        -11    1    3    3    0    0 -0.20720774303E+02  0.25326758283E+02  0.40137338192E+01  0.32968245817E+02  0.51100000000E-03 0. -1.
        -12    1    3    3    0    0  0.14763505514E+02 -0.48495509324E+01 -0.72027125826E+01  0.17127705855E+02  0.00000000000E+00 0.  1.
</event>
<event>
 7    1  0.1884848E-013  0.7246173E+02  0.7816164E-02  0.1226708E+00
        -11   -1    0    0    0    0  0.00000000000E+00  0.00000000000E+00  0.45593999997E+02  0.45594000000E+02  0.51100000000E-03 0.  1.
         11   -1    0    0    0    0 -0.00000000000E+00 -0.00000000000E+00 -0.45593999997E+02  0.45594000000E+02  0.51100000000E-03 0. -1.
    9900012    2    1    2    0    0  0.39100422511E+01  0.58809927606E+01 -0.17343549110E+02  0.72461729630E+02  0.70000207563E+02 0.  0.
        -12    1    1    2    0    0 -0.39100422511E+01 -0.58809927606E+01  0.17343549110E+02  0.18726270370E+02  0.00000000000E+00 0.  1.
         11    1    3    3    0    0  0.13869421928E+02  0.32658214991E+02 -0.27604277482E+01  0.35588478931E+02  0.51100000000E-03 0.  1.
        -11    1    3    3    0    0 -0.15051612487E+02 -0.20759341948E+02 -0.13301405195E+02  0.28886479485E+02  0.51100000000E-03 0. -1.
        -12    1    3    3    0    0  0.50922328101E+01 -0.60178802826E+01 -0.12817161665E+01  0.79867712137E+01  0.00000000000E+00 0.  1.
</event>
<event>
 7    1  0.1884848E-013  0.7246164E+02  0.7816164E-02  0.1226708E+00
        -11   -1    0    0    0    0  0.00000000000E+00  0.00000000000E+00  0.45593999997E+02  0.45594000000E+02  0.51100000000E-03 0.  1.
         11   -1    0    0    0    0 -0.00000000000E+00 -0.00000000000E+00 -0.45593999997E+02  0.45594000000E+02  0.51100000000E-03 0. -1.
    9900012    2    1    2    0    0  0.13841139338E+02 -0.46636941244E+01  0.11719613793E+02  0.72461640810E+02  0.70000091859E+02 0.  0.
        -12    1    1    2    0    0 -0.13841139338E+02  0.46636941244E+01 -0.11719613793E+02  0.18726359190E+02  0.00000000000E+00 0.  1.
         11    1    3    3    0    0 -0.41496917043E+01  0.49738210176E+01 -0.12285289623E+02  0.13888382849E+02  0.51100000000E-03 0. -1.
        -11    1    3    3    0    0  0.25581956693E+02 -0.25271305762E+02  0.17759841245E+02  0.40105951733E+02  0.51100000000E-03 0.  1.
        -12    1    3    3    0    0 -0.75911256505E+01  0.15633790620E+02  0.62450621719E+01  0.18467306228E+02  0.00000000000E+00 0.  1.
</event>
<event>
 7    1  0.1884848E-013  0.7246151E+02  0.7816164E-02  0.1226708E+00
        -11   -1    0    0    0    0  0.00000000000E+00  0.00000000000E+00  0.45593999997E+02  0.45594000000E+02  0.51100000000E-03 0.  1.
         11   -1    0    0    0    0 -0.00000000000E+00 -0.00000000000E+00 -0.45593999997E+02  0.45594000000E+02  0.51100000000E-03 0. -1.
    9900012    2    1    2    0    0  0.26894918787E+01 -0.51587460171E+01 -0.17799865584E+02  0.72461514963E+02  0.69999927921E+02 0.  0.
        -12    1    1    2    0    0 -0.26894918787E+01  0.51587460171E+01  0.17799865584E+02  0.18726485037E+02  0.00000000000E+00 0.  1.
         11    1    3    3    0    0 -0.11880598507E+02  0.18807800835E+02  0.10754724794E+02  0.24709231044E+02  0.51100000000E-03 0.  1.
        -11    1    3    3    0    0  0.11935511538E+01 -0.22476880717E+02 -0.25381144078E+02  0.33923991600E+02  0.51100000000E-03 0. -1.
         12    1    3    3    0    0  0.13376539232E+02 -0.14896661355E+01 -0.31734462997E+01  0.13828292318E+02  0.00000000000E+00 0. -1.
</event>
<event>
 7    1  0.1884848E-013  0.7246159E+02  0.7816164E-02  0.1226708E+00
        -11   -1    0    0    0    0  0.00000000000E+00  0.00000000000E+00  0.45593999997E+02  0.45594000000E+02  0.51100000000E-03 0. -1.
         11   -1    0    0    0    0 -0.00000000000E+00 -0.00000000000E+00 -0.45593999997E+02  0.45594000000E+02  0.51100000000E-03 0.  1.
    9900012    2    1    2    0    0 -0.82543180623E+01  0.15046174771E+02  0.74938209345E+01  0.72461588328E+02  0.70000023492E+02 0.  0.
        -12    1    1    2    0    0  0.82543180623E+01 -0.15046174771E+02 -0.74938209345E+01  0.18726411672E+02  0.00000000000E+00 0.  1.
         11    1    3    3    0    0 -0.76716459167E+00  0.95346734174E+00 -0.10444260221E+02  0.10515712687E+02  0.51100000000E-03 0.  1.
        -11    1    3    3    0    0 -0.23708938064E+02 -0.11860724924E+02  0.16665558311E+02  0.31313437594E+02  0.51100000000E-03 0. -1.
        -12    1    3    3    0    0  0.16221784594E+02  0.25953432353E+02  0.12725228442E+01  0.30632438047E+02  0.00000000000E+00 0.  1.
</event>
<event>
 7    1  0.1884848E-013  0.7246155E+02  0.7816164E-02  0.1226708E+00
        -11   -1    0    0    0    0  0.00000000000E+00  0.00000000000E+00  0.45593999997E+02  0.45594000000E+02  0.51100000000E-03 0. -1.
         11   -1    0    0    0    0 -0.00000000000E+00 -0.00000000000E+00 -0.45593999997E+02  0.45594000000E+02  0.51100000000E-03 0.  1.
    9900012    2    1    2    0    0 -0.16289340164E+02 -0.23380010484E+01 -0.89370521611E+01  0.72461554710E+02  0.69999979698E+02 0.  0.
        -12    1    1    2    0    0  0.16289340164E+02  0.23380010484E+01  0.89370521611E+01  0.18726445290E+02  0.00000000000E+00 0.  1.
         11    1    3    3    0    0 -0.18956294413E+02  0.22811456753E+02  0.97059491099E+01  0.31207516810E+02  0.51100000000E-03 0. -1.
        -11    1    3    3    0    0  0.10604840650E+02 -0.15340612019E+02 -0.21350391600E+02  0.28348478690E+02  0.51100000000E-03 0.  1.
         12    1    3    3    0    0 -0.79378864013E+01 -0.98088457827E+01  0.27073903289E+01  0.12905559209E+02  0.00000000000E+00 0. -1.
</event>
<event>
 8    1  0.1884848E-013  0.7246152E+02  0.7816164E-02  0.1226708E+00
        -11   -1    0    0    0    0  0.00000000000E+00  0.00000000000E+00  0.45593999997E+02  0.45594000000E+02  0.51100000000E-03 0. -1.
         11   -1    0    0    0    0 -0.00000000000E+00 -0.00000000000E+00 -0.45593999997E+02  0.45594000000E+02  0.51100000000E-03 0.  1.
    9900012    2    1    2    0    0  0.36956881600E+01  0.12290450182E+02  0.13636997981E+02  0.72461521672E+02  0.69999936660E+02 0.  0.
         24    2    3    3    0    0 -0.95293454999E+01  0.39489184806E+01  0.47000965352E+01  0.54451777805E+02  0.53258828525E+02 0.  0.
        -12    1    1    2    0    0 -0.36956881600E+01 -0.12290450182E+02 -0.13636997981E+02  0.18726478328E+02  0.00000000000E+00 0.  1.
         11    1    3    3    0    0  0.13225033660E+02  0.83415317017E+01  0.89369014454E+01  0.18009743867E+02  0.51100000000E-03 0. -1.
        -11    1    4    4    0    0 -0.16430769887E+02 -0.21226841928E+02 -0.35448599614E+01  0.27076097387E+02  0.51100000000E-03 0.  1.
         12    1    4    4    0    0  0.69014243870E+01  0.25175760408E+02  0.82449564966E+01  0.27375680418E+02  0.00000000000E+00 0. -1.
</event>
<event>
 7    1  0.1884848E-013  0.7246159E+02  0.7816164E-02  0.1226708E+00
        -11   -1    0    0    0    0  0.00000000000E+00  0.00000000000E+00  0.45593999997E+02  0.45594000000E+02  0.51100000000E-03 0.  1.
         11   -1    0    0    0    0 -0.00000000000E+00 -0.00000000000E+00 -0.45593999997E+02  0.45594000000E+02  0.51100000000E-03 0. -1.
    9900012    2    1    2    0    0  0.48796184667E+01 -0.80862108427E+01 -0.16170373602E+02  0.72461589116E+02  0.70000024518E+02 0.  0.
        -12    1    1    2    0    0 -0.48796184667E+01  0.80862108427E+01  0.16170373602E+02  0.18726410884E+02  0.00000000000E+00 0.  1.
         11    1    3    3    0    0 -0.82097504505E+01  0.27899206118E+01 -0.29405512019E+02  0.30657263362E+02  0.51100000000E-03 0. -1.
        -11    1    3    3    0    0  0.21056231986E+02 -0.37257584109E+01  0.19886353925E+02  0.29201254320E+02  0.51100000000E-03 0.  1.
        -12    1    3    3    0    0 -0.79668630691E+01 -0.71503730436E+01 -0.66512155073E+01  0.12603071433E+02  0.00000000000E+00 0.  1.
</event>
<event>
 7    1  0.1884848E-013  0.7246160E+02  0.7816164E-02  0.1226708E+00
        -11   -1    0    0    0    0  0.00000000000E+00  0.00000000000E+00  0.45593999997E+02  0.45594000000E+02  0.51100000000E-03 0. -1.
         11   -1    0    0    0    0 -0.00000000000E+00 -0.00000000000E+00 -0.45593999997E+02  0.45594000000E+02  0.51100000000E-03 0.  1.
    9900012    2    1    2    0    0  0.12681604393E+02  0.73595577990E+01  0.11648677811E+02  0.72461604839E+02  0.70000045001E+02 0.  0.
        -12    1    1    2    0    0 -0.12681604393E+02 -0.73595577990E+01 -0.11648677811E+02  0.18726395161E+02  0.00000000000E+00 0.  1.
         11    1    3    3    0    0 -0.29545478221E+01 -0.57069760989E+01  0.11292578263E+02  0.12993123301E+02  0.51100000000E-03 0. -1.
        -11    1    3    3    0    0  0.29475521688E+02  0.16612615940E+01 -0.17369777696E+02  0.34253107105E+02  0.51100000000E-03 0.  1.
        -12    1    3    3    0    0 -0.13839369473E+02  0.11405272304E+02  0.17725877244E+02  0.25215374433E+02  0.00000000000E+00 0.  1.
</event>
<event>
 7    1  0.1884848E-013  0.7246158E+02  0.7816164E-02  0.1226708E+00
        -11   -1    0    0    0    0  0.00000000000E+00  0.00000000000E+00  0.45593999997E+02  0.45594000000E+02  0.51100000000E-03 0. -1.
         11   -1    0    0    0    0 -0.00000000000E+00 -0.00000000000E+00 -0.45593999997E+02  0.45594000000E+02  0.51100000000E-03 0.  1.
    9900012    2    1    2    0    0 -0.14029929996E+02  0.10723054458E+02 -0.62334476967E+01  0.72461582756E+02  0.70000016234E+02 0.  0.
        -12    1    1    2    0    0  0.14029929996E+02 -0.10723054458E+02  0.62334476967E+01  0.18726417244E+02  0.00000000000E+00 0.  1.
         11    1    3    3    0    0 -0.29526648117E+02 -0.50046802650E+01  0.40826784024E+01  0.30224791757E+02  0.51100000000E-03 0. -1.
        -11    1    3    3    0    0  0.77364965948E+01  0.21939971263E+02 -0.18209772781E+02  0.29543384092E+02  0.51100000000E-03 0.  1.
        -12    1    3    3    0    0  0.77602215255E+01 -0.62122365407E+01  0.78936466822E+01  0.12693406907E+02  0.00000000000E+00 0.  1.
</event>
<event>
 7    1  0.1884848E-013  0.7246155E+02  0.7816164E-02  0.1226708E+00
        -11   -1    0    0    0    0  0.00000000000E+00  0.00000000000E+00  0.45593999997E+02  0.45594000000E+02  0.51100000000E-03 0.  1.
         11   -1    0    0    0    0 -0.00000000000E+00 -0.00000000000E+00 -0.45593999997E+02  0.45594000000E+02  0.51100000000E-03 0. -1.
    9900012    2    1    2    0    0  0.12340514715E+02 -0.61259391331E+01 -0.12683235520E+02  0.72461550872E+02  0.69999974699E+02 0.  0.
        -12    1    1    2    0    0 -0.12340514715E+02  0.61259391331E+01  0.12683235520E+02  0.18726449128E+02  0.00000000000E+00 0.  1.
         11    1    3    3    0    0  0.20051020683E+02 -0.16894844809E+02  0.18817678085E+01  0.26287264253E+02  0.51100000000E-03 0. -1.
        -11    1    3    3    0    0 -0.24213091570E+02  0.34787716122E+01 -0.13868854513E+02  0.28119757842E+02  0.51100000000E-03 0.  1.
         12    1    3    3    0    0  0.16502585602E+02  0.72901340632E+01 -0.69614881488E+00  0.18054528778E+02  0.00000000000E+00 0. -1.
</event>
<event>
 7    1  0.1884848E-013  0.7246154E+02  0.7816164E-02  0.1226708E+00
        -11   -1    0    0    0    0  0.00000000000E+00  0.00000000000E+00  0.45593999997E+02  0.45594000000E+02  0.51100000000E-03 0.  1.
         11   -1    0    0    0    0 -0.00000000000E+00 -0.00000000000E+00 -0.45593999997E+02  0.45594000000E+02  0.51100000000E-03 0. -1.
    9900012    2    1    2    0    0 -0.15228012178E+02  0.10735472948E+02  0.18808319316E+01  0.72461541096E+02  0.69999961964E+02 0.  0.
        -12    1    1    2    0    0  0.15228012178E+02 -0.10735472948E+02 -0.18808319316E+01  0.18726458904E+02  0.00000000000E+00 0.  1.
         11    1    3    3    0    0 -0.11411128827E+02  0.71887078935E+01 -0.93511043472E+01  0.16411414779E+02  0.51100000000E-03 0. -1.
        -11    1    3    3    0    0  0.22928095033E+02 -0.85086354434E+01  0.10737999644E+02  0.26709531174E+02  0.51100000000E-03 0.  1.
        -12    1    3    3    0    0 -0.26744978384E+02  0.12055400498E+02  0.49393663469E+00  0.29340595143E+02  0.00000000000E+00 0.  1.
</event>
<event>
 7    1  0.1884848E-013  0.7246156E+02  0.7816164E-02  0.1226708E+00
        -11   -1    0    0    0    0  0.00000000000E+00  0.00000000000E+00  0.45593999997E+02  0.45594000000E+02  0.51100000000E-03 0.  1.
         11   -1    0    0    0    0 -0.00000000000E+00 -0.00000000000E+00 -0.45593999997E+02  0.45594000000E+02  0.51100000000E-03 0. -1.
    9900012    2    1    2    0    0 -0.26583646504E+01 -0.82272104529E-01 -0.18536606724E+02  0.72461562535E+02  0.69999989891E+02 0.  0.
        -12    1    1    2    0    0  0.26583646504E+01  0.82272104529E-01  0.18536606724E+02  0.18726437465E+02  0.00000000000E+00 0.  1.
         11    1    3    3    0    0  0.13614599785E+02 -0.22217093374E+02 -0.82935899583E+01  0.27344838634E+02  0.51100000000E-03 0. -1.
        -11    1    3    3    0    0 -0.18648374696E+02  0.68332820479E+01  0.78021294868E+01  0.21338435911E+02  0.51100000000E-03 0.  1.
         12    1    3    3    0    0  0.23754102602E+01  0.15301539221E+02 -0.18045146252E+02  0.23778287989E+02  0.00000000000E+00 0. -1.
</event>
<event>
 8    1  0.1884848E-013  0.7246163E+02  0.7816164E-02  0.1226708E+00
        -11   -1    0    0    0    0  0.00000000000E+00  0.00000000000E+00  0.45593999997E+02  0.45594000000E+02  0.51100000000E-03 0.  1.
         11   -1    0    0    0    0 -0.00000000000E+00 -0.00000000000E+00 -0.45593999997E+02  0.45594000000E+02  0.51100000000E-03 0. -1.
    9900012    2    1    2    0    0 -0.13968522922E+02  0.11456768902E+02 -0.49294586355E+01  0.72461634930E+02  0.70000084200E+02 0.  0.
        -24    2    3    3    0    0  0.28676421580E+00  0.64461795367E-01 -0.12477895158E+02  0.52713805511E+02  0.51214851702E+02 0.  0.
        -12    1    1    2    0    0  0.13968522922E+02 -0.11456768902E+02  0.49294586355E+01  0.18726365070E+02  0.00000000000E+00 0.  1.
         11    1    4    4    0    0  0.80196176599E+01 -0.24274286259E+02 -0.79945600041E+01  0.26785597449E+02  0.51100000000E-03 0. -1.
        -11    1    3    3    0    0 -0.14255287137E+02  0.11392307106E+02  0.75484365225E+01  0.19747829419E+02  0.51100000000E-03 0.  1.
        -12    1    4    4    0    0 -0.77328534441E+01  0.24338748054E+02 -0.44833351539E+01  0.25928208062E+02  0.00000000000E+00 0.  1.
</event>
<event>
 7    1  0.1884848E-013  0.7246152E+02  0.7816164E-02  0.1226708E+00
        -11   -1    0    0    0    0  0.00000000000E+00  0.00000000000E+00  0.45593999997E+02  0.45594000000E+02  0.51100000000E-03 0.  1.
         11   -1    0    0    0    0 -0.00000000000E+00 -0.00000000000E+00 -0.45593999997E+02  0.45594000000E+02  0.51100000000E-03 0. -1.
    9900012    2    1    2    0    0 -0.17946897176E+00 -0.14199091882E+02  0.12207967606E+02  0.72461524292E+02  0.69999940073E+02 0.  0.
        -12    1    1    2    0    0  0.17946897176E+00  0.14199091882E+02 -0.12207967606E+02  0.18726475708E+02  0.00000000000E+00 0.  1.
         11    1    3    3    0    0  0.86585351054E+01 -0.29911421848E+02 -0.69262131983E+00  0.31147120440E+02  0.51100000000E-03 0. -1.
        -11    1    3    3    0    0 -0.74743659716E+01  0.25883678819E+02  0.30913448717E+01  0.27118027016E+02  0.51100000000E-03 0.  1.
         12    1    3    3    0    0 -0.13636381056E+01 -0.10171348852E+02  0.98092440540E+01  0.14196376836E+02  0.00000000000E+00 0. -1.
</event>
<event>
 7    1  0.1884848E-013  0.7246166E+02  0.7816164E-02  0.1226708E+00
        -11   -1    0    0    0    0  0.00000000000E+00  0.00000000000E+00  0.45593999997E+02  0.45594000000E+02  0.51100000000E-03 0.  1.
         11   -1    0    0    0    0 -0.00000000000E+00 -0.00000000000E+00 -0.45593999997E+02  0.45594000000E+02  0.51100000000E-03 0. -1.
    9900012    2    1    2    0    0  0.13470549784E+02 -0.19996710272E+01 -0.12853852008E+02  0.72461657401E+02  0.70000113472E+02 0.  0.
        -12    1    1    2    0    0 -0.13470549784E+02  0.19996710272E+01  0.12853852008E+02  0.18726342599E+02  0.00000000000E+00 0.  1.
         11    1    3    3    0    0 -0.24721114728E+02 -0.34522118824E+01  0.35037554641E+01  0.25205705364E+02  0.51100000000E-03 0. -1.
        -11    1    3    3    0    0  0.22737620101E+02 -0.94216153429E+01 -0.47122765555E+01  0.25059364600E+02  0.51100000000E-03 0.  1.
         12    1    3    3    0    0  0.15454044412E+02  0.10874156198E+02 -0.11645330916E+02  0.22196587437E+02  0.00000000000E+00 0. -1.
</event>
<event>
 7    1  0.1884848E-013  0.7246147E+02  0.7816164E-02  0.1226708E+00
        -11   -1    0    0    0    0  0.00000000000E+00  0.00000000000E+00  0.45593999997E+02  0.45594000000E+02  0.51100000000E-03 0. -1.
         11   -1    0    0    0    0 -0.00000000000E+00 -0.00000000000E+00 -0.45593999997E+02  0.45594000000E+02  0.51100000000E-03 0.  1.
    9900012    2    1    2    0    0  0.45608004864E+01 -0.15792390463E+02  0.89712041618E+01  0.72461467974E+02  0.69999866708E+02 0.  0.
        -12    1    1    2    0    0 -0.45608004864E+01  0.15792390463E+02 -0.89712041618E+01  0.18726532026E+02  0.00000000000E+00 0.  1.
         11    1    3    3    0    0 -0.98115568337E+01 -0.12374809848E+02 -0.62431639602E+01  0.16981744986E+02  0.51100000000E-03 0. -1.
        -11    1    3    3    0    0  0.22584494897E+02  0.16749367872E+02 -0.13048456733E+01  0.28147883692E+02  0.51100000000E-03 0.  1.
        -12    1    3    3    0    0 -0.82121375765E+01 -0.20166948487E+02  0.16519213795E+02  0.27331839295E+02  0.00000000000E+00 0.  1.
</event>
<event>
 7    1  0.1884848E-013  0.7246161E+02  0.7816164E-02  0.1226708E+00
        -11   -1    0    0    0    0  0.00000000000E+00  0.00000000000E+00  0.45593999997E+02  0.45594000000E+02  0.51100000000E-03 0. -1.
         11   -1    0    0    0    0 -0.00000000000E+00 -0.00000000000E+00 -0.45593999997E+02  0.45594000000E+02  0.51100000000E-03 0.  1.
    9900012    2    1    2    0    0 -0.94760263973E+01  0.98768012507E+01  0.12780118948E+02  0.72461609009E+02  0.70000050433E+02 0.  0.
        -12    1    1    2    0    0  0.94760263973E+01 -0.98768012507E+01 -0.12780118948E+02  0.18726390991E+02  0.00000000000E+00 0.  1.
         11    1    3    3    0    0  0.81161154980E+01 -0.22431418666E+02  0.70535777751E+01  0.24875546905E+02  0.51100000000E-03 0. -1.
        -11    1    3    3    0    0 -0.22588521303E+02  0.15252451098E+02 -0.36376605093E+01  0.27497475037E+02  0.51100000000E-03 0.  1.
        -12    1    3    3    0    0  0.49963794076E+01  0.17055768818E+02  0.93642016825E+01  0.20088587066E+02  0.00000000000E+00 0.  1.
</event>
<event>
 7    1  0.1884848E-013  0.7246184E+02  0.7816164E-02  0.1226707E+00
        -11   -1    0    0    0    0  0.00000000000E+00  0.00000000000E+00  0.45593999997E+02  0.45594000000E+02  0.51100000000E-03 0.  1.
         11   -1    0    0    0    0 -0.00000000000E+00 -0.00000000000E+00 -0.45593999997E+02  0.45594000000E+02  0.51100000000E-03 0. -1.
    9900012    2    1    2    0    0  0.12011510581E+02 -0.11671246316E+02 -0.83770388607E+01  0.72461837630E+02  0.70000348254E+02 0.  0.
        -12    1    1    2    0    0 -0.12011510581E+02  0.11671246316E+02  0.83770388607E+01  0.18726162370E+02  0.00000000000E+00 0.  1.
         11    1    3    3    0    0  0.19588931934E+02 -0.10644432234E+02 -0.10347967596E+02  0.24578661996E+02  0.51100000000E-03 0. -1.
        -11    1    3    3    0    0 -0.21480522277E+02 -0.16413245852E+02  0.24144985842E+01  0.27141062624E+02  0.51100000000E-03 0.  1.
        -12    1    3    3    0    0  0.13903100924E+02  0.15386431770E+02 -0.44356984904E+00  0.20742113010E+02  0.00000000000E+00 0.  1.
</event>
<event>
 7    1  0.1884848E-013  0.7246157E+02  0.7816164E-02  0.1226708E+00
        -11   -1    0    0    0    0  0.00000000000E+00  0.00000000000E+00  0.45593999997E+02  0.45594000000E+02  0.51100000000E-03 0.  1.
         11   -1    0    0    0    0 -0.00000000000E+00 -0.00000000000E+00 -0.45593999997E+02  0.45594000000E+02  0.51100000000E-03 0. -1.
    9900012    2    1    2    0    0 -0.11239181793E+02  0.13405870273E+02 -0.66815267410E+01  0.72461565081E+02  0.69999993209E+02 0.  0.
        -12    1    1    2    0    0  0.11239181793E+02 -0.13405870273E+02  0.66815267410E+01  0.18726434919E+02  0.00000000000E+00 0.  1.
         11    1    3    3    0    0 -0.10418865784E+02 -0.17901506407E+02 -0.64388603378E+01  0.21690449939E+02  0.51100000000E-03 0. -1.
        -11    1    3    3    0    0 -0.56282787394E+01  0.11906882939E+02  0.18939300758E+02  0.23068344032E+02  0.51100000000E-03 0.  1.
         12    1    3    3    0    0  0.48079627298E+01  0.19400493741E+02 -0.19181967162E+02  0.27702771110E+02  0.00000000000E+00 0. -1.
</event>
<event>
 7    1  0.1884848E-013  0.7246160E+02  0.7816164E-02  0.1226708E+00
        -11   -1    0    0    0    0  0.00000000000E+00  0.00000000000E+00  0.45593999997E+02  0.45594000000E+02  0.51100000000E-03 0.  1.
         11   -1    0    0    0    0 -0.00000000000E+00 -0.00000000000E+00 -0.45593999997E+02  0.45594000000E+02  0.51100000000E-03 0. -1.
    9900012    2    1    2    0    0 -0.18501906587E+02  0.60090161804E+00  0.28277839750E+01  0.72461601726E+02  0.70000040945E+02 0.  0.
        -12    1    1    2    0    0  0.18501906587E+02 -0.60090161804E+00 -0.28277839750E+01  0.18726398274E+02  0.00000000000E+00 0.  1.
         11    1    3    3    0    0 -0.18471544683E+02  0.22104902901E+02  0.24719571833E+00  0.28807738565E+02  0.51100000000E-03 0. -1.
        -11    1    3    3    0    0 -0.80213940763E+01 -0.29268947654E+02  0.78224208747E+01  0.31340139252E+02  0.51100000000E-03 0.  1.
        -12    1    3    3    0    0  0.79910321722E+01  0.77649463715E+01 -0.52418326180E+01  0.12313723910E+02  0.00000000000E+00 0.  1.
</event>
<event>
 7    1  0.1884848E-013  0.7246156E+02  0.7816164E-02  0.1226708E+00
        -11   -1    0    0    0    0  0.00000000000E+00  0.00000000000E+00  0.45593999997E+02  0.45594000000E+02  0.51100000000E-03 0.  1.
         11   -1    0    0    0    0 -0.00000000000E+00 -0.00000000000E+00 -0.45593999997E+02  0.45594000000E+02  0.51100000000E-03 0. -1.
    9900012    2    1    2    0    0 -0.11178239551E+02  0.65922021529E+01 -0.13500719949E+02  0.72461558591E+02  0.69999984755E+02 0.  0.
        -12    1    1    2    0    0  0.11178239551E+02 -0.65922021529E+01  0.13500719949E+02  0.18726441409E+02  0.00000000000E+00 0.  1.
         11    1    3    3    0    0  0.94718512093E+01  0.27967948946E+02 -0.15471417016E+02  0.33335969737E+02  0.51100000000E-03 0. -1.
        -11    1    3    3    0    0 -0.19359246020E+01 -0.20035500505E+02  0.29199281274E+01  0.20339495202E+02  0.51100000000E-03 0.  1.
        -12    1    3    3    0    0 -0.18714166158E+02 -0.13402462882E+01 -0.94923106027E+00  0.18786093653E+02  0.00000000000E+00 0.  1.
</event>
<event>
 7    1  0.1884848E-013  0.7246155E+02  0.7816164E-02  0.1226708E+00
        -11   -1    0    0    0    0  0.00000000000E+00  0.00000000000E+00  0.45593999997E+02  0.45594000000E+02  0.51100000000E-03 0. -1.
         11   -1    0    0    0    0 -0.00000000000E+00 -0.00000000000E+00 -0.45593999997E+02  0.45594000000E+02  0.51100000000E-03 0.  1.
    9900012    2    1    2    0    0 -0.14967513480E+02 -0.95514415274E+01  0.59517495733E+01  0.72461552980E+02  0.69999977444E+02 0.  0.
        -12    1    1    2    0    0  0.14967513480E+02  0.95514415274E+01 -0.59517495733E+01  0.18726447020E+02  0.00000000000E+00 0.  1.
         11    1    3    3    0    0 -0.63874826872E+01 -0.36449754658E+02  0.57009825917E+01  0.37441764815E+02  0.51100000000E-03 0. -1.
        -11    1    3    3    0    0  0.49960383843E+01  0.16593288556E+02 -0.32203142675E+01  0.17625777965E+02  0.51100000000E-03 0.  1.
         12    1    3    3    0    0 -0.13576069177E+02  0.10305024574E+02  0.34710812491E+01  0.17394010199E+02  0.00000000000E+00 0. -1.
</event>
<event>
 7    1  0.1884848E-013  0.7246153E+02  0.7816164E-02  0.1226708E+00
        -11   -1    0    0    0    0  0.00000000000E+00  0.00000000000E+00  0.45593999997E+02  0.45594000000E+02  0.51100000000E-03 0.  1.
         11   -1    0    0    0    0 -0.00000000000E+00 -0.00000000000E+00 -0.45593999997E+02  0.45594000000E+02  0.51100000000E-03 0. -1.
    9900012    2    1    2    0    0  0.10951053462E+01 -0.68701655403E+01 -0.17386265012E+02  0.72461530997E+02  0.69999948808E+02 0.  0.
        -12    1    1    2    0    0 -0.10951053462E+01  0.68701655403E+01  0.17386265012E+02  0.18726469003E+02  0.00000000000E+00 0.  1.
         11    1    3    3    0    0  0.20091291153E+02  0.13365473827E+02 -0.26354168476E+00  0.24132246586E+02  0.51100000000E-03 0. -1.
        -11    1    3    3    0    0 -0.76978687609E+01 -0.27248807970E+02 -0.22891547814E+01  0.28407656523E+02  0.51100000000E-03 0.  1.
         12    1    3    3    0    0 -0.11298317046E+02  0.70131686027E+01 -0.14833568546E+02  0.19921627888E+02  0.00000000000E+00 0. -1.
</event>
<event>
 7    1  0.1884848E-013  0.7246158E+02  0.7816164E-02  0.1226708E+00
        -11   -1    0    0    0    0  0.00000000000E+00  0.00000000000E+00  0.45593999997E+02  0.45594000000E+02  0.51100000000E-03 0.  1.
         11   -1    0    0    0    0 -0.00000000000E+00 -0.00000000000E+00 -0.45593999997E+02  0.45594000000E+02  0.51100000000E-03 0. -1.
    9900012    2    1    2    0    0 -0.17056310448E+02 -0.87568437915E+00 -0.76807666214E+01  0.72461582160E+02  0.70000015457E+02 0.  0.
        -12    1    1    2    0    0  0.17056310448E+02  0.87568437915E+00  0.76807666214E+01  0.18726417840E+02  0.00000000000E+00 0.  1.
         11    1    3    3    0    0 -0.75694405628E+01 -0.12587218067E+02 -0.31693529870E+02  0.34931566312E+02  0.51100000000E-03 0. -1.
        -11    1    3    3    0    0 -0.60693663217E+01  0.19126669955E+02  0.13355728159E+02  0.24104816656E+02  0.51100000000E-03 0.  1.
         12    1    3    3    0    0 -0.34175035633E+01 -0.74151362664E+01  0.10657035089E+02  0.13425199192E+02  0.00000000000E+00 0. -1.
</event>
<event>
 7    1  0.1884848E-013  0.7246157E+02  0.7816164E-02  0.1226708E+00
        -11   -1    0    0    0    0  0.00000000000E+00  0.00000000000E+00  0.45593999997E+02  0.45594000000E+02  0.51100000000E-03 0.  1.
         11   -1    0    0    0    0 -0.00000000000E+00 -0.00000000000E+00 -0.45593999997E+02  0.45594000000E+02  0.51100000000E-03 0. -1.
    9900012    2    1    2    0    0  0.41187519150E+00 -0.71379998406E+01 -0.17307762908E+02  0.72461565748E+02  0.69999994078E+02 0.  0.
        -12    1    1    2    0    0 -0.41187519150E+00  0.71379998406E+01  0.17307762908E+02  0.18726434252E+02  0.00000000000E+00 0.  1.
         11    1    3    3    0    0  0.44516162952E+01 -0.31070458020E+02 -0.17212823969E+02  0.35797647387E+02  0.51100000000E-03 0. -1.
        -11    1    3    3    0    0  0.64410143092E+01  0.91305560820E+01  0.10772119099E+02  0.15520704553E+02  0.51100000000E-03 0.  1.
        -12    1    3    3    0    0 -0.10480755413E+02  0.14801902097E+02 -0.10867058038E+02  0.21143213808E+02  0.00000000000E+00 0.  1.
</event>
<event>
 7    1  0.1884848E-013  0.7246161E+02  0.7816164E-02  0.1226708E+00
        -11   -1    0    0    0    0  0.00000000000E+00  0.00000000000E+00  0.45593999997E+02  0.45594000000E+02  0.51100000000E-03 0. -1.
         11   -1    0    0    0    0 -0.00000000000E+00 -0.00000000000E+00 -0.45593999997E+02  0.45594000000E+02  0.51100000000E-03 0.  1.
    9900012    2    1    2    0    0 -0.66001671651E+01  0.48384796574E+01  0.16843529526E+02  0.72461612765E+02  0.70000055325E+02 0.  0.
        -12    1    1    2    0    0  0.66001671651E+01 -0.48384796574E+01 -0.16843529526E+02  0.18726387235E+02  0.00000000000E+00 0.  1.
         11    1    3    3    0    0 -0.36992567786E+01 -0.15999713996E+02  0.20570580061E+02  0.26321552253E+02  0.51100000000E-03 0. -1.
        -11    1    3    3    0    0 -0.10625773182E+02  0.31259868993E+02 -0.27582045565E+01  0.33131467789E+02  0.51100000000E-03 0.  1.
        -12    1    3    3    0    0  0.77248627956E+01 -0.10421675340E+02 -0.96884597907E+00  0.13008592723E+02  0.00000000000E+00 0.  1.
</event>
<event>
 7    1  0.1884848E-013  0.7246160E+02  0.7816164E-02  0.1226708E+00
        -11   -1    0    0    0    0  0.00000000000E+00  0.00000000000E+00  0.45593999997E+02  0.45594000000E+02  0.51100000000E-03 0. -1.
         11   -1    0    0    0    0 -0.00000000000E+00 -0.00000000000E+00 -0.45593999997E+02  0.45594000000E+02  0.51100000000E-03 0.  1.
    9900012    2    1    2    0    0 -0.30234165748E+01 -0.26847596664E+01  0.18284670567E+02  0.72461597249E+02  0.70000035113E+02 0.  0.
        -12    1    1    2    0    0  0.30234165748E+01  0.26847596664E+01 -0.18284670567E+02  0.18726402751E+02  0.00000000000E+00 0.  1.
         11    1    3    3    0    0 -0.26283998373E+02  0.49685871785E+01  0.24467459695E+02  0.36251786345E+02  0.51100000000E-03 0. -1.
        -11    1    3    3    0    0  0.26622515436E+02  0.66470299541E+00 -0.35955122312E+01  0.26872436932E+02  0.51100000000E-03 0.  1.
         12    1    3    3    0    0 -0.33619336380E+01 -0.83180498404E+01 -0.25872768970E+01  0.93373739710E+01  0.00000000000E+00 0. -1.
</event>
<event>
 7    1  0.1884848E-013  0.7246226E+02  0.7816164E-02  0.1226706E+00
        -11   -1    0    0    0    0  0.00000000000E+00  0.00000000000E+00  0.45593999997E+02  0.45594000000E+02  0.51100000000E-03 0.  1.
         11   -1    0    0    0    0 -0.00000000000E+00 -0.00000000000E+00 -0.45593999997E+02  0.45594000000E+02  0.51100000000E-03 0. -1.
    9900012    2    1    2    0    0  0.11254790426E+02  0.62012609832E+01 -0.13620839416E+02  0.72462263386E+02  0.70000902875E+02 0.  0.
        -12    1    1    2    0    0 -0.11254790426E+02 -0.62012609832E+01  0.13620839416E+02  0.18725736614E+02  0.00000000000E+00 0.  1.
         11    1    3    3    0    0 -0.17616967910E+02  0.10238022265E+02  0.66827359764E+01  0.21443731453E+02  0.51100000000E-03 0. -1.
        -11    1    3    3    0    0  0.36528746246E+02  0.26476186061E+01 -0.15344199509E+02  0.39708986961E+02  0.51100000000E-03 0.  1.
        -12    1    3    3    0    0 -0.76569879101E+01 -0.66843798876E+01 -0.49593758837E+01  0.11309544973E+02  0.00000000000E+00 0.  1.
</event>
<event>
 7    1  0.1884848E-013  0.7246156E+02  0.7816164E-02  0.1226708E+00
        -11   -1    0    0    0    0  0.00000000000E+00  0.00000000000E+00  0.45593999997E+02  0.45594000000E+02  0.51100000000E-03 0. -1.
         11   -1    0    0    0    0 -0.00000000000E+00 -0.00000000000E+00 -0.45593999997E+02  0.45594000000E+02  0.51100000000E-03 0.  1.
    9900012    2    1    2    0    0  0.17194382567E+02 -0.55110694094E+01 -0.49659631046E+01  0.72461562340E+02  0.69999989638E+02 0.  0.
        -12    1    1    2    0    0 -0.17194382567E+02  0.55110694094E+01  0.49659631046E+01  0.18726437660E+02  0.00000000000E+00 0.  1.
         11    1    3    3    0    0  0.34096377903E+02  0.20547457988E+02 -0.64534740506E+01  0.40328753309E+02  0.51100000000E-03 0. -1.
        -11    1    3    3    0    0 -0.21090475015E+01 -0.96723633433E+01 -0.83745828866E+00  0.99349902192E+01  0.51100000000E-03 0.  1.
         12    1    3    3    0    0 -0.14792947835E+02 -0.16386164054E+02  0.23249692346E+01  0.22197818812E+02  0.00000000000E+00 0. -1.
</event>
<event>
 7    1  0.1884848E-013  0.7246161E+02  0.7816164E-02  0.1226708E+00
        -11   -1    0    0    0    0  0.00000000000E+00  0.00000000000E+00  0.45593999997E+02  0.45594000000E+02  0.51100000000E-03 0. -1.
         11   -1    0    0    0    0 -0.00000000000E+00 -0.00000000000E+00 -0.45593999997E+02  0.45594000000E+02  0.51100000000E-03 0.  1.
    9900012    2    1    2    0    0  0.10199554831E+02 -0.11290436848E+02  0.10916624595E+02  0.72461612854E+02  0.70000055442E+02 0.  0.
        -12    1    1    2    0    0 -0.10199554831E+02  0.11290436848E+02 -0.10916624595E+02  0.18726387146E+02  0.00000000000E+00 0.  1.
         11    1    3    3    0    0 -0.14670557103E+02  0.15208492053E+02  0.16251822972E+02  0.26657929898E+02  0.51100000000E-03 0. -1.
        -11    1    3    3    0    0  0.25214532286E+02 -0.19875767025E+02  0.60082580548E+01  0.32663709500E+02  0.51100000000E-03 0.  1.
        -12    1    3    3    0    0 -0.34442035086E+00 -0.66231618772E+01 -0.11343456432E+02  0.13139973457E+02  0.00000000000E+00 0.  1.
</event>
<event>
 7    1  0.1884848E-013  0.7246158E+02  0.7816164E-02  0.1226708E+00
        -11   -1    0    0    0    0  0.00000000000E+00  0.00000000000E+00  0.45593999997E+02  0.45594000000E+02  0.51100000000E-03 0. -1.
         11   -1    0    0    0    0 -0.00000000000E+00 -0.00000000000E+00 -0.45593999997E+02  0.45594000000E+02  0.51100000000E-03 0.  1.
    9900012    2    1    2    0    0  0.48849143090E+01 -0.38260587495E+01  0.17668553969E+02  0.72461577151E+02  0.70000008932E+02 0.  0.
        -12    1    1    2    0    0 -0.48849143090E+01  0.38260587495E+01 -0.17668553969E+02  0.18726422849E+02  0.00000000000E+00 0.  1.
         11    1    3    3    0    0 -0.27110557205E+02 -0.11429942690E+02  0.11384274160E+02  0.31547228092E+02  0.51100000000E-03 0. -1.
        -11    1    3    3    0    0  0.11639795169E+02  0.74828447451E+01 -0.80583513187E+01  0.16012957981E+02  0.51100000000E-03 0.  1.
         12    1    3    3    0    0  0.20355676345E+02  0.12103919581E+00  0.14342631128E+02  0.24901391078E+02  0.00000000000E+00 0. -1.
</event>
<event>
 7    1  0.1884848E-013  0.7246143E+02  0.7816164E-02  0.1226708E+00
        -11   -1    0    0    0    0  0.00000000000E+00  0.00000000000E+00  0.45593999997E+02  0.45594000000E+02  0.51100000000E-03 0.  1.
         11   -1    0    0    0    0 -0.00000000000E+00 -0.00000000000E+00 -0.45593999997E+02  0.45594000000E+02  0.51100000000E-03 0. -1.
    9900012    2    1    2    0    0 -0.13483998436E+02 -0.60550158404E+01 -0.11497962489E+02  0.72461426046E+02  0.69999812090E+02 0.  0.
        -12    1    1    2    0    0  0.13483998436E+02  0.60550158404E+01  0.11497962489E+02  0.18726573954E+02  0.00000000000E+00 0.  1.
         11    1    3    3    0    0 -0.16856671936E+02 -0.10823100145E+02 -0.73216494803E+01  0.21328230983E+02  0.51100000000E-03 0. -1.
        -11    1    3    3    0    0  0.16142355139E+01  0.26650294304E+02  0.53039721882E+01  0.27220875519E+02  0.51100000000E-03 0.  1.
        -12    1    3    3    0    0  0.17584379863E+01 -0.21882209999E+02 -0.94802851967E+01  0.23912319544E+02  0.00000000000E+00 0.  1.
</event>
<event>
 7    1  0.1884848E-013  0.7246159E+02  0.7816164E-02  0.1226708E+00
        -11   -1    0    0    0    0  0.00000000000E+00  0.00000000000E+00  0.45593999997E+02  0.45594000000E+02  0.51100000000E-03 0.  1.
         11   -1    0    0    0    0 -0.00000000000E+00 -0.00000000000E+00 -0.45593999997E+02  0.45594000000E+02  0.51100000000E-03 0. -1.
    9900012    2    1    2    0    0  0.57581079052E+01 -0.69261714382E+01 -0.16418001633E+02  0.72461589905E+02  0.70000025546E+02 0.  0.
        -12    1    1    2    0    0 -0.57581079052E+01  0.69261714382E+01  0.16418001633E+02  0.18726410095E+02  0.00000000000E+00 0.  1.
         11    1    3    3    0    0  0.30537660367E+02 -0.12981296671E+02 -0.78939338431E+01  0.34108312121E+02  0.51100000000E-03 0. -1.
        -11    1    3    3    0    0 -0.78598376827E+01 -0.62082103571E+01  0.70867337578E+01  0.12269503651E+02  0.51100000000E-03 0.  1.
         12    1    3    3    0    0 -0.16919714780E+02  0.12263335590E+02 -0.15610801547E+02  0.26083774132E+02  0.00000000000E+00 0. -1.
</event>
<event>
 7    1  0.1884848E-013  0.7246191E+02  0.7816164E-02  0.1226707E+00
        -11   -1    0    0    0    0  0.00000000000E+00  0.00000000000E+00  0.45593999997E+02  0.45594000000E+02  0.51100000000E-03 0.  1.
         11   -1    0    0    0    0 -0.00000000000E+00 -0.00000000000E+00 -0.45593999997E+02  0.45594000000E+02  0.51100000000E-03 0. -1.
    9900012    2    1    2    0    0 -0.23057157751E+01  0.37181999010E+01 -0.18207833504E+02  0.72461907598E+02  0.70000439399E+02 0.  0.
        -12    1    1    2    0    0  0.23057157751E+01 -0.37181999010E+01  0.18207833504E+02  0.18726092402E+02  0.00000000000E+00 0.  1.
         11    1    3    3    0    0  0.67286998132E+01 -0.11598987330E+02  0.16124146056E+02  0.20971408978E+02  0.51100000000E-03 0.  1.
        -11    1    3    3    0    0 -0.98562137668E+01 -0.38165445046E+01 -0.30066127385E+02  0.31869781580E+02  0.51100000000E-03 0. -1.
         12    1    3    3    0    0  0.82179817856E+00  0.19133731735E+02 -0.42658521751E+01  0.19620717039E+02  0.00000000000E+00 0. -1.
</event>
<event>
 7    1  0.1884848E-013  0.7246134E+02  0.7816164E-02  0.1226709E+00
        -11   -1    0    0    0    0  0.00000000000E+00  0.00000000000E+00  0.45593999997E+02  0.45594000000E+02  0.51100000000E-03 0. -1.
         11   -1    0    0    0    0 -0.00000000000E+00 -0.00000000000E+00 -0.45593999997E+02  0.45594000000E+02  0.51100000000E-03 0.  1.
    9900012    2    1    2    0    0 -0.80302122461E+01 -0.16341511181E+02 -0.43770386539E+01  0.72461340827E+02  0.69999701076E+02 0.  0.
        -12    1    1    2    0    0  0.80302122461E+01  0.16341511181E+02  0.43770386539E+01  0.18726659173E+02  0.00000000000E+00 0.  1.
         11    1    3    3    0    0 -0.26874945163E+01  0.83258869313E+01  0.14499822143E+02  0.16934812145E+02  0.51100000000E-03 0. -1.
        -11    1    3    3    0    0 -0.15071599806E+01 -0.14574120941E+02 -0.33954820449E+02  0.36981162291E+02  0.51100000000E-03 0.  1.
        -12    1    3    3    0    0 -0.38355577492E+01 -0.10093277171E+02  0.15077959652E+02  0.18545366391E+02  0.00000000000E+00 0.  1.
</event>
<event>
 7    1  0.1884848E-013  0.7246156E+02  0.7816164E-02  0.1226708E+00
        -11   -1    0    0    0    0  0.00000000000E+00  0.00000000000E+00  0.45593999997E+02  0.45594000000E+02  0.51100000000E-03 0. -1.
         11   -1    0    0    0    0 -0.00000000000E+00 -0.00000000000E+00 -0.45593999997E+02  0.45594000000E+02  0.51100000000E-03 0.  1.
    9900012    2    1    2    0    0 -0.14443877828E+02  0.15440871157E+01  0.11818200485E+02  0.72461556813E+02  0.69999982438E+02 0.  0.
        -12    1    1    2    0    0  0.14443877828E+02 -0.15440871157E+01 -0.11818200485E+02  0.18726443187E+02  0.00000000000E+00 0.  1.
         11    1    3    3    0    0 -0.14357422241E+02 -0.12799177197E+02  0.21547402358E+02  0.28883300693E+02  0.51100000000E-03 0. -1.
        -11    1    3    3    0    0 -0.68441117601E+01  0.23855326622E+02  0.44519793736E+01  0.25213857195E+02  0.51100000000E-03 0.  1.
         12    1    3    3    0    0  0.67576561728E+01 -0.95120623097E+01 -0.14181181246E+02  0.18364398925E+02  0.00000000000E+00 0. -1.
</event>
<event>
 7    1  0.1884848E-013  0.7246162E+02  0.7816164E-02  0.1226708E+00
        -11   -1    0    0    0    0  0.00000000000E+00  0.00000000000E+00  0.45593999997E+02  0.45594000000E+02  0.51100000000E-03 0.  1.
         11   -1    0    0    0    0 -0.00000000000E+00 -0.00000000000E+00 -0.45593999997E+02  0.45594000000E+02  0.51100000000E-03 0. -1.
    9900012    2    1    2    0    0  0.13142429600E+02 -0.19226718383E+01 -0.13200653217E+02  0.72461618392E+02  0.70000062656E+02 0.  0.
        -12    1    1    2    0    0 -0.13142429600E+02  0.19226718383E+01  0.13200653217E+02  0.18726381608E+02  0.00000000000E+00 0.  1.
         11    1    3    3    0    0 -0.11974936077E+02 -0.17639509846E+02 -0.14215866999E+02  0.25625032224E+02  0.51100000000E-03 0. -1.
        -11    1    3    3    0    0  0.27446547916E+00  0.18127224473E+02 -0.86295805208E+01  0.20078377889E+02  0.51100000000E-03 0.  1.
         12    1    3    3    0    0  0.24842900198E+02 -0.24103864661E+01  0.96447943035E+01  0.26758208279E+02  0.00000000000E+00 0. -1.
</event>
<event>
 7    1  0.1884848E-013  0.7246147E+02  0.7816164E-02  0.1226708E+00
        -11   -1    0    0    0    0  0.00000000000E+00  0.00000000000E+00  0.45593999997E+02  0.45594000000E+02  0.51100000000E-03 0. -1.
         11   -1    0    0    0    0 -0.00000000000E+00 -0.00000000000E+00 -0.45593999997E+02  0.45594000000E+02  0.51100000000E-03 0.  1.
    9900012    2    1    2    0    0 -0.10922862198E+02 -0.74930298043E+01  0.13237389262E+02  0.72461470991E+02  0.69999870639E+02 0.  0.
        -12    1    1    2    0    0  0.10922862198E+02  0.74930298043E+01 -0.13237389262E+02  0.18726529009E+02  0.00000000000E+00 0.  1.
         11    1    3    3    0    0 -0.17353818794E+02  0.80983440558E+01  0.34054197925E+02  0.39069509848E+02  0.51100000000E-03 0. -1.
        -11    1    3    3    0    0  0.69108039715E+01 -0.19483304829E+02 -0.12399773078E+02  0.24106280328E+02  0.51100000000E-03 0.  1.
        -12    1    3    3    0    0 -0.47984737562E+00  0.38919309686E+01 -0.84170355845E+01  0.92856808150E+01  0.00000000000E+00 0.  1.
</event>
<event>
 7    1  0.1884848E-013  0.7246158E+02  0.7816164E-02  0.1226708E+00
        -11   -1    0    0    0    0  0.00000000000E+00  0.00000000000E+00  0.45593999997E+02  0.45594000000E+02  0.51100000000E-03 0.  1.
         11   -1    0    0    0    0 -0.00000000000E+00 -0.00000000000E+00 -0.45593999997E+02  0.45594000000E+02  0.51100000000E-03 0. -1.
    9900012    2    1    2    0    0 -0.15967886506E+02 -0.80982074465E+01 -0.54885699332E+01  0.72461581142E+02  0.70000014131E+02 0.  0.
        -12    1    1    2    0    0  0.15967886506E+02  0.80982074465E+01  0.54885699332E+01  0.18726418858E+02  0.00000000000E+00 0.  1.
         11    1    3    3    0    0  0.15155310776E+02  0.11544704211E+02 -0.21528288299E+01  0.19172853525E+02  0.51100000000E-03 0. -1.
        -11    1    3    3    0    0 -0.36907124836E+02 -0.57195534069E+01 -0.64310925505E+01  0.37897336403E+02  0.51100000000E-03 0.  1.
        -12    1    3    3    0    0  0.57839275533E+01 -0.13923358251E+02  0.30953514472E+01  0.15391391214E+02  0.00000000000E+00 0.  1.
</event>
<event>
 7    1  0.1884848E-013  0.7246157E+02  0.7816164E-02  0.1226708E+00
        -11   -1    0    0    0    0  0.00000000000E+00  0.00000000000E+00  0.45593999997E+02  0.45594000000E+02  0.51100000000E-03 0.  1.
         11   -1    0    0    0    0 -0.00000000000E+00 -0.00000000000E+00 -0.45593999997E+02  0.45594000000E+02  0.51100000000E-03 0. -1.
    9900012    2    1    2    0    0 -0.79842797267E+01  0.42874838540E+01 -0.16387433584E+02  0.72461568946E+02  0.69999998244E+02 0.  0.
        -12    1    1    2    0    0  0.79842797267E+01 -0.42874838540E+01  0.16387433584E+02  0.18726431054E+02  0.00000000000E+00 0.  1.
         11    1    3    3    0    0 -0.16273395888E+02  0.18133408806E+02  0.10576238798E+02  0.26561264202E+02  0.51100000000E-03 0. -1.
        -11    1    3    3    0    0  0.13537165946E+02 -0.19882456942E+01 -0.29652809627E+02  0.32657267213E+02  0.51100000000E-03 0.  1.
        -12    1    3    3    0    0 -0.52480497849E+01 -0.11857679258E+02  0.26891372462E+01  0.13243037531E+02  0.00000000000E+00 0.  1.
</event>
<event>
 7    1  0.1884848E-013  0.7246155E+02  0.7816164E-02  0.1226708E+00
        -11   -1    0    0    0    0  0.00000000000E+00  0.00000000000E+00  0.45593999997E+02  0.45594000000E+02  0.51100000000E-03 0. -1.
         11   -1    0    0    0    0 -0.00000000000E+00 -0.00000000000E+00 -0.45593999997E+02  0.45594000000E+02  0.51100000000E-03 0.  1.
    9900012    2    1    2    0    0  0.10077582275E+02 -0.15759990439E+02  0.86303574064E+00  0.72461553625E+02  0.69999978286E+02 0.  0.
        -12    1    1    2    0    0 -0.10077582275E+02  0.15759990439E+02 -0.86303574064E+00  0.18726446375E+02  0.00000000000E+00 0.  1.
         11    1    3    3    0    0  0.96638172946E+01 -0.31331887775E+02  0.13552173795E+02  0.35478697427E+02  0.51100000000E-03 0. -1.
        -11    1    3    3    0    0  0.14314852768E+02  0.94862859029E+01 -0.13413875870E+02  0.21790747948E+02  0.51100000000E-03 0.  1.
         12    1    3    3    0    0 -0.13901087788E+02  0.60856114336E+01  0.72473781598E+00  0.15192108251E+02  0.00000000000E+00 0. -1.
</event>
<event>
 7    1  0.1884848E-013  0.7246158E+02  0.7816164E-02  0.1226708E+00
        -11   -1    0    0    0    0  0.00000000000E+00  0.00000000000E+00  0.45593999997E+02  0.45594000000E+02  0.51100000000E-03 0.  1.
         11   -1    0    0    0    0 -0.00000000000E+00 -0.00000000000E+00 -0.45593999997E+02  0.45594000000E+02  0.51100000000E-03 0. -1.
    9900012    2    1    2    0    0  0.19093935822E+01  0.14872579957E+02 -0.11217815519E+02  0.72461580069E+02  0.70000012733E+02 0.  0.
        -12    1    1    2    0    0 -0.19093935822E+01 -0.14872579957E+02  0.11217815519E+02  0.18726419931E+02  0.00000000000E+00 0.  1.
         11    1    3    3    0    0 -0.23958152486E+02  0.29731233736E+02 -0.11825030229E+02  0.39972123664E+02  0.51100000000E-03 0.  1.
        -11    1    3    3    0    0  0.26224866728E+02 -0.15636151876E+02  0.22727642933E+01  0.30616961609E+02  0.51100000000E-03 0. -1.
         12    1    3    3    0    0 -0.35732066042E+00  0.77749809644E+00 -0.16655495832E+01  0.18724947953E+01  0.00000000000E+00 0. -1.
</event>
<event>
 7    1  0.1884848E-013  0.7246206E+02  0.7816164E-02  0.1226707E+00
        -11   -1    0    0    0    0  0.00000000000E+00  0.00000000000E+00  0.45593999997E+02  0.45594000000E+02  0.51100000000E-03 0. -1.
         11   -1    0    0    0    0 -0.00000000000E+00 -0.00000000000E+00 -0.45593999997E+02  0.45594000000E+02  0.51100000000E-03 0.  1.
    9900012    2    1    2    0    0  0.11548330289E+02 -0.10718608385E+02  0.10119708635E+02  0.72462055403E+02  0.70000631942E+02 0.  0.
        -12    1    1    2    0    0 -0.11548330289E+02  0.10718608385E+02 -0.10119708635E+02  0.18725944597E+02  0.00000000000E+00 0.  1.
         11    1    3    3    0    0 -0.20623142336E+00  0.22530778705E+02 -0.33957683174E+01  0.22786174826E+02  0.51100000000E-03 0. -1.
        -11    1    3    3    0    0  0.68150654111E+01  0.67970044704E+00 -0.69403496892E+01  0.97506698911E+01  0.51100000000E-03 0.  1.
         12    1    3    3    0    0  0.49394963014E+01 -0.33929087537E+02  0.20455826642E+02  0.39925210687E+02  0.00000000000E+00 0. -1.
</event>
<event>
 7    1  0.1884848E-013  0.7246134E+02  0.7816164E-02  0.1226709E+00
        -11   -1    0    0    0    0  0.00000000000E+00  0.00000000000E+00  0.45593999997E+02  0.45594000000E+02  0.51100000000E-03 0. -1.
         11   -1    0    0    0    0 -0.00000000000E+00 -0.00000000000E+00 -0.45593999997E+02  0.45594000000E+02  0.51100000000E-03 0.  1.
    9900012    2    1    2    0    0 -0.49004468186E+01  0.17527372105E+02  0.44118589760E+01  0.72461343824E+02  0.69999704979E+02 0.  0.
        -12    1    1    2    0    0  0.49004468186E+01 -0.17527372105E+02 -0.44118589760E+01  0.18726656176E+02  0.00000000000E+00 0.  1.
         11    1    3    3    0    0 -0.22250746123E+02 -0.12690927891E+02  0.64217120562E+01  0.26408213491E+02  0.51100000000E-03 0.  1.
        -11    1    3    3    0    0  0.14331587491E+02  0.35999577240E+02 -0.46329852842E+01  0.39023435451E+02  0.51100000000E-03 0. -1.
         12    1    3    3    0    0  0.30187118129E+01 -0.57812772435E+01  0.26231322041E+01  0.70296948821E+01  0.00000000000E+00 0. -1.
</event>
<event>
 7    1  0.1884848E-013  0.7246155E+02  0.7816164E-02  0.1226708E+00
        -11   -1    0    0    0    0  0.00000000000E+00  0.00000000000E+00  0.45593999997E+02  0.45594000000E+02  0.51100000000E-03 0.  1.
         11   -1    0    0    0    0 -0.00000000000E+00 -0.00000000000E+00 -0.45593999997E+02  0.45594000000E+02  0.51100000000E-03 0. -1.
    9900012    2    1    2    0    0  0.10692394392E+02 -0.82905678493E+01 -0.12946777880E+02  0.72461551576E+02  0.69999975616E+02 0.  0.
        -12    1    1    2    0    0 -0.10692394392E+02  0.82905678493E+01  0.12946777880E+02  0.18726448424E+02  0.00000000000E+00 0.  1.
         11    1    3    3    0    0  0.10330136268E+02 -0.13726014623E+02 -0.25254673574E+02  0.30543636495E+02  0.51100000000E-03 0. -1.
        -11    1    3    3    0    0 -0.72561396089E+01  0.20023647892E+02 -0.11462948753E+00  0.21298149617E+02  0.51100000000E-03 0.  1.
        -12    1    3    3    0    0  0.76183977328E+01 -0.14588201119E+02  0.12422525182E+02  0.20619765464E+02  0.00000000000E+00 0.  1.
</event>
<event>
 7    1  0.1884848E-013  0.7246155E+02  0.7816164E-02  0.1226708E+00
        -11   -1    0    0    0    0  0.00000000000E+00  0.00000000000E+00  0.45593999997E+02  0.45594000000E+02  0.51100000000E-03 0.  1.
         11   -1    0    0    0    0 -0.00000000000E+00 -0.00000000000E+00 -0.45593999997E+02  0.45594000000E+02  0.51100000000E-03 0. -1.
    9900012    2    1    2    0    0 -0.10360154997E+02 -0.78000028344E+01 -0.13509522309E+02  0.72461546817E+02  0.69999969416E+02 0.  0.
        -12    1    1    2    0    0  0.10360154997E+02  0.78000028344E+01  0.13509522309E+02  0.18726453183E+02  0.00000000000E+00 0.  1.
         11    1    3    3    0    0 -0.13017363942E+02 -0.79716795222E+01 -0.33417414604E+02  0.36738576966E+02  0.51100000000E-03 0. -1.
        -11    1    3    3    0    0  0.11553533785E+02 -0.63781416597E+01  0.20806716652E+02  0.24639080585E+02  0.51100000000E-03 0.  1.
        -12    1    3    3    0    0 -0.88963248401E+01  0.65498183474E+01 -0.89882435729E+00  0.11083889266E+02  0.00000000000E+00 0.  1.
</event>
<event>
 7    1  0.1884848E-013  0.7246152E+02  0.7816164E-02  0.1226708E+00
        -11   -1    0    0    0    0  0.00000000000E+00  0.00000000000E+00  0.45593999997E+02  0.45594000000E+02  0.51100000000E-03 0.  1.
         11   -1    0    0    0    0 -0.00000000000E+00 -0.00000000000E+00 -0.45593999997E+02  0.45594000000E+02  0.51100000000E-03 0. -1.
    9900012    2    1    2    0    0  0.12301558977E+02  0.61980884578E+01 -0.12686072334E+02  0.72461519149E+02  0.69999933374E+02 0.  0.
        -12    1    1    2    0    0 -0.12301558977E+02 -0.61980884578E+01  0.12686072334E+02  0.18726480851E+02  0.00000000000E+00 0.  1.
         11    1    3    3    0    0  0.16438555117E+02 -0.15387802106E+02 -0.21742156557E+02  0.31300669642E+02  0.51100000000E-03 0. -1.
        -11    1    3    3    0    0 -0.17829705204E+02  0.89909294830E+01 -0.10364793627E+01  0.19995236692E+02  0.51100000000E-03 0.  1.
         12    1    3    3    0    0  0.13692709064E+02  0.12594961081E+02  0.10092563586E+02  0.21165612816E+02  0.00000000000E+00 0. -1.
</event>
<event>
 7    1  0.1884848E-013  0.7246157E+02  0.7816164E-02  0.1226708E+00
        -11   -1    0    0    0    0  0.00000000000E+00  0.00000000000E+00  0.45593999997E+02  0.45594000000E+02  0.51100000000E-03 0.  1.
         11   -1    0    0    0    0 -0.00000000000E+00 -0.00000000000E+00 -0.45593999997E+02  0.45594000000E+02  0.51100000000E-03 0. -1.
    9900012    2    1    2    0    0  0.84416485097E+01 -0.16156946205E+02 -0.42861371964E+01  0.72461566482E+02  0.69999995033E+02 0.  0.
        -12    1    1    2    0    0 -0.84416485097E+01  0.16156946205E+02  0.42861371964E+01  0.18726433518E+02  0.00000000000E+00 0.  1.
         11    1    3    3    0    0  0.17664636327E+02 -0.31754717419E+02 -0.18986234891E+02  0.40998519126E+02  0.51100000000E-03 0.  1.
        -11    1    3    3    0    0 -0.79167809230E+01 -0.14213904763E+01  0.11598134924E+02  0.14114266012E+02  0.51100000000E-03 0. -1.
         12    1    3    3    0    0 -0.13062068946E+01  0.17019161690E+02  0.31019627701E+01  0.17348781344E+02  0.00000000000E+00 0. -1.
</event>
<event>
 7    1  0.1884848E-013  0.7246156E+02  0.7816164E-02  0.1226708E+00
        -11   -1    0    0    0    0  0.00000000000E+00  0.00000000000E+00  0.45593999997E+02  0.45594000000E+02  0.51100000000E-03 0.  1.
         11   -1    0    0    0    0 -0.00000000000E+00 -0.00000000000E+00 -0.45593999997E+02  0.45594000000E+02  0.51100000000E-03 0. -1.
    9900012    2    1    2    0    0 -0.12684378019E+02 -0.44048846477E+01 -0.13053086493E+02  0.72461560897E+02  0.69999987758E+02 0.  0.
        -12    1    1    2    0    0  0.12684378019E+02  0.44048846477E+01  0.13053086493E+02  0.18726439103E+02  0.00000000000E+00 0.  1.
         11    1    3    3    0    0 -0.16953645221E+01  0.24917021402E+02 -0.23626360551E+02  0.34379312523E+02  0.51100000000E-03 0. -1.
        -11    1    3    3    0    0 -0.46063223684E+00 -0.11975717413E+02  0.12958943640E+02  0.17651181551E+02  0.51100000000E-03 0.  1.
         12    1    3    3    0    0 -0.10528381260E+02 -0.17346188636E+02 -0.23856695818E+01  0.20431066823E+02  0.00000000000E+00 0. -1.
</event>
<event>
 7    1  0.1884848E-013  0.7246190E+02  0.7816164E-02  0.1226707E+00
        -11   -1    0    0    0    0  0.00000000000E+00  0.00000000000E+00  0.45593999997E+02  0.45594000000E+02  0.51100000000E-03 0.  1.
         11   -1    0    0    0    0 -0.00000000000E+00 -0.00000000000E+00 -0.45593999997E+02  0.45594000000E+02  0.51100000000E-03 0. -1.
    9900012    2    1    2    0    0  0.10155618157E+02  0.70284187125E+01 -0.14075920386E+02  0.72461900981E+02  0.70000430780E+02 0.  0.
        -12    1    1    2    0    0 -0.10155618157E+02 -0.70284187125E+01  0.14075920386E+02  0.18726099019E+02  0.00000000000E+00 0.  1.
         11    1    3    3    0    0  0.19922450376E+02  0.14669870985E+02 -0.19725723113E+02  0.31641954685E+02  0.51100000000E-03 0. -1.
        -11    1    3    3    0    0 -0.65178836254E+01  0.15089350202E+02  0.68947832089E+01  0.17824402717E+02  0.51100000000E-03 0.  1.
         12    1    3    3    0    0 -0.32489485935E+01 -0.22730802474E+02 -0.12449804818E+01  0.22995543579E+02  0.00000000000E+00 0. -1.
</event>
<event>
 7    1  0.1884848E-013  0.7246116E+02  0.7816164E-02  0.1226709E+00
        -11   -1    0    0    0    0  0.00000000000E+00  0.00000000000E+00  0.45593999997E+02  0.45594000000E+02  0.51100000000E-03 0. -1.
         11   -1    0    0    0    0 -0.00000000000E+00 -0.00000000000E+00 -0.45593999997E+02  0.45594000000E+02  0.51100000000E-03 0.  1.
    9900012    2    1    2    0    0 -0.81220157136E+01 -0.14003520187E+02  0.94142815238E+01  0.72461163282E+02  0.69999469788E+02 0.  0.
        -12    1    1    2    0    0  0.81220157136E+01  0.14003520187E+02 -0.94142815238E+01  0.18726836718E+02  0.00000000000E+00 0.  1.
         11    1    3    3    0    0 -0.77455626650E+01  0.86738928837E+01 -0.22090022210E+02  0.24963958826E+02  0.51100000000E-03 0. -1.
        -11    1    3    3    0    0  0.13195328894E+02 -0.87161717857E+01  0.16997248698E+02  0.23216261947E+02  0.51100000000E-03 0.  1.
        -12    1    3    3    0    0 -0.13571781942E+02 -0.13961241285E+02  0.14507055036E+02  0.24280942509E+02  0.00000000000E+00 0.  1.
</event>
<event>
 7    1  0.1884848E-013  0.7246159E+02  0.7816164E-02  0.1226708E+00
        -11   -1    0    0    0    0  0.00000000000E+00  0.00000000000E+00  0.45593999997E+02  0.45594000000E+02  0.51100000000E-03 0. -1.
         11   -1    0    0    0    0 -0.00000000000E+00 -0.00000000000E+00 -0.45593999997E+02  0.45594000000E+02  0.51100000000E-03 0.  1.
    9900012    2    1    2    0    0  0.16709669560E+02 -0.83561436657E+01 -0.12807602060E+01  0.72461587090E+02  0.70000021880E+02 0.  0.
        -12    1    1    2    0    0 -0.16709669560E+02  0.83561436657E+01  0.12807602060E+01  0.18726412910E+02  0.00000000000E+00 0.  1.
         11    1    3    3    0    0 -0.10211269375E+02  0.11647828565E+02 -0.18319391691E+02  0.23990457367E+02  0.51100000000E-03 0. -1.
        -11    1    3    3    0    0  0.22141850446E+02 -0.13965313315E+02 -0.36168641280E+01  0.26426752043E+02  0.51100000000E-03 0.  1.
         12    1    3    3    0    0  0.47790884886E+01 -0.60386589149E+01  0.20655495613E+02  0.22044377680E+02  0.00000000000E+00 0. -1.
</event>
<event>
 7    1  0.1884848E-013  0.7246157E+02  0.7816164E-02  0.1226708E+00
        -11   -1    0    0    0    0  0.00000000000E+00  0.00000000000E+00  0.45593999997E+02  0.45594000000E+02  0.51100000000E-03 0.  1.
         11   -1    0    0    0    0 -0.00000000000E+00 -0.00000000000E+00 -0.45593999997E+02  0.45594000000E+02  0.51100000000E-03 0. -1.
    9900012    2    1    2    0    0  0.87569194921E+01  0.81912944777E+01 -0.14383953840E+02  0.72461572891E+02  0.70000003383E+02 0.  0.
        -12    1    1    2    0    0 -0.87569194921E+01 -0.81912944777E+01  0.14383953840E+02  0.18726427109E+02  0.00000000000E+00 0.  1.
         11    1    3    3    0    0 -0.93360680310E+01 -0.16854622048E+02 -0.21841185493E+02  0.29125209607E+02  0.51100000000E-03 0. -1.
        -11    1    3    3    0    0  0.22114979397E+02  0.18203797765E+02 -0.44898763874E+01  0.28993267443E+02  0.51100000000E-03 0.  1.
        -12    1    3    3    0    0 -0.40219918737E+01  0.68421187608E+01  0.11947108040E+02  0.14343095841E+02  0.00000000000E+00 0.  1.
</event>
<event>
 7    1  0.1884848E-013  0.7246155E+02  0.7816164E-02  0.1226708E+00
        -11   -1    0    0    0    0  0.00000000000E+00  0.00000000000E+00  0.45593999997E+02  0.45594000000E+02  0.51100000000E-03 0. -1.
         11   -1    0    0    0    0 -0.00000000000E+00 -0.00000000000E+00 -0.45593999997E+02  0.45594000000E+02  0.51100000000E-03 0.  1.
    9900012    2    1    2    0    0 -0.11477255249E+02  0.10694491245E+02  0.10226463901E+02  0.72461545585E+02  0.69999967811E+02 0.  0.
        -12    1    1    2    0    0  0.11477255249E+02 -0.10694491245E+02 -0.10226463901E+02  0.18726454415E+02  0.00000000000E+00 0.  1.
         11    1    3    3    0    0 -0.39961642547E+02  0.31147498594E+01  0.76522951292E+01  0.40806766139E+02  0.51100000000E-03 0. -1.
        -11    1    3    3    0    0  0.14363641913E+02  0.51154285832E+01  0.68227407175E+01  0.16704239275E+02  0.51100000000E-03 0.  1.
         12    1    3    3    0    0  0.14120745385E+02  0.24643128028E+01 -0.42485719458E+01  0.14950540170E+02  0.00000000000E+00 0. -1.
</event>
<event>
 7    1  0.1884848E-013  0.7246173E+02  0.7816164E-02  0.1226708E+00
        -11   -1    0    0    0    0  0.00000000000E+00  0.00000000000E+00  0.45593999997E+02  0.45594000000E+02  0.51100000000E-03 0. -1.
         11   -1    0    0    0    0 -0.00000000000E+00 -0.00000000000E+00 -0.45593999997E+02  0.45594000000E+02  0.51100000000E-03 0.  1.
    9900012    2    1    2    0    0  0.12572563986E+02  0.25714619603E+01  0.13637870716E+02  0.72461727028E+02  0.70000204174E+02 0.  0.
        -12    1    1    2    0    0 -0.12572563986E+02 -0.25714619603E+01 -0.13637870716E+02  0.18726272972E+02  0.00000000000E+00 0.  1.
         11    1    3    3    0    0  0.13110180634E+01  0.27023247859E+02 -0.33270106255E+01  0.27258827803E+02  0.51100000000E-03 0.  1.
        -11    1    3    3    0    0  0.50291845388E+01 -0.16196661717E+02  0.26283910920E+02  0.31280481476E+02  0.51100000000E-03 0. -1.
         12    1    3    3    0    0  0.62323613834E+01 -0.82551241818E+01 -0.93190295785E+01  0.13922417748E+02  0.00000000000E+00 0. -1.
</event>
<event>
 7    1  0.1884848E-013  0.7246156E+02  0.7816164E-02  0.1226708E+00
        -11   -1    0    0    0    0  0.00000000000E+00  0.00000000000E+00  0.45593999997E+02  0.45594000000E+02  0.51100000000E-03 0.  1.
         11   -1    0    0    0    0 -0.00000000000E+00 -0.00000000000E+00 -0.45593999997E+02  0.45594000000E+02  0.51100000000E-03 0. -1.
    9900012    2    1    2    0    0  0.16913286658E+02  0.80377094569E+01  0.12407942194E+00  0.72461563217E+02  0.69999990780E+02 0.  0.
        -12    1    1    2    0    0 -0.16913286658E+02 -0.80377094569E+01 -0.12407942194E+00  0.18726436783E+02  0.00000000000E+00 0.  1.
         11    1    3    3    0    0  0.11613174488E+02  0.10829675358E+02 -0.37419962825E+01  0.16314111268E+02  0.51100000000E-03 0. -1.
        -11    1    3    3    0    0 -0.23486652037E+02 -0.19635682035E+01  0.11684976589E+02  0.26306217937E+02  0.51100000000E-03 0.  1.
        -12    1    3    3    0    0  0.28786764207E+02 -0.82839769762E+00 -0.78189008850E+01  0.29841234011E+02  0.00000000000E+00 0.  1.
</event>
<event>
 7    1  0.1884848E-013  0.7246156E+02  0.7816164E-02  0.1226708E+00
        -11   -1    0    0    0    0  0.00000000000E+00  0.00000000000E+00  0.45593999997E+02  0.45594000000E+02  0.51100000000E-03 0.  1.
         11   -1    0    0    0    0 -0.00000000000E+00 -0.00000000000E+00 -0.45593999997E+02  0.45594000000E+02  0.51100000000E-03 0. -1.
    9900012    2    1    2    0    0  0.17922782134E+02  0.66657133838E+00 -0.53860166927E+01  0.72461558465E+02  0.69999984590E+02 0.  0.
        -12    1    1    2    0    0 -0.17922782134E+02 -0.66657133838E+00  0.53860166927E+01  0.18726441535E+02  0.00000000000E+00 0.  1.
         11    1    3    3    0    0  0.10529254236E+02 -0.46818133340E+01 -0.26549033010E-01  0.11523249367E+02  0.51100000000E-03 0. -1.
        -11    1    3    3    0    0 -0.24952958307E+02 -0.62381125538E+01 -0.66095801215E+01  0.26556557122E+02  0.51100000000E-03 0.  1.
        -12    1    3    3    0    0  0.32346486205E+02  0.11586497226E+02  0.12501124618E+01  0.34381751976E+02  0.00000000000E+00 0.  1.
</event>
<event>
 7    1  0.1884848E-013  0.7246158E+02  0.7816164E-02  0.1226708E+00
        -11   -1    0    0    0    0  0.00000000000E+00  0.00000000000E+00  0.45593999997E+02  0.45594000000E+02  0.51100000000E-03 0.  1.
         11   -1    0    0    0    0 -0.00000000000E+00 -0.00000000000E+00 -0.45593999997E+02  0.45594000000E+02  0.51100000000E-03 0. -1.
    9900012    2    1    2    0    0  0.16218045258E+02 -0.38668695824E+01 -0.85265051559E+01  0.72461575821E+02  0.70000007200E+02 0.  0.
        -12    1    1    2    0    0 -0.16218045258E+02  0.38668695824E+01  0.85265051559E+01  0.18726424179E+02  0.00000000000E+00 0.  1.
         11    1    3    3    0    0  0.13395846821E+02  0.66490884613E+01 -0.27552389778E+02  0.31349533842E+02  0.51100000000E-03 0. -1.
        -11    1    3    3    0    0  0.10789729752E+02 -0.99149014960E+01  0.26428984232E+02  0.30219443204E+02  0.51100000000E-03 0.  1.
        -12    1    3    3    0    0 -0.79675313151E+01 -0.60105654762E+00 -0.74030996099E+01  0.10892598775E+02  0.00000000000E+00 0.  1.
</event>
<event>
 7    1  0.1884848E-013  0.7246148E+02  0.7816164E-02  0.1226708E+00
        -11   -1    0    0    0    0  0.00000000000E+00  0.00000000000E+00  0.45593999997E+02  0.45594000000E+02  0.51100000000E-03 0.  1.
         11   -1    0    0    0    0 -0.00000000000E+00 -0.00000000000E+00 -0.45593999997E+02  0.45594000000E+02  0.51100000000E-03 0. -1.
    9900012    2    1    2    0    0 -0.56545608415E+01 -0.17166749153E+02  0.49001242616E+01  0.72461479966E+02  0.69999882330E+02 0.  0.
        -12    1    1    2    0    0  0.56545608415E+01  0.17166749153E+02 -0.49001242616E+01  0.18726520034E+02  0.00000000000E+00 0.  1.
         11    1    3    3    0    0  0.15870130966E+02 -0.29432063041E+02  0.14550197338E+02  0.36466637281E+02  0.51100000000E-03 0. -1.
        -11    1    3    3    0    0 -0.29681691710E+01  0.75600791085E+01 -0.14162825596E+02  0.16326372943E+02  0.51100000000E-03 0.  1.
        -12    1    3    3    0    0 -0.18556522636E+02  0.47052347794E+01  0.45127525196E+01  0.19668469742E+02  0.00000000000E+00 0.  1.
</event>
<event>
 7    1  0.1884848E-013  0.7246156E+02  0.7816164E-02  0.1226708E+00
        -11   -1    0    0    0    0  0.00000000000E+00  0.00000000000E+00  0.45593999997E+02  0.45594000000E+02  0.51100000000E-03 0.  1.
         11   -1    0    0    0    0 -0.00000000000E+00 -0.00000000000E+00 -0.45593999997E+02  0.45594000000E+02  0.51100000000E-03 0. -1.
    9900012    2    1    2    0    0  0.61539403635E+01 -0.55626886168E+01 -0.16788842114E+02  0.72461555965E+02  0.69999981334E+02 0.  0.
        -12    1    1    2    0    0 -0.61539403635E+01  0.55626886168E+01  0.16788842114E+02  0.18726444035E+02  0.00000000000E+00 0.  1.
         11    1    3    3    0    0 -0.15013760124E+02  0.16152670246E+02 -0.13341510401E+00  0.22053107468E+02  0.51100000000E-03 0. -1.
        -11    1    3    3    0    0  0.20647762716E+02 -0.26526811601E+02 -0.58014762921E+00  0.33620505803E+02  0.51100000000E-03 0.  1.
        -12    1    3    3    0    0  0.51993777058E+00  0.48114527381E+01 -0.16075279381E+02  0.16787942695E+02  0.00000000000E+00 0.  1.
</event>
<event>
 7    1  0.1884848E-013  0.7246158E+02  0.7816164E-02  0.1226708E+00
        -11   -1    0    0    0    0  0.00000000000E+00  0.00000000000E+00  0.45593999997E+02  0.45594000000E+02  0.51100000000E-03 0.  1.
         11   -1    0    0    0    0 -0.00000000000E+00 -0.00000000000E+00 -0.45593999997E+02  0.45594000000E+02  0.51100000000E-03 0. -1.
    9900012    2    1    2    0    0  0.17065834909E+02 -0.19083949325E+01 -0.74695380073E+01  0.72461583087E+02  0.70000016664E+02 0.  0.
        -12    1    1    2    0    0 -0.17065834909E+02  0.19083949325E+01  0.74695380073E+01  0.18726416913E+02  0.00000000000E+00 0.  1.
         11    1    3    3    0    0  0.47093720915E+01  0.23552932597E+02  0.13156872816E+02  0.27386531762E+02  0.51100000000E-03 0. -1.
        -11    1    3    3    0    0  0.18500077613E+02 -0.20838703304E+02 -0.59311984803E+01  0.28490060420E+02  0.51100000000E-03 0.  1.
         12    1    3    3    0    0 -0.61436147956E+01 -0.46226242252E+01 -0.14695212343E+02  0.16584990904E+02  0.00000000000E+00 0. -1.
</event>
<event>
 7    1  0.1884848E-013  0.7246153E+02  0.7816164E-02  0.1226708E+00
        -11   -1    0    0    0    0  0.00000000000E+00  0.00000000000E+00  0.45593999997E+02  0.45594000000E+02  0.51100000000E-03 0.  1.
         11   -1    0    0    0    0 -0.00000000000E+00 -0.00000000000E+00 -0.45593999997E+02  0.45594000000E+02  0.51100000000E-03 0. -1.
    9900012    2    1    2    0    0 -0.68432738143E+01  0.15151510433E+02 -0.86186936312E+01  0.72461533574E+02  0.69999952165E+02 0.  0.
        -12    1    1    2    0    0  0.68432738143E+01 -0.15151510433E+02  0.86186936312E+01  0.18726466426E+02  0.00000000000E+00 0.  1.
         11    1    3    3    0    0  0.54992241542E+01 -0.29137807418E+01 -0.26199463969E+02  0.26928488576E+02  0.51100000000E-03 0. -1.
        -11    1    3    3    0    0 -0.22128738257E+02  0.13431092365E+02  0.12211532773E+01  0.25914600413E+02  0.51100000000E-03 0.  1.
        -12    1    3    3    0    0  0.97862402884E+01  0.46341988092E+01  0.16359617060E+02  0.19618444585E+02  0.00000000000E+00 0.  1.
</event>
<event>
 7    1  0.1884848E-013  0.7246161E+02  0.7816164E-02  0.1226708E+00
        -11   -1    0    0    0    0  0.00000000000E+00  0.00000000000E+00  0.45593999997E+02  0.45594000000E+02  0.51100000000E-03 0.  1.
         11   -1    0    0    0    0 -0.00000000000E+00 -0.00000000000E+00 -0.45593999997E+02  0.45594000000E+02  0.51100000000E-03 0. -1.
    9900012    2    1    2    0    0 -0.70396916531E+01  0.16505864845E+02  0.53550752670E+01  0.72461610493E+02  0.70000052366E+02 0.  0.
        -12    1    1    2    0    0  0.70396916531E+01 -0.16505864845E+02 -0.53550752670E+01  0.18726389507E+02  0.00000000000E+00 0.  1.
         11    1    3    3    0    0  0.71993852403E+01  0.67454389582E+01 -0.15543345853E+02  0.18409989005E+02  0.51100000000E-03 0. -1.
        -11    1    3    3    0    0 -0.25896572255E+01 -0.15421034382E+02  0.21152637960E+02  0.26304918150E+02  0.51100000000E-03 0.  1.
        -12    1    3    3    0    0 -0.11649419668E+02  0.25181460269E+02 -0.25421684017E+00  0.27746703338E+02  0.00000000000E+00 0.  1.
</event>
<event>
 7    1  0.1884848E-013  0.7246161E+02  0.7816164E-02  0.1226708E+00
        -11   -1    0    0    0    0  0.00000000000E+00  0.00000000000E+00  0.45593999997E+02  0.45594000000E+02  0.51100000000E-03 0.  1.
         11   -1    0    0    0    0 -0.00000000000E+00 -0.00000000000E+00 -0.45593999997E+02  0.45594000000E+02  0.51100000000E-03 0. -1.
    9900012    2    1    2    0    0  0.18275020710E+02 -0.40418827396E+01 -0.60371261374E+00  0.72461610414E+02  0.70000052263E+02 0.  0.
        -12    1    1    2    0    0 -0.18275020710E+02  0.40418827396E+01  0.60371261374E+00  0.18726389586E+02  0.00000000000E+00 0.  1.
         11    1    3    3    0    0 -0.52471914772E+01  0.28722266791E+02  0.36931820327E+01  0.29430277298E+02  0.51100000000E-03 0.  1.
        -11    1    3    3    0    0  0.12335669736E+02 -0.15989417476E+02  0.50363323846E+01  0.20813333784E+02  0.51100000000E-03 0. -1.
         12    1    3    3    0    0  0.11186542451E+02 -0.16774732054E+02 -0.93332270310E+01  0.22217999332E+02  0.00000000000E+00 0. -1.
</event>
<event>
 7    1  0.1884848E-013  0.7246163E+02  0.7816164E-02  0.1226708E+00
        -11   -1    0    0    0    0  0.00000000000E+00  0.00000000000E+00  0.45593999997E+02  0.45594000000E+02  0.51100000000E-03 0. -1.
         11   -1    0    0    0    0 -0.00000000000E+00 -0.00000000000E+00 -0.45593999997E+02  0.45594000000E+02  0.51100000000E-03 0.  1.
    9900012    2    1    2    0    0 -0.66725940257E+00 -0.18039476625E+02  0.49808461649E+01  0.72461634081E+02  0.70000083093E+02 0.  0.
        -12    1    1    2    0    0  0.66725940257E+00  0.18039476625E+02 -0.49808461649E+01  0.18726365919E+02  0.00000000000E+00 0.  1.
         11    1    3    3    0    0 -0.11592642655E+02 -0.29641799881E+00  0.69579340428E+01  0.13523685657E+02  0.51100000000E-03 0. -1.
        -11    1    3    3    0    0 -0.53626204006E+00 -0.36473576565E+02  0.23633680979E+01  0.36553999417E+02  0.51100000000E-03 0.  1.
        -12    1    3    3    0    0  0.11461645292E+02  0.18730517938E+02 -0.43404559759E+01  0.22383949006E+02  0.00000000000E+00 0.  1.
</event>
<event>
 7    1  0.1884848E-013  0.7246160E+02  0.7816164E-02  0.1226708E+00
        -11   -1    0    0    0    0  0.00000000000E+00  0.00000000000E+00  0.45593999997E+02  0.45594000000E+02  0.51100000000E-03 0. -1.
         11   -1    0    0    0    0 -0.00000000000E+00 -0.00000000000E+00 -0.45593999997E+02  0.45594000000E+02  0.51100000000E-03 0.  1.
    9900012    2    1    2    0    0 -0.30307148031E+01 -0.15405817258E+02  0.10205576775E+02  0.72461595248E+02  0.70000032507E+02 0.  0.
        -12    1    1    2    0    0  0.30307148031E+01  0.15405817258E+02 -0.10205576775E+02  0.18726404752E+02  0.00000000000E+00 0.  1.
         11    1    3    3    0    0 -0.16712252761E+01 -0.31675495542E+02  0.14910503188E+02  0.35049295532E+02  0.51100000000E-03 0. -1.
        -11    1    3    3    0    0 -0.17140519107E+02  0.11247187790E+02 -0.35969504665E+01  0.20814290316E+02  0.51100000000E-03 0.  1.
        -12    1    3    3    0    0  0.15781029580E+02  0.50224904927E+01 -0.11079759471E+01  0.16598009400E+02  0.00000000000E+00 0.  1.
</event>
<event>
 7    1  0.1884848E-013  0.7246158E+02  0.7816164E-02  0.1226708E+00
        -11   -1    0    0    0    0  0.00000000000E+00  0.00000000000E+00  0.45593999997E+02  0.45594000000E+02  0.51100000000E-03 0. -1.
         11   -1    0    0    0    0 -0.00000000000E+00 -0.00000000000E+00 -0.45593999997E+02  0.45594000000E+02  0.51100000000E-03 0.  1.
    9900012    2    1    2    0    0 -0.90048393106E+01  0.77873805812E+01  0.14455049440E+02  0.72461577981E+02  0.70000010013E+02 0.  0.
        -12    1    1    2    0    0  0.90048393106E+01 -0.77873805812E+01 -0.14455049440E+02  0.18726422019E+02  0.00000000000E+00 0.  1.
         11    1    3    3    0    0 -0.27272293542E+02  0.36173286672E+01 -0.23666758076E+01  0.27612754596E+02  0.51100000000E-03 0.  1.
        -11    1    3    3    0    0  0.27894037205E+02  0.60704362916E+01  0.41885462775E+01  0.28852580969E+02  0.51100000000E-03 0. -1.
         12    1    3    3    0    0 -0.96265829737E+01 -0.19003843775E+01  0.12633178970E+02  0.15996242416E+02  0.00000000000E+00 0. -1.
</event>
<event>
 7    1  0.1884848E-013  0.7246155E+02  0.7816164E-02  0.1226708E+00
        -11   -1    0    0    0    0  0.00000000000E+00  0.00000000000E+00  0.45593999997E+02  0.45594000000E+02  0.51100000000E-03 0.  1.
         11   -1    0    0    0    0 -0.00000000000E+00 -0.00000000000E+00 -0.45593999997E+02  0.45594000000E+02  0.51100000000E-03 0. -1.
    9900012    2    1    2    0    0 -0.85794629410E+01 -0.16435819874E+02  0.26337435258E+01  0.72461549075E+02  0.69999972358E+02 0.  0.
        -12    1    1    2    0    0  0.85794629410E+01  0.16435819874E+02 -0.26337435258E+01  0.18726450925E+02  0.00000000000E+00 0.  1.
         11    1    3    3    0    0  0.19361835784E+02 -0.61197494918E+01 -0.20849224473E+02  0.29103645479E+02  0.51100000000E-03 0. -1.
        -11    1    3    3    0    0 -0.41550537825E+01  0.25250824441E+01  0.13822001346E+02  0.14652243335E+02  0.51100000000E-03 0.  1.
         12    1    3    3    0    0 -0.23786244943E+02 -0.12841152826E+02  0.96609666528E+01  0.28705660261E+02  0.00000000000E+00 0. -1.
</event>
<event>
 7    1  0.1884848E-013  0.7246154E+02  0.7816164E-02  0.1226708E+00
        -11   -1    0    0    0    0  0.00000000000E+00  0.00000000000E+00  0.45593999997E+02  0.45594000000E+02  0.51100000000E-03 0. -1.
         11   -1    0    0    0    0 -0.00000000000E+00 -0.00000000000E+00 -0.45593999997E+02  0.45594000000E+02  0.51100000000E-03 0.  1.
    9900012    2    1    2    0    0  0.66253843866E+01 -0.66566905462E+00  0.17502617458E+02  0.72461536067E+02  0.69999955412E+02 0.  0.
        -12    1    1    2    0    0 -0.66253843866E+01  0.66566905462E+00 -0.17502617458E+02  0.18726463933E+02  0.00000000000E+00 0.  1.
         11    1    3    3    0    0  0.94104697703E+01 -0.85433811936E+01  0.40165691792E+02  0.42128720618E+02  0.51100000000E-03 0. -1.
        -11    1    3    3    0    0 -0.17704165398E+01 -0.51589766374E+01 -0.12925810607E+02  0.14029468799E+02  0.51100000000E-03 0.  1.
         12    1    3    3    0    0 -0.10146688440E+01  0.13036688776E+02 -0.97372637260E+01  0.16303346650E+02  0.00000000000E+00 0. -1.
</event>
<event>
 7    1  0.1884848E-013  0.7246155E+02  0.7816164E-02  0.1226708E+00
        -11   -1    0    0    0    0  0.00000000000E+00  0.00000000000E+00  0.45593999997E+02  0.45594000000E+02  0.51100000000E-03 0. -1.
         11   -1    0    0    0    0 -0.00000000000E+00 -0.00000000000E+00 -0.45593999997E+02  0.45594000000E+02  0.51100000000E-03 0.  1.
    9900012    2    1    2    0    0  0.17023368094E+02  0.24100988273E+01  0.74213301081E+01  0.72461554043E+02  0.69999978829E+02 0.  0.
        -12    1    1    2    0    0 -0.17023368094E+02 -0.24100988273E+01 -0.74213301081E+01  0.18726445957E+02  0.00000000000E+00 0.  1.
         11    1    3    3    0    0 -0.67237333125E+01 -0.39737714090E+01 -0.14950386885E+02  0.16867528484E+02  0.51100000000E-03 0. -1.
        -11    1    3    3    0    0  0.21624725717E+02  0.21755716454E+02  0.30699349831E+01  0.30827981800E+02  0.51100000000E-03 0.  1.
         12    1    3    3    0    0  0.21223756889E+01 -0.15371846218E+02  0.19301782010E+02  0.24766043759E+02  0.00000000000E+00 0. -1.
</event>
<event>
 7    1  0.1884848E-013  0.7246186E+02  0.7816164E-02  0.1226707E+00
        -11   -1    0    0    0    0  0.00000000000E+00  0.00000000000E+00  0.45593999997E+02  0.45594000000E+02  0.51100000000E-03 0. -1.
         11   -1    0    0    0    0 -0.00000000000E+00 -0.00000000000E+00 -0.45593999997E+02  0.45594000000E+02  0.51100000000E-03 0.  1.
    9900012    2    1    2    0    0  0.56867882957E+01  0.16568013652E+02 -0.66203902284E+01  0.72461863071E+02  0.70000381395E+02 0.  0.
        -12    1    1    2    0    0 -0.56867882957E+01 -0.16568013652E+02  0.66203902284E+01  0.18726136929E+02  0.00000000000E+00 0.  1.
         11    1    3    3    0    0 -0.18797838115E+02  0.34927895204E+01 -0.21400234219E+01  0.19238970787E+02  0.51100000000E-03 0. -1.
        -11    1    3    3    0    0  0.90215913014E+01 -0.16739363945E+02  0.16309415109E+01  0.19085475770E+02  0.51100000000E-03 0.  1.
        -12    1    3    3    0    0  0.15463035109E+02  0.29814588076E+02 -0.61113083174E+01  0.34137416515E+02  0.00000000000E+00 0.  1.
</event>
<event>
 7    1  0.1884848E-013  0.7246139E+02  0.7816164E-02  0.1226708E+00
        -11   -1    0    0    0    0  0.00000000000E+00  0.00000000000E+00  0.45593999997E+02  0.45594000000E+02  0.51100000000E-03 0.  1.
         11   -1    0    0    0    0 -0.00000000000E+00 -0.00000000000E+00 -0.45593999997E+02  0.45594000000E+02  0.51100000000E-03 0. -1.
    9900012    2    1    2    0    0 -0.17734348762E+02  0.56621275744E+01 -0.20295425898E+01  0.72461391717E+02  0.69999767369E+02 0.  0.
        -12    1    1    2    0    0  0.17734348762E+02 -0.56621275744E+01  0.20295425898E+01  0.18726608283E+02  0.00000000000E+00 0.  1.
         11    1    3    3    0    0 -0.24829132005E+02  0.63853064803E+01 -0.24902205557E+02  0.35740422169E+02  0.51100000000E-03 0. -1.
        -11    1    3    3    0    0 -0.99412203584E+01 -0.42142640724E+01  0.12309599678E+02  0.16374190923E+02  0.51100000000E-03 0.  1.
         12    1    3    3    0    0  0.17036003602E+02  0.34910851665E+01  0.10563063289E+02  0.20346778625E+02  0.00000000000E+00 0. -1.
</event>
<event>
 7    1  0.1884848E-013  0.7246156E+02  0.7816164E-02  0.1226708E+00
        -11   -1    0    0    0    0  0.00000000000E+00  0.00000000000E+00  0.45593999997E+02  0.45594000000E+02  0.51100000000E-03 0. -1.
         11   -1    0    0    0    0 -0.00000000000E+00 -0.00000000000E+00 -0.45593999997E+02  0.45594000000E+02  0.51100000000E-03 0.  1.
    9900012    2    1    2    0    0  0.14352737431E+01  0.18532357083E+02  0.22740669727E+01  0.72461557456E+02  0.69999983276E+02 0.  0.
        -12    1    1    2    0    0 -0.14352737431E+01 -0.18532357083E+02 -0.22740669727E+01  0.18726442544E+02  0.00000000000E+00 0.  1.
         11    1    3    3    0    0 -0.17558053758E+02  0.50755318475E+01  0.97035086758E+01  0.20693099241E+02  0.51100000000E-03 0. -1.
        -11    1    3    3    0    0  0.78609185061E+01  0.26720443810E+02 -0.16342162731E+02  0.32293071086E+02  0.51100000000E-03 0.  1.
         12    1    3    3    0    0  0.11132408995E+02 -0.13263618575E+02  0.89127210276E+01  0.19475387130E+02  0.00000000000E+00 0. -1.
</event>
<event>
 7    1  0.1884848E-013  0.7246156E+02  0.7816164E-02  0.1226708E+00
        -11   -1    0    0    0    0  0.00000000000E+00  0.00000000000E+00  0.45593999997E+02  0.45594000000E+02  0.51100000000E-03 0. -1.
         11   -1    0    0    0    0 -0.00000000000E+00 -0.00000000000E+00 -0.45593999997E+02  0.45594000000E+02  0.51100000000E-03 0.  1.
    9900012    2    1    2    0    0 -0.18629558884E+00  0.79946490835E+01  0.16933116253E+02  0.72461560241E+02  0.69999986904E+02 0.  0.
        -12    1    1    2    0    0  0.18629558884E+00 -0.79946490835E+01 -0.16933116253E+02  0.18726439759E+02  0.00000000000E+00 0.  1.
         11    1    3    3    0    0 -0.77581126254E-01 -0.12736224205E+02 -0.18110978215E+01  0.12864583220E+02  0.51100000000E-03 0. -1.
        -11    1    3    3    0    0  0.15140491379E+02  0.24297680476E+02  0.29100073159E+02  0.40821881557E+02  0.51100000000E-03 0.  1.
        -12    1    3    3    0    0 -0.15249205842E+02 -0.35668071869E+01 -0.10355859085E+02  0.18775095465E+02  0.00000000000E+00 0.  1.
</event>
<event>
 7    1  0.1884848E-013  0.7246156E+02  0.7816164E-02  0.1226708E+00
        -11   -1    0    0    0    0  0.00000000000E+00  0.00000000000E+00  0.45593999997E+02  0.45594000000E+02  0.51100000000E-03 0.  1.
         11   -1    0    0    0    0 -0.00000000000E+00 -0.00000000000E+00 -0.45593999997E+02  0.45594000000E+02  0.51100000000E-03 0. -1.
    9900012    2    1    2    0    0 -0.14273098167E+02 -0.67363441992E+01 -0.10078679989E+02  0.72461562678E+02  0.69999990078E+02 0.  0.
        -12    1    1    2    0    0  0.14273098167E+02  0.67363441992E+01  0.10078679989E+02  0.18726437322E+02  0.00000000000E+00 0.  1.
         11    1    3    3    0    0  0.16132471310E+02  0.16440023695E+02  0.91361335133E+01  0.24779022287E+02  0.51100000000E-03 0. -1.
        -11    1    3    3    0    0 -0.13602673725E+02 -0.16742543352E+02 -0.20347867154E+02  0.29654362046E+02  0.51100000000E-03 0.  1.
        -12    1    3    3    0    0 -0.16802895751E+02 -0.64338245431E+01  0.11330536518E+01  0.18028178346E+02  0.00000000000E+00 0.  1.
</event>
<event>
 7    1  0.1884848E-013  0.7246184E+02  0.7816164E-02  0.1226707E+00
        -11   -1    0    0    0    0  0.00000000000E+00  0.00000000000E+00  0.45593999997E+02  0.45594000000E+02  0.51100000000E-03 0.  1.
         11   -1    0    0    0    0 -0.00000000000E+00 -0.00000000000E+00 -0.45593999997E+02  0.45594000000E+02  0.51100000000E-03 0. -1.
    9900012    2    1    2    0    0  0.39383119967E+01  0.14589345192E+02 -0.11059382087E+02  0.72461835773E+02  0.70000345834E+02 0.  0.
        -12    1    1    2    0    0 -0.39383119967E+01 -0.14589345192E+02  0.11059382087E+02  0.18726164227E+02  0.00000000000E+00 0.  1.
         11    1    3    3    0    0  0.96739572627E+01  0.27019301484E+02 -0.30897645428E+02  0.42169806676E+02  0.51100000000E-03 0. -1.
        -11    1    3    3    0    0  0.53981957199E+01 -0.87517892760E+01  0.13477523828E+02  0.16952226442E+02  0.51100000000E-03 0.  1.
         12    1    3    3    0    0 -0.11133840986E+02 -0.36781670160E+01  0.63607395138E+01  0.13339802654E+02  0.00000000000E+00 0. -1.
</event>
<event>
 7    1  0.1884848E-013  0.7246154E+02  0.7816164E-02  0.1226708E+00
        -11   -1    0    0    0    0  0.00000000000E+00  0.00000000000E+00  0.45593999997E+02  0.45594000000E+02  0.51100000000E-03 0.  1.
         11   -1    0    0    0    0 -0.00000000000E+00 -0.00000000000E+00 -0.45593999997E+02  0.45594000000E+02  0.51100000000E-03 0. -1.
    9900012    2    1    2    0    0  0.61134519375E+01 -0.11343889563E+02 -0.13587574779E+02  0.72461539753E+02  0.69999960214E+02 0.  0.
        -12    1    1    2    0    0 -0.61134519375E+01  0.11343889563E+02  0.13587574779E+02  0.18726460247E+02  0.00000000000E+00 0.  1.
         11    1    3    3    0    0  0.37166879342E+01  0.27219225072E+02  0.12662877262E+01  0.27500972120E+02  0.51100000000E-03 0. -1.
        -11    1    3    3    0    0 -0.31982321895E+01 -0.14685265508E+02  0.20586330211E+01  0.15169828027E+02  0.51100000000E-03 0.  1.
         12    1    3    3    0    0  0.55949961928E+01 -0.23877849126E+02 -0.16912495527E+02  0.29790739605E+02  0.00000000000E+00 0. -1.
</event>
<event>
 7    1  0.1884848E-013  0.7246164E+02  0.7816164E-02  0.1226708E+00
        -11   -1    0    0    0    0  0.00000000000E+00  0.00000000000E+00  0.45593999997E+02  0.45594000000E+02  0.51100000000E-03 0.  1.
         11   -1    0    0    0    0 -0.00000000000E+00 -0.00000000000E+00 -0.45593999997E+02  0.45594000000E+02  0.51100000000E-03 0. -1.
    9900012    2    1    2    0    0 -0.66214120215E+01 -0.32574081441E+01 -0.17211124004E+02  0.72461639049E+02  0.70000089566E+02 0.  0.
        -12    1    1    2    0    0  0.66214120215E+01  0.32574081441E+01  0.17211124004E+02  0.18726360951E+02  0.00000000000E+00 0.  1.
         11    1    3    3    0    0 -0.18042840133E+02  0.21864345047E+02 -0.29037185597E+02  0.40580189897E+02  0.51100000000E-03 0. -1.
        -11    1    3    3    0    0  0.50869369612E+01 -0.13400093571E+02  0.11787519802E+02  0.18557614575E+02  0.51100000000E-03 0.  1.
        -12    1    3    3    0    0  0.63344911507E+01 -0.11721659619E+02  0.38541790452E-01  0.13323834577E+02  0.00000000000E+00 0.  1.
</event>
<event>
 7    1  0.1884848E-013  0.7246166E+02  0.7816164E-02  0.1226708E+00
        -11   -1    0    0    0    0  0.00000000000E+00  0.00000000000E+00  0.45593999997E+02  0.45594000000E+02  0.51100000000E-03 0.  1.
         11   -1    0    0    0    0 -0.00000000000E+00 -0.00000000000E+00 -0.45593999997E+02  0.45594000000E+02  0.51100000000E-03 0. -1.
    9900012    2    1    2    0    0 -0.15839382858E+02 -0.51817450283E+01 -0.85404570906E+01  0.72461656572E+02  0.70000112393E+02 0.  0.
        -12    1    1    2    0    0  0.15839382858E+02  0.51817450283E+01  0.85404570906E+01  0.18726343428E+02  0.00000000000E+00 0.  1.
         11    1    3    3    0    0  0.14348800848E+02  0.10915404659E+02  0.14650428721E+02  0.23230781447E+02  0.51100000000E-03 0.  1.
        -11    1    3    3    0    0 -0.23155078598E+02 -0.12880125727E+02 -0.18833576768E+01  0.26563176392E+02  0.51100000000E-03 0. -1.
         12    1    3    3    0    0 -0.70331051080E+01 -0.32170239600E+01 -0.21307528135E+02  0.22667698733E+02  0.00000000000E+00 0. -1.
</event>
<event>
 7    1  0.1884848E-013  0.7246151E+02  0.7816164E-02  0.1226708E+00
        -11   -1    0    0    0    0  0.00000000000E+00  0.00000000000E+00  0.45593999997E+02  0.45594000000E+02  0.51100000000E-03 0.  1.
         11   -1    0    0    0    0 -0.00000000000E+00 -0.00000000000E+00 -0.45593999997E+02  0.45594000000E+02  0.51100000000E-03 0. -1.
    9900012    2    1    2    0    0 -0.17042222488E+02 -0.43191454006E+01 -0.64489697813E+01  0.72461506053E+02  0.69999916313E+02 0.  0.
        -12    1    1    2    0    0  0.17042222488E+02  0.43191454006E+01  0.64489697813E+01  0.18726493947E+02  0.00000000000E+00 0.  1.
         11    1    3    3    0    0  0.15542633555E+02 -0.23341944136E+02 -0.14694764890E+01  0.28081651933E+02  0.51100000000E-03 0.  1.
        -11    1    3    3    0    0 -0.20428741994E+02  0.12828100453E+02  0.81331572817E+01  0.25456667267E+02  0.51100000000E-03 0. -1.
         12    1    3    3    0    0 -0.12156114049E+02  0.61946982828E+01 -0.13112650574E+02  0.18923186853E+02  0.00000000000E+00 0. -1.
</event>
<event>
 7    1  0.1884848E-013  0.7246157E+02  0.7816164E-02  0.1226708E+00
        -11   -1    0    0    0    0  0.00000000000E+00  0.00000000000E+00  0.45593999997E+02  0.45594000000E+02  0.51100000000E-03 0. -1.
         11   -1    0    0    0    0 -0.00000000000E+00 -0.00000000000E+00 -0.45593999997E+02  0.45594000000E+02  0.51100000000E-03 0.  1.
    9900012    2    1    2    0    0  0.14252226647E+02  0.83668304461E+01  0.88062066962E+01  0.72461572351E+02  0.70000002679E+02 0.  0.
        -12    1    1    2    0    0 -0.14252226647E+02 -0.83668304461E+01 -0.88062066962E+01  0.18726427649E+02  0.00000000000E+00 0.  1.
         11    1    3    3    0    0  0.11097941009E+02 -0.11197596761E+02 -0.12054311417E+02  0.19845828072E+02  0.51100000000E-03 0.  1.
        -11    1    3    3    0    0  0.93370460440E+01  0.32435418042E+02  0.12059089733E+02  0.35842131882E+02  0.51100000000E-03 0. -1.
        -12    1    3    3    0    0 -0.61827604061E+01 -0.12870990835E+02  0.88014283804E+01  0.16773612397E+02  0.00000000000E+00 0.  1.
</event>
<event>
 7    1  0.1884848E-013  0.7246157E+02  0.7816164E-02  0.1226708E+00
        -11   -1    0    0    0    0  0.00000000000E+00  0.00000000000E+00  0.45593999997E+02  0.45594000000E+02  0.51100000000E-03 0.  1.
         11   -1    0    0    0    0 -0.00000000000E+00 -0.00000000000E+00 -0.45593999997E+02  0.45594000000E+02  0.51100000000E-03 0. -1.
    9900012    2    1    2    0    0  0.87883973116E+01 -0.11581767891E+02  0.11802789546E+02  0.72461571727E+02  0.70000001866E+02 0.  0.
        -12    1    1    2    0    0 -0.87883973116E+01  0.11581767891E+02 -0.11802789546E+02  0.18726428273E+02  0.00000000000E+00 0.  1.
         11    1    3    3    0    0  0.13419460523E+02 -0.23174292436E+02 -0.19836033569E+02  0.33325635457E+02  0.51100000000E-03 0. -1.
        -11    1    3    3    0    0  0.32709982249E+00  0.97210313462E+01  0.32357546428E+02  0.33787812238E+02  0.51100000000E-03 0.  1.
         12    1    3    3    0    0 -0.49581630335E+01  0.18714931982E+01 -0.71872331333E+00  0.53481240317E+01  0.00000000000E+00 0. -1.
</event>
<event>
 7    1  0.1884848E-013  0.7246154E+02  0.7816164E-02  0.1226708E+00
        -11   -1    0    0    0    0  0.00000000000E+00  0.00000000000E+00  0.45593999997E+02  0.45594000000E+02  0.51100000000E-03 0. -1.
         11   -1    0    0    0    0 -0.00000000000E+00 -0.00000000000E+00 -0.45593999997E+02  0.45594000000E+02  0.51100000000E-03 0.  1.
    9900012    2    1    2    0    0  0.33693279752E+01 -0.18420200152E+02  0.15515761974E+00  0.72461542286E+02  0.69999963513E+02 0.  0.
        -12    1    1    2    0    0 -0.33693279752E+01  0.18420200152E+02 -0.15515761974E+00  0.18726457714E+02  0.00000000000E+00 0.  1.
         11    1    3    3    0    0 -0.86750046650E+00 -0.80646626564E+01  0.90767751495E+01  0.12172887422E+02  0.51100000000E-03 0. -1.
        -11    1    3    3    0    0  0.99675125393E+01  0.21198531764E+02  0.70480020440E+01  0.24462285017E+02  0.51100000000E-03 0.  1.
        -12    1    3    3    0    0 -0.57306840976E+01 -0.31554069259E+02 -0.15969619574E+02  0.35826369847E+02  0.00000000000E+00 0.  1.
</event>
<event>
 7    1  0.1884848E-013  0.7246155E+02  0.7816164E-02  0.1226708E+00
        -11   -1    0    0    0    0  0.00000000000E+00  0.00000000000E+00  0.45593999997E+02  0.45594000000E+02  0.51100000000E-03 0.  1.
         11   -1    0    0    0    0 -0.00000000000E+00 -0.00000000000E+00 -0.45593999997E+02  0.45594000000E+02  0.51100000000E-03 0. -1.
    9900012    2    1    2    0    0 -0.87818257918E+00  0.44989639200E+01 -0.18156760140E+02  0.72461552933E+02  0.69999977383E+02 0.  0.
        -12    1    1    2    0    0  0.87818257918E+00 -0.44989639200E+01  0.18156760140E+02  0.18726447067E+02  0.00000000000E+00 0.  1.
         11    1    3    3    0    0  0.12354976371E+02  0.16974933566E+02  0.46212292417E+01  0.21497664308E+02  0.51100000000E-03 0.  1.
        -11    1    3    3    0    0  0.86347728961E+01 -0.18388333892E+02 -0.19345125227E+02  0.28052165631E+02  0.51100000000E-03 0. -1.
        -12    1    3    3    0    0 -0.21867931847E+02  0.59123642457E+01 -0.34328641543E+01  0.22911722993E+02  0.00000000000E+00 0.  1.
</event>
<event>
 7    1  0.1884848E-013  0.7246159E+02  0.7816164E-02  0.1226708E+00
        -11   -1    0    0    0    0  0.00000000000E+00  0.00000000000E+00  0.45593999997E+02  0.45594000000E+02  0.51100000000E-03 0.  1.
         11   -1    0    0    0    0 -0.00000000000E+00 -0.00000000000E+00 -0.45593999997E+02  0.45594000000E+02  0.51100000000E-03 0. -1.
    9900012    2    1    2    0    0 -0.80124736667E+00  0.11599195635E+02 -0.14679753433E+02  0.72461588235E+02  0.70000023372E+02 0.  0.
        -12    1    1    2    0    0  0.80124736667E+00 -0.11599195635E+02  0.14679753433E+02  0.18726411765E+02  0.00000000000E+00 0.  1.
         11    1    3    3    0    0 -0.14713748811E+02  0.34972032191E+02 -0.14218144990E+02  0.40517811970E+02  0.51100000000E-03 0. -1.
        -11    1    3    3    0    0  0.13007859492E+02 -0.63859418443E+01 -0.28424842342E+01  0.14767003037E+02  0.51100000000E-03 0.  1.
         12    1    3    3    0    0  0.90464195219E+00 -0.16986894712E+02  0.23808757912E+01  0.17176773228E+02  0.00000000000E+00 0. -1.
</event>
<event>
 7    1  0.1884848E-013  0.7246158E+02  0.7816164E-02  0.1226708E+00
        -11   -1    0    0    0    0  0.00000000000E+00  0.00000000000E+00  0.45593999997E+02  0.45594000000E+02  0.51100000000E-03 0.  1.
         11   -1    0    0    0    0 -0.00000000000E+00 -0.00000000000E+00 -0.45593999997E+02  0.45594000000E+02  0.51100000000E-03 0. -1.
    9900012    2    1    2    0    0  0.49035059446E+00  0.56210275850E+01 -0.17856163967E+02  0.72461575183E+02  0.70000006368E+02 0.  0.
        -12    1    1    2    0    0 -0.49035059446E+00 -0.56210275850E+01  0.17856163967E+02  0.18726424817E+02  0.00000000000E+00 0.  1.
         11    1    3    3    0    0 -0.10301751161E+02 -0.29390383298E+02 -0.25403330170E+01  0.31246983846E+02  0.51100000000E-03 0. -1.
        -11    1    3    3    0    0  0.93583623595E+01  0.13556902767E+02 -0.41593599496E+01  0.16990257036E+02  0.51100000000E-03 0.  1.
         12    1    3    3    0    0  0.14337393959E+01  0.21454508116E+02 -0.11156471001E+02  0.24224334301E+02  0.00000000000E+00 0. -1.
</event>
<event>
 7    1  0.1884848E-013  0.7246158E+02  0.7816164E-02  0.1226708E+00
        -11   -1    0    0    0    0  0.00000000000E+00  0.00000000000E+00  0.45593999997E+02  0.45594000000E+02  0.51100000000E-03 0.  1.
         11   -1    0    0    0    0 -0.00000000000E+00 -0.00000000000E+00 -0.45593999997E+02  0.45594000000E+02  0.51100000000E-03 0. -1.
    9900012    2    1    2    0    0 -0.26252910376E+01 -0.16975744343E+02  0.74572686503E+01  0.72461577364E+02  0.70000009209E+02 0.  0.
        -12    1    1    2    0    0  0.26252910376E+01  0.16975744343E+02 -0.74572686503E+01  0.18726422636E+02  0.00000000000E+00 0.  1.
         11    1    3    3    0    0 -0.26602565164E+02 -0.96617314170E+01  0.10682308281E+02  0.30251565873E+02  0.51100000000E-03 0. -1.
        -11    1    3    3    0    0  0.45007343320E+01  0.43535073255E+01 -0.15273495936E+02  0.16507250345E+02  0.51100000000E-03 0.  1.
         12    1    3    3    0    0  0.19476539794E+02 -0.11667520252E+02  0.12048456305E+02  0.25702761146E+02  0.00000000000E+00 0. -1.
</event>
<event>
 7    1  0.1884848E-013  0.7246161E+02  0.7816164E-02  0.1226708E+00
        -11   -1    0    0    0    0  0.00000000000E+00  0.00000000000E+00  0.45593999997E+02  0.45594000000E+02  0.51100000000E-03 0. -1.
         11   -1    0    0    0    0 -0.00000000000E+00 -0.00000000000E+00 -0.45593999997E+02  0.45594000000E+02  0.51100000000E-03 0.  1.
    9900012    2    1    2    0    0 -0.20171780366E+01 -0.26772417930E+01  0.18423930252E+02  0.72461605879E+02  0.70000046355E+02 0.  0.
        -12    1    1    2    0    0  0.20171780366E+01  0.26772417930E+01 -0.18423930252E+02  0.18726394121E+02  0.00000000000E+00 0.  1.
         11    1    3    3    0    0 -0.12291303100E+02 -0.29093763146E+02  0.26657084008E+02  0.41329448508E+02  0.51100000000E-03 0. -1.
        -11    1    3    3    0    0  0.92360166790E+01  0.15825517437E+02 -0.11722610651E+01  0.18360969542E+02  0.51100000000E-03 0.  1.
         12    1    3    3    0    0  0.10381083847E+01  0.10591003916E+02 -0.70608926910E+01  0.12771187829E+02  0.00000000000E+00 0. -1.
</event>
<event>
 7    1  0.1884848E-013  0.7246152E+02  0.7816164E-02  0.1226708E+00
        -11   -1    0    0    0    0  0.00000000000E+00  0.00000000000E+00  0.45593999997E+02  0.45594000000E+02  0.51100000000E-03 0.  1.
         11   -1    0    0    0    0 -0.00000000000E+00 -0.00000000000E+00 -0.45593999997E+02  0.45594000000E+02  0.51100000000E-03 0. -1.
    9900012    2    1    2    0    0  0.87795012474E+01  0.30642074567E+01 -0.16254598816E+02  0.72461521629E+02  0.69999936605E+02 0.  0.
        -12    1    1    2    0    0 -0.87795012474E+01 -0.30642074567E+01  0.16254598816E+02  0.18726478371E+02  0.00000000000E+00 0.  1.
         11    1    3    3    0    0  0.12899543662E+02  0.10354982919E+02  0.16393463905E+02  0.23288829018E+02  0.51100000000E-03 0. -1.
        -11    1    3    3    0    0  0.69707349016E+01 -0.19108872670E+02 -0.20831771947E+02  0.29115337582E+02  0.51100000000E-03 0.  1.
         12    1    3    3    0    0 -0.11090777317E+02  0.11818097208E+02 -0.11816290775E+02  0.20057355030E+02  0.00000000000E+00 0. -1.
</event>
<event>
 7    1  0.1884848E-013  0.7246159E+02  0.7816164E-02  0.1226708E+00
        -11   -1    0    0    0    0  0.00000000000E+00  0.00000000000E+00  0.45593999997E+02  0.45594000000E+02  0.51100000000E-03 0. -1.
         11   -1    0    0    0    0 -0.00000000000E+00 -0.00000000000E+00 -0.45593999997E+02  0.45594000000E+02  0.51100000000E-03 0.  1.
    9900012    2    1    2    0    0 -0.17492325703E+02  0.64813146374E+01  0.16400232844E+01  0.72461586187E+02  0.70000020703E+02 0.  0.
        -12    1    1    2    0    0  0.17492325703E+02 -0.64813146374E+01 -0.16400232844E+01  0.18726413813E+02  0.00000000000E+00 0.  1.
         11    1    3    3    0    0 -0.85346173869E+01  0.78147029687E+01  0.26711885624E+02  0.29110721569E+02  0.51100000000E-03 0. -1.
        -11    1    3    3    0    0 -0.54676525472E+01  0.16284519641E+02 -0.14711960476E+02  0.22616865071E+02  0.51100000000E-03 0.  1.
        -12    1    3    3    0    0 -0.34900557684E+01 -0.17617907972E+02 -0.10359901864E+02  0.20733999547E+02  0.00000000000E+00 0.  1.
</event>
<event>
 7    1  0.1884848E-013  0.7246153E+02  0.7816164E-02  0.1226708E+00
        -11   -1    0    0    0    0  0.00000000000E+00  0.00000000000E+00  0.45593999997E+02  0.45594000000E+02  0.51100000000E-03 0. -1.
         11   -1    0    0    0    0 -0.00000000000E+00 -0.00000000000E+00 -0.45593999997E+02  0.45594000000E+02  0.51100000000E-03 0.  1.
    9900012    2    1    2    0    0  0.89745761307E+01 -0.14781595742E+02  0.71862443168E+01  0.72461529516E+02  0.69999946879E+02 0.  0.
        -12    1    1    2    0    0 -0.89745761307E+01  0.14781595742E+02 -0.71862443168E+01  0.18726470484E+02  0.00000000000E+00 0.  1.
         11    1    3    3    0    0 -0.21868608607E+01 -0.27659273817E+02 -0.13305420766E+02  0.30770960508E+02  0.51100000000E-03 0.  1.
        -11    1    3    3    0    0  0.10943742113E+02  0.22686493524E+02  0.94067678153E+01  0.26887353176E+02  0.51100000000E-03 0. -1.
         12    1    3    3    0    0  0.21769487856E+00 -0.98088154480E+01  0.11084897267E+02  0.14803215832E+02  0.00000000000E+00 0. -1.
</event>
<event>
 7    1  0.1884848E-013  0.7246155E+02  0.7816164E-02  0.1226708E+00
        -11   -1    0    0    0    0  0.00000000000E+00  0.00000000000E+00  0.45593999997E+02  0.45594000000E+02  0.51100000000E-03 0.  1.
         11   -1    0    0    0    0 -0.00000000000E+00 -0.00000000000E+00 -0.45593999997E+02  0.45594000000E+02  0.51100000000E-03 0. -1.
    9900012    2    1    2    0    0 -0.79628260806E+01  0.20949357413E+01 -0.16819172379E+02  0.72461550404E+02  0.69999974090E+02 0.  0.
        -12    1    1    2    0    0  0.79628260806E+01 -0.20949357413E+01  0.16819172379E+02  0.18726449596E+02  0.00000000000E+00 0.  1.
         11    1    3    3    0    0  0.69241049033E+01  0.68864474296E+01 -0.17403089422E+02  0.19955798871E+02  0.51100000000E-03 0. -1.
        -11    1    3    3    0    0 -0.30175320634E+02 -0.23090452654E+01  0.12720769454E+02  0.32828335949E+02  0.51100000000E-03 0.  1.
        -12    1    3    3    0    0  0.15288389650E+02 -0.24824664229E+01 -0.12136852411E+02  0.19677415584E+02  0.00000000000E+00 0.  1.
</event>
<event>
 7    1  0.1884848E-013  0.7246158E+02  0.7816164E-02  0.1226708E+00
        -11   -1    0    0    0    0  0.00000000000E+00  0.00000000000E+00  0.45593999997E+02  0.45594000000E+02  0.51100000000E-03 0.  1.
         11   -1    0    0    0    0 -0.00000000000E+00 -0.00000000000E+00 -0.45593999997E+02  0.45594000000E+02  0.51100000000E-03 0. -1.
    9900012    2    1    2    0    0  0.98947896850E+01  0.13814263143E+02 -0.78700819494E+01  0.72461576984E+02  0.70000008714E+02 0.  0.
        -12    1    1    2    0    0 -0.98947896850E+01 -0.13814263143E+02  0.78700819494E+01  0.18726423016E+02  0.00000000000E+00 0.  1.
         11    1    3    3    0    0 -0.34629763177E+00 -0.18203312313E+02 -0.96688436231E+00  0.18232261704E+02  0.51100000000E-03 0. -1.
        -11    1    3    3    0    0 -0.12810375762E+02  0.25784954065E+02  0.17141633742E+01  0.28842814350E+02  0.51100000000E-03 0.  1.
        -12    1    3    3    0    0  0.23051463079E+02  0.62326213913E+01 -0.86173609613E+01  0.25386500929E+02  0.00000000000E+00 0.  1.
</event>
<event>
 7    1  0.1884848E-013  0.7246148E+02  0.7816164E-02  0.1226708E+00
        -11   -1    0    0    0    0  0.00000000000E+00  0.00000000000E+00  0.45593999997E+02  0.45594000000E+02  0.51100000000E-03 0.  1.
         11   -1    0    0    0    0 -0.00000000000E+00 -0.00000000000E+00 -0.45593999997E+02  0.45594000000E+02  0.51100000000E-03 0. -1.
    9900012    2    1    2    0    0 -0.15688185999E+01  0.27495394651E+01 -0.18457013897E+02  0.72461480808E+02  0.69999883427E+02 0.  0.
        -12    1    1    2    0    0  0.15688185999E+01 -0.27495394651E+01  0.18457013897E+02  0.18726519192E+02  0.00000000000E+00 0.  1.
         11    1    3    3    0    0 -0.26834881257E+02  0.16795412870E+02  0.20394054889E+01  0.31723113349E+02  0.51100000000E-03 0.  1.
        -11    1    3    3    0    0  0.24807347591E+02 -0.11325091587E+02 -0.87011492054E+01  0.28624678019E+02  0.51100000000E-03 0. -1.
         12    1    3    3    0    0  0.45871506588E+00 -0.27207818178E+01 -0.11795270180E+02  0.12113689440E+02  0.00000000000E+00 0. -1.
</event>
<event>
 7    1  0.1884848E-013  0.7246155E+02  0.7816164E-02  0.1226708E+00
        -11   -1    0    0    0    0  0.00000000000E+00  0.00000000000E+00  0.45593999997E+02  0.45594000000E+02  0.51100000000E-03 0.  1.
         11   -1    0    0    0    0 -0.00000000000E+00 -0.00000000000E+00 -0.45593999997E+02  0.45594000000E+02  0.51100000000E-03 0. -1.
    9900012    2    1    2    0    0  0.59918228568E-01  0.16297158583E+02 -0.92238291446E+01  0.72461548330E+02  0.69999971387E+02 0.  0.
        -12    1    1    2    0    0 -0.59918228568E-01 -0.16297158583E+02  0.92238291446E+01  0.18726451670E+02  0.00000000000E+00 0.  1.
         11    1    3    3    0    0  0.20491699417E+02 -0.79033730458E+01 -0.26166697561E+02  0.34162393241E+02  0.51100000000E-03 0.  1.
        -11    1    3    3    0    0 -0.77110883533E+01  0.14047979477E+02  0.14925323254E+02  0.21899129788E+02  0.51100000000E-03 0. -1.
        -12    1    3    3    0    0 -0.12720692835E+02  0.10152552152E+02  0.20175451621E+01  0.16400025301E+02  0.00000000000E+00 0.  1.
</event>
<event>
 7    1  0.1884848E-013  0.7246157E+02  0.7816164E-02  0.1226708E+00
        -11   -1    0    0    0    0  0.00000000000E+00  0.00000000000E+00  0.45593999997E+02  0.45594000000E+02  0.51100000000E-03 0.  1.
         11   -1    0    0    0    0 -0.00000000000E+00 -0.00000000000E+00 -0.45593999997E+02  0.45594000000E+02  0.51100000000E-03 0. -1.
    9900012    2    1    2    0    0 -0.48560232427E+01 -0.76304483497E+01 -0.16397392732E+02  0.72461569690E+02  0.69999999212E+02 0.  0.
        -12    1    1    2    0    0  0.48560232427E+01  0.76304483497E+01  0.16397392732E+02  0.18726430310E+02  0.00000000000E+00 0.  1.
         11    1    3    3    0    0  0.22897020009E+02  0.25975376846E+01  0.57560585905E+00  0.23051074806E+02  0.51100000000E-03 0. -1.
        -11    1    3    3    0    0 -0.29385343323E+02 -0.17868247395E+02 -0.44887523052E+01  0.34683159670E+02  0.51100000000E-03 0.  1.
        -12    1    3    3    0    0  0.16323000704E+01  0.76402613606E+01 -0.12484246286E+02  0.14727335214E+02  0.00000000000E+00 0.  1.
</event>
<event>
 7    1  0.1884848E-013  0.7246155E+02  0.7816164E-02  0.1226708E+00
        -11   -1    0    0    0    0  0.00000000000E+00  0.00000000000E+00  0.45593999997E+02  0.45594000000E+02  0.51100000000E-03 0.  1.
         11   -1    0    0    0    0 -0.00000000000E+00 -0.00000000000E+00 -0.45593999997E+02  0.45594000000E+02  0.51100000000E-03 0. -1.
    9900012    2    1    2    0    0 -0.18192476212E+02  0.39764629817E+00 -0.44221589258E+01  0.72461553383E+02  0.69999977970E+02 0.  0.
        -12    1    1    2    0    0  0.18192476212E+02 -0.39764629817E+00  0.44221589258E+01  0.18726446617E+02  0.00000000000E+00 0.  1.
         11    1    3    3    0    0  0.45533119291E+01 -0.66519168569E+01 -0.24114948435E+02  0.25426588164E+02  0.51100000000E-03 0. -1.
        -11    1    3    3    0    0 -0.22844901509E+02 -0.21177328941E+01  0.26913226380E+02  0.35365181634E+02  0.51100000000E-03 0.  1.
        -12    1    3    3    0    0  0.99113367332E-01  0.91672960491E+01 -0.72204368715E+01  0.11669783585E+02  0.00000000000E+00 0.  1.
</event>
<event>
 7    1  0.1884848E-013  0.7246168E+02  0.7816164E-02  0.1226708E+00
        -11   -1    0    0    0    0  0.00000000000E+00  0.00000000000E+00  0.45593999997E+02  0.45594000000E+02  0.51100000000E-03 0. -1.
         11   -1    0    0    0    0 -0.00000000000E+00 -0.00000000000E+00 -0.45593999997E+02  0.45594000000E+02  0.51100000000E-03 0.  1.
    9900012    2    1    2    0    0 -0.13448956386E+02  0.76092821105E+01 -0.10578249137E+02  0.72461682772E+02  0.70000146523E+02 0.  0.
        -12    1    1    2    0    0  0.13448956386E+02 -0.76092821105E+01  0.10578249137E+02  0.18726317228E+02  0.00000000000E+00 0.  1.
         11    1    3    3    0    0 -0.12395308644E+02 -0.21152005695E+02  0.14788569025E+02  0.28631325421E+02  0.51100000000E-03 0. -1.
        -11    1    3    3    0    0 -0.63538412025E+01  0.13036976409E+02 -0.22825610675E+02  0.27043345852E+02  0.51100000000E-03 0.  1.
        -12    1    3    3    0    0  0.53001934602E+01  0.15724311396E+02 -0.25412074881E+01  0.16787011500E+02  0.00000000000E+00 0.  1.
</event>
<event>
 7    1  0.1884848E-013  0.7246156E+02  0.7816164E-02  0.1226708E+00
        -11   -1    0    0    0    0  0.00000000000E+00  0.00000000000E+00  0.45593999997E+02  0.45594000000E+02  0.51100000000E-03 0. -1.
         11   -1    0    0    0    0 -0.00000000000E+00 -0.00000000000E+00 -0.45593999997E+02  0.45594000000E+02  0.51100000000E-03 0.  1.
    9900012    2    1    2    0    0  0.36579956004E+01  0.95589072584E+01  0.15682022642E+02  0.72461562167E+02  0.69999989412E+02 0.  0.
        -12    1    1    2    0    0 -0.36579956004E+01 -0.95589072584E+01 -0.15682022642E+02  0.18726437833E+02  0.00000000000E+00 0.  1.
         11    1    3    3    0    0  0.36649900747E+01  0.24712470033E+02  0.26623157516E+02  0.36509325436E+02  0.51100000000E-03 0. -1.
        -11    1    3    3    0    0  0.11616627517E+02 -0.39442001600E+01 -0.14925153984E+02  0.19320014790E+02  0.51100000000E-03 0.  1.
        -12    1    3    3    0    0 -0.11623621991E+02 -0.11209362615E+02  0.39840191096E+01  0.16632221941E+02  0.00000000000E+00 0.  1.
</event>
<event>
 7    1  0.1884848E-013  0.7246156E+02  0.7816164E-02  0.1226708E+00
        -11   -1    0    0    0    0  0.00000000000E+00  0.00000000000E+00  0.45593999997E+02  0.45594000000E+02  0.51100000000E-03 0.  1.
         11   -1    0    0    0    0 -0.00000000000E+00 -0.00000000000E+00 -0.45593999997E+02  0.45594000000E+02  0.51100000000E-03 0. -1.
    9900012    2    1    2    0    0 -0.12121803254E+02 -0.14261232224E+02 -0.59886907815E+00  0.72461561394E+02  0.69999988406E+02 0.  0.
        -12    1    1    2    0    0  0.12121803254E+02  0.14261232224E+02  0.59886907815E+00  0.18726438606E+02  0.00000000000E+00 0.  1.
         11    1    3    3    0    0 -0.80532667654E+01 -0.35893230661E+02  0.19116092633E+02  0.41456050351E+02  0.51100000000E-03 0. -1.
        -11    1    3    3    0    0 -0.71240761273E+01  0.14760392495E+02 -0.12914177944E+02  0.20866184115E+02  0.51100000000E-03 0.  1.
         12    1    3    3    0    0  0.30555396387E+01  0.68716059423E+01 -0.68007837673E+01  0.10139326928E+02  0.00000000000E+00 0. -1.
</event>
<event>
 7    1  0.1884848E-013  0.7246158E+02  0.7816164E-02  0.1226708E+00
        -11   -1    0    0    0    0  0.00000000000E+00  0.00000000000E+00  0.45593999997E+02  0.45594000000E+02  0.51100000000E-03 0. -1.
         11   -1    0    0    0    0 -0.00000000000E+00 -0.00000000000E+00 -0.45593999997E+02  0.45594000000E+02  0.51100000000E-03 0.  1.
    9900012    2    1    2    0    0 -0.15480036347E+02  0.97752136873E+01  0.39360554168E+01  0.72461578554E+02  0.70000010760E+02 0.  0.
        -12    1    1    2    0    0  0.15480036347E+02 -0.97752136873E+01 -0.39360554168E+01  0.18726421446E+02  0.00000000000E+00 0.  1.
         11    1    3    3    0    0 -0.16160488870E+02 -0.15351537784E+02 -0.19337543420E+02  0.29508841025E+02  0.51100000000E-03 0. -1.
        -11    1    3    3    0    0  0.61409734048E+01 -0.13137998674E+01  0.12297827758E+02  0.13808482621E+02  0.51100000000E-03 0.  1.
         12    1    3    3    0    0 -0.54605208820E+01  0.26440551339E+02  0.10975771079E+02  0.29144254908E+02  0.00000000000E+00 0. -1.
</event>
<event>
 7    1  0.1884848E-013  0.7246156E+02  0.7816164E-02  0.1226708E+00
        -11   -1    0    0    0    0  0.00000000000E+00  0.00000000000E+00  0.45593999997E+02  0.45594000000E+02  0.51100000000E-03 0. -1.
         11   -1    0    0    0    0 -0.00000000000E+00 -0.00000000000E+00 -0.45593999997E+02  0.45594000000E+02  0.51100000000E-03 0.  1.
    9900012    2    1    2    0    0  0.18311952468E+01 -0.82392161136E+00  0.18618466010E+02  0.72461564156E+02  0.69999992003E+02 0.  0.
        -12    1    1    2    0    0 -0.18311952468E+01  0.82392161136E+00 -0.18618466010E+02  0.18726435844E+02  0.00000000000E+00 0.  1.
         11    1    3    3    0    0 -0.83498772752E+01  0.29745057913E+01  0.44431421313E+01  0.99151221613E+01  0.51100000000E-03 0. -1.
        -11    1    3    3    0    0  0.29258753488E+02 -0.15777392248E+02  0.20617982182E+02  0.39116517628E+02  0.51100000000E-03 0.  1.
        -12    1    3    3    0    0 -0.19077680966E+02  0.11978964846E+02 -0.64426583029E+01  0.23429924367E+02  0.00000000000E+00 0.  1.
</event>
<event>
 7    1  0.1884848E-013  0.7246153E+02  0.7816164E-02  0.1226708E+00
        -11   -1    0    0    0    0  0.00000000000E+00  0.00000000000E+00  0.45593999997E+02  0.45594000000E+02  0.51100000000E-03 0. -1.
         11   -1    0    0    0    0 -0.00000000000E+00 -0.00000000000E+00 -0.45593999997E+02  0.45594000000E+02  0.51100000000E-03 0.  1.
    9900012    2    1    2    0    0  0.18519092280E+02 -0.68383829888E+00 -0.26937494986E+01  0.72461529429E+02  0.69999946766E+02 0.  0.
        -12    1    1    2    0    0 -0.18519092280E+02  0.68383829888E+00  0.26937494986E+01  0.18726470571E+02  0.00000000000E+00 0.  1.
         11    1    3    3    0    0  0.26071464153E+01 -0.10019563821E+02  0.78614121853E+01  0.12999641280E+02  0.51100000000E-03 0. -1.
        -11    1    3    3    0    0  0.81337822199E+01  0.17083896695E+02 -0.30963933727E+02  0.36287506550E+02  0.51100000000E-03 0.  1.
        -12    1    3    3    0    0  0.77781636443E+01 -0.77481711729E+01  0.20408772043E+02  0.23174381600E+02  0.00000000000E+00 0.  1.
</event>
<event>
 7    1  0.1884848E-013  0.7246162E+02  0.7816164E-02  0.1226708E+00
        -11   -1    0    0    0    0  0.00000000000E+00  0.00000000000E+00  0.45593999997E+02  0.45594000000E+02  0.51100000000E-03 0. -1.
         11   -1    0    0    0    0 -0.00000000000E+00 -0.00000000000E+00 -0.45593999997E+02  0.45594000000E+02  0.51100000000E-03 0.  1.
    9900012    2    1    2    0    0 -0.33801511015E+01 -0.12418378516E+02  0.13602782658E+02  0.72461621747E+02  0.70000067027E+02 0.  0.
        -12    1    1    2    0    0  0.33801511015E+01  0.12418378516E+02 -0.13602782658E+02  0.18726378253E+02  0.00000000000E+00 0.  1.
         11    1    3    3    0    0  0.29545827185E+02  0.35022371076E+01 -0.25720001130E+01  0.29863635975E+02  0.51100000000E-03 0. -1.
        -11    1    3    3    0    0 -0.15274698130E+02 -0.65648831546E+01 -0.41418880149E+00  0.16630864271E+02  0.51100000000E-03 0.  1.
         12    1    3    3    0    0 -0.17651280157E+02 -0.93557324692E+01  0.16588971572E+02  0.25967121501E+02  0.00000000000E+00 0. -1.
</event>
<event>
 7    1  0.1884848E-013  0.7246146E+02  0.7816164E-02  0.1226708E+00
        -11   -1    0    0    0    0  0.00000000000E+00  0.00000000000E+00  0.45593999997E+02  0.45594000000E+02  0.51100000000E-03 0. -1.
         11   -1    0    0    0    0 -0.00000000000E+00 -0.00000000000E+00 -0.45593999997E+02  0.45594000000E+02  0.51100000000E-03 0.  1.
    9900012    2    1    2    0    0 -0.91621168121E+01  0.90639535046E+01  0.13586155690E+02  0.72461460970E+02  0.69999857585E+02 0.  0.
        -12    1    1    2    0    0  0.91621168121E+01 -0.90639535046E+01 -0.13586155690E+02  0.18726539030E+02  0.00000000000E+00 0.  1.
         11    1    3    3    0    0 -0.22995066691E+02  0.96213367546E+01  0.67668022646E+01  0.25828914538E+02  0.51100000000E-03 0. -1.
        -11    1    3    3    0    0  0.84586351276E+01 -0.21687516764E+02  0.84593368533E+01  0.24768069603E+02  0.51100000000E-03 0.  1.
         12    1    3    3    0    0  0.53743147511E+01  0.21130133514E+02 -0.16399834279E+01  0.21864476829E+02  0.00000000000E+00 0. -1.
</event>
<event>
 7    1  0.1884848E-013  0.7246143E+02  0.7816164E-02  0.1226708E+00
        -11   -1    0    0    0    0  0.00000000000E+00  0.00000000000E+00  0.45593999997E+02  0.45594000000E+02  0.51100000000E-03 0. -1.
         11   -1    0    0    0    0 -0.00000000000E+00 -0.00000000000E+00 -0.45593999997E+02  0.45594000000E+02  0.51100000000E-03 0.  1.
    9900012    2    1    2    0    0 -0.11653789349E+02  0.11172417022E+02  0.94895089481E+01  0.72461428280E+02  0.69999815000E+02 0.  0.
        -12    1    1    2    0    0  0.11653789349E+02 -0.11172417022E+02 -0.94895089481E+01  0.18726571720E+02  0.00000000000E+00 0.  1.
         11    1    3    3    0    0 -0.66383650625E+01 -0.20650370741E+02  0.11192555922E+01  0.21720000824E+02  0.51100000000E-03 0. -1.
        -11    1    3    3    0    0 -0.17921107413E+01  0.20860080660E+02  0.23698718713E+02  0.31622521958E+02  0.51100000000E-03 0.  1.
        -12    1    3    3    0    0 -0.32233135453E+01  0.10962707103E+02 -0.15328465357E+02  0.19118905498E+02  0.00000000000E+00 0.  1.
</event>
<event>
 7    1  0.1884848E-013  0.7246161E+02  0.7816164E-02  0.1226708E+00
        -11   -1    0    0    0    0  0.00000000000E+00  0.00000000000E+00  0.45593999997E+02  0.45594000000E+02  0.51100000000E-03 0.  1.
         11   -1    0    0    0    0 -0.00000000000E+00 -0.00000000000E+00 -0.45593999997E+02  0.45594000000E+02  0.51100000000E-03 0. -1.
    9900012    2    1    2    0    0  0.12714222474E+02 -0.14958155011E+01 -0.13667068089E+02  0.72461610404E+02  0.70000052251E+02 0.  0.
        -12    1    1    2    0    0 -0.12714222474E+02  0.14958155011E+01  0.13667068089E+02  0.18726389596E+02  0.00000000000E+00 0.  1.
         11    1    3    3    0    0 -0.69023931838E+01  0.12451815001E+01 -0.19162027481E+02  0.20405313183E+02  0.51100000000E-03 0. -1.
        -11    1    3    3    0    0  0.23792520728E+02 -0.19859993946E+02 -0.52269501542E+01  0.31429674041E+02  0.51100000000E-03 0.  1.
        -12    1    3    3    0    0 -0.41759050709E+01  0.17118996944E+02  0.10721909546E+02  0.20626623181E+02  0.00000000000E+00 0.  1.
</event>
<event>
 7    1  0.1884848E-013  0.7246154E+02  0.7816164E-02  0.1226708E+00
        -11   -1    0    0    0    0  0.00000000000E+00  0.00000000000E+00  0.45593999997E+02  0.45594000000E+02  0.51100000000E-03 0.  1.
         11   -1    0    0    0    0 -0.00000000000E+00 -0.00000000000E+00 -0.45593999997E+02  0.45594000000E+02  0.51100000000E-03 0. -1.
    9900012    2    1    2    0    0  0.16741652804E+02  0.18899443023E+00 -0.83881845838E+01  0.72461540161E+02  0.69999960745E+02 0.  0.
        -12    1    1    2    0    0 -0.16741652804E+02 -0.18899443023E+00  0.83881845838E+01  0.18726459839E+02  0.00000000000E+00 0.  1.
         11    1    3    3    0    0 -0.36040685286E+01  0.17937964646E+02 -0.22759819416E+02  0.29202213370E+02  0.51100000000E-03 0. -1.
        -11    1    3    3    0    0  0.30574717185E+01 -0.11197206948E+02  0.20688285202E+02  0.23721945991E+02  0.51100000000E-03 0.  1.
         12    1    3    3    0    0  0.17288249614E+02 -0.65517632678E+01 -0.63166503695E+01  0.19537380800E+02  0.00000000000E+00 0. -1.
</event>
<event>
 7    1  0.1884848E-013  0.7246151E+02  0.7816164E-02  0.1226708E+00
        -11   -1    0    0    0    0  0.00000000000E+00  0.00000000000E+00  0.45593999997E+02  0.45594000000E+02  0.51100000000E-03 0. -1.
         11   -1    0    0    0    0 -0.00000000000E+00 -0.00000000000E+00 -0.45593999997E+02  0.45594000000E+02  0.51100000000E-03 0.  1.
    9900012    2    1    2    0    0 -0.12546212971E+02  0.90932365158E+01 -0.10516029229E+02  0.72461513918E+02  0.69999926559E+02 0.  0.
        -12    1    1    2    0    0  0.12546212971E+02 -0.90932365158E+01  0.10516029229E+02  0.18726486082E+02  0.00000000000E+00 0.  1.
         11    1    3    3    0    0 -0.85792772324E+01  0.14806234530E+02  0.27852447469E+02  0.32689255254E+02  0.51100000000E-03 0. -1.
        -11    1    3    3    0    0  0.90914384330E+00  0.54340707761E+00 -0.16071752591E+02  0.16106615579E+02  0.51100000000E-03 0.  1.
         12    1    3    3    0    0 -0.48760795817E+01 -0.62564050921E+01 -0.22296724106E+02  0.23665643085E+02  0.00000000000E+00 0. -1.
</event>
<event>
 7    1  0.1884848E-013  0.7246158E+02  0.7816164E-02  0.1226708E+00
        -11   -1    0    0    0    0  0.00000000000E+00  0.00000000000E+00  0.45593999997E+02  0.45594000000E+02  0.51100000000E-03 0. -1.
         11   -1    0    0    0    0 -0.00000000000E+00 -0.00000000000E+00 -0.45593999997E+02  0.45594000000E+02  0.51100000000E-03 0.  1.
    9900012    2    1    2    0    0  0.64612002200E+01  0.13596793025E+02  0.11138181656E+02  0.72461575369E+02  0.70000006610E+02 0.  0.
        -12    1    1    2    0    0 -0.64612002200E+01 -0.13596793025E+02 -0.11138181656E+02  0.18726424631E+02  0.00000000000E+00 0.  1.
         11    1    3    3    0    0 -0.15339806584E+02  0.10269550641E+02 -0.17975454972E+02  0.25766069124E+02  0.51100000000E-03 0.  1.
        -11    1    3    3    0    0 -0.22620827349E+01 -0.54308951823E+01  0.17713916744E+02  0.18665328485E+02  0.51100000000E-03 0. -1.
         12    1    3    3    0    0  0.24063089539E+02  0.87581375672E+01  0.11399719884E+02  0.28030177759E+02  0.00000000000E+00 0. -1.
</event>
<event>
 7    1  0.1884848E-013  0.7246158E+02  0.7816164E-02  0.1226708E+00
        -11   -1    0    0    0    0  0.00000000000E+00  0.00000000000E+00  0.45593999997E+02  0.45594000000E+02  0.51100000000E-03 0. -1.
         11   -1    0    0    0    0 -0.00000000000E+00 -0.00000000000E+00 -0.45593999997E+02  0.45594000000E+02  0.51100000000E-03 0.  1.
    9900012    2    1    2    0    0 -0.12028101576E+02 -0.93268402297E+00  0.14322484024E+02  0.72461583482E+02  0.70000017179E+02 0.  0.
        -12    1    1    2    0    0  0.12028101576E+02  0.93268402297E+00 -0.14322484024E+02  0.18726416518E+02  0.00000000000E+00 0.  1.
         11    1    3    3    0    0 -0.59562286698E+01  0.19242488852E+02  0.30074021369E+02  0.36196640710E+02  0.51100000000E-03 0. -1.
        -11    1    3    3    0    0 -0.11758549297E+02 -0.18274933364E+01 -0.11588761871E+02  0.16610316536E+02  0.51100000000E-03 0.  1.
         12    1    3    3    0    0  0.56866763909E+01 -0.18347679538E+02 -0.41627754735E+01  0.19654626235E+02  0.00000000000E+00 0. -1.
</event>
<event>
 7    1  0.1884848E-013  0.7246172E+02  0.7816164E-02  0.1226708E+00
        -11   -1    0    0    0    0  0.00000000000E+00  0.00000000000E+00  0.45593999997E+02  0.45594000000E+02  0.51100000000E-03 0. -1.
         11   -1    0    0    0    0 -0.00000000000E+00 -0.00000000000E+00 -0.45593999997E+02  0.45594000000E+02  0.51100000000E-03 0.  1.
    9900012    2    1    2    0    0 -0.70744615876E+01  0.16784629796E+02 -0.43476076462E+01  0.72461721769E+02  0.70000197323E+02 0.  0.
        -12    1    1    2    0    0  0.70744615876E+01 -0.16784629796E+02  0.43476076462E+01  0.18726278231E+02  0.00000000000E+00 0.  1.
         11    1    3    3    0    0 -0.13103438339E+02 -0.61068760439E+01  0.13289528105E+02  0.19636842639E+02  0.51100000000E-03 0. -1.
        -11    1    3    3    0    0  0.25064799966E+02  0.12330506931E+02 -0.83262959381E+01  0.29148118341E+02  0.51100000000E-03 0.  1.
         12    1    3    3    0    0 -0.19035823215E+02  0.10560998909E+02 -0.93108398128E+01  0.23676760789E+02  0.00000000000E+00 0. -1.
</event>
<event>
 7    1  0.1884848E-013  0.7246150E+02  0.7816164E-02  0.1226708E+00
        -11   -1    0    0    0    0  0.00000000000E+00  0.00000000000E+00  0.45593999997E+02  0.45594000000E+02  0.51100000000E-03 0.  1.
         11   -1    0    0    0    0 -0.00000000000E+00 -0.00000000000E+00 -0.45593999997E+02  0.45594000000E+02  0.51100000000E-03 0. -1.
    9900012    2    1    2    0    0 -0.13255479494E+02  0.30108293642E+01 -0.12880564086E+02  0.72461501094E+02  0.69999909854E+02 0.  0.
        -12    1    1    2    0    0  0.13255479494E+02 -0.30108293642E+01  0.12880564086E+02  0.18726498906E+02  0.00000000000E+00 0.  1.
         11    1    3    3    0    0 -0.83391211672E+00 -0.20949012974E+01 -0.29561658262E+02  0.29647523680E+02  0.51100000000E-03 0. -1.
        -11    1    3    3    0    0 -0.49584920381E+01 -0.12146934029E+02  0.19806988646E+02  0.23758186990E+02  0.51100000000E-03 0.  1.
        -12    1    3    3    0    0 -0.74630753396E+01  0.17252664691E+02 -0.31258944696E+01  0.19055790424E+02  0.00000000000E+00 0.  1.
</event>
<event>
 7    1  0.1884848E-013  0.7246157E+02  0.7816164E-02  0.1226708E+00
        -11   -1    0    0    0    0  0.00000000000E+00  0.00000000000E+00  0.45593999997E+02  0.45594000000E+02  0.51100000000E-03 0. -1.
         11   -1    0    0    0    0 -0.00000000000E+00 -0.00000000000E+00 -0.45593999997E+02  0.45594000000E+02  0.51100000000E-03 0.  1.
    9900012    2    1    2    0    0 -0.72229287689E+01 -0.78261272979E+01 -0.15403251350E+02  0.72461571599E+02  0.70000001700E+02 0.  0.
        -12    1    1    2    0    0  0.72229287689E+01  0.78261272979E+01  0.15403251350E+02  0.18726428401E+02  0.00000000000E+00 0.  1.
         11    1    3    3    0    0 -0.43816043989E+01  0.32018600867E+00 -0.42749449189E+02  0.42974601597E+02  0.51100000000E-03 0.  1.
        -11    1    3    3    0    0 -0.41282672908E+01 -0.85867489089E+01  0.25254064031E+02  0.26991528263E+02  0.51100000000E-03 0. -1.
        -12    1    3    3    0    0  0.12869429207E+01  0.44043560236E+00  0.20921338085E+01  0.24954417392E+01  0.00000000000E+00 0.  1.
</event>
<event>
 7    1  0.1884848E-013  0.7246158E+02  0.7816164E-02  0.1226708E+00
        -11   -1    0    0    0    0  0.00000000000E+00  0.00000000000E+00  0.45593999997E+02  0.45594000000E+02  0.51100000000E-03 0. -1.
         11   -1    0    0    0    0 -0.00000000000E+00 -0.00000000000E+00 -0.45593999997E+02  0.45594000000E+02  0.51100000000E-03 0.  1.
    9900012    2    1    2    0    0  0.17754107138E+01  0.13374437413E+01  0.18594029810E+02  0.72461580600E+02  0.70000013425E+02 0.  0.
        -12    1    1    2    0    0 -0.17754107138E+01 -0.13374437413E+01 -0.18594029810E+02  0.18726419400E+02  0.00000000000E+00 0.  1.
         11    1    3    3    0    0 -0.67937361618E+01  0.12782985719E+01 -0.19835097615E+02  0.21005237345E+02  0.51100000000E-03 0.  1.
        -11    1    3    3    0    0  0.19892432499E+02  0.53743284237E+00  0.33781572037E+02  0.39207044193E+02  0.51100000000E-03 0. -1.
        -12    1    3    3    0    0 -0.11323285624E+02 -0.47828767300E+00  0.46475553885E+01  0.12249299062E+02  0.00000000000E+00 0.  1.
</event>
<event>
 7    1  0.1884848E-013  0.7246162E+02  0.7816164E-02  0.1226708E+00
        -11   -1    0    0    0    0  0.00000000000E+00  0.00000000000E+00  0.45593999997E+02  0.45594000000E+02  0.51100000000E-03 0.  1.
         11   -1    0    0    0    0 -0.00000000000E+00 -0.00000000000E+00 -0.45593999997E+02  0.45594000000E+02  0.51100000000E-03 0. -1.
    9900012    2    1    2    0    0 -0.37619724225E+01  0.95518954624E+01 -0.15661614004E+02  0.72461620300E+02  0.70000065142E+02 0.  0.
        -12    1    1    2    0    0  0.37619724225E+01 -0.95518954624E+01  0.15661614004E+02  0.18726379700E+02  0.00000000000E+00 0.  1.
         11    1    3    3    0    0 -0.23799164086E+02  0.61681016024E+01 -0.17083702661E+02  0.29938246198E+02  0.51100000000E-03 0.  1.
        -11    1    3    3    0    0  0.21530102103E+02 -0.33630057322E+01  0.15567354769E+02  0.26780545903E+02  0.51100000000E-03 0. -1.
         12    1    3    3    0    0 -0.14929104392E+01  0.67467995922E+01 -0.14145266112E+02  0.15742828199E+02  0.00000000000E+00 0. -1.
</event>
<event>
 7    1  0.1884848E-013  0.7246156E+02  0.7816164E-02  0.1226708E+00
        -11   -1    0    0    0    0  0.00000000000E+00  0.00000000000E+00  0.45593999997E+02  0.45594000000E+02  0.51100000000E-03 0. -1.
         11   -1    0    0    0    0 -0.00000000000E+00 -0.00000000000E+00 -0.45593999997E+02  0.45594000000E+02  0.51100000000E-03 0.  1.
    9900012    2    1    2    0    0 -0.84455183760E+01  0.11835371379E+02  0.11801552053E+02  0.72461563415E+02  0.69999991038E+02 0.  0.
        -12    1    1    2    0    0  0.84455183760E+01 -0.11835371379E+02 -0.11801552053E+02  0.18726436585E+02  0.00000000000E+00 0.  1.
         11    1    3    3    0    0  0.15216944966E+02  0.67190177288E+01  0.85879138310E+01  0.18720386683E+02  0.51100000000E-03 0. -1.
        -11    1    3    3    0    0 -0.13478716508E+02 -0.20118970882E+02 -0.61099246304E+01  0.24975587427E+02  0.51100000000E-03 0.  1.
        -12    1    3    3    0    0 -0.10183746833E+02  0.25235324532E+02  0.93235628529E+01  0.28765589305E+02  0.00000000000E+00 0.  1.
</event>
<event>
 7    1  0.1884848E-013  0.7246154E+02  0.7816164E-02  0.1226708E+00
        -11   -1    0    0    0    0  0.00000000000E+00  0.00000000000E+00  0.45593999997E+02  0.45594000000E+02  0.51100000000E-03 0.  1.
         11   -1    0    0    0    0 -0.00000000000E+00 -0.00000000000E+00 -0.45593999997E+02  0.45594000000E+02  0.51100000000E-03 0. -1.
    9900012    2    1    2    0    0  0.38566034936E+01  0.73745178237E+01 -0.16775682840E+02  0.72461536415E+02  0.69999955866E+02 0.  0.
        -12    1    1    2    0    0 -0.38566034936E+01 -0.73745178237E+01  0.16775682840E+02  0.18726463585E+02  0.00000000000E+00 0.  1.
         11    1    3    3    0    0  0.24392655791E+02 -0.15786167534E+02 -0.12613941312E+02  0.31675167839E+02  0.51100000000E-03 0. -1.
        -11    1    3    3    0    0 -0.19934190658E+02  0.40858656264E+01 -0.69429078240E+01  0.21500470330E+02  0.51100000000E-03 0.  1.
        -12    1    3    3    0    0 -0.60186163958E+00  0.19074819731E+02  0.27811662954E+01  0.19285898246E+02  0.00000000000E+00 0.  1.
</event>
<event>
 7    1  0.1884848E-013  0.7246157E+02  0.7816164E-02  0.1226708E+00
        -11   -1    0    0    0    0  0.00000000000E+00  0.00000000000E+00  0.45593999997E+02  0.45594000000E+02  0.51100000000E-03 0.  1.
         11   -1    0    0    0    0 -0.00000000000E+00 -0.00000000000E+00 -0.45593999997E+02  0.45594000000E+02  0.51100000000E-03 0. -1.
    9900012    2    1    2    0    0 -0.14730776238E+02  0.54589075753E+01 -0.10192328156E+02  0.72461574988E+02  0.70000006114E+02 0.  0.
        -12    1    1    2    0    0  0.14730776238E+02 -0.54589075753E+01  0.10192328156E+02  0.18726425012E+02  0.00000000000E+00 0.  1.
         11    1    3    3    0    0 -0.25765014747E+02  0.11561682923E+02 -0.11934472264E+02  0.30658442971E+02  0.51100000000E-03 0. -1.
        -11    1    3    3    0    0  0.38929848638E+01 -0.20284703232E+02 -0.91056841770E+01  0.22572948433E+02  0.51100000000E-03 0.  1.
        -12    1    3    3    0    0  0.71412536452E+01  0.14181927885E+02  0.10847828285E+02  0.19230183583E+02  0.00000000000E+00 0.  1.
</event>
<event>
 7    1  0.1884848E-013  0.7246142E+02  0.7816164E-02  0.1226708E+00
        -11   -1    0    0    0    0  0.00000000000E+00  0.00000000000E+00  0.45593999997E+02  0.45594000000E+02  0.51100000000E-03 0.  1.
         11   -1    0    0    0    0 -0.00000000000E+00 -0.00000000000E+00 -0.45593999997E+02  0.45594000000E+02  0.51100000000E-03 0. -1.
    9900012    2    1    2    0    0 -0.60988464451E+01 -0.37020795325E+00 -0.17701745361E+02  0.72461420741E+02  0.69999805179E+02 0.  0.
        -12    1    1    2    0    0  0.60988464451E+01  0.37020795325E+00  0.17701745361E+02  0.18726579259E+02  0.00000000000E+00 0.  1.
         11    1    3    3    0    0 -0.75720138135E+01 -0.19496965868E+02 -0.88984551014E+01  0.22729926852E+02  0.51100000000E-03 0. -1.
        -11    1    3    3    0    0  0.22589005367E+02  0.13465007682E+02 -0.92162013459E+01  0.27865892465E+02  0.51100000000E-03 0.  1.
         12    1    3    3    0    0 -0.21115837999E+02  0.56617502321E+01  0.41291108599E+00  0.21865601425E+02  0.00000000000E+00 0. -1.
</event>
<event>
 7    1  0.1884848E-013  0.7246167E+02  0.7816164E-02  0.1226708E+00
        -11   -1    0    0    0    0  0.00000000000E+00  0.00000000000E+00  0.45593999997E+02  0.45594000000E+02  0.51100000000E-03 0. -1.
         11   -1    0    0    0    0 -0.00000000000E+00 -0.00000000000E+00 -0.45593999997E+02  0.45594000000E+02  0.51100000000E-03 0.  1.
    9900012    2    1    2    0    0 -0.61054998397E+01 -0.16793266031E+02  0.56021804135E+01  0.72461672606E+02  0.70000133280E+02 0.  0.
        -12    1    1    2    0    0  0.61054998397E+01  0.16793266031E+02 -0.56021804135E+01  0.18726327394E+02  0.00000000000E+00 0.  1.
         11    1    3    3    0    0  0.20746643111E+02 -0.71237208292E+01 -0.13791861876E+02  0.25911118330E+02  0.51100000000E-03 0. -1.
        -11    1    3    3    0    0 -0.26296165555E+02 -0.16470745710E+02  0.61216750343E+01  0.31626708533E+02  0.51100000000E-03 0.  1.
         12    1    3    3    0    0 -0.55597739535E+00  0.68012005083E+01  0.13272367255E+02  0.14923845743E+02  0.00000000000E+00 0. -1.
</event>
<event>
 7    1  0.1884848E-013  0.7246157E+02  0.7816164E-02  0.1226708E+00
        -11   -1    0    0    0    0  0.00000000000E+00  0.00000000000E+00  0.45593999997E+02  0.45594000000E+02  0.51100000000E-03 0. -1.
         11   -1    0    0    0    0 -0.00000000000E+00 -0.00000000000E+00 -0.45593999997E+02  0.45594000000E+02  0.51100000000E-03 0.  1.
    9900012    2    1    2    0    0  0.35721011736E+01  0.16558764877E+02  0.79828994152E+01  0.72461567235E+02  0.69999996014E+02 0.  0.
        -12    1    1    2    0    0 -0.35721011736E+01 -0.16558764877E+02 -0.79828994152E+01  0.18726432765E+02  0.00000000000E+00 0.  1.
         11    1    3    3    0    0 -0.10343356364E+02 -0.13536989238E+02  0.20034809699E+02  0.26298834545E+02  0.51100000000E-03 0. -1.
        -11    1    3    3    0    0  0.72323380423E+00  0.22412598727E+02 -0.18998309496E+02  0.29390192460E+02  0.51100000000E-03 0.  1.
         12    1    3    3    0    0  0.13192223733E+02  0.76831553876E+01  0.69463992127E+01  0.16772540230E+02  0.00000000000E+00 0. -1.
</event>
<event>
 7    1  0.1884848E-013  0.7246157E+02  0.7816164E-02  0.1226708E+00
        -11   -1    0    0    0    0  0.00000000000E+00  0.00000000000E+00  0.45593999997E+02  0.45594000000E+02  0.51100000000E-03 0.  1.
         11   -1    0    0    0    0 -0.00000000000E+00 -0.00000000000E+00 -0.45593999997E+02  0.45594000000E+02  0.51100000000E-03 0. -1.
    9900012    2    1    2    0    0  0.83767478640E+01  0.15772260454E+02 -0.56342691825E+01  0.72461572315E+02  0.70000002633E+02 0.  0.
        -12    1    1    2    0    0 -0.83767478640E+01 -0.15772260454E+02  0.56342691825E+01  0.18726427685E+02  0.00000000000E+00 0.  1.
         11    1    3    3    0    0 -0.62142787917E+01  0.12244436807E+02 -0.22553787646E+02  0.26404863776E+02  0.51100000000E-03 0. -1.
        -11    1    3    3    0    0  0.20446623023E+02  0.55044040239E+01  0.26951065608E+02  0.34274229304E+02  0.51100000000E-03 0.  1.
        -12    1    3    3    0    0 -0.58555963677E+01 -0.19765803769E+01 -0.10031547145E+02  0.11782479235E+02  0.00000000000E+00 0.  1.
</event>
<event>
 7    1  0.1884848E-013  0.7246161E+02  0.7816164E-02  0.1226708E+00
        -11   -1    0    0    0    0  0.00000000000E+00  0.00000000000E+00  0.45593999997E+02  0.45594000000E+02  0.51100000000E-03 0.  1.
         11   -1    0    0    0    0 -0.00000000000E+00 -0.00000000000E+00 -0.45593999997E+02  0.45594000000E+02  0.51100000000E-03 0. -1.
    9900012    2    1    2    0    0  0.66011101672E+01 -0.15275774036E+02 -0.85880023829E+01  0.72461609190E+02  0.70000050669E+02 0.  0.
        -12    1    1    2    0    0 -0.66011101672E+01  0.15275774036E+02  0.85880023829E+01  0.18726390810E+02  0.00000000000E+00 0.  1.
         11    1    3    3    0    0 -0.83397162572E+01  0.53105402748E+01 -0.29576575070E+01  0.10319905206E+02  0.51100000000E-03 0. -1.
        -11    1    3    3    0    0  0.30745643182E+02 -0.74844106302E+01 -0.19680921443E+02  0.37264589710E+02  0.51100000000E-03 0.  1.
        -12    1    3    3    0    0 -0.15804816757E+02 -0.13101903680E+02  0.14050576567E+02  0.24877114275E+02  0.00000000000E+00 0.  1.
</event>
<event>
 7    1  0.3027381E-013  0.7246146E+02  0.7816164E-02  0.1226708E+00
        -11   -1    0    0    0    0  0.00000000000E+00  0.00000000000E+00  0.45593999997E+02  0.45594000000E+02  0.51100000000E-03 0. -1.
         11   -1    0    0    0    0 -0.00000000000E+00 -0.00000000000E+00 -0.45593999997E+02  0.45594000000E+02  0.51100000000E-03 0.  1.
    9900012    2    1    2    0    0  0.17035501928E+02  0.77714124077E+01 -0.28285101313E+00  0.72461463175E+02  0.69999860457E+02 0.  0.
        -12    1    1    2    0    0 -0.17035501928E+02 -0.77714124077E+01  0.28285101313E+00  0.18726536825E+02  0.00000000000E+00 0.  1.
         11    1    3    3    0    0  0.18895283377E+02 -0.67233150319E+01  0.12816459452E+02  0.23801183417E+02  0.51100000000E-03 0. -1.
        -11    1    3    3    0    0 -0.19365580526E+02  0.45099776221E+01  0.61277310045E+01  0.20806602192E+02  0.51100000000E-03 0.  1.
         12    1    3    3    0    0  0.17505799077E+02  0.99847498175E+01 -0.19227041470E+02  0.27853677566E+02  0.00000000000E+00 0. -1.
</event>
<event>
 7    1  0.1884848E-013  0.7246154E+02  0.7816164E-02  0.1226708E+00
        -11   -1    0    0    0    0  0.00000000000E+00  0.00000000000E+00  0.45593999997E+02  0.45594000000E+02  0.51100000000E-03 0. -1.
         11   -1    0    0    0    0 -0.00000000000E+00 -0.00000000000E+00 -0.45593999997E+02  0.45594000000E+02  0.51100000000E-03 0.  1.
    9900012    2    1    2    0    0 -0.17009674335E+02  0.65400587714E+01  0.43103303368E+01  0.72461539113E+02  0.69999959381E+02 0.  0.
        -12    1    1    2    0    0  0.17009674335E+02 -0.65400587714E+01 -0.43103303368E+01  0.18726460887E+02  0.00000000000E+00 0.  1.
         11    1    3    3    0    0  0.16473330717E+02  0.14401157691E+01  0.20509929807E+02  0.26345811418E+02  0.51100000000E-03 0. -1.
        -11    1    3    3    0    0 -0.13935241182E+02 -0.40875046411E+01 -0.19449880379E+02  0.24273369935E+02  0.51100000000E-03 0.  1.
         12    1    3    3    0    0 -0.19547763871E+02  0.91874476434E+01  0.32502809090E+01  0.21842357760E+02  0.00000000000E+00 0. -1.
</event>
<event>
 7    1  0.1884848E-013  0.7246152E+02  0.7816164E-02  0.1226708E+00
        -11   -1    0    0    0    0  0.00000000000E+00  0.00000000000E+00  0.45593999997E+02  0.45594000000E+02  0.51100000000E-03 0.  1.
         11   -1    0    0    0    0 -0.00000000000E+00 -0.00000000000E+00 -0.45593999997E+02  0.45594000000E+02  0.51100000000E-03 0. -1.
    9900012    2    1    2    0    0 -0.15316591186E+02 -0.10338542985E+02 -0.30327782709E+01  0.72461516596E+02  0.69999930048E+02 0.  0.
        -12    1    1    2    0    0  0.15316591186E+02  0.10338542985E+02  0.30327782709E+01  0.18726483404E+02  0.00000000000E+00 0.  1.
         11    1    3    3    0    0 -0.62914751406E+01 -0.99680331972E+01  0.22886775952E+02  0.25743909163E+02  0.51100000000E-03 0.  1.
        -11    1    3    3    0    0  0.12390392791E+02  0.91223406688E+01 -0.11513848472E+02  0.19217378585E+02  0.51100000000E-03 0. -1.
         12    1    3    3    0    0 -0.21415508836E+02 -0.94928504570E+01 -0.14405705751E+02  0.27500228848E+02  0.00000000000E+00 0. -1.
</event>
<event>
 7    1  0.1884848E-013  0.7246151E+02  0.7816164E-02  0.1226708E+00
        -11   -1    0    0    0    0  0.00000000000E+00  0.00000000000E+00  0.45593999997E+02  0.45594000000E+02  0.51100000000E-03 0.  1.
         11   -1    0    0    0    0 -0.00000000000E+00 -0.00000000000E+00 -0.45593999997E+02  0.45594000000E+02  0.51100000000E-03 0. -1.
    9900012    2    1    2    0    0  0.15720065978E+02 -0.94183183708E+01 -0.38543856862E+01  0.72461508489E+02  0.69999919487E+02 0.  0.
        -12    1    1    2    0    0 -0.15720065978E+02  0.94183183708E+01  0.38543856862E+01  0.18726491511E+02  0.00000000000E+00 0.  1.
         11    1    3    3    0    0  0.19626481805E+02 -0.41877089782E+01 -0.77541098547E+01  0.21514225862E+02  0.51100000000E-03 0. -1.
        -11    1    3    3    0    0 -0.16432057923E+02 -0.43671260740E+01 -0.18588472401E+02  0.25191578438E+02  0.51100000000E-03 0.  1.
        -12    1    3    3    0    0  0.12525642096E+02 -0.86348331859E+00  0.22488196569E+02  0.25755704190E+02  0.00000000000E+00 0.  1.
</event>
<event>
 7    1  0.1884848E-013  0.7246158E+02  0.7816164E-02  0.1226708E+00
        -11   -1    0    0    0    0  0.00000000000E+00  0.00000000000E+00  0.45593999997E+02  0.45594000000E+02  0.51100000000E-03 0. -1.
         11   -1    0    0    0    0 -0.00000000000E+00 -0.00000000000E+00 -0.45593999997E+02  0.45594000000E+02  0.51100000000E-03 0.  1.
    9900012    2    1    2    0    0  0.12562744251E+02  0.62724537521E+01  0.12390026258E+02  0.72461575625E+02  0.70000006945E+02 0.  0.
        -12    1    1    2    0    0 -0.12562744251E+02 -0.62724537521E+01 -0.12390026258E+02  0.18726424375E+02  0.00000000000E+00 0.  1.
         11    1    3    3    0    0 -0.42879204458E+01  0.21119387317E+02  0.12621896819E+02  0.24974528263E+02  0.51100000000E-03 0. -1.
        -11    1    3    3    0    0  0.26484659736E+02 -0.22652842619E+02  0.19132426767E+01  0.34903423584E+02  0.51100000000E-03 0.  1.
        -12    1    3    3    0    0 -0.96339950395E+01  0.78059090545E+01 -0.21451132380E+01  0.12583623778E+02  0.00000000000E+00 0.  1.
</event>
<event>
 7    1  0.1884848E-013  0.7246151E+02  0.7816164E-02  0.1226708E+00
        -11   -1    0    0    0    0  0.00000000000E+00  0.00000000000E+00  0.45593999997E+02  0.45594000000E+02  0.51100000000E-03 0.  1.
         11   -1    0    0    0    0 -0.00000000000E+00 -0.00000000000E+00 -0.45593999997E+02  0.45594000000E+02  0.51100000000E-03 0. -1.
    9900012    2    1    2    0    0 -0.58357268058E+01  0.57701255928E+00 -0.17784623910E+02  0.72461508111E+02  0.69999918995E+02 0.  0.
        -12    1    1    2    0    0  0.58357268058E+01 -0.57701255928E+00  0.17784623910E+02  0.18726491889E+02  0.00000000000E+00 0.  1.
         11    1    3    3    0    0 -0.15201946428E+02 -0.13199068281E+02 -0.15766418319E+02  0.25571361433E+02  0.51100000000E-03 0. -1.
        -11    1    3    3    0    0  0.26737753940E+02  0.10649040615E+02 -0.42734682949E+01  0.29095911797E+02  0.51100000000E-03 0.  1.
         12    1    3    3    0    0 -0.17371534318E+02  0.31270402254E+01  0.22552627039E+01  0.17794234881E+02  0.00000000000E+00 0. -1.
</event>
<event>
 7    1  0.1884848E-013  0.7246154E+02  0.7816164E-02  0.1226708E+00
        -11   -1    0    0    0    0  0.00000000000E+00  0.00000000000E+00  0.45593999997E+02  0.45594000000E+02  0.51100000000E-03 0.  1.
         11   -1    0    0    0    0 -0.00000000000E+00 -0.00000000000E+00 -0.45593999997E+02  0.45594000000E+02  0.51100000000E-03 0. -1.
    9900012    2    1    2    0    0 -0.14150216999E+02  0.15520989946E+00 -0.12264893301E+02  0.72461539072E+02  0.69999959326E+02 0.  0.
        -12    1    1    2    0    0  0.14150216999E+02 -0.15520989946E+00  0.12264893301E+02  0.18726460928E+02  0.00000000000E+00 0.  1.
         11    1    3    3    0    0 -0.48805583957E+01 -0.14078244472E+01 -0.34690829689E+02  0.35060739934E+02  0.51100000000E-03 0. -1.
        -11    1    3    3    0    0 -0.17295388710E+02  0.81286773806E+01  0.17534597537E+02  0.25935843492E+02  0.51100000000E-03 0.  1.
         12    1    3    3    0    0  0.80257301074E+01 -0.65656430339E+01  0.48913388504E+01  0.11464955646E+02  0.00000000000E+00 0. -1.
</event>
<event>
 7    1  0.1884848E-013  0.7246157E+02  0.7816164E-02  0.1226708E+00
        -11   -1    0    0    0    0  0.00000000000E+00  0.00000000000E+00  0.45593999997E+02  0.45594000000E+02  0.51100000000E-03 0.  1.
         11   -1    0    0    0    0 -0.00000000000E+00 -0.00000000000E+00 -0.45593999997E+02  0.45594000000E+02  0.51100000000E-03 0. -1.
    9900012    2    1    2    0    0 -0.10625143391E+02 -0.14763271900E+02 -0.44532451582E+01  0.72461567833E+02  0.69999996794E+02 0.  0.
        -12    1    1    2    0    0  0.10625143391E+02  0.14763271900E+02  0.44532451582E+01  0.18726432167E+02  0.00000000000E+00 0.  1.
         11    1    3    3    0    0  0.10999482422E+02  0.14124599000E+02 -0.23899060799E+02  0.29860643291E+02  0.51100000000E-03 0. -1.
        -11    1    3    3    0    0 -0.17354998771E+02 -0.18396018676E+02  0.80687709123E+01  0.26546460212E+02  0.51100000000E-03 0.  1.
        -12    1    3    3    0    0 -0.42696270414E+01 -0.10491852224E+02  0.11377044728E+02  0.16054464330E+02  0.00000000000E+00 0.  1.
</event>
<event>
 7    1  0.1884848E-013  0.7246160E+02  0.7816164E-02  0.1226708E+00
        -11   -1    0    0    0    0  0.00000000000E+00  0.00000000000E+00  0.45593999997E+02  0.45594000000E+02  0.51100000000E-03 0.  1.
         11   -1    0    0    0    0 -0.00000000000E+00 -0.00000000000E+00 -0.45593999997E+02  0.45594000000E+02  0.51100000000E-03 0. -1.
    9900012    2    1    2    0    0  0.11645688036E+02 -0.56584948176E+01  0.13529139530E+02  0.72461595383E+02  0.70000032683E+02 0.  0.
        -12    1    1    2    0    0 -0.11645688036E+02  0.56584948176E+01 -0.13529139530E+02  0.18726404617E+02  0.00000000000E+00 0.  1.
         11    1    3    3    0    0  0.34836094241E+02 -0.69912868191E+01  0.12749421935E+02  0.37748898173E+02  0.51100000000E-03 0. -1.
        -11    1    3    3    0    0 -0.23899450291E+02 -0.23808412623E+01  0.90127313560E+01  0.25653098372E+02  0.51100000000E-03 0.  1.
         12    1    3    3    0    0  0.70904408613E+00  0.37136332638E+01 -0.82330137603E+01  0.90595988384E+01  0.00000000000E+00 0. -1.
</event>
<event>
 7    1  0.1884848E-013  0.7246161E+02  0.7816164E-02  0.1226708E+00
        -11   -1    0    0    0    0  0.00000000000E+00  0.00000000000E+00  0.45593999997E+02  0.45594000000E+02  0.51100000000E-03 0.  1.
         11   -1    0    0    0    0 -0.00000000000E+00 -0.00000000000E+00 -0.45593999997E+02  0.45594000000E+02  0.51100000000E-03 0. -1.
    9900012    2    1    2    0    0  0.17853685733E+02  0.55956792721E+01 -0.78217179556E+00  0.72461614511E+02  0.70000057600E+02 0.  0.
        -12    1    1    2    0    0 -0.17853685733E+02 -0.55956792721E+01  0.78217179556E+00  0.18726385489E+02  0.00000000000E+00 0.  1.
         11    1    3    3    0    0  0.99350613681E+01  0.90411258697E+01 -0.25033319290E+02  0.28409760230E+02  0.51100000000E-03 0. -1.
        -11    1    3    3    0    0  0.94184990717E+01  0.14496498068E+02  0.18090620047E+02  0.25022532145E+02  0.51100000000E-03 0.  1.
         12    1    3    3    0    0 -0.14998747065E+01 -0.17941944665E+02  0.61605274472E+01  0.19029322136E+02  0.00000000000E+00 0. -1.
</event>
<event>
 7    1  0.1884848E-013  0.7246155E+02  0.7816164E-02  0.1226708E+00
        -11   -1    0    0    0    0  0.00000000000E+00  0.00000000000E+00  0.45593999997E+02  0.45594000000E+02  0.51100000000E-03 0.  1.
         11   -1    0    0    0    0 -0.00000000000E+00 -0.00000000000E+00 -0.45593999997E+02  0.45594000000E+02  0.51100000000E-03 0. -1.
    9900012    2    1    2    0    0 -0.27766737497E+01  0.17126656148E+02 -0.70461046008E+01  0.72461551913E+02  0.69999976055E+02 0.  0.
        -12    1    1    2    0    0  0.27766737497E+01 -0.17126656148E+02  0.70461046008E+01  0.18726448087E+02  0.00000000000E+00 0.  1.
         11    1    3    3    0    0  0.72427877946E+01 -0.19606462473E+02  0.72846533947E+01  0.22134532321E+02  0.51100000000E-03 0. -1.
        -11    1    3    3    0    0 -0.23950039085E+01  0.27088304353E+02  0.47723414260E+01  0.27609554856E+02  0.51100000000E-03 0.  1.
         12    1    3    3    0    0 -0.76244576358E+01  0.96448142677E+01 -0.19103099421E+02  0.22717464735E+02  0.00000000000E+00 0. -1.
</event>
<event>
 7    1  0.1884848E-013  0.7246174E+02  0.7816164E-02  0.1226708E+00
        -11   -1    0    0    0    0  0.00000000000E+00  0.00000000000E+00  0.45593999997E+02  0.45594000000E+02  0.51100000000E-03 0.  1.
         11   -1    0    0    0    0 -0.00000000000E+00 -0.00000000000E+00 -0.45593999997E+02  0.45594000000E+02  0.51100000000E-03 0. -1.
    9900012    2    1    2    0    0 -0.34568366189E+01 -0.17413191275E+02 -0.59585102433E+01  0.72461740520E+02  0.70000221750E+02 0.  0.
        -12    1    1    2    0    0  0.34568366189E+01  0.17413191275E+02  0.59585102433E+01  0.18726259480E+02  0.00000000000E+00 0.  1.
         11    1    3    3    0    0 -0.38928352285E+01 -0.56214573187E+01 -0.22181357011E+02  0.23211366776E+02  0.51100000000E-03 0. -1.
        -11    1    3    3    0    0  0.13605378830E+02 -0.22242808184E+02  0.18930506739E+02  0.32221311808E+02  0.51100000000E-03 0.  1.
        -12    1    3    3    0    0 -0.13169380220E+02  0.10451074227E+02 -0.27076599710E+01  0.17029061936E+02  0.00000000000E+00 0.  1.
</event>
<event>
 7    1  0.1884848E-013  0.7246157E+02  0.7816164E-02  0.1226708E+00
        -11   -1    0    0    0    0  0.00000000000E+00  0.00000000000E+00  0.45593999997E+02  0.45594000000E+02  0.51100000000E-03 0.  1.
         11   -1    0    0    0    0 -0.00000000000E+00 -0.00000000000E+00 -0.45593999997E+02  0.45594000000E+02  0.51100000000E-03 0. -1.
    9900012    2    1    2    0    0 -0.54945126432E+01 -0.39924442482E+01 -0.17451353009E+02  0.72461574764E+02  0.70000005823E+02 0.  0.
        -12    1    1    2    0    0  0.54945126432E+01  0.39924442482E+01  0.17451353009E+02  0.18726425236E+02  0.00000000000E+00 0.  1.
         11    1    3    3    0    0 -0.17636596583E+02 -0.44475812932E+01 -0.29230229765E+02  0.34427268999E+02  0.51100000000E-03 0. -1.
        -11    1    3    3    0    0  0.98600708256E+01 -0.50791076639E+01 -0.10313343411E+02  0.15145408014E+02  0.51100000000E-03 0.  1.
         12    1    3    3    0    0  0.22820131137E+01  0.55342447090E+01  0.22092220167E+02  0.22888897751E+02  0.00000000000E+00 0. -1.
</event>
<event>
 7    1  0.1884848E-013  0.7246159E+02  0.7816164E-02  0.1226708E+00
        -11   -1    0    0    0    0  0.00000000000E+00  0.00000000000E+00  0.45593999997E+02  0.45594000000E+02  0.51100000000E-03 0. -1.
         11   -1    0    0    0    0 -0.00000000000E+00 -0.00000000000E+00 -0.45593999997E+02  0.45594000000E+02  0.51100000000E-03 0.  1.
    9900012    2    1    2    0    0 -0.17048463185E+01  0.49809889610E+01 -0.17971134271E+02  0.72461590334E+02  0.70000026105E+02 0.  0.
        -12    1    1    2    0    0  0.17048463185E+01 -0.49809889610E+01  0.17971134271E+02  0.18726409666E+02  0.00000000000E+00 0.  1.
         11    1    3    3    0    0  0.15765629108E+02 -0.52323352440E+01  0.46578306614E+01  0.17251892071E+02  0.51100000000E-03 0. -1.
        -11    1    3    3    0    0 -0.23531635763E+02 -0.10944214110E+02 -0.20549993493E+02  0.33103110684E+02  0.51100000000E-03 0.  1.
        -12    1    3    3    0    0  0.60611603358E+01  0.21157538315E+02 -0.20789714395E+01  0.22106587579E+02  0.00000000000E+00 0.  1.
</event>
<event>
 8    1  0.1884848E-013  0.7246158E+02  0.7816164E-02  0.1226708E+00
        -11   -1    0    0    0    0  0.00000000000E+00  0.00000000000E+00  0.45593999997E+02  0.45594000000E+02  0.51100000000E-03 0. -1.
         11   -1    0    0    0    0 -0.00000000000E+00 -0.00000000000E+00 -0.45593999997E+02  0.45594000000E+02  0.51100000000E-03 0.  1.
    9900012    2    1    2    0    0 -0.72304028441E-01 -0.82333362501E+01  0.16819208394E+02  0.72461579502E+02  0.70000011995E+02 0.  0.
        -24    2    3    3    0    0 -0.57072098344E+01  0.50872404059E+01  0.22367899297E+02  0.56970359508E+02  0.51834801866E+02 0.  0.
        -12    1    1    2    0    0  0.72304028441E-01  0.82333362501E+01 -0.16819208394E+02  0.18726420498E+02  0.00000000000E+00 0.  1.
         11    1    4    4    0    0 -0.15482883456E+02 -0.19933410288E+01  0.35713246977E+02  0.38976006702E+02  0.51100000000E-03 0. -1.
        -11    1    3    3    0    0  0.56349058059E+01 -0.13320576656E+02 -0.55486909037E+01  0.15491219994E+02  0.51100000000E-03 0.  1.
        -12    1    4    4    0    0  0.97756736218E+01  0.70805814347E+01 -0.13345347679E+02  0.17994352806E+02  0.00000000000E+00 0.  1.
</event>
<event>
 7    1  0.1884848E-013  0.7246155E+02  0.7816164E-02  0.1226708E+00
        -11   -1    0    0    0    0  0.00000000000E+00  0.00000000000E+00  0.45593999997E+02  0.45594000000E+02  0.51100000000E-03 0. -1.
         11   -1    0    0    0    0 -0.00000000000E+00 -0.00000000000E+00 -0.45593999997E+02  0.45594000000E+02  0.51100000000E-03 0.  1.
    9900012    2    1    2    0    0  0.15249199579E+02  0.10320014909E+02  0.34116310169E+01  0.72461547541E+02  0.69999970359E+02 0.  0.
        -12    1    1    2    0    0 -0.15249199579E+02 -0.10320014909E+02 -0.34116310169E+01  0.18726452459E+02  0.00000000000E+00 0.  1.
         11    1    3    3    0    0  0.38793894802E+02 -0.50019103511E+01  0.90986249934E+01  0.40159312221E+02  0.51100000000E-03 0. -1.
        -11    1    3    3    0    0 -0.17422723857E+02  0.13214057557E+02  0.23373303162E+01  0.21991492378E+02  0.51100000000E-03 0.  1.
         12    1    3    3    0    0 -0.61219713657E+01  0.21078677031E+01 -0.80243242927E+01  0.10310742942E+02  0.00000000000E+00 0. -1.
</event>
<event>
 7    1  0.1884848E-013  0.7246168E+02  0.7816164E-02  0.1226708E+00
        -11   -1    0    0    0    0  0.00000000000E+00  0.00000000000E+00  0.45593999997E+02  0.45594000000E+02  0.51100000000E-03 0.  1.
         11   -1    0    0    0    0 -0.00000000000E+00 -0.00000000000E+00 -0.45593999997E+02  0.45594000000E+02  0.51100000000E-03 0. -1.
    9900012    2    1    2    0    0 -0.10602927776E+02  0.12987639898E+02 -0.83411199221E+01  0.72461677640E+02  0.70000139838E+02 0.  0.
        -12    1    1    2    0    0  0.10602927776E+02 -0.12987639898E+02  0.83411199221E+01  0.18726322360E+02  0.00000000000E+00 0.  1.
         11    1    3    3    0    0 -0.11471030967E+02 -0.22595983668E+02 -0.21203239479E+02  0.33041495033E+02  0.51100000000E-03 0. -1.
        -11    1    3    3    0    0  0.13341853032E+01  0.35165813777E+02  0.10134036774E+02  0.36621212577E+02  0.51100000000E-03 0.  1.
         12    1    3    3    0    0 -0.46608211288E+00  0.41780978929E+00  0.27280827830E+01  0.27989700296E+01  0.00000000000E+00 0. -1.
</event>
<event>
 7    1  0.1884848E-013  0.7246085E+02  0.7816164E-02  0.1226710E+00
        -11   -1    0    0    0    0  0.00000000000E+00  0.00000000000E+00  0.45593999997E+02  0.45594000000E+02  0.51100000000E-03 0. -1.
         11   -1    0    0    0    0 -0.00000000000E+00 -0.00000000000E+00 -0.45593999997E+02  0.45594000000E+02  0.51100000000E-03 0.  1.
    9900012    2    1    2    0    0  0.54096172656E+01 -0.14559694357E+02  0.10462201382E+02  0.72460845478E+02  0.69999055785E+02 0.  0.
        -12    1    1    2    0    0 -0.54096172656E+01  0.14559694357E+02 -0.10462201382E+02  0.18727154522E+02  0.00000000000E+00 0.  1.
         11    1    3    3    0    0  0.42447121552E+00  0.18734193806E+02 -0.16216235261E+02  0.24781373644E+02  0.51100000000E-03 0.  1.
        -11    1    3    3    0    0 -0.43214612341E+01 -0.14129736914E+02  0.17366965713E+01  0.14877520213E+02  0.51100000000E-03 0. -1.
         12    1    3    3    0    0  0.93066072841E+01 -0.19164151250E+02  0.24941740072E+02  0.32801951620E+02  0.00000000000E+00 0. -1.
</event>
<event>
 7    1  0.1884848E-013  0.7246158E+02  0.7816164E-02  0.1226708E+00
        -11   -1    0    0    0    0  0.00000000000E+00  0.00000000000E+00  0.45593999997E+02  0.45594000000E+02  0.51100000000E-03 0. -1.
         11   -1    0    0    0    0 -0.00000000000E+00 -0.00000000000E+00 -0.45593999997E+02  0.45594000000E+02  0.51100000000E-03 0.  1.
    9900012    2    1    2    0    0 -0.18042401810E+02 -0.31733847527E+01 -0.38832998290E+01  0.72461584127E+02  0.70000018020E+02 0.  0.
        -12    1    1    2    0    0  0.18042401810E+02  0.31733847527E+01  0.38832998290E+01  0.18726415873E+02  0.00000000000E+00 0.  1.
         11    1    3    3    0    0  0.45757296884E+01 -0.42255809697E+00 -0.30760477737E+02  0.31101814230E+02  0.51100000000E-03 0. -1.
        -11    1    3    3    0    0 -0.23855276655E+02  0.21260995831E+01  0.14495587508E+02  0.27994938492E+02  0.51100000000E-03 0.  1.
         12    1    3    3    0    0  0.12371451560E+01 -0.48769262389E+01  0.12381590399E+02  0.13364831406E+02  0.00000000000E+00 0. -1.
</event>
<event>
 7    1  0.1884848E-013  0.7246160E+02  0.7816164E-02  0.1226708E+00
        -11   -1    0    0    0    0  0.00000000000E+00  0.00000000000E+00  0.45593999997E+02  0.45594000000E+02  0.51100000000E-03 0. -1.
         11   -1    0    0    0    0 -0.00000000000E+00 -0.00000000000E+00 -0.45593999997E+02  0.45594000000E+02  0.51100000000E-03 0.  1.
    9900012    2    1    2    0    0  0.63130066613E+01  0.13708041417E+02  0.11086649017E+02  0.72461595139E+02  0.70000032365E+02 0.  0.
        -12    1    1    2    0    0 -0.63130066613E+01 -0.13708041417E+02 -0.11086649017E+02  0.18726404861E+02  0.00000000000E+00 0.  1.
         11    1    3    3    0    0 -0.14853950335E+02  0.27361594455E+02  0.17362884130E+02  0.35647811115E+02  0.51100000000E-03 0. -1.
        -11    1    3    3    0    0 -0.29523729904E+00 -0.14648700974E+02 -0.97440441865E+00  0.14684041321E+02  0.51100000000E-03 0.  1.
        -12    1    3    3    0    0  0.21462194295E+02  0.99514793567E+00 -0.53018306945E+01  0.22129742703E+02  0.00000000000E+00 0.  1.
</event>
<event>
 7    1  0.1884848E-013  0.7246148E+02  0.7816164E-02  0.1226708E+00
        -11   -1    0    0    0    0  0.00000000000E+00  0.00000000000E+00  0.45593999997E+02  0.45594000000E+02  0.51100000000E-03 0. -1.
         11   -1    0    0    0    0 -0.00000000000E+00 -0.00000000000E+00 -0.45593999997E+02  0.45594000000E+02  0.51100000000E-03 0.  1.
    9900012    2    1    2    0    0 -0.17499027888E+02 -0.42939288929E+01  0.51018462226E+01  0.72461477706E+02  0.69999879386E+02 0.  0.
        -12    1    1    2    0    0  0.17499027888E+02  0.42939288929E+01 -0.51018462226E+01  0.18726522294E+02  0.00000000000E+00 0.  1.
         11    1    3    3    0    0  0.78214088251E+01  0.12104864268E+02  0.26270219339E+02  0.29963754760E+02  0.51100000000E-03 0. -1.
        -11    1    3    3    0    0 -0.14215750169E+02 -0.19479689090E+02 -0.90041915187E+01  0.25741431682E+02  0.51100000000E-03 0.  1.
         12    1    3    3    0    0 -0.11104686544E+02  0.30808959286E+01 -0.12164181597E+02  0.16756291263E+02  0.00000000000E+00 0. -1.
</event>
<event>
 7    1  0.1884848E-013  0.7246157E+02  0.7816164E-02  0.1226708E+00
        -11   -1    0    0    0    0  0.00000000000E+00  0.00000000000E+00  0.45593999997E+02  0.45594000000E+02  0.51100000000E-03 0.  1.
         11   -1    0    0    0    0 -0.00000000000E+00 -0.00000000000E+00 -0.45593999997E+02  0.45594000000E+02  0.51100000000E-03 0. -1.
    9900012    2    1    2    0    0  0.15604435214E+02 -0.91508575274E+01  0.48417431653E+01  0.72461572986E+02  0.70000003507E+02 0.  0.
        -12    1    1    2    0    0 -0.15604435214E+02  0.91508575274E+01 -0.48417431653E+01  0.18726427014E+02  0.00000000000E+00 0.  1.
         11    1    3    3    0    0  0.16892171432E+02 -0.54607417982E+01 -0.20469450409E+02  0.27095452700E+02  0.51100000000E-03 0. -1.
        -11    1    3    3    0    0 -0.68511658501E+01 -0.19074147182E+02  0.19155556150E+02  0.27887217429E+02  0.51100000000E-03 0.  1.
        -12    1    3    3    0    0  0.55634296317E+01  0.15384031453E+02  0.61556374250E+01  0.17478902858E+02  0.00000000000E+00 0.  1.
</event>
<event>
 7    1  0.1884848E-013  0.7246164E+02  0.7816164E-02  0.1226708E+00
        -11   -1    0    0    0    0  0.00000000000E+00  0.00000000000E+00  0.45593999997E+02  0.45594000000E+02  0.51100000000E-03 0. -1.
         11   -1    0    0    0    0 -0.00000000000E+00 -0.00000000000E+00 -0.45593999997E+02  0.45594000000E+02  0.51100000000E-03 0.  1.
    9900012    2    1    2    0    0  0.22829630908E+01 -0.13796426313E+02  0.12454843392E+02  0.72461643617E+02  0.70000095516E+02 0.  0.
        -12    1    1    2    0    0 -0.22829630908E+01  0.13796426313E+02 -0.12454843392E+02  0.18726356383E+02  0.00000000000E+00 0.  1.
         11    1    3    3    0    0 -0.29431872498E+02 -0.93659598980E+01  0.12795146261E+02  0.33431603187E+02  0.51100000000E-03 0. -1.
        -11    1    3    3    0    0  0.20828863631E+02  0.27911578144E+01  0.91119817946E+01  0.22905465168E+02  0.51100000000E-03 0.  1.
        -12    1    3    3    0    0  0.10885971959E+02 -0.72216242291E+01 -0.94522846638E+01  0.16124575261E+02  0.00000000000E+00 0.  1.
</event>
<event>
 7    1  0.1884848E-013  0.7246159E+02  0.7816164E-02  0.1226708E+00
        -11   -1    0    0    0    0  0.00000000000E+00  0.00000000000E+00  0.45593999997E+02  0.45594000000E+02  0.51100000000E-03 0.  1.
         11   -1    0    0    0    0 -0.00000000000E+00 -0.00000000000E+00 -0.45593999997E+02  0.45594000000E+02  0.51100000000E-03 0. -1.
    9900012    2    1    2    0    0 -0.12658274780E+02  0.29651943254E+01 -0.13477914848E+02  0.72461588533E+02  0.70000023759E+02 0.  0.
        -12    1    1    2    0    0  0.12658274780E+02 -0.29651943254E+01  0.13477914848E+02  0.18726411467E+02  0.00000000000E+00 0.  1.
         11    1    3    3    0    0  0.74233232336E+00  0.17490709687E+02  0.18566814116E+02  0.25518670994E+02  0.51100000000E-03 0. -1.
        -11    1    3    3    0    0 -0.10328903469E+02  0.61478750213E+01 -0.56679483778E+01  0.13289403795E+02  0.51100000000E-03 0.  1.
         12    1    3    3    0    0 -0.30717036345E+01 -0.20673390383E+02 -0.26376780586E+02  0.33653513743E+02  0.00000000000E+00 0. -1.
</event>
<event>
 7    1  0.1884848E-013  0.7246159E+02  0.7816164E-02  0.1226708E+00
        -11   -1    0    0    0    0  0.00000000000E+00  0.00000000000E+00  0.45593999997E+02  0.45594000000E+02  0.51100000000E-03 0.  1.
         11   -1    0    0    0    0 -0.00000000000E+00 -0.00000000000E+00 -0.45593999997E+02  0.45594000000E+02  0.51100000000E-03 0. -1.
    9900012    2    1    2    0    0 -0.90035227613E+01  0.40623837519E+01 -0.15909499153E+02  0.72461586911E+02  0.70000021647E+02 0.  0.
        -12    1    1    2    0    0  0.90035227613E+01 -0.40623837519E+01  0.15909499153E+02  0.18726413089E+02  0.00000000000E+00 0.  1.
         11    1    3    3    0    0  0.24902456564E+02 -0.17442032454E+00  0.43006507583E+01  0.25271690932E+02  0.51100000000E-03 0.  1.
        -11    1    3    3    0    0 -0.19521951112E+02  0.51727136201E+01  0.24395632520E+01  0.20342443573E+02  0.51100000000E-03 0. -1.
        -12    1    3    3    0    0 -0.14384028213E+02 -0.93590954361E+00 -0.22649713163E+02  0.26847452406E+02  0.00000000000E+00 0.  1.
</event>
<event>
 7    1  0.1884848E-013  0.7246164E+02  0.7816164E-02  0.1226708E+00
        -11   -1    0    0    0    0  0.00000000000E+00  0.00000000000E+00  0.45593999997E+02  0.45594000000E+02  0.51100000000E-03 0.  1.
         11   -1    0    0    0    0 -0.00000000000E+00 -0.00000000000E+00 -0.45593999997E+02  0.45594000000E+02  0.51100000000E-03 0. -1.
    9900012    2    1    2    0    0 -0.15679947373E+02 -0.74580979110E+01 -0.70137531808E+01  0.72461636024E+02  0.70000085625E+02 0.  0.
        -12    1    1    2    0    0  0.15679947373E+02  0.74580979110E+01  0.70137531808E+01  0.18726363976E+02  0.00000000000E+00 0.  1.
         11    1    3    3    0    0  0.18239144184E+02 -0.11656245048E+02 -0.91056373393E+01  0.23482909973E+02  0.51100000000E-03 0.  1.
        -11    1    3    3    0    0 -0.30397100859E+02  0.13550821036E+02 -0.85688009369E+01  0.34366158370E+02  0.51100000000E-03 0. -1.
         12    1    3    3    0    0 -0.35219906983E+01 -0.93526738989E+01  0.10660685095E+02  0.14612567681E+02  0.00000000000E+00 0. -1.
</event>
<event>
 7    1  0.1884848E-013  0.7246158E+02  0.7816164E-02  0.1226708E+00
        -11   -1    0    0    0    0  0.00000000000E+00  0.00000000000E+00  0.45593999997E+02  0.45594000000E+02  0.51100000000E-03 0. -1.
         11   -1    0    0    0    0 -0.00000000000E+00 -0.00000000000E+00 -0.45593999997E+02  0.45594000000E+02  0.51100000000E-03 0.  1.
    9900012    2    1    2    0    0  0.16999819810E+02 -0.46757119239E+01  0.63105136750E+01  0.72461581805E+02  0.70000014995E+02 0.  0.
        -12    1    1    2    0    0 -0.16999819810E+02  0.46757119239E+01 -0.63105136750E+01  0.18726418195E+02  0.00000000000E+00 0.  1.
         11    1    3    3    0    0  0.18174269019E+01 -0.26601884103E+01  0.94040132977E+01  0.99405789211E+01  0.51100000000E-03 0. -1.
        -11    1    3    3    0    0 -0.36386362999E+01  0.66295269089E+01 -0.28646783908E+02  0.29628171218E+02  0.51100000000E-03 0.  1.
        -12    1    3    3    0    0  0.18821029208E+02 -0.86450504224E+01  0.25553284285E+02  0.32892831666E+02  0.00000000000E+00 0.  1.
</event>
<event>
 7    1  0.1884848E-013  0.7246157E+02  0.7816164E-02  0.1226708E+00
        -11   -1    0    0    0    0  0.00000000000E+00  0.00000000000E+00  0.45593999997E+02  0.45594000000E+02  0.51100000000E-03 0. -1.
         11   -1    0    0    0    0 -0.00000000000E+00 -0.00000000000E+00 -0.45593999997E+02  0.45594000000E+02  0.51100000000E-03 0.  1.
    9900012    2    1    2    0    0  0.10449488698E+01 -0.88834568830E+01  0.16452100314E+02  0.72461566034E+02  0.69999994450E+02 0.  0.
        -12    1    1    2    0    0 -0.10449488698E+01  0.88834568830E+01 -0.16452100314E+02  0.18726433966E+02  0.00000000000E+00 0.  1.
         11    1    3    3    0    0 -0.22767200312E+02  0.17692391652E+02  0.77772112652E+01  0.29863876971E+02  0.51100000000E-03 0. -1.
        -11    1    3    3    0    0  0.15838441494E+02 -0.28981407001E+02  0.91015933727E+01  0.34258096603E+02  0.51100000000E-03 0.  1.
         12    1    3    3    0    0  0.79737076876E+01  0.24055584662E+01 -0.42670432389E+00  0.83395924602E+01  0.00000000000E+00 0. -1.
</event>
<event>
 7    1  0.1884848E-013  0.7246134E+02  0.7816164E-02  0.1226709E+00
        -11   -1    0    0    0    0  0.00000000000E+00  0.00000000000E+00  0.45593999997E+02  0.45594000000E+02  0.51100000000E-03 0. -1.
         11   -1    0    0    0    0 -0.00000000000E+00 -0.00000000000E+00 -0.45593999997E+02  0.45594000000E+02  0.51100000000E-03 0.  1.
    9900012    2    1    2    0    0  0.92953174142E+01  0.35796051516E+00  0.16252896459E+02  0.72461342400E+02  0.69999703125E+02 0.  0.
        -12    1    1    2    0    0 -0.92953174142E+01 -0.35796051516E+00 -0.16252896459E+02  0.18726657600E+02  0.00000000000E+00 0.  1.
         11    1    3    3    0    0  0.22987604657E+02  0.82465242503E+01  0.23533032626E+02  0.33915169982E+02  0.51100000000E-03 0. -1.
        -11    1    3    3    0    0 -0.68250138258E+01  0.82466210093E+01 -0.15772695569E+02  0.19062148294E+02  0.51100000000E-03 0.  1.
         12    1    3    3    0    0 -0.68672734166E+01 -0.16135184744E+02  0.84925594016E+01  0.19484024125E+02  0.00000000000E+00 0. -1.
</event>
<event>
 7    1  0.1884848E-013  0.7246154E+02  0.7816164E-02  0.1226708E+00
        -11   -1    0    0    0    0  0.00000000000E+00  0.00000000000E+00  0.45593999997E+02  0.45594000000E+02  0.51100000000E-03 0.  1.
         11   -1    0    0    0    0 -0.00000000000E+00 -0.00000000000E+00 -0.45593999997E+02  0.45594000000E+02  0.51100000000E-03 0. -1.
    9900012    2    1    2    0    0  0.99432937723E+01  0.18953140547E+01 -0.15754964743E+02  0.72461542234E+02  0.69999963446E+02 0.  0.
        -12    1    1    2    0    0 -0.99432937723E+01 -0.18953140547E+01  0.15754964743E+02  0.18726457766E+02  0.00000000000E+00 0.  1.
         11    1    3    3    0    0  0.83838640056E+01  0.13867548404E+02 -0.30009002437E+02  0.34104813472E+02  0.51100000000E-03 0. -1.
        -11    1    3    3    0    0  0.14670298426E+01 -0.23591336587E+02  0.12045687959E+02  0.26529265674E+02  0.51100000000E-03 0.  1.
         12    1    3    3    0    0  0.92399924089E-01  0.11619102237E+02  0.22083497346E+01  0.11827463088E+02  0.00000000000E+00 0. -1.
</event>
<event>
 7    1  0.1884848E-013  0.7246162E+02  0.7816164E-02  0.1226708E+00
        -11   -1    0    0    0    0  0.00000000000E+00  0.00000000000E+00  0.45593999997E+02  0.45594000000E+02  0.51100000000E-03 0.  1.
         11   -1    0    0    0    0 -0.00000000000E+00 -0.00000000000E+00 -0.45593999997E+02  0.45594000000E+02  0.51100000000E-03 0. -1.
    9900012    2    1    2    0    0 -0.13535587899E+02 -0.24502076329E+01 -0.12706762783E+02  0.72461615468E+02  0.70000058847E+02 0.  0.
        -12    1    1    2    0    0  0.13535587899E+02  0.24502076329E+01  0.12706762783E+02  0.18726384532E+02  0.00000000000E+00 0.  1.
         11    1    3    3    0    0  0.13264440150E+02 -0.24620771821E+00 -0.10283582571E+02  0.16785650464E+02  0.51100000000E-03 0. -1.
        -11    1    3    3    0    0 -0.28905559630E+02 -0.19570087012E+02 -0.10437373905E+02  0.36434303307E+02  0.51100000000E-03 0.  1.
        -12    1    3    3    0    0  0.21055315813E+01  0.17366087098E+02  0.80141936930E+01  0.19241661697E+02  0.00000000000E+00 0.  1.
</event>
<event>
 7    1  0.1884848E-013  0.7246164E+02  0.7816164E-02  0.1226708E+00
        -11   -1    0    0    0    0  0.00000000000E+00  0.00000000000E+00  0.45593999997E+02  0.45594000000E+02  0.51100000000E-03 0.  1.
         11   -1    0    0    0    0 -0.00000000000E+00 -0.00000000000E+00 -0.45593999997E+02  0.45594000000E+02  0.51100000000E-03 0. -1.
    9900012    2    1    2    0    0 -0.10854296425E+02  0.13390976000E+02 -0.73172689173E+01  0.72461643880E+02  0.70000095859E+02 0.  0.
        -12    1    1    2    0    0  0.10854296425E+02 -0.13390976000E+02  0.73172689173E+01  0.18726356120E+02  0.00000000000E+00 0.  1.
         11    1    3    3    0    0 -0.34939504161E+02  0.18369938152E+02 -0.12867042231E+02  0.41518482087E+02  0.51100000000E-03 0. -1.
        -11    1    3    3    0    0 -0.14009025784E+00 -0.55245683088E+01 -0.14641800670E+01  0.57170187868E+01  0.51100000000E-03 0.  1.
         12    1    3    3    0    0  0.24225297994E+02  0.54560615590E+00  0.70139533806E+01  0.25226143007E+02  0.00000000000E+00 0. -1.
</event>
<event>
 7    1  0.1884848E-013  0.7246161E+02  0.7816164E-02  0.1226708E+00
        -11   -1    0    0    0    0  0.00000000000E+00  0.00000000000E+00  0.45593999997E+02  0.45594000000E+02  0.51100000000E-03 0.  1.
         11   -1    0    0    0    0 -0.00000000000E+00 -0.00000000000E+00 -0.45593999997E+02  0.45594000000E+02  0.51100000000E-03 0. -1.
    9900012    2    1    2    0    0  0.11526381859E+02  0.14713374528E+02  0.11562554138E+01  0.72461606985E+02  0.70000047797E+02 0.  0.
        -12    1    1    2    0    0 -0.11526381859E+02 -0.14713374528E+02 -0.11562554138E+01  0.18726393015E+02  0.00000000000E+00 0.  1.
         11    1    3    3    0    0  0.22328409373E+02  0.11517508110E+02 -0.74024388730E+01  0.26191734569E+02  0.51100000000E-03 0. -1.
        -11    1    3    3    0    0 -0.22628442861E+02 -0.12473055439E+02  0.50745515400E+01  0.26332007365E+02  0.51100000000E-03 0.  1.
        -12    1    3    3    0    0  0.11826415347E+02  0.15668921856E+02  0.34841427468E+01  0.19937865051E+02  0.00000000000E+00 0.  1.
</event>
<event>
 7    1  0.1884848E-013  0.7246157E+02  0.7816164E-02  0.1226708E+00
        -11   -1    0    0    0    0  0.00000000000E+00  0.00000000000E+00  0.45593999997E+02  0.45594000000E+02  0.51100000000E-03 0. -1.
         11   -1    0    0    0    0 -0.00000000000E+00 -0.00000000000E+00 -0.45593999997E+02  0.45594000000E+02  0.51100000000E-03 0.  1.
    9900012    2    1    2    0    0  0.12461966848E+02 -0.11589408784E+01  0.13929661426E+02  0.72461568703E+02  0.69999997927E+02 0.  0.
        -12    1    1    2    0    0 -0.12461966848E+02  0.11589408784E+01 -0.13929661426E+02  0.18726431297E+02  0.00000000000E+00 0.  1.
         11    1    3    3    0    0 -0.89108729184E+01 -0.17581113056E+02 -0.44052186756E+01  0.20196661712E+02  0.51100000000E-03 0. -1.
        -11    1    3    3    0    0 -0.74811446664E+01  0.15096779458E+02 -0.19616024922E+01  0.16962551699E+02  0.51100000000E-03 0.  1.
         12    1    3    3    0    0  0.28853984433E+02  0.13253927191E+01  0.20296482594E+02  0.35302355292E+02  0.00000000000E+00 0. -1.
</event>
<event>
 7    1  0.1884848E-013  0.7246157E+02  0.7816164E-02  0.1226708E+00
        -11   -1    0    0    0    0  0.00000000000E+00  0.00000000000E+00  0.45593999997E+02  0.45594000000E+02  0.51100000000E-03 0.  1.
         11   -1    0    0    0    0 -0.00000000000E+00 -0.00000000000E+00 -0.45593999997E+02  0.45594000000E+02  0.51100000000E-03 0. -1.
    9900012    2    1    2    0    0 -0.18304334757E+02 -0.38756291422E+01 -0.78097855252E+00  0.72461572160E+02  0.70000002431E+02 0.  0.
        -12    1    1    2    0    0  0.18304334757E+02  0.38756291422E+01  0.78097855252E+00  0.18726427840E+02  0.00000000000E+00 0.  1.
         11    1    3    3    0    0 -0.36405295581E+02  0.88650147689E+00 -0.75685880197E+01  0.37194286605E+02  0.51100000000E-03 0. -1.
        -11    1    3    3    0    0  0.65093365986E+01 -0.13151729387E+02  0.13059401958E+02  0.19644017629E+02  0.51100000000E-03 0.  1.
        -12    1    3    3    0    0  0.11591624225E+02  0.83895987677E+01 -0.62717924913E+01  0.15623267927E+02  0.00000000000E+00 0.  1.
</event>
<event>
 8    1  0.1884848E-013  0.7246169E+02  0.7816164E-02  0.1226708E+00
        -11   -1    0    0    0    0  0.00000000000E+00  0.00000000000E+00  0.45593999997E+02  0.45594000000E+02  0.51100000000E-03 0.  1.
         11   -1    0    0    0    0 -0.00000000000E+00 -0.00000000000E+00 -0.45593999997E+02  0.45594000000E+02  0.51100000000E-03 0. -1.
    9900012    2    1    2    0    0  0.13770132837E+02  0.33880779850E+01 -0.12230254387E+02  0.72461688212E+02  0.70000153610E+02 0.  0.
         24    2    3    3    0    0  0.16457604253E+02  0.87325088827E+01 -0.78826733478E+00  0.59550278057E+02  0.56555325144E+02 0.  0.
        -12    1    1    2    0    0 -0.13770132837E+02 -0.33880779850E+01  0.12230254387E+02  0.18726311788E+02  0.00000000000E+00 0.  1.
         11    1    3    3    0    0 -0.26874714160E+01 -0.53444308977E+01 -0.11441987053E+02  0.12911410156E+02  0.51100000000E-03 0. -1.
        -11    1    4    4    0    0  0.28940102807E+02 -0.98451867817E+01  0.13047903361E+02  0.33237103298E+02  0.51100000000E-03 0.  1.
         12    1    4    4    0    0 -0.12482498554E+02  0.18577695664E+02 -0.13836170696E+02  0.26313174759E+02  0.00000000000E+00 0. -1.
</event>
<event>
 7    1  0.1884848E-013  0.7246154E+02  0.7816164E-02  0.1226708E+00
        -11   -1    0    0    0    0  0.00000000000E+00  0.00000000000E+00  0.45593999997E+02  0.45594000000E+02  0.51100000000E-03 0. -1.
         11   -1    0    0    0    0 -0.00000000000E+00 -0.00000000000E+00 -0.45593999997E+02  0.45594000000E+02  0.51100000000E-03 0.  1.
    9900012    2    1    2    0    0  0.16632273959E+02 -0.81691099573E+01  0.27043215108E+01  0.72461541462E+02  0.69999962440E+02 0.  0.
        -12    1    1    2    0    0 -0.16632273959E+02  0.81691099573E+01 -0.27043215108E+01  0.18726458538E+02  0.00000000000E+00 0.  1.
         11    1    3    3    0    0 -0.58749612867E+01  0.10451920850E+02 -0.15771841502E+02  0.19811834953E+02  0.51100000000E-03 0. -1.
        -11    1    3    3    0    0  0.33430934297E+02 -0.10424912999E+02  0.94210826680E+01  0.36263797069E+02  0.51100000000E-03 0.  1.
         12    1    3    3    0    0 -0.10923699051E+02 -0.81961178086E+01  0.90550803452E+01  0.16385909439E+02  0.00000000000E+00 0. -1.
</event>
<event>
 7    1  0.1884848E-013  0.7246160E+02  0.7816164E-02  0.1226708E+00
        -11   -1    0    0    0    0  0.00000000000E+00  0.00000000000E+00  0.45593999997E+02  0.45594000000E+02  0.51100000000E-03 0. -1.
         11   -1    0    0    0    0 -0.00000000000E+00 -0.00000000000E+00 -0.45593999997E+02  0.45594000000E+02  0.51100000000E-03 0.  1.
    9900012    2    1    2    0    0 -0.26065935836E+01 -0.18214679602E+02  0.34798241579E+01  0.72461599938E+02  0.70000038616E+02 0.  0.
        -12    1    1    2    0    0  0.26065935836E+01  0.18214679602E+02 -0.34798241579E+01  0.18726400062E+02  0.00000000000E+00 0.  1.
         11    1    3    3    0    0 -0.27465001868E+02 -0.14231351091E+02 -0.18725309599E+02  0.36159298961E+02  0.51100000000E-03 0. -1.
        -11    1    3    3    0    0  0.43073261310E+01 -0.23503484236E+01 -0.12612433413E+01  0.50663528438E+01  0.51100000000E-03 0.  1.
         12    1    3    3    0    0  0.20551082154E+02 -0.16329800883E+01  0.23466377098E+02  0.31235948133E+02  0.00000000000E+00 0. -1.
</event>
<event>
 7    1  0.1884848E-013  0.7246158E+02  0.7816164E-02  0.1226708E+00
        -11   -1    0    0    0    0  0.00000000000E+00  0.00000000000E+00  0.45593999997E+02  0.45594000000E+02  0.51100000000E-03 0.  1.
         11   -1    0    0    0    0 -0.00000000000E+00 -0.00000000000E+00 -0.45593999997E+02  0.45594000000E+02  0.51100000000E-03 0. -1.
    9900012    2    1    2    0    0  0.72062322525E+01  0.99962161873E+01 -0.14100517062E+02  0.72461582757E+02  0.70000016235E+02 0.  0.
        -12    1    1    2    0    0 -0.72062322525E+01 -0.99962161873E+01  0.14100517062E+02  0.18726417243E+02  0.00000000000E+00 0.  1.
         11    1    3    3    0    0 -0.25825597008E+02  0.80775023648E+00 -0.14800353193E+02  0.29776910118E+02  0.51100000000E-03 0. -1.
        -11    1    3    3    0    0  0.12699445136E+02  0.15046096693E+02  0.65180953084E+01  0.20739973461E+02  0.51100000000E-03 0.  1.
         12    1    3    3    0    0  0.20332384125E+02 -0.58576307424E+01 -0.58182591782E+01  0.21944699178E+02  0.00000000000E+00 0. -1.
</event>
<event>
 7    1  0.1884848E-013  0.7246157E+02  0.7816164E-02  0.1226708E+00
        -11   -1    0    0    0    0  0.00000000000E+00  0.00000000000E+00  0.45593999997E+02  0.45594000000E+02  0.51100000000E-03 0.  1.
         11   -1    0    0    0    0 -0.00000000000E+00 -0.00000000000E+00 -0.45593999997E+02  0.45594000000E+02  0.51100000000E-03 0. -1.
    9900012    2    1    2    0    0  0.14530547040E+02  0.12451892046E+01 -0.11747000869E+02  0.72461566201E+02  0.69999994667E+02 0.  0.
        -12    1    1    2    0    0 -0.14530547040E+02 -0.12451892046E+01  0.11747000869E+02  0.18726433799E+02  0.00000000000E+00 0.  1.
         11    1    3    3    0    0  0.17873711600E+02  0.87576658231E+01 -0.71894839956E+01  0.21162583902E+02  0.51100000000E-03 0. -1.
        -11    1    3    3    0    0 -0.22788639113E+02 -0.84730428632E+01  0.10700338339E+02  0.26563353870E+02  0.51100000000E-03 0.  1.
        -12    1    3    3    0    0  0.19445474554E+02  0.96056624466E+00 -0.15257855212E+02  0.24735628429E+02  0.00000000000E+00 0.  1.
</event>
<event>
 7    1  0.1884848E-013  0.7246161E+02  0.7816164E-02  0.1226708E+00
        -11   -1    0    0    0    0  0.00000000000E+00  0.00000000000E+00  0.45593999997E+02  0.45594000000E+02  0.51100000000E-03 0. -1.
         11   -1    0    0    0    0 -0.00000000000E+00 -0.00000000000E+00 -0.45593999997E+02  0.45594000000E+02  0.51100000000E-03 0.  1.
    9900012    2    1    2    0    0  0.18315782519E+02  0.36427804488E+01 -0.13928178136E+01  0.72461610062E+02  0.70000051804E+02 0.  0.
        -12    1    1    2    0    0 -0.18315782519E+02 -0.36427804488E+01  0.13928178136E+01  0.18726389938E+02  0.00000000000E+00 0.  1.
         11    1    3    3    0    0  0.38591070612E+02  0.15423456399E+02 -0.13220651487E+02  0.43611229796E+02  0.51100000000E-03 0. -1.
        -11    1    3    3    0    0 -0.82090587027E+01  0.13190890188E+00  0.80094138079E+01  0.11469819290E+02  0.51100000000E-03 0.  1.
         12    1    3    3    0    0 -0.12066229391E+02 -0.11912584852E+02  0.38184198656E+01  0.17380560976E+02  0.00000000000E+00 0. -1.
</event>
<event>
 7    1  0.1884848E-013  0.7246159E+02  0.7816164E-02  0.1226708E+00
        -11   -1    0    0    0    0  0.00000000000E+00  0.00000000000E+00  0.45593999997E+02  0.45594000000E+02  0.51100000000E-03 0.  1.
         11   -1    0    0    0    0 -0.00000000000E+00 -0.00000000000E+00 -0.45593999997E+02  0.45594000000E+02  0.51100000000E-03 0. -1.
    9900012    2    1    2    0    0 -0.11241977467E+02 -0.14788330509E+02 -0.23667820119E+01  0.72461589941E+02  0.70000025594E+02 0.  0.
        -12    1    1    2    0    0  0.11241977467E+02  0.14788330509E+02  0.23667820119E+01  0.18726410059E+02  0.00000000000E+00 0.  1.
         11    1    3    3    0    0  0.63167521295E+00  0.23775943405E+01 -0.20727968282E+02  0.20873443362E+02  0.51100000000E-03 0. -1.
        -11    1    3    3    0    0 -0.25049407634E+02 -0.11173624183E+02  0.23610922590E+02  0.36191136567E+02  0.51100000000E-03 0.  1.
        -12    1    3    3    0    0  0.13175754955E+02 -0.59923006658E+01 -0.52497363201E+01  0.15397010012E+02  0.00000000000E+00 0.  1.
</event>
<event>
 7    1  0.1884848E-013  0.7246167E+02  0.7816164E-02  0.1226708E+00
        -11   -1    0    0    0    0  0.00000000000E+00  0.00000000000E+00  0.45593999997E+02  0.45594000000E+02  0.51100000000E-03 0.  1.
         11   -1    0    0    0    0 -0.00000000000E+00 -0.00000000000E+00 -0.45593999997E+02  0.45594000000E+02  0.51100000000E-03 0. -1.
    9900012    2    1    2    0    0  0.31185877560E+01  0.13313974083E+02 -0.12794060992E+02  0.72461668481E+02  0.70000127906E+02 0.  0.
        -12    1    1    2    0    0 -0.31185877560E+01 -0.13313974083E+02  0.12794060992E+02  0.18726331519E+02  0.00000000000E+00 0.  1.
         11    1    3    3    0    0  0.13330944507E+02  0.16665146031E+01 -0.26376487233E+02  0.29600851869E+02  0.51100000000E-03 0. -1.
        -11    1    3    3    0    0 -0.14792847303E+02  0.18036666356E+01  0.23715826902E+02  0.28009319710E+02  0.51100000000E-03 0.  1.
         12    1    3    3    0    0  0.45804905524E+01  0.98437928446E+01 -0.10133400662E+02  0.14851496902E+02  0.00000000000E+00 0. -1.
</event>
<event>
 7    1  0.1884848E-013  0.7246153E+02  0.7816164E-02  0.1226708E+00
        -11   -1    0    0    0    0  0.00000000000E+00  0.00000000000E+00  0.45593999997E+02  0.45594000000E+02  0.51100000000E-03 0.  1.
         11   -1    0    0    0    0 -0.00000000000E+00 -0.00000000000E+00 -0.45593999997E+02  0.45594000000E+02  0.51100000000E-03 0. -1.
    9900012    2    1    2    0    0  0.26529422425E+01 -0.12301579361E+02 -0.13867717539E+02  0.72461533514E+02  0.69999952087E+02 0.  0.
        -12    1    1    2    0    0 -0.26529422425E+01  0.12301579361E+02  0.13867717539E+02  0.18726466486E+02  0.00000000000E+00 0.  1.
         11    1    3    3    0    0  0.39383022091E+01 -0.68937722913E+01 -0.80902631429E+01  0.11335196455E+02  0.51100000000E-03 0. -1.
        -11    1    3    3    0    0 -0.25287946584E+02  0.98618505450E+01  0.95971283507E+01  0.28789602489E+02  0.51100000000E-03 0.  1.
        -12    1    3    3    0    0  0.24002586618E+02 -0.15269657615E+02 -0.15374582746E+02  0.32336734570E+02  0.00000000000E+00 0.  1.
</event>
<event>
 7    1  0.1884848E-013  0.7246156E+02  0.7816164E-02  0.1226708E+00
        -11   -1    0    0    0    0  0.00000000000E+00  0.00000000000E+00  0.45593999997E+02  0.45594000000E+02  0.51100000000E-03 0.  1.
         11   -1    0    0    0    0 -0.00000000000E+00 -0.00000000000E+00 -0.45593999997E+02  0.45594000000E+02  0.51100000000E-03 0. -1.
    9900012    2    1    2    0    0  0.11322882436E+02 -0.31058666239E+01 -0.14588544561E+02  0.72461555956E+02  0.69999981322E+02 0.  0.
        -12    1    1    2    0    0 -0.11322882436E+02  0.31058666239E+01  0.14588544561E+02  0.18726444044E+02  0.00000000000E+00 0.  1.
         11    1    3    3    0    0  0.10621647395E+02  0.53677449011E+01 -0.23292151754E+02  0.26156383777E+02  0.51100000000E-03 0. -1.
        -11    1    3    3    0    0 -0.68546670881E+01 -0.24592995012E+02 -0.18710893444E+01  0.25598883573E+02  0.51100000000E-03 0.  1.
        -12    1    3    3    0    0  0.75559021294E+01  0.16119383487E+02  0.10574696537E+02  0.20706288607E+02  0.00000000000E+00 0.  1.
</event>
<event>
 7    1  0.1884848E-013  0.7246156E+02  0.7816164E-02  0.1226708E+00
        -11   -1    0    0    0    0  0.00000000000E+00  0.00000000000E+00  0.45593999997E+02  0.45594000000E+02  0.51100000000E-03 0. -1.
         11   -1    0    0    0    0 -0.00000000000E+00 -0.00000000000E+00 -0.45593999997E+02  0.45594000000E+02  0.51100000000E-03 0.  1.
    9900012    2    1    2    0    0  0.16349323491E+02 -0.10690985773E+01 -0.90684163961E+01  0.72461560768E+02  0.69999987590E+02 0.  0.
        -12    1    1    2    0    0 -0.16349323491E+02  0.10690985773E+01  0.90684163961E+01  0.18726439232E+02  0.00000000000E+00 0.  1.
         11    1    3    3    0    0 -0.54995973917E+01 -0.34393066530E+01 -0.18302278509E+02  0.19417718729E+02  0.51100000000E-03 0.  1.
        -11    1    3    3    0    0  0.15063619403E+02  0.52003357532E+01  0.28372568444E+02  0.32541646575E+02  0.51100000000E-03 0. -1.
         12    1    3    3    0    0  0.67853014799E+01 -0.28301276775E+01 -0.19138706330E+02  0.20502195464E+02  0.00000000000E+00 0. -1.
</event>
<event>
 7    1  0.1884848E-013  0.7246158E+02  0.7816164E-02  0.1226708E+00
        -11   -1    0    0    0    0  0.00000000000E+00  0.00000000000E+00  0.45593999997E+02  0.45594000000E+02  0.51100000000E-03 0.  1.
         11   -1    0    0    0    0 -0.00000000000E+00 -0.00000000000E+00 -0.45593999997E+02  0.45594000000E+02  0.51100000000E-03 0. -1.
    9900012    2    1    2    0    0  0.94264355331E+01 -0.14679859686E+02 -0.68060889079E+01  0.72461579801E+02  0.70000012384E+02 0.  0.
        -12    1    1    2    0    0 -0.94264355331E+01  0.14679859686E+02  0.68060889079E+01  0.18726420199E+02  0.00000000000E+00 0.  1.
         11    1    3    3    0    0 -0.11258351303E+02 -0.20742045625E+01 -0.17156022905E+02  0.20624788988E+02  0.51100000000E-03 0. -1.
        -11    1    3    3    0    0  0.28107310958E+02  0.74780426909E+01  0.31877907635E+01  0.29259256006E+02  0.51100000000E-03 0.  1.
         12    1    3    3    0    0 -0.74225241225E+01 -0.20083697814E+02  0.71621432337E+01  0.22577534807E+02  0.00000000000E+00 0. -1.
</event>
<event>
 8    1  0.1884848E-013  0.7246152E+02  0.7816164E-02  0.1226708E+00
        -11   -1    0    0    0    0  0.00000000000E+00  0.00000000000E+00  0.45593999997E+02  0.45594000000E+02  0.51100000000E-03 0.  1.
         11   -1    0    0    0    0 -0.00000000000E+00 -0.00000000000E+00 -0.45593999997E+02  0.45594000000E+02  0.51100000000E-03 0. -1.
    9900012    2    1    2    0    0 -0.95342643950E+01 -0.13168740444E+02 -0.92931714069E+01  0.72461522562E+02  0.69999937820E+02 0.  0.
        -24    2    3    3    0    0 -0.12970925475E+02 -0.22987691630E+02 -0.13095308795E+02  0.61385481268E+02  0.53851753212E+02 0.  0.
        -12    1    1    2    0    0  0.95342643950E+01  0.13168740444E+02  0.92931714069E+01  0.18726477438E+02  0.00000000000E+00 0.  1.
         11    1    4    4    0    0 -0.28587603446E+01 -0.26791300937E+02 -0.30627333254E+02  0.40791909236E+02  0.51100000000E-03 0. -1.
        -11    1    3    3    0    0  0.34366610803E+01  0.98189511855E+01  0.38021373877E+01  0.11076041294E+02  0.51100000000E-03 0.  1.
        -12    1    4    4    0    0 -0.10112165131E+02  0.38036093076E+01  0.17532024459E+02  0.20593572032E+02  0.00000000000E+00 0.  1.
</event>
<event>
 7    1  0.1884848E-013  0.7246179E+02  0.7816164E-02  0.1226707E+00
        -11   -1    0    0    0    0  0.00000000000E+00  0.00000000000E+00  0.45593999997E+02  0.45594000000E+02  0.51100000000E-03 0. -1.
         11   -1    0    0    0    0 -0.00000000000E+00 -0.00000000000E+00 -0.45593999997E+02  0.45594000000E+02  0.51100000000E-03 0.  1.
    9900012    2    1    2    0    0  0.10729087839E+02  0.13836470897E+02 -0.66415077996E+01  0.72461791665E+02  0.70000288376E+02 0.  0.
        -12    1    1    2    0    0 -0.10729087839E+02 -0.13836470897E+02  0.66415077996E+01  0.18726208335E+02  0.00000000000E+00 0.  1.
         11    1    3    3    0    0 -0.22920952232E+01  0.68714037013E+01  0.57651467038E+01  0.92577970444E+01  0.51100000000E-03 0. -1.
        -11    1    3    3    0    0 -0.11646292000E+01 -0.26007312500E+02 -0.64250363722E+01  0.26814506471E+02  0.51100000000E-03 0.  1.
        -12    1    3    3    0    0  0.14185812262E+02  0.32972379696E+02 -0.59816181312E+01  0.36389488150E+02  0.00000000000E+00 0.  1.
</event>
<event>
 7    1  0.1884848E-013  0.7246152E+02  0.7816164E-02  0.1226708E+00
        -11   -1    0    0    0    0  0.00000000000E+00  0.00000000000E+00  0.45593999997E+02  0.45594000000E+02  0.51100000000E-03 0. -1.
         11   -1    0    0    0    0 -0.00000000000E+00 -0.00000000000E+00 -0.45593999997E+02  0.45594000000E+02  0.51100000000E-03 0.  1.
    9900012    2    1    2    0    0  0.10459251896E+02  0.97844824623E+01  0.12064363100E+02  0.72461523976E+02  0.69999939661E+02 0.  0.
        -12    1    1    2    0    0 -0.10459251896E+02 -0.97844824623E+01 -0.12064363100E+02  0.18726476024E+02  0.00000000000E+00 0.  1.
         11    1    3    3    0    0 -0.12599343959E+01  0.24331466976E+02  0.29521174585E+02  0.38276722287E+02  0.51100000000E-03 0. -1.
        -11    1    3    3    0    0  0.40121640069E+00 -0.95973337780E+01 -0.19430473603E+02  0.21675172317E+02  0.51100000000E-03 0.  1.
        -12    1    3    3    0    0  0.11317969892E+02 -0.49496507354E+01  0.19736621182E+01  0.12509629372E+02  0.00000000000E+00 0.  1.
</event>
<event>
 7    1  0.1884848E-013  0.7246157E+02  0.7816164E-02  0.1226708E+00
        -11   -1    0    0    0    0  0.00000000000E+00  0.00000000000E+00  0.45593999997E+02  0.45594000000E+02  0.51100000000E-03 0. -1.
         11   -1    0    0    0    0 -0.00000000000E+00 -0.00000000000E+00 -0.45593999997E+02  0.45594000000E+02  0.51100000000E-03 0.  1.
    9900012    2    1    2    0    0  0.12778866402E+02  0.40573885260E+01  0.13073540134E+02  0.72461567349E+02  0.69999996164E+02 0.  0.
        -12    1    1    2    0    0 -0.12778866402E+02 -0.40573885260E+01 -0.13073540134E+02  0.18726432651E+02  0.00000000000E+00 0.  1.
         11    1    3    3    0    0 -0.12379435728E+02 -0.10037365485E+01 -0.10037707117E+02  0.15969141506E+02  0.51100000000E-03 0.  1.
        -11    1    3    3    0    0  0.13473259946E+02 -0.11786074249E+02  0.29939104991E+02  0.34882521235E+02  0.51100000000E-03 0. -1.
        -12    1    3    3    0    0  0.11685042185E+02  0.16847199323E+02 -0.68278577399E+01  0.21609904609E+02  0.00000000000E+00 0.  1.
</event>
<event>
 7    1  0.1884848E-013  0.7246145E+02  0.7816164E-02  0.1226708E+00
        -11   -1    0    0    0    0  0.00000000000E+00  0.00000000000E+00  0.45593999997E+02  0.45594000000E+02  0.51100000000E-03 0.  1.
         11   -1    0    0    0    0 -0.00000000000E+00 -0.00000000000E+00 -0.45593999997E+02  0.45594000000E+02  0.51100000000E-03 0. -1.
    9900012    2    1    2    0    0  0.10891311088E+02  0.46372280070E+01 -0.14510655604E+02  0.72461450214E+02  0.69999843573E+02 0.  0.
        -12    1    1    2    0    0 -0.10891311088E+02 -0.46372280070E+01  0.14510655604E+02  0.18726549786E+02  0.00000000000E+00 0.  1.
         11    1    3    3    0    0  0.49712876324E+00 -0.22572134532E+02 -0.86596389559E+01  0.24181351108E+02  0.51100000000E-03 0. -1.
        -11    1    3    3    0    0 -0.38478661693E+01  0.32481794181E+02 -0.47717158264E+01  0.33055140288E+02  0.51100000000E-03 0.  1.
         12    1    3    3    0    0  0.14242048494E+02 -0.52724316424E+01 -0.10793008219E+01  0.15224958818E+02  0.00000000000E+00 0. -1.
</event>
<event>
 7    1  0.1884848E-013  0.7246160E+02  0.7816164E-02  0.1226708E+00
        -11   -1    0    0    0    0  0.00000000000E+00  0.00000000000E+00  0.45593999997E+02  0.45594000000E+02  0.51100000000E-03 0.  1.
         11   -1    0    0    0    0 -0.00000000000E+00 -0.00000000000E+00 -0.45593999997E+02  0.45594000000E+02  0.51100000000E-03 0. -1.
    9900012    2    1    2    0    0 -0.10011191824E+02  0.44009532944E+00 -0.15819622231E+02  0.72461599033E+02  0.70000037438E+02 0.  0.
        -12    1    1    2    0    0  0.10011191824E+02 -0.44009532944E+00  0.15819622231E+02  0.18726400967E+02  0.00000000000E+00 0.  1.
         11    1    3    3    0    0  0.61437148479E+01 -0.33876062978E+01 -0.37273177883E+02  0.37927706209E+02  0.51100000000E-03 0. -1.
        -11    1    3    3    0    0 -0.13771827396E+02 -0.34597273269E+01  0.29475204158E+01  0.14502441859E+02  0.51100000000E-03 0.  1.
         12    1    3    3    0    0 -0.23830792755E+01  0.72874289541E+01  0.18506035236E+02  0.20031450965E+02  0.00000000000E+00 0. -1.
</event>
<event>
 7    1  0.1884848E-013  0.7246165E+02  0.7816164E-02  0.1226708E+00
        -11   -1    0    0    0    0  0.00000000000E+00  0.00000000000E+00  0.45593999997E+02  0.45594000000E+02  0.51100000000E-03 0.  1.
         11   -1    0    0    0    0 -0.00000000000E+00 -0.00000000000E+00 -0.45593999997E+02  0.45594000000E+02  0.51100000000E-03 0. -1.
    9900012    2    1    2    0    0  0.21582824147E+01 -0.80560099343E+01 -0.16766592425E+02  0.72461652236E+02  0.70000106744E+02 0.  0.
        -12    1    1    2    0    0 -0.21582824147E+01  0.80560099343E+01  0.16766592425E+02  0.18726347764E+02  0.00000000000E+00 0.  1.
         11    1    3    3    0    0  0.18222709815E+02  0.13106946914E+02 -0.81981813085E+01  0.23897058133E+02  0.51100000000E-03 0. -1.
        -11    1    3    3    0    0 -0.26205275663E+01 -0.76246729499E+01  0.15726892053E+02  0.17673085079E+02  0.51100000000E-03 0.  1.
         12    1    3    3    0    0 -0.13443899834E+02 -0.13538283898E+02 -0.24295303169E+02  0.30891509023E+02  0.00000000000E+00 0. -1.
</event>
<event>
 7    1  0.1884848E-013  0.7246165E+02  0.7816164E-02  0.1226708E+00
        -11   -1    0    0    0    0  0.00000000000E+00  0.00000000000E+00  0.45593999997E+02  0.45594000000E+02  0.51100000000E-03 0.  1.
         11   -1    0    0    0    0 -0.00000000000E+00 -0.00000000000E+00 -0.45593999997E+02  0.45594000000E+02  0.51100000000E-03 0. -1.
    9900012    2    1    2    0    0  0.14815873616E+02  0.10429729030E+02  0.47314712193E+01  0.72461650154E+02  0.70000104033E+02 0.  0.
        -12    1    1    2    0    0 -0.14815873616E+02 -0.10429729030E+02 -0.47314712193E+01  0.18726349846E+02  0.00000000000E+00 0.  1.
         11    1    3    3    0    0 -0.26821830817E+02  0.17088351856E+01 -0.78181784419E+01  0.27990259743E+02  0.51100000000E-03 0. -1.
        -11    1    3    3    0    0  0.23355376436E+02  0.64982327659E+01  0.68134056518E+01  0.25181801651E+02  0.51100000000E-03 0.  1.
         12    1    3    3    0    0  0.18282327997E+02  0.22226610784E+01  0.57362440094E+01  0.19289588761E+02  0.00000000000E+00 0. -1.
</event>
<event>
 7    1  0.1884848E-013  0.7246159E+02  0.7816164E-02  0.1226708E+00
        -11   -1    0    0    0    0  0.00000000000E+00  0.00000000000E+00  0.45593999997E+02  0.45594000000E+02  0.51100000000E-03 0. -1.
         11   -1    0    0    0    0 -0.00000000000E+00 -0.00000000000E+00 -0.45593999997E+02  0.45594000000E+02  0.51100000000E-03 0.  1.
    9900012    2    1    2    0    0 -0.97200516733E+01  0.35007944749E+00 -0.16002388814E+02  0.72461590630E+02  0.70000026491E+02 0.  0.
        -12    1    1    2    0    0  0.97200516733E+01 -0.35007944749E+00  0.16002388814E+02  0.18726409370E+02  0.00000000000E+00 0.  1.
         11    1    3    3    0    0 -0.40572633113E+01  0.10974426481E+02 -0.17338123941E+02  0.20916738852E+02  0.51100000000E-03 0. -1.
        -11    1    3    3    0    0  0.12555784310E+02 -0.24707107186E+02 -0.37385467175E+01  0.27965435755E+02  0.51100000000E-03 0.  1.
        -12    1    3    3    0    0 -0.18218572672E+02  0.14082760153E+02  0.50742818447E+01  0.23579416023E+02  0.00000000000E+00 0.  1.
</event>
<event>
 7    1  0.1884848E-013  0.7246156E+02  0.7816164E-02  0.1226708E+00
        -11   -1    0    0    0    0  0.00000000000E+00  0.00000000000E+00  0.45593999997E+02  0.45594000000E+02  0.51100000000E-03 0. -1.
         11   -1    0    0    0    0 -0.00000000000E+00 -0.00000000000E+00 -0.45593999997E+02  0.45594000000E+02  0.51100000000E-03 0.  1.
    9900012    2    1    2    0    0 -0.73193258420E+01  0.14021389140E+02  0.10025352105E+02  0.72461559627E+02  0.69999986104E+02 0.  0.
        -12    1    1    2    0    0  0.73193258420E+01 -0.14021389140E+02 -0.10025352105E+02  0.18726440373E+02  0.00000000000E+00 0.  1.
         11    1    3    3    0    0  0.46707896877E+01  0.83256918553E+01  0.36381423077E+02  0.37613047823E+02  0.51100000000E-03 0. -1.
        -11    1    3    3    0    0 -0.20353331696E+01 -0.63772963658E+01 -0.49155055553E+01  0.83050999496E+01  0.51100000000E-03 0.  1.
         12    1    3    3    0    0 -0.99547823601E+01  0.12072993650E+02 -0.21440565416E+02  0.26543411855E+02  0.00000000000E+00 0. -1.
</event>
<event>
 7    1  0.1884848E-013  0.7246157E+02  0.7816164E-02  0.1226708E+00
        -11   -1    0    0    0    0  0.00000000000E+00  0.00000000000E+00  0.45593999997E+02  0.45594000000E+02  0.51100000000E-03 0.  1.
         11   -1    0    0    0    0 -0.00000000000E+00 -0.00000000000E+00 -0.45593999997E+02  0.45594000000E+02  0.51100000000E-03 0. -1.
    9900012    2    1    2    0    0  0.36927776871E+01  0.28493337423E+01 -0.18136257742E+02  0.72461570690E+02  0.70000000516E+02 0.  0.
        -12    1    1    2    0    0 -0.36927776871E+01 -0.28493337423E+01  0.18136257742E+02  0.18726429310E+02  0.00000000000E+00 0.  1.
         11    1    3    3    0    0  0.70630948729E+01 -0.14449369053E+02 -0.92844088084E+01  0.18570724876E+02  0.51100000000E-03 0. -1.
        -11    1    3    3    0    0 -0.14623946875E+02  0.21655382601E+02 -0.23339021942E+02  0.35036058044E+02  0.51100000000E-03 0.  1.
        -12    1    3    3    0    0  0.11253629689E+02 -0.43566798056E+01  0.14487173008E+02  0.18854787771E+02  0.00000000000E+00 0.  1.
</event>
<event>
 7    1  0.1884848E-013  0.7246155E+02  0.7816164E-02  0.1226708E+00
        -11   -1    0    0    0    0  0.00000000000E+00  0.00000000000E+00  0.45593999997E+02  0.45594000000E+02  0.51100000000E-03 0.  1.
         11   -1    0    0    0    0 -0.00000000000E+00 -0.00000000000E+00 -0.45593999997E+02  0.45594000000E+02  0.51100000000E-03 0. -1.
    9900012    2    1    2    0    0 -0.17599994415E+02 -0.27784964398E+01 -0.57619361397E+01  0.72461554690E+02  0.69999979672E+02 0.  0.
        -12    1    1    2    0    0  0.17599994415E+02  0.27784964398E+01  0.57619361397E+01  0.18726445310E+02  0.00000000000E+00 0.  1.
         11    1    3    3    0    0  0.31419942133E+01 -0.26590630490E+02  0.51001295494E+01  0.27257018897E+02  0.51100000000E-03 0. -1.
        -11    1    3    3    0    0 -0.28389434413E+02  0.21299523926E+02 -0.66123843903E+01  0.36101985172E+02  0.51100000000E-03 0.  1.
         12    1    3    3    0    0  0.76474457846E+01  0.25126101244E+01 -0.42496812988E+01  0.91025506209E+01  0.00000000000E+00 0. -1.
</event>
<event>
 7    1  0.1884848E-013  0.7246152E+02  0.7816164E-02  0.1226708E+00
        -11   -1    0    0    0    0  0.00000000000E+00  0.00000000000E+00  0.45593999997E+02  0.45594000000E+02  0.51100000000E-03 0.  1.
         11   -1    0    0    0    0 -0.00000000000E+00 -0.00000000000E+00 -0.45593999997E+02  0.45594000000E+02  0.51100000000E-03 0. -1.
    9900012    2    1    2    0    0  0.54638544485E+01  0.74779597465E+01 -0.16275972918E+02  0.72461524575E+02  0.69999940442E+02 0.  0.
        -12    1    1    2    0    0 -0.54638544485E+01 -0.74779597465E+01  0.16275972918E+02  0.18726475425E+02  0.00000000000E+00 0.  1.
         11    1    3    3    0    0 -0.48001452683E+01 -0.20040593725E+02 -0.27525632437E+02  0.34384985572E+02  0.51100000000E-03 0. -1.
        -11    1    3    3    0    0 -0.62131094970E+01  0.11799525339E+02  0.64082215256E+01  0.14795162427E+02  0.51100000000E-03 0.  1.
         12    1    3    3    0    0  0.16477109214E+02  0.15719028132E+02  0.48414379929E+01  0.23281376577E+02  0.00000000000E+00 0. -1.
</event>
<event>
 7    1  0.2076260E-013  0.7246147E+02  0.7816164E-02  0.1226708E+00
        -11   -1    0    0    0    0  0.00000000000E+00  0.00000000000E+00  0.45593999997E+02  0.45594000000E+02  0.51100000000E-03 0. -1.
         11   -1    0    0    0    0 -0.00000000000E+00 -0.00000000000E+00 -0.45593999997E+02  0.45594000000E+02  0.51100000000E-03 0.  1.
    9900012    2    1    2    0    0  0.83160734915E+01 -0.11304232212E+01  0.16740604104E+02  0.72461474408E+02  0.69999875090E+02 0.  0.
        -12    1    1    2    0    0 -0.83160734915E+01  0.11304232212E+01 -0.16740604104E+02  0.18726525592E+02  0.00000000000E+00 0.  1.
         11    1    3    3    0    0  0.36222904826E+01  0.21575863207E+02  0.27385914204E+02  0.35051778250E+02  0.51100000000E-03 0. -1.
        -11    1    3    3    0    0  0.14639441665E+02 -0.48475874602E+01 -0.44719067229E+01  0.16056472416E+02  0.51100000000E-03 0.  1.
         12    1    3    3    0    0 -0.99456586558E+01 -0.17858698968E+02 -0.61734033771E+01  0.21353223742E+02  0.00000000000E+00 0. -1.
</event>
<event>
 7    1  0.1884848E-013  0.7246156E+02  0.7816164E-02  0.1226708E+00
        -11   -1    0    0    0    0  0.00000000000E+00  0.00000000000E+00  0.45593999997E+02  0.45594000000E+02  0.51100000000E-03 0.  1.
         11   -1    0    0    0    0 -0.00000000000E+00 -0.00000000000E+00 -0.45593999997E+02  0.45594000000E+02  0.51100000000E-03 0. -1.
    9900012    2    1    2    0    0 -0.12779655185E+02 -0.94249875848E+01 -0.99262110756E+01  0.72461557628E+02  0.69999983499E+02 0.  0.
        -12    1    1    2    0    0  0.12779655185E+02  0.94249875848E+01  0.99262110756E+01  0.18726442372E+02  0.00000000000E+00 0.  1.
         11    1    3    3    0    0 -0.12868190444E+00  0.26448333153E+01 -0.22903542067E+02  0.23056104220E+02  0.51100000000E-03 0. -1.
        -11    1    3    3    0    0 -0.46207566702E+01  0.16735606231E+02  0.78961174168E+01  0.19073032760E+02  0.51100000000E-03 0.  1.
         12    1    3    3    0    0 -0.80302166099E+01 -0.28805427131E+02  0.50812135748E+01  0.30332420649E+02  0.00000000000E+00 0. -1.
</event>
<event>
 7    1  0.1884848E-013  0.7246155E+02  0.7816164E-02  0.1226708E+00
        -11   -1    0    0    0    0  0.00000000000E+00  0.00000000000E+00  0.45593999997E+02  0.45594000000E+02  0.51100000000E-03 0. -1.
         11   -1    0    0    0    0 -0.00000000000E+00 -0.00000000000E+00 -0.45593999997E+02  0.45594000000E+02  0.51100000000E-03 0.  1.
    9900012    2    1    2    0    0  0.14909416640E+02  0.10357266019E+02  0.45952615474E+01  0.72461545648E+02  0.69999967893E+02 0.  0.
        -12    1    1    2    0    0 -0.14909416640E+02 -0.10357266019E+02 -0.45952615474E+01  0.18726454352E+02  0.00000000000E+00 0.  1.
         11    1    3    3    0    0  0.88331902451E+01 -0.25720886946E+02  0.34365951319E+01  0.27411666523E+02  0.51100000000E-03 0. -1.
        -11    1    3    3    0    0  0.10302622389E+02  0.48016424248E+01 -0.57553713004E+01  0.12740647438E+02  0.51100000000E-03 0.  1.
         12    1    3    3    0    0 -0.42263959942E+01  0.31276510540E+02  0.69140377159E+01  0.32309231687E+02  0.00000000000E+00 0. -1.
</event>
<event>
 7    1  0.1884848E-013  0.7246158E+02  0.7816164E-02  0.1226708E+00
        -11   -1    0    0    0    0  0.00000000000E+00  0.00000000000E+00  0.45593999997E+02  0.45594000000E+02  0.51100000000E-03 0.  1.
         11   -1    0    0    0    0 -0.00000000000E+00 -0.00000000000E+00 -0.45593999997E+02  0.45594000000E+02  0.51100000000E-03 0. -1.
    9900012    2    1    2    0    0  0.11276134456E+02  0.35669097420E+00 -0.14946583657E+02  0.72461580168E+02  0.70000012862E+02 0.  0.
        -12    1    1    2    0    0 -0.11276134456E+02 -0.35669097420E+00  0.14946583657E+02  0.18726419832E+02  0.00000000000E+00 0.  1.
         11    1    3    3    0    0 -0.61600598628E+01 -0.26955971223E+02 -0.18067957372E+02  0.33030619218E+02  0.51100000000E-03 0. -1.
        -11    1    3    3    0    0  0.15139906303E+01  0.18968914312E+02  0.82456361135E+01  0.20738910120E+02  0.51100000000E-03 0.  1.
         12    1    3    3    0    0  0.15922203688E+02  0.83437478850E+01 -0.51242623986E+01  0.18692050829E+02  0.00000000000E+00 0. -1.
</event>
<event>
 7    1  0.1884848E-013  0.7246157E+02  0.7816164E-02  0.1226708E+00
        -11   -1    0    0    0    0  0.00000000000E+00  0.00000000000E+00  0.45593999997E+02  0.45594000000E+02  0.51100000000E-03 0.  1.
         11   -1    0    0    0    0 -0.00000000000E+00 -0.00000000000E+00 -0.45593999997E+02  0.45594000000E+02  0.51100000000E-03 0. -1.
    9900012    2    1    2    0    0 -0.16173216437E+01  0.84046485218E+01 -0.16656088661E+02  0.72461571201E+02  0.70000001181E+02 0.  0.
        -12    1    1    2    0    0  0.16173216437E+01 -0.84046485218E+01  0.16656088661E+02  0.18726428799E+02  0.00000000000E+00 0.  1.
         11    1    3    3    0    0 -0.16460414891E+02 -0.23232859686E+02 -0.16678109255E+02  0.32998035641E+02  0.51100000000E-03 0. -1.
        -11    1    3    3    0    0  0.56159200727E+01 -0.67201095278E+00  0.14258693717E+01  0.58329461433E+01  0.51100000000E-03 0.  1.
         12    1    3    3    0    0  0.92271731749E+01  0.32309519160E+02 -0.14038487782E+01  0.33630589417E+02  0.00000000000E+00 0. -1.
</event>
<event>
 7    1  0.1884848E-013  0.7246145E+02  0.7816164E-02  0.1226708E+00
        -11   -1    0    0    0    0  0.00000000000E+00  0.00000000000E+00  0.45593999997E+02  0.45594000000E+02  0.51100000000E-03 0.  1.
         11   -1    0    0    0    0 -0.00000000000E+00 -0.00000000000E+00 -0.45593999997E+02  0.45594000000E+02  0.51100000000E-03 0. -1.
    9900012    2    1    2    0    0 -0.67042700487E+00 -0.71889978884E+01 -0.17278674287E+02  0.72461448045E+02  0.69999840748E+02 0.  0.
        -12    1    1    2    0    0  0.67042700487E+00  0.71889978884E+01  0.17278674287E+02  0.18726551955E+02  0.00000000000E+00 0.  1.
         11    1    3    3    0    0 -0.65203547186E+01  0.16078130105E+02 -0.94009870341E+01  0.19733216940E+02  0.51100000000E-03 0. -1.
        -11    1    3    3    0    0 -0.19532865470E+02 -0.15582823844E+02 -0.79050220017E+01  0.26207758498E+02  0.51100000000E-03 0.  1.
        -12    1    3    3    0    0  0.25382793184E+02 -0.76843041501E+01  0.27334749136E-01  0.26520472606E+02  0.00000000000E+00 0.  1.
</event>
<event>
 7    1  0.1884848E-013  0.7246155E+02  0.7816164E-02  0.1226708E+00
        -11   -1    0    0    0    0  0.00000000000E+00  0.00000000000E+00  0.45593999997E+02  0.45594000000E+02  0.51100000000E-03 0.  1.
         11   -1    0    0    0    0 -0.00000000000E+00 -0.00000000000E+00 -0.45593999997E+02  0.45594000000E+02  0.51100000000E-03 0. -1.
    9900012    2    1    2    0    0 -0.26436257742E+01  0.13859711289E+02 -0.12312580848E+02  0.72461548083E+02  0.69999971066E+02 0.  0.
        -12    1    1    2    0    0  0.26436257742E+01 -0.13859711289E+02  0.12312580848E+02  0.18726451917E+02  0.00000000000E+00 0.  1.
         11    1    3    3    0    0 -0.28409870811E+02  0.22865011469E+02 -0.13867657436E+02  0.39015912548E+02  0.51100000000E-03 0. -1.
        -11    1    3    3    0    0  0.15885493559E+02  0.44323500893E+01  0.27652265373E+01  0.16722473232E+02  0.51100000000E-03 0.  1.
         12    1    3    3    0    0  0.98807514779E+01 -0.13437650269E+02 -0.12101499491E+01  0.16723162303E+02  0.00000000000E+00 0. -1.
</event>
<event>
 7    1  0.1884848E-013  0.7246159E+02  0.7816164E-02  0.1226708E+00
        -11   -1    0    0    0    0  0.00000000000E+00  0.00000000000E+00  0.45593999997E+02  0.45594000000E+02  0.51100000000E-03 0.  1.
         11   -1    0    0    0    0 -0.00000000000E+00 -0.00000000000E+00 -0.45593999997E+02  0.45594000000E+02  0.51100000000E-03 0. -1.
    9900012    2    1    2    0    0 -0.14442498343E+02 -0.11863373729E+02 -0.11631977405E+01  0.72461590211E+02  0.70000025945E+02 0.  0.
        -12    1    1    2    0    0  0.14442498343E+02  0.11863373729E+02  0.11631977405E+01  0.18726409789E+02  0.00000000000E+00 0.  1.
         11    1    3    3    0    0 -0.24246334136E+02 -0.24685384823E+02  0.14059652990E+02  0.37348718658E+02  0.51100000000E-03 0. -1.
        -11    1    3    3    0    0  0.76800858543E+01  0.19969696764E+02 -0.17139294056E+02  0.27414009349E+02  0.51100000000E-03 0.  1.
        -12    1    3    3    0    0  0.21237499384E+01 -0.71476856688E+01  0.19164433253E+01  0.76988622042E+01  0.00000000000E+00 0.  1.
</event>
<event>
 7    1  0.1884848E-013  0.7246156E+02  0.7816164E-02  0.1226708E+00
        -11   -1    0    0    0    0  0.00000000000E+00  0.00000000000E+00  0.45593999997E+02  0.45594000000E+02  0.51100000000E-03 0.  1.
         11   -1    0    0    0    0 -0.00000000000E+00 -0.00000000000E+00 -0.45593999997E+02  0.45594000000E+02  0.51100000000E-03 0. -1.
    9900012    2    1    2    0    0  0.10948778412E+02  0.71509772256E+01  0.13404008437E+02  0.72461557034E+02  0.69999982726E+02 0.  0.
        -12    1    1    2    0    0 -0.10948778412E+02 -0.71509772256E+01 -0.13404008437E+02  0.18726442966E+02  0.00000000000E+00 0.  1.
         11    1    3    3    0    0  0.18465319876E+02 -0.14085171887E+02  0.18753212615E+02  0.29850344869E+02  0.51100000000E-03 0. -1.
        -11    1    3    3    0    0  0.10679686574E+02  0.20880601370E+02 -0.66128223116E+01  0.24367696610E+02  0.51100000000E-03 0.  1.
        -12    1    3    3    0    0 -0.18196228038E+02  0.35554774258E+00  0.12636181339E+01  0.18243515555E+02  0.00000000000E+00 0.  1.
</event>
<event>
 7    1  0.1884848E-013  0.7246157E+02  0.7816164E-02  0.1226708E+00
        -11   -1    0    0    0    0  0.00000000000E+00  0.00000000000E+00  0.45593999997E+02  0.45594000000E+02  0.51100000000E-03 0.  1.
         11   -1    0    0    0    0 -0.00000000000E+00 -0.00000000000E+00 -0.45593999997E+02  0.45594000000E+02  0.51100000000E-03 0. -1.
    9900012    2    1    2    0    0 -0.15543123311E+02  0.10108386873E+02 -0.26288520153E+01  0.72461574010E+02  0.70000004840E+02 0.  0.
        -12    1    1    2    0    0  0.15543123311E+02 -0.10108386873E+02  0.26288520153E+01  0.18726425990E+02  0.00000000000E+00 0.  1.
         11    1    3    3    0    0  0.20297803209E+02 -0.43677576098E+01 -0.14319545422E+02  0.25221568211E+02  0.51100000000E-03 0. -1.
        -11    1    3    3    0    0 -0.75917740680E+01  0.10161550472E+02  0.13603067792E+02  0.18599343943E+02  0.51100000000E-03 0.  1.
         12    1    3    3    0    0 -0.28249152453E+02  0.43145940110E+01 -0.19123743853E+01  0.28640661856E+02  0.00000000000E+00 0. -1.
</event>
<event>
 7    1  0.1884848E-013  0.7246159E+02  0.7816164E-02  0.1226708E+00
        -11   -1    0    0    0    0  0.00000000000E+00  0.00000000000E+00  0.45593999997E+02  0.45594000000E+02  0.51100000000E-03 0.  1.
         11   -1    0    0    0    0 -0.00000000000E+00 -0.00000000000E+00 -0.45593999997E+02  0.45594000000E+02  0.51100000000E-03 0. -1.
    9900012    2    1    2    0    0 -0.97564527750E+00  0.45454014698E+01 -0.18140170454E+02  0.72461592381E+02  0.70000028772E+02 0.  0.
        -12    1    1    2    0    0  0.97564527750E+00 -0.45454014698E+01  0.18140170454E+02  0.18726407619E+02  0.00000000000E+00 0.  1.
         11    1    3    3    0    0  0.12906429885E+02 -0.19332698746E+01 -0.17190944522E+02  0.21583374125E+02  0.51100000000E-03 0. -1.
        -11    1    3    3    0    0 -0.23521676782E+02  0.21916599068E+02 -0.40900843652E+01  0.32408878162E+02  0.51100000000E-03 0.  1.
         12    1    3    3    0    0  0.96396016198E+01 -0.15437927724E+02  0.31408584340E+01  0.18469340094E+02  0.00000000000E+00 0. -1.
</event>
<event>
 7    1  0.1884848E-013  0.7246175E+02  0.7816164E-02  0.1226708E+00
        -11   -1    0    0    0    0  0.00000000000E+00  0.00000000000E+00  0.45593999997E+02  0.45594000000E+02  0.51100000000E-03 0.  1.
         11   -1    0    0    0    0 -0.00000000000E+00 -0.00000000000E+00 -0.45593999997E+02  0.45594000000E+02  0.51100000000E-03 0. -1.
    9900012    2    1    2    0    0  0.10650872013E+01 -0.29994603725E+01 -0.18453761953E+02  0.72461748279E+02  0.70000231858E+02 0.  0.
        -12    1    1    2    0    0 -0.10650872013E+01  0.29994603725E+01  0.18453761953E+02  0.18726251721E+02  0.00000000000E+00 0.  1.
         11    1    3    3    0    0  0.11417841653E+02  0.17204023627E+02 -0.27011537920E+02  0.33999539968E+02  0.51100000000E-03 0. -1.
        -11    1    3    3    0    0 -0.14440973087E+02 -0.36547378304E+01  0.14126497609E+02  0.20529411761E+02  0.51100000000E-03 0.  1.
        -12    1    3    3    0    0  0.40882186349E+01 -0.16548746169E+02 -0.55687216423E+01  0.17932796550E+02  0.00000000000E+00 0.  1.
</event>
<event>
 7    1  0.1884848E-013  0.7246158E+02  0.7816164E-02  0.1226708E+00
        -11   -1    0    0    0    0  0.00000000000E+00  0.00000000000E+00  0.45593999997E+02  0.45594000000E+02  0.51100000000E-03 0. -1.
         11   -1    0    0    0    0 -0.00000000000E+00 -0.00000000000E+00 -0.45593999997E+02  0.45594000000E+02  0.51100000000E-03 0.  1.
    9900012    2    1    2    0    0 -0.11898244188E+02  0.60786004769E+01  0.13121022256E+02  0.72461579531E+02  0.70000012033E+02 0.  0.
        -12    1    1    2    0    0  0.11898244188E+02 -0.60786004769E+01 -0.13121022256E+02  0.18726420469E+02  0.00000000000E+00 0.  1.
         11    1    3    3    0    0 -0.20411176689E+02  0.83066405647E+01  0.67369035874E+01  0.23043486748E+02  0.51100000000E-03 0. -1.
        -11    1    3    3    0    0  0.26000304774E+01 -0.11411791583E+02 -0.18699010305E+02  0.22059966733E+02  0.51100000000E-03 0.  1.
        -12    1    3    3    0    0  0.59129020234E+01  0.91837514955E+01  0.25083128973E+02  0.27358126050E+02  0.00000000000E+00 0.  1.
</event>
<event>
 7    1  0.1884848E-013  0.7246157E+02  0.7816164E-02  0.1226708E+00
        -11   -1    0    0    0    0  0.00000000000E+00  0.00000000000E+00  0.45593999997E+02  0.45594000000E+02  0.51100000000E-03 0.  1.
         11   -1    0    0    0    0 -0.00000000000E+00 -0.00000000000E+00 -0.45593999997E+02  0.45594000000E+02  0.51100000000E-03 0. -1.
    9900012    2    1    2    0    0  0.18416992896E+02  0.32395535828E+01 -0.99941787024E+00  0.72461570260E+02  0.69999999955E+02 0.  0.
        -12    1    1    2    0    0 -0.18416992896E+02 -0.32395535828E+01  0.99941787024E+00  0.18726429740E+02  0.00000000000E+00 0.  1.
         11    1    3    3    0    0  0.32577958708E+02  0.46151187015E+01 -0.16054115104E+02  0.36610890815E+02  0.51100000000E-03 0. -1.
        -11    1    3    3    0    0 -0.17175798920E+02 -0.10361536695E+02  0.26410864485E+01  0.20232272465E+02  0.51100000000E-03 0.  1.
        -12    1    3    3    0    0  0.30148331074E+01  0.89859715763E+01  0.12413610786E+02  0.15618406979E+02  0.00000000000E+00 0.  1.
</event>
<event>
 7    1  0.1884848E-013  0.7246147E+02  0.7816164E-02  0.1226708E+00
        -11   -1    0    0    0    0  0.00000000000E+00  0.00000000000E+00  0.45593999997E+02  0.45594000000E+02  0.51100000000E-03 0. -1.
         11   -1    0    0    0    0 -0.00000000000E+00 -0.00000000000E+00 -0.45593999997E+02  0.45594000000E+02  0.51100000000E-03 0.  1.
    9900012    2    1    2    0    0 -0.38503822040E+01  0.48774774630E+01  0.17665438504E+02  0.72461469433E+02  0.69999868609E+02 0.  0.
        -12    1    1    2    0    0  0.38503822040E+01 -0.48774774630E+01 -0.17665438504E+02  0.18726530567E+02  0.00000000000E+00 0.  1.
         11    1    3    3    0    0 -0.96571422197E+01  0.15214910053E+02  0.41149723652E+02  0.44922751926E+02  0.51100000000E-03 0. -1.
        -11    1    3    3    0    0  0.26688631567E+01 -0.90893927562E+01 -0.10586285997E+02  0.14205961519E+02  0.51100000000E-03 0.  1.
         12    1    3    3    0    0  0.31378968589E+01 -0.12480398337E+01 -0.12897999151E+02  0.13332755987E+02  0.00000000000E+00 0. -1.
</event>
<event>
 7    1  0.1884848E-013  0.7246154E+02  0.7816164E-02  0.1226708E+00
        -11   -1    0    0    0    0  0.00000000000E+00  0.00000000000E+00  0.45593999997E+02  0.45594000000E+02  0.51100000000E-03 0. -1.
         11   -1    0    0    0    0 -0.00000000000E+00 -0.00000000000E+00 -0.45593999997E+02  0.45594000000E+02  0.51100000000E-03 0.  1.
    9900012    2    1    2    0    0 -0.51474528909E+01  0.15756908909E+02  0.87122728669E+01  0.72461544165E+02  0.69999965962E+02 0.  0.
        -12    1    1    2    0    0  0.51474528909E+01 -0.15756908909E+02 -0.87122728669E+01  0.18726455835E+02  0.00000000000E+00 0.  1.
         11    1    3    3    0    0  0.53115814775E+01 -0.11306413415E+02 -0.12881124813E+02  0.17943557585E+02  0.51100000000E-03 0.  1.
        -11    1    3    3    0    0  0.54311381323E+01  0.38597470878E+01  0.25290072974E+02  0.26153062924E+02  0.51100000000E-03 0. -1.
         12    1    3    3    0    0 -0.15890172501E+02  0.23203575236E+02 -0.36966752950E+01  0.28364923657E+02  0.00000000000E+00 0. -1.
</event>
<event>
 7    1  0.1884848E-013  0.7246157E+02  0.7816164E-02  0.1226708E+00
        -11   -1    0    0    0    0  0.00000000000E+00  0.00000000000E+00  0.45593999997E+02  0.45594000000E+02  0.51100000000E-03 0.  1.
         11   -1    0    0    0    0 -0.00000000000E+00 -0.00000000000E+00 -0.45593999997E+02  0.45594000000E+02  0.51100000000E-03 0. -1.
    9900012    2    1    2    0    0 -0.12430141662E+02 -0.50261718075E+01 -0.13073193700E+02  0.72461568992E+02  0.69999998303E+02 0.  0.
        -12    1    1    2    0    0  0.12430141662E+02  0.50261718075E+01  0.13073193700E+02  0.18726431008E+02  0.00000000000E+00 0.  1.
         11    1    3    3    0    0  0.33307988976E+01 -0.16029409037E+02  0.14165834358E+02  0.21649642923E+02  0.51100000000E-03 0. -1.
        -11    1    3    3    0    0 -0.28352825811E+02  0.75474007014E+01 -0.15164838683E+02  0.33027538833E+02  0.51100000000E-03 0.  1.
        -12    1    3    3    0    0  0.12591885251E+02  0.34558365284E+01 -0.12074189374E+02  0.17784387236E+02  0.00000000000E+00 0.  1.
</event>
<event>
 7    1  0.1884848E-013  0.7246156E+02  0.7816164E-02  0.1226708E+00
        -11   -1    0    0    0    0  0.00000000000E+00  0.00000000000E+00  0.45593999997E+02  0.45594000000E+02  0.51100000000E-03 0. -1.
         11   -1    0    0    0    0 -0.00000000000E+00 -0.00000000000E+00 -0.45593999997E+02  0.45594000000E+02  0.51100000000E-03 0.  1.
    9900012    2    1    2    0    0 -0.65546761812E+01  0.13996471872E+01  0.17485905996E+02  0.72461556115E+02  0.69999981528E+02 0.  0.
        -12    1    1    2    0    0  0.65546761812E+01 -0.13996471872E+01 -0.17485905996E+02  0.18726443885E+02  0.00000000000E+00 0.  1.
         11    1    3    3    0    0 -0.16306790789E+02  0.14429381796E+02  0.27911222553E+02  0.35399926971E+02  0.51100000000E-03 0. -1.
        -11    1    3    3    0    0  0.16478348061E+02 -0.19621265548E+02 -0.47297421496E+01  0.26055718712E+02  0.51100000000E-03 0.  1.
         12    1    3    3    0    0 -0.67262334533E+01  0.65915309393E+01 -0.56955744076E+01  0.11005910431E+02  0.00000000000E+00 0. -1.
</event>
<event>
 7    1  0.1941119E-013  0.7246153E+02  0.7816164E-02  0.1226708E+00
        -11   -1    0    0    0    0  0.00000000000E+00  0.00000000000E+00  0.45593999997E+02  0.45594000000E+02  0.51100000000E-03 0. -1.
         11   -1    0    0    0    0 -0.00000000000E+00 -0.00000000000E+00 -0.45593999997E+02  0.45594000000E+02  0.51100000000E-03 0.  1.
    9900012    2    1    2    0    0  0.12482848485E+02  0.26034932323E+01  0.13714265075E+02  0.72461528099E+02  0.69999945033E+02 0.  0.
        -12    1    1    2    0    0 -0.12482848485E+02 -0.26034932323E+01 -0.13714265075E+02  0.18726471901E+02  0.00000000000E+00 0.  1.
         11    1    3    3    0    0 -0.24859787500E+02 -0.70139922178E+00  0.62164983844E+00  0.24877448507E+02  0.51100000000E-03 0. -1.
        -11    1    3    3    0    0  0.15298253094E+02  0.13820767376E+02  0.18589801341E+01  0.20700385649E+02  0.51100000000E-03 0.  1.
         12    1    3    3    0    0  0.22044382891E+02 -0.10515874922E+02  0.11233635102E+02  0.26883693943E+02  0.00000000000E+00 0. -1.
</event>
<event>
 7    1  0.1884848E-013  0.7246160E+02  0.7816164E-02  0.1226708E+00
        -11   -1    0    0    0    0  0.00000000000E+00  0.00000000000E+00  0.45593999997E+02  0.45594000000E+02  0.51100000000E-03 0.  1.
         11   -1    0    0    0    0 -0.00000000000E+00 -0.00000000000E+00 -0.45593999997E+02  0.45594000000E+02  0.51100000000E-03 0. -1.
    9900012    2    1    2    0    0  0.14746594813E+02  0.83936909537E+01 -0.79222412537E+01  0.72461601176E+02  0.70000040230E+02 0.  0.
        -12    1    1    2    0    0 -0.14746594813E+02 -0.83936909537E+01  0.79222412537E+01  0.18726398824E+02  0.00000000000E+00 0.  1.
         11    1    3    3    0    0  0.25683395447E+02  0.42964386999E+01 -0.39888373718E+01  0.26344012812E+02  0.51100000000E-03 0. -1.
        -11    1    3    3    0    0 -0.27641738653E+02 -0.10500084752E+01  0.18031428381E+01  0.27720381633E+02  0.51100000000E-03 0.  1.
        -12    1    3    3    0    0  0.16704938019E+02  0.51472607290E+01 -0.57365467200E+01  0.18397206731E+02  0.00000000000E+00 0.  1.
</event>
<event>
 7    1  0.1884848E-013  0.7246156E+02  0.7816164E-02  0.1226708E+00
        -11   -1    0    0    0    0  0.00000000000E+00  0.00000000000E+00  0.45593999997E+02  0.45594000000E+02  0.51100000000E-03 0.  1.
         11   -1    0    0    0    0 -0.00000000000E+00 -0.00000000000E+00 -0.45593999997E+02  0.45594000000E+02  0.51100000000E-03 0. -1.
    9900012    2    1    2    0    0  0.68631249151E+01  0.10114968216E+02 -0.14186770169E+02  0.72461561112E+02  0.69999988038E+02 0.  0.
        -12    1    1    2    0    0 -0.68631249151E+01 -0.10114968216E+02  0.14186770169E+02  0.18726438888E+02  0.00000000000E+00 0.  1.
         11    1    3    3    0    0 -0.16264943155E+02 -0.97084917285E+01  0.96083154383E+01  0.21239654265E+02  0.51100000000E-03 0. -1.
        -11    1    3    3    0    0  0.16832194002E+02  0.82211788817E+01 -0.30972211679E+02  0.36196525161E+02  0.51100000000E-03 0.  1.
         12    1    3    3    0    0  0.62958740684E+01  0.11602281063E+02  0.71771260724E+01  0.15025381686E+02  0.00000000000E+00 0. -1.
</event>
<event>
 7    1  0.1884848E-013  0.7246144E+02  0.7816164E-02  0.1226708E+00
        -11   -1    0    0    0    0  0.00000000000E+00  0.00000000000E+00  0.45593999997E+02  0.45594000000E+02  0.51100000000E-03 0. -1.
         11   -1    0    0    0    0 -0.00000000000E+00 -0.00000000000E+00 -0.45593999997E+02  0.45594000000E+02  0.51100000000E-03 0.  1.
    9900012    2    1    2    0    0 -0.18119200031E+01  0.58403094083E+01  0.17700046644E+02  0.72461443475E+02  0.69999834795E+02 0.  0.
        -12    1    1    2    0    0  0.18119200031E+01 -0.58403094083E+01 -0.17700046644E+02  0.18726556525E+02  0.00000000000E+00 0.  1.
         11    1    3    3    0    0  0.12320362811E+02 -0.49663720420E+01  0.37718058968E+02  0.39988850491E+02  0.51100000000E-03 0. -1.
        -11    1    3    3    0    0 -0.41366977151E+01  0.14358597923E+02 -0.12304671229E+02  0.19356821449E+02  0.51100000000E-03 0.  1.
         12    1    3    3    0    0 -0.99955850993E+01 -0.35519164729E+01 -0.77133410954E+01  0.13115771535E+02  0.00000000000E+00 0. -1.
</event>
<event>
 7    1  0.1884848E-013  0.7246158E+02  0.7816164E-02  0.1226708E+00
        -11   -1    0    0    0    0  0.00000000000E+00  0.00000000000E+00  0.45593999997E+02  0.45594000000E+02  0.51100000000E-03 0.  1.
         11   -1    0    0    0    0 -0.00000000000E+00 -0.00000000000E+00 -0.45593999997E+02  0.45594000000E+02  0.51100000000E-03 0. -1.
    9900012    2    1    2    0    0 -0.94493979018E+01 -0.14324420367E+02 -0.74965829728E+01  0.72461577602E+02  0.70000009520E+02 0.  0.
        -12    1    1    2    0    0  0.94493979018E+01  0.14324420367E+02  0.74965829728E+01  0.18726422398E+02  0.00000000000E+00 0.  1.
         11    1    3    3    0    0 -0.67741163130E+01  0.10783058441E+02 -0.17886229536E+02  0.21956325021E+02  0.51100000000E-03 0. -1.
        -11    1    3    3    0    0  0.19870108206E+02 -0.12749905722E+02  0.66269298418E+01  0.24521368139E+02  0.51100000000E-03 0.  1.
        -12    1    3    3    0    0 -0.22545389795E+02 -0.12357573085E+02  0.37627167218E+01  0.25983884442E+02  0.00000000000E+00 0.  1.
</event>
<event>
 7    1  0.1884848E-013  0.7246160E+02  0.7816164E-02  0.1226708E+00
        -11   -1    0    0    0    0  0.00000000000E+00  0.00000000000E+00  0.45593999997E+02  0.45594000000E+02  0.51100000000E-03 0. -1.
         11   -1    0    0    0    0 -0.00000000000E+00 -0.00000000000E+00 -0.45593999997E+02  0.45594000000E+02  0.51100000000E-03 0.  1.
    9900012    2    1    2    0    0 -0.92168357934E+00 -0.65314884639E+01  0.17526219977E+02  0.72461595410E+02  0.70000032718E+02 0.  0.
        -12    1    1    2    0    0  0.92168357934E+00  0.65314884639E+01 -0.17526219977E+02  0.18726404590E+02  0.00000000000E+00 0.  1.
         11    1    3    3    0    0 -0.19983025272E+02  0.78296662024E+01  0.78955957002E+00  0.21476693797E+02  0.51100000000E-03 0. -1.
        -11    1    3    3    0    0  0.28196770584E+01 -0.12655296906E+02  0.28196210113E+02  0.31034390335E+02  0.51100000000E-03 0.  1.
        -12    1    3    3    0    0  0.16241664634E+02 -0.17058577606E+01 -0.11459549706E+02  0.19950511278E+02  0.00000000000E+00 0.  1.
</event>
<event>
 7    1  0.1884848E-013  0.7246160E+02  0.7816164E-02  0.1226708E+00
        -11   -1    0    0    0    0  0.00000000000E+00  0.00000000000E+00  0.45593999997E+02  0.45594000000E+02  0.51100000000E-03 0.  1.
         11   -1    0    0    0    0 -0.00000000000E+00 -0.00000000000E+00 -0.45593999997E+02  0.45594000000E+02  0.51100000000E-03 0. -1.
    9900012    2    1    2    0    0 -0.10122407733E+01 -0.18691375833E+02  0.53485550476E+00  0.72461595318E+02  0.70000032598E+02 0.  0.
        -12    1    1    2    0    0  0.10122407733E+01  0.18691375833E+02 -0.53485550476E+00  0.18726404682E+02  0.00000000000E+00 0.  1.
         11    1    3    3    0    0  0.16711025261E+02 -0.18313810753E+02 -0.10480488710E+02  0.26916438721E+02  0.51100000000E-03 0. -1.
        -11    1    3    3    0    0 -0.76587926748E+01  0.19958645057E+02  0.36341050391E+01  0.21684356976E+02  0.51100000000E-03 0.  1.
        -12    1    3    3    0    0 -0.10064473359E+02 -0.20336210138E+02  0.73812391761E+01  0.23860799621E+02  0.00000000000E+00 0.  1.
</event>
<event>
 7    1  0.1884848E-013  0.7246159E+02  0.7816164E-02  0.1226708E+00
        -11   -1    0    0    0    0  0.00000000000E+00  0.00000000000E+00  0.45593999997E+02  0.45594000000E+02  0.51100000000E-03 0.  1.
         11   -1    0    0    0    0 -0.00000000000E+00 -0.00000000000E+00 -0.45593999997E+02  0.45594000000E+02  0.51100000000E-03 0. -1.
    9900012    2    1    2    0    0 -0.16297373466E+01  0.18647432683E+02 -0.54366553534E+00  0.72461591863E+02  0.70000028097E+02 0.  0.
        -12    1    1    2    0    0  0.16297373466E+01 -0.18647432683E+02  0.54366553534E+00  0.18726408137E+02  0.00000000000E+00 0.  1.
         11    1    3    3    0    0  0.67541041944E+01  0.27136645787E+01 -0.27267009548E+02  0.28221830360E+02  0.51100000000E-03 0. -1.
        -11    1    3    3    0    0  0.97875107934E+01  0.13822033655E+02  0.11993048716E+02  0.20752763663E+02  0.51100000000E-03 0.  1.
         12    1    3    3    0    0 -0.18171352334E+02  0.21117344497E+01  0.14730295297E+02  0.23486997841E+02  0.00000000000E+00 0. -1.
</event>
<event>
 7    1  0.1884848E-013  0.7246159E+02  0.7816164E-02  0.1226708E+00
        -11   -1    0    0    0    0  0.00000000000E+00  0.00000000000E+00  0.45593999997E+02  0.45594000000E+02  0.51100000000E-03 0. -1.
         11   -1    0    0    0    0 -0.00000000000E+00 -0.00000000000E+00 -0.45593999997E+02  0.45594000000E+02  0.51100000000E-03 0.  1.
    9900012    2    1    2    0    0 -0.10073648823E+02  0.14281559362E+02  0.67258563628E+01  0.72461588645E+02  0.70000023906E+02 0.  0.
        -12    1    1    2    0    0  0.10073648823E+02 -0.14281559362E+02 -0.67258563628E+01  0.18726411355E+02  0.00000000000E+00 0.  1.
         11    1    3    3    0    0 -0.21124782707E+02 -0.10792431822E+02 -0.15508596808E+02  0.28341658460E+02  0.51100000000E-03 0.  1.
        -11    1    3    3    0    0  0.15637682959E+02  0.82350066807E+01  0.19730817409E+02  0.26488820647E+02  0.51100000000E-03 0. -1.
        -12    1    3    3    0    0 -0.45865490755E+01  0.16838984503E+02  0.25036357611E+01  0.17631109538E+02  0.00000000000E+00 0.  1.
</event>
<event>
 7    1  0.1884848E-013  0.7246112E+02  0.7816164E-02  0.1226709E+00
        -11   -1    0    0    0    0  0.00000000000E+00  0.00000000000E+00  0.45593999997E+02  0.45594000000E+02  0.51100000000E-03 0.  1.
         11   -1    0    0    0    0 -0.00000000000E+00 -0.00000000000E+00 -0.45593999997E+02  0.45594000000E+02  0.51100000000E-03 0. -1.
    9900012    2    1    2    0    0  0.39822945191E+00 -0.16268913751E+02  0.92660617938E+01  0.72461119788E+02  0.69999413129E+02 0.  0.
        -12    1    1    2    0    0 -0.39822945191E+00  0.16268913751E+02 -0.92660617938E+01  0.18726880212E+02  0.00000000000E+00 0.  1.
         11    1    3    3    0    0 -0.85808465086E+01 -0.10245832317E+02 -0.12870853865E+02  0.18554430364E+02  0.51100000000E-03 0.  1.
        -11    1    3    3    0    0 -0.66719209258E+00  0.19353560657E+02  0.18012055224E+02  0.26446920219E+02  0.51100000000E-03 0. -1.
        -12    1    3    3    0    0  0.96462680531E+01 -0.25376642091E+02  0.41248604344E+01  0.27459769205E+02  0.00000000000E+00 0.  1.
</event>
<event>
 7    1  0.1884848E-013  0.7246165E+02  0.7816164E-02  0.1226708E+00
        -11   -1    0    0    0    0  0.00000000000E+00  0.00000000000E+00  0.45593999997E+02  0.45594000000E+02  0.51100000000E-03 0. -1.
         11   -1    0    0    0    0 -0.00000000000E+00 -0.00000000000E+00 -0.45593999997E+02  0.45594000000E+02  0.51100000000E-03 0.  1.
    9900012    2    1    2    0    0 -0.18072458239E+02 -0.17571772601E+01  0.45798419021E+01  0.72461645027E+02  0.70000097353E+02 0.  0.
        -12    1    1    2    0    0  0.18072458239E+02  0.17571772601E+01 -0.45798419021E+01  0.18726354973E+02  0.00000000000E+00 0.  1.
         11    1    3    3    0    0 -0.96955231558E+01  0.28533175851E+02  0.22524053609E+01  0.30219507335E+02  0.51100000000E-03 0. -1.
        -11    1    3    3    0    0 -0.16866296825E+02 -0.11250221775E+02 -0.35498433975E+01  0.20582537429E+02  0.51100000000E-03 0.  1.
         12    1    3    3    0    0  0.84893617420E+01 -0.19040131336E+02  0.58772799387E+01  0.21659600263E+02  0.00000000000E+00 0. -1.
</event>
<event>
 7    1  0.1884848E-013  0.7246158E+02  0.7816164E-02  0.1226708E+00
        -11   -1    0    0    0    0  0.00000000000E+00  0.00000000000E+00  0.45593999997E+02  0.45594000000E+02  0.51100000000E-03 0.  1.
         11   -1    0    0    0    0 -0.00000000000E+00 -0.00000000000E+00 -0.45593999997E+02  0.45594000000E+02  0.51100000000E-03 0. -1.
    9900012    2    1    2    0    0  0.17652661599E+02 -0.10019982497E+01 -0.61691533785E+01  0.72461577079E+02  0.70000008838E+02 0.  0.
        -12    1    1    2    0    0 -0.17652661599E+02  0.10019982497E+01  0.61691533785E+01  0.18726422921E+02  0.00000000000E+00 0.  1.
         11    1    3    3    0    0 -0.10561102904E+02 -0.19388581292E+02  0.18011719673E+02  0.28493438279E+02  0.51100000000E-03 0.  1.
        -11    1    3    3    0    0  0.12659283994E+02  0.79958247793E+01 -0.22464671089E+01  0.15140584529E+02  0.51100000000E-03 0. -1.
         12    1    3    3    0    0  0.15554480509E+02  0.10390758263E+02 -0.21934405943E+02  0.28827554271E+02  0.00000000000E+00 0. -1.
</event>
<event>
 7    1  0.1884848E-013  0.7246156E+02  0.7816164E-02  0.1226708E+00
        -11   -1    0    0    0    0  0.00000000000E+00  0.00000000000E+00  0.45593999997E+02  0.45594000000E+02  0.51100000000E-03 0.  1.
         11   -1    0    0    0    0 -0.00000000000E+00 -0.00000000000E+00 -0.45593999997E+02  0.45594000000E+02  0.51100000000E-03 0. -1.
    9900012    2    1    2    0    0 -0.56052756084E+01 -0.19496279305E-01 -0.17867850891E+02  0.72461559061E+02  0.69999985367E+02 0.  0.
        -12    1    1    2    0    0  0.56052756084E+01  0.19496279305E-01  0.17867850891E+02  0.18726440939E+02  0.00000000000E+00 0.  1.
         11    1    3    3    0    0  0.12161478853E+02  0.23511941006E+02  0.84983956289E+00  0.26484621298E+02  0.51100000000E-03 0. -1.
        -11    1    3    3    0    0 -0.55312432018E+01 -0.18233139817E+02  0.41552183891E+01  0.19501484022E+02  0.51100000000E-03 0.  1.
         12    1    3    3    0    0 -0.12235511260E+02 -0.52982974683E+01 -0.22872908843E+02  0.26475453741E+02  0.00000000000E+00 0. -1.
</event>
<event>
 7    1  0.1884848E-013  0.7246155E+02  0.7816164E-02  0.1226708E+00
        -11   -1    0    0    0    0  0.00000000000E+00  0.00000000000E+00  0.45593999997E+02  0.45594000000E+02  0.51100000000E-03 0.  1.
         11   -1    0    0    0    0 -0.00000000000E+00 -0.00000000000E+00 -0.45593999997E+02  0.45594000000E+02  0.51100000000E-03 0. -1.
    9900012    2    1    2    0    0  0.18261581374E+01 -0.14704602868E+02 -0.11450759564E+02  0.72461545620E+02  0.69999967857E+02 0.  0.
        -12    1    1    2    0    0 -0.18261581374E+01  0.14704602868E+02  0.11450759564E+02  0.18726454380E+02  0.00000000000E+00 0.  1.
         11    1    3    3    0    0 -0.10219343116E+02 -0.33415520488E+02 -0.17467350427E+02  0.39065845881E+02  0.51100000000E-03 0. -1.
        -11    1    3    3    0    0  0.80373622144E+01  0.13964387932E+02 -0.80551798587E+01  0.18013584998E+02  0.51100000000E-03 0.  1.
        -12    1    3    3    0    0  0.40081390393E+01  0.47465296881E+01  0.14071770722E+02  0.15382114740E+02  0.00000000000E+00 0.  1.
</event>
<event>
 7    1  0.1884848E-013  0.7246151E+02  0.7816164E-02  0.1226708E+00
        -11   -1    0    0    0    0  0.00000000000E+00  0.00000000000E+00  0.45593999997E+02  0.45594000000E+02  0.51100000000E-03 0.  1.
         11   -1    0    0    0    0 -0.00000000000E+00 -0.00000000000E+00 -0.45593999997E+02  0.45594000000E+02  0.51100000000E-03 0. -1.
    9900012    2    1    2    0    0  0.21238470818E+01  0.14963051570E+02 -0.11057920798E+02  0.72461514716E+02  0.69999927598E+02 0.  0.
        -12    1    1    2    0    0 -0.21238470818E+01 -0.14963051570E+02  0.11057920798E+02  0.18726485284E+02  0.00000000000E+00 0.  1.
         11    1    3    3    0    0 -0.90992283129E+01 -0.14955444990E+02 -0.27289206592E+02  0.32421629932E+02  0.51100000000E-03 0. -1.
        -11    1    3    3    0    0  0.71581526182E+01  0.65710232493E+01 -0.22652898037E+01  0.99774262013E+01  0.51100000000E-03 0.  1.
         12    1    3    3    0    0  0.40649227766E+01  0.23347473311E+02  0.18496575598E+02  0.30062458583E+02  0.00000000000E+00 0. -1.
</event>
<event>
 7    1  0.1884848E-013  0.7246151E+02  0.7816164E-02  0.1226708E+00
        -11   -1    0    0    0    0  0.00000000000E+00  0.00000000000E+00  0.45593999997E+02  0.45594000000E+02  0.51100000000E-03 0.  1.
         11   -1    0    0    0    0 -0.00000000000E+00 -0.00000000000E+00 -0.45593999997E+02  0.45594000000E+02  0.51100000000E-03 0. -1.
    9900012    2    1    2    0    0  0.81750847287E+00  0.67083665407E+01 -0.17464559390E+02  0.72461512438E+02  0.69999924631E+02 0.  0.
        -12    1    1    2    0    0 -0.81750847287E+00 -0.67083665407E+01  0.17464559390E+02  0.18726487562E+02  0.00000000000E+00 0.  1.
         11    1    3    3    0    0  0.11299696514E+02  0.95837431070E+01 -0.34247006252E+02  0.37314725119E+02  0.51100000000E-03 0. -1.
        -11    1    3    3    0    0 -0.22371531356E+01  0.11887742251E+02  0.13119714050E+02  0.17845172092E+02  0.51100000000E-03 0.  1.
        -12    1    3    3    0    0 -0.82450349056E+01 -0.14763118817E+02  0.36627328126E+01  0.17301615227E+02  0.00000000000E+00 0.  1.
</event>
<event>
 7    1  0.1884848E-013  0.7246157E+02  0.7816164E-02  0.1226708E+00
        -11   -1    0    0    0    0  0.00000000000E+00  0.00000000000E+00  0.45593999997E+02  0.45594000000E+02  0.51100000000E-03 0.  1.
         11   -1    0    0    0    0 -0.00000000000E+00 -0.00000000000E+00 -0.45593999997E+02  0.45594000000E+02  0.51100000000E-03 0. -1.
    9900012    2    1    2    0    0 -0.89799378327E+00 -0.17217796964E+02 -0.73089118795E+01  0.72461571670E+02  0.70000001792E+02 0.  0.
        -12    1    1    2    0    0  0.89799378327E+00  0.17217796964E+02  0.73089118795E+01  0.18726428330E+02  0.00000000000E+00 0.  1.
         11    1    3    3    0    0 -0.65505527760E+01  0.16822614919E+02  0.72653492856E+01  0.19460098018E+02  0.51100000000E-03 0. -1.
        -11    1    3    3    0    0 -0.85711086067E+01 -0.35288135247E+02 -0.75574824793E+01  0.37092208530E+02  0.51100000000E-03 0.  1.
        -12    1    3    3    0    0  0.14223667600E+02  0.12477233641E+01 -0.70167786858E+01  0.15909265121E+02  0.00000000000E+00 0.  1.
</event>
<event>
 7    1  0.1884848E-013  0.7246147E+02  0.7816164E-02  0.1226708E+00
        -11   -1    0    0    0    0  0.00000000000E+00  0.00000000000E+00  0.45593999997E+02  0.45594000000E+02  0.51100000000E-03 0. -1.
         11   -1    0    0    0    0 -0.00000000000E+00 -0.00000000000E+00 -0.45593999997E+02  0.45594000000E+02  0.51100000000E-03 0.  1.
    9900012    2    1    2    0    0  0.18053832039E+02 -0.49457542152E+01 -0.53055224228E+00  0.72461472780E+02  0.69999872969E+02 0.  0.
        -12    1    1    2    0    0 -0.18053832039E+02  0.49457542152E+01  0.53055224228E+00  0.18726527220E+02  0.00000000000E+00 0.  1.
         11    1    3    3    0    0  0.20800400085E+02 -0.45965834580E+01 -0.24741980645E+02  0.32648902427E+02  0.51100000000E-03 0. -1.
        -11    1    3    3    0    0 -0.38935513748E+01  0.11265795122E+02 -0.10694652836E+01  0.11967524318E+02  0.51100000000E-03 0.  1.
         12    1    3    3    0    0  0.11469833285E+01 -0.11614965879E+02  0.25280893686E+02  0.27845046035E+02  0.00000000000E+00 0. -1.
</event>
<event>
 7    1  0.1884848E-013  0.7246160E+02  0.7816164E-02  0.1226708E+00
        -11   -1    0    0    0    0  0.00000000000E+00  0.00000000000E+00  0.45593999997E+02  0.45594000000E+02  0.51100000000E-03 0.  1.
         11   -1    0    0    0    0 -0.00000000000E+00 -0.00000000000E+00 -0.45593999997E+02  0.45594000000E+02  0.51100000000E-03 0. -1.
    9900012    2    1    2    0    0 -0.13789824481E+02  0.23344032610E+00 -0.12667443828E+02  0.72461604545E+02  0.70000044618E+02 0.  0.
        -12    1    1    2    0    0  0.13789824481E+02 -0.23344032610E+00  0.12667443828E+02  0.18726395455E+02  0.00000000000E+00 0.  1.
         11    1    3    3    0    0 -0.29591086261E+02 -0.18760434676E+02 -0.14368761911E+02  0.37868821139E+02  0.51100000000E-03 0. -1.
        -11    1    3    3    0    0  0.76442435427E+01 -0.18003649188E+00  0.96316675488E+01  0.12297800312E+02  0.51100000000E-03 0.  1.
         12    1    3    3    0    0  0.81570182372E+01  0.19173911494E+02 -0.79303494658E+01  0.22294983094E+02  0.00000000000E+00 0. -1.
</event>
<event>
 7    1  0.1884848E-013  0.7246160E+02  0.7816164E-02  0.1226708E+00
        -11   -1    0    0    0    0  0.00000000000E+00  0.00000000000E+00  0.45593999997E+02  0.45594000000E+02  0.51100000000E-03 0. -1.
         11   -1    0    0    0    0 -0.00000000000E+00 -0.00000000000E+00 -0.45593999997E+02  0.45594000000E+02  0.51100000000E-03 0.  1.
    9900012    2    1    2    0    0 -0.11286165487E+02 -0.12537503759E+02  0.81308958255E+01  0.72461601552E+02  0.70000040719E+02 0.  0.
        -12    1    1    2    0    0  0.11286165487E+02  0.12537503759E+02 -0.81308958255E+01  0.18726398448E+02  0.00000000000E+00 0.  1.
         11    1    3    3    0    0 -0.11647737577E+02 -0.18103359933E+02  0.34552097573E+02  0.40709321764E+02  0.51100000000E-03 0. -1.
        -11    1    3    3    0    0  0.80267150877E+01  0.42853379023E+01 -0.96236785404E+01  0.13244148328E+02  0.51100000000E-03 0.  1.
         12    1    3    3    0    0 -0.76651429977E+01  0.12805182719E+01 -0.16797523207E+02  0.18508131459E+02  0.00000000000E+00 0. -1.
</event>
<event>
 7    1  0.1884848E-013  0.7246151E+02  0.7816164E-02  0.1226708E+00
        -11   -1    0    0    0    0  0.00000000000E+00  0.00000000000E+00  0.45593999997E+02  0.45594000000E+02  0.51100000000E-03 0.  1.
         11   -1    0    0    0    0 -0.00000000000E+00 -0.00000000000E+00 -0.45593999997E+02  0.45594000000E+02  0.51100000000E-03 0. -1.
    9900012    2    1    2    0    0 -0.51061720162E+01 -0.14792056638E+02 -0.10286075139E+02  0.72461514104E+02  0.69999926802E+02 0.  0.
        -12    1    1    2    0    0  0.51061720162E+01  0.14792056638E+02  0.10286075139E+02  0.18726485896E+02  0.00000000000E+00 0.  1.
         11    1    3    3    0    0 -0.21224811674E+02  0.43148108035E+01 -0.66520603193E+01  0.22657451967E+02  0.51100000000E-03 0. -1.
        -11    1    3    3    0    0  0.28993219482E+02 -0.94299887634E+01  0.59485882299E+01  0.31063115849E+02  0.51100000000E-03 0.  1.
        -12    1    3    3    0    0 -0.12874579825E+02 -0.96768786777E+01 -0.95826030497E+01  0.18740946289E+02  0.00000000000E+00 0.  1.
</event>
<event>
 7    1  0.1884848E-013  0.7246165E+02  0.7816164E-02  0.1226708E+00
        -11   -1    0    0    0    0  0.00000000000E+00  0.00000000000E+00  0.45593999997E+02  0.45594000000E+02  0.51100000000E-03 0. -1.
         11   -1    0    0    0    0 -0.00000000000E+00 -0.00000000000E+00 -0.45593999997E+02  0.45594000000E+02  0.51100000000E-03 0.  1.
    9900012    2    1    2    0    0  0.13584499494E+02  0.10571916045E+02  0.73737544348E+01  0.72461647183E+02  0.70000100162E+02 0.  0.
        -12    1    1    2    0    0 -0.13584499494E+02 -0.10571916045E+02 -0.73737544348E+01  0.18726352817E+02  0.00000000000E+00 0.  1.
         11    1    3    3    0    0  0.82321297588E+00 -0.11499069747E+02  0.25458170588E+02  0.27946819758E+02  0.51100000000E-03 0. -1.
        -11    1    3    3    0    0 -0.87382464229E+01  0.20495286083E+01 -0.11178222966E+02  0.14335626495E+02  0.51100000000E-03 0.  1.
         12    1    3    3    0    0  0.21499532941E+02  0.20021457184E+02 -0.69061931873E+01  0.30179200930E+02  0.00000000000E+00 0. -1.
</event>
