<event>
 7    1  0.3086024E-009  0.4614232E+02  0.7816164E-02  0.1320468E+00
        -11   -1    0    0    0    0  0.00000000000E+00  0.00000000000E+00  0.45593999997E+02  0.45594000000E+02  0.51100000000E-03 0. -1.
         11   -1    0    0    0    0 -0.00000000000E+00 -0.00000000000E+00 -0.45593999997E+02  0.45594000000E+02  0.51100000000E-03 0.  1.
    9900012    2    1    2    0    0  0.50211938914E+01 -0.44238802112E+02 -0.68432060589E+01  0.46142317970E+02  0.10000001905E+02 0.  0.
         12    1    1    2    0    0 -0.50211938914E+01  0.44238802112E+02  0.68432060589E+01  0.45045682030E+02  0.00000000000E+00 0. -1.
         11    1    3    3    0    0 -0.84014954379E+00 -0.71380246521E+01 -0.39013648489E+01  0.81778906287E+01  0.51100000000E-03 0. -1.
        -11    1    3    3    0    0  0.33397019808E+01 -0.14555134652E+02  0.87669388452E+00  0.14959082408E+02  0.51100000000E-03 0.  1.
         12    1    3    3    0    0  0.25216414544E+01 -0.22545642808E+02 -0.38185350945E+01  0.23005344933E+02  0.00000000000E+00 0. -1.
</event>
<event>
 7    1  0.3086024E-009  0.4614232E+02  0.7816164E-02  0.1320468E+00
        -11   -1    0    0    0    0  0.00000000000E+00  0.00000000000E+00  0.45593999997E+02  0.45594000000E+02  0.51100000000E-03 0.  1.
         11   -1    0    0    0    0 -0.00000000000E+00 -0.00000000000E+00 -0.45593999997E+02  0.45594000000E+02  0.51100000000E-03 0. -1.
    9900012    2    1    2    0    0  0.17772300596E+02 -0.38842046861E+02  0.14302248005E+02  0.46142316846E+02  0.99999916555E+01 0.  0.
         12    1    1    2    0    0 -0.17772300596E+02  0.38842046861E+02 -0.14302248005E+02  0.45045683154E+02  0.00000000000E+00 0. -1.
         11    1    3    3    0    0  0.59856439018E-01 -0.40735030319E+00  0.25667059850E-02  0.41173281616E+00  0.51100000000E-03 0. -1.
        -11    1    3    3    0    0  0.15970272673E+02 -0.31214436229E+02  0.79354404090E+01  0.35949434670E+02  0.51100000000E-03 0.  1.
        -12    1    3    3    0    0  0.17421714838E+01 -0.72202603285E+01  0.63642408901E+01  0.97811493597E+01  0.00000000000E+00 0.  1.
</event>
<event>
 7    1  0.3086024E-009  0.4614232E+02  0.7816164E-02  0.1320468E+00
        -11   -1    0    0    0    0  0.00000000000E+00  0.00000000000E+00  0.45593999997E+02  0.45594000000E+02  0.51100000000E-03 0.  1.
         11   -1    0    0    0    0 -0.00000000000E+00 -0.00000000000E+00 -0.45593999997E+02  0.45594000000E+02  0.51100000000E-03 0. -1.
    9900012    2    1    2    0    0  0.36881585738E+02 -0.21355899252E+02  0.14587246609E+02  0.46142316932E+02  0.99999924404E+01 0.  0.
         12    1    1    2    0    0 -0.36881585738E+02  0.21355899252E+02 -0.14587246609E+02  0.45045683068E+02  0.00000000000E+00 0. -1.
         11    1    3    3    0    0  0.56820483534E+01 -0.80462804892E+00  0.29935798573E+01  0.64726053804E+01  0.51100000000E-03 0. -1.
        -11    1    3    3    0    0  0.10992973291E+02 -0.45671449920E+01  0.14970816139E+01  0.11997730151E+02  0.51100000000E-03 0.  1.
        -12    1    3    3    0    0  0.20206564094E+02 -0.15984126211E+02  0.10096585137E+02  0.27671981401E+02  0.00000000000E+00 0.  1.
</event>
<event>
 7    1  0.3086024E-009  0.4614232E+02  0.7816164E-02  0.1320468E+00
        -11   -1    0    0    0    0  0.00000000000E+00  0.00000000000E+00  0.45593999997E+02  0.45594000000E+02  0.51100000000E-03 0. -1.
         11   -1    0    0    0    0 -0.00000000000E+00 -0.00000000000E+00 -0.45593999997E+02  0.45594000000E+02  0.51100000000E-03 0.  1.
    9900012    2    1    2    0    0  0.28890260887E+02 -0.20286393114E+02 -0.27980861890E+02  0.46142317057E+02  0.99999935814E+01 0.  0.
         12    1    1    2    0    0 -0.28890260887E+02  0.20286393114E+02  0.27980861890E+02  0.45045682943E+02  0.00000000000E+00 0. -1.
         11    1    3    3    0    0  0.28764411774E+01 -0.39447544292E+01 -0.28215468947E+01  0.56388055910E+01  0.51100000000E-03 0. -1.
        -11    1    3    3    0    0  0.45049739546E+01 -0.22737756322E+00 -0.59601615500E+01  0.74746248636E+01  0.51100000000E-03 0.  1.
        -12    1    3    3    0    0  0.21508845755E+02 -0.16114261121E+02 -0.19199153445E+02  0.33028886603E+02  0.00000000000E+00 0.  1.
</event>
<event>
 7    1  0.3086024E-009  0.4614232E+02  0.7816164E-02  0.1320468E+00
        -11   -1    0    0    0    0  0.00000000000E+00  0.00000000000E+00  0.45593999997E+02  0.45594000000E+02  0.51100000000E-03 0.  1.
         11   -1    0    0    0    0 -0.00000000000E+00 -0.00000000000E+00 -0.45593999997E+02  0.45594000000E+02  0.51100000000E-03 0. -1.
    9900012    2    1    2    0    0 -0.13754805174E+02 -0.41752810799E+02  0.98296300479E+01  0.46142317612E+02  0.99999986372E+01 0.  0.
         12    1    1    2    0    0  0.13754805174E+02  0.41752810799E+02 -0.98296300479E+01  0.45045682388E+02  0.00000000000E+00 0. -1.
         11    1    3    3    0    0 -0.13164763052E+00 -0.48107723481E+00  0.16804003424E+01  0.17528582306E+01  0.51100000000E-03 0. -1.
        -11    1    3    3    0    0 -0.12014633056E+02 -0.37235323198E+02  0.84718236715E+01  0.40032393105E+02  0.51100000000E-03 0.  1.
        -12    1    3    3    0    0 -0.16085244876E+01 -0.40364103655E+01 -0.32259396606E+00  0.43570662759E+01  0.00000000000E+00 0.  1.
</event>
<event>
 7    1  0.3086024E-009  0.4614232E+02  0.7816164E-02  0.1320468E+00
        -11   -1    0    0    0    0  0.00000000000E+00  0.00000000000E+00  0.45593999997E+02  0.45594000000E+02  0.51100000000E-03 0.  1.
         11   -1    0    0    0    0 -0.00000000000E+00 -0.00000000000E+00 -0.45593999997E+02  0.45594000000E+02  0.51100000000E-03 0. -1.
    9900012    2    1    2    0    0 -0.19997568931E+02 -0.38701211647E+02 -0.11464157972E+02  0.46142318030E+02  0.10000002455E+02 0.  0.
         12    1    1    2    0    0  0.19997568931E+02  0.38701211647E+02  0.11464157972E+02  0.45045681970E+02  0.00000000000E+00 0. -1.
         11    1    3    3    0    0 -0.48576072809E+01 -0.39843390826E+01 -0.42329252785E+01  0.75755503493E+01  0.51100000000E-03 0. -1.
        -11    1    3    3    0    0 -0.10252614293E+02 -0.24360048859E+02 -0.49148757671E+01  0.26882784162E+02  0.51100000000E-03 0.  1.
        -12    1    3    3    0    0 -0.48873473573E+01 -0.10356823706E+02 -0.23163569267E+01  0.11683983519E+02  0.00000000000E+00 0.  1.
</event>
<event>
 7    1  0.3086024E-009  0.4614232E+02  0.7816164E-02  0.1320468E+00
        -11   -1    0    0    0    0  0.00000000000E+00  0.00000000000E+00  0.45593999997E+02  0.45594000000E+02  0.51100000000E-03 0.  1.
         11   -1    0    0    0    0 -0.00000000000E+00 -0.00000000000E+00 -0.45593999997E+02  0.45594000000E+02  0.51100000000E-03 0. -1.
    9900012    2    1    2    0    0  0.21895359857E+02  0.20127604638E+02  0.33831734232E+02  0.46142317711E+02  0.99999995466E+01 0.  0.
         12    1    1    2    0    0 -0.21895359857E+02 -0.20127604638E+02 -0.33831734232E+02  0.45045682289E+02  0.00000000000E+00 0. -1.
         11    1    3    3    0    0  0.70486280470E+01  0.70552047014E+01  0.51053848014E+01  0.11203750486E+02  0.51100000000E-03 0. -1.
        -11    1    3    3    0    0  0.71516005857E+01  0.49548420627E+01  0.12788834255E+02  0.15467712587E+02  0.51100000000E-03 0.  1.
         12    1    3    3    0    0  0.76951312244E+01  0.81175578737E+01  0.15937515175E+02  0.19470854638E+02  0.00000000000E+00 0. -1.
</event>
<event>
 7    1  0.3086024E-009  0.4614232E+02  0.7816164E-02  0.1320468E+00
        -11   -1    0    0    0    0  0.00000000000E+00  0.00000000000E+00  0.45593999997E+02  0.45594000000E+02  0.51100000000E-03 0.  1.
         11   -1    0    0    0    0 -0.00000000000E+00 -0.00000000000E+00 -0.45593999997E+02  0.45594000000E+02  0.51100000000E-03 0. -1.
    9900012    2    1    2    0    0  0.24476681577E+02 -0.23102802546E+01  0.37744776996E+02  0.46142317340E+02  0.99999961570E+01 0.  0.
         12    1    1    2    0    0 -0.24476681577E+02  0.23102802546E+01 -0.37744776996E+02  0.45045682660E+02  0.00000000000E+00 0. -1.
         11    1    3    3    0    0 -0.11453017449E+00 -0.13523017059E+00 -0.31602491485E+00  0.36232080789E+00  0.51100000000E-03 0. -1.
        -11    1    3    3    0    0  0.21277432916E+02 -0.27957437144E+01  0.28740527785E+02  0.35868694875E+02  0.51100000000E-03 0.  1.
        -12    1    3    3    0    0  0.33137788351E+01  0.62069363045E+00  0.93202741259E+01  0.99113016568E+01  0.00000000000E+00 0.  1.
</event>
<event>
 7    1  0.3086024E-009  0.4614232E+02  0.7816164E-02  0.1320468E+00
        -11   -1    0    0    0    0  0.00000000000E+00  0.00000000000E+00  0.45593999997E+02  0.45594000000E+02  0.51100000000E-03 0. -1.
         11   -1    0    0    0    0 -0.00000000000E+00 -0.00000000000E+00 -0.45593999997E+02  0.45594000000E+02  0.51100000000E-03 0.  1.
    9900012    2    1    2    0    0  0.18069576975E+02 -0.97593080913E+01 -0.40091893111E+02  0.46142316526E+02  0.99999887330E+01 0.  0.
         12    1    1    2    0    0 -0.18069576975E+02  0.97593080913E+01  0.40091893111E+02  0.45045683474E+02  0.00000000000E+00 0. -1.
         11    1    3    3    0    0  0.55843772915E+01 -0.27689827426E+00 -0.63536874495E+01  0.84635268568E+01  0.51100000000E-03 0. -1.
        -11    1    3    3    0    0  0.65557250356E+00 -0.30027408042E+01 -0.41774689919E+01  0.51862775749E+01  0.51100000000E-03 0.  1.
        -12    1    3    3    0    0  0.11829627180E+02 -0.64796690129E+01 -0.29560736669E+02  0.32492512094E+02  0.00000000000E+00 0.  1.
</event>
<event>
 7    1  0.3086024E-009  0.4614232E+02  0.7816164E-02  0.1320468E+00
        -11   -1    0    0    0    0  0.00000000000E+00  0.00000000000E+00  0.45593999997E+02  0.45594000000E+02  0.51100000000E-03 0. -1.
         11   -1    0    0    0    0 -0.00000000000E+00 -0.00000000000E+00 -0.45593999997E+02  0.45594000000E+02  0.51100000000E-03 0.  1.
    9900012    2    1    2    0    0  0.39547721802E+01 -0.13986318678E+02 -0.42636323621E+02  0.46142318463E+02  0.10000006405E+02 0.  0.
         12    1    1    2    0    0 -0.39547721802E+01  0.13986318678E+02  0.42636323621E+02  0.45045681537E+02  0.00000000000E+00 0. -1.
         11    1    3    3    0    0 -0.30253371840E+00 -0.14310443618E+01 -0.24090716798E+01  0.28183401561E+01  0.51100000000E-03 0. -1.
        -11    1    3    3    0    0  0.60070792055E+01 -0.47213542960E+01 -0.24546883358E+02  0.25708474670E+02  0.51100000000E-03 0.  1.
        -12    1    3    3    0    0 -0.17497733069E+01 -0.78339200204E+01 -0.15680368583E+02  0.17615503638E+02  0.00000000000E+00 0.  1.
</event>
<event>
 7    1  0.3086024E-009  0.4614232E+02  0.7816164E-02  0.1320468E+00
        -11   -1    0    0    0    0  0.00000000000E+00  0.00000000000E+00  0.45593999997E+02  0.45594000000E+02  0.51100000000E-03 0.  1.
         11   -1    0    0    0    0 -0.00000000000E+00 -0.00000000000E+00 -0.45593999997E+02  0.45594000000E+02  0.51100000000E-03 0. -1.
    9900012    2    1    2    0    0 -0.44999308873E+02 -0.44531687253E+00 -0.19943127777E+01  0.46142318857E+02  0.10000009994E+02 0.  0.
         12    1    1    2    0    0  0.44999308873E+02  0.44531687253E+00  0.19943127777E+01  0.45045681143E+02  0.00000000000E+00 0. -1.
         11    1    3    3    0    0 -0.15237945552E+02  0.14877829920E+01 -0.34328292593E+01  0.15690532173E+02  0.51100000000E-03 0. -1.
        -11    1    3    3    0    0 -0.94923145271E+01 -0.30059602296E+01  0.19585796017E+01  0.10147702513E+02  0.51100000000E-03 0.  1.
        -12    1    3    3    0    0 -0.20269048794E+02  0.10728603652E+01 -0.52006312008E+00  0.20304084171E+02  0.00000000000E+00 0.  1.
</event>
<event>
 7    1  0.3086024E-009  0.4614232E+02  0.7816164E-02  0.1320468E+00
        -11   -1    0    0    0    0  0.00000000000E+00  0.00000000000E+00  0.45593999997E+02  0.45594000000E+02  0.51100000000E-03 0.  1.
         11   -1    0    0    0    0 -0.00000000000E+00 -0.00000000000E+00 -0.45593999997E+02  0.45594000000E+02  0.51100000000E-03 0. -1.
    9900012    2    1    2    0    0 -0.19428348728E+02  0.40464746113E+02 -0.37758552487E+01  0.46142317686E+02  0.99999993117E+01 0.  0.
         12    1    1    2    0    0  0.19428348728E+02 -0.40464746113E+02  0.37758552487E+01  0.45045682314E+02  0.00000000000E+00 0. -1.
         11    1    3    3    0    0 -0.51225756300E+01  0.15565279964E+02 -0.38447028640E+01  0.16831531773E+02  0.51100000000E-03 0. -1.
        -11    1    3    3    0    0 -0.65894987773E+01  0.61453465060E+01 -0.48888126849E+00  0.90236236053E+01  0.51100000000E-03 0.  1.
         12    1    3    3    0    0 -0.77162743206E+01  0.18754119643E+02  0.55772888370E+00  0.20287162307E+02  0.00000000000E+00 0. -1.
</event>
<event>
 7    1  0.3086024E-009  0.4614232E+02  0.7816164E-02  0.1320468E+00
        -11   -1    0    0    0    0  0.00000000000E+00  0.00000000000E+00  0.45593999997E+02  0.45594000000E+02  0.51100000000E-03 0.  1.
         11   -1    0    0    0    0 -0.00000000000E+00 -0.00000000000E+00 -0.45593999997E+02  0.45594000000E+02  0.51100000000E-03 0. -1.
    9900012    2    1    2    0    0  0.24447461416E+01  0.43095436048E+02  0.12880996646E+02  0.46142318004E+02  0.10000002213E+02 0.  0.
         12    1    1    2    0    0 -0.24447461416E+01 -0.43095436048E+02 -0.12880996646E+02  0.45045681996E+02  0.00000000000E+00 0. -1.
         11    1    3    3    0    0  0.35364400326E+01  0.24681137559E+02  0.88331834465E+01  0.26451655702E+02  0.51100000000E-03 0. -1.
        -11    1    3    3    0    0  0.17305281646E+01  0.13292902559E+02  0.32029466974E+01  0.13782411037E+02  0.51100000000E-03 0.  1.
         12    1    3    3    0    0 -0.28222220556E+01  0.51213959304E+01  0.84486650263E+00  0.59082512654E+01  0.00000000000E+00 0. -1.
</event>
<event>
 7    1  0.3086024E-009  0.4614232E+02  0.7816164E-02  0.1320468E+00
        -11   -1    0    0    0    0  0.00000000000E+00  0.00000000000E+00  0.45593999997E+02  0.45594000000E+02  0.51100000000E-03 0.  1.
         11   -1    0    0    0    0 -0.00000000000E+00 -0.00000000000E+00 -0.45593999997E+02  0.45594000000E+02  0.51100000000E-03 0. -1.
    9900012    2    1    2    0    0 -0.24249496491E+02 -0.18491954650E+02  0.33153023811E+02  0.46142318135E+02  0.10000003410E+02 0.  0.
         12    1    1    2    0    0  0.24249496491E+02  0.18491954650E+02 -0.33153023811E+02  0.45045681865E+02  0.00000000000E+00 0. -1.
         11    1    3    3    0    0 -0.85268829763E+00 -0.26644626877E+01  0.16871258339E+01  0.32669301474E+01  0.51100000000E-03 0.  1.
        -11    1    3    3    0    0 -0.20006145739E+02 -0.12133783753E+02  0.21768487241E+02  0.31958435702E+02  0.51100000000E-03 0. -1.
         12    1    3    3    0    0 -0.33906624537E+01 -0.36937082100E+01  0.96974107366E+01  0.10916952286E+02  0.00000000000E+00 0. -1.
</event>
<event>
 7    1  0.3086024E-009  0.4614232E+02  0.7816164E-02  0.1320468E+00
        -11   -1    0    0    0    0  0.00000000000E+00  0.00000000000E+00  0.45593999997E+02  0.45594000000E+02  0.51100000000E-03 0. -1.
         11   -1    0    0    0    0 -0.00000000000E+00 -0.00000000000E+00 -0.45593999997E+02  0.45594000000E+02  0.51100000000E-03 0.  1.
    9900012    2    1    2    0    0  0.17029429096E+02 -0.26257046364E+02 -0.32398759802E+02  0.46142316790E+02  0.99999911488E+01 0.  0.
         12    1    1    2    0    0 -0.17029429096E+02  0.26257046364E+02  0.32398759802E+02  0.45045683210E+02  0.00000000000E+00 0. -1.
         11    1    3    3    0    0  0.11989737100E+02 -0.14591777361E+02 -0.15623713719E+02  0.24510695480E+02  0.51100000000E-03 0.  1.
        -11    1    3    3    0    0  0.48840053680E+01 -0.51195884352E+01 -0.94765834882E+01  0.11826636422E+02  0.51100000000E-03 0. -1.
         12    1    3    3    0    0  0.15568662834E+00 -0.65456805677E+01 -0.72984625943E+01  0.98049848884E+01  0.00000000000E+00 0. -1.
</event>
<event>
 7    1  0.3086024E-009  0.4614232E+02  0.7816164E-02  0.1320468E+00
        -11   -1    0    0    0    0  0.00000000000E+00  0.00000000000E+00  0.45593999997E+02  0.45594000000E+02  0.51100000000E-03 0.  1.
         11   -1    0    0    0    0 -0.00000000000E+00 -0.00000000000E+00 -0.45593999997E+02  0.45594000000E+02  0.51100000000E-03 0. -1.
    9900012    2    1    2    0    0  0.12567150626E+02  0.32383793796E+02  0.28678737863E+02  0.46142318954E+02  0.10000010876E+02 0.  0.
         12    1    1    2    0    0 -0.12567150626E+02 -0.32383793796E+02 -0.28678737863E+02  0.45045681046E+02  0.00000000000E+00 0. -1.
         11    1    3    3    0    0  0.74626125394E+01  0.22654838413E+02  0.17191648055E+02  0.29402126667E+02  0.51100000000E-03 0. -1.
        -11    1    3    3    0    0  0.25007573257E+01  0.50610020937E+01  0.22680152535E+01  0.60837014100E+01  0.51100000000E-03 0.  1.
         12    1    3    3    0    0  0.26037807614E+01  0.46679532895E+01  0.92190745547E+01  0.10656490877E+02  0.00000000000E+00 0. -1.
</event>
<event>
 7    1  0.3086024E-009  0.4614232E+02  0.7816164E-02  0.1320468E+00
        -11   -1    0    0    0    0  0.00000000000E+00  0.00000000000E+00  0.45593999997E+02  0.45594000000E+02  0.51100000000E-03 0.  1.
         11   -1    0    0    0    0 -0.00000000000E+00 -0.00000000000E+00 -0.45593999997E+02  0.45594000000E+02  0.51100000000E-03 0. -1.
    9900012    2    1    2    0    0  0.15899532856E+02  0.33362515090E+02 -0.25753853293E+02  0.46142317436E+02  0.99999970357E+01 0.  0.
         12    1    1    2    0    0 -0.15899532856E+02 -0.33362515090E+02  0.25753853293E+02  0.45045682564E+02  0.00000000000E+00 0. -1.
         11    1    3    3    0    0  0.31686072991E+01  0.32002634543E+01 -0.63924067733E+01  0.78195027342E+01  0.51100000000E-03 0. -1.
        -11    1    3    3    0    0  0.99445223402E+00  0.65812675099E+01 -0.49755682162E+01  0.83101321661E+01  0.51100000000E-03 0.  1.
        -12    1    3    3    0    0  0.11736473323E+02  0.23580984126E+02 -0.14385878304E+02  0.30012682536E+02  0.00000000000E+00 0.  1.
</event>
<event>
 7    1  0.3086024E-009  0.4614232E+02  0.7816164E-02  0.1320468E+00
        -11   -1    0    0    0    0  0.00000000000E+00  0.00000000000E+00  0.45593999997E+02  0.45594000000E+02  0.51100000000E-03 0.  1.
         11   -1    0    0    0    0 -0.00000000000E+00 -0.00000000000E+00 -0.45593999997E+02  0.45594000000E+02  0.51100000000E-03 0. -1.
    9900012    2    1    2    0    0  0.43755590622E+02  0.10127597214E+02  0.34631582322E+01  0.46142318731E+02  0.10000008845E+02 0.  0.
         12    1    1    2    0    0 -0.43755590622E+02 -0.10127597214E+02 -0.34631582322E+01  0.45045681269E+02  0.00000000000E+00 0. -1.
         11    1    3    3    0    0  0.16785452606E+02  0.51829459430E+01  0.49501782254E+01  0.18251537265E+02  0.51100000000E-03 0. -1.
        -11    1    3    3    0    0  0.68261268294E+01  0.34555128323E+01 -0.52479555752E+00  0.76688973825E+01  0.51100000000E-03 0.  1.
        -12    1    3    3    0    0  0.20144011187E+02  0.14891384383E+01 -0.96222443571E+00  0.20221884083E+02  0.00000000000E+00 0.  1.
</event>
<event>
 7    1  0.3086024E-009  0.4614232E+02  0.7816164E-02  0.1320468E+00
        -11   -1    0    0    0    0  0.00000000000E+00  0.00000000000E+00  0.45593999997E+02  0.45594000000E+02  0.51100000000E-03 0.  1.
         11   -1    0    0    0    0 -0.00000000000E+00 -0.00000000000E+00 -0.45593999997E+02  0.45594000000E+02  0.51100000000E-03 0. -1.
    9900012    2    1    2    0    0 -0.21220241918E+02  0.28349185097E+02  0.27841309307E+02  0.46142318001E+02  0.10000002192E+02 0.  0.
         12    1    1    2    0    0  0.21220241918E+02 -0.28349185097E+02 -0.27841309307E+02  0.45045681999E+02  0.00000000000E+00 0. -1.
         11    1    3    3    0    0 -0.22565739853E+01  0.77667888090E+01  0.78749788461E+01  0.11288508610E+02  0.51100000000E-03 0. -1.
        -11    1    3    3    0    0 -0.29234085332E+01  0.46656539077E+01  0.15985612606E+01  0.57332401139E+01  0.51100000000E-03 0.  1.
         12    1    3    3    0    0 -0.16040259400E+02  0.15916742381E+02  0.18367769201E+02  0.29120569277E+02  0.00000000000E+00 0. -1.
</event>
<event>
 7    1  0.3086024E-009  0.4614232E+02  0.7816164E-02  0.1320468E+00
        -11   -1    0    0    0    0  0.00000000000E+00  0.00000000000E+00  0.45593999997E+02  0.45594000000E+02  0.51100000000E-03 0. -1.
         11   -1    0    0    0    0 -0.00000000000E+00 -0.00000000000E+00 -0.45593999997E+02  0.45594000000E+02  0.51100000000E-03 0.  1.
    9900012    2    1    2    0    0 -0.78178281589E+01 -0.19584786234E+02 -0.39804913883E+02  0.46142318096E+02  0.10000003057E+02 0.  0.
         12    1    1    2    0    0  0.78178281589E+01  0.19584786234E+02  0.39804913883E+02  0.45045681904E+02  0.00000000000E+00 0. -1.
         11    1    3    3    0    0 -0.56395927887E-01  0.74269613221E+00 -0.41227305200E+00  0.85132095945E+00  0.51100000000E-03 0. -1.
        -11    1    3    3    0    0 -0.25143601757E+01 -0.63716192372E+01 -0.79598495085E+01  0.10501368637E+02  0.51100000000E-03 0.  1.
        -12    1    3    3    0    0 -0.52470720553E+01 -0.13955863129E+02 -0.31432791322E+02  0.34789628500E+02  0.00000000000E+00 0.  1.
</event>
<event>
 7    1  0.3086024E-009  0.4614232E+02  0.7816164E-02  0.1320468E+00
        -11   -1    0    0    0    0  0.00000000000E+00  0.00000000000E+00  0.45593999997E+02  0.45594000000E+02  0.51100000000E-03 0. -1.
         11   -1    0    0    0    0 -0.00000000000E+00 -0.00000000000E+00 -0.45593999997E+02  0.45594000000E+02  0.51100000000E-03 0.  1.
    9900012    2    1    2    0    0 -0.41666796230E+02 -0.25578794524E+01 -0.16924802628E+02  0.46142316529E+02  0.99999887627E+01 0.  0.
         12    1    1    2    0    0  0.41666796230E+02  0.25578794524E+01  0.16924802628E+02  0.45045683471E+02  0.00000000000E+00 0. -1.
         11    1    3    3    0    0 -0.16504138048E+02 -0.43267591815E+00 -0.28132688533E+01  0.16747783825E+02  0.51100000000E-03 0. -1.
        -11    1    3    3    0    0 -0.11173281531E+02  0.22664894857E+00 -0.36081311682E+01  0.11743602543E+02  0.51100000000E-03 0.  1.
         12    1    3    3    0    0 -0.13989376652E+02 -0.23518524828E+01 -0.10503402606E+02  0.17650930160E+02  0.00000000000E+00 0. -1.
</event>
<event>
 7    1  0.3086024E-009  0.4614232E+02  0.7816164E-02  0.1320468E+00
        -11   -1    0    0    0    0  0.00000000000E+00  0.00000000000E+00  0.45593999997E+02  0.45594000000E+02  0.51100000000E-03 0.  1.
         11   -1    0    0    0    0 -0.00000000000E+00 -0.00000000000E+00 -0.45593999997E+02  0.45594000000E+02  0.51100000000E-03 0. -1.
    9900012    2    1    2    0    0 -0.16235710754E+02 -0.61339903337E+01  0.41567889153E+02  0.46142317080E+02  0.99999937919E+01 0.  0.
         12    1    1    2    0    0  0.16235710754E+02  0.61339903337E+01 -0.41567889153E+02  0.45045682920E+02  0.00000000000E+00 0. -1.
         11    1    3    3    0    0 -0.38229047646E+01  0.75148433014E+00  0.11609766000E+02  0.12246060443E+02  0.51100000000E-03 0. -1.
        -11    1    3    3    0    0 -0.13028360073E+02 -0.55079734396E+01  0.28398989931E+02  0.31726622369E+02  0.51100000000E-03 0.  1.
        -12    1    3    3    0    0  0.61555408419E+00 -0.13775012243E+01  0.15591332217E+01  0.21696342679E+01  0.00000000000E+00 0.  1.
</event>
<event>
 7    1  0.3086024E-009  0.4614232E+02  0.7816164E-02  0.1320468E+00
        -11   -1    0    0    0    0  0.00000000000E+00  0.00000000000E+00  0.45593999997E+02  0.45594000000E+02  0.51100000000E-03 0.  1.
         11   -1    0    0    0    0 -0.00000000000E+00 -0.00000000000E+00 -0.45593999997E+02  0.45594000000E+02  0.51100000000E-03 0. -1.
    9900012    2    1    2    0    0  0.10907409189E+02 -0.35134131863E+02  0.25994898080E+02  0.46142317375E+02  0.99999964782E+01 0.  0.
         12    1    1    2    0    0 -0.10907409189E+02  0.35134131863E+02 -0.25994898080E+02  0.45045682625E+02  0.00000000000E+00 0. -1.
         11    1    3    3    0    0 -0.56637949999E+00 -0.92371788375E+00  0.24277834238E+01  0.26586035960E+01  0.51100000000E-03 0. -1.
        -11    1    3    3    0    0  0.98196559462E+01 -0.33093550445E+02  0.22650212687E+02  0.41287296581E+02  0.51100000000E-03 0.  1.
         12    1    3    3    0    0  0.16541327432E+01 -0.11168635343E+01  0.91690196957E+00  0.21964171981E+01  0.00000000000E+00 0. -1.
</event>
<event>
 7    1  0.3086024E-009  0.4614232E+02  0.7816164E-02  0.1320468E+00
        -11   -1    0    0    0    0  0.00000000000E+00  0.00000000000E+00  0.45593999997E+02  0.45594000000E+02  0.51100000000E-03 0.  1.
         11   -1    0    0    0    0 -0.00000000000E+00 -0.00000000000E+00 -0.45593999997E+02  0.45594000000E+02  0.51100000000E-03 0. -1.
    9900012    2    1    2    0    0 -0.31751840988E+02  0.31952044757E+02  0.30560848810E-01  0.46142317584E+02  0.99999983883E+01 0.  0.
         12    1    1    2    0    0  0.31751840988E+02 -0.31952044757E+02 -0.30560848810E-01  0.45045682416E+02  0.00000000000E+00 0. -1.
         11    1    3    3    0    0 -0.14018629067E+02  0.16643224642E+02 -0.15166684444E+01  0.21813279690E+02  0.51100000000E-03 0. -1.
        -11    1    3    3    0    0 -0.18546643060E+01  0.32930196201E+01  0.22604027586E+01  0.44037687040E+01  0.51100000000E-03 0.  1.
        -12    1    3    3    0    0 -0.15878547616E+02  0.12015800495E+02 -0.71317346539E+00  0.19925269190E+02  0.00000000000E+00 0.  1.
</event>
<event>
 7    1  0.3086024E-009  0.4614232E+02  0.7816164E-02  0.1320468E+00
        -11   -1    0    0    0    0  0.00000000000E+00  0.00000000000E+00  0.45593999997E+02  0.45594000000E+02  0.51100000000E-03 0.  1.
         11   -1    0    0    0    0 -0.00000000000E+00 -0.00000000000E+00 -0.45593999997E+02  0.45594000000E+02  0.51100000000E-03 0. -1.
    9900012    2    1    2    0    0 -0.15824066922E+02 -0.31520254325E+02  0.28021166108E+02  0.46142320110E+02  0.10000021422E+02 0.  0.
         12    1    1    2    0    0  0.15824066922E+02  0.31520254325E+02 -0.28021166108E+02  0.45045679890E+02  0.00000000000E+00 0. -1.
         11    1    3    3    0    0 -0.83611364937E+01 -0.17337369571E+02  0.11751934648E+02  0.22552182939E+02  0.51100000000E-03 0. -1.
        -11    1    3    3    0    0 -0.75403148086E+01 -0.96619034267E+01  0.97743689197E+01  0.15676320145E+02  0.51100000000E-03 0.  1.
         12    1    3    3    0    0  0.77384380585E-01 -0.45209813281E+01  0.64948625399E+01  0.79138170261E+01  0.00000000000E+00 0. -1.
</event>
<event>
 7    1  0.3086024E-009  0.4614232E+02  0.7816164E-02  0.1320468E+00
        -11   -1    0    0    0    0  0.00000000000E+00  0.00000000000E+00  0.45593999997E+02  0.45594000000E+02  0.51100000000E-03 0.  1.
         11   -1    0    0    0    0 -0.00000000000E+00 -0.00000000000E+00 -0.45593999997E+02  0.45594000000E+02  0.51100000000E-03 0. -1.
    9900012    2    1    2    0    0 -0.93538399165E+01 -0.43907708767E+02 -0.37057223524E+01  0.46142316650E+02  0.99999898666E+01 0.  0.
         12    1    1    2    0    0  0.93538399165E+01  0.43907708767E+02  0.37057223524E+01  0.45045683350E+02  0.00000000000E+00 0. -1.
         11    1    3    3    0    0 -0.27479679877E+01 -0.10754448613E+02 -0.42300241340E+01  0.11878661434E+02  0.51100000000E-03 0. -1.
        -11    1    3    3    0    0 -0.15565536141E+01 -0.21012358571E+02  0.11346576512E+01  0.21100462557E+02  0.51100000000E-03 0.  1.
        -12    1    3    3    0    0 -0.50493183147E+01 -0.12140901583E+02 -0.61035586952E+00  0.13163192659E+02  0.00000000000E+00 0.  1.
</event>
<event>
 7    1  0.3086024E-009  0.4614231E+02  0.7816164E-02  0.1320468E+00
        -11   -1    0    0    0    0  0.00000000000E+00  0.00000000000E+00  0.45593999997E+02  0.45594000000E+02  0.51100000000E-03 0.  1.
         11   -1    0    0    0    0 -0.00000000000E+00 -0.00000000000E+00 -0.45593999997E+02  0.45594000000E+02  0.51100000000E-03 0. -1.
    9900012    2    1    2    0    0 -0.31795649649E+02  0.10007988460E+00  0.31908314097E+02  0.46142313623E+02  0.99999622698E+01 0.  0.
         12    1    1    2    0    0  0.31795649649E+02 -0.10007988460E+00 -0.31908314097E+02  0.45045686377E+02  0.00000000000E+00 0. -1.
         11    1    3    3    0    0 -0.16923532621E+02  0.18176148273E+01  0.20578008824E+02  0.26705132979E+02  0.51100000000E-03 0. -1.
        -11    1    3    3    0    0 -0.47262848115E+01 -0.23575143006E+01  0.58744952583E+01  0.78997048424E+01  0.51100000000E-03 0.  1.
         12    1    3    3    0    0 -0.10145832217E+02  0.63997935797E+00  0.54558100149E+01  0.11537475802E+02  0.00000000000E+00 0. -1.
</event>
<event>
 7    1  0.3086024E-009  0.4614232E+02  0.7816164E-02  0.1320468E+00
        -11   -1    0    0    0    0  0.00000000000E+00  0.00000000000E+00  0.45593999997E+02  0.45594000000E+02  0.51100000000E-03 0.  1.
         11   -1    0    0    0    0 -0.00000000000E+00 -0.00000000000E+00 -0.45593999997E+02  0.45594000000E+02  0.51100000000E-03 0. -1.
    9900012    2    1    2    0    0 -0.39287764328E+02 -0.86663881713E+01  0.20260274883E+02  0.46142318208E+02  0.10000004071E+02 0.  0.
         12    1    1    2    0    0  0.39287764328E+02  0.86663881713E+01 -0.20260274883E+02  0.45045681792E+02  0.00000000000E+00 0. -1.
         11    1    3    3    0    0 -0.26921551893E+02 -0.88749250196E+01  0.12050625963E+02  0.30801815479E+02  0.51100000000E-03 0. -1.
        -11    1    3    3    0    0 -0.42806275451E+01 -0.13277048365E+01  0.15138229199E+01  0.47305636458E+01  0.51100000000E-03 0.  1.
         12    1    3    3    0    0 -0.80855848897E+01  0.15362416848E+01  0.66958259999E+01  0.10609939083E+02  0.00000000000E+00 0. -1.
</event>
<event>
 7    1  0.3086024E-009  0.4614232E+02  0.7816164E-02  0.1320468E+00
        -11   -1    0    0    0    0  0.00000000000E+00  0.00000000000E+00  0.45593999997E+02  0.45594000000E+02  0.51100000000E-03 0. -1.
         11   -1    0    0    0    0 -0.00000000000E+00 -0.00000000000E+00 -0.45593999997E+02  0.45594000000E+02  0.51100000000E-03 0.  1.
    9900012    2    1    2    0    0 -0.10023954079E+02  0.25096861144E+02 -0.36038611043E+02  0.46142316738E+02  0.99999906690E+01 0.  0.
         12    1    1    2    0    0  0.10023954079E+02 -0.25096861144E+02  0.36038611043E+02  0.45045683262E+02  0.00000000000E+00 0. -1.
         11    1    3    3    0    0 -0.62339122779E-01  0.70058417352E+01 -0.46069905483E+01  0.83851098239E+01  0.51100000000E-03 0. -1.
        -11    1    3    3    0    0 -0.32051317343E+01  0.86514130117E+01 -0.15630630159E+02  0.18150383356E+02  0.51100000000E-03 0.  1.
        -12    1    3    3    0    0 -0.67564832218E+01  0.94396063975E+01 -0.15800990335E+02  0.19606823558E+02  0.00000000000E+00 0.  1.
</event>
<event>
 7    1  0.3086024E-009  0.4614232E+02  0.7816164E-02  0.1320468E+00
        -11   -1    0    0    0    0  0.00000000000E+00  0.00000000000E+00  0.45593999997E+02  0.45594000000E+02  0.51100000000E-03 0.  1.
         11   -1    0    0    0    0 -0.00000000000E+00 -0.00000000000E+00 -0.45593999997E+02  0.45594000000E+02  0.51100000000E-03 0. -1.
    9900012    2    1    2    0    0 -0.21448637191E+02  0.16279560988E+02  0.36111566142E+02  0.46142319268E+02  0.10000013743E+02 0.  0.
         12    1    1    2    0    0  0.21448637191E+02 -0.16279560988E+02 -0.36111566142E+02  0.45045680732E+02  0.00000000000E+00 0. -1.
         11    1    3    3    0    0 -0.35063126174E+01  0.12540977773E+01  0.69281375502E+01  0.78654993218E+01  0.51100000000E-03 0. -1.
        -11    1    3    3    0    0 -0.36980977776E+01 -0.41968198735E+00  0.36901140564E+01  0.52410878788E+01  0.51100000000E-03 0.  1.
        -12    1    3    3    0    0 -0.14244226796E+02  0.15445145198E+02  0.25493314536E+02  0.33035732068E+02  0.00000000000E+00 0.  1.
</event>
<event>
 7    1  0.3086024E-009  0.4614232E+02  0.7816164E-02  0.1320468E+00
        -11   -1    0    0    0    0  0.00000000000E+00  0.00000000000E+00  0.45593999997E+02  0.45594000000E+02  0.51100000000E-03 0.  1.
         11   -1    0    0    0    0 -0.00000000000E+00 -0.00000000000E+00 -0.45593999997E+02  0.45594000000E+02  0.51100000000E-03 0. -1.
    9900012    2    1    2    0    0 -0.37011349796E+02 -0.16941503942E+02  0.19294017865E+02  0.46142315468E+02  0.99999790928E+01 0.  0.
         12    1    1    2    0    0  0.37011349796E+02  0.16941503942E+02 -0.19294017865E+02  0.45045684532E+02  0.00000000000E+00 0. -1.
         11    1    3    3    0    0 -0.11075494276E+02 -0.64315484698E+01  0.22197802740E+01  0.12998415823E+02  0.51100000000E-03 0. -1.
        -11    1    3    3    0    0 -0.16936068078E+02 -0.90946027015E+01  0.10453939347E+02  0.21882117090E+02  0.51100000000E-03 0.  1.
        -12    1    3    3    0    0 -0.89997874424E+01 -0.14153527707E+01  0.66202982448E+01  0.11261782555E+02  0.00000000000E+00 0.  1.
</event>
<event>
 7    1  0.3086024E-009  0.4614232E+02  0.7816164E-02  0.1320468E+00
        -11   -1    0    0    0    0  0.00000000000E+00  0.00000000000E+00  0.45593999997E+02  0.45594000000E+02  0.51100000000E-03 0.  1.
         11   -1    0    0    0    0 -0.00000000000E+00 -0.00000000000E+00 -0.45593999997E+02  0.45594000000E+02  0.51100000000E-03 0. -1.
    9900012    2    1    2    0    0 -0.19167227213E+02 -0.39073082272E+02  0.11620027831E+02  0.46142318696E+02  0.10000008528E+02 0.  0.
         12    1    1    2    0    0  0.19167227213E+02  0.39073082272E+02 -0.11620027831E+02  0.45045681304E+02  0.00000000000E+00 0. -1.
         11    1    3    3    0    0 -0.74594283569E+00 -0.42014826918E+01  0.27231742968E+01  0.50620713187E+01  0.51100000000E-03 0. -1.
        -11    1    3    3    0    0 -0.28037262012E+01 -0.14348600167E+01  0.12709488881E+01  0.33963237797E+01  0.51100000000E-03 0.  1.
        -12    1    3    3    0    0 -0.15617558176E+02 -0.33436739564E+02  0.76259046463E+01  0.37683923598E+02  0.00000000000E+00 0.  1.
</event>
<event>
 7    1  0.3086024E-009  0.4614232E+02  0.7816164E-02  0.1320468E+00
        -11   -1    0    0    0    0  0.00000000000E+00  0.00000000000E+00  0.45593999997E+02  0.45594000000E+02  0.51100000000E-03 0.  1.
         11   -1    0    0    0    0 -0.00000000000E+00 -0.00000000000E+00 -0.45593999997E+02  0.45594000000E+02  0.51100000000E-03 0. -1.
    9900012    2    1    2    0    0  0.27948847717E+02 -0.12287369129E+01  0.35305319956E+02  0.46142317628E+02  0.99999987897E+01 0.  0.
         12    1    1    2    0    0 -0.27948847717E+02  0.12287369129E+01 -0.35305319956E+02  0.45045682372E+02  0.00000000000E+00 0. -1.
         11    1    3    3    0    0  0.17896927805E+01 -0.16170938725E+01  0.34386444939E+01  0.42002701173E+01  0.51100000000E-03 0. -1.
        -11    1    3    3    0    0  0.43873054105E-01 -0.10901860858E+01  0.96937031335E+00  0.14594895040E+01  0.51100000000E-03 0.  1.
        -12    1    3    3    0    0  0.26115281883E+02  0.14785430454E+01  0.30897305149E+02  0.40482558007E+02  0.00000000000E+00 0.  1.
</event>
<event>
 7    1  0.3086024E-009  0.4614232E+02  0.7816164E-02  0.1320468E+00
        -11   -1    0    0    0    0  0.00000000000E+00  0.00000000000E+00  0.45593999997E+02  0.45594000000E+02  0.51100000000E-03 0. -1.
         11   -1    0    0    0    0 -0.00000000000E+00 -0.00000000000E+00 -0.45593999997E+02  0.45594000000E+02  0.51100000000E-03 0.  1.
    9900012    2    1    2    0    0  0.16804166938E+02  0.38065833474E+02  0.17254733228E+02  0.46142317373E+02  0.99999964580E+01 0.  0.
         12    1    1    2    0    0 -0.16804166938E+02 -0.38065833474E+02 -0.17254733228E+02  0.45045682627E+02  0.00000000000E+00 0. -1.
         11    1    3    3    0    0  0.55065447575E+01  0.94570024270E+01  0.70899426918E+00  0.10966293959E+02  0.51100000000E-03 0. -1.
        -11    1    3    3    0    0  0.56505928139E+01  0.10811945483E+02  0.47547074733E+01  0.13093303926E+02  0.51100000000E-03 0.  1.
         12    1    3    3    0    0  0.56470293667E+01  0.17796885565E+02  0.11791031486E+02  0.22082719488E+02  0.00000000000E+00 0. -1.
</event>
<event>
 7    1  0.3086024E-009  0.4614232E+02  0.7816164E-02  0.1320468E+00
        -11   -1    0    0    0    0  0.00000000000E+00  0.00000000000E+00  0.45593999997E+02  0.45594000000E+02  0.51100000000E-03 0.  1.
         11   -1    0    0    0    0 -0.00000000000E+00 -0.00000000000E+00 -0.45593999997E+02  0.45594000000E+02  0.51100000000E-03 0. -1.
    9900012    2    1    2    0    0  0.36347459974E+02 -0.23871352175E+02  0.11753057250E+02  0.46142315901E+02  0.99999830392E+01 0.  0.
         12    1    1    2    0    0 -0.36347459974E+02  0.23871352175E+02 -0.11753057250E+02  0.45045684099E+02  0.00000000000E+00 0. -1.
         11    1    3    3    0    0  0.11172532628E+02 -0.43851900922E+01  0.51658376898E+01  0.13066799791E+02  0.51100000000E-03 0. -1.
        -11    1    3    3    0    0  0.20867335547E+02 -0.13516789697E+02  0.65627328650E+01  0.25714174291E+02  0.51100000000E-03 0.  1.
         12    1    3    3    0    0  0.43075917989E+01 -0.59693723862E+01  0.24486695236E-01  0.73613418199E+01  0.00000000000E+00 0. -1.
</event>
<event>
 7    1  0.3086024E-009  0.4614232E+02  0.7816164E-02  0.1320468E+00
        -11   -1    0    0    0    0  0.00000000000E+00  0.00000000000E+00  0.45593999997E+02  0.45594000000E+02  0.51100000000E-03 0.  1.
         11   -1    0    0    0    0 -0.00000000000E+00 -0.00000000000E+00 -0.45593999997E+02  0.45594000000E+02  0.51100000000E-03 0. -1.
    9900012    2    1    2    0    0  0.14823110612E+02  0.10415247636E+02  0.41242108233E+02  0.46142317820E+02  0.10000000541E+02 0.  0.
         12    1    1    2    0    0 -0.14823110612E+02 -0.10415247636E+02 -0.41242108233E+02  0.45045682180E+02  0.00000000000E+00 0. -1.
         11    1    3    3    0    0 -0.33744619920E-01 -0.19201295454E+00  0.80289708393E-01  0.21084205576E+00  0.51100000000E-03 0. -1.
        -11    1    3    3    0    0  0.45247493520E+01  0.63654835096E+01  0.91641279673E+01  0.12040514053E+02  0.51100000000E-03 0.  1.
        -12    1    3    3    0    0  0.10332105880E+02  0.42417770805E+01  0.31997690557E+02  0.33890961711E+02  0.00000000000E+00 0.  1.
</event>
<event>
 7    1  0.3086024E-009  0.4614232E+02  0.7816164E-02  0.1320468E+00
        -11   -1    0    0    0    0  0.00000000000E+00  0.00000000000E+00  0.45593999997E+02  0.45594000000E+02  0.51100000000E-03 0.  1.
         11   -1    0    0    0    0 -0.00000000000E+00 -0.00000000000E+00 -0.45593999997E+02  0.45594000000E+02  0.51100000000E-03 0. -1.
    9900012    2    1    2    0    0 -0.13492246170E+02  0.20894283013E+02  0.37556645819E+02  0.46142318581E+02  0.10000007477E+02 0.  0.
         12    1    1    2    0    0  0.13492246170E+02 -0.20894283013E+02 -0.37556645819E+02  0.45045681419E+02  0.00000000000E+00 0. -1.
         11    1    3    3    0    0  0.32722350005E+00  0.23571351172E+01  0.12468288280E+01  0.26865858570E+01  0.51100000000E-03 0. -1.
        -11    1    3    3    0    0 -0.93487604314E+01  0.79164955069E+01  0.20701531104E+02  0.24054596505E+02  0.51100000000E-03 0.  1.
        -12    1    3    3    0    0 -0.44707092385E+01  0.10620652389E+02  0.15608285887E+02  0.19401136219E+02  0.00000000000E+00 0.  1.
</event>
<event>
 7    1  0.3086024E-009  0.4614232E+02  0.7816164E-02  0.1320468E+00
        -11   -1    0    0    0    0  0.00000000000E+00  0.00000000000E+00  0.45593999997E+02  0.45594000000E+02  0.51100000000E-03 0. -1.
         11   -1    0    0    0    0 -0.00000000000E+00 -0.00000000000E+00 -0.45593999997E+02  0.45594000000E+02  0.51100000000E-03 0.  1.
    9900012    2    1    2    0    0 -0.37428556717E+02 -0.19187033788E+02 -0.16126803678E+02  0.46142324066E+02  0.10000057490E+02 0.  0.
         12    1    1    2    0    0  0.37428556717E+02  0.19187033788E+02  0.16126803678E+02  0.45045675934E+02  0.00000000000E+00 0. -1.
         11    1    3    3    0    0 -0.41942285475E+01 -0.40595993438E+01 -0.85601057602E+00  0.58995469578E+01  0.51100000000E-03 0. -1.
        -11    1    3    3    0    0 -0.45471469926E+01 -0.36941612014E+01 -0.49874488891E+01  0.76940249179E+01  0.51100000000E-03 0.  1.
         12    1    3    3    0    0 -0.28687181177E+02 -0.11433273243E+02 -0.10283344213E+02  0.32548752190E+02  0.00000000000E+00 0. -1.
</event>
<event>
 7    1  0.3086024E-009  0.4614232E+02  0.7816164E-02  0.1320468E+00
        -11   -1    0    0    0    0  0.00000000000E+00  0.00000000000E+00  0.45593999997E+02  0.45594000000E+02  0.51100000000E-03 0. -1.
         11   -1    0    0    0    0 -0.00000000000E+00 -0.00000000000E+00 -0.45593999997E+02  0.45594000000E+02  0.51100000000E-03 0.  1.
    9900012    2    1    2    0    0  0.44561250274E+02  0.56996726686E+01 -0.33049097341E+01  0.46142315158E+02  0.99999762607E+01 0.  0.
         12    1    1    2    0    0 -0.44561250274E+02 -0.56996726686E+01  0.33049097341E+01  0.45045684842E+02  0.00000000000E+00 0. -1.
         11    1    3    3    0    0  0.17109454088E+02  0.49036526020E+01  0.14910683128E+01  0.17860641450E+02  0.51100000000E-03 0. -1.
        -11    1    3    3    0    0  0.94881655277E+01 -0.19802753014E+01 -0.14862531093E+01  0.98059025039E+01  0.51100000000E-03 0.  1.
        -12    1    3    3    0    0  0.17963630659E+02  0.27762953680E+01 -0.33097249377E+01  0.18475771204E+02  0.00000000000E+00 0.  1.
</event>
<event>
 7    1  0.3252130E-009  0.4614232E+02  0.7816164E-02  0.1320468E+00
        -11   -1    0    0    0    0  0.00000000000E+00  0.00000000000E+00  0.45593999997E+02  0.45594000000E+02  0.51100000000E-03 0. -1.
         11   -1    0    0    0    0 -0.00000000000E+00 -0.00000000000E+00 -0.45593999997E+02  0.45594000000E+02  0.51100000000E-03 0.  1.
    9900012    2    1    2    0    0  0.34225534484E+02 -0.10179883431E+02 -0.27460813222E+02  0.46142317630E+02  0.99999988045E+01 0.  0.
         12    1    1    2    0    0 -0.34225534484E+02  0.10179883431E+02  0.27460813222E+02  0.45045682370E+02  0.00000000000E+00 0. -1.
         11    1    3    3    0    0  0.10421038886E+01  0.11267294467E+01 -0.11309222967E+01  0.19064326012E+01  0.51100000000E-03 0. -1.
        -11    1    3    3    0    0  0.23862139173E+02 -0.58619246131E+01 -0.16192764127E+02  0.29427358978E+02  0.51100000000E-03 0.  1.
        -12    1    3    3    0    0  0.93212914220E+01 -0.54446882650E+01 -0.10137126797E+02  0.14808526050E+02  0.00000000000E+00 0.  1.
</event>
<event>
 7    1  0.3086024E-009  0.4614232E+02  0.7816164E-02  0.1320468E+00
        -11   -1    0    0    0    0  0.00000000000E+00  0.00000000000E+00  0.45593999997E+02  0.45594000000E+02  0.51100000000E-03 0.  1.
         11   -1    0    0    0    0 -0.00000000000E+00 -0.00000000000E+00 -0.45593999997E+02  0.45594000000E+02  0.51100000000E-03 0. -1.
    9900012    2    1    2    0    0  0.13881215621E+02 -0.22620671629E+02  0.36396848623E+02  0.46142317391E+02  0.99999966229E+01 0.  0.
         12    1    1    2    0    0 -0.13881215621E+02  0.22620671629E+02 -0.36396848623E+02  0.45045682609E+02  0.00000000000E+00 0. -1.
         11    1    3    3    0    0  0.26463321042E+01 -0.53341407927E+01  0.35872878669E+01  0.69516016934E+01  0.51100000000E-03 0. -1.
        -11    1    3    3    0    0  0.22336845581E+01 -0.83919165398E+01  0.11558426264E+02  0.14457206780E+02  0.51100000000E-03 0.  1.
        -12    1    3    3    0    0  0.90011989587E+01 -0.88946142964E+01  0.21251134492E+02  0.24733508918E+02  0.00000000000E+00 0.  1.
</event>
<event>
 7    1  0.3086024E-009  0.4614232E+02  0.7816164E-02  0.1320468E+00
        -11   -1    0    0    0    0  0.00000000000E+00  0.00000000000E+00  0.45593999997E+02  0.45594000000E+02  0.51100000000E-03 0.  1.
         11   -1    0    0    0    0 -0.00000000000E+00 -0.00000000000E+00 -0.45593999997E+02  0.45594000000E+02  0.51100000000E-03 0. -1.
    9900012    2    1    2    0    0  0.96184498602E+01  0.41051076241E+01  0.43814917979E+02  0.46142317368E+02  0.99999964141E+01 0.  0.
         12    1    1    2    0    0 -0.96184498602E+01 -0.41051076241E+01 -0.43814917979E+02  0.45045682632E+02  0.00000000000E+00 0. -1.
         11    1    3    3    0    0  0.54412822982E+01  0.33213256217E+01  0.16388098036E+02  0.17584325817E+02  0.51100000000E-03 0. -1.
        -11    1    3    3    0    0  0.59358968002E+01  0.11537895470E+01  0.18898740155E+02  0.19842592594E+02  0.51100000000E-03 0.  1.
         12    1    3    3    0    0 -0.17587292382E+01 -0.37000754465E+00  0.85280797876E+01  0.87153989570E+01  0.00000000000E+00 0. -1.
</event>
<event>
 7    1  0.3086024E-009  0.4614232E+02  0.7816164E-02  0.1320468E+00
        -11   -1    0    0    0    0  0.00000000000E+00  0.00000000000E+00  0.45593999997E+02  0.45594000000E+02  0.51100000000E-03 0.  1.
         11   -1    0    0    0    0 -0.00000000000E+00 -0.00000000000E+00 -0.45593999997E+02  0.45594000000E+02  0.51100000000E-03 0. -1.
    9900012    2    1    2    0    0 -0.44323973861E+02 -0.25736596718E+01  0.76075690983E+01  0.46142317737E+02  0.99999997798E+01 0.  0.
         12    1    1    2    0    0  0.44323973861E+02  0.25736596718E+01 -0.76075690983E+01  0.45045682263E+02  0.00000000000E+00 0. -1.
         11    1    3    3    0    0 -0.28503203480E+02 -0.37716296556E+01  0.15563126429E+01  0.28793747727E+02  0.51100000000E-03 0. -1.
        -11    1    3    3    0    0 -0.76123180989E+01  0.23277843740E+01  0.33103200708E+01  0.86211476128E+01  0.51100000000E-03 0.  1.
        -12    1    3    3    0    0 -0.82084522825E+01 -0.11298143901E+01  0.27409363846E+01  0.87274223969E+01  0.00000000000E+00 0.  1.
</event>
<event>
 7    1  0.3086024E-009  0.4614232E+02  0.7816164E-02  0.1320468E+00
        -11   -1    0    0    0    0  0.00000000000E+00  0.00000000000E+00  0.45593999997E+02  0.45594000000E+02  0.51100000000E-03 0.  1.
         11   -1    0    0    0    0 -0.00000000000E+00 -0.00000000000E+00 -0.45593999997E+02  0.45594000000E+02  0.51100000000E-03 0. -1.
    9900012    2    1    2    0    0  0.27758976695E+02 -0.28189840420E+02 -0.21538006688E+02  0.46142316276E+02  0.99999864588E+01 0.  0.
         12    1    1    2    0    0 -0.27758976695E+02  0.28189840420E+02  0.21538006688E+02  0.45045683724E+02  0.00000000000E+00 0. -1.
         11    1    3    3    0    0  0.47865026005E+01 -0.70066053743E+01 -0.20217167764E+01  0.87229848676E+01  0.51100000000E-03 0. -1.
        -11    1    3    3    0    0  0.64019235940E+01 -0.26807474328E+01 -0.58049051762E+01  0.90480913384E+01  0.51100000000E-03 0.  1.
        -12    1    3    3    0    0  0.16570550500E+02 -0.18502487613E+02 -0.13711384735E+02  0.28371240070E+02  0.00000000000E+00 0.  1.
</event>
<event>
 7    1  0.3086024E-009  0.4614232E+02  0.7816164E-02  0.1320468E+00
        -11   -1    0    0    0    0  0.00000000000E+00  0.00000000000E+00  0.45593999997E+02  0.45594000000E+02  0.51100000000E-03 0. -1.
         11   -1    0    0    0    0 -0.00000000000E+00 -0.00000000000E+00 -0.45593999997E+02  0.45594000000E+02  0.51100000000E-03 0.  1.
    9900012    2    1    2    0    0 -0.14307540811E+02  0.27331100173E+02 -0.32824056787E+02  0.46142318024E+02  0.10000002401E+02 0.  0.
         12    1    1    2    0    0  0.14307540811E+02 -0.27331100173E+02  0.32824056787E+02  0.45045681976E+02  0.00000000000E+00 0. -1.
         11    1    3    3    0    0 -0.22877400458E+00 -0.81128707656E+00 -0.89132903243E+00  0.12267811422E+01  0.51100000000E-03 0. -1.
        -11    1    3    3    0    0 -0.10459930441E+02  0.18651904431E+02 -0.20516059335E+02  0.29634648212E+02  0.51100000000E-03 0.  1.
         12    1    3    3    0    0 -0.36188363654E+01  0.94904828181E+01 -0.11416668419E+02  0.15280888670E+02  0.00000000000E+00 0. -1.
</event>
<event>
 7    1  0.3086024E-009  0.4614232E+02  0.7816164E-02  0.1320468E+00
        -11   -1    0    0    0    0  0.00000000000E+00  0.00000000000E+00  0.45593999997E+02  0.45594000000E+02  0.51100000000E-03 0. -1.
         11   -1    0    0    0    0 -0.00000000000E+00 -0.00000000000E+00 -0.45593999997E+02  0.45594000000E+02  0.51100000000E-03 0.  1.
    9900012    2    1    2    0    0 -0.39044863942E+02  0.21603790020E+02 -0.61553483954E+01  0.46142318105E+02  0.10000003139E+02 0.  0.
         12    1    1    2    0    0  0.39044863942E+02 -0.21603790020E+02  0.61553483954E+01  0.45045681895E+02  0.00000000000E+00 0. -1.
         11    1    3    3    0    0  0.85248607685E-01 -0.10833907164E+00 -0.80160724485E-01  0.15947000479E+00  0.51100000000E-03 0. -1.
        -11    1    3    3    0    0 -0.32289162129E+02  0.18649693952E+02 -0.82271293911E+01  0.38184901909E+02  0.51100000000E-03 0.  1.
        -12    1    3    3    0    0 -0.68409504203E+01  0.30624351402E+01  0.21519417202E+01  0.77979461917E+01  0.00000000000E+00 0.  1.
</event>
<event>
 7    1  0.3086024E-009  0.4614230E+02  0.7816164E-02  0.1320468E+00
        -11   -1    0    0    0    0  0.00000000000E+00  0.00000000000E+00  0.45593999997E+02  0.45594000000E+02  0.51100000000E-03 0.  1.
         11   -1    0    0    0    0 -0.00000000000E+00 -0.00000000000E+00 -0.45593999997E+02  0.45594000000E+02  0.51100000000E-03 0. -1.
    9900012    2    1    2    0    0  0.94295785993E+01 -0.31508567612E+02  0.30779995383E+02  0.46142302077E+02  0.99998569823E+01 0.  0.
         12    1    1    2    0    0 -0.94295785993E+01  0.31508567612E+02 -0.30779995383E+02  0.45045697923E+02  0.00000000000E+00 0. -1.
         11    1    3    3    0    0  0.51330479894E+01 -0.67676450370E+01  0.12301674450E+02  0.14949260702E+02  0.51100000000E-03 0. -1.
        -11    1    3    3    0    0  0.32999030609E+01 -0.18341005345E+02  0.13185696527E+02  0.22828588008E+02  0.51100000000E-03 0.  1.
         12    1    3    3    0    0  0.99662754904E+00 -0.63999172306E+01  0.52926244067E+01  0.83644533677E+01  0.00000000000E+00 0. -1.
</event>
<event>
 7    1  0.3086024E-009  0.4614232E+02  0.7816164E-02  0.1320468E+00
        -11   -1    0    0    0    0  0.00000000000E+00  0.00000000000E+00  0.45593999997E+02  0.45594000000E+02  0.51100000000E-03 0. -1.
         11   -1    0    0    0    0 -0.00000000000E+00 -0.00000000000E+00 -0.45593999997E+02  0.45594000000E+02  0.51100000000E-03 0.  1.
    9900012    2    1    2    0    0  0.41848545092E+02  0.14969483019E+02  0.73298963790E+01  0.46142317309E+02  0.99999958765E+01 0.  0.
         12    1    1    2    0    0 -0.41848545092E+02 -0.14969483019E+02 -0.73298963790E+01  0.45045682691E+02  0.00000000000E+00 0. -1.
         11    1    3    3    0    0  0.26135195160E+02  0.53395632146E+01  0.37823477676E+01  0.26941891475E+02  0.51100000000E-03 0. -1.
        -11    1    3    3    0    0  0.12269878062E+02  0.86136858299E+01  0.14976377944E+01  0.15066134556E+02  0.51100000000E-03 0.  1.
        -12    1    3    3    0    0  0.34434718703E+01  0.10162339746E+01  0.20499108169E+01  0.41342912778E+01  0.00000000000E+00 0.  1.
</event>
<event>
 7    1  0.3086024E-009  0.4614232E+02  0.7816164E-02  0.1320468E+00
        -11   -1    0    0    0    0  0.00000000000E+00  0.00000000000E+00  0.45593999997E+02  0.45594000000E+02  0.51100000000E-03 0.  1.
         11   -1    0    0    0    0 -0.00000000000E+00 -0.00000000000E+00 -0.45593999997E+02  0.45594000000E+02  0.51100000000E-03 0. -1.
    9900012    2    1    2    0    0  0.72287321087E+01 -0.50863891374E+01  0.44169984869E+02  0.46142317791E+02  0.10000000273E+02 0.  0.
         12    1    1    2    0    0 -0.72287321087E+01  0.50863891374E+01 -0.44169984869E+02  0.45045682209E+02  0.00000000000E+00 0. -1.
         11    1    3    3    0    0 -0.82383168233E+00  0.21759973273E+01  0.90549748054E+01  0.93491300129E+01  0.51100000000E-03 0. -1.
        -11    1    3    3    0    0  0.32227599207E+01 -0.26352259205E+01  0.16353537727E+02  0.16875093885E+02  0.51100000000E-03 0.  1.
         12    1    3    3    0    0  0.48298038703E+01 -0.46271605442E+01  0.18761472336E+02  0.19918093894E+02  0.00000000000E+00 0. -1.
</event>
<event>
 7    1  0.3086024E-009  0.4614232E+02  0.7816164E-02  0.1320468E+00
        -11   -1    0    0    0    0  0.00000000000E+00  0.00000000000E+00  0.45593999997E+02  0.45594000000E+02  0.51100000000E-03 0.  1.
         11   -1    0    0    0    0 -0.00000000000E+00 -0.00000000000E+00 -0.45593999997E+02  0.45594000000E+02  0.51100000000E-03 0. -1.
    9900012    2    1    2    0    0 -0.73273508039E+01 -0.33987275602E+02  0.28640679215E+02  0.46142317870E+02  0.10000000997E+02 0.  0.
         12    1    1    2    0    0  0.73273508039E+01  0.33987275602E+02 -0.28640679215E+02  0.45045682130E+02  0.00000000000E+00 0. -1.
         11    1    3    3    0    0  0.90252423209E-01 -0.31842932383E+01 -0.67677227701E-01  0.31862908523E+01  0.51100000000E-03 0. -1.
        -11    1    3    3    0    0 -0.74387735415E+01 -0.24151049265E+02  0.23481123852E+02  0.34495966576E+02  0.51100000000E-03 0.  1.
         12    1    3    3    0    0  0.21170314474E-01 -0.66519330978E+01  0.52272325907E+01  0.84600604418E+01  0.00000000000E+00 0. -1.
</event>
<event>
 7    1  0.3086024E-009  0.4614232E+02  0.7816164E-02  0.1320468E+00
        -11   -1    0    0    0    0  0.00000000000E+00  0.00000000000E+00  0.45593999997E+02  0.45594000000E+02  0.51100000000E-03 0.  1.
         11   -1    0    0    0    0 -0.00000000000E+00 -0.00000000000E+00 -0.45593999997E+02  0.45594000000E+02  0.51100000000E-03 0. -1.
    9900012    2    1    2    0    0 -0.12487957043E+01 -0.20273952524E+02  0.40205978087E+02  0.46142319679E+02  0.10000017489E+02 0.  0.
         12    1    1    2    0    0  0.12487957043E+01  0.20273952524E+02 -0.40205978087E+02  0.45045680321E+02  0.00000000000E+00 0. -1.
         11    1    3    3    0    0  0.52279862450E+00 -0.29807140699E+01  0.13843297208E+02  0.14170210041E+02  0.51100000000E-03 0. -1.
        -11    1    3    3    0    0  0.15721495081E+01 -0.37621965013E+01  0.72349829383E+01  0.83048633324E+01  0.51100000000E-03 0.  1.
         12    1    3    3    0    0 -0.33437438369E+01 -0.13531041952E+02  0.19127697941E+02  0.23667246305E+02  0.00000000000E+00 0. -1.
</event>
<event>
 7    1  0.3086024E-009  0.4614232E+02  0.7816164E-02  0.1320468E+00
        -11   -1    0    0    0    0  0.00000000000E+00  0.00000000000E+00  0.45593999997E+02  0.45594000000E+02  0.51100000000E-03 0.  1.
         11   -1    0    0    0    0 -0.00000000000E+00 -0.00000000000E+00 -0.45593999997E+02  0.45594000000E+02  0.51100000000E-03 0. -1.
    9900012    2    1    2    0    0  0.44855712973E+01 -0.22550922569E+02  0.38735626357E+02  0.46142320875E+02  0.10000028394E+02 0.  0.
         12    1    1    2    0    0 -0.44855712973E+01  0.22550922569E+02 -0.38735626357E+02  0.45045679125E+02  0.00000000000E+00 0. -1.
         11    1    3    3    0    0 -0.10149397378E+01 -0.88467141188E+01  0.10874999975E+02  0.14055606642E+02  0.51100000000E-03 0. -1.
        -11    1    3    3    0    0  0.60503942355E+01 -0.74643908763E+01  0.15681422148E+02  0.18391068550E+02  0.51100000000E-03 0.  1.
         12    1    3    3    0    0 -0.54988320029E+00 -0.62398175740E+01  0.12179204234E+02  0.13695645682E+02  0.00000000000E+00 0. -1.
</event>
<event>
 7    1  0.3086024E-009  0.4614232E+02  0.7816164E-02  0.1320468E+00
        -11   -1    0    0    0    0  0.00000000000E+00  0.00000000000E+00  0.45593999997E+02  0.45594000000E+02  0.51100000000E-03 0. -1.
         11   -1    0    0    0    0 -0.00000000000E+00 -0.00000000000E+00 -0.45593999997E+02  0.45594000000E+02  0.51100000000E-03 0.  1.
    9900012    2    1    2    0    0  0.22686353080E+02  0.10086571581E+02 -0.37585949750E+02  0.46142321395E+02  0.10000033138E+02 0.  0.
         12    1    1    2    0    0 -0.22686353080E+02 -0.10086571581E+02  0.37585949750E+02  0.45045678605E+02  0.00000000000E+00 0. -1.
         11    1    3    3    0    0  0.33173134128E+01  0.17579298883E+00 -0.86529651469E+01  0.92687257781E+01  0.51100000000E-03 0.  1.
        -11    1    3    3    0    0  0.47136354208E+01 -0.63631107731E+00 -0.70256349667E+01  0.84842676533E+01  0.51100000000E-03 0. -1.
         12    1    3    3    0    0  0.14655404246E+02  0.10547089670E+02 -0.21907349637E+02  0.28389327964E+02  0.00000000000E+00 0. -1.
</event>
<event>
 7    1  0.3086024E-009  0.4614232E+02  0.7816164E-02  0.1320468E+00
        -11   -1    0    0    0    0  0.00000000000E+00  0.00000000000E+00  0.45593999997E+02  0.45594000000E+02  0.51100000000E-03 0.  1.
         11   -1    0    0    0    0 -0.00000000000E+00 -0.00000000000E+00 -0.45593999997E+02  0.45594000000E+02  0.51100000000E-03 0. -1.
    9900012    2    1    2    0    0  0.40684814559E+02  0.16953414386E+02  0.92973699704E+01  0.46142317817E+02  0.10000000505E+02 0.  0.
         12    1    1    2    0    0 -0.40684814559E+02 -0.16953414386E+02 -0.92973699704E+01  0.45045682183E+02  0.00000000000E+00 0. -1.
         11    1    3    3    0    0  0.51334632554E+01  0.54034797006E+01  0.12868275908E+01  0.75634623936E+01  0.51100000000E-03 0. -1.
        -11    1    3    3    0    0  0.29142428876E+02  0.11162978834E+02  0.77389463127E+01  0.32152520081E+02  0.51100000000E-03 0.  1.
        -12    1    3    3    0    0  0.64089224273E+01  0.38695585134E+00  0.27159606693E+00  0.64263353424E+01  0.00000000000E+00 0.  1.
</event>
<event>
 7    1  0.3086024E-009  0.4614232E+02  0.7816164E-02  0.1320468E+00
        -11   -1    0    0    0    0  0.00000000000E+00  0.00000000000E+00  0.45593999997E+02  0.45594000000E+02  0.51100000000E-03 0.  1.
         11   -1    0    0    0    0 -0.00000000000E+00 -0.00000000000E+00 -0.45593999997E+02  0.45594000000E+02  0.51100000000E-03 0. -1.
    9900012    2    1    2    0    0 -0.10217502805E+01 -0.25488011948E+01  0.44961907756E+02  0.46142317519E+02  0.99999977883E+01 0.  0.
         12    1    1    2    0    0  0.10217502805E+01  0.25488011948E+01 -0.44961907756E+02  0.45045682481E+02  0.00000000000E+00 0. -1.
         11    1    3    3    0    0 -0.17435134988E+01  0.78346467735E+00  0.13322633641E+02  0.13459057308E+02  0.51100000000E-03 0. -1.
        -11    1    3    3    0    0  0.33323670521E+01  0.63611855510E+00  0.11402938516E+02  0.11896903969E+02  0.51100000000E-03 0.  1.
        -12    1    3    3    0    0 -0.26106038338E+01 -0.39683844272E+01  0.20236335598E+02  0.20786356241E+02  0.00000000000E+00 0.  1.
</event>
<event>
 7    1  0.3086024E-009  0.4614232E+02  0.7816164E-02  0.1320468E+00
        -11   -1    0    0    0    0  0.00000000000E+00  0.00000000000E+00  0.45593999997E+02  0.45594000000E+02  0.51100000000E-03 0.  1.
         11   -1    0    0    0    0 -0.00000000000E+00 -0.00000000000E+00 -0.45593999997E+02  0.45594000000E+02  0.51100000000E-03 0. -1.
    9900012    2    1    2    0    0 -0.84307370305E+01  0.42265214255E+02  0.13102974410E+02  0.46142316508E+02  0.99999885741E+01 0.  0.
         12    1    1    2    0    0  0.84307370305E+01 -0.42265214255E+02 -0.13102974410E+02  0.45045683492E+02  0.00000000000E+00 0. -1.
         11    1    3    3    0    0  0.12402820843E+01  0.49293943414E+01  0.15852697533E+01  0.53245007910E+01  0.51100000000E-03 0.  1.
        -11    1    3    3    0    0 -0.66925328518E+01  0.21294774045E+02  0.99130152713E+01  0.24423866804E+02  0.51100000000E-03 0. -1.
        -12    1    3    3    0    0 -0.29784862630E+01  0.16041045868E+02  0.16046893857E+01  0.16393948914E+02  0.00000000000E+00 0.  1.
</event>
<event>
 7    1  0.3086024E-009  0.4614232E+02  0.7816164E-02  0.1320468E+00
        -11   -1    0    0    0    0  0.00000000000E+00  0.00000000000E+00  0.45593999997E+02  0.45594000000E+02  0.51100000000E-03 0. -1.
         11   -1    0    0    0    0 -0.00000000000E+00 -0.00000000000E+00 -0.45593999997E+02  0.45594000000E+02  0.51100000000E-03 0.  1.
    9900012    2    1    2    0    0 -0.41338135459E+02  0.17744454765E+02  0.23251496096E+01  0.46142318311E+02  0.10000005010E+02 0.  0.
         12    1    1    2    0    0  0.41338135459E+02 -0.17744454765E+02 -0.23251496096E+01  0.45045681689E+02  0.00000000000E+00 0. -1.
         11    1    3    3    0    0 -0.82554008790E+01  0.33707982706E+01  0.33411446019E+01  0.95224562045E+01  0.51100000000E-03 0. -1.
        -11    1    3    3    0    0 -0.32860266613E+02  0.14779296048E+02 -0.13387768560E+01  0.36055749018E+02  0.51100000000E-03 0.  1.
        -12    1    3    3    0    0 -0.22246796777E+00 -0.40563955385E+00  0.32278186366E+00  0.56411308781E+00  0.00000000000E+00 0.  1.
</event>
<event>
 7    1  0.3086024E-009  0.4614232E+02  0.7816164E-02  0.1320468E+00
        -11   -1    0    0    0    0  0.00000000000E+00  0.00000000000E+00  0.45593999997E+02  0.45594000000E+02  0.51100000000E-03 0. -1.
         11   -1    0    0    0    0 -0.00000000000E+00 -0.00000000000E+00 -0.45593999997E+02  0.45594000000E+02  0.51100000000E-03 0.  1.
    9900012    2    1    2    0    0  0.52098478531E+01 -0.13267446491E+02 -0.42731087850E+02  0.46142317411E+02  0.99999968081E+01 0.  0.
         12    1    1    2    0    0 -0.52098478531E+01  0.13267446491E+02  0.42731087850E+02  0.45045682589E+02  0.00000000000E+00 0. -1.
         11    1    3    3    0    0  0.52241923404E+01 -0.98334655000E+01 -0.18198238268E+02  0.21334598793E+02  0.51100000000E-03 0. -1.
        -11    1    3    3    0    0  0.61692803785E+00 -0.13595722040E+01 -0.87187179111E+01  0.88456248539E+01  0.51100000000E-03 0.  1.
         12    1    3    3    0    0 -0.63127252521E+00 -0.20744087868E+01 -0.15814131671E+02  0.15962093764E+02  0.00000000000E+00 0. -1.
</event>
<event>
 7    1  0.3086024E-009  0.4614232E+02  0.7816164E-02  0.1320468E+00
        -11   -1    0    0    0    0  0.00000000000E+00  0.00000000000E+00  0.45593999997E+02  0.45594000000E+02  0.51100000000E-03 0.  1.
         11   -1    0    0    0    0 -0.00000000000E+00 -0.00000000000E+00 -0.45593999997E+02  0.45594000000E+02  0.51100000000E-03 0. -1.
    9900012    2    1    2    0    0  0.29931985334E+01 -0.18505293481E+02  0.40959838169E+02  0.46142317997E+02  0.10000002150E+02 0.  0.
         12    1    1    2    0    0 -0.29931985334E+01  0.18505293481E+02 -0.40959838169E+02  0.45045682003E+02  0.00000000000E+00 0. -1.
         11    1    3    3    0    0  0.45025428903E-02 -0.96118923412E+01  0.14156613831E+02  0.17111347406E+02  0.51100000000E-03 0. -1.
        -11    1    3    3    0    0 -0.10649527128E+01 -0.41051084046E+01  0.15856910693E+02  0.16414251621E+02  0.51100000000E-03 0.  1.
        -12    1    3    3    0    0  0.40536487033E+01 -0.47882927357E+01  0.10946313646E+02  0.12616718970E+02  0.00000000000E+00 0.  1.
</event>
<event>
 7    1  0.3086024E-009  0.4614232E+02  0.7816164E-02  0.1320468E+00
        -11   -1    0    0    0    0  0.00000000000E+00  0.00000000000E+00  0.45593999997E+02  0.45594000000E+02  0.51100000000E-03 0.  1.
         11   -1    0    0    0    0 -0.00000000000E+00 -0.00000000000E+00 -0.45593999997E+02  0.45594000000E+02  0.51100000000E-03 0. -1.
    9900012    2    1    2    0    0  0.31105766581E+02  0.96930607382E+01  0.31106097875E+02  0.46142318009E+02  0.10000002257E+02 0.  0.
         12    1    1    2    0    0 -0.31105766581E+02 -0.96930607382E+01 -0.31106097875E+02  0.45045681991E+02  0.00000000000E+00 0. -1.
         11    1    3    3    0    0  0.26267249304E+01 -0.11741258230E+00  0.23014277770E+01  0.34942867152E+01  0.51100000000E-03 0. -1.
        -11    1    3    3    0    0  0.19782670566E+02  0.10281317462E+02  0.17305320232E+02  0.28222927773E+02  0.51100000000E-03 0.  1.
        -12    1    3    3    0    0  0.86963710850E+01 -0.47084414136E+00  0.11499349866E+02  0.14425103521E+02  0.00000000000E+00 0.  1.
</event>
<event>
 7    1  0.3086024E-009  0.4614232E+02  0.7816164E-02  0.1320468E+00
        -11   -1    0    0    0    0  0.00000000000E+00  0.00000000000E+00  0.45593999997E+02  0.45594000000E+02  0.51100000000E-03 0.  1.
         11   -1    0    0    0    0 -0.00000000000E+00 -0.00000000000E+00 -0.45593999997E+02  0.45594000000E+02  0.51100000000E-03 0. -1.
    9900012    2    1    2    0    0 -0.46693235405E+00 -0.98176390829E+01  0.43960317291E+02  0.46142316974E+02  0.99999928234E+01 0.  0.
         12    1    1    2    0    0  0.46693235405E+00  0.98176390829E+01 -0.43960317291E+02  0.45045683026E+02  0.00000000000E+00 0. -1.
         11    1    3    3    0    0  0.49598074312E+00 -0.81825977102E+00  0.47325022266E+00  0.10674792667E+01  0.51100000000E-03 0. -1.
        -11    1    3    3    0    0 -0.41197975719E+01 -0.33502939738E+01  0.22175445823E+02  0.22802359515E+02  0.51100000000E-03 0.  1.
        -12    1    3    3    0    0  0.31568844747E+01 -0.56490853381E+01  0.21311621245E+02  0.22272478192E+02  0.00000000000E+00 0.  1.
</event>
<event>
 7    1  0.3086024E-009  0.4614232E+02  0.7816164E-02  0.1320468E+00
        -11   -1    0    0    0    0  0.00000000000E+00  0.00000000000E+00  0.45593999997E+02  0.45594000000E+02  0.51100000000E-03 0.  1.
         11   -1    0    0    0    0 -0.00000000000E+00 -0.00000000000E+00 -0.45593999997E+02  0.45594000000E+02  0.51100000000E-03 0. -1.
    9900012    2    1    2    0    0 -0.96428560311E+01 -0.36110747436E+02  0.25142448662E+02  0.46142317881E+02  0.10000001096E+02 0.  0.
         12    1    1    2    0    0  0.96428560311E+01  0.36110747436E+02 -0.25142448662E+02  0.45045682119E+02  0.00000000000E+00 0. -1.
         11    1    3    3    0    0 -0.14012579417E+01 -0.81895934486E+01  0.84098635598E+01  0.11821961344E+02  0.51100000000E-03 0. -1.
        -11    1    3    3    0    0 -0.50201066664E+01 -0.24475360369E+02  0.15646518681E+02  0.29479794491E+02  0.51100000000E-03 0.  1.
        -12    1    3    3    0    0 -0.32214914230E+01 -0.34457936181E+01  0.10860664209E+01  0.48405620456E+01  0.00000000000E+00 0.  1.
</event>
<event>
 7    1  0.3086024E-009  0.4614232E+02  0.7816164E-02  0.1320468E+00
        -11   -1    0    0    0    0  0.00000000000E+00  0.00000000000E+00  0.45593999997E+02  0.45594000000E+02  0.51100000000E-03 0.  1.
         11   -1    0    0    0    0 -0.00000000000E+00 -0.00000000000E+00 -0.45593999997E+02  0.45594000000E+02  0.51100000000E-03 0. -1.
    9900012    2    1    2    0    0  0.15511846399E+02  0.37253357904E+02  0.20017079990E+02  0.46142317131E+02  0.99999942514E+01 0.  0.
         12    1    1    2    0    0 -0.15511846399E+02 -0.37253357904E+02 -0.20017079990E+02  0.45045682869E+02  0.00000000000E+00 0. -1.
         11    1    3    3    0    0  0.54557421568E+01  0.92252216632E+01  0.13782969734E+01  0.10805995559E+02  0.51100000000E-03 0. -1.
        -11    1    3    3    0    0  0.47736377959E+01  0.84959723641E+01  0.51950629190E+01  0.11043452504E+02  0.51100000000E-03 0.  1.
         12    1    3    3    0    0  0.52824664467E+01  0.19532163877E+02  0.13443720097E+02  0.24292869067E+02  0.00000000000E+00 0. -1.
</event>
<event>
 7    1  0.3086024E-009  0.4614231E+02  0.7816164E-02  0.1320468E+00
        -11   -1    0    0    0    0  0.00000000000E+00  0.00000000000E+00  0.45593999997E+02  0.45594000000E+02  0.51100000000E-03 0.  1.
         11   -1    0    0    0    0 -0.00000000000E+00 -0.00000000000E+00 -0.45593999997E+02  0.45594000000E+02  0.51100000000E-03 0. -1.
    9900012    2    1    2    0    0 -0.33653722164E+02 -0.27840287861E+02  0.11020858172E+02  0.46142312542E+02  0.99999524118E+01 0.  0.
         12    1    1    2    0    0  0.33653722164E+02  0.27840287861E+02 -0.11020858172E+02  0.45045687458E+02  0.00000000000E+00 0. -1.
         11    1    3    3    0    0 -0.46797516405E+01 -0.30625359623E+01  0.38134599539E+01  0.67691712209E+01  0.51100000000E-03 0.  1.
        -11    1    3    3    0    0 -0.10202467396E+02 -0.12135851372E+02  0.90500092925E+00  0.15880436280E+02  0.51100000000E-03 0. -1.
        -12    1    3    3    0    0 -0.18771503128E+02 -0.12641900527E+02  0.63023972885E+01  0.23492705042E+02  0.00000000000E+00 0.  1.
</event>
<event>
 7    1  0.3086024E-009  0.4614232E+02  0.7816164E-02  0.1320468E+00
        -11   -1    0    0    0    0  0.00000000000E+00  0.00000000000E+00  0.45593999997E+02  0.45594000000E+02  0.51100000000E-03 0.  1.
         11   -1    0    0    0    0 -0.00000000000E+00 -0.00000000000E+00 -0.45593999997E+02  0.45594000000E+02  0.51100000000E-03 0. -1.
    9900012    2    1    2    0    0  0.11957045995E+02  0.43426342283E+02 -0.54330453619E+00  0.46142319487E+02  0.10000015743E+02 0.  0.
         12    1    1    2    0    0 -0.11957045995E+02 -0.43426342283E+02  0.54330453619E+00  0.45045680513E+02  0.00000000000E+00 0. -1.
         11    1    3    3    0    0  0.88034967923E+01  0.21932442090E+02 -0.44469073171E+01  0.24048046839E+02  0.51100000000E-03 0. -1.
        -11    1    3    3    0    0  0.12694484167E+01  0.12037947200E+02  0.22161761344E+01  0.12305897326E+02  0.51100000000E-03 0.  1.
         12    1    3    3    0    0  0.18841007860E+01  0.94559529924E+01  0.16874266465E+01  0.97883753225E+01  0.00000000000E+00 0. -1.
</event>
<event>
 7    1  0.3086024E-009  0.4614232E+02  0.7816164E-02  0.1320468E+00
        -11   -1    0    0    0    0  0.00000000000E+00  0.00000000000E+00  0.45593999997E+02  0.45594000000E+02  0.51100000000E-03 0.  1.
         11   -1    0    0    0    0 -0.00000000000E+00 -0.00000000000E+00 -0.45593999997E+02  0.45594000000E+02  0.51100000000E-03 0. -1.
    9900012    2    1    2    0    0  0.41219537565E+02  0.17513442197E+02 -0.48314174481E+01  0.46142317308E+02  0.99999958703E+01 0.  0.
         12    1    1    2    0    0 -0.41219537565E+02 -0.17513442197E+02  0.48314174481E+01  0.45045682692E+02  0.00000000000E+00 0. -1.
         11    1    3    3    0    0  0.18200647212E+02  0.10537590147E+02 -0.60273797214E+01  0.21877698042E+02  0.51100000000E-03 0.  1.
        -11    1    3    3    0    0  0.94472810420E+01  0.29520745862E+01  0.19539620197E+01  0.10088797316E+02  0.51100000000E-03 0. -1.
         12    1    3    3    0    0  0.13571609310E+02  0.40237774635E+01 -0.75799974633E+00  0.14175821950E+02  0.00000000000E+00 0. -1.
</event>
<event>
 7    1  0.3086024E-009  0.4614232E+02  0.7816164E-02  0.1320468E+00
        -11   -1    0    0    0    0  0.00000000000E+00  0.00000000000E+00  0.45593999997E+02  0.45594000000E+02  0.51100000000E-03 0.  1.
         11   -1    0    0    0    0 -0.00000000000E+00 -0.00000000000E+00 -0.45593999997E+02  0.45594000000E+02  0.51100000000E-03 0. -1.
    9900012    2    1    2    0    0  0.18229770809E+02 -0.41032546674E+02  0.36220190050E+01  0.46142318165E+02  0.10000003686E+02 0.  0.
         12    1    1    2    0    0 -0.18229770809E+02  0.41032546674E+02 -0.36220190050E+01  0.45045681835E+02  0.00000000000E+00 0. -1.
         11    1    3    3    0    0  0.26118998058E+01 -0.76170330323E+01 -0.93180600190E+00  0.81061381370E+01  0.51100000000E-03 0. -1.
        -11    1    3    3    0    0  0.59225780176E+01 -0.65862758146E+01 -0.11877759394E+01  0.89368211028E+01  0.51100000000E-03 0.  1.
        -12    1    3    3    0    0  0.96952929855E+01 -0.26829237827E+02  0.57416009463E+01  0.29099358925E+02  0.00000000000E+00 0.  1.
</event>
<event>
 7    1  0.3086024E-009  0.4614231E+02  0.7816164E-02  0.1320468E+00
        -11   -1    0    0    0    0  0.00000000000E+00  0.00000000000E+00  0.45593999997E+02  0.45594000000E+02  0.51100000000E-03 0.  1.
         11   -1    0    0    0    0 -0.00000000000E+00 -0.00000000000E+00 -0.45593999997E+02  0.45594000000E+02  0.51100000000E-03 0. -1.
    9900012    2    1    2    0    0 -0.35003502762E+02 -0.77381990168E+01 -0.27276161817E+02  0.46142312825E+02  0.99999549839E+01 0.  0.
         12    1    1    2    0    0  0.35003502762E+02  0.77381990168E+01  0.27276161817E+02  0.45045687175E+02  0.00000000000E+00 0. -1.
         11    1    3    3    0    0 -0.16678096013E+01 -0.20803548280E+01 -0.29211631925E+01  0.39550802438E+01  0.51100000000E-03 0. -1.
        -11    1    3    3    0    0 -0.26077094125E+02 -0.71157841664E+01 -0.19587995639E+02  0.33381713493E+02  0.51100000000E-03 0.  1.
        -12    1    3    3    0    0 -0.72585990360E+01  0.14579399776E+01 -0.47670029856E+01  0.88055190880E+01  0.00000000000E+00 0.  1.
</event>
<event>
 7    1  0.3086024E-009  0.4614232E+02  0.7816164E-02  0.1320468E+00
        -11   -1    0    0    0    0  0.00000000000E+00  0.00000000000E+00  0.45593999997E+02  0.45594000000E+02  0.51100000000E-03 0.  1.
         11   -1    0    0    0    0 -0.00000000000E+00 -0.00000000000E+00 -0.45593999997E+02  0.45594000000E+02  0.51100000000E-03 0. -1.
    9900012    2    1    2    0    0  0.35774350313E+02  0.22943714759E+02  0.14929679737E+02  0.46142317362E+02  0.99999963625E+01 0.  0.
         12    1    1    2    0    0 -0.35774350313E+02 -0.22943714759E+02 -0.14929679737E+02  0.45045682638E+02  0.00000000000E+00 0. -1.
         11    1    3    3    0    0  0.12161451419E+02  0.66338808652E+01  0.92113530989E+01  0.16636054283E+02  0.51100000000E-03 0. -1.
        -11    1    3    3    0    0  0.14179827327E+02  0.76235082456E+01  0.37841153826E+01  0.16537983870E+02  0.51100000000E-03 0.  1.
         12    1    3    3    0    0  0.94330715673E+01  0.86863256481E+01  0.19342112553E+01  0.12968279209E+02  0.00000000000E+00 0. -1.
</event>
<event>
 7    1  0.3086024E-009  0.4614232E+02  0.7816164E-02  0.1320468E+00
        -11   -1    0    0    0    0  0.00000000000E+00  0.00000000000E+00  0.45593999997E+02  0.45594000000E+02  0.51100000000E-03 0. -1.
         11   -1    0    0    0    0 -0.00000000000E+00 -0.00000000000E+00 -0.45593999997E+02  0.45594000000E+02  0.51100000000E-03 0.  1.
    9900012    2    1    2    0    0 -0.97536793806E+01  0.25491641728E+02 -0.35835114152E+02  0.46142318013E+02  0.10000002293E+02 0.  0.
         12    1    1    2    0    0  0.97536793806E+01 -0.25491641728E+02  0.35835114152E+02  0.45045681987E+02  0.00000000000E+00 0. -1.
         11    1    3    3    0    0  0.26809444100E+00  0.12236570785E-01 -0.23200130563E+01  0.23354839339E+01  0.51100000000E-03 0. -1.
        -11    1    3    3    0    0 -0.72586493635E+01  0.22735588291E+02 -0.25683017035E+02  0.35060124498E+02  0.51100000000E-03 0.  1.
        -12    1    3    3    0    0 -0.27631244581E+01  0.27438168665E+01 -0.78320840600E+01  0.87467095808E+01  0.00000000000E+00 0.  1.
</event>
<event>
 7    1  0.3086024E-009  0.4614232E+02  0.7816164E-02  0.1320468E+00
        -11   -1    0    0    0    0  0.00000000000E+00  0.00000000000E+00  0.45593999997E+02  0.45594000000E+02  0.51100000000E-03 0.  1.
         11   -1    0    0    0    0 -0.00000000000E+00 -0.00000000000E+00 -0.45593999997E+02  0.45594000000E+02  0.51100000000E-03 0. -1.
    9900012    2    1    2    0    0 -0.21424157704E+02 -0.11438035870E+01  0.39608209961E+02  0.46142321891E+02  0.10000037661E+02 0.  0.
         12    1    1    2    0    0  0.21424157704E+02  0.11438035870E+01 -0.39608209961E+02  0.45045678109E+02  0.00000000000E+00 0. -1.
         11    1    3    3    0    0 -0.50743507503E+01  0.91399482048E+00  0.98182606393E+01  0.11089754926E+02  0.51100000000E-03 0. -1.
        -11    1    3    3    0    0 -0.77095502205E+01 -0.50634297866E+01  0.16785537602E+02  0.19152800283E+02  0.51100000000E-03 0.  1.
        -12    1    3    3    0    0 -0.86402567337E+01  0.30056313791E+01  0.13004411719E+02  0.15899766683E+02  0.00000000000E+00 0.  1.
</event>
<event>
 7    1  0.3086024E-009  0.4614232E+02  0.7816164E-02  0.1320468E+00
        -11   -1    0    0    0    0  0.00000000000E+00  0.00000000000E+00  0.45593999997E+02  0.45594000000E+02  0.51100000000E-03 0. -1.
         11   -1    0    0    0    0 -0.00000000000E+00 -0.00000000000E+00 -0.45593999997E+02  0.45594000000E+02  0.51100000000E-03 0.  1.
    9900012    2    1    2    0    0  0.22011825391E+02 -0.15387670681E+02 -0.36163693155E+02  0.46142316870E+02  0.99999918745E+01 0.  0.
         12    1    1    2    0    0 -0.22011825391E+02  0.15387670681E+02  0.36163693155E+02  0.45045683130E+02  0.00000000000E+00 0. -1.
         11    1    3    3    0    0  0.13522527829E+02 -0.40732545871E+01 -0.14534500504E+02  0.20265780690E+02  0.51100000000E-03 0.  1.
        -11    1    3    3    0    0  0.50558998266E+01 -0.57400863772E+01 -0.12102114149E+02  0.14316839100E+02  0.51100000000E-03 0. -1.
        -12    1    3    3    0    0  0.34333977354E+01 -0.55743297170E+01 -0.95270785014E+01  0.11559697080E+02  0.00000000000E+00 0.  1.
</event>
<event>
 7    1  0.3086024E-009  0.4614232E+02  0.7816164E-02  0.1320468E+00
        -11   -1    0    0    0    0  0.00000000000E+00  0.00000000000E+00  0.45593999997E+02  0.45594000000E+02  0.51100000000E-03 0.  1.
         11   -1    0    0    0    0 -0.00000000000E+00 -0.00000000000E+00 -0.45593999997E+02  0.45594000000E+02  0.51100000000E-03 0. -1.
    9900012    2    1    2    0    0  0.29288754863E+02 -0.23945647866E+02  0.24451754936E+02  0.46142317270E+02  0.99999955199E+01 0.  0.
         12    1    1    2    0    0 -0.29288754863E+02  0.23945647866E+02 -0.24451754936E+02  0.45045682730E+02  0.00000000000E+00 0. -1.
         11    1    3    3    0    0  0.72633263185E+00 -0.10944268237E+01  0.11327121855E+00  0.13183928832E+01  0.51100000000E-03 0. -1.
        -11    1    3    3    0    0  0.21286730826E+00  0.16941885624E+00  0.19914396034E+01  0.20099371122E+01  0.51100000000E-03 0.  1.
        -12    1    3    3    0    0  0.28349554923E+02 -0.23020639899E+02  0.22347044114E+02  0.42813987274E+02  0.00000000000E+00 0.  1.
</event>
<event>
 7    1  0.3086024E-009  0.4614232E+02  0.7816164E-02  0.1320468E+00
        -11   -1    0    0    0    0  0.00000000000E+00  0.00000000000E+00  0.45593999997E+02  0.45594000000E+02  0.51100000000E-03 0.  1.
         11   -1    0    0    0    0 -0.00000000000E+00 -0.00000000000E+00 -0.45593999997E+02  0.45594000000E+02  0.51100000000E-03 0. -1.
    9900012    2    1    2    0    0  0.15907578190E+02  0.11410331828E+02  0.40569284460E+02  0.46142316989E+02  0.99999929567E+01 0.  0.
         12    1    1    2    0    0 -0.15907578190E+02 -0.11410331828E+02 -0.40569284460E+02  0.45045683011E+02  0.00000000000E+00 0. -1.
         11    1    3    3    0    0  0.28882015634E+01 -0.59588282125E+00  0.49728033717E+01  0.57814840864E+01  0.51100000000E-03 0. -1.
        -11    1    3    3    0    0  0.10152708886E+02  0.12007351836E+02  0.32707359824E+02  0.36290844338E+02  0.51100000000E-03 0.  1.
        -12    1    3    3    0    0  0.28666677416E+01 -0.11371859860E-02  0.28891212646E+01  0.40699885645E+01  0.00000000000E+00 0.  1.
</event>
<event>
 7    1  0.3086024E-009  0.4614232E+02  0.7816164E-02  0.1320468E+00
        -11   -1    0    0    0    0  0.00000000000E+00  0.00000000000E+00  0.45593999997E+02  0.45594000000E+02  0.51100000000E-03 0. -1.
         11   -1    0    0    0    0 -0.00000000000E+00 -0.00000000000E+00 -0.45593999997E+02  0.45594000000E+02  0.51100000000E-03 0.  1.
    9900012    2    1    2    0    0 -0.29193557110E+02 -0.10140439432E+02 -0.32772263264E+02  0.46142317321E+02  0.99999959830E+01 0.  0.
         12    1    1    2    0    0  0.29193557110E+02  0.10140439432E+02  0.32772263264E+02  0.45045682679E+02  0.00000000000E+00 0. -1.
         11    1    3    3    0    0 -0.15061130341E+02 -0.21980994698E+01 -0.15722390207E+02  0.21882934961E+02  0.51100000000E-03 0.  1.
        -11    1    3    3    0    0 -0.12675238233E+02 -0.84209776026E+01 -0.13309534394E+02  0.20216781002E+02  0.51100000000E-03 0. -1.
         12    1    3    3    0    0 -0.14571885366E+01  0.47863764064E+00 -0.37403386632E+01  0.40426013578E+01  0.00000000000E+00 0. -1.
</event>
<event>
 7    1  0.3086024E-009  0.4614232E+02  0.7816164E-02  0.1320468E+00
        -11   -1    0    0    0    0  0.00000000000E+00  0.00000000000E+00  0.45593999997E+02  0.45594000000E+02  0.51100000000E-03 0.  1.
         11   -1    0    0    0    0 -0.00000000000E+00 -0.00000000000E+00 -0.45593999997E+02  0.45594000000E+02  0.51100000000E-03 0. -1.
    9900012    2    1    2    0    0  0.53313135136E+01  0.28685471185E+02  0.34319591004E+02  0.46142317770E+02  0.10000000079E+02 0.  0.
         12    1    1    2    0    0 -0.53313135136E+01 -0.28685471185E+02 -0.34319591004E+02  0.45045682230E+02  0.00000000000E+00 0. -1.
         11    1    3    3    0    0  0.13432888521E+01  0.30204846634E+01  0.29376016244E+01  0.44223586588E+01  0.51100000000E-03 0. -1.
        -11    1    3    3    0    0  0.50576982555E+01  0.72251518986E+01  0.12575014792E+02  0.15359496375E+02  0.51100000000E-03 0.  1.
        -12    1    3    3    0    0 -0.10696735939E+01  0.18439834623E+02  0.18806974588E+02  0.26360462736E+02  0.00000000000E+00 0.  1.
</event>
<event>
 7    1  0.3086024E-009  0.4614232E+02  0.7816164E-02  0.1320468E+00
        -11   -1    0    0    0    0  0.00000000000E+00  0.00000000000E+00  0.45593999997E+02  0.45594000000E+02  0.51100000000E-03 0.  1.
         11   -1    0    0    0    0 -0.00000000000E+00 -0.00000000000E+00 -0.45593999997E+02  0.45594000000E+02  0.51100000000E-03 0. -1.
    9900012    2    1    2    0    0  0.46091239390E+01  0.34421751192E+02  0.28688194748E+02  0.46142317671E+02  0.99999991771E+01 0.  0.
         12    1    1    2    0    0 -0.46091239390E+01 -0.34421751192E+02 -0.28688194748E+02  0.45045682329E+02  0.00000000000E+00 0. -1.
         11    1    3    3    0    0  0.66626774216E-01 -0.47331350214E-01  0.29521584314E-01  0.86897461510E-01  0.51100000000E-03 0. -1.
        -11    1    3    3    0    0 -0.21448161195E+01  0.39819764728E+01  0.17643157513E+01  0.48548103101E+01  0.51100000000E-03 0.  1.
        -12    1    3    3    0    0  0.66873132843E+01  0.30487106070E+02  0.26894357412E+02  0.41200609899E+02  0.00000000000E+00 0.  1.
</event>
<event>
 7    1  0.3086024E-009  0.4614232E+02  0.7816164E-02  0.1320468E+00
        -11   -1    0    0    0    0  0.00000000000E+00  0.00000000000E+00  0.45593999997E+02  0.45594000000E+02  0.51100000000E-03 0. -1.
         11   -1    0    0    0    0 -0.00000000000E+00 -0.00000000000E+00 -0.45593999997E+02  0.45594000000E+02  0.51100000000E-03 0.  1.
    9900012    2    1    2    0    0  0.27712437074E+02 -0.10180298507E+01 -0.35497858205E+02  0.46142317737E+02  0.99999997821E+01 0.  0.
         12    1    1    2    0    0 -0.27712437074E+02  0.10180298507E+01  0.35497858205E+02  0.45045682263E+02  0.00000000000E+00 0. -1.
         11    1    3    3    0    0  0.28879188254E+01 -0.60981548623E-01 -0.97691066399E+00  0.30492865719E+01  0.51100000000E-03 0. -1.
        -11    1    3    3    0    0  0.20547047659E+02  0.15674668181E+01 -0.25403760321E+02  0.32710688749E+02  0.51100000000E-03 0.  1.
         12    1    3    3    0    0  0.42774705892E+01 -0.25245151202E+01 -0.91171872201E+01  0.10382342416E+02  0.00000000000E+00 0. -1.
</event>
<event>
 7    1  0.3086024E-009  0.4614232E+02  0.7816164E-02  0.1320468E+00
        -11   -1    0    0    0    0  0.00000000000E+00  0.00000000000E+00  0.45593999997E+02  0.45594000000E+02  0.51100000000E-03 0.  1.
         11   -1    0    0    0    0 -0.00000000000E+00 -0.00000000000E+00 -0.45593999997E+02  0.45594000000E+02  0.51100000000E-03 0. -1.
    9900012    2    1    2    0    0  0.12485057582E+02 -0.18836389985E+01  0.43239897445E+02  0.46142317746E+02  0.99999998603E+01 0.  0.
         12    1    1    2    0    0 -0.12485057582E+02  0.18836389985E+01 -0.43239897445E+02  0.45045682254E+02  0.00000000000E+00 0. -1.
         11    1    3    3    0    0  0.10181030254E+02 -0.41262859195E+01  0.36013133190E+02  0.37651366176E+02  0.51100000000E-03 0. -1.
        -11    1    3    3    0    0  0.18499979109E+01  0.60186827839E+00  0.62109034105E+01  0.65084605807E+01  0.51100000000E-03 0.  1.
         12    1    3    3    0    0  0.45402941728E+00  0.16407786426E+01  0.10158608445E+01  0.19824909889E+01  0.00000000000E+00 0. -1.
</event>
<event>
 7    1  0.3086024E-009  0.4614232E+02  0.7816164E-02  0.1320468E+00
        -11   -1    0    0    0    0  0.00000000000E+00  0.00000000000E+00  0.45593999997E+02  0.45594000000E+02  0.51100000000E-03 0. -1.
         11   -1    0    0    0    0 -0.00000000000E+00 -0.00000000000E+00 -0.45593999997E+02  0.45594000000E+02  0.51100000000E-03 0.  1.
    9900012    2    1    2    0    0 -0.27262977640E+02 -0.30142236474E+02 -0.19423931204E+02  0.46142317933E+02  0.10000001570E+02 0.  0.
         12    1    1    2    0    0  0.27262977640E+02  0.30142236474E+02  0.19423931204E+02  0.45045682067E+02  0.00000000000E+00 0. -1.
         11    1    3    3    0    0 -0.15249208166E+02 -0.23242339491E+02 -0.13294575389E+02  0.30813802585E+02  0.51100000000E-03 0. -1.
        -11    1    3    3    0    0 -0.54138378776E+01 -0.42784732232E+01 -0.36530637232E+01  0.78076788173E+01  0.51100000000E-03 0.  1.
         12    1    3    3    0    0 -0.65999315967E+01 -0.26214237599E+01 -0.24762920916E+01  0.75208365314E+01  0.00000000000E+00 0. -1.
</event>
<event>
 7    1  0.3086024E-009  0.4614232E+02  0.7816164E-02  0.1320468E+00
        -11   -1    0    0    0    0  0.00000000000E+00  0.00000000000E+00  0.45593999997E+02  0.45594000000E+02  0.51100000000E-03 0. -1.
         11   -1    0    0    0    0 -0.00000000000E+00 -0.00000000000E+00 -0.45593999997E+02  0.45594000000E+02  0.51100000000E-03 0.  1.
    9900012    2    1    2    0    0  0.24061667523E+01  0.33373409069E+02 -0.30158570203E+02  0.46142318431E+02  0.10000006108E+02 0.  0.
         12    1    1    2    0    0 -0.24061667523E+01 -0.33373409069E+02  0.30158570203E+02  0.45045681569E+02  0.00000000000E+00 0. -1.
         11    1    3    3    0    0  0.27768631904E+01  0.14241162514E+02 -0.10290729437E+02  0.17788220584E+02  0.51100000000E-03 0. -1.
        -11    1    3    3    0    0  0.81313982324E+00  0.93924380089E+01 -0.14135054387E+02  0.16990551813E+02  0.51100000000E-03 0.  1.
         12    1    3    3    0    0 -0.11838362613E+01  0.97398085461E+01 -0.57327863793E+01  0.11363546035E+02  0.00000000000E+00 0. -1.
</event>
<event>
 7    1  0.3086024E-009  0.4614232E+02  0.7816164E-02  0.1320468E+00
        -11   -1    0    0    0    0  0.00000000000E+00  0.00000000000E+00  0.45593999997E+02  0.45594000000E+02  0.51100000000E-03 0.  1.
         11   -1    0    0    0    0 -0.00000000000E+00 -0.00000000000E+00 -0.45593999997E+02  0.45594000000E+02  0.51100000000E-03 0. -1.
    9900012    2    1    2    0    0  0.45839180497E+01 -0.23848227895E+02  0.37938941294E+02  0.46142317133E+02  0.99999942712E+01 0.  0.
         12    1    1    2    0    0 -0.45839180497E+01  0.23848227895E+02 -0.37938941294E+02  0.45045682867E+02  0.00000000000E+00 0. -1.
         11    1    3    3    0    0  0.29296309011E+01 -0.17154439473E+01  0.29611232286E+01  0.45048569554E+01  0.51100000000E-03 0. -1.
        -11    1    3    3    0    0  0.29524976056E+01 -0.11405051315E+02  0.18024071714E+02  0.21532756419E+02  0.51100000000E-03 0.  1.
         12    1    3    3    0    0 -0.12982104569E+01 -0.10727732633E+02  0.16953746352E+02  0.20104703758E+02  0.00000000000E+00 0. -1.
</event>
<event>
 7    1  0.3086024E-009  0.4614232E+02  0.7816164E-02  0.1320468E+00
        -11   -1    0    0    0    0  0.00000000000E+00  0.00000000000E+00  0.45593999997E+02  0.45594000000E+02  0.51100000000E-03 0. -1.
         11   -1    0    0    0    0 -0.00000000000E+00 -0.00000000000E+00 -0.45593999997E+02  0.45594000000E+02  0.51100000000E-03 0.  1.
    9900012    2    1    2    0    0  0.37991218691E+02  0.10147914551E+02 -0.21972721153E+02  0.46142319384E+02  0.10000014797E+02 0.  0.
         12    1    1    2    0    0 -0.37991218691E+02 -0.10147914551E+02  0.21972721153E+02  0.45045680616E+02  0.00000000000E+00 0. -1.
         11    1    3    3    0    0  0.21761306652E+01  0.60044343857E+00  0.88809504280E+00  0.24258586235E+01  0.51100000000E-03 0. -1.
        -11    1    3    3    0    0  0.26065088646E+02  0.86240876484E+01 -0.16311638147E+02  0.31934828530E+02  0.51100000000E-03 0.  1.
         12    1    3    3    0    0  0.97499993790E+01  0.92338346360E+00 -0.65491780483E+01  0.11781632231E+02  0.00000000000E+00 0. -1.
</event>
<event>
 7    1  0.3086024E-009  0.4614232E+02  0.7816164E-02  0.1320468E+00
        -11   -1    0    0    0    0  0.00000000000E+00  0.00000000000E+00  0.45593999997E+02  0.45594000000E+02  0.51100000000E-03 0.  1.
         11   -1    0    0    0    0 -0.00000000000E+00 -0.00000000000E+00 -0.45593999997E+02  0.45594000000E+02  0.51100000000E-03 0. -1.
    9900012    2    1    2    0    0  0.31888263079E+02  0.12226408815E+02  0.29372894547E+02  0.46142319532E+02  0.10000016148E+02 0.  0.
         12    1    1    2    0    0 -0.31888263079E+02 -0.12226408815E+02 -0.29372894547E+02  0.45045680468E+02  0.00000000000E+00 0. -1.
         11    1    3    3    0    0  0.87767519801E+01 -0.65680662524E+00  0.53609516229E+01  0.10305463251E+02  0.51100000000E-03 0.  1.
        -11    1    3    3    0    0  0.87840206088E+01  0.63670033949E+01  0.92243672522E+01  0.14240319580E+02  0.51100000000E-03 0. -1.
        -12    1    3    3    0    0  0.14327490490E+02  0.65162120452E+01  0.14787575672E+02  0.21596536700E+02  0.00000000000E+00 0.  1.
</event>
<event>
 7    1  0.3086024E-009  0.4614232E+02  0.7816164E-02  0.1320468E+00
        -11   -1    0    0    0    0  0.00000000000E+00  0.00000000000E+00  0.45593999997E+02  0.45594000000E+02  0.51100000000E-03 0. -1.
         11   -1    0    0    0    0 -0.00000000000E+00 -0.00000000000E+00 -0.45593999997E+02  0.45594000000E+02  0.51100000000E-03 0.  1.
    9900012    2    1    2    0    0 -0.69811690087E+01  0.32527598461E+02 -0.30369921447E+02  0.46142317509E+02  0.99999977018E+01 0.  0.
         12    1    1    2    0    0  0.69811690087E+01 -0.32527598461E+02  0.30369921447E+02  0.45045682491E+02  0.00000000000E+00 0. -1.
         11    1    3    3    0    0 -0.45670016941E+01  0.15804287745E+02 -0.16690774867E+02  0.23435336173E+02  0.51100000000E-03 0. -1.
        -11    1    3    3    0    0 -0.20076020578E+01  0.17047103201E+02 -0.13952009094E+02  0.22119962740E+02  0.51100000000E-03 0.  1.
         12    1    3    3    0    0 -0.40656525683E+00 -0.32379248494E+00  0.27286251437E+00  0.58701859690E+00  0.00000000000E+00 0. -1.
</event>
<event>
 7    1  0.3086024E-009  0.4614232E+02  0.7816164E-02  0.1320468E+00
        -11   -1    0    0    0    0  0.00000000000E+00  0.00000000000E+00  0.45593999997E+02  0.45594000000E+02  0.51100000000E-03 0.  1.
         11   -1    0    0    0    0 -0.00000000000E+00 -0.00000000000E+00 -0.45593999997E+02  0.45594000000E+02  0.51100000000E-03 0. -1.
    9900012    2    1    2    0    0 -0.35868861368E+02  0.62701781828E+01  0.26518355643E+02  0.46142317229E+02  0.99999951491E+01 0.  0.
         12    1    1    2    0    0  0.35868861368E+02 -0.62701781828E+01 -0.26518355643E+02  0.45045682771E+02  0.00000000000E+00 0. -1.
         11    1    3    3    0    0 -0.11064832016E+02  0.57900360685E+01  0.11401175697E+02  0.16909814687E+02  0.51100000000E-03 0.  1.
        -11    1    3    3    0    0 -0.23004658918E+02  0.12443201908E+01  0.13555543657E+02  0.26730421410E+02  0.51100000000E-03 0. -1.
         12    1    3    3    0    0 -0.17993704339E+01 -0.76417807658E+00  0.15616362886E+01  0.25020811316E+01  0.00000000000E+00 0. -1.
</event>
<event>
 7    1  0.3086024E-009  0.4614231E+02  0.7816164E-02  0.1320468E+00
        -11   -1    0    0    0    0  0.00000000000E+00  0.00000000000E+00  0.45593999997E+02  0.45594000000E+02  0.51100000000E-03 0.  1.
         11   -1    0    0    0    0 -0.00000000000E+00 -0.00000000000E+00 -0.45593999997E+02  0.45594000000E+02  0.51100000000E-03 0. -1.
    9900012    2    1    2    0    0 -0.25706258409E+02  0.69085035595E+01  0.36339712497E+02  0.46142313778E+02  0.99999636762E+01 0.  0.
         12    1    1    2    0    0  0.25706258409E+02 -0.69085035595E+01 -0.36339712497E+02  0.45045686222E+02  0.00000000000E+00 0. -1.
         11    1    3    3    0    0 -0.16873259821E+02  0.23019221362E+01  0.23833750989E+02  0.29292549035E+02  0.51100000000E-03 0. -1.
        -11    1    3    3    0    0 -0.31632266954E+01  0.42536797795E+01  0.80097328834E+01  0.96049787047E+01  0.51100000000E-03 0.  1.
         12    1    3    3    0    0 -0.56697718926E+01  0.35290164371E+00  0.44962286253E+01  0.72447860380E+01  0.00000000000E+00 0. -1.
</event>
<event>
 7    1  0.3086024E-009  0.4614232E+02  0.7816164E-02  0.1320468E+00
        -11   -1    0    0    0    0  0.00000000000E+00  0.00000000000E+00  0.45593999997E+02  0.45594000000E+02  0.51100000000E-03 0.  1.
         11   -1    0    0    0    0 -0.00000000000E+00 -0.00000000000E+00 -0.45593999997E+02  0.45594000000E+02  0.51100000000E-03 0. -1.
    9900012    2    1    2    0    0 -0.27924984991E+01  0.42885547743E+02  0.13496121672E+02  0.46142317041E+02  0.99999934292E+01 0.  0.
         12    1    1    2    0    0  0.27924984991E+01 -0.42885547743E+02 -0.13496121672E+02  0.45045682959E+02  0.00000000000E+00 0. -1.
         11    1    3    3    0    0  0.33129480817E+01  0.10707672316E+02  0.32643950458E+01  0.11674165782E+02  0.51100000000E-03 0. -1.
        -11    1    3    3    0    0 -0.25024547401E+01  0.18188267201E+02  0.43321167477E+01  0.18863790162E+02  0.51100000000E-03 0.  1.
         12    1    3    3    0    0 -0.36029918407E+01  0.13989608227E+02  0.58996098785E+01  0.15604361097E+02  0.00000000000E+00 0. -1.
</event>
<event>
 7    1  0.3086024E-009  0.4614232E+02  0.7816164E-02  0.1320468E+00
        -11   -1    0    0    0    0  0.00000000000E+00  0.00000000000E+00  0.45593999997E+02  0.45594000000E+02  0.51100000000E-03 0.  1.
         11   -1    0    0    0    0 -0.00000000000E+00 -0.00000000000E+00 -0.45593999997E+02  0.45594000000E+02  0.51100000000E-03 0. -1.
    9900012    2    1    2    0    0  0.33504573877E+02 -0.23079280096E+02  0.19336592488E+02  0.46142318193E+02  0.10000003938E+02 0.  0.
         12    1    1    2    0    0 -0.33504573877E+02  0.23079280096E+02 -0.19336592488E+02  0.45045681807E+02  0.00000000000E+00 0. -1.
         11    1    3    3    0    0  0.16751995622E+02 -0.10848614578E+02  0.58104271875E+01  0.20786602895E+02  0.51100000000E-03 0. -1.
        -11    1    3    3    0    0  0.40210264169E+01 -0.51121380008E+01  0.21257982702E+01  0.68426330408E+01  0.51100000000E-03 0.  1.
        -12    1    3    3    0    0  0.12731551838E+02 -0.71185275177E+01  0.11400367030E+02  0.18513082257E+02  0.00000000000E+00 0.  1.
</event>
<event>
 7    1  0.3086024E-009  0.4614231E+02  0.7816164E-02  0.1320468E+00
        -11   -1    0    0    0    0  0.00000000000E+00  0.00000000000E+00  0.45593999997E+02  0.45594000000E+02  0.51100000000E-03 0.  1.
         11   -1    0    0    0    0 -0.00000000000E+00 -0.00000000000E+00 -0.45593999997E+02  0.45594000000E+02  0.51100000000E-03 0. -1.
    9900012    2    1    2    0    0 -0.31044211136E+02 -0.14063626911E+02 -0.29454801091E+02  0.46142312590E+02  0.99999528481E+01 0.  0.
         12    1    1    2    0    0  0.31044211136E+02  0.14063626911E+02  0.29454801091E+02  0.45045687410E+02  0.00000000000E+00 0. -1.
         11    1    3    3    0    0 -0.18203291304E+02 -0.75167716543E+01 -0.11904061287E+02  0.23012352026E+02  0.51100000000E-03 0. -1.
        -11    1    3    3    0    0 -0.53784525001E+01 -0.11010710060E+01 -0.42843869674E+01  0.69639127366E+01  0.51100000000E-03 0.  1.
         12    1    3    3    0    0 -0.74624673317E+01 -0.54457842502E+01 -0.13266352836E+02  0.16166047827E+02  0.00000000000E+00 0. -1.
</event>
<event>
 7    1  0.3086024E-009  0.4614232E+02  0.7816164E-02  0.1320468E+00
        -11   -1    0    0    0    0  0.00000000000E+00  0.00000000000E+00  0.45593999997E+02  0.45594000000E+02  0.51100000000E-03 0. -1.
         11   -1    0    0    0    0 -0.00000000000E+00 -0.00000000000E+00 -0.45593999997E+02  0.45594000000E+02  0.51100000000E-03 0.  1.
    9900012    2    1    2    0    0  0.24801519354E+02  0.34512019512E+02 -0.14930462047E+02  0.46142317077E+02  0.99999937600E+01 0.  0.
         12    1    1    2    0    0 -0.24801519354E+02 -0.34512019512E+02  0.14930462047E+02  0.45045682923E+02  0.00000000000E+00 0. -1.
         11    1    3    3    0    0  0.10780527577E+02  0.88567909907E+01 -0.22441255784E+01  0.14131476263E+02  0.51100000000E-03 0. -1.
        -11    1    3    3    0    0  0.34519548583E+01  0.41560990962E+01 -0.29069919969E+01  0.61351246746E+01  0.51100000000E-03 0.  1.
         12    1    3    3    0    0  0.10569036919E+02  0.21499129425E+02 -0.97793444716E+01  0.25875716139E+02  0.00000000000E+00 0. -1.
</event>
<event>
 7    1  0.3086024E-009  0.4614232E+02  0.7816164E-02  0.1320468E+00
        -11   -1    0    0    0    0  0.00000000000E+00  0.00000000000E+00  0.45593999997E+02  0.45594000000E+02  0.51100000000E-03 0.  1.
         11   -1    0    0    0    0 -0.00000000000E+00 -0.00000000000E+00 -0.45593999997E+02  0.45594000000E+02  0.51100000000E-03 0. -1.
    9900012    2    1    2    0    0 -0.18467776105E+02 -0.31397998698E+02  0.26499442711E+02  0.46142317183E+02  0.99999947252E+01 0.  0.
         12    1    1    2    0    0  0.18467776105E+02  0.31397998698E+02 -0.26499442711E+02  0.45045682817E+02  0.00000000000E+00 0. -1.
         11    1    3    3    0    0 -0.30070299503E+01 -0.11401867196E+01  0.48169322754E+01  0.57918124697E+01  0.51100000000E-03 0. -1.
        -11    1    3    3    0    0 -0.34771840529E+01 -0.76908493633E+01  0.62211294721E+01  0.10485343344E+02  0.51100000000E-03 0.  1.
         12    1    3    3    0    0 -0.11983562102E+02 -0.22566962615E+02  0.15461380963E+02  0.29865161369E+02  0.00000000000E+00 0. -1.
</event>
<event>
 7    1  0.3086024E-009  0.4614232E+02  0.7816164E-02  0.1320468E+00
        -11   -1    0    0    0    0  0.00000000000E+00  0.00000000000E+00  0.45593999997E+02  0.45594000000E+02  0.51100000000E-03 0.  1.
         11   -1    0    0    0    0 -0.00000000000E+00 -0.00000000000E+00 -0.45593999997E+02  0.45594000000E+02  0.51100000000E-03 0. -1.
    9900012    2    1    2    0    0  0.33944526594E+02  0.14560128695E+02  0.25785365855E+02  0.46142319568E+02  0.10000016478E+02 0.  0.
         12    1    1    2    0    0 -0.33944526594E+02 -0.14560128695E+02 -0.25785365855E+02  0.45045680432E+02  0.00000000000E+00 0. -1.
         11    1    3    3    0    0  0.47525485454E+01  0.42355304872E+01  0.64854142516E+01  0.90877408887E+01  0.51100000000E-03 0.  1.
        -11    1    3    3    0    0  0.22392309281E+02  0.56221575730E+01  0.16292632288E+02  0.28257282918E+02  0.51100000000E-03 0. -1.
        -12    1    3    3    0    0  0.67996687667E+01  0.47024406347E+01  0.30073193153E+01  0.87972957620E+01  0.00000000000E+00 0.  1.
</event>
<event>
 7    1  0.3086024E-009  0.4614231E+02  0.7816164E-02  0.1320468E+00
        -11   -1    0    0    0    0  0.00000000000E+00  0.00000000000E+00  0.45593999997E+02  0.45594000000E+02  0.51100000000E-03 0.  1.
         11   -1    0    0    0    0 -0.00000000000E+00 -0.00000000000E+00 -0.45593999997E+02  0.45594000000E+02  0.51100000000E-03 0. -1.
    9900012    2    1    2    0    0  0.44607027817E+02  0.27266234410E+01  0.56473345708E+01  0.46142314371E+02  0.99999690869E+01 0.  0.
         12    1    1    2    0    0 -0.44607027817E+02 -0.27266234410E+01 -0.56473345708E+01  0.45045685629E+02  0.00000000000E+00 0. -1.
         11    1    3    3    0    0  0.32814494893E+01 -0.23210434236E+01 -0.75390975274E-01  0.40200544008E+01  0.51100000000E-03 0. -1.
        -11    1    3    3    0    0  0.19542892340E+02  0.26739003049E+01  0.41307989044E+01  0.20152862915E+02  0.51100000000E-03 0.  1.
         12    1    3    3    0    0  0.21782685988E+02  0.23737665597E+01  0.15919266417E+01  0.21969397055E+02  0.00000000000E+00 0. -1.
</event>
<event>
 7    1  0.3086024E-009  0.4614232E+02  0.7816164E-02  0.1320468E+00
        -11   -1    0    0    0    0  0.00000000000E+00  0.00000000000E+00  0.45593999997E+02  0.45594000000E+02  0.51100000000E-03 0. -1.
         11   -1    0    0    0    0 -0.00000000000E+00 -0.00000000000E+00 -0.45593999997E+02  0.45594000000E+02  0.51100000000E-03 0.  1.
    9900012    2    1    2    0    0 -0.16094479573E+02  0.32885434192E+02  0.26241748988E+02  0.46142318247E+02  0.10000004426E+02 0.  0.
         12    1    1    2    0    0  0.16094479573E+02 -0.32885434192E+02 -0.26241748988E+02  0.45045681753E+02  0.00000000000E+00 0. -1.
         11    1    3    3    0    0  0.39907170443E-01  0.12668658467E+01  0.15619099052E+01  0.20114930944E+01  0.51100000000E-03 0. -1.
        -11    1    3    3    0    0 -0.46828055289E+01  0.99900863882E+01  0.29941358940E+01  0.11432206422E+02  0.51100000000E-03 0.  1.
        -12    1    3    3    0    0 -0.11451581215E+02  0.21628481957E+02  0.21685703188E+02  0.32698618730E+02  0.00000000000E+00 0.  1.
</event>
<event>
 7    1  0.3086024E-009  0.4614232E+02  0.7816164E-02  0.1320468E+00
        -11   -1    0    0    0    0  0.00000000000E+00  0.00000000000E+00  0.45593999997E+02  0.45594000000E+02  0.51100000000E-03 0.  1.
         11   -1    0    0    0    0 -0.00000000000E+00 -0.00000000000E+00 -0.45593999997E+02  0.45594000000E+02  0.51100000000E-03 0. -1.
    9900012    2    1    2    0    0  0.31543968649E+02 -0.18724309207E+01  0.32102734414E+02  0.46142317492E+02  0.99999975501E+01 0.  0.
         12    1    1    2    0    0 -0.31543968649E+02  0.18724309207E+01 -0.32102734414E+02  0.45045682508E+02  0.00000000000E+00 0. -1.
         11    1    3    3    0    0  0.84602961764E+01  0.36416438196E+01  0.83685259949E+01  0.12444693997E+02  0.51100000000E-03 0. -1.
        -11    1    3    3    0    0  0.14683602667E+02 -0.32190198219E+01  0.16974919992E+02  0.22674174403E+02  0.51100000000E-03 0.  1.
         12    1    3    3    0    0  0.84000698065E+01 -0.22950549185E+01  0.67592884274E+01  0.11023449092E+02  0.00000000000E+00 0. -1.
</event>
<event>
 7    1  0.3086024E-009  0.4614232E+02  0.7816164E-02  0.1320468E+00
        -11   -1    0    0    0    0  0.00000000000E+00  0.00000000000E+00  0.45593999997E+02  0.45594000000E+02  0.51100000000E-03 0.  1.
         11   -1    0    0    0    0 -0.00000000000E+00 -0.00000000000E+00 -0.45593999997E+02  0.45594000000E+02  0.51100000000E-03 0. -1.
    9900012    2    1    2    0    0  0.23755904787E+02 -0.25540477216E+01  0.38187004834E+02  0.46142317519E+02  0.99999977878E+01 0.  0.
         12    1    1    2    0    0 -0.23755904787E+02  0.25540477216E+01 -0.38187004834E+02  0.45045682481E+02  0.00000000000E+00 0. -1.
         11    1    3    3    0    0  0.99346699945E+01 -0.19987543583E+01  0.82169462523E+01  0.13046489676E+02  0.51100000000E-03 0. -1.
        -11    1    3    3    0    0  0.43412732447E+01  0.94213977432E+00  0.96065624799E+01  0.10583965404E+02  0.51100000000E-03 0.  1.
        -12    1    3    3    0    0  0.94799615479E+01 -0.14974331377E+01  0.20363496102E+02  0.22511862438E+02  0.00000000000E+00 0.  1.
</event>
<event>
 7    1  0.3086024E-009  0.4614232E+02  0.7816164E-02  0.1320468E+00
        -11   -1    0    0    0    0  0.00000000000E+00  0.00000000000E+00  0.45593999997E+02  0.45594000000E+02  0.51100000000E-03 0.  1.
         11   -1    0    0    0    0 -0.00000000000E+00 -0.00000000000E+00 -0.45593999997E+02  0.45594000000E+02  0.51100000000E-03 0. -1.
    9900012    2    1    2    0    0 -0.25456548692E+02  0.36932888425E+02 -0.41278745440E+01  0.46142317999E+02  0.10000002166E+02 0.  0.
         12    1    1    2    0    0  0.25456548692E+02 -0.36932888425E+02  0.41278745440E+01  0.45045682001E+02  0.00000000000E+00 0. -1.
         11    1    3    3    0    0 -0.42364569428E+01  0.76864424513E+01  0.25543309376E+01  0.91407642889E+01  0.51100000000E-03 0. -1.
        -11    1    3    3    0    0 -0.15465124194E+02  0.24242721156E+02 -0.56604471348E+01  0.29307341357E+02  0.51100000000E-03 0.  1.
         12    1    3    3    0    0 -0.57549675553E+01  0.50037248173E+01 -0.10217583467E+01  0.76942123527E+01  0.00000000000E+00 0. -1.
</event>
<event>
 7    1  0.3086024E-009  0.4614232E+02  0.7816164E-02  0.1320468E+00
        -11   -1    0    0    0    0  0.00000000000E+00  0.00000000000E+00  0.45593999997E+02  0.45594000000E+02  0.51100000000E-03 0. -1.
         11   -1    0    0    0    0 -0.00000000000E+00 -0.00000000000E+00 -0.45593999997E+02  0.45594000000E+02  0.51100000000E-03 0.  1.
    9900012    2    1    2    0    0 -0.43033189916E+02 -0.10787935871E+02  0.78024653103E+01  0.46142318080E+02  0.10000002912E+02 0.  0.
         12    1    1    2    0    0  0.43033189916E+02  0.10787935871E+02 -0.78024653103E+01  0.45045681920E+02  0.00000000000E+00 0. -1.
         11    1    3    3    0    0 -0.21565950325E+01  0.86034825381E-02  0.27093068493E+01  0.34628485411E+01  0.51100000000E-03 0. -1.
        -11    1    3    3    0    0 -0.20701310403E+02 -0.69401951635E+01  0.25512936875E+01  0.21982257869E+02  0.51100000000E-03 0.  1.
         12    1    3    3    0    0 -0.20175284481E+02 -0.38563441900E+01  0.25418647735E+01  0.20697211670E+02  0.00000000000E+00 0. -1.
</event>
<event>
 7    1  0.3086024E-009  0.4614232E+02  0.7816164E-02  0.1320468E+00
        -11   -1    0    0    0    0  0.00000000000E+00  0.00000000000E+00  0.45593999997E+02  0.45594000000E+02  0.51100000000E-03 0.  1.
         11   -1    0    0    0    0 -0.00000000000E+00 -0.00000000000E+00 -0.45593999997E+02  0.45594000000E+02  0.51100000000E-03 0. -1.
    9900012    2    1    2    0    0 -0.36637680154E+01  0.28854028580E+02  0.34396735012E+02  0.46142317178E+02  0.99999946865E+01 0.  0.
         12    1    1    2    0    0  0.36637680154E+01 -0.28854028580E+02 -0.34396735012E+02  0.45045682822E+02  0.00000000000E+00 0. -1.
         11    1    3    3    0    0 -0.10038285201E+01  0.78319863030E+01  0.15504337257E+02  0.17399199843E+02  0.51100000000E-03 0. -1.
        -11    1    3    3    0    0 -0.34163614133E+01  0.97446446303E+01  0.82271053288E+01  0.13202836310E+02  0.51100000000E-03 0.  1.
        -12    1    3    3    0    0  0.75642191796E+00  0.11277397647E+02  0.10665292427E+02  0.15540281025E+02  0.00000000000E+00 0.  1.
</event>
<event>
 7    1  0.3086024E-009  0.4614232E+02  0.7816164E-02  0.1320468E+00
        -11   -1    0    0    0    0  0.00000000000E+00  0.00000000000E+00  0.45593999997E+02  0.45594000000E+02  0.51100000000E-03 0.  1.
         11   -1    0    0    0    0 -0.00000000000E+00 -0.00000000000E+00 -0.45593999997E+02  0.45594000000E+02  0.51100000000E-03 0. -1.
    9900012    2    1    2    0    0  0.24487401743E+02 -0.19159028045E+01  0.37759898511E+02  0.46142318040E+02  0.10000002547E+02 0.  0.
         12    1    1    2    0    0 -0.24487401743E+02  0.19159028045E+01 -0.37759898511E+02  0.45045681960E+02  0.00000000000E+00 0. -1.
         11    1    3    3    0    0  0.63020881920E+01  0.11765648703E+01  0.47469778566E+01  0.79771184964E+01  0.51100000000E-03 0. -1.
        -11    1    3    3    0    0  0.16359778955E+02 -0.42027779340E+01  0.27768684506E+02  0.32502392978E+02  0.51100000000E-03 0.  1.
        -12    1    3    3    0    0  0.18255345958E+01  0.11103102592E+01  0.52442361477E+01  0.56628065661E+01  0.00000000000E+00 0.  1.
</event>
<event>
 7    1  0.3086024E-009  0.4614232E+02  0.7816164E-02  0.1320468E+00
        -11   -1    0    0    0    0  0.00000000000E+00  0.00000000000E+00  0.45593999997E+02  0.45594000000E+02  0.51100000000E-03 0. -1.
         11   -1    0    0    0    0 -0.00000000000E+00 -0.00000000000E+00 -0.45593999997E+02  0.45594000000E+02  0.51100000000E-03 0.  1.
    9900012    2    1    2    0    0 -0.28315577887E+02 -0.19849659401E+02 -0.28867504147E+02  0.46142315133E+02  0.99999760370E+01 0.  0.
         12    1    1    2    0    0  0.28315577887E+02  0.19849659401E+02  0.28867504147E+02  0.45045684867E+02  0.00000000000E+00 0. -1.
         11    1    3    3    0    0 -0.17447232814E+02 -0.11345378880E+02 -0.12287415422E+02  0.24168246374E+02  0.51100000000E-03 0. -1.
        -11    1    3    3    0    0 -0.10046491439E+02 -0.89131721955E+01 -0.15993717318E+02  0.20884817996E+02  0.51100000000E-03 0.  1.
         12    1    3    3    0    0 -0.82185363429E+00  0.40889167425E+00 -0.58637140763E+00  0.10892507632E+01  0.00000000000E+00 0. -1.
</event>
<event>
 7    1  0.3086024E-009  0.4614232E+02  0.7816164E-02  0.1320468E+00
        -11   -1    0    0    0    0  0.00000000000E+00  0.00000000000E+00  0.45593999997E+02  0.45594000000E+02  0.51100000000E-03 0. -1.
         11   -1    0    0    0    0 -0.00000000000E+00 -0.00000000000E+00 -0.45593999997E+02  0.45594000000E+02  0.51100000000E-03 0.  1.
    9900012    2    1    2    0    0 -0.67700084648E+00 -0.32770557336E+02 -0.30898961609E+02  0.46142316669E+02  0.99999900395E+01 0.  0.
         12    1    1    2    0    0  0.67700084648E+00  0.32770557336E+02  0.30898961609E+02  0.45045683331E+02  0.00000000000E+00 0. -1.
         11    1    3    3    0    0  0.34686024104E+01 -0.16859889635E+02 -0.14846263831E+02  0.22731005943E+02  0.51100000000E-03 0. -1.
        -11    1    3    3    0    0 -0.63705098275E+00 -0.27011645970E+01 -0.54408459036E+01  0.61077760717E+01  0.51100000000E-03 0.  1.
         12    1    3    3    0    0 -0.35085522742E+01 -0.13209503104E+02 -0.10611851875E+02  0.17303534654E+02  0.00000000000E+00 0. -1.
</event>
<event>
 7    1  0.3086024E-009  0.4614232E+02  0.7816164E-02  0.1320468E+00
        -11   -1    0    0    0    0  0.00000000000E+00  0.00000000000E+00  0.45593999997E+02  0.45594000000E+02  0.51100000000E-03 0. -1.
         11   -1    0    0    0    0 -0.00000000000E+00 -0.00000000000E+00 -0.45593999997E+02  0.45594000000E+02  0.51100000000E-03 0.  1.
    9900012    2    1    2    0    0 -0.11700517071E+02 -0.28923329427E+01 -0.43403291890E+02  0.46142318338E+02  0.10000005257E+02 0.  0.
         12    1    1    2    0    0  0.11700517071E+02  0.28923329427E+01  0.43403291890E+02  0.45045681662E+02  0.00000000000E+00 0. -1.
         11    1    3    3    0    0 -0.63095230524E+01 -0.20619672138E+01 -0.14036348654E+02  0.15526779245E+02  0.51100000000E-03 0. -1.
        -11    1    3    3    0    0 -0.15113625301E+01 -0.32101065490E+01 -0.77345278332E+01  0.85095194821E+01  0.51100000000E-03 0.  1.
        -12    1    3    3    0    0 -0.38796314886E+01  0.23797408201E+01 -0.21632415403E+02  0.22106019610E+02  0.00000000000E+00 0.  1.
</event>
<event>
 7    1  0.3086024E-009  0.4614232E+02  0.7816164E-02  0.1320468E+00
        -11   -1    0    0    0    0  0.00000000000E+00  0.00000000000E+00  0.45593999997E+02  0.45594000000E+02  0.51100000000E-03 0.  1.
         11   -1    0    0    0    0 -0.00000000000E+00 -0.00000000000E+00 -0.45593999997E+02  0.45594000000E+02  0.51100000000E-03 0. -1.
    9900012    2    1    2    0    0  0.36544273098E+02  0.20707857733E+02  0.16273115083E+02  0.46142317158E+02  0.99999944997E+01 0.  0.
         12    1    1    2    0    0 -0.36544273098E+02 -0.20707857733E+02 -0.16273115083E+02  0.45045682842E+02  0.00000000000E+00 0. -1.
         11    1    3    3    0    0  0.64084784363E+01  0.21059340564E+01 -0.57890384982E+00  0.67704271687E+01  0.51100000000E-03 0. -1.
        -11    1    3    3    0    0  0.20017490236E+02  0.11287405382E+02  0.93773416873E+01  0.24820152557E+02  0.51100000000E-03 0.  1.
         12    1    3    3    0    0  0.10118304426E+02  0.73145182950E+01  0.74746772460E+01  0.14551737432E+02  0.00000000000E+00 0. -1.
</event>
<event>
 7    1  0.3086024E-009  0.4614231E+02  0.7816164E-02  0.1320468E+00
        -11   -1    0    0    0    0  0.00000000000E+00  0.00000000000E+00  0.45593999997E+02  0.45594000000E+02  0.51100000000E-03 0.  1.
         11   -1    0    0    0    0 -0.00000000000E+00 -0.00000000000E+00 -0.45593999997E+02  0.45594000000E+02  0.51100000000E-03 0. -1.
    9900012    2    1    2    0    0 -0.66094494353E+01  0.27015966512E+02  0.35433974319E+02  0.46142314253E+02  0.99999680095E+01 0.  0.
         12    1    1    2    0    0  0.66094494353E+01 -0.27015966512E+02 -0.35433974319E+02  0.45045685747E+02  0.00000000000E+00 0. -1.
         11    1    3    3    0    0 -0.62114140720E+01  0.24883457019E+02  0.32973082099E+02  0.41773104282E+02  0.51100000000E-03 0. -1.
        -11    1    3    3    0    0 -0.13050561368E+01  0.16933179986E+01  0.25842503612E+01  0.33539301655E+01  0.51100000000E-03 0.  1.
         12    1    3    3    0    0  0.90702077363E+00  0.43919149378E+00 -0.12335814125E+00  0.10152798053E+01  0.00000000000E+00 0. -1.
</event>
<event>
 7    1  0.3086024E-009  0.4614232E+02  0.7816164E-02  0.1320468E+00
        -11   -1    0    0    0    0  0.00000000000E+00  0.00000000000E+00  0.45593999997E+02  0.45594000000E+02  0.51100000000E-03 0.  1.
         11   -1    0    0    0    0 -0.00000000000E+00 -0.00000000000E+00 -0.45593999997E+02  0.45594000000E+02  0.51100000000E-03 0. -1.
    9900012    2    1    2    0    0 -0.41038480137E+02  0.16253370704E+01  0.18501757215E+02  0.46142316604E+02  0.99999894530E+01 0.  0.
         12    1    1    2    0    0  0.41038480137E+02 -0.16253370704E+01 -0.18501757215E+02  0.45045683396E+02  0.00000000000E+00 0. -1.
         11    1    3    3    0    0 -0.15671345881E+01  0.57389748974E+00 -0.23892047195E-01  0.16690836519E+01  0.51100000000E-03 0. -1.
        -11    1    3    3    0    0 -0.24552516246E+02 -0.30169195393E+01  0.90686786488E+01  0.26347083144E+02  0.51100000000E-03 0.  1.
        -12    1    3    3    0    0 -0.14918829303E+02  0.40683591199E+01  0.94569706136E+01  0.18126149808E+02  0.00000000000E+00 0.  1.
</event>
<event>
 7    1  0.3086024E-009  0.4614233E+02  0.7816164E-02  0.1320468E+00
        -11   -1    0    0    0    0  0.00000000000E+00  0.00000000000E+00  0.45593999997E+02  0.45594000000E+02  0.51100000000E-03 0.  1.
         11   -1    0    0    0    0 -0.00000000000E+00 -0.00000000000E+00 -0.45593999997E+02  0.45594000000E+02  0.51100000000E-03 0. -1.
    9900012    2    1    2    0    0 -0.11232398503E+02  0.19005690641E+02  0.39264859375E+02  0.46142331678E+02  0.10000126903E+02 0.  0.
         12    1    1    2    0    0  0.11232398503E+02 -0.19005690641E+02 -0.39264859375E+02  0.45045668322E+02  0.00000000000E+00 0. -1.
         11    1    3    3    0    0 -0.20751960724E+01  0.40118484303E+01  0.52029278510E+01  0.68899800472E+01  0.51100000000E-03 0. -1.
        -11    1    3    3    0    0  0.14688924290E+01  0.18241258257E+01  0.65127607667E+01  0.69210644457E+01  0.51100000000E-03 0.  1.
        -12    1    3    3    0    0 -0.10626094860E+02  0.13169716385E+02  0.27549170757E+02  0.32331287185E+02  0.00000000000E+00 0.  1.
</event>
<event>
 7    1  0.3086024E-009  0.4614232E+02  0.7816164E-02  0.1320468E+00
        -11   -1    0    0    0    0  0.00000000000E+00  0.00000000000E+00  0.45593999997E+02  0.45594000000E+02  0.51100000000E-03 0. -1.
         11   -1    0    0    0    0 -0.00000000000E+00 -0.00000000000E+00 -0.45593999997E+02  0.45594000000E+02  0.51100000000E-03 0.  1.
    9900012    2    1    2    0    0 -0.12589942367E+01 -0.22704927153E+02 -0.38884634510E+02  0.46142316694E+02  0.99999902700E+01 0.  0.
         12    1    1    2    0    0  0.12589942367E+01  0.22704927153E+02  0.38884634510E+02  0.45045683306E+02  0.00000000000E+00 0. -1.
         11    1    3    3    0    0 -0.14407598075E+00 -0.13498899481E+01 -0.33520555022E+01  0.36165227928E+01  0.51100000000E-03 0. -1.
        -11    1    3    3    0    0 -0.38718461723E+00 -0.21532541360E+02 -0.29927007097E+02  0.36870394674E+02  0.51100000000E-03 0.  1.
        -12    1    3    3    0    0 -0.72773363873E+00  0.17750415517E+00 -0.56055719111E+01  0.56553992276E+01  0.00000000000E+00 0.  1.
</event>
<event>
 7    1  0.3086024E-009  0.4614232E+02  0.7816164E-02  0.1320468E+00
        -11   -1    0    0    0    0  0.00000000000E+00  0.00000000000E+00  0.45593999997E+02  0.45594000000E+02  0.51100000000E-03 0.  1.
         11   -1    0    0    0    0 -0.00000000000E+00 -0.00000000000E+00 -0.45593999997E+02  0.45594000000E+02  0.51100000000E-03 0. -1.
    9900012    2    1    2    0    0 -0.13517401102E+02  0.31706265643E+02  0.29001828842E+02  0.46142317745E+02  0.99999998545E+01 0.  0.
         12    1    1    2    0    0  0.13517401102E+02 -0.31706265643E+02 -0.29001828842E+02  0.45045682255E+02  0.00000000000E+00 0. -1.
         11    1    3    3    0    0 -0.68859978553E+01  0.20242078091E+02  0.12310632102E+02  0.24672056155E+02  0.51100000000E-03 0.  1.
        -11    1    3    3    0    0 -0.17253515530E+01  0.21214400035E+01  0.20268818330E+01  0.34037620210E+01  0.51100000000E-03 0. -1.
         12    1    3    3    0    0 -0.49060516937E+01  0.93427475492E+01  0.14664314907E+02  0.18066499569E+02  0.00000000000E+00 0. -1.
</event>
<event>
 7    1  0.3086024E-009  0.4614232E+02  0.7816164E-02  0.1320468E+00
        -11   -1    0    0    0    0  0.00000000000E+00  0.00000000000E+00  0.45593999997E+02  0.45594000000E+02  0.51100000000E-03 0.  1.
         11   -1    0    0    0    0 -0.00000000000E+00 -0.00000000000E+00 -0.45593999997E+02  0.45594000000E+02  0.51100000000E-03 0. -1.
    9900012    2    1    2    0    0  0.11932943920E+02 -0.40367849350E+02  0.16036054250E+02  0.46142318213E+02  0.10000004123E+02 0.  0.
         12    1    1    2    0    0 -0.11932943920E+02  0.40367849350E+02 -0.16036054250E+02  0.45045681787E+02  0.00000000000E+00 0. -1.
         11    1    3    3    0    0  0.43323259433E+01 -0.10027707340E+02  0.15779951409E+01  0.11036939408E+02  0.51100000000E-03 0. -1.
        -11    1    3    3    0    0 -0.10078077944E+01 -0.28949168495E+01  0.24982201658E+01  0.39544056916E+01  0.51100000000E-03 0.  1.
        -12    1    3    3    0    0  0.86084257714E+01 -0.27445225160E+02  0.11959838943E+02  0.31150973113E+02  0.00000000000E+00 0.  1.
</event>
<event>
 7    1  0.3086024E-009  0.4614231E+02  0.7816164E-02  0.1320468E+00
        -11   -1    0    0    0    0  0.00000000000E+00  0.00000000000E+00  0.45593999997E+02  0.45594000000E+02  0.51100000000E-03 0.  1.
         11   -1    0    0    0    0 -0.00000000000E+00 -0.00000000000E+00 -0.45593999997E+02  0.45594000000E+02  0.51100000000E-03 0. -1.
    9900012    2    1    2    0    0  0.18579269548E+02  0.23889551731E+02  0.33364864364E+02  0.46142310829E+02  0.99999367847E+01 0.  0.
         12    1    1    2    0    0 -0.18579269548E+02 -0.23889551731E+02 -0.33364864364E+02  0.45045689171E+02  0.00000000000E+00 0. -1.
         11    1    3    3    0    0  0.11652111820E+02  0.17106859744E+02  0.20107839083E+02  0.28857261703E+02  0.51100000000E-03 0. -1.
        -11    1    3    3    0    0  0.69762052404E+01  0.67028164342E+01  0.96080659192E+01  0.13634886090E+02  0.51100000000E-03 0.  1.
         12    1    3    3    0    0 -0.49047512422E-01  0.79875553563E-01  0.36489593622E+01  0.36501630361E+01  0.00000000000E+00 0. -1.
</event>
<event>
 7    1  0.3086024E-009  0.4614232E+02  0.7816164E-02  0.1320468E+00
        -11   -1    0    0    0    0  0.00000000000E+00  0.00000000000E+00  0.45593999997E+02  0.45594000000E+02  0.51100000000E-03 0.  1.
         11   -1    0    0    0    0 -0.00000000000E+00 -0.00000000000E+00 -0.45593999997E+02  0.45594000000E+02  0.51100000000E-03 0. -1.
    9900012    2    1    2    0    0  0.11783405984E+01 -0.26439258027E+01  0.44952582608E+02  0.46142317484E+02  0.99999974744E+01 0.  0.
         12    1    1    2    0    0 -0.11783405984E+01  0.26439258027E+01 -0.44952582608E+02  0.45045682516E+02  0.00000000000E+00 0. -1.
         11    1    3    3    0    0 -0.10560400148E+01 -0.47370804629E+01  0.22140175635E+02  0.22665889112E+02  0.51100000000E-03 0. -1.
        -11    1    3    3    0    0  0.24128083289E+01  0.16592931258E+01  0.22820133142E+02  0.23007246132E+02  0.51100000000E-03 0.  1.
         12    1    3    3    0    0 -0.17842771572E+00  0.43386153436E+00 -0.77261691529E-02  0.46918224010E+00  0.00000000000E+00 0. -1.
</event>
<event>
 7    1  0.3086024E-009  0.4614232E+02  0.7816164E-02  0.1320468E+00
        -11   -1    0    0    0    0  0.00000000000E+00  0.00000000000E+00  0.45593999997E+02  0.45594000000E+02  0.51100000000E-03 0.  1.
         11   -1    0    0    0    0 -0.00000000000E+00 -0.00000000000E+00 -0.45593999997E+02  0.45594000000E+02  0.51100000000E-03 0. -1.
    9900012    2    1    2    0    0  0.37499875788E+02  0.13746480927E+02  0.20830431388E+02  0.46142319921E+02  0.10000019692E+02 0.  0.
         12    1    1    2    0    0 -0.37499875788E+02 -0.13746480927E+02 -0.20830431388E+02  0.45045680079E+02  0.00000000000E+00 0. -1.
         11    1    3    3    0    0  0.65055019551E+01  0.30082585876E+01  0.48179205200E+01  0.86361758792E+01  0.51100000000E-03 0. -1.
        -11    1    3    3    0    0  0.17046566599E+01 -0.13937897113E+01  0.80470674003E+00  0.23443671397E+01  0.51100000000E-03 0.  1.
        -12    1    3    3    0    0  0.29289717173E+02  0.12132012051E+02  0.15207804127E+02  0.35161776902E+02  0.00000000000E+00 0.  1.
</event>
<event>
 7    1  0.3086024E-009  0.4614232E+02  0.7816164E-02  0.1320468E+00
        -11   -1    0    0    0    0  0.00000000000E+00  0.00000000000E+00  0.45593999997E+02  0.45594000000E+02  0.51100000000E-03 0.  1.
         11   -1    0    0    0    0 -0.00000000000E+00 -0.00000000000E+00 -0.45593999997E+02  0.45594000000E+02  0.51100000000E-03 0. -1.
    9900012    2    1    2    0    0 -0.16477519352E+02 -0.11645912492E+02  0.40273783424E+02  0.46142317043E+02  0.99999934556E+01 0.  0.
         12    1    1    2    0    0  0.16477519352E+02  0.11645912492E+02 -0.40273783424E+02  0.45045682957E+02  0.00000000000E+00 0. -1.
         11    1    3    3    0    0 -0.13572686803E+01 -0.98726738703E+00  0.81917949076E+01  0.83619602507E+01  0.51100000000E-03 0.  1.
        -11    1    3    3    0    0  0.41964518821E+00  0.62133850289E+00  0.12546619462E+01  0.14616225503E+01  0.51100000000E-03 0. -1.
        -12    1    3    3    0    0 -0.15539895860E+02 -0.11279983608E+02  0.30827326570E+02  0.36318734242E+02  0.00000000000E+00 0.  1.
</event>
<event>
 7    1  0.3086024E-009  0.4614232E+02  0.7816164E-02  0.1320468E+00
        -11   -1    0    0    0    0  0.00000000000E+00  0.00000000000E+00  0.45593999997E+02  0.45594000000E+02  0.51100000000E-03 0.  1.
         11   -1    0    0    0    0 -0.00000000000E+00 -0.00000000000E+00 -0.45593999997E+02  0.45594000000E+02  0.51100000000E-03 0. -1.
    9900012    2    1    2    0    0  0.37629231003E+01  0.12463487552E+02  0.43123253825E+02  0.46142321709E+02  0.10000036002E+02 0.  0.
         12    1    1    2    0    0 -0.37629231003E+01 -0.12463487552E+02 -0.43123253825E+02  0.45045678291E+02  0.00000000000E+00 0. -1.
         11    1    3    3    0    0  0.93507767039E+00 -0.50406685772E+00  0.48595762454E+00  0.11681646805E+01  0.51100000000E-03 0. -1.
        -11    1    3    3    0    0  0.35889752715E+01  0.85932725726E+01  0.34132764835E+02  0.35380371854E+02  0.51100000000E-03 0.  1.
        -12    1    3    3    0    0 -0.76112984163E+00  0.43742818373E+01  0.85045313654E+01  0.95937851744E+01  0.00000000000E+00 0.  1.
</event>
<event>
 7    1  0.3086024E-009  0.4614232E+02  0.7816164E-02  0.1320468E+00
        -11   -1    0    0    0    0  0.00000000000E+00  0.00000000000E+00  0.45593999997E+02  0.45594000000E+02  0.51100000000E-03 0.  1.
         11   -1    0    0    0    0 -0.00000000000E+00 -0.00000000000E+00 -0.45593999997E+02  0.45594000000E+02  0.51100000000E-03 0. -1.
    9900012    2    1    2    0    0 -0.10000553052E+02 -0.32455977872E+02  0.29592430252E+02  0.46142317752E+02  0.99999999208E+01 0.  0.
         12    1    1    2    0    0  0.10000553052E+02  0.32455977872E+02 -0.29592430252E+02  0.45045682248E+02  0.00000000000E+00 0. -1.
         11    1    3    3    0    0 -0.23347885068E+01 -0.36064352164E+01  0.81373542052E+01  0.92018555772E+01  0.51100000000E-03 0. -1.
        -11    1    3    3    0    0 -0.45928241974E+01 -0.18396964582E+02  0.11462337317E+02  0.22156884189E+02  0.51100000000E-03 0.  1.
        -12    1    3    3    0    0 -0.30729403474E+01 -0.10452578074E+02  0.99927387293E+01  0.14783577986E+02  0.00000000000E+00 0.  1.
</event>
<event>
 7    1  0.3086024E-009  0.4614232E+02  0.7816164E-02  0.1320468E+00
        -11   -1    0    0    0    0  0.00000000000E+00  0.00000000000E+00  0.45593999997E+02  0.45594000000E+02  0.51100000000E-03 0.  1.
         11   -1    0    0    0    0 -0.00000000000E+00 -0.00000000000E+00 -0.45593999997E+02  0.45594000000E+02  0.51100000000E-03 0. -1.
    9900012    2    1    2    0    0  0.33246488963E+02 -0.19493343811E+02  0.23319390407E+02  0.46142318184E+02  0.10000003855E+02 0.  0.
         12    1    1    2    0    0 -0.33246488963E+02  0.19493343811E+02 -0.23319390407E+02  0.45045681816E+02  0.00000000000E+00 0. -1.
         11    1    3    3    0    0  0.85569306341E+01 -0.53325282909E+01  0.10093495986E+02  0.14266589688E+02  0.51100000000E-03 0. -1.
        -11    1    3    3    0    0  0.81184626690E+01 -0.26749727102E+01  0.19238767986E+01  0.87616332556E+01  0.51100000000E-03 0.  1.
        -12    1    3    3    0    0  0.16571095660E+02 -0.11485842810E+02  0.11302017623E+02  0.23114095240E+02  0.00000000000E+00 0.  1.
</event>
<event>
 7    1  0.3086024E-009  0.4614232E+02  0.7816164E-02  0.1320468E+00
        -11   -1    0    0    0    0  0.00000000000E+00  0.00000000000E+00  0.45593999997E+02  0.45594000000E+02  0.51100000000E-03 0.  1.
         11   -1    0    0    0    0 -0.00000000000E+00 -0.00000000000E+00 -0.45593999997E+02  0.45594000000E+02  0.51100000000E-03 0. -1.
    9900012    2    1    2    0    0  0.33827493953E+02 -0.18410229176E+01  0.29688798602E+02  0.46142317910E+02  0.10000001357E+02 0.  0.
         12    1    1    2    0    0 -0.33827493953E+02  0.18410229176E+01 -0.29688798602E+02  0.45045682090E+02  0.00000000000E+00 0. -1.
         11    1    3    3    0    0  0.35033635668E+01  0.21967195913E+01  0.13578964096E+01  0.43523575409E+01  0.51100000000E-03 0. -1.
        -11    1    3    3    0    0  0.16708712419E+02 -0.19599802736E+01  0.13697226832E+02  0.21694160886E+02  0.51100000000E-03 0.  1.
        -12    1    3    3    0    0  0.13615417968E+02 -0.20777622353E+01  0.14633675360E+02  0.20095799483E+02  0.00000000000E+00 0.  1.
</event>
<event>
 7    1  0.3086024E-009  0.4614232E+02  0.7816164E-02  0.1320468E+00
        -11   -1    0    0    0    0  0.00000000000E+00  0.00000000000E+00  0.45593999997E+02  0.45594000000E+02  0.51100000000E-03 0.  1.
         11   -1    0    0    0    0 -0.00000000000E+00 -0.00000000000E+00 -0.45593999997E+02  0.45594000000E+02  0.51100000000E-03 0. -1.
    9900012    2    1    2    0    0 -0.17700664348E+02 -0.13866916240E+02  0.39032148252E+02  0.46142317837E+02  0.10000000690E+02 0.  0.
         12    1    1    2    0    0  0.17700664348E+02  0.13866916240E+02 -0.39032148252E+02  0.45045682163E+02  0.00000000000E+00 0. -1.
         11    1    3    3    0    0 -0.80107659585E+01 -0.14406754223E+01  0.11041378610E+02  0.13717141057E+02  0.51100000000E-03 0. -1.
        -11    1    3    3    0    0 -0.66925231333E+01 -0.63888142517E+01  0.19503570636E+02  0.21586942378E+02  0.51100000000E-03 0.  1.
         12    1    3    3    0    0 -0.29973752565E+01 -0.60374265658E+01  0.84871990068E+01  0.10838234402E+02  0.00000000000E+00 0. -1.
</event>
<event>
 7    1  0.3086024E-009  0.4614232E+02  0.7816164E-02  0.1320468E+00
        -11   -1    0    0    0    0  0.00000000000E+00  0.00000000000E+00  0.45593999997E+02  0.45594000000E+02  0.51100000000E-03 0.  1.
         11   -1    0    0    0    0 -0.00000000000E+00 -0.00000000000E+00 -0.45593999997E+02  0.45594000000E+02  0.51100000000E-03 0. -1.
    9900012    2    1    2    0    0  0.27494706192E+02 -0.14232037543E+02  0.32720080604E+02  0.46142318343E+02  0.10000005306E+02 0.  0.
         12    1    1    2    0    0 -0.27494706192E+02  0.14232037543E+02 -0.32720080604E+02  0.45045681657E+02  0.00000000000E+00 0. -1.
         11    1    3    3    0    0  0.50506740120E+01 -0.50519284996E+01  0.98945737955E+01  0.12203846951E+02  0.51100000000E-03 0. -1.
        -11    1    3    3    0    0  0.16138817715E+02 -0.63054472518E+01  0.19982207155E+02  0.26448226885E+02  0.51100000000E-03 0.  1.
         12    1    3    3    0    0  0.63052144648E+01 -0.28746617915E+01  0.28432996533E+01  0.74902445074E+01  0.00000000000E+00 0. -1.
</event>
<event>
 7    1  0.3086024E-009  0.4614232E+02  0.7816164E-02  0.1320468E+00
        -11   -1    0    0    0    0  0.00000000000E+00  0.00000000000E+00  0.45593999997E+02  0.45594000000E+02  0.51100000000E-03 0.  1.
         11   -1    0    0    0    0 -0.00000000000E+00 -0.00000000000E+00 -0.45593999997E+02  0.45594000000E+02  0.51100000000E-03 0. -1.
    9900012    2    1    2    0    0 -0.35123010580E+01  0.26541268907E+01  0.44830043421E+02  0.46142318282E+02  0.10000004754E+02 0.  0.
         12    1    1    2    0    0  0.35123010580E+01 -0.26541268907E+01 -0.44830043421E+02  0.45045681718E+02  0.00000000000E+00 0. -1.
         11    1    3    3    0    0 -0.30106470757E+01 -0.71475740177E+00  0.67689557868E+01  0.74426901495E+01  0.51100000000E-03 0. -1.
        -11    1    3    3    0    0  0.15414613704E+01 -0.44634520936E+00  0.22223357211E+02  0.22281223782E+02  0.51100000000E-03 0.  1.
         12    1    3    3    0    0 -0.20431153528E+01  0.38152295018E+01  0.15837730423E+02  0.16418404351E+02  0.00000000000E+00 0. -1.
</event>
<event>
 7    1  0.3086024E-009  0.4614232E+02  0.7816164E-02  0.1320468E+00
        -11   -1    0    0    0    0  0.00000000000E+00  0.00000000000E+00  0.45593999997E+02  0.45594000000E+02  0.51100000000E-03 0.  1.
         11   -1    0    0    0    0 -0.00000000000E+00 -0.00000000000E+00 -0.45593999997E+02  0.45594000000E+02  0.51100000000E-03 0. -1.
    9900012    2    1    2    0    0  0.13987124545E+02  0.13667868311E+02  0.40579100472E+02  0.46142315719E+02  0.99999813813E+01 0.  0.
         12    1    1    2    0    0 -0.13987124545E+02 -0.13667868311E+02 -0.40579100472E+02  0.45045684281E+02  0.00000000000E+00 0. -1.
         11    1    3    3    0    0 -0.16973046880E+00  0.32696929223E+01  0.97603304946E+01  0.10294841031E+02  0.51100000000E-03 0. -1.
        -11    1    3    3    0    0  0.11333962839E+02  0.79604007679E+01  0.19412275146E+02  0.23846658479E+02  0.51100000000E-03 0.  1.
        -12    1    3    3    0    0  0.28228921743E+01  0.24377746207E+01  0.11406494832E+02  0.12000816209E+02  0.00000000000E+00 0.  1.
</event>
<event>
 7    1  0.3086024E-009  0.4614232E+02  0.7816164E-02  0.1320468E+00
        -11   -1    0    0    0    0  0.00000000000E+00  0.00000000000E+00  0.45593999997E+02  0.45594000000E+02  0.51100000000E-03 0. -1.
         11   -1    0    0    0    0 -0.00000000000E+00 -0.00000000000E+00 -0.45593999997E+02  0.45594000000E+02  0.51100000000E-03 0.  1.
    9900012    2    1    2    0    0  0.90726577159E+01  0.43957812349E+02 -0.38093534893E+01  0.46142316983E+02  0.99999929005E+01 0.  0.
         12    1    1    2    0    0 -0.90726577159E+01 -0.43957812349E+02  0.38093534893E+01  0.45045683017E+02  0.00000000000E+00 0. -1.
         11    1    3    3    0    0  0.57150552766E+01  0.16148583435E+02 -0.41859378603E+01  0.17634077231E+02  0.51100000000E-03 0. -1.
        -11    1    3    3    0    0 -0.66811316492E-01  0.16191285401E+02 -0.14623470610E+01  0.16257325914E+02  0.51100000000E-03 0.  1.
         12    1    3    3    0    0  0.34244137558E+01  0.11617943513E+02  0.18389314320E+01  0.12250913837E+02  0.00000000000E+00 0. -1.
</event>
<event>
 7    1  0.3086024E-009  0.4614232E+02  0.7816164E-02  0.1320468E+00
        -11   -1    0    0    0    0  0.00000000000E+00  0.00000000000E+00  0.45593999997E+02  0.45594000000E+02  0.51100000000E-03 0.  1.
         11   -1    0    0    0    0 -0.00000000000E+00 -0.00000000000E+00 -0.45593999997E+02  0.45594000000E+02  0.51100000000E-03 0. -1.
    9900012    2    1    2    0    0 -0.39293246588E+02 -0.19484296344E+02 -0.10272123260E+02  0.46142317102E+02  0.99999939892E+01 0.  0.
         12    1    1    2    0    0  0.39293246588E+02  0.19484296344E+02  0.10272123260E+02  0.45045682898E+02  0.00000000000E+00 0. -1.
         11    1    3    3    0    0 -0.10799885069E+02 -0.74223121357E+01 -0.34384105440E+01  0.13548095891E+02  0.51100000000E-03 0. -1.
        -11    1    3    3    0    0 -0.28361224342E+02 -0.12440135583E+02 -0.74556954021E+01  0.31854409643E+02  0.51100000000E-03 0.  1.
         12    1    3    3    0    0 -0.13213717809E+00  0.37815137464E+00  0.62198268564E+00  0.73981156872E+00  0.00000000000E+00 0. -1.
</event>
<event>
 7    1  0.3086024E-009  0.4614232E+02  0.7816164E-02  0.1320468E+00
        -11   -1    0    0    0    0  0.00000000000E+00  0.00000000000E+00  0.45593999997E+02  0.45594000000E+02  0.51100000000E-03 0.  1.
         11   -1    0    0    0    0 -0.00000000000E+00 -0.00000000000E+00 -0.45593999997E+02  0.45594000000E+02  0.51100000000E-03 0. -1.
    9900012    2    1    2    0    0  0.39987406189E+02  0.21750272060E+01  0.20624988684E+02  0.46142317018E+02  0.99999932234E+01 0.  0.
         12    1    1    2    0    0 -0.39987406189E+02 -0.21750272060E+01 -0.20624988684E+02  0.45045682982E+02  0.00000000000E+00 0. -1.
         11    1    3    3    0    0  0.90546683325E+01  0.48320238401E+00  0.93226388798E+01  0.13005079742E+02  0.51100000000E-03 0. -1.
        -11    1    3    3    0    0  0.26107197113E+02  0.99977500600E+00  0.10671270353E+02  0.28221645989E+02  0.51100000000E-03 0.  1.
        -12    1    3    3    0    0  0.48255407441E+01  0.69204981599E+00  0.63107945153E+00  0.49155912864E+01  0.00000000000E+00 0.  1.
</event>
<event>
 7    1  0.3086024E-009  0.4614232E+02  0.7816164E-02  0.1320468E+00
        -11   -1    0    0    0    0  0.00000000000E+00  0.00000000000E+00  0.45593999997E+02  0.45594000000E+02  0.51100000000E-03 0.  1.
         11   -1    0    0    0    0 -0.00000000000E+00 -0.00000000000E+00 -0.45593999997E+02  0.45594000000E+02  0.51100000000E-03 0. -1.
    9900012    2    1    2    0    0  0.81152556971E+01  0.14935334376E+02  0.41715607357E+02  0.46142317797E+02  0.10000000330E+02 0.  0.
         12    1    1    2    0    0 -0.81152556971E+01 -0.14935334376E+02 -0.41715607357E+02  0.45045682203E+02  0.00000000000E+00 0. -1.
         11    1    3    3    0    0  0.17070333618E+01  0.27896111096E+01  0.18516499381E+01  0.37582576808E+01  0.51100000000E-03 0. -1.
        -11    1    3    3    0    0  0.12643398460E+01  0.69726107893E+01  0.18662143286E+02  0.19962250593E+02  0.51100000000E-03 0.  1.
        -12    1    3    3    0    0  0.51438824894E+01  0.51731124775E+01  0.21201814133E+02  0.22421809523E+02  0.00000000000E+00 0.  1.
</event>
<event>
 7    1  0.3086024E-009  0.4614232E+02  0.7816164E-02  0.1320468E+00
        -11   -1    0    0    0    0  0.00000000000E+00  0.00000000000E+00  0.45593999997E+02  0.45594000000E+02  0.51100000000E-03 0.  1.
         11   -1    0    0    0    0 -0.00000000000E+00 -0.00000000000E+00 -0.45593999997E+02  0.45594000000E+02  0.51100000000E-03 0. -1.
    9900012    2    1    2    0    0  0.52382553635E+01  0.38085970257E+02  0.23476215402E+02  0.46142321636E+02  0.10000035336E+02 0.  0.
         12    1    1    2    0    0 -0.52382553635E+01 -0.38085970257E+02 -0.23476215402E+02  0.45045678364E+02  0.00000000000E+00 0. -1.
         11    1    3    3    0    0 -0.76372289237E+00  0.76755546003E+01  0.53492494106E+01  0.93867928813E+01  0.51100000000E-03 0. -1.
        -11    1    3    3    0    0  0.23586694121E+01  0.62216801775E+01  0.63638856431E+00  0.66841316783E+01  0.51100000000E-03 0.  1.
        -12    1    3    3    0    0  0.36433088437E+01  0.24188735479E+02  0.17490577427E+02  0.30071397077E+02  0.00000000000E+00 0.  1.
</event>
<event>
 7    1  0.3086024E-009  0.4614231E+02  0.7816164E-02  0.1320468E+00
        -11   -1    0    0    0    0  0.00000000000E+00  0.00000000000E+00  0.45593999997E+02  0.45594000000E+02  0.51100000000E-03 0.  1.
         11   -1    0    0    0    0 -0.00000000000E+00 -0.00000000000E+00 -0.45593999997E+02  0.45594000000E+02  0.51100000000E-03 0. -1.
    9900012    2    1    2    0    0 -0.23177801742E+02  0.33464820665E+02  0.19287535822E+02  0.46142314814E+02  0.99999731268E+01 0.  0.
         12    1    1    2    0    0  0.23177801742E+02 -0.33464820665E+02 -0.19287535822E+02  0.45045685186E+02  0.00000000000E+00 0. -1.
         11    1    3    3    0    0 -0.83010469842E+00  0.43201143193E+01  0.54452438461E+00  0.44327157148E+01  0.51100000000E-03 0. -1.
        -11    1    3    3    0    0 -0.19201806261E+02  0.26002561947E+02  0.14052233157E+02  0.35246387736E+02  0.51100000000E-03 0.  1.
        -12    1    3    3    0    0 -0.31458907829E+01  0.31421443990E+01  0.46907782811E+01  0.64632113632E+01  0.00000000000E+00 0.  1.
</event>
<event>
 7    1  0.3086024E-009  0.4614232E+02  0.7816164E-02  0.1320468E+00
        -11   -1    0    0    0    0  0.00000000000E+00  0.00000000000E+00  0.45593999997E+02  0.45594000000E+02  0.51100000000E-03 0.  1.
         11   -1    0    0    0    0 -0.00000000000E+00 -0.00000000000E+00 -0.45593999997E+02  0.45594000000E+02  0.51100000000E-03 0. -1.
    9900012    2    1    2    0    0 -0.43769460005E+02  0.38635961937E+01  0.99207088210E+01  0.46142317985E+02  0.10000002042E+02 0.  0.
         12    1    1    2    0    0  0.43769460005E+02 -0.38635961937E+01 -0.99207088210E+01  0.45045682015E+02  0.00000000000E+00 0. -1.
         11    1    3    3    0    0 -0.46132816568E+00  0.20574304400E+00 -0.68308494621E+00  0.84956411262E+00  0.51100000000E-03 0. -1.
        -11    1    3    3    0    0 -0.26239344290E+02  0.56599054941E+01  0.61195847679E+01  0.27531564375E+02  0.51100000000E-03 0.  1.
        -12    1    3    3    0    0 -0.17068787550E+02 -0.20020523445E+01  0.44842089993E+01  0.17761189497E+02  0.00000000000E+00 0.  1.
</event>
<event>
 7    1  0.3086024E-009  0.4614232E+02  0.7816164E-02  0.1320468E+00
        -11   -1    0    0    0    0  0.00000000000E+00  0.00000000000E+00  0.45593999997E+02  0.45594000000E+02  0.51100000000E-03 0.  1.
         11   -1    0    0    0    0 -0.00000000000E+00 -0.00000000000E+00 -0.45593999997E+02  0.45594000000E+02  0.51100000000E-03 0. -1.
    9900012    2    1    2    0    0 -0.38190619946E+02 -0.20399031439E+02  0.12428576977E+02  0.46142318063E+02  0.10000002751E+02 0.  0.
         12    1    1    2    0    0  0.38190619946E+02  0.20399031439E+02 -0.12428576977E+02  0.45045681937E+02  0.00000000000E+00 0. -1.
         11    1    3    3    0    0 -0.15574807453E+02 -0.61861467803E+01  0.55109333851E+01  0.17641242196E+02  0.51100000000E-03 0. -1.
        -11    1    3    3    0    0 -0.13062654111E+02 -0.39960459202E+01  0.35529600897E+01  0.14114703011E+02  0.51100000000E-03 0.  1.
         12    1    3    3    0    0 -0.95531583820E+01 -0.10216838739E+02  0.33646835026E+01  0.14386372856E+02  0.00000000000E+00 0. -1.
</event>
<event>
 7    1  0.3086024E-009  0.4614232E+02  0.7816164E-02  0.1320468E+00
        -11   -1    0    0    0    0  0.00000000000E+00  0.00000000000E+00  0.45593999997E+02  0.45594000000E+02  0.51100000000E-03 0.  1.
         11   -1    0    0    0    0 -0.00000000000E+00 -0.00000000000E+00 -0.45593999997E+02  0.45594000000E+02  0.51100000000E-03 0. -1.
    9900012    2    1    2    0    0  0.19065055350E+02  0.28785226038E+01  0.40710578845E+02  0.46142318101E+02  0.10000003097E+02 0.  0.
         12    1    1    2    0    0 -0.19065055350E+02 -0.28785226038E+01 -0.40710578845E+02  0.45045681899E+02  0.00000000000E+00 0. -1.
         11    1    3    3    0    0  0.17584422732E+00  0.13634733234E+01  0.28047453106E+00  0.14030847871E+01  0.51100000000E-03 0. -1.
        -11    1    3    3    0    0  0.14904455321E+02  0.81339854191E+00  0.29035179429E+02  0.32647297749E+02  0.51100000000E-03 0.  1.
        -12    1    3    3    0    0  0.39847558017E+01  0.70165073843E+00  0.11394924885E+02  0.12091935564E+02  0.00000000000E+00 0.  1.
</event>
<event>
 7    1  0.3086024E-009  0.4614232E+02  0.7816164E-02  0.1320468E+00
        -11   -1    0    0    0    0  0.00000000000E+00  0.00000000000E+00  0.45593999997E+02  0.45594000000E+02  0.51100000000E-03 0.  1.
         11   -1    0    0    0    0 -0.00000000000E+00 -0.00000000000E+00 -0.45593999997E+02  0.45594000000E+02  0.51100000000E-03 0. -1.
    9900012    2    1    2    0    0 -0.12561499831E+01 -0.41594184523E+02  0.17247010382E+02  0.46142318009E+02  0.10000002264E+02 0.  0.
         12    1    1    2    0    0  0.12561499831E+01  0.41594184523E+02 -0.17247010382E+02  0.45045681991E+02  0.00000000000E+00 0. -1.
         11    1    3    3    0    0  0.33741788745E+01 -0.68101323147E+01  0.36079961537E+01  0.84131219965E+01  0.51100000000E-03 0. -1.
        -11    1    3    3    0    0 -0.35870441751E+01 -0.31024344797E+02  0.12710608339E+02  0.33718487816E+02  0.51100000000E-03 0.  1.
         12    1    3    3    0    0 -0.10432846825E+01 -0.37597074114E+01  0.92840588899E+00  0.40107081971E+01  0.00000000000E+00 0. -1.
</event>
<event>
 7    1  0.3086024E-009  0.4614232E+02  0.7816164E-02  0.1320468E+00
        -11   -1    0    0    0    0  0.00000000000E+00  0.00000000000E+00  0.45593999997E+02  0.45594000000E+02  0.51100000000E-03 0.  1.
         11   -1    0    0    0    0 -0.00000000000E+00 -0.00000000000E+00 -0.45593999997E+02  0.45594000000E+02  0.51100000000E-03 0. -1.
    9900012    2    1    2    0    0  0.44259241785E+02  0.31873422041E+01  0.77507299306E+01  0.46142318207E+02  0.10000004066E+02 0.  0.
         12    1    1    2    0    0 -0.44259241785E+02 -0.31873422041E+01 -0.77507299306E+01  0.45045681793E+02  0.00000000000E+00 0. -1.
         11    1    3    3    0    0  0.13705258669E+02 -0.10784806508E+01  0.11354918982E+01  0.13794440105E+02  0.51100000000E-03 0. -1.
        -11    1    3    3    0    0  0.15116883347E+02  0.56708068182E+01  0.39170448796E+01  0.16613893371E+02  0.51100000000E-03 0.  1.
        -12    1    3    3    0    0  0.15437099769E+02 -0.14049839634E+01  0.26981931529E+01  0.15733984731E+02  0.00000000000E+00 0.  1.
</event>
<event>
 7    1  0.3086024E-009  0.4614232E+02  0.7816164E-02  0.1320468E+00
        -11   -1    0    0    0    0  0.00000000000E+00  0.00000000000E+00  0.45593999997E+02  0.45594000000E+02  0.51100000000E-03 0.  1.
         11   -1    0    0    0    0 -0.00000000000E+00 -0.00000000000E+00 -0.45593999997E+02  0.45594000000E+02  0.51100000000E-03 0. -1.
    9900012    2    1    2    0    0  0.33395066494E+02 -0.72623101102E+01  0.29345218190E+02  0.46142318244E+02  0.10000004401E+02 0.  0.
         12    1    1    2    0    0 -0.33395066494E+02  0.72623101102E+01 -0.29345218190E+02  0.45045681756E+02  0.00000000000E+00 0. -1.
         11    1    3    3    0    0  0.74794120271E+01 -0.44382733209E+01  0.68524127790E+01  0.11072282308E+02  0.51100000000E-03 0. -1.
        -11    1    3    3    0    0  0.19294851278E+02 -0.47427113383E+01  0.15051045546E+02  0.24926262635E+02  0.51100000000E-03 0.  1.
        -12    1    3    3    0    0  0.66208031887E+01  0.19186745490E+01  0.74417598654E+01  0.10143773301E+02  0.00000000000E+00 0.  1.
</event>
<event>
 7    1  0.3086024E-009  0.4614232E+02  0.7816164E-02  0.1320468E+00
        -11   -1    0    0    0    0  0.00000000000E+00  0.00000000000E+00  0.45593999997E+02  0.45594000000E+02  0.51100000000E-03 0.  1.
         11   -1    0    0    0    0 -0.00000000000E+00 -0.00000000000E+00 -0.45593999997E+02  0.45594000000E+02  0.51100000000E-03 0. -1.
    9900012    2    1    2    0    0  0.29045435691E+02  0.21024881913E+02  0.27265910556E+02  0.46142324599E+02  0.10000062349E+02 0.  0.
         12    1    1    2    0    0 -0.29045435691E+02 -0.21024881913E+02 -0.27265910556E+02  0.45045675401E+02  0.00000000000E+00 0. -1.
         11    1    3    3    0    0  0.24070669396E+01 -0.66743044633E+00  0.29076830389E+01  0.38332826101E+01  0.51100000000E-03 0. -1.
        -11    1    3    3    0    0  0.26655356522E+02  0.21717292347E+02  0.24464944413E+02  0.42198131755E+02  0.51100000000E-03 0.  1.
        -12    1    3    3    0    0 -0.16987770604E-01 -0.24979988521E-01 -0.10671689544E+00  0.11091023375E+00  0.00000000000E+00 0.  1.
</event>
<event>
 7    1  0.3086024E-009  0.4614232E+02  0.7816164E-02  0.1320468E+00
        -11   -1    0    0    0    0  0.00000000000E+00  0.00000000000E+00  0.45593999997E+02  0.45594000000E+02  0.51100000000E-03 0. -1.
         11   -1    0    0    0    0 -0.00000000000E+00 -0.00000000000E+00 -0.45593999997E+02  0.45594000000E+02  0.51100000000E-03 0.  1.
    9900012    2    1    2    0    0 -0.40703881701E+02  0.11392890785E+02  0.15572717207E+02  0.46142317996E+02  0.10000002146E+02 0.  0.
         12    1    1    2    0    0  0.40703881701E+02 -0.11392890785E+02 -0.15572717207E+02  0.45045682004E+02  0.00000000000E+00 0. -1.
         11    1    3    3    0    0 -0.64400823221E+00  0.17233725214E+01  0.10197521095E+01  0.21034861722E+01  0.51100000000E-03 0. -1.
        -11    1    3    3    0    0 -0.34390537098E+02  0.95620639599E+01  0.11018245563E+02  0.37356978526E+02  0.51100000000E-03 0.  1.
        -12    1    3    3    0    0 -0.56693363704E+01  0.10745430420E+00  0.35347195345E+01  0.66818532980E+01  0.00000000000E+00 0.  1.
</event>
<event>
 7    1  0.3086024E-009  0.4614232E+02  0.7816164E-02  0.1320468E+00
        -11   -1    0    0    0    0  0.00000000000E+00  0.00000000000E+00  0.45593999997E+02  0.45594000000E+02  0.51100000000E-03 0.  1.
         11   -1    0    0    0    0 -0.00000000000E+00 -0.00000000000E+00 -0.45593999997E+02  0.45594000000E+02  0.51100000000E-03 0. -1.
    9900012    2    1    2    0    0  0.10567480870E+02  0.13333819187E+02  0.41709124651E+02  0.46142318018E+02  0.10000002347E+02 0.  0.
         12    1    1    2    0    0 -0.10567480870E+02 -0.13333819187E+02 -0.41709124651E+02  0.45045681982E+02  0.00000000000E+00 0. -1.
         11    1    3    3    0    0  0.22295486365E+01  0.33217973526E+00  0.13176842997E+02  0.13368261747E+02  0.51100000000E-03 0. -1.
        -11    1    3    3    0    0  0.74159319679E+01  0.86277972892E+01  0.23013747112E+02  0.25672309779E+02  0.51100000000E-03 0.  1.
         12    1    3    3    0    0  0.92200026590E+00  0.43738421628E+01  0.55185345416E+01  0.71017464924E+01  0.00000000000E+00 0. -1.
</event>
<event>
 7    1  0.3086024E-009  0.4614232E+02  0.7816164E-02  0.1320468E+00
        -11   -1    0    0    0    0  0.00000000000E+00  0.00000000000E+00  0.45593999997E+02  0.45594000000E+02  0.51100000000E-03 0.  1.
         11   -1    0    0    0    0 -0.00000000000E+00 -0.00000000000E+00 -0.45593999997E+02  0.45594000000E+02  0.51100000000E-03 0. -1.
    9900012    2    1    2    0    0  0.36956680861E+02  0.21992386971E+02  0.13403437388E+02  0.46142317867E+02  0.10000000968E+02 0.  0.
         12    1    1    2    0    0 -0.36956680861E+02 -0.21992386971E+02 -0.13403437388E+02  0.45045682133E+02  0.00000000000E+00 0. -1.
         11    1    3    3    0    0  0.19499288601E+02  0.69202265717E+01  0.62111053401E+01  0.21603000291E+02  0.51100000000E-03 0. -1.
        -11    1    3    3    0    0  0.89527503538E+01  0.65539026136E+01  0.55008141787E+01  0.12384035500E+02  0.51100000000E-03 0.  1.
         12    1    3    3    0    0  0.85046419063E+01  0.85182577860E+01  0.16915178692E+01  0.12155282077E+02  0.00000000000E+00 0. -1.
</event>
<event>
 7    1  0.3086024E-009  0.4614232E+02  0.7816164E-02  0.1320468E+00
        -11   -1    0    0    0    0  0.00000000000E+00  0.00000000000E+00  0.45593999997E+02  0.45594000000E+02  0.51100000000E-03 0. -1.
         11   -1    0    0    0    0 -0.00000000000E+00 -0.00000000000E+00 -0.45593999997E+02  0.45594000000E+02  0.51100000000E-03 0.  1.
    9900012    2    1    2    0    0  0.31867693585E+02 -0.15421581096E+02 -0.27852081440E+02  0.46142317649E+02  0.99999989785E+01 0.  0.
         12    1    1    2    0    0 -0.31867693585E+02  0.15421581096E+02  0.27852081440E+02  0.45045682351E+02  0.00000000000E+00 0. -1.
         11    1    3    3    0    0  0.72938258055E+01 -0.72186287969E+01 -0.91250034412E+01  0.13732231598E+02  0.51100000000E-03 0. -1.
        -11    1    3    3    0    0  0.22612405169E+02 -0.59312080048E+01 -0.17325215687E+02  0.29097477464E+02  0.51100000000E-03 0.  1.
         12    1    3    3    0    0  0.19614626105E+01 -0.22717442942E+01 -0.14018623118E+01  0.33126085872E+01  0.00000000000E+00 0. -1.
</event>
<event>
 7    1  0.3086024E-009  0.4614232E+02  0.7816164E-02  0.1320468E+00
        -11   -1    0    0    0    0  0.00000000000E+00  0.00000000000E+00  0.45593999997E+02  0.45594000000E+02  0.51100000000E-03 0. -1.
         11   -1    0    0    0    0 -0.00000000000E+00 -0.00000000000E+00 -0.45593999997E+02  0.45594000000E+02  0.51100000000E-03 0.  1.
    9900012    2    1    2    0    0  0.29097066829E+02 -0.18652926191E+02 -0.28888450118E+02  0.46142317591E+02  0.99999984461E+01 0.  0.
         12    1    1    2    0    0 -0.29097066829E+02  0.18652926191E+02  0.28888450118E+02  0.45045682409E+02  0.00000000000E+00 0. -1.
         11    1    3    3    0    0  0.77356282258E+01 -0.66038829223E+01 -0.41122652684E+01  0.10970958919E+02  0.51100000000E-03 0. -1.
        -11    1    3    3    0    0  0.90079667765E+01 -0.38537453833E+01 -0.70905012696E+01  0.12094214627E+02  0.51100000000E-03 0.  1.
         12    1    3    3    0    0  0.12353471826E+02 -0.81952978853E+01 -0.17685683580E+02  0.23077144045E+02  0.00000000000E+00 0. -1.
</event>
<event>
 7    1  0.3086024E-009  0.4614232E+02  0.7816164E-02  0.1320468E+00
        -11   -1    0    0    0    0  0.00000000000E+00  0.00000000000E+00  0.45593999997E+02  0.45594000000E+02  0.51100000000E-03 0.  1.
         11   -1    0    0    0    0 -0.00000000000E+00 -0.00000000000E+00 -0.45593999997E+02  0.45594000000E+02  0.51100000000E-03 0. -1.
    9900012    2    1    2    0    0  0.64753652171E+01  0.13298310715E+02  0.42548067347E+02  0.46142318103E+02  0.10000003118E+02 0.  0.
         12    1    1    2    0    0 -0.64753652171E+01 -0.13298310715E+02 -0.42548067347E+02  0.45045681897E+02  0.00000000000E+00 0. -1.
         11    1    3    3    0    0  0.39605459651E+01  0.37955271814E+01  0.14945587581E+02  0.15920506880E+02  0.51100000000E-03 0. -1.
        -11    1    3    3    0    0  0.10213688227E+01  0.95749162177E+01  0.17196212259E+02  0.19708676545E+02  0.51100000000E-03 0.  1.
         12    1    3    3    0    0  0.14934504293E+01 -0.72132684066E-01  0.10406267507E+02  0.10513134677E+02  0.00000000000E+00 0. -1.
</event>
<event>
 7    1  0.3086024E-009  0.4614232E+02  0.7816164E-02  0.1320468E+00
        -11   -1    0    0    0    0  0.00000000000E+00  0.00000000000E+00  0.45593999997E+02  0.45594000000E+02  0.51100000000E-03 0. -1.
         11   -1    0    0    0    0 -0.00000000000E+00 -0.00000000000E+00 -0.45593999997E+02  0.45594000000E+02  0.51100000000E-03 0.  1.
    9900012    2    1    2    0    0 -0.12760958853E+02 -0.14680520827E+02 -0.40629470871E+02  0.46142315791E+02  0.99999820314E+01 0.  0.
         12    1    1    2    0    0  0.12760958853E+02  0.14680520827E+02  0.40629470871E+02  0.45045684209E+02  0.00000000000E+00 0. -1.
         11    1    3    3    0    0  0.39705473504E+00 -0.16514530862E+01 -0.67948878621E+01  0.70039596713E+01  0.51100000000E-03 0. -1.
        -11    1    3    3    0    0 -0.81941810548E+01 -0.58927861077E+01 -0.12271300617E+02  0.15888812113E+02  0.51100000000E-03 0.  1.
        -12    1    3    3    0    0 -0.49638325336E+01 -0.71362816327E+01 -0.21563282392E+02  0.23249544006E+02  0.00000000000E+00 0.  1.
</event>
<event>
 7    1  0.3086024E-009  0.4614232E+02  0.7816164E-02  0.1320468E+00
        -11   -1    0    0    0    0  0.00000000000E+00  0.00000000000E+00  0.45593999997E+02  0.45594000000E+02  0.51100000000E-03 0.  1.
         11   -1    0    0    0    0 -0.00000000000E+00 -0.00000000000E+00 -0.45593999997E+02  0.45594000000E+02  0.51100000000E-03 0. -1.
    9900012    2    1    2    0    0 -0.25508578497E+02 -0.24237374278E+02  0.28124288036E+02  0.46142318005E+02  0.10000002223E+02 0.  0.
         12    1    1    2    0    0  0.25508578497E+02  0.24237374278E+02 -0.28124288036E+02  0.45045681995E+02  0.00000000000E+00 0. -1.
         11    1    3    3    0    0 -0.32415246528E+01 -0.60473291657E+01  0.27198710666E+01  0.73807432548E+01  0.51100000000E-03 0. -1.
        -11    1    3    3    0    0 -0.16764382882E+02 -0.10370190906E+02  0.17284006365E+02  0.26216831790E+02  0.51100000000E-03 0.  1.
        -12    1    3    3    0    0 -0.55026709625E+01 -0.78198542068E+01  0.81204106046E+01  0.12544742960E+02  0.00000000000E+00 0.  1.
</event>
<event>
 7    1  0.3086024E-009  0.4614232E+02  0.7816164E-02  0.1320468E+00
        -11   -1    0    0    0    0  0.00000000000E+00  0.00000000000E+00  0.45593999997E+02  0.45594000000E+02  0.51100000000E-03 0.  1.
         11   -1    0    0    0    0 -0.00000000000E+00 -0.00000000000E+00 -0.45593999997E+02  0.45594000000E+02  0.51100000000E-03 0. -1.
    9900012    2    1    2    0    0  0.22161753789E+02 -0.34068439673E+02  0.19424509324E+02  0.46142317907E+02  0.10000001332E+02 0.  0.
         12    1    1    2    0    0 -0.22161753789E+02  0.34068439673E+02 -0.19424509324E+02  0.45045682093E+02  0.00000000000E+00 0. -1.
         11    1    3    3    0    0  0.22931383402E+00 -0.35356295372E+01  0.45480453699E+00  0.35721294051E+01  0.51100000000E-03 0. -1.
        -11    1    3    3    0    0  0.19430809161E+02 -0.27515038597E+02  0.14635764688E+02  0.36726547645E+02  0.51100000000E-03 0.  1.
        -12    1    3    3    0    0  0.25016307942E+01 -0.30177715381E+01  0.43339400990E+01  0.58436408572E+01  0.00000000000E+00 0.  1.
</event>
<event>
 7    1  0.3086024E-009  0.4614233E+02  0.7816164E-02  0.1320468E+00
        -11   -1    0    0    0    0  0.00000000000E+00  0.00000000000E+00  0.45593999997E+02  0.45594000000E+02  0.51100000000E-03 0.  1.
         11   -1    0    0    0    0 -0.00000000000E+00 -0.00000000000E+00 -0.45593999997E+02  0.45594000000E+02  0.51100000000E-03 0. -1.
    9900012    2    1    2    0    0  0.21758825464E+02 -0.38714667099E+02 -0.75392635016E+01  0.46142329528E+02  0.10000107301E+02 0.  0.
         12    1    1    2    0    0 -0.21758825464E+02  0.38714667099E+02  0.75392635016E+01  0.45045670472E+02  0.00000000000E+00 0. -1.
         11    1    3    3    0    0  0.14776679951E+02 -0.19930813566E+02 -0.53174977286E+00  0.24816735439E+02  0.51100000000E-03 0.  1.
        -11    1    3    3    0    0  0.19946076102E+01 -0.76611557982E+01 -0.33765561570E+01  0.86065614170E+01  0.51100000000E-03 0. -1.
        -12    1    3    3    0    0  0.49875379021E+01 -0.11122697735E+02 -0.36309575718E+01  0.12719032672E+02  0.00000000000E+00 0.  1.
</event>
<event>
 7    1  0.3086024E-009  0.4614232E+02  0.7816164E-02  0.1320468E+00
        -11   -1    0    0    0    0  0.00000000000E+00  0.00000000000E+00  0.45593999997E+02  0.45594000000E+02  0.51100000000E-03 0.  1.
         11   -1    0    0    0    0 -0.00000000000E+00 -0.00000000000E+00 -0.45593999997E+02  0.45594000000E+02  0.51100000000E-03 0. -1.
    9900012    2    1    2    0    0 -0.33446880046E+02 -0.17196563206E+02  0.24793099429E+02  0.46142319294E+02  0.10000013979E+02 0.  0.
         12    1    1    2    0    0  0.33446880046E+02  0.17196563206E+02 -0.24793099429E+02  0.45045680706E+02  0.00000000000E+00 0. -1.
         11    1    3    3    0    0 -0.50200903552E+01 -0.36521419410E+01  0.19930193213E+01  0.65200900460E+01  0.51100000000E-03 0. -1.
        -11    1    3    3    0    0 -0.12645452668E+01 -0.24465101692E+01  0.36956562717E+01  0.46089437271E+01  0.51100000000E-03 0.  1.
        -12    1    3    3    0    0 -0.27162244424E+02 -0.11097911096E+02  0.19104423836E+02  0.35013285521E+02  0.00000000000E+00 0.  1.
</event>
<event>
 7    1  0.3086024E-009  0.4614232E+02  0.7816164E-02  0.1320468E+00
        -11   -1    0    0    0    0  0.00000000000E+00  0.00000000000E+00  0.45593999997E+02  0.45594000000E+02  0.51100000000E-03 0. -1.
         11   -1    0    0    0    0 -0.00000000000E+00 -0.00000000000E+00 -0.45593999997E+02  0.45594000000E+02  0.51100000000E-03 0.  1.
    9900012    2    1    2    0    0 -0.26334554978E+02  0.58344919710E+00 -0.36541267967E+02  0.46142318038E+02  0.10000002520E+02 0.  0.
         12    1    1    2    0    0  0.26334554978E+02 -0.58344919710E+00  0.36541267967E+02  0.45045681962E+02  0.00000000000E+00 0. -1.
         11    1    3    3    0    0 -0.84831227450E+00  0.12605984736E+01 -0.74017980782E+00  0.16901504772E+01  0.51100000000E-03 0. -1.
        -11    1    3    3    0    0 -0.49301213261E+01  0.25449667817E+00 -0.12079683088E+02  0.13049506068E+02  0.51100000000E-03 0.  1.
         12    1    3    3    0    0 -0.20556121377E+02 -0.93164595467E+00 -0.23721405071E+02  0.31402661492E+02  0.00000000000E+00 0. -1.
</event>
<event>
 7    1  0.3086024E-009  0.4614232E+02  0.7816164E-02  0.1320468E+00
        -11   -1    0    0    0    0  0.00000000000E+00  0.00000000000E+00  0.45593999997E+02  0.45594000000E+02  0.51100000000E-03 0.  1.
         11   -1    0    0    0    0 -0.00000000000E+00 -0.00000000000E+00 -0.45593999997E+02  0.45594000000E+02  0.51100000000E-03 0. -1.
    9900012    2    1    2    0    0 -0.27440142598E+02 -0.35204521358E+02  0.60657891011E+01  0.46142317107E+02  0.99999940376E+01 0.  0.
         12    1    1    2    0    0  0.27440142598E+02  0.35204521358E+02 -0.60657891011E+01  0.45045682893E+02  0.00000000000E+00 0. -1.
         11    1    3    3    0    0 -0.16636504847E+02 -0.21387846510E+02  0.62278931770E+01  0.27802876210E+02  0.51100000000E-03 0.  1.
        -11    1    3    3    0    0 -0.80414094746E+01 -0.99957862916E+01 -0.25104531528E+01  0.13072198944E+02  0.51100000000E-03 0. -1.
         12    1    3    3    0    0 -0.27622282757E+01 -0.38208885569E+01  0.23483490769E+01  0.52672419536E+01  0.00000000000E+00 0. -1.
</event>
<event>
 7    1  0.3086024E-009  0.4614232E+02  0.7816164E-02  0.1320468E+00
        -11   -1    0    0    0    0  0.00000000000E+00  0.00000000000E+00  0.45593999997E+02  0.45594000000E+02  0.51100000000E-03 0.  1.
         11   -1    0    0    0    0 -0.00000000000E+00 -0.00000000000E+00 -0.45593999997E+02  0.45594000000E+02  0.51100000000E-03 0. -1.
    9900012    2    1    2    0    0  0.40464172847E+02 -0.18699595907E+02 -0.64876255444E+01  0.46142318115E+02  0.10000003228E+02 0.  0.
         12    1    1    2    0    0 -0.40464172847E+02  0.18699595907E+02  0.64876255444E+01  0.45045681885E+02  0.00000000000E+00 0. -1.
         11    1    3    3    0    0  0.96785225125E+01 -0.17810346129E+01 -0.17470715693E+01  0.99949057848E+01  0.51100000000E-03 0. -1.
        -11    1    3    3    0    0  0.14531491049E+02 -0.10260476342E+02 -0.53375233236E+01  0.18572311713E+02  0.51100000000E-03 0.  1.
        -12    1    3    3    0    0  0.16254159286E+02 -0.66580849519E+01  0.59696934852E+00  0.17575100617E+02  0.00000000000E+00 0.  1.
</event>
<event>
 7    1  0.3086024E-009  0.4614232E+02  0.7816164E-02  0.1320468E+00
        -11   -1    0    0    0    0  0.00000000000E+00  0.00000000000E+00  0.45593999997E+02  0.45594000000E+02  0.51100000000E-03 0.  1.
         11   -1    0    0    0    0 -0.00000000000E+00 -0.00000000000E+00 -0.45593999997E+02  0.45594000000E+02  0.51100000000E-03 0. -1.
    9900012    2    1    2    0    0 -0.20369291376E+02  0.30994232391E+02  0.25564878603E+02  0.46142317736E+02  0.99999997673E+01 0.  0.
         12    1    1    2    0    0  0.20369291376E+02 -0.30994232391E+02 -0.25564878603E+02  0.45045682264E+02  0.00000000000E+00 0. -1.
         11    1    3    3    0    0 -0.35812216982E+01  0.28502312444E+01  0.45245307192E+01  0.64358640048E+01  0.51100000000E-03 0. -1.
        -11    1    3    3    0    0 -0.85010324641E+00  0.11379224040E+00 -0.43826074936E+00  0.96317025965E+00  0.51100000000E-03 0.  1.
        -12    1    3    3    0    0 -0.15937966431E+02  0.28030208907E+02  0.21478608633E+02  0.38743283471E+02  0.00000000000E+00 0.  1.
</event>
<event>
 7    1  0.3086024E-009  0.4614232E+02  0.7816164E-02  0.1320468E+00
        -11   -1    0    0    0    0  0.00000000000E+00  0.00000000000E+00  0.45593999997E+02  0.45594000000E+02  0.51100000000E-03 0. -1.
         11   -1    0    0    0    0 -0.00000000000E+00 -0.00000000000E+00 -0.45593999997E+02  0.45594000000E+02  0.51100000000E-03 0.  1.
    9900012    2    1    2    0    0 -0.33992192216E+02  0.25083163508E+02 -0.15635827100E+02  0.46142319716E+02  0.10000017822E+02 0.  0.
         12    1    1    2    0    0  0.33992192216E+02 -0.25083163508E+02  0.15635827100E+02  0.45045680284E+02  0.00000000000E+00 0. -1.
         11    1    3    3    0    0 -0.10611319618E+01  0.27744492989E+00  0.37260530301E+00  0.11583659622E+01  0.51100000000E-03 0. -1.
        -11    1    3    3    0    0 -0.22103282106E+02  0.19245428345E+02 -0.14562844770E+02  0.32726411965E+02  0.51100000000E-03 0.  1.
        -12    1    3    3    0    0 -0.10827778147E+02  0.55602902332E+01 -0.14455876332E+01  0.12257541788E+02  0.00000000000E+00 0.  1.
</event>
<event>
 7    1  0.3086024E-009  0.4614232E+02  0.7816164E-02  0.1320468E+00
        -11   -1    0    0    0    0  0.00000000000E+00  0.00000000000E+00  0.45593999997E+02  0.45594000000E+02  0.51100000000E-03 0.  1.
         11   -1    0    0    0    0 -0.00000000000E+00 -0.00000000000E+00 -0.45593999997E+02  0.45594000000E+02  0.51100000000E-03 0. -1.
    9900012    2    1    2    0    0  0.29493655618E+02  0.18149127546E+02  0.28807065663E+02  0.46142316694E+02  0.99999902704E+01 0.  0.
         12    1    1    2    0    0 -0.29493655618E+02 -0.18149127546E+02 -0.28807065663E+02  0.45045683306E+02  0.00000000000E+00 0. -1.
         11    1    3    3    0    0  0.16549871794E+02  0.83567663942E+01  0.11120857708E+02  0.21619604006E+02  0.51100000000E-03 0. -1.
        -11    1    3    3    0    0  0.12376770814E+02  0.10102639191E+02  0.15564516424E+02  0.22304751650E+02  0.51100000000E-03 0.  1.
        -12    1    3    3    0    0  0.56701301055E+00 -0.31027803857E+00  0.21216915306E+01  0.22179610381E+01  0.00000000000E+00 0.  1.
</event>
<event>
 7    1  0.3086024E-009  0.4614232E+02  0.7816164E-02  0.1320468E+00
        -11   -1    0    0    0    0  0.00000000000E+00  0.00000000000E+00  0.45593999997E+02  0.45594000000E+02  0.51100000000E-03 0.  1.
         11   -1    0    0    0    0 -0.00000000000E+00 -0.00000000000E+00 -0.45593999997E+02  0.45594000000E+02  0.51100000000E-03 0. -1.
    9900012    2    1    2    0    0  0.30435816014E+01 -0.20538983218E+02  0.39974990127E+02  0.46142322558E+02  0.10000043738E+02 0.  0.
         12    1    1    2    0    0 -0.30435816014E+01  0.20538983218E+02 -0.39974990127E+02  0.45045677442E+02  0.00000000000E+00 0. -1.
         11    1    3    3    0    0 -0.11335060474E+01  0.47847337486E+00  0.34195863677E+01  0.36341909578E+01  0.51100000000E-03 0. -1.
        -11    1    3    3    0    0  0.30125645232E+01 -0.96243715119E+01  0.19681420346E+02  0.22114754783E+02  0.51100000000E-03 0.  1.
        -12    1    3    3    0    0  0.11645231256E+01 -0.11393085081E+02  0.16873983413E+02  0.20393376817E+02  0.00000000000E+00 0.  1.
</event>
<event>
 7    1  0.3086024E-009  0.4614232E+02  0.7816164E-02  0.1320468E+00
        -11   -1    0    0    0    0  0.00000000000E+00  0.00000000000E+00  0.45593999997E+02  0.45594000000E+02  0.51100000000E-03 0.  1.
         11   -1    0    0    0    0 -0.00000000000E+00 -0.00000000000E+00 -0.45593999997E+02  0.45594000000E+02  0.51100000000E-03 0. -1.
    9900012    2    1    2    0    0  0.10509245723E+02 -0.34139561366E+02  0.27443753721E+02  0.46142317473E+02  0.99999973772E+01 0.  0.
         12    1    1    2    0    0 -0.10509245723E+02  0.34139561366E+02 -0.27443753721E+02  0.45045682527E+02  0.00000000000E+00 0. -1.
         11    1    3    3    0    0  0.27380732741E+01 -0.44954134717E+01  0.22930115701E+01  0.57414013845E+01  0.51100000000E-03 0. -1.
        -11    1    3    3    0    0  0.90919967929E+00 -0.28716950838E+01  0.61910469896E+01  0.68849357150E+01  0.51100000000E-03 0.  1.
        -12    1    3    3    0    0  0.68619727699E+01 -0.26772452811E+02  0.18959695162E+02  0.33515980374E+02  0.00000000000E+00 0.  1.
</event>
<event>
 7    1  0.3086024E-009  0.4614232E+02  0.7816164E-02  0.1320468E+00
        -11   -1    0    0    0    0  0.00000000000E+00  0.00000000000E+00  0.45593999997E+02  0.45594000000E+02  0.51100000000E-03 0. -1.
         11   -1    0    0    0    0 -0.00000000000E+00 -0.00000000000E+00 -0.45593999997E+02  0.45594000000E+02  0.51100000000E-03 0.  1.
    9900012    2    1    2    0    0  0.13520574089E+02 -0.42670479519E+02  0.50534888676E+01  0.46142317679E+02  0.99999992510E+01 0.  0.
         12    1    1    2    0    0 -0.13520574089E+02  0.42670479519E+02 -0.50534888676E+01  0.45045682321E+02  0.00000000000E+00 0. -1.
         11    1    3    3    0    0  0.35399959506E+01 -0.61590613026E+01  0.38347793835E+01  0.80728644631E+01  0.51100000000E-03 0. -1.
        -11    1    3    3    0    0  0.70511438057E+01 -0.21920111305E+02  0.23395713555E+01  0.23144837501E+02  0.51100000000E-03 0.  1.
         12    1    3    3    0    0  0.29294343324E+01 -0.14591306911E+02 -0.11208618715E+01  0.14924615714E+02  0.00000000000E+00 0. -1.
</event>
<event>
 7    1  0.3086024E-009  0.4614232E+02  0.7816164E-02  0.1320468E+00
        -11   -1    0    0    0    0  0.00000000000E+00  0.00000000000E+00  0.45593999997E+02  0.45594000000E+02  0.51100000000E-03 0.  1.
         11   -1    0    0    0    0 -0.00000000000E+00 -0.00000000000E+00 -0.45593999997E+02  0.45594000000E+02  0.51100000000E-03 0. -1.
    9900012    2    1    2    0    0 -0.14473680692E+02 -0.28944320230E+02  0.31334522915E+02  0.46142318379E+02  0.10000005638E+02 0.  0.
         12    1    1    2    0    0  0.14473680692E+02  0.28944320230E+02 -0.31334522915E+02  0.45045681621E+02  0.00000000000E+00 0. -1.
         11    1    3    3    0    0 -0.53476893379E+01 -0.10423131335E+02  0.79303494319E+01  0.14146727200E+02  0.51100000000E-03 0. -1.
        -11    1    3    3    0    0 -0.82377017972E+01 -0.14372473323E+02  0.21972917349E+02  0.27517936286E+02  0.51100000000E-03 0.  1.
        -12    1    3    3    0    0 -0.88828955653E+00 -0.41487155712E+01  0.14312561340E+01  0.44776548938E+01  0.00000000000E+00 0.  1.
</event>
<event>
 7    1  0.3086024E-009  0.4614232E+02  0.7816164E-02  0.1320468E+00
        -11   -1    0    0    0    0  0.00000000000E+00  0.00000000000E+00  0.45593999997E+02  0.45594000000E+02  0.51100000000E-03 0.  1.
         11   -1    0    0    0    0 -0.00000000000E+00 -0.00000000000E+00 -0.45593999997E+02  0.45594000000E+02  0.51100000000E-03 0. -1.
    9900012    2    1    2    0    0  0.23438203126E+02  0.38287045864E+02  0.37237365498E+01  0.46142318069E+02  0.10000002810E+02 0.  0.
         12    1    1    2    0    0 -0.23438203126E+02 -0.38287045864E+02 -0.37237365498E+01  0.45045681931E+02  0.00000000000E+00 0. -1.
         11    1    3    3    0    0 -0.98409401055E+00  0.12934328629E+01 -0.66781964188E-01  0.16266129485E+01  0.51100000000E-03 0. -1.
        -11    1    3    3    0    0  0.18385776350E+02  0.26639690218E+02  0.26673398786E+01  0.32478062892E+02  0.51100000000E-03 0.  1.
        -12    1    3    3    0    0  0.60365207863E+01  0.10353922783E+02  0.11231786353E+01  0.12037642229E+02  0.00000000000E+00 0.  1.
</event>
<event>
 7    1  0.3086024E-009  0.4614232E+02  0.7816164E-02  0.1320468E+00
        -11   -1    0    0    0    0  0.00000000000E+00  0.00000000000E+00  0.45593999997E+02  0.45594000000E+02  0.51100000000E-03 0.  1.
         11   -1    0    0    0    0 -0.00000000000E+00 -0.00000000000E+00 -0.45593999997E+02  0.45594000000E+02  0.51100000000E-03 0. -1.
    9900012    2    1    2    0    0 -0.41424401440E+02 -0.81827053279E+01  0.15689984230E+02  0.46142319782E+02  0.10000018428E+02 0.  0.
         12    1    1    2    0    0  0.41424401440E+02  0.81827053279E+01 -0.15689984230E+02  0.45045680218E+02  0.00000000000E+00 0. -1.
         11    1    3    3    0    0 -0.86979509804E+00 -0.11283661364E+01  0.19594291333E+01  0.24226259389E+01  0.51100000000E-03 0. -1.
        -11    1    3    3    0    0 -0.16621019111E+02 -0.52038559358E+01  0.43892039293E+01  0.17961166562E+02  0.51100000000E-03 0.  1.
        -12    1    3    3    0    0 -0.23933587231E+02 -0.18504832557E+01  0.93413511676E+01  0.25758527281E+02  0.00000000000E+00 0.  1.
</event>
<event>
 7    1  0.3086024E-009  0.4614232E+02  0.7816164E-02  0.1320468E+00
        -11   -1    0    0    0    0  0.00000000000E+00  0.00000000000E+00  0.45593999997E+02  0.45594000000E+02  0.51100000000E-03 0.  1.
         11   -1    0    0    0    0 -0.00000000000E+00 -0.00000000000E+00 -0.45593999997E+02  0.45594000000E+02  0.51100000000E-03 0. -1.
    9900012    2    1    2    0    0 -0.23056481853E+02  0.23557504519E+02  0.30701077107E+02  0.46142317520E+02  0.99999977986E+01 0.  0.
         12    1    1    2    0    0  0.23056481853E+02 -0.23557504519E+02 -0.30701077107E+02  0.45045682480E+02  0.00000000000E+00 0. -1.
         11    1    3    3    0    0  0.39865852421E+00  0.50260308705E+00  0.20260119884E+01  0.21251501877E+01  0.51100000000E-03 0. -1.
        -11    1    3    3    0    0 -0.17121439194E+02  0.14591513964E+02  0.22284234081E+02  0.31664539294E+02  0.51100000000E-03 0.  1.
        -12    1    3    3    0    0 -0.63337011827E+01  0.84633874674E+01  0.63908310376E+01  0.12352628038E+02  0.00000000000E+00 0.  1.
</event>
<event>
 7    1  0.3086024E-009  0.4614232E+02  0.7816164E-02  0.1320468E+00
        -11   -1    0    0    0    0  0.00000000000E+00  0.00000000000E+00  0.45593999997E+02  0.45594000000E+02  0.51100000000E-03 0.  1.
         11   -1    0    0    0    0 -0.00000000000E+00 -0.00000000000E+00 -0.45593999997E+02  0.45594000000E+02  0.51100000000E-03 0. -1.
    9900012    2    1    2    0    0 -0.19447620926E+02  0.33209522417E+02  0.23410062554E+02  0.46142319102E+02  0.10000012223E+02 0.  0.
         12    1    1    2    0    0  0.19447620926E+02 -0.33209522417E+02 -0.23410062554E+02  0.45045680898E+02  0.00000000000E+00 0. -1.
         11    1    3    3    0    0 -0.47529427107E+01  0.56327805165E+01  0.83285877753E+01  0.11121333344E+02  0.51100000000E-03 0. -1.
        -11    1    3    3    0    0 -0.10270534463E+02  0.20253717745E+02  0.13179802777E+02  0.26256507044E+02  0.51100000000E-03 0.  1.
         12    1    3    3    0    0 -0.44241437517E+01  0.73230241555E+01  0.19016720015E+01  0.87644787135E+01  0.00000000000E+00 0. -1.
</event>
<event>
 7    1  0.3086024E-009  0.4614231E+02  0.7816164E-02  0.1320468E+00
        -11   -1    0    0    0    0  0.00000000000E+00  0.00000000000E+00  0.45593999997E+02  0.45594000000E+02  0.51100000000E-03 0.  1.
         11   -1    0    0    0    0 -0.00000000000E+00 -0.00000000000E+00 -0.45593999997E+02  0.45594000000E+02  0.51100000000E-03 0. -1.
    9900012    2    1    2    0    0  0.26641669200E+02  0.33792924631E+02  0.13318177582E+02  0.46142310450E+02  0.99999333338E+01 0.  0.
         12    1    1    2    0    0 -0.26641669200E+02 -0.33792924631E+02 -0.13318177582E+02  0.45045689550E+02  0.00000000000E+00 0. -1.
         11    1    3    3    0    0  0.14549716820E+02  0.13351742167E+02  0.86331497847E+01  0.21552135715E+02  0.51100000000E-03 0. -1.
        -11    1    3    3    0    0  0.55388024418E+01  0.12569646870E+02  0.40844034113E+01  0.14330272377E+02  0.51100000000E-03 0.  1.
         12    1    3    3    0    0  0.65531499389E+01  0.78715355943E+01  0.60062438582E+00  0.10259902358E+02  0.00000000000E+00 0. -1.
</event>
<event>
 7    1  0.3086024E-009  0.4614232E+02  0.7816164E-02  0.1320468E+00
        -11   -1    0    0    0    0  0.00000000000E+00  0.00000000000E+00  0.45593999997E+02  0.45594000000E+02  0.51100000000E-03 0.  1.
         11   -1    0    0    0    0 -0.00000000000E+00 -0.00000000000E+00 -0.45593999997E+02  0.45594000000E+02  0.51100000000E-03 0. -1.
    9900012    2    1    2    0    0 -0.61326987420E+01 -0.12644800061E+02  0.42797342474E+02  0.46142317796E+02  0.10000000315E+02 0.  0.
         12    1    1    2    0    0  0.61326987420E+01  0.12644800061E+02 -0.42797342474E+02  0.45045682204E+02  0.00000000000E+00 0. -1.
         11    1    3    3    0    0 -0.35111003639E+01 -0.74935551822E+01  0.13059715346E+02  0.15460833102E+02  0.51100000000E-03 0. -1.
        -11    1    3    3    0    0 -0.21074970062E+01 -0.56023690501E+01  0.29211828941E+02  0.29818769809E+02  0.51100000000E-03 0.  1.
        -12    1    3    3    0    0 -0.51410137195E+00  0.45112417086E+00  0.52579818641E+00  0.86271488396E+00  0.00000000000E+00 0.  1.
</event>
<event>
 7    1  0.3086024E-009  0.4614232E+02  0.7816164E-02  0.1320468E+00
        -11   -1    0    0    0    0  0.00000000000E+00  0.00000000000E+00  0.45593999997E+02  0.45594000000E+02  0.51100000000E-03 0. -1.
         11   -1    0    0    0    0 -0.00000000000E+00 -0.00000000000E+00 -0.45593999997E+02  0.45594000000E+02  0.51100000000E-03 0.  1.
    9900012    2    1    2    0    0 -0.44477373911E+02  0.64443443455E+01 -0.30573132767E+01  0.46142317315E+02  0.99999959348E+01 0.  0.
         12    1    1    2    0    0  0.44477373911E+02 -0.64443443455E+01  0.30573132767E+01  0.45045682685E+02  0.00000000000E+00 0. -1.
         11    1    3    3    0    0 -0.17764838839E+02  0.12365491923E+01  0.13511634693E+01  0.17859008815E+02  0.51100000000E-03 0. -1.
        -11    1    3    3    0    0 -0.14622231230E+02  0.53560238174E+01 -0.51547405656E+00  0.15580832810E+02  0.51100000000E-03 0.  1.
         12    1    3    3    0    0 -0.12090303842E+02 -0.14822866425E+00 -0.38930026894E+01  0.12702475690E+02  0.00000000000E+00 0. -1.
</event>
<event>
 7    1  0.3086024E-009  0.4614232E+02  0.7816164E-02  0.1320468E+00
        -11   -1    0    0    0    0  0.00000000000E+00  0.00000000000E+00  0.45593999997E+02  0.45594000000E+02  0.51100000000E-03 0.  1.
         11   -1    0    0    0    0 -0.00000000000E+00 -0.00000000000E+00 -0.45593999997E+02  0.45594000000E+02  0.51100000000E-03 0. -1.
    9900012    2    1    2    0    0 -0.43776479396E+02 -0.12595592646E+01  0.10542618281E+02  0.46142318319E+02  0.10000005090E+02 0.  0.
         12    1    1    2    0    0  0.43776479396E+02  0.12595592646E+01 -0.10542618281E+02  0.45045681681E+02  0.00000000000E+00 0. -1.
         11    1    3    3    0    0 -0.16831025338E+02 -0.22368361030E+00  0.42931186231E+01  0.17371364830E+02  0.51100000000E-03 0. -1.
        -11    1    3    3    0    0 -0.14091835030E+02 -0.51212356095E+00 -0.75875147247E+00  0.14121536358E+02  0.51100000000E-03 0.  1.
         12    1    3    3    0    0 -0.12853619028E+02 -0.52375209333E+00  0.70082511300E+01  0.14649417131E+02  0.00000000000E+00 0. -1.
</event>
<event>
 7    1  0.3086024E-009  0.4614232E+02  0.7816164E-02  0.1320468E+00
        -11   -1    0    0    0    0  0.00000000000E+00  0.00000000000E+00  0.45593999997E+02  0.45594000000E+02  0.51100000000E-03 0.  1.
         11   -1    0    0    0    0 -0.00000000000E+00 -0.00000000000E+00 -0.45593999997E+02  0.45594000000E+02  0.51100000000E-03 0. -1.
    9900012    2    1    2    0    0  0.15996331940E+02 -0.20464204076E+02  0.36802815261E+02  0.46142317686E+02  0.99999993137E+01 0.  0.
         12    1    1    2    0    0 -0.15996331940E+02  0.20464204076E+02 -0.36802815261E+02  0.45045682314E+02  0.00000000000E+00 0. -1.
         11    1    3    3    0    0  0.34573967684E+01 -0.44526840152E+00  0.21089147731E+01  0.40742334426E+01  0.51100000000E-03 0. -1.
        -11    1    3    3    0    0  0.38742277322E+00 -0.72213328832E+00  0.47618990935E+00  0.94780271270E+00  0.51100000000E-03 0.  1.
        -12    1    3    3    0    0  0.12151512398E+02 -0.19296802386E+02  0.34217710579E+02  0.41120281531E+02  0.00000000000E+00 0.  1.
</event>
<event>
 7    1  0.3086024E-009  0.4614232E+02  0.7816164E-02  0.1320468E+00
        -11   -1    0    0    0    0  0.00000000000E+00  0.00000000000E+00  0.45593999997E+02  0.45594000000E+02  0.51100000000E-03 0.  1.
         11   -1    0    0    0    0 -0.00000000000E+00 -0.00000000000E+00 -0.45593999997E+02  0.45594000000E+02  0.51100000000E-03 0. -1.
    9900012    2    1    2    0    0  0.19907823487E+02  0.27149822896E+01  0.40316510451E+02  0.46142316747E+02  0.99999907504E+01 0.  0.
         12    1    1    2    0    0 -0.19907823487E+02 -0.27149822896E+01 -0.40316510451E+02  0.45045683253E+02  0.00000000000E+00 0. -1.
         11    1    3    3    0    0  0.25390074294E+01 -0.85445668096E+00  0.30559366230E+01  0.40639148430E+01  0.51100000000E-03 0. -1.
        -11    1    3    3    0    0  0.11666780803E+02 -0.56911474709E+00  0.16986872870E+02  0.20615322361E+02  0.51100000000E-03 0.  1.
         12    1    3    3    0    0  0.57020352549E+01  0.41385537177E+01  0.20273700958E+02  0.21463079542E+02  0.00000000000E+00 0. -1.
</event>
<event>
 7    1  0.3086024E-009  0.4614232E+02  0.7816164E-02  0.1320468E+00
        -11   -1    0    0    0    0  0.00000000000E+00  0.00000000000E+00  0.45593999997E+02  0.45594000000E+02  0.51100000000E-03 0.  1.
         11   -1    0    0    0    0 -0.00000000000E+00 -0.00000000000E+00 -0.45593999997E+02  0.45594000000E+02  0.51100000000E-03 0. -1.
    9900012    2    1    2    0    0 -0.34302998408E+02  0.22812660448E+02  0.18220877141E+02  0.46142317184E+02  0.99999947419E+01 0.  0.
         12    1    1    2    0    0  0.34302998408E+02 -0.22812660448E+02 -0.18220877141E+02  0.45045682816E+02  0.00000000000E+00 0. -1.
         11    1    3    3    0    0 -0.70275790753E+01  0.69998106263E+01  0.18616752898E+01  0.10092078656E+02  0.51100000000E-03 0. -1.
        -11    1    3    3    0    0 -0.20756464937E+02  0.14645811902E+02  0.11801133661E+02  0.28010665806E+02  0.51100000000E-03 0.  1.
         12    1    3    3    0    0 -0.65189543958E+01  0.11670379198E+01  0.45580681904E+01  0.80395727218E+01  0.00000000000E+00 0. -1.
</event>
<event>
 7    1  0.3086024E-009  0.4614232E+02  0.7816164E-02  0.1320468E+00
        -11   -1    0    0    0    0  0.00000000000E+00  0.00000000000E+00  0.45593999997E+02  0.45594000000E+02  0.51100000000E-03 0.  1.
         11   -1    0    0    0    0 -0.00000000000E+00 -0.00000000000E+00 -0.45593999997E+02  0.45594000000E+02  0.51100000000E-03 0. -1.
    9900012    2    1    2    0    0 -0.44379573249E+02  0.55885619981E+01 -0.53230543094E+01  0.46142318140E+02  0.10000003460E+02 0.  0.
         12    1    1    2    0    0  0.44379573249E+02 -0.55885619981E+01  0.53230543094E+01  0.45045681860E+02  0.00000000000E+00 0. -1.
         11    1    3    3    0    0 -0.47680972629E+01 -0.12401669265E+01 -0.24806284256E+01  0.55160024620E+01  0.51100000000E-03 0. -1.
        -11    1    3    3    0    0 -0.16279935462E+02  0.37081800453E+00 -0.32995161563E+00  0.16287500513E+02  0.51100000000E-03 0.  1.
         12    1    3    3    0    0 -0.23331540525E+02  0.64579109200E+01 -0.25124742682E+01  0.24338815165E+02  0.00000000000E+00 0. -1.
</event>
<event>
 7    1  0.3086024E-009  0.4614232E+02  0.7816164E-02  0.1320468E+00
        -11   -1    0    0    0    0  0.00000000000E+00  0.00000000000E+00  0.45593999997E+02  0.45594000000E+02  0.51100000000E-03 0.  1.
         11   -1    0    0    0    0 -0.00000000000E+00 -0.00000000000E+00 -0.45593999997E+02  0.45594000000E+02  0.51100000000E-03 0. -1.
    9900012    2    1    2    0    0  0.51710354667E+01 -0.44528088681E+02 -0.44298040478E+01  0.46142318151E+02  0.10000003552E+02 0.  0.
         12    1    1    2    0    0 -0.51710354667E+01  0.44528088681E+02  0.44298040478E+01  0.45045681849E+02  0.00000000000E+00 0. -1.
         11    1    3    3    0    0  0.13611248694E+00  0.27012822200E+00 -0.61532296209E+00  0.68565186080E+00  0.51100000000E-03 0. -1.
        -11    1    3    3    0    0  0.33091790065E+01 -0.40749274819E+02 -0.37470300957E+01  0.41054771937E+02  0.51100000000E-03 0.  1.
         12    1    3    3    0    0  0.17257439732E+01 -0.40489420837E+01 -0.67450990021E-01  0.44018943529E+01  0.00000000000E+00 0. -1.
</event>
<event>
 7    1  0.3086024E-009  0.4614232E+02  0.7816164E-02  0.1320468E+00
        -11   -1    0    0    0    0  0.00000000000E+00  0.00000000000E+00  0.45593999997E+02  0.45594000000E+02  0.51100000000E-03 0.  1.
         11   -1    0    0    0    0 -0.00000000000E+00 -0.00000000000E+00 -0.45593999997E+02  0.45594000000E+02  0.51100000000E-03 0. -1.
    9900012    2    1    2    0    0  0.17476233647E+02 -0.15053074167E+02  0.38692372374E+02  0.46142318028E+02  0.10000002434E+02 0.  0.
         12    1    1    2    0    0 -0.17476233647E+02  0.15053074167E+02 -0.38692372374E+02  0.45045681972E+02  0.00000000000E+00 0. -1.
         11    1    3    3    0    0  0.10912445729E+02 -0.39213612834E+01  0.16236070178E+02  0.19951654598E+02  0.51100000000E-03 0. -1.
        -11    1    3    3    0    0  0.25561303310E+00 -0.22619897015E+01  0.64017488374E+01  0.67944333002E+01  0.51100000000E-03 0.  1.
         12    1    3    3    0    0  0.63081748852E+01 -0.88697231820E+01  0.16054553359E+02  0.19396230130E+02  0.00000000000E+00 0. -1.
</event>
<event>
 7    1  0.3086024E-009  0.4614232E+02  0.7816164E-02  0.1320468E+00
        -11   -1    0    0    0    0  0.00000000000E+00  0.00000000000E+00  0.45593999997E+02  0.45594000000E+02  0.51100000000E-03 0.  1.
         11   -1    0    0    0    0 -0.00000000000E+00 -0.00000000000E+00 -0.45593999997E+02  0.45594000000E+02  0.51100000000E-03 0. -1.
    9900012    2    1    2    0    0  0.19756121231E+02 -0.18014805130E+02  0.36252946280E+02  0.46142316034E+02  0.99999842510E+01 0.  0.
         12    1    1    2    0    0 -0.19756121231E+02  0.18014805130E+02 -0.36252946280E+02  0.45045683966E+02  0.00000000000E+00 0. -1.
         11    1    3    3    0    0  0.13040339774E+02 -0.13297224827E+02  0.29312453310E+02  0.34728757087E+02  0.51100000000E-03 0. -1.
        -11    1    3    3    0    0  0.32635758650E+01 -0.32336340031E+01  0.59690413453E+01  0.75323815049E+01  0.51100000000E-03 0.  1.
         12    1    3    3    0    0  0.34522055927E+01 -0.14839463000E+01  0.97145162457E+00  0.38811774417E+01  0.00000000000E+00 0. -1.
</event>
<event>
 7    1  0.3086024E-009  0.4614232E+02  0.7816164E-02  0.1320468E+00
        -11   -1    0    0    0    0  0.00000000000E+00  0.00000000000E+00  0.45593999997E+02  0.45594000000E+02  0.51100000000E-03 0.  1.
         11   -1    0    0    0    0 -0.00000000000E+00 -0.00000000000E+00 -0.45593999997E+02  0.45594000000E+02  0.51100000000E-03 0. -1.
    9900012    2    1    2    0    0  0.34341349179E+02 -0.12266971439E+02  0.26444406453E+02  0.46142317805E+02  0.10000000404E+02 0.  0.
         12    1    1    2    0    0 -0.34341349179E+02  0.12266971439E+02 -0.26444406453E+02  0.45045682195E+02  0.00000000000E+00 0. -1.
         11    1    3    3    0    0  0.19887796403E+02 -0.10740934252E+02  0.13576841561E+02  0.26367076846E+02  0.51100000000E-03 0. -1.
        -11    1    3    3    0    0  0.11381942308E+02 -0.24622210692E+01  0.11199467614E+02  0.16156708155E+02  0.51100000000E-03 0.  1.
         12    1    3    3    0    0  0.30716104678E+01  0.93618388249E+00  0.16680972779E+01  0.36185328044E+01  0.00000000000E+00 0. -1.
</event>
<event>
 7    1  0.3086024E-009  0.4614232E+02  0.7816164E-02  0.1320468E+00
        -11   -1    0    0    0    0  0.00000000000E+00  0.00000000000E+00  0.45593999997E+02  0.45594000000E+02  0.51100000000E-03 0.  1.
         11   -1    0    0    0    0 -0.00000000000E+00 -0.00000000000E+00 -0.45593999997E+02  0.45594000000E+02  0.51100000000E-03 0. -1.
    9900012    2    1    2    0    0 -0.26323730681E+02 -0.23685689361E+02  0.27841747442E+02  0.46142316765E+02  0.99999909167E+01 0.  0.
         12    1    1    2    0    0  0.26323730681E+02  0.23685689361E+02 -0.27841747442E+02  0.45045683235E+02  0.00000000000E+00 0. -1.
         11    1    3    3    0    0 -0.31255487220E+01  0.41014171042E+00  0.29631418241E+01  0.43263703918E+01  0.51100000000E-03 0. -1.
        -11    1    3    3    0    0 -0.17882617684E+02 -0.17028711415E+02  0.19511308969E+02  0.31471514193E+02  0.51100000000E-03 0.  1.
         12    1    3    3    0    0 -0.53155642749E+01 -0.70671196567E+01  0.53672966491E+01  0.10344432180E+02  0.00000000000E+00 0. -1.
</event>
<event>
 7    1  0.3086024E-009  0.4614232E+02  0.7816164E-02  0.1320468E+00
        -11   -1    0    0    0    0  0.00000000000E+00  0.00000000000E+00  0.45593999997E+02  0.45594000000E+02  0.51100000000E-03 0.  1.
         11   -1    0    0    0    0 -0.00000000000E+00 -0.00000000000E+00 -0.45593999997E+02  0.45594000000E+02  0.51100000000E-03 0. -1.
    9900012    2    1    2    0    0 -0.21368645828E+01  0.44760609354E+02 -0.45864068063E+01  0.46142317994E+02  0.10000002126E+02 0.  0.
         12    1    1    2    0    0  0.21368645828E+01 -0.44760609354E+02  0.45864068063E+01  0.45045682006E+02  0.00000000000E+00 0. -1.
         11    1    3    3    0    0 -0.21215942887E+01  0.11913787044E+02 -0.61272943328E+00  0.12116720748E+02  0.51100000000E-03 0.  1.
        -11    1    3    3    0    0 -0.19283369130E+01  0.49643062401E+01  0.15293247674E+01  0.55409073446E+01  0.51100000000E-03 0. -1.
         12    1    3    3    0    0  0.19130666189E+01  0.27882516070E+02 -0.55030021405E+01  0.28484689902E+02  0.00000000000E+00 0. -1.
</event>
<event>
 7    1  0.3142054E-009  0.4614232E+02  0.7816164E-02  0.1320468E+00
        -11   -1    0    0    0    0  0.00000000000E+00  0.00000000000E+00  0.45593999997E+02  0.45594000000E+02  0.51100000000E-03 0. -1.
         11   -1    0    0    0    0 -0.00000000000E+00 -0.00000000000E+00 -0.45593999997E+02  0.45594000000E+02  0.51100000000E-03 0.  1.
    9900012    2    1    2    0    0  0.22309955091E+02 -0.32119605946E+02 -0.22354198174E+02  0.46142319205E+02  0.10000013163E+02 0.  0.
         12    1    1    2    0    0 -0.22309955091E+02  0.32119605946E+02  0.22354198174E+02  0.45045680795E+02  0.00000000000E+00 0. -1.
         11    1    3    3    0    0  0.27454860139E+01 -0.38318429577E+01  0.37544495787E+00  0.47288130733E+01  0.51100000000E-03 0. -1.
        -11    1    3    3    0    0  0.13639713406E+02 -0.16948613760E+02 -0.13035011359E+02  0.25361561694E+02  0.51100000000E-03 0.  1.
         12    1    3    3    0    0  0.59247556710E+01 -0.11339149229E+02 -0.96946317730E+01  0.16051944437E+02  0.00000000000E+00 0. -1.
</event>
<event>
 7    1  0.3086024E-009  0.4614232E+02  0.7816164E-02  0.1320468E+00
        -11   -1    0    0    0    0  0.00000000000E+00  0.00000000000E+00  0.45593999997E+02  0.45594000000E+02  0.51100000000E-03 0.  1.
         11   -1    0    0    0    0 -0.00000000000E+00 -0.00000000000E+00 -0.45593999997E+02  0.45594000000E+02  0.51100000000E-03 0. -1.
    9900012    2    1    2    0    0  0.20501888166E+02 -0.24911556214E+02  0.31435650617E+02  0.46142321172E+02  0.10000031100E+02 0.  0.
         12    1    1    2    0    0 -0.20501888166E+02  0.24911556214E+02 -0.31435650617E+02  0.45045678828E+02  0.00000000000E+00 0. -1.
         11    1    3    3    0    0  0.37297030727E-01 -0.40316407614E+00 -0.65348285643E-01  0.41012559095E+00  0.51100000000E-03 0. -1.
        -11    1    3    3    0    0  0.59131029750E+01 -0.13894222823E+02  0.13228951267E+02  0.20075342252E+02  0.51100000000E-03 0.  1.
        -12    1    3    3    0    0  0.14551488160E+02 -0.10614169315E+02  0.18272047636E+02  0.25656853329E+02  0.00000000000E+00 0.  1.
</event>
<event>
 7    1  0.3086024E-009  0.4614232E+02  0.7816164E-02  0.1320468E+00
        -11   -1    0    0    0    0  0.00000000000E+00  0.00000000000E+00  0.45593999997E+02  0.45594000000E+02  0.51100000000E-03 0.  1.
         11   -1    0    0    0    0 -0.00000000000E+00 -0.00000000000E+00 -0.45593999997E+02  0.45594000000E+02  0.51100000000E-03 0. -1.
    9900012    2    1    2    0    0 -0.43168689820E+02  0.28826893516E+01  0.12540646188E+02  0.46142317793E+02  0.10000000291E+02 0.  0.
         12    1    1    2    0    0  0.43168689820E+02 -0.28826893516E+01 -0.12540646188E+02  0.45045682207E+02  0.00000000000E+00 0. -1.
         11    1    3    3    0    0 -0.17503675453E+02  0.27365793193E+01  0.82895441322E+01  0.19559756208E+02  0.51100000000E-03 0. -1.
        -11    1    3    3    0    0 -0.15734944267E+02  0.25681400640E+01  0.35749891825E+01  0.16339044109E+02  0.51100000000E-03 0.  1.
         12    1    3    3    0    0 -0.99300701003E+01 -0.24220300316E+01  0.67611287305E+00  0.10243517476E+02  0.00000000000E+00 0. -1.
</event>
<event>
 7    1  0.3086024E-009  0.4614232E+02  0.7816164E-02  0.1320468E+00
        -11   -1    0    0    0    0  0.00000000000E+00  0.00000000000E+00  0.45593999997E+02  0.45594000000E+02  0.51100000000E-03 0.  1.
         11   -1    0    0    0    0 -0.00000000000E+00 -0.00000000000E+00 -0.45593999997E+02  0.45594000000E+02  0.51100000000E-03 0. -1.
    9900012    2    1    2    0    0  0.18325666606E+01  0.43924754130E+02 -0.98168872292E+01  0.46142316513E+02  0.99999886223E+01 0.  0.
         12    1    1    2    0    0 -0.18325666606E+01 -0.43924754130E+02  0.98168872292E+01  0.45045683487E+02  0.00000000000E+00 0. -1.
         11    1    3    3    0    0  0.74920704082E-01  0.35456886707E+02 -0.72614731006E+01  0.36192891842E+02  0.51100000000E-03 0. -1.
        -11    1    3    3    0    0  0.19180314390E+01  0.48896460789E+01  0.45292672835E+00  0.52718712295E+01  0.51100000000E-03 0.  1.
         12    1    3    3    0    0 -0.16038548250E+00  0.35782213440E+01 -0.30083408570E+01  0.46775534418E+01  0.00000000000E+00 0. -1.
</event>
<event>
 7    1  0.3086024E-009  0.4614232E+02  0.7816164E-02  0.1320468E+00
        -11   -1    0    0    0    0  0.00000000000E+00  0.00000000000E+00  0.45593999997E+02  0.45594000000E+02  0.51100000000E-03 0.  1.
         11   -1    0    0    0    0 -0.00000000000E+00 -0.00000000000E+00 -0.45593999997E+02  0.45594000000E+02  0.51100000000E-03 0. -1.
    9900012    2    1    2    0    0 -0.19404092474E+02 -0.13346273525E+02  0.38398849042E+02  0.46142318414E+02  0.10000005956E+02 0.  0.
         12    1    1    2    0    0  0.19404092474E+02  0.13346273525E+02 -0.38398849042E+02  0.45045681586E+02  0.00000000000E+00 0. -1.
         11    1    3    3    0    0 -0.11376805740E+02 -0.11248226068E+02  0.20608376033E+02  0.26089451153E+02  0.51100000000E-03 0. -1.
        -11    1    3    3    0    0 -0.50832500024E+01 -0.14105600890E+01  0.15138444277E+02  0.16031269623E+02  0.51100000000E-03 0.  1.
        -12    1    3    3    0    0 -0.29440367318E+01 -0.68748736881E+00  0.26520287328E+01  0.40215976378E+01  0.00000000000E+00 0.  1.
</event>
<event>
 7    1  0.3086024E-009  0.4614232E+02  0.7816164E-02  0.1320468E+00
        -11   -1    0    0    0    0  0.00000000000E+00  0.00000000000E+00  0.45593999997E+02  0.45594000000E+02  0.51100000000E-03 0. -1.
         11   -1    0    0    0    0 -0.00000000000E+00 -0.00000000000E+00 -0.45593999997E+02  0.45594000000E+02  0.51100000000E-03 0.  1.
    9900012    2    1    2    0    0  0.16297733800E+02 -0.39086935100E+02 -0.15352813157E+02  0.46142317695E+02  0.99999993967E+01 0.  0.
         12    1    1    2    0    0 -0.16297733800E+02  0.39086935100E+02  0.15352813157E+02  0.45045682305E+02  0.00000000000E+00 0. -1.
         11    1    3    3    0    0  0.75655478959E+01 -0.25353504415E+02 -0.68948235259E+01  0.27341841431E+02  0.51100000000E-03 0. -1.
        -11    1    3    3    0    0  0.14454699189E+01 -0.47213912056E+01 -0.41028390730E+01  0.64198291973E+01  0.51100000000E-03 0.  1.
        -12    1    3    3    0    0  0.72867159853E+01 -0.90120394788E+01 -0.43551505577E+01  0.12380647067E+02  0.00000000000E+00 0.  1.
</event>
<event>
 7    1  0.3086024E-009  0.4614232E+02  0.7816164E-02  0.1320468E+00
        -11   -1    0    0    0    0  0.00000000000E+00  0.00000000000E+00  0.45593999997E+02  0.45594000000E+02  0.51100000000E-03 0.  1.
         11   -1    0    0    0    0 -0.00000000000E+00 -0.00000000000E+00 -0.45593999997E+02  0.45594000000E+02  0.51100000000E-03 0. -1.
    9900012    2    1    2    0    0 -0.38494489455E+02  0.37172448159E+01  0.23096966899E+02  0.46142317550E+02  0.99999980789E+01 0.  0.
         12    1    1    2    0    0  0.38494489455E+02 -0.37172448159E+01 -0.23096966899E+02  0.45045682450E+02  0.00000000000E+00 0. -1.
         11    1    3    3    0    0 -0.11988283759E+02 -0.27988950863E+01  0.72390139203E+01  0.14281319406E+02  0.51100000000E-03 0. -1.
        -11    1    3    3    0    0 -0.22996003668E+02  0.41506833216E+01  0.12844549633E+02  0.26665086017E+02  0.51100000000E-03 0.  1.
         12    1    3    3    0    0 -0.35102020276E+01  0.23654565807E+01  0.30134033452E+01  0.51959121269E+01  0.00000000000E+00 0. -1.
</event>
<event>
 7    1  0.3086024E-009  0.4614232E+02  0.7816164E-02  0.1320468E+00
        -11   -1    0    0    0    0  0.00000000000E+00  0.00000000000E+00  0.45593999997E+02  0.45594000000E+02  0.51100000000E-03 0.  1.
         11   -1    0    0    0    0 -0.00000000000E+00 -0.00000000000E+00 -0.45593999997E+02  0.45594000000E+02  0.51100000000E-03 0. -1.
    9900012    2    1    2    0    0 -0.29757595273E+02 -0.54367758080E+01  0.33377244791E+02  0.46142317882E+02  0.10000001104E+02 0.  0.
         12    1    1    2    0    0  0.29757595273E+02  0.54367758080E+01 -0.33377244791E+02  0.45045682118E+02  0.00000000000E+00 0. -1.
         11    1    3    3    0    0 -0.14804733680E+02 -0.35328743647E+01  0.21626459112E+02  0.26445511427E+02  0.51100000000E-03 0. -1.
        -11    1    3    3    0    0 -0.14137213478E+02 -0.17434678244E+01  0.12197486123E+02  0.18753110488E+02  0.51100000000E-03 0.  1.
         12    1    3    3    0    0 -0.81564811473E+00 -0.16043361889E+00 -0.44670044402E+00  0.94369596789E+00  0.00000000000E+00 0. -1.
</event>
<event>
 7    1  0.3086024E-009  0.4614233E+02  0.7816164E-02  0.1320468E+00
        -11   -1    0    0    0    0  0.00000000000E+00  0.00000000000E+00  0.45593999997E+02  0.45594000000E+02  0.51100000000E-03 0. -1.
         11   -1    0    0    0    0 -0.00000000000E+00 -0.00000000000E+00 -0.45593999997E+02  0.45594000000E+02  0.51100000000E-03 0.  1.
    9900012    2    1    2    0    0  0.70990050862E+01  0.40713125535E+01 -0.44296064676E+02  0.46142325348E+02  0.10000069182E+02 0.  0.
         12    1    1    2    0    0 -0.70990050862E+01 -0.40713125535E+01  0.44296064676E+02  0.45045674652E+02  0.00000000000E+00 0. -1.
         11    1    3    3    0    0  0.56380666821E+01  0.27434334676E+01 -0.13839722550E+02  0.15193819258E+02  0.51100000000E-03 0. -1.
        -11    1    3    3    0    0  0.20647065116E+00 -0.18084012392E+01 -0.15978605122E+02  0.16081939158E+02  0.51100000000E-03 0.  1.
         12    1    3    3    0    0  0.12544677530E+01  0.31362803251E+01 -0.14477737003E+02  0.14866566932E+02  0.00000000000E+00 0. -1.
</event>
<event>
 7    1  0.3086024E-009  0.4614232E+02  0.7816164E-02  0.1320468E+00
        -11   -1    0    0    0    0  0.00000000000E+00  0.00000000000E+00  0.45593999997E+02  0.45594000000E+02  0.51100000000E-03 0. -1.
         11   -1    0    0    0    0 -0.00000000000E+00 -0.00000000000E+00 -0.45593999997E+02  0.45594000000E+02  0.51100000000E-03 0.  1.
    9900012    2    1    2    0    0 -0.13408789956E+02 -0.66698509164E+01 -0.42483301416E+02  0.46142318092E+02  0.10000003019E+02 0.  0.
         12    1    1    2    0    0  0.13408789956E+02  0.66698509164E+01  0.42483301416E+02  0.45045681908E+02  0.00000000000E+00 0. -1.
         11    1    3    3    0    0 -0.79150563709E+01 -0.73907661760E+01 -0.26021231202E+02  0.28184676964E+02  0.51100000000E-03 0. -1.
        -11    1    3    3    0    0 -0.30787935139E+01  0.63480069493E+00 -0.14523106788E+02  0.14859427056E+02  0.51100000000E-03 0.  1.
        -12    1    3    3    0    0 -0.24149400714E+01  0.86114564706E-01 -0.19389634266E+01  0.30982140720E+01  0.00000000000E+00 0.  1.
</event>
<event>
 7    1  0.3086024E-009  0.4614232E+02  0.7816164E-02  0.1320468E+00
        -11   -1    0    0    0    0  0.00000000000E+00  0.00000000000E+00  0.45593999997E+02  0.45594000000E+02  0.51100000000E-03 0.  1.
         11   -1    0    0    0    0 -0.00000000000E+00 -0.00000000000E+00 -0.45593999997E+02  0.45594000000E+02  0.51100000000E-03 0. -1.
    9900012    2    1    2    0    0  0.32947635495E+02  0.21062468484E+02  0.22359320464E+02  0.46142317910E+02  0.10000001357E+02 0.  0.
         12    1    1    2    0    0 -0.32947635495E+02 -0.21062468484E+02 -0.22359320464E+02  0.45045682090E+02  0.00000000000E+00 0. -1.
         11    1    3    3    0    0  0.10349006847E+02  0.10605702073E+02  0.82715600576E+01  0.16970608864E+02  0.51100000000E-03 0. -1.
        -11    1    3    3    0    0  0.91374619509E+01  0.53899590059E+01  0.90100866246E+01  0.13918567823E+02  0.51100000000E-03 0.  1.
         12    1    3    3    0    0  0.13461166698E+02  0.50668074053E+01  0.50776737813E+01  0.15253141223E+02  0.00000000000E+00 0. -1.
</event>
<event>
 7    1  0.3086024E-009  0.4614233E+02  0.7816164E-02  0.1320468E+00
        -11   -1    0    0    0    0  0.00000000000E+00  0.00000000000E+00  0.45593999997E+02  0.45594000000E+02  0.51100000000E-03 0. -1.
         11   -1    0    0    0    0 -0.00000000000E+00 -0.00000000000E+00 -0.45593999997E+02  0.45594000000E+02  0.51100000000E-03 0.  1.
    9900012    2    1    2    0    0  0.42463951908E+02  0.46984819147E+01 -0.14277595830E+02  0.46142326660E+02  0.10000081150E+02 0.  0.
         12    1    1    2    0    0 -0.42463951908E+02 -0.46984819147E+01  0.14277595830E+02  0.45045673340E+02  0.00000000000E+00 0. -1.
         11    1    3    3    0    0  0.21690136158E+02  0.34183399422E+01 -0.38655553112E+01  0.22295505660E+02  0.51100000000E-03 0. -1.
        -11    1    3    3    0    0  0.36242994165E+01  0.30725598108E+00 -0.42593055490E+01  0.56010388786E+01  0.51100000000E-03 0.  1.
        -12    1    3    3    0    0  0.17149516333E+02  0.97288599140E+00 -0.61527349695E+01  0.18245782121E+02  0.00000000000E+00 0.  1.
</event>
<event>
 7    1  0.3086024E-009  0.4614232E+02  0.7816164E-02  0.1320468E+00
        -11   -1    0    0    0    0  0.00000000000E+00  0.00000000000E+00  0.45593999997E+02  0.45594000000E+02  0.51100000000E-03 0.  1.
         11   -1    0    0    0    0 -0.00000000000E+00 -0.00000000000E+00 -0.45593999997E+02  0.45594000000E+02  0.51100000000E-03 0. -1.
    9900012    2    1    2    0    0 -0.13108923620E+02  0.37683302351E+02  0.20910244659E+02  0.46142317784E+02  0.10000000212E+02 0.  0.
         12    1    1    2    0    0  0.13108923620E+02 -0.37683302351E+02 -0.20910244659E+02  0.45045682216E+02  0.00000000000E+00 0. -1.
         11    1    3    3    0    0 -0.11504695223E+00  0.21005010270E+01 -0.34850765324E+00  0.21323222578E+01  0.51100000000E-03 0. -1.
        -11    1    3    3    0    0 -0.82369618977E+01  0.27309201715E+02  0.12829165761E+02  0.31276629198E+02  0.51100000000E-03 0.  1.
         12    1    3    3    0    0 -0.47569147702E+01  0.82735996090E+01  0.84295865513E+01  0.12733366328E+02  0.00000000000E+00 0. -1.
</event>
<event>
 7    1  0.3086024E-009  0.4614232E+02  0.7816164E-02  0.1320468E+00
        -11   -1    0    0    0    0  0.00000000000E+00  0.00000000000E+00  0.45593999997E+02  0.45594000000E+02  0.51100000000E-03 0.  1.
         11   -1    0    0    0    0 -0.00000000000E+00 -0.00000000000E+00 -0.45593999997E+02  0.45594000000E+02  0.51100000000E-03 0. -1.
    9900012    2    1    2    0    0 -0.81864126579E+01 -0.36661160074E+02  0.24860721608E+02  0.46142317754E+02  0.99999999307E+01 0.  0.
         12    1    1    2    0    0  0.81864126579E+01  0.36661160074E+02 -0.24860721608E+02  0.45045682246E+02  0.00000000000E+00 0. -1.
         11    1    3    3    0    0 -0.16876841289E+01 -0.14614920185E+02  0.92907596974E+01  0.17400068556E+02  0.51100000000E-03 0. -1.
        -11    1    3    3    0    0 -0.30380821608E+01 -0.17010156500E+02  0.14460626047E+02  0.22531867950E+02  0.51100000000E-03 0.  1.
        -12    1    3    3    0    0 -0.34606463682E+01 -0.50360833891E+01  0.11093358636E+01  0.62103812480E+01  0.00000000000E+00 0.  1.
</event>
<event>
 7    1  0.3086024E-009  0.4614232E+02  0.7816164E-02  0.1320468E+00
        -11   -1    0    0    0    0  0.00000000000E+00  0.00000000000E+00  0.45593999997E+02  0.45594000000E+02  0.51100000000E-03 0.  1.
         11   -1    0    0    0    0 -0.00000000000E+00 -0.00000000000E+00 -0.45593999997E+02  0.45594000000E+02  0.51100000000E-03 0. -1.
    9900012    2    1    2    0    0 -0.34140529607E+02 -0.18229425357E+02  0.23048336303E+02  0.46142317443E+02  0.99999971012E+01 0.  0.
         12    1    1    2    0    0  0.34140529607E+02  0.18229425357E+02 -0.23048336303E+02  0.45045682557E+02  0.00000000000E+00 0. -1.
         11    1    3    3    0    0 -0.17265319842E+02 -0.72029546176E+01  0.10415169136E+02  0.21411435563E+02  0.51100000000E-03 0. -1.
        -11    1    3    3    0    0 -0.14505553396E+02 -0.59954373795E+01  0.91203416403E+01  0.18153153461E+02  0.51100000000E-03 0.  1.
         12    1    3    3    0    0 -0.23696563690E+01 -0.50310333599E+01  0.35128255270E+01  0.65777284194E+01  0.00000000000E+00 0. -1.
</event>
<event>
 7    1  0.3086024E-009  0.4614232E+02  0.7816164E-02  0.1320468E+00
        -11   -1    0    0    0    0  0.00000000000E+00  0.00000000000E+00  0.45593999997E+02  0.45594000000E+02  0.51100000000E-03 0.  1.
         11   -1    0    0    0    0 -0.00000000000E+00 -0.00000000000E+00 -0.45593999997E+02  0.45594000000E+02  0.51100000000E-03 0. -1.
    9900012    2    1    2    0    0 -0.26066383952E+02  0.41425534020E+01  0.36503377872E+02  0.46142315222E+02  0.99999768472E+01 0.  0.
         12    1    1    2    0    0  0.26066383952E+02 -0.41425534020E+01 -0.36503377872E+02  0.45045684778E+02  0.00000000000E+00 0. -1.
         11    1    3    3    0    0 -0.10630561963E+02  0.18072204084E+01  0.15544026133E+02  0.18918024261E+02  0.51100000000E-03 0. -1.
        -11    1    3    3    0    0 -0.32421285207E+01  0.20358055606E+01  0.10431590584E+02  0.11111884808E+02  0.51100000000E-03 0.  1.
         12    1    3    3    0    0 -0.12193693468E+02  0.29952743296E+00  0.10527761155E+02  0.16112406153E+02  0.00000000000E+00 0. -1.
</event>
<event>
 7    1  0.3086024E-009  0.4614232E+02  0.7816164E-02  0.1320468E+00
        -11   -1    0    0    0    0  0.00000000000E+00  0.00000000000E+00  0.45593999997E+02  0.45594000000E+02  0.51100000000E-03 0.  1.
         11   -1    0    0    0    0 -0.00000000000E+00 -0.00000000000E+00 -0.45593999997E+02  0.45594000000E+02  0.51100000000E-03 0. -1.
    9900012    2    1    2    0    0  0.28626938555E+01 -0.25163713247E+02  0.37251924930E+02  0.46142318836E+02  0.10000009803E+02 0.  0.
         12    1    1    2    0    0 -0.28626938555E+01  0.25163713247E+02 -0.37251924930E+02  0.45045681164E+02  0.00000000000E+00 0. -1.
         11    1    3    3    0    0 -0.21934400093E+01 -0.25067619659E+01  0.22405043763E+01  0.40143361530E+01  0.51100000000E-03 0. -1.
        -11    1    3    3    0    0  0.35323391138E+01 -0.12645801378E+02  0.17193918786E+02  0.21633875187E+02  0.51100000000E-03 0.  1.
         12    1    3    3    0    0  0.15237947509E+01 -0.10011149903E+02  0.17817501768E+02  0.20494107496E+02  0.00000000000E+00 0. -1.
</event>
<event>
 7    1  0.3086024E-009  0.4614232E+02  0.7816164E-02  0.1320468E+00
        -11   -1    0    0    0    0  0.00000000000E+00  0.00000000000E+00  0.45593999997E+02  0.45594000000E+02  0.51100000000E-03 0.  1.
         11   -1    0    0    0    0 -0.00000000000E+00 -0.00000000000E+00 -0.45593999997E+02  0.45594000000E+02  0.51100000000E-03 0. -1.
    9900012    2    1    2    0    0 -0.25756871060E+02 -0.81207612269E+01 -0.36052049929E+02  0.46142317923E+02  0.10000001475E+02 0.  0.
         12    1    1    2    0    0  0.25756871060E+02  0.81207612269E+01  0.36052049929E+02  0.45045682077E+02  0.00000000000E+00 0. -1.
         11    1    3    3    0    0 -0.26856068326E+01 -0.56245054246E+00 -0.81532492254E+01  0.86025756529E+01  0.51100000000E-03 0. -1.
        -11    1    3    3    0    0 -0.18968480107E+02 -0.37105130581E+01 -0.23308333709E+02  0.30279523861E+02  0.51100000000E-03 0.  1.
        -12    1    3    3    0    0 -0.41027841201E+01 -0.38477976264E+01 -0.45904669951E+01  0.72602184088E+01  0.00000000000E+00 0.  1.
</event>
<event>
 7    1  0.3086024E-009  0.4614233E+02  0.7816164E-02  0.1320468E+00
        -11   -1    0    0    0    0  0.00000000000E+00  0.00000000000E+00  0.45593999997E+02  0.45594000000E+02  0.51100000000E-03 0.  1.
         11   -1    0    0    0    0 -0.00000000000E+00 -0.00000000000E+00 -0.45593999997E+02  0.45594000000E+02  0.51100000000E-03 0. -1.
    9900012    2    1    2    0    0  0.20440023330E+02 -0.61395732601E+01  0.39668920295E+02  0.46142332606E+02  0.10000135369E+02 0.  0.
         12    1    1    2    0    0 -0.20440023330E+02  0.61395732601E+01 -0.39668920295E+02  0.45045667394E+02  0.00000000000E+00 0. -1.
         11    1    3    3    0    0  0.89173463656E+00 -0.58179353223E+00  0.62358410356E+01  0.63260878953E+01  0.51100000000E-03 0. -1.
        -11    1    3    3    0    0  0.16226159107E+02 -0.13858559535E+01  0.25547151780E+02  0.30296300111E+02  0.51100000000E-03 0.  1.
        -12    1    3    3    0    0  0.33221295863E+01 -0.41719237744E+01  0.78859274794E+01  0.95199445995E+01  0.00000000000E+00 0.  1.
</event>
<event>
 7    1  0.3086024E-009  0.4614232E+02  0.7816164E-02  0.1320468E+00
        -11   -1    0    0    0    0  0.00000000000E+00  0.00000000000E+00  0.45593999997E+02  0.45594000000E+02  0.51100000000E-03 0.  1.
         11   -1    0    0    0    0 -0.00000000000E+00 -0.00000000000E+00 -0.45593999997E+02  0.45594000000E+02  0.51100000000E-03 0. -1.
    9900012    2    1    2    0    0  0.32592835611E+01 -0.43784172564E+02  0.10071580792E+02  0.46142318342E+02  0.10000005293E+02 0.  0.
         12    1    1    2    0    0 -0.32592835611E+01  0.43784172564E+02 -0.10071580792E+02  0.45045681658E+02  0.00000000000E+00 0. -1.
         11    1    3    3    0    0  0.44918532690E+00 -0.19635302692E+02  0.16676117238E+01  0.19711108756E+02  0.51100000000E-03 0. -1.
        -11    1    3    3    0    0 -0.84870271052E+00 -0.14411618720E+02  0.31440495905E+01  0.14774982183E+02  0.51100000000E-03 0.  1.
         12    1    3    3    0    0  0.36588009447E+01 -0.97372511511E+01  0.52599194781E+01  0.11656227402E+02  0.00000000000E+00 0. -1.
</event>
<event>
 7    1  0.3086024E-009  0.4614232E+02  0.7816164E-02  0.1320468E+00
        -11   -1    0    0    0    0  0.00000000000E+00  0.00000000000E+00  0.45593999997E+02  0.45594000000E+02  0.51100000000E-03 0.  1.
         11   -1    0    0    0    0 -0.00000000000E+00 -0.00000000000E+00 -0.45593999997E+02  0.45594000000E+02  0.51100000000E-03 0. -1.
    9900012    2    1    2    0    0  0.65679969100E+01  0.32495258535E+01  0.44445646309E+02  0.46142317882E+02  0.10000001104E+02 0.  0.
         12    1    1    2    0    0 -0.65679969100E+01 -0.32495258535E+01 -0.44445646309E+02  0.45045682118E+02  0.00000000000E+00 0. -1.
         11    1    3    3    0    0  0.20299750401E+01  0.23093159109E+01  0.11587371050E+02  0.11988365474E+02  0.51100000000E-03 0. -1.
        -11    1    3    3    0    0  0.53062672789E+01 -0.20901474766E+01  0.15489055780E+02  0.16505636556E+02  0.51100000000E-03 0.  1.
        -12    1    3    3    0    0 -0.76824540900E+00  0.30303574192E+01  0.17369219479E+02  0.17648315852E+02  0.00000000000E+00 0.  1.
</event>
<event>
 7    1  0.3086024E-009  0.4614232E+02  0.7816164E-02  0.1320468E+00
        -11   -1    0    0    0    0  0.00000000000E+00  0.00000000000E+00  0.45593999997E+02  0.45594000000E+02  0.51100000000E-03 0. -1.
         11   -1    0    0    0    0 -0.00000000000E+00 -0.00000000000E+00 -0.45593999997E+02  0.45594000000E+02  0.51100000000E-03 0.  1.
    9900012    2    1    2    0    0 -0.18080604566E+02 -0.95302290266E+01 -0.40141997540E+02  0.46142317706E+02  0.99999995020E+01 0.  0.
         12    1    1    2    0    0  0.18080604566E+02  0.95302290266E+01  0.40141997540E+02  0.45045682294E+02  0.00000000000E+00 0. -1.
         11    1    3    3    0    0 -0.62312167062E+01 -0.41953430844E+01 -0.14202560036E+02  0.16066788014E+02  0.51100000000E-03 0. -1.
        -11    1    3    3    0    0 -0.71747009443E+01 -0.69128073565E+01 -0.20077697974E+02  0.22413772448E+02  0.51100000000E-03 0.  1.
        -12    1    3    3    0    0 -0.46746869158E+01  0.15779214143E+01 -0.58617395299E+01  0.76617572441E+01  0.00000000000E+00 0.  1.
</event>
<event>
 7    1  0.3086024E-009  0.4614232E+02  0.7816164E-02  0.1320468E+00
        -11   -1    0    0    0    0  0.00000000000E+00  0.00000000000E+00  0.45593999997E+02  0.45594000000E+02  0.51100000000E-03 0.  1.
         11   -1    0    0    0    0 -0.00000000000E+00 -0.00000000000E+00 -0.45593999997E+02  0.45594000000E+02  0.51100000000E-03 0. -1.
    9900012    2    1    2    0    0  0.26082356396E+02  0.35404559706E+02  0.97642877632E+01  0.46142317869E+02  0.10000000981E+02 0.  0.
         12    1    1    2    0    0 -0.26082356396E+02 -0.35404559706E+02 -0.97642877632E+01  0.45045682131E+02  0.00000000000E+00 0. -1.
         11    1    3    3    0    0  0.14647507194E+02  0.15343329309E+02  0.69514691430E+01  0.22322413507E+02  0.51100000000E-03 0. -1.
        -11    1    3    3    0    0  0.11197388974E+02  0.18969458838E+02  0.14752778092E+01  0.22077099749E+02  0.51100000000E-03 0.  1.
        -12    1    3    3    0    0  0.23746022831E+00  0.10917715596E+01  0.13375408110E+01  0.17428046131E+01  0.00000000000E+00 0.  1.
</event>
<event>
 7    1  0.3086024E-009  0.4614232E+02  0.7816164E-02  0.1320468E+00
        -11   -1    0    0    0    0  0.00000000000E+00  0.00000000000E+00  0.45593999997E+02  0.45594000000E+02  0.51100000000E-03 0.  1.
         11   -1    0    0    0    0 -0.00000000000E+00 -0.00000000000E+00 -0.45593999997E+02  0.45594000000E+02  0.51100000000E-03 0. -1.
    9900012    2    1    2    0    0  0.39514964760E+02 -0.16504358817E+02  0.13974521584E+02  0.46142317039E+02  0.99999934113E+01 0.  0.
         12    1    1    2    0    0 -0.39514964760E+02  0.16504358817E+02 -0.13974521584E+02  0.45045682961E+02  0.00000000000E+00 0. -1.
         11    1    3    3    0    0  0.47066046929E+01 -0.21327949826E+01  0.43216081124E+01  0.67362629931E+01  0.51100000000E-03 0. -1.
        -11    1    3    3    0    0  0.83948083115E+01 -0.65527728955E+01  0.22984850093E+01  0.10894708477E+02  0.51100000000E-03 0.  1.
        -12    1    3    3    0    0  0.26413551756E+02 -0.78187909389E+01  0.73544284626E+01  0.28511345568E+02  0.00000000000E+00 0.  1.
</event>
<event>
 7    1  0.3086024E-009  0.4614232E+02  0.7816164E-02  0.1320468E+00
        -11   -1    0    0    0    0  0.00000000000E+00  0.00000000000E+00  0.45593999997E+02  0.45594000000E+02  0.51100000000E-03 0. -1.
         11   -1    0    0    0    0 -0.00000000000E+00 -0.00000000000E+00 -0.45593999997E+02  0.45594000000E+02  0.51100000000E-03 0.  1.
    9900012    2    1    2    0    0  0.24439796609E+02 -0.28834414504E+02  0.24502783317E+02  0.46142317539E+02  0.99999979791E+01 0.  0.
         12    1    1    2    0    0 -0.24439796609E+02  0.28834414504E+02 -0.24502783317E+02  0.45045682461E+02  0.00000000000E+00 0. -1.
         11    1    3    3    0    0  0.14321584599E+02 -0.14665283607E+02  0.10436712355E+02  0.23002245406E+02  0.51100000000E-03 0. -1.
        -11    1    3    3    0    0  0.37139448520E+01 -0.27897636473E+01  0.11754658227E+01  0.47914390044E+01  0.51100000000E-03 0.  1.
         12    1    3    3    0    0  0.64042671578E+01 -0.11379367250E+02  0.12890605140E+02  0.18348633129E+02  0.00000000000E+00 0. -1.
</event>
<event>
 7    1  0.3086024E-009  0.4614232E+02  0.7816164E-02  0.1320468E+00
        -11   -1    0    0    0    0  0.00000000000E+00  0.00000000000E+00  0.45593999997E+02  0.45594000000E+02  0.51100000000E-03 0. -1.
         11   -1    0    0    0    0 -0.00000000000E+00 -0.00000000000E+00 -0.45593999997E+02  0.45594000000E+02  0.51100000000E-03 0.  1.
    9900012    2    1    2    0    0  0.26580574714E+02 -0.35888302971E+02 -0.58835606891E+01  0.46142317314E+02  0.99999959271E+01 0.  0.
         12    1    1    2    0    0 -0.26580574714E+02  0.35888302971E+02  0.58835606891E+01  0.45045682686E+02  0.00000000000E+00 0. -1.
         11    1    3    3    0    0  0.62059742692E+01 -0.14781261118E+02 -0.26645634531E+01  0.16251144438E+02  0.51100000000E-03 0. -1.
        -11    1    3    3    0    0  0.19260137935E+02 -0.20957958416E+02 -0.25382572460E+01  0.28576768263E+02  0.51100000000E-03 0.  1.
         12    1    3    3    0    0  0.11144625092E+01 -0.14908343678E+00 -0.68073998997E+00  0.13144046140E+01  0.00000000000E+00 0. -1.
</event>
<event>
 7    1  0.3086024E-009  0.4614232E+02  0.7816164E-02  0.1320468E+00
        -11   -1    0    0    0    0  0.00000000000E+00  0.00000000000E+00  0.45593999997E+02  0.45594000000E+02  0.51100000000E-03 0.  1.
         11   -1    0    0    0    0 -0.00000000000E+00 -0.00000000000E+00 -0.45593999997E+02  0.45594000000E+02  0.51100000000E-03 0. -1.
    9900012    2    1    2    0    0  0.10513183627E+02  0.28537266167E+02  0.33229667706E+02  0.46142318674E+02  0.10000008322E+02 0.  0.
         12    1    1    2    0    0 -0.10513183627E+02 -0.28537266167E+02 -0.33229667706E+02  0.45045681326E+02  0.00000000000E+00 0. -1.
         11    1    3    3    0    0  0.11800354003E+01  0.15030544851E+02  0.16850683608E+02  0.22610955318E+02  0.51100000000E-03 0. -1.
        -11    1    3    3    0    0  0.91370384954E+01  0.13577202977E+02  0.15203954367E+02  0.22337997712E+02  0.51100000000E-03 0.  1.
         12    1    3    3    0    0  0.19610973083E+00 -0.70481659994E-01  0.11750297307E+01  0.11933656434E+01  0.00000000000E+00 0. -1.
</event>
<event>
 7    1  0.3086024E-009  0.4614232E+02  0.7816164E-02  0.1320468E+00
        -11   -1    0    0    0    0  0.00000000000E+00  0.00000000000E+00  0.45593999997E+02  0.45594000000E+02  0.51100000000E-03 0.  1.
         11   -1    0    0    0    0 -0.00000000000E+00 -0.00000000000E+00 -0.45593999997E+02  0.45594000000E+02  0.51100000000E-03 0. -1.
    9900012    2    1    2    0    0  0.22004811583E+02  0.82046810312E+01  0.38439368008E+02  0.46142317227E+02  0.99999951293E+01 0.  0.
         12    1    1    2    0    0 -0.22004811583E+02 -0.82046810312E+01 -0.38439368008E+02  0.45045682773E+02  0.00000000000E+00 0. -1.
         11    1    3    3    0    0  0.77353478832E+01 -0.13037650127E+01  0.11364965679E+02  0.13809339420E+02  0.51100000000E-03 0. -1.
        -11    1    3    3    0    0  0.26536128811E+01  0.24460730982E+01  0.30329399859E+01  0.47141977200E+01  0.51100000000E-03 0.  1.
        -12    1    3    3    0    0  0.11615850818E+02  0.70623729457E+01  0.24041462343E+02  0.27618780086E+02  0.00000000000E+00 0.  1.
</event>
<event>
 7    1  0.3086024E-009  0.4614232E+02  0.7816164E-02  0.1320468E+00
        -11   -1    0    0    0    0  0.00000000000E+00  0.00000000000E+00  0.45593999997E+02  0.45594000000E+02  0.51100000000E-03 0.  1.
         11   -1    0    0    0    0 -0.00000000000E+00 -0.00000000000E+00 -0.45593999997E+02  0.45594000000E+02  0.51100000000E-03 0. -1.
    9900012    2    1    2    0    0 -0.35994919598E+02 -0.19086346705E+02  0.19214331436E+02  0.46142318742E+02  0.10000008948E+02 0.  0.
         12    1    1    2    0    0  0.35994919598E+02  0.19086346705E+02 -0.19214331436E+02  0.45045681258E+02  0.00000000000E+00 0. -1.
         11    1    3    3    0    0 -0.10069498168E+02 -0.80171152250E+01  0.31287845868E+01  0.13246064439E+02  0.51100000000E-03 0. -1.
        -11    1    3    3    0    0 -0.10019702037E+02 -0.47271906093E+01  0.34101037223E+01  0.11591788801E+02  0.51100000000E-03 0.  1.
         12    1    3    3    0    0 -0.15905719394E+02 -0.63420408711E+01  0.12675443127E+02  0.21304465502E+02  0.00000000000E+00 0. -1.
</event>
<event>
 7    1  0.3086024E-009  0.4614232E+02  0.7816164E-02  0.1320468E+00
        -11   -1    0    0    0    0  0.00000000000E+00  0.00000000000E+00  0.45593999997E+02  0.45594000000E+02  0.51100000000E-03 0.  1.
         11   -1    0    0    0    0 -0.00000000000E+00 -0.00000000000E+00 -0.45593999997E+02  0.45594000000E+02  0.51100000000E-03 0. -1.
    9900012    2    1    2    0    0 -0.34814645547E+02 -0.28158420729E+02  0.49150167039E+01  0.46142316614E+02  0.99999895396E+01 0.  0.
         12    1    1    2    0    0  0.34814645547E+02  0.28158420729E+02 -0.49150167039E+01  0.45045683386E+02  0.00000000000E+00 0. -1.
         11    1    3    3    0    0 -0.30199589610E+02 -0.20834271400E+02  0.32605943851E+01  0.36833592729E+02  0.51100000000E-03 0. -1.
        -11    1    3    3    0    0 -0.22317560686E+01 -0.17962950396E+01 -0.51348594121E+00  0.29105118264E+01  0.51100000000E-03 0.  1.
         12    1    3    3    0    0 -0.23832998682E+01 -0.55278542904E+01  0.21679082600E+01  0.63982120581E+01  0.00000000000E+00 0. -1.
</event>
<event>
 7    1  0.3086024E-009  0.4614232E+02  0.7816164E-02  0.1320468E+00
        -11   -1    0    0    0    0  0.00000000000E+00  0.00000000000E+00  0.45593999997E+02  0.45594000000E+02  0.51100000000E-03 0.  1.
         11   -1    0    0    0    0 -0.00000000000E+00 -0.00000000000E+00 -0.45593999997E+02  0.45594000000E+02  0.51100000000E-03 0. -1.
    9900012    2    1    2    0    0 -0.70296663017E+01  0.23356156628E+01  0.44432444813E+02  0.46142318066E+02  0.10000002777E+02 0.  0.
         12    1    1    2    0    0  0.70296663017E+01 -0.23356156628E+01 -0.44432444813E+02  0.45045681934E+02  0.00000000000E+00 0. -1.
         11    1    3    3    0    0 -0.76165251960E-01  0.13808439881E+01  0.69263578299E+00  0.15466983721E+01  0.51100000000E-03 0. -1.
        -11    1    3    3    0    0 -0.52846756332E+01 -0.34844933105E+00  0.39531072210E+02  0.39884268626E+02  0.51100000000E-03 0.  1.
        -12    1    3    3    0    0 -0.16688254166E+01  0.13032210057E+01  0.42087368205E+01  0.47113510679E+01  0.00000000000E+00 0.  1.
</event>
<event>
 7    1  0.3086024E-009  0.4614232E+02  0.7816164E-02  0.1320468E+00
        -11   -1    0    0    0    0  0.00000000000E+00  0.00000000000E+00  0.45593999997E+02  0.45594000000E+02  0.51100000000E-03 0.  1.
         11   -1    0    0    0    0 -0.00000000000E+00 -0.00000000000E+00 -0.45593999997E+02  0.45594000000E+02  0.51100000000E-03 0. -1.
    9900012    2    1    2    0    0  0.29709523573E+02  0.17791164654E+02  0.28808542352E+02  0.46142318263E+02  0.10000004578E+02 0.  0.
         12    1    1    2    0    0 -0.29709523573E+02 -0.17791164654E+02 -0.28808542352E+02  0.45045681737E+02  0.00000000000E+00 0. -1.
         11    1    3    3    0    0  0.69169914764E+01  0.20734368865E+01  0.74312366964E+01  0.10361814064E+02  0.51100000000E-03 0. -1.
        -11    1    3    3    0    0  0.13431172256E+02  0.49224431068E+01  0.92117471848E+01  0.17014203501E+02  0.51100000000E-03 0.  1.
         12    1    3    3    0    0  0.93613598407E+01  0.10795284661E+02  0.12165558471E+02  0.18766300698E+02  0.00000000000E+00 0. -1.
</event>
<event>
 7    1  0.3086024E-009  0.4614232E+02  0.7816164E-02  0.1320468E+00
        -11   -1    0    0    0    0  0.00000000000E+00  0.00000000000E+00  0.45593999997E+02  0.45594000000E+02  0.51100000000E-03 0.  1.
         11   -1    0    0    0    0 -0.00000000000E+00 -0.00000000000E+00 -0.45593999997E+02  0.45594000000E+02  0.51100000000E-03 0. -1.
    9900012    2    1    2    0    0 -0.18979486121E+02 -0.71478712701E+01  0.40221891991E+02  0.46142317050E+02  0.99999935170E+01 0.  0.
         12    1    1    2    0    0  0.18979486121E+02  0.71478712701E+01 -0.40221891991E+02  0.45045682950E+02  0.00000000000E+00 0. -1.
         11    1    3    3    0    0  0.18995834675E+00  0.10118727088E+01  0.36355931106E+01  0.37785589951E+01  0.51100000000E-03 0. -1.
        -11    1    3    3    0    0 -0.15852645149E+02 -0.79201662422E+01  0.27784670531E+02  0.32954867748E+02  0.51100000000E-03 0.  1.
         12    1    3    3    0    0 -0.33167993189E+01 -0.23957773678E+00  0.88016283492E+01  0.94088903071E+01  0.00000000000E+00 0. -1.
</event>
<event>
 7    1  0.3086024E-009  0.4614231E+02  0.7816164E-02  0.1320468E+00
        -11   -1    0    0    0    0  0.00000000000E+00  0.00000000000E+00  0.45593999997E+02  0.45594000000E+02  0.51100000000E-03 0.  1.
         11   -1    0    0    0    0 -0.00000000000E+00 -0.00000000000E+00 -0.45593999997E+02  0.45594000000E+02  0.51100000000E-03 0. -1.
    9900012    2    1    2    0    0  0.60069741807E+01 -0.44627044166E+02 -0.12071963251E+01  0.46142310608E+02  0.99999347719E+01 0.  0.
         12    1    1    2    0    0 -0.60069741807E+01  0.44627044166E+02  0.12071963251E+01  0.45045689392E+02  0.00000000000E+00 0. -1.
         11    1    3    3    0    0 -0.11519138893E+01 -0.62155801049E+01 -0.22442309502E+01  0.67079739466E+01  0.51100000000E-03 0. -1.
        -11    1    3    3    0    0  0.19323162096E+01 -0.21354788448E+02  0.22141986532E+01  0.21556055101E+02  0.51100000000E-03 0.  1.
        -12    1    3    3    0    0  0.52265718604E+01 -0.17056675613E+02 -0.11771640281E+01  0.17878281560E+02  0.00000000000E+00 0.  1.
</event>
<event>
 7    1  0.3086024E-009  0.4614232E+02  0.7816164E-02  0.1320468E+00
        -11   -1    0    0    0    0  0.00000000000E+00  0.00000000000E+00  0.45593999997E+02  0.45594000000E+02  0.51100000000E-03 0.  1.
         11   -1    0    0    0    0 -0.00000000000E+00 -0.00000000000E+00 -0.45593999997E+02  0.45594000000E+02  0.51100000000E-03 0. -1.
    9900012    2    1    2    0    0  0.38516090059E+02 -0.27396303867E+00  0.23356994353E+02  0.46142318361E+02  0.10000005467E+02 0.  0.
         12    1    1    2    0    0 -0.38516090059E+02  0.27396303867E+00 -0.23356994353E+02  0.45045681639E+02  0.00000000000E+00 0. -1.
         11    1    3    3    0    0  0.19065527158E+02  0.18596184357E+01  0.14055893981E+02  0.23759643567E+02  0.51100000000E-03 0. -1.
        -11    1    3    3    0    0  0.68026871150E+01  0.19166633947E+01  0.28893825061E+01  0.76353573644E+01  0.51100000000E-03 0.  1.
         12    1    3    3    0    0  0.12647875785E+02 -0.40502448691E+01  0.64117178662E+01  0.14747317430E+02  0.00000000000E+00 0. -1.
</event>
<event>
 7    1  0.3086024E-009  0.4614232E+02  0.7816164E-02  0.1320468E+00
        -11   -1    0    0    0    0  0.00000000000E+00  0.00000000000E+00  0.45593999997E+02  0.45594000000E+02  0.51100000000E-03 0. -1.
         11   -1    0    0    0    0 -0.00000000000E+00 -0.00000000000E+00 -0.45593999997E+02  0.45594000000E+02  0.51100000000E-03 0.  1.
    9900012    2    1    2    0    0  0.31304901811E+02 -0.18265074421E+02 -0.26748904630E+02  0.46142315191E+02  0.99999765623E+01 0.  0.
         12    1    1    2    0    0 -0.31304901811E+02  0.18265074421E+02  0.26748904630E+02  0.45045684809E+02  0.00000000000E+00 0. -1.
         11    1    3    3    0    0  0.14298479935E+02 -0.11738654683E+02 -0.10873763698E+02  0.21458827541E+02  0.51100000000E-03 0. -1.
        -11    1    3    3    0    0  0.56843464705E+01 -0.47942446837E+01 -0.58363140386E+01  0.94529962817E+01  0.51100000000E-03 0.  1.
         12    1    3    3    0    0  0.11322075406E+02 -0.17321750541E+01 -0.10038826894E+02  0.15230491368E+02  0.00000000000E+00 0. -1.
</event>
<event>
 7    1  0.3086024E-009  0.4614232E+02  0.7816164E-02  0.1320468E+00
        -11   -1    0    0    0    0  0.00000000000E+00  0.00000000000E+00  0.45593999997E+02  0.45594000000E+02  0.51100000000E-03 0.  1.
         11   -1    0    0    0    0 -0.00000000000E+00 -0.00000000000E+00 -0.45593999997E+02  0.45594000000E+02  0.51100000000E-03 0. -1.
    9900012    2    1    2    0    0 -0.14942319735E+02 -0.82874412154E+01  0.41679238873E+02  0.46142317033E+02  0.99999933582E+01 0.  0.
         12    1    1    2    0    0  0.14942319735E+02  0.82874412154E+01 -0.41679238873E+02  0.45045682967E+02  0.00000000000E+00 0. -1.
         11    1    3    3    0    0  0.67202676708E-02 -0.72539238637E+00  0.34044442974E+00  0.80133759869E+00  0.51100000000E-03 0. -1.
        -11    1    3    3    0    0  0.92038728908E+00 -0.11743519709E+01  0.27049234762E+01  0.30891465790E+01  0.51100000000E-03 0.  1.
        -12    1    3    3    0    0 -0.15869427292E+02 -0.63876968582E+01  0.38633870967E+02  0.42251832855E+02  0.00000000000E+00 0.  1.
</event>
<event>
 7    1  0.3086024E-009  0.4614232E+02  0.7816164E-02  0.1320468E+00
        -11   -1    0    0    0    0  0.00000000000E+00  0.00000000000E+00  0.45593999997E+02  0.45594000000E+02  0.51100000000E-03 0.  1.
         11   -1    0    0    0    0 -0.00000000000E+00 -0.00000000000E+00 -0.45593999997E+02  0.45594000000E+02  0.51100000000E-03 0. -1.
    9900012    2    1    2    0    0  0.17390306126E+00 -0.47321126503E+01  0.44796093804E+02  0.46142321489E+02  0.10000033992E+02 0.  0.
         12    1    1    2    0    0 -0.17390306126E+00  0.47321126503E+01 -0.44796093804E+02  0.45045678511E+02  0.00000000000E+00 0. -1.
         11    1    3    3    0    0  0.78636672210E+00  0.15985964222E+01  0.98379940260E+01  0.99980002931E+01  0.51100000000E-03 0. -1.
        -11    1    3    3    0    0 -0.10663340743E+01 -0.16943067828E+01  0.25722750296E+02  0.25800535400E+02  0.51100000000E-03 0.  1.
         12    1    3    3    0    0  0.45387041344E+00 -0.46364022897E+01  0.92353494818E+01  0.10343785796E+02  0.00000000000E+00 0. -1.
</event>
<event>
 7    1  0.3086024E-009  0.4614232E+02  0.7816164E-02  0.1320468E+00
        -11   -1    0    0    0    0  0.00000000000E+00  0.00000000000E+00  0.45593999997E+02  0.45594000000E+02  0.51100000000E-03 0.  1.
         11   -1    0    0    0    0 -0.00000000000E+00 -0.00000000000E+00 -0.45593999997E+02  0.45594000000E+02  0.51100000000E-03 0. -1.
    9900012    2    1    2    0    0 -0.94857125091E+01  0.18165464993E+02  0.40114217754E+02  0.46142319561E+02  0.10000016415E+02 0.  0.
         12    1    1    2    0    0  0.94857125091E+01 -0.18165464993E+02 -0.40114217754E+02  0.45045680439E+02  0.00000000000E+00 0. -1.
         11    1    3    3    0    0 -0.30660175330E+00  0.70713005108E+01  0.94964094267E+01  0.11843947307E+02  0.51100000000E-03 0. -1.
        -11    1    3    3    0    0 -0.92248868180E+01  0.11644102769E+02  0.29951969740E+02  0.33433578296E+02  0.51100000000E-03 0.  1.
        -12    1    3    3    0    0  0.45776062211E-01 -0.54993828667E+00  0.66583858639E+00  0.86479395820E+00  0.00000000000E+00 0.  1.
</event>
<event>
 7    1  0.3086024E-009  0.4614232E+02  0.7816164E-02  0.1320468E+00
        -11   -1    0    0    0    0  0.00000000000E+00  0.00000000000E+00  0.45593999997E+02  0.45594000000E+02  0.51100000000E-03 0. -1.
         11   -1    0    0    0    0 -0.00000000000E+00 -0.00000000000E+00 -0.45593999997E+02  0.45594000000E+02  0.51100000000E-03 0.  1.
    9900012    2    1    2    0    0 -0.28767844554E+02  0.34618920956E+02  0.17478382270E+01  0.46142317556E+02  0.99999981261E+01 0.  0.
         12    1    1    2    0    0  0.28767844554E+02 -0.34618920956E+02 -0.17478382270E+01  0.45045682444E+02  0.00000000000E+00 0. -1.
         11    1    3    3    0    0 -0.30358142404E+01  0.17021171360E+01 -0.86665034189E+00  0.35867051626E+01  0.51100000000E-03 0. -1.
        -11    1    3    3    0    0 -0.18356983019E+02  0.21524621491E+02  0.51373796611E+01  0.28752057769E+02  0.51100000000E-03 0.  1.
         12    1    3    3    0    0 -0.73750472947E+01  0.11392182328E+02 -0.25228910922E+01  0.13803554624E+02  0.00000000000E+00 0. -1.
</event>
<event>
 7    1  0.3086024E-009  0.4614232E+02  0.7816164E-02  0.1320468E+00
        -11   -1    0    0    0    0  0.00000000000E+00  0.00000000000E+00  0.45593999997E+02  0.45594000000E+02  0.51100000000E-03 0. -1.
         11   -1    0    0    0    0 -0.00000000000E+00 -0.00000000000E+00 -0.45593999997E+02  0.45594000000E+02  0.51100000000E-03 0.  1.
    9900012    2    1    2    0    0 -0.21300278866E+02  0.11255475266E+02 -0.38062131234E+02  0.46142318328E+02  0.10000005166E+02 0.  0.
         12    1    1    2    0    0  0.21300278866E+02 -0.11255475266E+02  0.38062131234E+02  0.45045681672E+02  0.00000000000E+00 0. -1.
         11    1    3    3    0    0 -0.10951805206E+02  0.24280478308E+01 -0.20630182170E+02  0.23482799453E+02  0.51100000000E-03 0.  1.
        -11    1    3    3    0    0 -0.65742204639E+00 -0.61853233644E+00 -0.15510015088E+01  0.17945450509E+01  0.51100000000E-03 0. -1.
         12    1    3    3    0    0 -0.96910516145E+01  0.94459597719E+01 -0.15880947555E+02  0.20864973823E+02  0.00000000000E+00 0. -1.
</event>
<event>
 7    1  0.3086024E-009  0.4614232E+02  0.7816164E-02  0.1320468E+00
        -11   -1    0    0    0    0  0.00000000000E+00  0.00000000000E+00  0.45593999997E+02  0.45594000000E+02  0.51100000000E-03 0.  1.
         11   -1    0    0    0    0 -0.00000000000E+00 -0.00000000000E+00 -0.45593999997E+02  0.45594000000E+02  0.51100000000E-03 0. -1.
    9900012    2    1    2    0    0 -0.21338621069E+02 -0.34844489803E+02  0.18964129717E+02  0.46142318357E+02  0.10000005434E+02 0.  0.
         12    1    1    2    0    0  0.21338621069E+02  0.34844489803E+02 -0.18964129717E+02  0.45045681643E+02  0.00000000000E+00 0. -1.
         11    1    3    3    0    0 -0.21469279120E+01 -0.10011547110E+01  0.21793152226E+01  0.32188546589E+01  0.51100000000E-03 0. -1.
        -11    1    3    3    0    0 -0.17403155071E+02 -0.25005346927E+02  0.13562731071E+02  0.33347936304E+02  0.51100000000E-03 0.  1.
        -12    1    3    3    0    0 -0.17885380861E+01 -0.88379881651E+01  0.32220834238E+01  0.95755273945E+01  0.00000000000E+00 0.  1.
</event>
<event>
 7    1  0.3086024E-009  0.4614231E+02  0.7816164E-02  0.1320468E+00
        -11   -1    0    0    0    0  0.00000000000E+00  0.00000000000E+00  0.45593999997E+02  0.45594000000E+02  0.51100000000E-03 0. -1.
         11   -1    0    0    0    0 -0.00000000000E+00 -0.00000000000E+00 -0.45593999997E+02  0.45594000000E+02  0.51100000000E-03 0.  1.
    9900012    2    1    2    0    0  0.30439873159E+02  0.27051794658E+02  0.19254319013E+02  0.46142309054E+02  0.99999205981E+01 0.  0.
         12    1    1    2    0    0 -0.30439873159E+02 -0.27051794658E+02 -0.19254319013E+02  0.45045690946E+02  0.00000000000E+00 0. -1.
         11    1    3    3    0    0  0.21405150320E+02  0.20320132086E+02  0.11634666065E+02  0.31724654182E+02  0.51100000000E-03 0. -1.
        -11    1    3    3    0    0  0.46751225049E+01  0.25982870392E+01  0.93430944558E+00  0.54296224892E+01  0.51100000000E-03 0.  1.
         12    1    3    3    0    0  0.43596003337E+01  0.41333755331E+01  0.66853435027E+01  0.89880323829E+01  0.00000000000E+00 0. -1.
</event>
<event>
 7    1  0.3086024E-009  0.4614232E+02  0.7816164E-02  0.1320468E+00
        -11   -1    0    0    0    0  0.00000000000E+00  0.00000000000E+00  0.45593999997E+02  0.45594000000E+02  0.51100000000E-03 0.  1.
         11   -1    0    0    0    0 -0.00000000000E+00 -0.00000000000E+00 -0.45593999997E+02  0.45594000000E+02  0.51100000000E-03 0. -1.
    9900012    2    1    2    0    0 -0.41501531946E+02  0.18964424154E+00  0.17512864349E+02  0.46142317227E+02  0.99999951255E+01 0.  0.
         12    1    1    2    0    0  0.41501531946E+02 -0.18964424154E+00 -0.17512864349E+02  0.45045682773E+02  0.00000000000E+00 0. -1.
         11    1    3    3    0    0 -0.22255348764E+02  0.30524502832E+01  0.76483857864E+01  0.23730061246E+02  0.51100000000E-03 0. -1.
        -11    1    3    3    0    0 -0.25440540508E+01 -0.21382715261E+01  0.24241122097E+01  0.41134822716E+01  0.51100000000E-03 0.  1.
        -12    1    3    3    0    0 -0.16702129131E+02 -0.72453451564E+00  0.74403663530E+01  0.18298773709E+02  0.00000000000E+00 0.  1.
</event>
<event>
 7    1  0.3086024E-009  0.4614232E+02  0.7816164E-02  0.1320468E+00
        -11   -1    0    0    0    0  0.00000000000E+00  0.00000000000E+00  0.45593999997E+02  0.45594000000E+02  0.51100000000E-03 0.  1.
         11   -1    0    0    0    0 -0.00000000000E+00 -0.00000000000E+00 -0.45593999997E+02  0.45594000000E+02  0.51100000000E-03 0. -1.
    9900012    2    1    2    0    0  0.22480818227E+02  0.57034707172E+01  0.38616016332E+02  0.46142317813E+02  0.10000000473E+02 0.  0.
         12    1    1    2    0    0 -0.22480818227E+02 -0.57034707172E+01 -0.38616016332E+02  0.45045682187E+02  0.00000000000E+00 0. -1.
         11    1    3    3    0    0  0.30803330334E+00 -0.13209118879E+01  0.30615195981E+01  0.33485213516E+01  0.51100000000E-03 0. -1.
        -11    1    3    3    0    0  0.63981068667E+01  0.40566712588E+01  0.89898231755E+01  0.11756244050E+02  0.51100000000E-03 0.  1.
        -12    1    3    3    0    0  0.15774678057E+02  0.29677113463E+01  0.26564673558E+02  0.31037552411E+02  0.00000000000E+00 0.  1.
</event>
<event>
 7    1  0.3086024E-009  0.4614232E+02  0.7816164E-02  0.1320468E+00
        -11   -1    0    0    0    0  0.00000000000E+00  0.00000000000E+00  0.45593999997E+02  0.45594000000E+02  0.51100000000E-03 0. -1.
         11   -1    0    0    0    0 -0.00000000000E+00 -0.00000000000E+00 -0.45593999997E+02  0.45594000000E+02  0.51100000000E-03 0.  1.
    9900012    2    1    2    0    0 -0.14078695229E+02  0.41721453730E+02 -0.94986353598E+01  0.46142318360E+02  0.10000005464E+02 0.  0.
         12    1    1    2    0    0  0.14078695229E+02 -0.41721453730E+02  0.94986353598E+01  0.45045681640E+02  0.00000000000E+00 0. -1.
         11    1    3    3    0    0 -0.10804727204E+02  0.24820440547E+02 -0.93834309761E+01  0.28650395739E+02  0.51100000000E-03 0. -1.
        -11    1    3    3    0    0 -0.23917173917E+01  0.12151992893E+02 -0.14782076567E+01  0.12473024552E+02  0.51100000000E-03 0.  1.
         12    1    3    3    0    0 -0.88225063287E+00  0.47490202905E+01  0.13630032730E+01  0.50188980684E+01  0.00000000000E+00 0. -1.
</event>
<event>
 7    1  0.3086024E-009  0.4614232E+02  0.7816164E-02  0.1320468E+00
        -11   -1    0    0    0    0  0.00000000000E+00  0.00000000000E+00  0.45593999997E+02  0.45594000000E+02  0.51100000000E-03 0.  1.
         11   -1    0    0    0    0 -0.00000000000E+00 -0.00000000000E+00 -0.45593999997E+02  0.45594000000E+02  0.51100000000E-03 0. -1.
    9900012    2    1    2    0    0  0.20308180639E+02 -0.16606552142E+02  0.36618490434E+02  0.46142316338E+02  0.99999870245E+01 0.  0.
         12    1    1    2    0    0 -0.20308180639E+02  0.16606552142E+02 -0.36618490434E+02  0.45045683662E+02  0.00000000000E+00 0. -1.
         11    1    3    3    0    0  0.88396059412E+00 -0.28843407332E+01  0.76077065457E+01  0.81840092219E+01  0.51100000000E-03 0. -1.
        -11    1    3    3    0    0  0.76158081581E+01 -0.63268363985E+01  0.79110956000E+01  0.12673390492E+02  0.51100000000E-03 0.  1.
        -12    1    3    3    0    0  0.11808411887E+02 -0.73953750101E+01  0.21099688288E+02  0.25284916624E+02  0.00000000000E+00 0.  1.
</event>
<event>
 7    1  0.3086024E-009  0.4614232E+02  0.7816164E-02  0.1320468E+00
        -11   -1    0    0    0    0  0.00000000000E+00  0.00000000000E+00  0.45593999997E+02  0.45594000000E+02  0.51100000000E-03 0.  1.
         11   -1    0    0    0    0 -0.00000000000E+00 -0.00000000000E+00 -0.45593999997E+02  0.45594000000E+02  0.51100000000E-03 0. -1.
    9900012    2    1    2    0    0  0.40133029690E+02 -0.50272341948E+01  0.19828777081E+02  0.46142317007E+02  0.99999931271E+01 0.  0.
         12    1    1    2    0    0 -0.40133029690E+02  0.50272341948E+01 -0.19828777081E+02  0.45045682993E+02  0.00000000000E+00 0. -1.
         11    1    3    3    0    0  0.53465332621E+00 -0.42520985750E+00  0.13418846336E+01  0.15057596864E+01  0.51100000000E-03 0. -1.
        -11    1    3    3    0    0  0.20039727228E+02 -0.30733224277E+01  0.51617298892E+01  0.20920789513E+02  0.51100000000E-03 0.  1.
        -12    1    3    3    0    0  0.19558649136E+02 -0.15287019096E+01  0.13325162558E+02  0.23715767808E+02  0.00000000000E+00 0.  1.
</event>
<event>
 7    1  0.3086024E-009  0.4614232E+02  0.7816164E-02  0.1320468E+00
        -11   -1    0    0    0    0  0.00000000000E+00  0.00000000000E+00  0.45593999997E+02  0.45594000000E+02  0.51100000000E-03 0. -1.
         11   -1    0    0    0    0 -0.00000000000E+00 -0.00000000000E+00 -0.45593999997E+02  0.45594000000E+02  0.51100000000E-03 0.  1.
    9900012    2    1    2    0    0 -0.89564519251E+01 -0.34181090734E+02 -0.27938292101E+02  0.46142321402E+02  0.10000033200E+02 0.  0.
         12    1    1    2    0    0  0.89564519251E+01  0.34181090734E+02  0.27938292101E+02  0.45045678598E+02  0.00000000000E+00 0. -1.
         11    1    3    3    0    0 -0.37722637236E+00 -0.22139929021E+01 -0.36542031353E+01  0.42892033202E+01  0.51100000000E-03 0. -1.
        -11    1    3    3    0    0 -0.67193407671E+01 -0.27738357293E+02 -0.23884731017E+02  0.37216211275E+02  0.51100000000E-03 0.  1.
        -12    1    3    3    0    0 -0.18598847856E+01 -0.42287405393E+01 -0.39935794830E+00  0.46369068068E+01  0.00000000000E+00 0.  1.
</event>
<event>
 7    1  0.3229700E-009  0.4614232E+02  0.7816164E-02  0.1320468E+00
        -11   -1    0    0    0    0  0.00000000000E+00  0.00000000000E+00  0.45593999997E+02  0.45594000000E+02  0.51100000000E-03 0. -1.
         11   -1    0    0    0    0 -0.00000000000E+00 -0.00000000000E+00 -0.45593999997E+02  0.45594000000E+02  0.51100000000E-03 0.  1.
    9900012    2    1    2    0    0 -0.22691818105E+02  0.14947467161E+02 -0.35927260812E+02  0.46142318155E+02  0.10000003596E+02 0.  0.
         12    1    1    2    0    0  0.22691818105E+02 -0.14947467161E+02  0.35927260812E+02  0.45045681845E+02  0.00000000000E+00 0. -1.
         11    1    3    3    0    0 -0.98391217606E+01  0.63793488587E+01 -0.87672519570E+01  0.14641349529E+02  0.51100000000E-03 0. -1.
        -11    1    3    3    0    0 -0.38789312399E+01  0.48208362248E+01 -0.11734149031E+02  0.13265625624E+02  0.51100000000E-03 0.  1.
         12    1    3    3    0    0 -0.89737651041E+01  0.37472820771E+01 -0.15425859824E+02  0.18235343002E+02  0.00000000000E+00 0. -1.
</event>
<event>
 7    1  0.3086024E-009  0.4614232E+02  0.7816164E-02  0.1320468E+00
        -11   -1    0    0    0    0  0.00000000000E+00  0.00000000000E+00  0.45593999997E+02  0.45594000000E+02  0.51100000000E-03 0.  1.
         11   -1    0    0    0    0 -0.00000000000E+00 -0.00000000000E+00 -0.45593999997E+02  0.45594000000E+02  0.51100000000E-03 0. -1.
    9900012    2    1    2    0    0 -0.39100281885E+02 -0.22302389481E+02 -0.16985110163E+01  0.46142316969E+02  0.99999927785E+01 0.  0.
         12    1    1    2    0    0  0.39100281885E+02  0.22302389481E+02  0.16985110163E+01  0.45045683031E+02  0.00000000000E+00 0. -1.
         11    1    3    3    0    0 -0.41137117807E+01 -0.38767963584E+01 -0.24440945033E+01  0.61583904408E+01  0.51100000000E-03 0. -1.
        -11    1    3    3    0    0 -0.53774605009E+01 -0.14011769385E+01  0.17151041329E+01  0.58156651124E+01  0.51100000000E-03 0.  1.
         12    1    3    3    0    0 -0.29609109604E+02 -0.17024416184E+02 -0.96952064592E+00  0.34168261416E+02  0.00000000000E+00 0. -1.
</event>
<event>
 7    1  0.3086024E-009  0.4614232E+02  0.7816164E-02  0.1320468E+00
        -11   -1    0    0    0    0  0.00000000000E+00  0.00000000000E+00  0.45593999997E+02  0.45594000000E+02  0.51100000000E-03 0. -1.
         11   -1    0    0    0    0 -0.00000000000E+00 -0.00000000000E+00 -0.45593999997E+02  0.45594000000E+02  0.51100000000E-03 0.  1.
    9900012    2    1    2    0    0  0.25531612595E+02  0.30657946114E+02 -0.20912691385E+02  0.46142316937E+02  0.99999924829E+01 0.  0.
         12    1    1    2    0    0 -0.25531612595E+02 -0.30657946114E+02  0.20912691385E+02  0.45045683063E+02  0.00000000000E+00 0. -1.
         11    1    3    3    0    0  0.41322778295E+01  0.89179251097E+01 -0.74816714009E+01  0.12352348584E+02  0.51100000000E-03 0. -1.
        -11    1    3    3    0    0  0.20528595526E+02  0.22005482496E+02 -0.12981967334E+02  0.32774928990E+02  0.51100000000E-03 0.  1.
        -12    1    3    3    0    0  0.87073923963E+00 -0.26546149114E+00 -0.44905264968E+00  0.10150393632E+01  0.00000000000E+00 0.  1.
</event>
<event>
 7    1  0.3086024E-009  0.4614232E+02  0.7816164E-02  0.1320468E+00
        -11   -1    0    0    0    0  0.00000000000E+00  0.00000000000E+00  0.45593999997E+02  0.45594000000E+02  0.51100000000E-03 0. -1.
         11   -1    0    0    0    0 -0.00000000000E+00 -0.00000000000E+00 -0.45593999997E+02  0.45594000000E+02  0.51100000000E-03 0.  1.
    9900012    2    1    2    0    0  0.42320832695E+02  0.79609866870E+01  0.13216781954E+02  0.46142317474E+02  0.99999973783E+01 0.  0.
         12    1    1    2    0    0 -0.42320832695E+02 -0.79609866870E+01 -0.13216781954E+02  0.45045682526E+02  0.00000000000E+00 0. -1.
         11    1    3    3    0    0  0.49782913817E+01  0.21229720574E+00  0.17413599272E+01  0.52783321080E+01  0.51100000000E-03 0. -1.
        -11    1    3    3    0    0  0.31086158035E+02  0.28178399358E+01  0.83911289685E+01  0.32321826819E+02  0.51100000000E-03 0.  1.
        -12    1    3    3    0    0  0.62563832784E+01  0.49308495455E+01  0.30842930586E+01  0.85421585467E+01  0.00000000000E+00 0.  1.
</event>
<event>
 7    1  0.3086024E-009  0.4614232E+02  0.7816164E-02  0.1320468E+00
        -11   -1    0    0    0    0  0.00000000000E+00  0.00000000000E+00  0.45593999997E+02  0.45594000000E+02  0.51100000000E-03 0. -1.
         11   -1    0    0    0    0 -0.00000000000E+00 -0.00000000000E+00 -0.45593999997E+02  0.45594000000E+02  0.51100000000E-03 0.  1.
    9900012    2    1    2    0    0  0.35261475152E+02 -0.17620447203E+02 -0.21800499697E+02  0.46142316782E+02  0.99999910745E+01 0.  0.
         12    1    1    2    0    0 -0.35261475152E+02  0.17620447203E+02  0.21800499697E+02  0.45045683218E+02  0.00000000000E+00 0. -1.
         11    1    3    3    0    0  0.11061316062E+02 -0.76594817611E+01 -0.85806561189E+01  0.15957695121E+02  0.51100000000E-03 0. -1.
        -11    1    3    3    0    0  0.67009139181E+01  0.54684182812E+00 -0.33772443075E+01  0.75237665233E+01  0.51100000000E-03 0.  1.
        -12    1    3    3    0    0  0.17499245171E+02 -0.10507807270E+02 -0.98425992707E+01  0.22660855138E+02  0.00000000000E+00 0.  1.
</event>
<event>
 7    1  0.3086024E-009  0.4614232E+02  0.7816164E-02  0.1320468E+00
        -11   -1    0    0    0    0  0.00000000000E+00  0.00000000000E+00  0.45593999997E+02  0.45594000000E+02  0.51100000000E-03 0.  1.
         11   -1    0    0    0    0 -0.00000000000E+00 -0.00000000000E+00 -0.45593999997E+02  0.45594000000E+02  0.51100000000E-03 0. -1.
    9900012    2    1    2    0    0  0.14253762800E+01 -0.29211388973E+02  0.34260421704E+02  0.46142318314E+02  0.10000005040E+02 0.  0.
         12    1    1    2    0    0 -0.14253762800E+01  0.29211388973E+02 -0.34260421704E+02  0.45045681686E+02  0.00000000000E+00 0. -1.
         11    1    3    3    0    0  0.13959100207E+01 -0.83640201519E+01  0.57656396898E+01  0.10254169844E+02  0.51100000000E-03 0. -1.
        -11    1    3    3    0    0  0.20003664076E+01 -0.15606088419E+02  0.24047670419E+02  0.28737465343E+02  0.51100000000E-03 0.  1.
         12    1    3    3    0    0 -0.19709001483E+01 -0.52412804023E+01  0.44471115949E+01  0.71506831273E+01  0.00000000000E+00 0. -1.
</event>
<event>
 7    1  0.3086024E-009  0.4614232E+02  0.7816164E-02  0.1320468E+00
        -11   -1    0    0    0    0  0.00000000000E+00  0.00000000000E+00  0.45593999997E+02  0.45594000000E+02  0.51100000000E-03 0. -1.
         11   -1    0    0    0    0 -0.00000000000E+00 -0.00000000000E+00 -0.45593999997E+02  0.45594000000E+02  0.51100000000E-03 0.  1.
    9900012    2    1    2    0    0 -0.31545156323E+02  0.25423028576E+02 -0.19689748924E+02  0.46142317831E+02  0.10000000635E+02 0.  0.
         12    1    1    2    0    0  0.31545156323E+02 -0.25423028576E+02  0.19689748924E+02  0.45045682169E+02  0.00000000000E+00 0. -1.
         11    1    3    3    0    0 -0.51099752976E+01  0.26513939373E+01  0.48275305847E-02  0.57568881280E+01  0.51100000000E-03 0. -1.
        -11    1    3    3    0    0 -0.69399382777E+01  0.37771225531E+01 -0.29809998406E+01  0.84448658006E+01  0.51100000000E-03 0.  1.
         12    1    3    3    0    0 -0.19495242748E+02  0.18994512085E+02 -0.16713576614E+02  0.31940563902E+02  0.00000000000E+00 0. -1.
</event>
<event>
 7    1  0.3086024E-009  0.4614232E+02  0.7816164E-02  0.1320468E+00
        -11   -1    0    0    0    0  0.00000000000E+00  0.00000000000E+00  0.45593999997E+02  0.45594000000E+02  0.51100000000E-03 0.  1.
         11   -1    0    0    0    0 -0.00000000000E+00 -0.00000000000E+00 -0.45593999997E+02  0.45594000000E+02  0.51100000000E-03 0. -1.
    9900012    2    1    2    0    0  0.30138976237E+02 -0.48090576835E+01  0.33130478306E+02  0.46142317441E+02  0.99999970788E+01 0.  0.
         12    1    1    2    0    0 -0.30138976237E+02  0.48090576835E+01 -0.33130478306E+02  0.45045682559E+02  0.00000000000E+00 0. -1.
         11    1    3    3    0    0  0.52114808139E+01 -0.24062696474E+01  0.25306100362E+01  0.62732490231E+01  0.51100000000E-03 0. -1.
        -11    1    3    3    0    0  0.13357024245E+02 -0.34588564245E+01  0.18683804116E+02  0.23226242075E+02  0.51100000000E-03 0.  1.
         12    1    3    3    0    0  0.11570471179E+02  0.10560683884E+01  0.11916064154E+02  0.16642826342E+02  0.00000000000E+00 0. -1.
</event>
<event>
 7    1  0.3086024E-009  0.4614231E+02  0.7816164E-02  0.1320468E+00
        -11   -1    0    0    0    0  0.00000000000E+00  0.00000000000E+00  0.45593999997E+02  0.45594000000E+02  0.51100000000E-03 0.  1.
         11   -1    0    0    0    0 -0.00000000000E+00 -0.00000000000E+00 -0.45593999997E+02  0.45594000000E+02  0.51100000000E-03 0. -1.
    9900012    2    1    2    0    0 -0.53115150212E+01 -0.12211506474E+02  0.43032329193E+02  0.46142307220E+02  0.99999038800E+01 0.  0.
         12    1    1    2    0    0  0.53115150212E+01  0.12211506474E+02 -0.43032329193E+02  0.45045692780E+02  0.00000000000E+00 0. -1.
         11    1    3    3    0    0  0.13738867129E+01 -0.47665270057E+01  0.99579851840E+01  0.11125143306E+02  0.51100000000E-03 0. -1.
        -11    1    3    3    0    0  0.80929354865E+00 -0.20208848349E+01  0.79855981020E+01  0.82769987841E+01  0.51100000000E-03 0.  1.
         12    1    3    3    0    0 -0.74946952828E+01 -0.54240946337E+01  0.25088745907E+02  0.26740165130E+02  0.00000000000E+00 0. -1.
</event>
<event>
 7    1  0.3086024E-009  0.4614232E+02  0.7816164E-02  0.1320468E+00
        -11   -1    0    0    0    0  0.00000000000E+00  0.00000000000E+00  0.45593999997E+02  0.45594000000E+02  0.51100000000E-03 0. -1.
         11   -1    0    0    0    0 -0.00000000000E+00 -0.00000000000E+00 -0.45593999997E+02  0.45594000000E+02  0.51100000000E-03 0.  1.
    9900012    2    1    2    0    0  0.67983259594E+01  0.61826363836E+01 -0.44098427612E+02  0.46142317117E+02  0.99999941308E+01 0.  0.
         12    1    1    2    0    0 -0.67983259594E+01 -0.61826363836E+01  0.44098427612E+02  0.45045682883E+02  0.00000000000E+00 0. -1.
         11    1    3    3    0    0  0.41401465926E+01 -0.87008470827E+00 -0.19750578689E+02  0.20198594506E+02  0.51100000000E-03 0.  1.
        -11    1    3    3    0    0  0.13557940155E+01 -0.37924424756E+00 -0.35026425124E+01  0.37749845619E+01  0.51100000000E-03 0. -1.
         12    1    3    3    0    0  0.13023853514E+01  0.74319653395E+01 -0.20845206411E+02  0.22168738050E+02  0.00000000000E+00 0. -1.
</event>
<event>
 7    1  0.3086024E-009  0.4614232E+02  0.7816164E-02  0.1320468E+00
        -11   -1    0    0    0    0  0.00000000000E+00  0.00000000000E+00  0.45593999997E+02  0.45594000000E+02  0.51100000000E-03 0. -1.
         11   -1    0    0    0    0 -0.00000000000E+00 -0.00000000000E+00 -0.45593999997E+02  0.45594000000E+02  0.51100000000E-03 0.  1.
    9900012    2    1    2    0    0  0.44717203975E+02 -0.18261777033E+01  0.51137089110E+01  0.46142320128E+02  0.10000021580E+02 0.  0.
         12    1    1    2    0    0 -0.44717203975E+02  0.18261777033E+01 -0.51137089110E+01  0.45045679872E+02  0.00000000000E+00 0. -1.
         11    1    3    3    0    0  0.98747153886E+01 -0.21550050467E+00  0.44425191787E+01  0.10830162574E+02  0.51100000000E-03 0. -1.
        -11    1    3    3    0    0  0.16132795130E+02  0.17823063317E+01 -0.71625381999E+00  0.16246744731E+02  0.51100000000E-03 0.  1.
        -12    1    3    3    0    0  0.18709693456E+02 -0.33929835303E+01  0.13874435522E+01  0.19065412822E+02  0.00000000000E+00 0.  1.
</event>
<event>
 7    1  0.3086024E-009  0.4614232E+02  0.7816164E-02  0.1320468E+00
        -11   -1    0    0    0    0  0.00000000000E+00  0.00000000000E+00  0.45593999997E+02  0.45594000000E+02  0.51100000000E-03 0.  1.
         11   -1    0    0    0    0 -0.00000000000E+00 -0.00000000000E+00 -0.45593999997E+02  0.45594000000E+02  0.51100000000E-03 0. -1.
    9900012    2    1    2    0    0 -0.13429950256E+02  0.21905748817E+02  0.36998488156E+02  0.46142317399E+02  0.99999967011E+01 0.  0.
         12    1    1    2    0    0  0.13429950256E+02 -0.21905748817E+02 -0.36998488156E+02  0.45045682601E+02  0.00000000000E+00 0. -1.
         11    1    3    3    0    0 -0.90486743251E+00  0.83160499980E+01  0.85644075656E+01  0.11971823163E+02  0.51100000000E-03 0. -1.
        -11    1    3    3    0    0 -0.89212054108E+01  0.68400806061E+01  0.15596662293E+02  0.19225776542E+02  0.51100000000E-03 0.  1.
         12    1    3    3    0    0 -0.36038774129E+01  0.67496182129E+01  0.12837418297E+02  0.14944717695E+02  0.00000000000E+00 0. -1.
</event>
<event>
 7    1  0.3263678E-009  0.4614232E+02  0.7816164E-02  0.1320468E+00
        -11   -1    0    0    0    0  0.00000000000E+00  0.00000000000E+00  0.45593999997E+02  0.45594000000E+02  0.51100000000E-03 0. -1.
         11   -1    0    0    0    0 -0.00000000000E+00 -0.00000000000E+00 -0.45593999997E+02  0.45594000000E+02  0.51100000000E-03 0.  1.
    9900012    2    1    2    0    0  0.31431158448E+02  0.84554747088E+00 -0.32256484401E+02  0.46142318100E+02  0.10000003089E+02 0.  0.
         12    1    1    2    0    0 -0.31431158448E+02 -0.84554747088E+00  0.32256484401E+02  0.45045681900E+02  0.00000000000E+00 0. -1.
         11    1    3    3    0    0  0.21387717228E+01 -0.18108255225E+01 -0.18246155462E+01  0.33440478029E+01  0.51100000000E-03 0. -1.
        -11    1    3    3    0    0  0.11890616799E+02  0.25202286263E+01 -0.16569167460E+02  0.20549346237E+02  0.51100000000E-03 0.  1.
        -12    1    3    3    0    0  0.17401769926E+02  0.13614436707E+00 -0.13862701395E+02  0.22248924060E+02  0.00000000000E+00 0.  1.
</event>
<event>
 7    1  0.3086024E-009  0.4614232E+02  0.7816164E-02  0.1320468E+00
        -11   -1    0    0    0    0  0.00000000000E+00  0.00000000000E+00  0.45593999997E+02  0.45594000000E+02  0.51100000000E-03 0.  1.
         11   -1    0    0    0    0 -0.00000000000E+00 -0.00000000000E+00 -0.45593999997E+02  0.45594000000E+02  0.51100000000E-03 0. -1.
    9900012    2    1    2    0    0 -0.29461779408E+02  0.31790536738E+02  0.12266981949E+02  0.46142317431E+02  0.99999969906E+01 0.  0.
         12    1    1    2    0    0  0.29461779408E+02 -0.31790536738E+02 -0.12266981949E+02  0.45045682569E+02  0.00000000000E+00 0. -1.
         11    1    3    3    0    0 -0.10618960730E+02  0.72256512758E+01  0.15583416061E+01  0.12938345804E+02  0.51100000000E-03 0. -1.
        -11    1    3    3    0    0 -0.74575103913E+01  0.58992235251E+01  0.23335646644E+01  0.97908540863E+01  0.51100000000E-03 0.  1.
         12    1    3    3    0    0 -0.11385308287E+02  0.18665661937E+02  0.83750756785E+01  0.23413117540E+02  0.00000000000E+00 0. -1.
</event>
<event>
 7    1  0.3086024E-009  0.4614232E+02  0.7816164E-02  0.1320468E+00
        -11   -1    0    0    0    0  0.00000000000E+00  0.00000000000E+00  0.45593999997E+02  0.45594000000E+02  0.51100000000E-03 0. -1.
         11   -1    0    0    0    0 -0.00000000000E+00 -0.00000000000E+00 -0.45593999997E+02  0.45594000000E+02  0.51100000000E-03 0.  1.
    9900012    2    1    2    0    0 -0.26800088930E+02  0.34936988681E+02 -0.95013555159E+01  0.46142315397E+02  0.99999784406E+01 0.  0.
         12    1    1    2    0    0  0.26800088930E+02 -0.34936988681E+02  0.95013555159E+01  0.45045684603E+02  0.00000000000E+00 0. -1.
         11    1    3    3    0    0 -0.17472892023E+02  0.16207686890E+02 -0.46035780727E+01  0.24273112723E+02  0.51100000000E-03 0. -1.
        -11    1    3    3    0    0 -0.59937617461E+01  0.89440336294E+01 -0.40270359570E+01  0.11495126632E+02  0.51100000000E-03 0.  1.
         12    1    3    3    0    0 -0.33334351610E+01  0.97852681620E+01 -0.87074148611E+00  0.10374076041E+02  0.00000000000E+00 0. -1.
</event>
<event>
 7    1  0.3086024E-009  0.4614232E+02  0.7816164E-02  0.1320468E+00
        -11   -1    0    0    0    0  0.00000000000E+00  0.00000000000E+00  0.45593999997E+02  0.45594000000E+02  0.51100000000E-03 0.  1.
         11   -1    0    0    0    0 -0.00000000000E+00 -0.00000000000E+00 -0.45593999997E+02  0.45594000000E+02  0.51100000000E-03 0. -1.
    9900012    2    1    2    0    0  0.43557795040E+02 -0.10216480631E+02 -0.52398094548E+01  0.46142316652E+02  0.99999898836E+01 0.  0.
         12    1    1    2    0    0 -0.43557795040E+02  0.10216480631E+02  0.52398094548E+01  0.45045683348E+02  0.00000000000E+00 0. -1.
         11    1    3    3    0    0  0.32694575637E+02 -0.68711578686E+01 -0.36331208396E+01  0.33605768163E+02  0.51100000000E-03 0. -1.
        -11    1    3    3    0    0  0.55786532443E+01 -0.35655556163E+01  0.90319985761E+00  0.66820901758E+01  0.51100000000E-03 0.  1.
         12    1    3    3    0    0  0.52845661582E+01  0.22023285366E+00 -0.25098884728E+01  0.58544583128E+01  0.00000000000E+00 0. -1.
</event>
<event>
 7    1  0.3086024E-009  0.4614232E+02  0.7816164E-02  0.1320468E+00
        -11   -1    0    0    0    0  0.00000000000E+00  0.00000000000E+00  0.45593999997E+02  0.45594000000E+02  0.51100000000E-03 0.  1.
         11   -1    0    0    0    0 -0.00000000000E+00 -0.00000000000E+00 -0.45593999997E+02  0.45594000000E+02  0.51100000000E-03 0. -1.
    9900012    2    1    2    0    0 -0.14333455912E+02 -0.41101075190E+02  0.11591669292E+02  0.46142321660E+02  0.10000035554E+02 0.  0.
         12    1    1    2    0    0  0.14333455912E+02  0.41101075190E+02 -0.11591669292E+02  0.45045678340E+02  0.00000000000E+00 0. -1.
         11    1    3    3    0    0 -0.18758245362E+01 -0.29737071982E+01 -0.28318635473E+00  0.35273002372E+01  0.51100000000E-03 0. -1.
        -11    1    3    3    0    0 -0.84755251674E+01 -0.29315948607E+02  0.54333903462E+01  0.30996469162E+02  0.51100000000E-03 0.  1.
        -12    1    3    3    0    0 -0.39821062085E+01 -0.88114193848E+01  0.64414653002E+01  0.11618552261E+02  0.00000000000E+00 0.  1.
</event>
<event>
 7    1  0.3086024E-009  0.4614232E+02  0.7816164E-02  0.1320468E+00
        -11   -1    0    0    0    0  0.00000000000E+00  0.00000000000E+00  0.45593999997E+02  0.45594000000E+02  0.51100000000E-03 0. -1.
         11   -1    0    0    0    0 -0.00000000000E+00 -0.00000000000E+00 -0.45593999997E+02  0.45594000000E+02  0.51100000000E-03 0.  1.
    9900012    2    1    2    0    0  0.27012289080E+01  0.36232871862E+02 -0.26626975504E+02  0.46142318015E+02  0.10000002317E+02 0.  0.
         12    1    1    2    0    0 -0.27012289080E+01 -0.36232871862E+02  0.26626975504E+02  0.45045681985E+02  0.00000000000E+00 0. -1.
         11    1    3    3    0    0  0.23157271665E+01  0.12005435091E+02 -0.12767956389E+02  0.17678059132E+02  0.51100000000E-03 0.  1.
        -11    1    3    3    0    0 -0.82388910811E+00  0.11297636202E+02 -0.35108629894E+01  0.11859238433E+02  0.51100000000E-03 0. -1.
         12    1    3    3    0    0  0.12093908495E+01  0.12929800568E+02 -0.10348156125E+02  0.16605020450E+02  0.00000000000E+00 0. -1.
</event>
<event>
 7    1  0.3086024E-009  0.4614232E+02  0.7816164E-02  0.1320468E+00
        -11   -1    0    0    0    0  0.00000000000E+00  0.00000000000E+00  0.45593999997E+02  0.45594000000E+02  0.51100000000E-03 0.  1.
         11   -1    0    0    0    0 -0.00000000000E+00 -0.00000000000E+00 -0.45593999997E+02  0.45594000000E+02  0.51100000000E-03 0. -1.
    9900012    2    1    2    0    0 -0.38739482429E+02 -0.22915059962E+02  0.18072140399E+01  0.46142317693E+02  0.99999993754E+01 0.  0.
         12    1    1    2    0    0  0.38739482429E+02  0.22915059962E+02 -0.18072140399E+01  0.45045682307E+02  0.00000000000E+00 0. -1.
         11    1    3    3    0    0 -0.23335999786E+02 -0.13649179778E+02 -0.20746073821E+01  0.27114073664E+02  0.51100000000E-03 0. -1.
        -11    1    3    3    0    0 -0.82259648911E+01 -0.21146470951E+01  0.19311987747E+01  0.87102100833E+01  0.51100000000E-03 0.  1.
         12    1    3    3    0    0 -0.71775177520E+01 -0.71512330894E+01  0.19506226474E+01  0.10318033945E+02  0.00000000000E+00 0. -1.
</event>
<event>
 7    1  0.3086024E-009  0.4614232E+02  0.7816164E-02  0.1320468E+00
        -11   -1    0    0    0    0  0.00000000000E+00  0.00000000000E+00  0.45593999997E+02  0.45594000000E+02  0.51100000000E-03 0.  1.
         11   -1    0    0    0    0 -0.00000000000E+00 -0.00000000000E+00 -0.45593999997E+02  0.45594000000E+02  0.51100000000E-03 0. -1.
    9900012    2    1    2    0    0 -0.14569648954E+02 -0.19024214458E+01  0.42581918090E+02  0.46142316231E+02  0.99999860480E+01 0.  0.
         12    1    1    2    0    0  0.14569648954E+02  0.19024214458E+01 -0.42581918090E+02  0.45045683769E+02  0.00000000000E+00 0. -1.
         11    1    3    3    0    0 -0.69250871441E+01 -0.43429827106E+01  0.22065114343E+02  0.23530567397E+02  0.51100000000E-03 0. -1.
        -11    1    3    3    0    0 -0.55326975747E+01  0.10249283445E+01  0.18586512250E+02  0.19419568956E+02  0.51100000000E-03 0.  1.
         12    1    3    3    0    0 -0.21118642352E+01  0.14156329203E+01  0.19302914972E+01  0.31921798786E+01  0.00000000000E+00 0. -1.
</event>
<event>
 7    1  0.3086024E-009  0.4614232E+02  0.7816164E-02  0.1320468E+00
        -11   -1    0    0    0    0  0.00000000000E+00  0.00000000000E+00  0.45593999997E+02  0.45594000000E+02  0.51100000000E-03 0.  1.
         11   -1    0    0    0    0 -0.00000000000E+00 -0.00000000000E+00 -0.45593999997E+02  0.45594000000E+02  0.51100000000E-03 0. -1.
    9900012    2    1    2    0    0  0.21746729372E+02 -0.67116803242E+01  0.38873471864E+02  0.46142315346E+02  0.99999779809E+01 0.  0.
         12    1    1    2    0    0 -0.21746729372E+02  0.67116803242E+01 -0.38873471864E+02  0.45045684654E+02  0.00000000000E+00 0. -1.
         11    1    3    3    0    0  0.49970500053E+01 -0.64144152353E-01  0.68792056990E+01  0.85028286198E+01  0.51100000000E-03 0. -1.
        -11    1    3    3    0    0  0.95534138935E+01 -0.69407842588E+01  0.24757842876E+02  0.27429782851E+02  0.51100000000E-03 0.  1.
         12    1    3    3    0    0  0.71962654732E+01  0.29324808698E+00  0.72364232893E+01  0.10209703875E+02  0.00000000000E+00 0. -1.
</event>
<event>
 7    1  0.3086024E-009  0.4614232E+02  0.7816164E-02  0.1320468E+00
        -11   -1    0    0    0    0  0.00000000000E+00  0.00000000000E+00  0.45593999997E+02  0.45594000000E+02  0.51100000000E-03 0.  1.
         11   -1    0    0    0    0 -0.00000000000E+00 -0.00000000000E+00 -0.45593999997E+02  0.45594000000E+02  0.51100000000E-03 0. -1.
    9900012    2    1    2    0    0 -0.30293239833E+02  0.29190940501E+02  0.16103484038E+02  0.46142316687E+02  0.99999902079E+01 0.  0.
         12    1    1    2    0    0  0.30293239833E+02 -0.29190940501E+02 -0.16103484038E+02  0.45045683313E+02  0.00000000000E+00 0. -1.
         11    1    3    3    0    0 -0.20744800629E+00 -0.47660908470E+00  0.93289618158E+00  0.10679355981E+01  0.51100000000E-03 0. -1.
        -11    1    3    3    0    0 -0.23540619328E+02  0.22549911383E+02  0.13394682674E+02  0.35243109766E+02  0.51100000000E-03 0.  1.
         12    1    3    3    0    0 -0.65451724984E+01  0.71176382028E+01  0.17759051830E+01  0.98312713236E+01  0.00000000000E+00 0. -1.
</event>
<event>
 7    1  0.3086024E-009  0.4614232E+02  0.7816164E-02  0.1320468E+00
        -11   -1    0    0    0    0  0.00000000000E+00  0.00000000000E+00  0.45593999997E+02  0.45594000000E+02  0.51100000000E-03 0. -1.
         11   -1    0    0    0    0 -0.00000000000E+00 -0.00000000000E+00 -0.45593999997E+02  0.45594000000E+02  0.51100000000E-03 0.  1.
    9900012    2    1    2    0    0 -0.29511913762E+02 -0.10741077864E+02 -0.32292254648E+02  0.46142317435E+02  0.99999970217E+01 0.  0.
         12    1    1    2    0    0  0.29511913762E+02  0.10741077864E+02  0.32292254648E+02  0.45045682565E+02  0.00000000000E+00 0. -1.
         11    1    3    3    0    0 -0.29255662438E+01 -0.28561747102E+01 -0.83039029962E+01  0.92558887770E+01  0.51100000000E-03 0. -1.
        -11    1    3    3    0    0 -0.10716817227E+02 -0.17666488796E+01 -0.75099622258E+01  0.13204951823E+02  0.51100000000E-03 0.  1.
        -12    1    3    3    0    0 -0.15869530291E+02 -0.61182542745E+01 -0.16478389426E+02  0.23681476835E+02  0.00000000000E+00 0.  1.
</event>
<event>
 7    1  0.3086024E-009  0.4614232E+02  0.7816164E-02  0.1320468E+00
        -11   -1    0    0    0    0  0.00000000000E+00  0.00000000000E+00  0.45593999997E+02  0.45594000000E+02  0.51100000000E-03 0.  1.
         11   -1    0    0    0    0 -0.00000000000E+00 -0.00000000000E+00 -0.45593999997E+02  0.45594000000E+02  0.51100000000E-03 0. -1.
    9900012    2    1    2    0    0 -0.34879635017E+02  0.17107022734E+02  0.22800750051E+02  0.46142319090E+02  0.10000012117E+02 0.  0.
         12    1    1    2    0    0  0.34879635017E+02 -0.17107022734E+02 -0.22800750051E+02  0.45045680910E+02  0.00000000000E+00 0. -1.
         11    1    3    3    0    0 -0.11376035699E+02  0.78632838812E+01  0.61301405622E+01  0.15126931123E+02  0.51100000000E-03 0. -1.
        -11    1    3    3    0    0 -0.18978886298E+02  0.51130586413E+01  0.10354982054E+02  0.22216371157E+02  0.51100000000E-03 0.  1.
        -12    1    3    3    0    0 -0.45247130197E+01  0.41306802119E+01  0.63156274352E+01  0.87990168101E+01  0.00000000000E+00 0.  1.
</event>
<event>
 7    1  0.3086024E-009  0.4614232E+02  0.7816164E-02  0.1320468E+00
        -11   -1    0    0    0    0  0.00000000000E+00  0.00000000000E+00  0.45593999997E+02  0.45594000000E+02  0.51100000000E-03 0. -1.
         11   -1    0    0    0    0 -0.00000000000E+00 -0.00000000000E+00 -0.45593999997E+02  0.45594000000E+02  0.51100000000E-03 0.  1.
    9900012    2    1    2    0    0 -0.47170341879E+01 -0.31583981603E+02 -0.31769721047E+02  0.46142317845E+02  0.10000000763E+02 0.  0.
         12    1    1    2    0    0  0.47170341879E+01  0.31583981603E+02  0.31769721047E+02  0.45045682155E+02  0.00000000000E+00 0. -1.
         11    1    3    3    0    0 -0.18122670798E+01 -0.81077182027E+01 -0.11233466028E+02  0.13971763156E+02  0.51100000000E-03 0. -1.
        -11    1    3    3    0    0  0.93602296412E+00 -0.47952849413E+01 -0.79125444514E+01  0.92994223807E+01  0.51100000000E-03 0.  1.
        -12    1    3    3    0    0 -0.38407900723E+01 -0.18680978459E+02 -0.12623710568E+02  0.22871132308E+02  0.00000000000E+00 0.  1.
</event>
<event>
 7    1  0.3086024E-009  0.4614232E+02  0.7816164E-02  0.1320468E+00
        -11   -1    0    0    0    0  0.00000000000E+00  0.00000000000E+00  0.45593999997E+02  0.45594000000E+02  0.51100000000E-03 0. -1.
         11   -1    0    0    0    0 -0.00000000000E+00 -0.00000000000E+00 -0.45593999997E+02  0.45594000000E+02  0.51100000000E-03 0.  1.
    9900012    2    1    2    0    0 -0.19700394730E+02  0.34502863552E+02 -0.21226405656E+02  0.46142318266E+02  0.10000004604E+02 0.  0.
         12    1    1    2    0    0  0.19700394730E+02 -0.34502863552E+02  0.21226405656E+02  0.45045681734E+02  0.00000000000E+00 0. -1.
         11    1    3    3    0    0 -0.43920315409E+01  0.14699384155E+02 -0.69030917809E+01  0.16823035160E+02  0.51100000000E-03 0. -1.
        -11    1    3    3    0    0 -0.12149864102E+01  0.38654662073E+00 -0.19348392258E+01  0.23171563084E+01  0.51100000000E-03 0.  1.
        -12    1    3    3    0    0 -0.14093376779E+02  0.19416932777E+02 -0.12388474649E+02  0.27002126798E+02  0.00000000000E+00 0.  1.
</event>
<event>
 7    1  0.3086024E-009  0.4614232E+02  0.7816164E-02  0.1320468E+00
        -11   -1    0    0    0    0  0.00000000000E+00  0.00000000000E+00  0.45593999997E+02  0.45594000000E+02  0.51100000000E-03 0. -1.
         11   -1    0    0    0    0 -0.00000000000E+00 -0.00000000000E+00 -0.45593999997E+02  0.45594000000E+02  0.51100000000E-03 0.  1.
    9900012    2    1    2    0    0 -0.32301825326E+02 -0.22137669336E+02 -0.22262731934E+02  0.46142317008E+02  0.99999931318E+01 0.  0.
         12    1    1    2    0    0  0.32301825326E+02  0.22137669336E+02  0.22262731934E+02  0.45045682992E+02  0.00000000000E+00 0. -1.
         11    1    3    3    0    0 -0.14117605235E+02 -0.46274554984E+01 -0.64995112629E+01  0.16216157649E+02  0.51100000000E-03 0. -1.
        -11    1    3    3    0    0 -0.97859803157E+01 -0.83971459980E+01 -0.64111381590E+01  0.14400700136E+02  0.51100000000E-03 0.  1.
         12    1    3    3    0    0 -0.83982397752E+01 -0.91130678398E+01 -0.93520825122E+01  0.15525459223E+02  0.00000000000E+00 0. -1.
</event>
<event>
 7    1  0.3086024E-009  0.4614232E+02  0.7816164E-02  0.1320468E+00
        -11   -1    0    0    0    0  0.00000000000E+00  0.00000000000E+00  0.45593999997E+02  0.45594000000E+02  0.51100000000E-03 0. -1.
         11   -1    0    0    0    0 -0.00000000000E+00 -0.00000000000E+00 -0.45593999997E+02  0.45594000000E+02  0.51100000000E-03 0.  1.
    9900012    2    1    2    0    0  0.15184187984E+02 -0.42370053200E+02  0.18254981185E+01  0.46142318561E+02  0.10000007292E+02 0.  0.
         12    1    1    2    0    0 -0.15184187984E+02  0.42370053200E+02 -0.18254981185E+01  0.45045681439E+02  0.00000000000E+00 0. -1.
         11    1    3    3    0    0  0.28772438814E+01 -0.20875965704E+01  0.22915506124E+00  0.35621768761E+01  0.51100000000E-03 0. -1.
        -11    1    3    3    0    0  0.71439622904E+01 -0.13580857748E+02  0.99203122745E+00  0.15377256601E+02  0.51100000000E-03 0.  1.
        -12    1    3    3    0    0  0.51629818126E+01 -0.26701598882E+02  0.60431182976E+00  0.27202885083E+02  0.00000000000E+00 0.  1.
</event>
<event>
 7    1  0.3086024E-009  0.4614232E+02  0.7816164E-02  0.1320468E+00
        -11   -1    0    0    0    0  0.00000000000E+00  0.00000000000E+00  0.45593999997E+02  0.45594000000E+02  0.51100000000E-03 0.  1.
         11   -1    0    0    0    0 -0.00000000000E+00 -0.00000000000E+00 -0.45593999997E+02  0.45594000000E+02  0.51100000000E-03 0. -1.
    9900012    2    1    2    0    0  0.17608526082E+02 -0.41451554624E+02 -0.90653805863E+00  0.46142318933E+02  0.10000010688E+02 0.  0.
         12    1    1    2    0    0 -0.17608526082E+02  0.41451554624E+02  0.90653805863E+00  0.45045681067E+02  0.00000000000E+00 0. -1.
         11    1    3    3    0    0  0.46529901818E+01 -0.14384848142E+02 -0.39662346601E+01  0.15630265236E+02  0.51100000000E-03 0.  1.
        -11    1    3    3    0    0  0.73734110340E+01 -0.14650592937E+02 -0.61035879463E+00  0.16412787752E+02  0.51100000000E-03 0. -1.
         12    1    3    3    0    0  0.55821248667E+01 -0.12416113545E+02  0.36700553961E+01  0.14099265945E+02  0.00000000000E+00 0. -1.
</event>
<event>
 7    1  0.3086024E-009  0.4614232E+02  0.7816164E-02  0.1320468E+00
        -11   -1    0    0    0    0  0.00000000000E+00  0.00000000000E+00  0.45593999997E+02  0.45594000000E+02  0.51100000000E-03 0. -1.
         11   -1    0    0    0    0 -0.00000000000E+00 -0.00000000000E+00 -0.45593999997E+02  0.45594000000E+02  0.51100000000E-03 0.  1.
    9900012    2    1    2    0    0  0.19142072171E+02  0.40655009814E+02  0.31408207672E+01  0.46142317576E+02  0.99999983134E+01 0.  0.
         12    1    1    2    0    0 -0.19142072171E+02 -0.40655009814E+02 -0.31408207672E+01  0.45045682424E+02  0.00000000000E+00 0. -1.
         11    1    3    3    0    0  0.40750529542E+01  0.58546365631E+01  0.28474270747E+01  0.76805382020E+01  0.51100000000E-03 0. -1.
        -11    1    3    3    0    0 -0.19556352117E+00  0.21387581254E+00 -0.57882696133E+00  0.64732439031E+00  0.51100000000E-03 0.  1.
        -12    1    3    3    0    0  0.15262582738E+02  0.34586497438E+02  0.87222065381E+00  0.37814454984E+02  0.00000000000E+00 0.  1.
</event>
<event>
 7    1  0.3086024E-009  0.4614232E+02  0.7816164E-02  0.1320468E+00
        -11   -1    0    0    0    0  0.00000000000E+00  0.00000000000E+00  0.45593999997E+02  0.45594000000E+02  0.51100000000E-03 0. -1.
         11   -1    0    0    0    0 -0.00000000000E+00 -0.00000000000E+00 -0.45593999997E+02  0.45594000000E+02  0.51100000000E-03 0.  1.
    9900012    2    1    2    0    0 -0.33866635435E+02 -0.29259181561E+02 -0.51053726118E+01  0.46142317290E+02  0.99999957004E+01 0.  0.
         12    1    1    2    0    0  0.33866635435E+02  0.29259181561E+02  0.51053726118E+01  0.45045682710E+02  0.00000000000E+00 0. -1.
         11    1    3    3    0    0 -0.26548584869E+02 -0.21756997794E+02 -0.42905900172E+01  0.34591956789E+02  0.51100000000E-03 0.  1.
        -11    1    3    3    0    0 -0.71319237559E+01 -0.61570829608E+01  0.78183876624E+00  0.94543788354E+01  0.51100000000E-03 0. -1.
         12    1    3    3    0    0 -0.18612681012E+00 -0.13451008066E+01 -0.15966213608E+01  0.20959816648E+01  0.00000000000E+00 0. -1.
</event>
<event>
 7    1  0.3086024E-009  0.4614232E+02  0.7816164E-02  0.1320468E+00
        -11   -1    0    0    0    0  0.00000000000E+00  0.00000000000E+00  0.45593999997E+02  0.45594000000E+02  0.51100000000E-03 0.  1.
         11   -1    0    0    0    0 -0.00000000000E+00 -0.00000000000E+00 -0.45593999997E+02  0.45594000000E+02  0.51100000000E-03 0. -1.
    9900012    2    1    2    0    0  0.12457051809E+02 -0.31473689811E+02  0.29721073560E+02  0.46142317591E+02  0.99999984526E+01 0.  0.
         12    1    1    2    0    0 -0.12457051809E+02  0.31473689811E+02 -0.29721073560E+02  0.45045682409E+02  0.00000000000E+00 0. -1.
         11    1    3    3    0    0  0.12269009149E+01 -0.68115628590E+01  0.32480342291E+01  0.76454169966E+01  0.51100000000E-03 0. -1.
        -11    1    3    3    0    0  0.32815463425E+01 -0.50466479547E+01  0.10020191970E+02  0.11689373352E+02  0.51100000000E-03 0.  1.
         12    1    3    3    0    0  0.79486045513E+01 -0.19615478997E+02  0.16452847361E+02  0.26807527243E+02  0.00000000000E+00 0. -1.
</event>
<event>
 7    1  0.3086024E-009  0.4614232E+02  0.7816164E-02  0.1320468E+00
        -11   -1    0    0    0    0  0.00000000000E+00  0.00000000000E+00  0.45593999997E+02  0.45594000000E+02  0.51100000000E-03 0.  1.
         11   -1    0    0    0    0 -0.00000000000E+00 -0.00000000000E+00 -0.45593999997E+02  0.45594000000E+02  0.51100000000E-03 0. -1.
    9900012    2    1    2    0    0 -0.40562730275E+02  0.17027789857E+02  0.96867384145E+01  0.46142316346E+02  0.99999870951E+01 0.  0.
         12    1    1    2    0    0  0.40562730275E+02 -0.17027789857E+02 -0.96867384145E+01  0.45045683654E+02  0.00000000000E+00 0. -1.
         11    1    3    3    0    0 -0.15555347227E+01  0.11641949335E+01  0.88011445039E+00  0.21329884725E+01  0.51100000000E-03 0. -1.
        -11    1    3    3    0    0 -0.30731362165E+02  0.15286839804E+02  0.43671374844E+01  0.34600230950E+02  0.51100000000E-03 0.  1.
        -12    1    3    3    0    0 -0.82758333868E+01  0.57675511973E+00  0.44394864797E+01  0.94090969236E+01  0.00000000000E+00 0.  1.
</event>
<event>
 7    1  0.3086024E-009  0.4614232E+02  0.7816164E-02  0.1320468E+00
        -11   -1    0    0    0    0  0.00000000000E+00  0.00000000000E+00  0.45593999997E+02  0.45594000000E+02  0.51100000000E-03 0.  1.
         11   -1    0    0    0    0 -0.00000000000E+00 -0.00000000000E+00 -0.45593999997E+02  0.45594000000E+02  0.51100000000E-03 0. -1.
    9900012    2    1    2    0    0 -0.79889063551E+00  0.18557593103E+01  0.45000351102E+02  0.46142315765E+02  0.99999818003E+01 0.  0.
         12    1    1    2    0    0  0.79889063551E+00 -0.18557593103E+01 -0.45000351102E+02  0.45045684235E+02  0.00000000000E+00 0. -1.
         11    1    3    3    0    0  0.36287182020E+01  0.21638493965E+01  0.15256162400E+02  0.15830361065E+02  0.51100000000E-03 0. -1.
        -11    1    3    3    0    0 -0.28287235205E+01 -0.17112421903E+01  0.23103932053E+02  0.23339273835E+02  0.51100000000E-03 0.  1.
         12    1    3    3    0    0 -0.15988853170E+01  0.14031521041E+01  0.66402566486E+01  0.69726808648E+01  0.00000000000E+00 0. -1.
</event>
<event>
 7    1  0.3086024E-009  0.4614232E+02  0.7816164E-02  0.1320468E+00
        -11   -1    0    0    0    0  0.00000000000E+00  0.00000000000E+00  0.45593999997E+02  0.45594000000E+02  0.51100000000E-03 0.  1.
         11   -1    0    0    0    0 -0.00000000000E+00 -0.00000000000E+00 -0.45593999997E+02  0.45594000000E+02  0.51100000000E-03 0. -1.
    9900012    2    1    2    0    0  0.20937849025E+01 -0.43814472564E+02  0.10248001045E+02  0.46142318002E+02  0.10000002196E+02 0.  0.
         12    1    1    2    0    0 -0.20937849025E+01  0.43814472564E+02 -0.10248001045E+02  0.45045681998E+02  0.00000000000E+00 0. -1.
         11    1    3    3    0    0  0.23799109337E+00 -0.11273161706E+02  0.62417828321E+01  0.12888004803E+02  0.51100000000E-03 0. -1.
        -11    1    3    3    0    0  0.30887472187E+01 -0.17223973565E+02  0.36933338898E+01  0.17884248384E+02  0.51100000000E-03 0.  1.
         12    1    3    3    0    0 -0.12329534096E+01 -0.15317337292E+02  0.31288432271E+00  0.15370064816E+02  0.00000000000E+00 0. -1.
</event>
<event>
 7    1  0.3086024E-009  0.4614232E+02  0.7816164E-02  0.1320468E+00
        -11   -1    0    0    0    0  0.00000000000E+00  0.00000000000E+00  0.45593999997E+02  0.45594000000E+02  0.51100000000E-03 0.  1.
         11   -1    0    0    0    0 -0.00000000000E+00 -0.00000000000E+00 -0.45593999997E+02  0.45594000000E+02  0.51100000000E-03 0. -1.
    9900012    2    1    2    0    0 -0.42477873169E+02 -0.13162976689E+02  0.71749369283E+01  0.46142318917E+02  0.10000010544E+02 0.  0.
         12    1    1    2    0    0  0.42477873169E+02  0.13162976689E+02 -0.71749369283E+01  0.45045681083E+02  0.00000000000E+00 0. -1.
         11    1    3    3    0    0 -0.22063030928E+02 -0.45351080687E+01  0.61114399412E+01  0.23338685425E+02  0.51100000000E-03 0. -1.
        -11    1    3    3    0    0 -0.57108934529E+01 -0.50103047436E+01 -0.27496065433E+00  0.76021747728E+01  0.51100000000E-03 0.  1.
        -12    1    3    3    0    0 -0.14703948788E+02 -0.36175638766E+01  0.13384576414E+01  0.15201458720E+02  0.00000000000E+00 0.  1.
</event>
<event>
 7    1  0.3086024E-009  0.4614232E+02  0.7816164E-02  0.1320468E+00
        -11   -1    0    0    0    0  0.00000000000E+00  0.00000000000E+00  0.45593999997E+02  0.45594000000E+02  0.51100000000E-03 0.  1.
         11   -1    0    0    0    0 -0.00000000000E+00 -0.00000000000E+00 -0.45593999997E+02  0.45594000000E+02  0.51100000000E-03 0. -1.
    9900012    2    1    2    0    0 -0.33970741485E+02  0.13569632433E+02  0.26286256018E+02  0.46142318111E+02  0.10000003191E+02 0.  0.
         12    1    1    2    0    0  0.33970741485E+02 -0.13569632433E+02 -0.26286256018E+02  0.45045681889E+02  0.00000000000E+00 0. -1.
         11    1    3    3    0    0 -0.74678413329E+01  0.24927112148E+01  0.10700642830E+02  0.13284804124E+02  0.51100000000E-03 0. -1.
        -11    1    3    3    0    0 -0.10303774304E+02  0.55676698111E+01  0.77090715087E+01  0.14021287239E+02  0.51100000000E-03 0.  1.
         12    1    3    3    0    0 -0.16199125848E+02  0.55092514073E+01  0.78765416792E+01  0.18836226749E+02  0.00000000000E+00 0. -1.
</event>
<event>
 7    1  0.3086024E-009  0.4614232E+02  0.7816164E-02  0.1320468E+00
        -11   -1    0    0    0    0  0.00000000000E+00  0.00000000000E+00  0.45593999997E+02  0.45594000000E+02  0.51100000000E-03 0.  1.
         11   -1    0    0    0    0 -0.00000000000E+00 -0.00000000000E+00 -0.45593999997E+02  0.45594000000E+02  0.51100000000E-03 0. -1.
    9900012    2    1    2    0    0 -0.41169109261E+02 -0.14439647652E+02 -0.11212241500E+02  0.46142319396E+02  0.10000014908E+02 0.  0.
         12    1    1    2    0    0  0.41169109261E+02  0.14439647652E+02  0.11212241500E+02  0.45045680604E+02  0.00000000000E+00 0. -1.
         11    1    3    3    0    0 -0.56683408832E+01 -0.80188814747E+00  0.50943527633E+00  0.57474026770E+01  0.51100000000E-03 0. -1.
        -11    1    3    3    0    0 -0.40130085589E+01 -0.36011752000E+01 -0.20049960178E+00  0.53956372067E+01  0.51100000000E-03 0.  1.
         12    1    3    3    0    0 -0.31487759819E+02 -0.10036584305E+02 -0.11521177174E+02  0.34999279512E+02  0.00000000000E+00 0. -1.
</event>
<event>
 7    1  0.3086024E-009  0.4614232E+02  0.7816164E-02  0.1320468E+00
        -11   -1    0    0    0    0  0.00000000000E+00  0.00000000000E+00  0.45593999997E+02  0.45594000000E+02  0.51100000000E-03 0. -1.
         11   -1    0    0    0    0 -0.00000000000E+00 -0.00000000000E+00 -0.45593999997E+02  0.45594000000E+02  0.51100000000E-03 0.  1.
    9900012    2    1    2    0    0 -0.13057514238E+02 -0.25162503377E+02  0.35006615542E+02  0.46142318898E+02  0.10000010365E+02 0.  0.
         12    1    1    2    0    0  0.13057514238E+02  0.25162503377E+02 -0.35006615542E+02  0.45045681102E+02  0.00000000000E+00 0. -1.
         11    1    3    3    0    0 -0.20128640506E+01 -0.60664853222E+01  0.56411130734E+01  0.85250233325E+01  0.51100000000E-03 0.  1.
        -11    1    3    3    0    0 -0.27957548156E+01 -0.11926307677E+00  0.30162936274E+01  0.41144253765E+01  0.51100000000E-03 0. -1.
        -12    1    3    3    0    0 -0.82488953714E+01 -0.18976754978E+02  0.26349208841E+02  0.33502870189E+02  0.00000000000E+00 0.  1.
</event>
<event>
 7    1  0.3086024E-009  0.4614232E+02  0.7816164E-02  0.1320468E+00
        -11   -1    0    0    0    0  0.00000000000E+00  0.00000000000E+00  0.45593999997E+02  0.45594000000E+02  0.51100000000E-03 0. -1.
         11   -1    0    0    0    0 -0.00000000000E+00 -0.00000000000E+00 -0.45593999997E+02  0.45594000000E+02  0.51100000000E-03 0.  1.
    9900012    2    1    2    0    0 -0.96352603498E+01 -0.39870241726E+02  0.18618248029E+02  0.46142316778E+02  0.99999910328E+01 0.  0.
         12    1    1    2    0    0  0.96352603498E+01  0.39870241726E+02 -0.18618248029E+02  0.45045683222E+02  0.00000000000E+00 0. -1.
         11    1    3    3    0    0 -0.87404090094E+01 -0.18317697718E+02  0.10587886151E+02  0.22891835504E+02  0.51100000000E-03 0. -1.
        -11    1    3    3    0    0 -0.18923169484E+01 -0.89845926010E+01  0.27788894411E+01  0.95930180040E+01  0.51100000000E-03 0.  1.
         12    1    3    3    0    0  0.99746560793E+00 -0.12567951407E+02  0.52514724368E+01  0.13657463270E+02  0.00000000000E+00 0. -1.
</event>
<event>
 7    1  0.3086024E-009  0.4614232E+02  0.7816164E-02  0.1320468E+00
        -11   -1    0    0    0    0  0.00000000000E+00  0.00000000000E+00  0.45593999997E+02  0.45594000000E+02  0.51100000000E-03 0.  1.
         11   -1    0    0    0    0 -0.00000000000E+00 -0.00000000000E+00 -0.45593999997E+02  0.45594000000E+02  0.51100000000E-03 0. -1.
    9900012    2    1    2    0    0  0.36306003231E+02  0.94585615324E+01  0.24930367827E+02  0.46142317667E+02  0.99999991389E+01 0.  0.
         12    1    1    2    0    0 -0.36306003231E+02 -0.94585615324E+01 -0.24930367827E+02  0.45045682333E+02  0.00000000000E+00 0. -1.
         11    1    3    3    0    0  0.11834715956E+02  0.24965404464E+00  0.99981018381E+01  0.15494672295E+02  0.51100000000E-03 0. -1.
        -11    1    3    3    0    0  0.96570213788E+01  0.20848669448E+01  0.83684362545E+01  0.12947411235E+02  0.51100000000E-03 0.  1.
         12    1    3    3    0    0  0.14814265896E+02  0.71240405430E+01  0.65638297346E+01  0.17700234136E+02  0.00000000000E+00 0. -1.
</event>
<event>
 7    1  0.3086024E-009  0.4614232E+02  0.7816164E-02  0.1320468E+00
        -11   -1    0    0    0    0  0.00000000000E+00  0.00000000000E+00  0.45593999997E+02  0.45594000000E+02  0.51100000000E-03 0.  1.
         11   -1    0    0    0    0 -0.00000000000E+00 -0.00000000000E+00 -0.45593999997E+02  0.45594000000E+02  0.51100000000E-03 0. -1.
    9900012    2    1    2    0    0 -0.32226182259E+02  0.67070262789E+01  0.30750650088E+02  0.46142317573E+02  0.99999982834E+01 0.  0.
         12    1    1    2    0    0  0.32226182259E+02 -0.67070262789E+01 -0.30750650088E+02  0.45045682427E+02  0.00000000000E+00 0. -1.
         11    1    3    3    0    0 -0.32531711146E+01 -0.16195892198E+01  0.16764800830E+01  0.40020966095E+01  0.51100000000E-03 0. -1.
        -11    1    3    3    0    0 -0.51663203845E+01  0.27045174930E+01  0.76790601349E+01  0.96422635310E+01  0.51100000000E-03 0.  1.
         12    1    3    3    0    0 -0.23806690760E+02  0.56220980056E+01  0.21395109870E+02  0.32497957432E+02  0.00000000000E+00 0. -1.
</event>
<event>
 7    1  0.3086024E-009  0.4614232E+02  0.7816164E-02  0.1320468E+00
        -11   -1    0    0    0    0  0.00000000000E+00  0.00000000000E+00  0.45593999997E+02  0.45594000000E+02  0.51100000000E-03 0. -1.
         11   -1    0    0    0    0 -0.00000000000E+00 -0.00000000000E+00 -0.45593999997E+02  0.45594000000E+02  0.51100000000E-03 0.  1.
    9900012    2    1    2    0    0  0.18740549336E+02 -0.22824571892E+02 -0.34013882718E+02  0.46142317754E+02  0.99999999326E+01 0.  0.
         12    1    1    2    0    0 -0.18740549336E+02  0.22824571892E+02  0.34013882718E+02  0.45045682246E+02  0.00000000000E+00 0. -1.
         11    1    3    3    0    0  0.33377862449E+01 -0.82809893846E+01 -0.54897193284E+01  0.10481060098E+02  0.51100000000E-03 0. -1.
        -11    1    3    3    0    0  0.63613535099E+01 -0.65912775845E+01 -0.99398188440E+01  0.13517091314E+02  0.51100000000E-03 0.  1.
         12    1    3    3    0    0  0.90414095816E+01 -0.79523049233E+01 -0.18584344545E+02  0.22144166342E+02  0.00000000000E+00 0. -1.
</event>
<event>
 7    1  0.3086024E-009  0.4614232E+02  0.7816164E-02  0.1320468E+00
        -11   -1    0    0    0    0  0.00000000000E+00  0.00000000000E+00  0.45593999997E+02  0.45594000000E+02  0.51100000000E-03 0. -1.
         11   -1    0    0    0    0 -0.00000000000E+00 -0.00000000000E+00 -0.45593999997E+02  0.45594000000E+02  0.51100000000E-03 0.  1.
    9900012    2    1    2    0    0  0.22433767511E+02  0.25177023126E+02 -0.29865649503E+02  0.46142318315E+02  0.10000005050E+02 0.  0.
         12    1    1    2    0    0 -0.22433767511E+02 -0.25177023126E+02  0.29865649503E+02  0.45045681685E+02  0.00000000000E+00 0. -1.
         11    1    3    3    0    0  0.49705657626E+01  0.37227159130E+01 -0.28059878427E+01  0.68145950579E+01  0.51100000000E-03 0. -1.
        -11    1    3    3    0    0  0.15521513040E+02  0.19246176228E+02 -0.26659577295E+02  0.36360221785E+02  0.51100000000E-03 0.  1.
        -12    1    3    3    0    0  0.19416887081E+01  0.22081309851E+01 -0.40008436573E+00  0.29675014720E+01  0.00000000000E+00 0.  1.
</event>
<event>
 7    1  0.3086024E-009  0.4614232E+02  0.7816164E-02  0.1320468E+00
        -11   -1    0    0    0    0  0.00000000000E+00  0.00000000000E+00  0.45593999997E+02  0.45594000000E+02  0.51100000000E-03 0.  1.
         11   -1    0    0    0    0 -0.00000000000E+00 -0.00000000000E+00 -0.45593999997E+02  0.45594000000E+02  0.51100000000E-03 0. -1.
    9900012    2    1    2    0    0 -0.21074549523E+02  0.16118468672E+02  0.36402909518E+02  0.46142317729E+02  0.99999997050E+01 0.  0.
         12    1    1    2    0    0  0.21074549523E+02 -0.16118468672E+02 -0.36402909518E+02  0.45045682271E+02  0.00000000000E+00 0. -1.
         11    1    3    3    0    0 -0.82784934042E+01  0.17785873178E+01  0.13059150255E+02  0.15564004354E+02  0.51100000000E-03 0. -1.
        -11    1    3    3    0    0 -0.54215194839E+01  0.84641556865E+01  0.14554230767E+02  0.17687861332E+02  0.51100000000E-03 0.  1.
        -12    1    3    3    0    0 -0.73745366353E+01  0.58757256675E+01  0.87895284956E+01  0.12890452043E+02  0.00000000000E+00 0.  1.
</event>
<event>
 7    1  0.3086024E-009  0.4614232E+02  0.7816164E-02  0.1320468E+00
        -11   -1    0    0    0    0  0.00000000000E+00  0.00000000000E+00  0.45593999997E+02  0.45594000000E+02  0.51100000000E-03 0. -1.
         11   -1    0    0    0    0 -0.00000000000E+00 -0.00000000000E+00 -0.45593999997E+02  0.45594000000E+02  0.51100000000E-03 0.  1.
    9900012    2    1    2    0    0 -0.40357323421E+02  0.15612453024E+02 -0.12516037828E+02  0.46142318231E+02  0.10000004281E+02 0.  0.
         12    1    1    2    0    0  0.40357323421E+02 -0.15612453024E+02  0.12516037828E+02  0.45045681769E+02  0.00000000000E+00 0. -1.
         11    1    3    3    0    0 -0.99337810260E+01  0.25854283280E+01 -0.61708871289E+01  0.11976823174E+02  0.51100000000E-03 0. -1.
        -11    1    3    3    0    0 -0.26130355475E+02  0.95111225485E+01 -0.38193912313E+01  0.28068571018E+02  0.51100000000E-03 0.  1.
         12    1    3    3    0    0 -0.42931869207E+01  0.35159021472E+01 -0.25257594680E+01  0.60969240388E+01  0.00000000000E+00 0. -1.
</event>
<event>
 7    1  0.3086024E-009  0.4614232E+02  0.7816164E-02  0.1320468E+00
        -11   -1    0    0    0    0  0.00000000000E+00  0.00000000000E+00  0.45593999997E+02  0.45594000000E+02  0.51100000000E-03 0.  1.
         11   -1    0    0    0    0 -0.00000000000E+00 -0.00000000000E+00 -0.45593999997E+02  0.45594000000E+02  0.51100000000E-03 0. -1.
    9900012    2    1    2    0    0  0.31495988745E+02  0.14000067915E+02  0.29001970635E+02  0.46142317528E+02  0.99999978772E+01 0.  0.
         12    1    1    2    0    0 -0.31495988745E+02 -0.14000067915E+02 -0.29001970635E+02  0.45045682472E+02  0.00000000000E+00 0. -1.
         11    1    3    3    0    0  0.29001810063E+02  0.93044412425E+01  0.23747477342E+02  0.38621500413E+02  0.51100000000E-03 0.  1.
        -11    1    3    3    0    0  0.24928173877E+01  0.42215226077E+01  0.47044773734E+01  0.67946669730E+01  0.51100000000E-03 0. -1.
        -12    1    3    3    0    0  0.13612935782E-02  0.47410406483E+00  0.55001591917E+00  0.72615014201E+00  0.00000000000E+00 0.  1.
</event>
<event>
 7    1  0.3086024E-009  0.4614232E+02  0.7816164E-02  0.1320468E+00
        -11   -1    0    0    0    0  0.00000000000E+00  0.00000000000E+00  0.45593999997E+02  0.45594000000E+02  0.51100000000E-03 0. -1.
         11   -1    0    0    0    0 -0.00000000000E+00 -0.00000000000E+00 -0.45593999997E+02  0.45594000000E+02  0.51100000000E-03 0.  1.
    9900012    2    1    2    0    0  0.29297886677E+01 -0.38263664493E+02  0.23588593542E+02  0.46142318438E+02  0.10000006173E+02 0.  0.
         12    1    1    2    0    0 -0.29297886677E+01  0.38263664493E+02 -0.23588593542E+02  0.45045681562E+02  0.00000000000E+00 0. -1.
         11    1    3    3    0    0  0.21519077565E+01 -0.12035705517E+02  0.92454837381E+01  0.15328662176E+02  0.51100000000E-03 0. -1.
        -11    1    3    3    0    0 -0.28953989906E+01 -0.16742109053E+02  0.76247659710E+01  0.18623066536E+02  0.51100000000E-03 0.  1.
        -12    1    3    3    0    0  0.36732799018E+01 -0.94858499236E+01  0.67183438331E+01  0.12190589726E+02  0.00000000000E+00 0.  1.
</event>
<event>
 7    1  0.3086024E-009  0.4614232E+02  0.7816164E-02  0.1320468E+00
        -11   -1    0    0    0    0  0.00000000000E+00  0.00000000000E+00  0.45593999997E+02  0.45594000000E+02  0.51100000000E-03 0.  1.
         11   -1    0    0    0    0 -0.00000000000E+00 -0.00000000000E+00 -0.45593999997E+02  0.45594000000E+02  0.51100000000E-03 0. -1.
    9900012    2    1    2    0    0 -0.28260851745E+02  0.67796293613E+01  0.34416194239E+02  0.46142317171E+02  0.99999946170E+01 0.  0.
         12    1    1    2    0    0  0.28260851745E+02 -0.67796293613E+01 -0.34416194239E+02  0.45045682829E+02  0.00000000000E+00 0. -1.
         11    1    3    3    0    0 -0.20571791561E+02  0.89857190915E+00  0.22793406072E+02  0.30717184118E+02  0.51100000000E-03 0. -1.
        -11    1    3    3    0    0 -0.56755552150E+01  0.24965176547E+01  0.69330393615E+01  0.93011591992E+01  0.51100000000E-03 0.  1.
         12    1    3    3    0    0 -0.20135049691E+01  0.33845397974E+01  0.46897488056E+01  0.61239738536E+01  0.00000000000E+00 0. -1.
</event>
<event>
 7    1  0.3086024E-009  0.4614232E+02  0.7816164E-02  0.1320468E+00
        -11   -1    0    0    0    0  0.00000000000E+00  0.00000000000E+00  0.45593999997E+02  0.45594000000E+02  0.51100000000E-03 0.  1.
         11   -1    0    0    0    0 -0.00000000000E+00 -0.00000000000E+00 -0.45593999997E+02  0.45594000000E+02  0.51100000000E-03 0. -1.
    9900012    2    1    2    0    0  0.48504078849E+01  0.42761852252E+02  0.13304541153E+02  0.46142320074E+02  0.10000021095E+02 0.  0.
         12    1    1    2    0    0 -0.48504078849E+01 -0.42761852252E+02 -0.13304541153E+02  0.45045679926E+02  0.00000000000E+00 0. -1.
         11    1    3    3    0    0  0.20186092917E+01  0.20250803066E+01  0.17493117933E+01  0.33519883251E+01  0.51100000000E-03 0. -1.
        -11    1    3    3    0    0 -0.46223203280E+00  0.26457361467E+02  0.87441501429E+01  0.27868724338E+02  0.51100000000E-03 0.  1.
         12    1    3    3    0    0  0.32940306261E+01  0.14279410478E+02  0.28110792165E+01  0.14921607411E+02  0.00000000000E+00 0. -1.
</event>
<event>
 7    1  0.3086024E-009  0.4614232E+02  0.7816164E-02  0.1320468E+00
        -11   -1    0    0    0    0  0.00000000000E+00  0.00000000000E+00  0.45593999997E+02  0.45594000000E+02  0.51100000000E-03 0. -1.
         11   -1    0    0    0    0 -0.00000000000E+00 -0.00000000000E+00 -0.45593999997E+02  0.45594000000E+02  0.51100000000E-03 0.  1.
    9900012    2    1    2    0    0 -0.37950319948E+02 -0.94663908967E+01 -0.22344447756E+02  0.46142315564E+02  0.99999799662E+01 0.  0.
         12    1    1    2    0    0  0.37950319948E+02  0.94663908967E+01  0.22344447756E+02  0.45045684436E+02  0.00000000000E+00 0. -1.
         11    1    3    3    0    0 -0.17378349209E+02 -0.52878868864E+01 -0.73935906364E+01  0.19612086878E+02  0.51100000000E-03 0. -1.
        -11    1    3    3    0    0 -0.15182441944E+02 -0.85538444268E+00 -0.12693600849E+02  0.19808223764E+02  0.51100000000E-03 0.  1.
        -12    1    3    3    0    0 -0.53895287957E+01 -0.33231195676E+01 -0.22572562703E+01  0.67220049219E+01  0.00000000000E+00 0.  1.
</event>
<event>
 7    1  0.3086024E-009  0.4614232E+02  0.7816164E-02  0.1320468E+00
        -11   -1    0    0    0    0  0.00000000000E+00  0.00000000000E+00  0.45593999997E+02  0.45594000000E+02  0.51100000000E-03 0.  1.
         11   -1    0    0    0    0 -0.00000000000E+00 -0.00000000000E+00 -0.45593999997E+02  0.45594000000E+02  0.51100000000E-03 0. -1.
    9900012    2    1    2    0    0 -0.19696562208E+02 -0.39601983754E+02  0.85347423819E+01  0.46142317548E+02  0.99999980584E+01 0.  0.
         12    1    1    2    0    0  0.19696562208E+02  0.39601983754E+02 -0.85347423819E+01  0.45045682452E+02  0.00000000000E+00 0. -1.
         11    1    3    3    0    0 -0.17999936913E+01 -0.20496147835E+01  0.25435421409E+00  0.27396339859E+01  0.51100000000E-03 0. -1.
        -11    1    3    3    0    0 -0.44685240365E+01 -0.26715942628E+01  0.14835228472E+01  0.54134982469E+01  0.51100000000E-03 0.  1.
        -12    1    3    3    0    0 -0.13428044480E+02 -0.34880774707E+02  0.67968653206E+01  0.37989185315E+02  0.00000000000E+00 0.  1.
</event>
<event>
 7    1  0.3086024E-009  0.4614232E+02  0.7816164E-02  0.1320468E+00
        -11   -1    0    0    0    0  0.00000000000E+00  0.00000000000E+00  0.45593999997E+02  0.45594000000E+02  0.51100000000E-03 0.  1.
         11   -1    0    0    0    0 -0.00000000000E+00 -0.00000000000E+00 -0.45593999997E+02  0.45594000000E+02  0.51100000000E-03 0. -1.
    9900012    2    1    2    0    0  0.21277942231E+02 -0.13523569065E+01  0.39680393616E+02  0.46142319493E+02  0.10000015793E+02 0.  0.
         12    1    1    2    0    0 -0.21277942231E+02  0.13523569065E+01 -0.39680393616E+02  0.45045680507E+02  0.00000000000E+00 0. -1.
         11    1    3    3    0    0  0.37594854746E+01  0.25926624692E+01  0.47250256343E+01  0.65712629850E+01  0.51100000000E-03 0. -1.
        -11    1    3    3    0    0  0.12042569164E+02 -0.37666193778E+01  0.28041376771E+02  0.30749466744E+02  0.51100000000E-03 0.  1.
        -12    1    3    3    0    0  0.54758875932E+01 -0.17839999786E+00  0.69139912110E+01  0.88215897637E+01  0.00000000000E+00 0.  1.
</event>
<event>
 7    1  0.3086024E-009  0.4614232E+02  0.7816164E-02  0.1320468E+00
        -11   -1    0    0    0    0  0.00000000000E+00  0.00000000000E+00  0.45593999997E+02  0.45594000000E+02  0.51100000000E-03 0. -1.
         11   -1    0    0    0    0 -0.00000000000E+00 -0.00000000000E+00 -0.45593999997E+02  0.45594000000E+02  0.51100000000E-03 0.  1.
    9900012    2    1    2    0    0 -0.34968433207E+02  0.26803888403E+02 -0.93741099904E+01  0.46142315494E+02  0.99999793291E+01 0.  0.
         12    1    1    2    0    0  0.34968433207E+02 -0.26803888403E+02  0.93741099904E+01  0.45045684506E+02  0.00000000000E+00 0. -1.
         11    1    3    3    0    0 -0.12672325801E+02  0.64476433854E+01 -0.67521334821E+01  0.15740116050E+02  0.51100000000E-03 0. -1.
        -11    1    3    3    0    0 -0.19055125777E+01  0.10029699869E+01 -0.49234763044E+00  0.22089213270E+01  0.51100000000E-03 0.  1.
         12    1    3    3    0    0 -0.20390594828E+02  0.19353275030E+02 -0.21296288779E+01  0.28193278118E+02  0.00000000000E+00 0. -1.
</event>
<event>
 7    1  0.3086024E-009  0.4614232E+02  0.7816164E-02  0.1320468E+00
        -11   -1    0    0    0    0  0.00000000000E+00  0.00000000000E+00  0.45593999997E+02  0.45594000000E+02  0.51100000000E-03 0.  1.
         11   -1    0    0    0    0 -0.00000000000E+00 -0.00000000000E+00 -0.45593999997E+02  0.45594000000E+02  0.51100000000E-03 0. -1.
    9900012    2    1    2    0    0  0.44313861677E+02  0.70137703323E+01 -0.40252029571E+01  0.46142316856E+02  0.99999917490E+01 0.  0.
         12    1    1    2    0    0 -0.44313861677E+02 -0.70137703323E+01  0.40252029571E+01  0.45045683144E+02  0.00000000000E+00 0. -1.
         11    1    3    3    0    0  0.93510972325E+00  0.14279316536E+01 -0.86267944319E+00  0.19124944666E+01  0.51100000000E-03 0. -1.
        -11    1    3    3    0    0  0.25151871686E+02  0.63657595168E+00 -0.30366802466E+01  0.25342519714E+02  0.51100000000E-03 0.  1.
        -12    1    3    3    0    0  0.18226880268E+02  0.49492627270E+01 -0.12584326729E+00  0.18887302676E+02  0.00000000000E+00 0.  1.
</event>
<event>
 7    1  0.3086024E-009  0.4614231E+02  0.7816164E-02  0.1320468E+00
        -11   -1    0    0    0    0  0.00000000000E+00  0.00000000000E+00  0.45593999997E+02  0.45594000000E+02  0.51100000000E-03 0.  1.
         11   -1    0    0    0    0 -0.00000000000E+00 -0.00000000000E+00 -0.45593999997E+02  0.45594000000E+02  0.51100000000E-03 0. -1.
    9900012    2    1    2    0    0 -0.27897147745E+02  0.25782026374E+02  0.24210535204E+02  0.46142314844E+02  0.99999734019E+01 0.  0.
         12    1    1    2    0    0  0.27897147745E+02 -0.25782026374E+02 -0.24210535204E+02  0.45045685156E+02  0.00000000000E+00 0. -1.
         11    1    3    3    0    0 -0.63358199087E+01  0.11767805702E+02  0.65705672364E+01  0.14892824414E+02  0.51100000000E-03 0. -1.
        -11    1    3    3    0    0 -0.42276945213E+01  0.34442666518E+01  0.44555446648E+01  0.70418926615E+01  0.51100000000E-03 0.  1.
         12    1    3    3    0    0 -0.17333633315E+02  0.10569954020E+02  0.13184423303E+02  0.24207597768E+02  0.00000000000E+00 0. -1.
</event>
<event>
 7    1  0.3086024E-009  0.4614232E+02  0.7816164E-02  0.1320468E+00
        -11   -1    0    0    0    0  0.00000000000E+00  0.00000000000E+00  0.45593999997E+02  0.45594000000E+02  0.51100000000E-03 0. -1.
         11   -1    0    0    0    0 -0.00000000000E+00 -0.00000000000E+00 -0.45593999997E+02  0.45594000000E+02  0.51100000000E-03 0.  1.
    9900012    2    1    2    0    0  0.22614167026E+02  0.20390673994E+02 -0.33195382215E+02  0.46142317226E+02  0.99999951187E+01 0.  0.
         12    1    1    2    0    0 -0.22614167026E+02 -0.20390673994E+02  0.33195382215E+02  0.45045682774E+02  0.00000000000E+00 0. -1.
         11    1    3    3    0    0  0.49491997461E+01  0.90800099429E+01 -0.11068895599E+02  0.15147990254E+02  0.51100000000E-03 0.  1.
        -11    1    3    3    0    0  0.77891205488E+01  0.76384383089E+01 -0.88684398646E+01  0.14059351501E+02  0.51100000000E-03 0. -1.
         12    1    3    3    0    0  0.98758467313E+01  0.36722257421E+01 -0.13258046751E+02  0.16934975471E+02  0.00000000000E+00 0. -1.
</event>
<event>
 7    1  0.3086024E-009  0.4614231E+02  0.7816164E-02  0.1320468E+00
        -11   -1    0    0    0    0  0.00000000000E+00  0.00000000000E+00  0.45593999997E+02  0.45594000000E+02  0.51100000000E-03 0.  1.
         11   -1    0    0    0    0 -0.00000000000E+00 -0.00000000000E+00 -0.45593999997E+02  0.45594000000E+02  0.51100000000E-03 0. -1.
    9900012    2    1    2    0    0 -0.20856301143E+02  0.61070025226E+01  0.39456729962E+02  0.46142308569E+02  0.99999161809E+01 0.  0.
         12    1    1    2    0    0  0.20856301143E+02 -0.61070025226E+01 -0.39456729962E+02  0.45045691431E+02  0.00000000000E+00 0. -1.
         11    1    3    3    0    0 -0.54670443097E+01 -0.10999548447E+00  0.12876656962E+02  0.13989602113E+02  0.51100000000E-03 0. -1.
        -11    1    3    3    0    0 -0.49790794534E+01  0.56598185702E+01  0.92995765074E+01  0.11971086080E+02  0.51100000000E-03 0.  1.
        -12    1    3    3    0    0 -0.10410177380E+02  0.55717943695E+00  0.17280496493E+02  0.20181620377E+02  0.00000000000E+00 0.  1.
</event>
<event>
 7    1  0.3086024E-009  0.4614232E+02  0.7816164E-02  0.1320468E+00
        -11   -1    0    0    0    0  0.00000000000E+00  0.00000000000E+00  0.45593999997E+02  0.45594000000E+02  0.51100000000E-03 0.  1.
         11   -1    0    0    0    0 -0.00000000000E+00 -0.00000000000E+00 -0.45593999997E+02  0.45594000000E+02  0.51100000000E-03 0. -1.
    9900012    2    1    2    0    0  0.80296952900E+01 -0.42927051611E+02  0.11041094245E+02  0.46142317315E+02  0.99999959283E+01 0.  0.
         12    1    1    2    0    0 -0.80296952900E+01  0.42927051611E+02 -0.11041094245E+02  0.45045682685E+02  0.00000000000E+00 0. -1.
         11    1    3    3    0    0  0.96129324746E+00 -0.14517131238E+01  0.91942617510E-01  0.17435622752E+01  0.51100000000E-03 0. -1.
        -11    1    3    3    0    0  0.90955288473E+01 -0.31754243840E+02  0.94469253168E+01  0.34355567890E+02  0.51100000000E-03 0.  1.
        -12    1    3    3    0    0 -0.20271268048E+01 -0.97210946473E+01  0.15022263104E+01  0.10043187149E+02  0.00000000000E+00 0.  1.
</event>
<event>
 7    1  0.3086024E-009  0.4614232E+02  0.7816164E-02  0.1320468E+00
        -11   -1    0    0    0    0  0.00000000000E+00  0.00000000000E+00  0.45593999997E+02  0.45594000000E+02  0.51100000000E-03 0. -1.
         11   -1    0    0    0    0 -0.00000000000E+00 -0.00000000000E+00 -0.45593999997E+02  0.45594000000E+02  0.51100000000E-03 0.  1.
    9900012    2    1    2    0    0  0.32439337273E+02  0.26914553748E+02 -0.15887403626E+02  0.46142318740E+02  0.10000008930E+02 0.  0.
         12    1    1    2    0    0 -0.32439337273E+02 -0.26914553748E+02  0.15887403626E+02  0.45045681260E+02  0.00000000000E+00 0. -1.
         11    1    3    3    0    0  0.89690634832E+01  0.95136621026E+01 -0.74671637220E+01  0.15056971830E+02  0.51100000000E-03 0.  1.
        -11    1    3    3    0    0  0.19285641971E+01  0.12405389598E+01 -0.27226212264E+01  0.35596296685E+01  0.51100000000E-03 0. -1.
        -12    1    3    3    0    0  0.21541709593E+02  0.16160352686E+02 -0.56976186773E+01  0.27525717242E+02  0.00000000000E+00 0.  1.
</event>
<event>
 7    1  0.3086024E-009  0.4614232E+02  0.7816164E-02  0.1320468E+00
        -11   -1    0    0    0    0  0.00000000000E+00  0.00000000000E+00  0.45593999997E+02  0.45594000000E+02  0.51100000000E-03 0.  1.
         11   -1    0    0    0    0 -0.00000000000E+00 -0.00000000000E+00 -0.45593999997E+02  0.45594000000E+02  0.51100000000E-03 0. -1.
    9900012    2    1    2    0    0  0.40264641275E+02  0.16402765856E+01  0.20129123291E+02  0.46142318201E+02  0.10000004014E+02 0.  0.
         12    1    1    2    0    0 -0.40264641275E+02 -0.16402765856E+01 -0.20129123291E+02  0.45045681799E+02  0.00000000000E+00 0. -1.
         11    1    3    3    0    0  0.10587841981E+02 -0.23582177344E+01  0.36946500105E+01  0.11459233293E+02  0.51100000000E-03 0. -1.
        -11    1    3    3    0    0  0.17946329658E+01 -0.12276862209E+01  0.11885686728E+01  0.24780267735E+01  0.51100000000E-03 0.  1.
        -12    1    3    3    0    0  0.27882166328E+02  0.52261805409E+01  0.15245904608E+02  0.32205058135E+02  0.00000000000E+00 0.  1.
</event>
<event>
 7    1  0.3086024E-009  0.4614232E+02  0.7816164E-02  0.1320468E+00
        -11   -1    0    0    0    0  0.00000000000E+00  0.00000000000E+00  0.45593999997E+02  0.45594000000E+02  0.51100000000E-03 0.  1.
         11   -1    0    0    0    0 -0.00000000000E+00 -0.00000000000E+00 -0.45593999997E+02  0.45594000000E+02  0.51100000000E-03 0. -1.
    9900012    2    1    2    0    0 -0.24924473781E+02 -0.80151287132E+01  0.36655720615E+02  0.46142317239E+02  0.99999952428E+01 0.  0.
         12    1    1    2    0    0  0.24924473781E+02  0.80151287132E+01 -0.36655720615E+02  0.45045682761E+02  0.00000000000E+00 0. -1.
         11    1    3    3    0    0 -0.60441841423E+01 -0.45678063466E+01  0.60328132258E+01  0.96846193753E+01  0.51100000000E-03 0. -1.
        -11    1    3    3    0    0 -0.15377320852E+02 -0.89862628788E+00  0.24913752114E+02  0.29291032254E+02  0.51100000000E-03 0.  1.
        -12    1    3    3    0    0 -0.35029687865E+01 -0.25486960786E+01  0.57091552749E+01  0.71666656106E+01  0.00000000000E+00 0.  1.
</event>
<event>
 7    1  0.3086024E-009  0.4614232E+02  0.7816164E-02  0.1320468E+00
        -11   -1    0    0    0    0  0.00000000000E+00  0.00000000000E+00  0.45593999997E+02  0.45594000000E+02  0.51100000000E-03 0. -1.
         11   -1    0    0    0    0 -0.00000000000E+00 -0.00000000000E+00 -0.45593999997E+02  0.45594000000E+02  0.51100000000E-03 0.  1.
    9900012    2    1    2    0    0  0.18319476432E+02  0.76284860258E+01 -0.40439047343E+02  0.46142316901E+02  0.99999921602E+01 0.  0.
         12    1    1    2    0    0 -0.18319476432E+02 -0.76284860258E+01  0.40439047343E+02  0.45045683099E+02  0.00000000000E+00 0. -1.
         11    1    3    3    0    0  0.45558824849E+01 -0.10020398362E+01 -0.82626915466E+01  0.94885310193E+01  0.51100000000E-03 0. -1.
        -11    1    3    3    0    0  0.14338255298E+02  0.72727281169E+01 -0.29266095636E+02  0.33391353570E+02  0.51100000000E-03 0.  1.
         12    1    3    3    0    0 -0.57466135028E+00  0.13577977451E+01 -0.29102601611E+01  0.32624323119E+01  0.00000000000E+00 0. -1.
</event>
<event>
 7    1  0.3086024E-009  0.4614232E+02  0.7816164E-02  0.1320468E+00
        -11   -1    0    0    0    0  0.00000000000E+00  0.00000000000E+00  0.45593999997E+02  0.45594000000E+02  0.51100000000E-03 0.  1.
         11   -1    0    0    0    0 -0.00000000000E+00 -0.00000000000E+00 -0.45593999997E+02  0.45594000000E+02  0.51100000000E-03 0. -1.
    9900012    2    1    2    0    0  0.11538009347E+02  0.24025840063E+02  0.36314554406E+02  0.46142317497E+02  0.99999975899E+01 0.  0.
         12    1    1    2    0    0 -0.11538009347E+02 -0.24025840063E+02 -0.36314554406E+02  0.45045682503E+02  0.00000000000E+00 0. -1.
         11    1    3    3    0    0  0.11527799221E+00  0.86443936576E+01  0.99926249351E+01  0.13213303299E+02  0.51100000000E-03 0. -1.
        -11    1    3    3    0    0  0.90010742939E+01  0.12552898582E+02  0.17433202781E+02  0.23291868983E+02  0.51100000000E-03 0.  1.
        -12    1    3    3    0    0  0.24216570609E+01  0.28285478237E+01  0.88887266905E+01  0.96371452148E+01  0.00000000000E+00 0.  1.
</event>
<event>
 7    1  0.3086024E-009  0.4614232E+02  0.7816164E-02  0.1320468E+00
        -11   -1    0    0    0    0  0.00000000000E+00  0.00000000000E+00  0.45593999997E+02  0.45594000000E+02  0.51100000000E-03 0. -1.
         11   -1    0    0    0    0 -0.00000000000E+00 -0.00000000000E+00 -0.45593999997E+02  0.45594000000E+02  0.51100000000E-03 0.  1.
    9900012    2    1    2    0    0 -0.56166302437E+01 -0.42461813248E+02 -0.13948525567E+02  0.46142317798E+02  0.10000000333E+02 0.  0.
         12    1    1    2    0    0  0.56166302437E+01  0.42461813248E+02  0.13948525567E+02  0.45045682202E+02  0.00000000000E+00 0. -1.
         11    1    3    3    0    0 -0.22183745713E+00  0.94727020610E-01  0.53760482526E+00  0.58924042215E+00  0.51100000000E-03 0. -1.
        -11    1    3    3    0    0 -0.36900973485E+01 -0.16042231616E+02 -0.74473846331E+01  0.18067472203E+02  0.51100000000E-03 0.  1.
         12    1    3    3    0    0 -0.17046954381E+01 -0.26514308652E+02 -0.70387457596E+01  0.27485605173E+02  0.00000000000E+00 0. -1.
</event>
<event>
 7    1  0.3086024E-009  0.4614232E+02  0.7816164E-02  0.1320468E+00
        -11   -1    0    0    0    0  0.00000000000E+00  0.00000000000E+00  0.45593999997E+02  0.45594000000E+02  0.51100000000E-03 0.  1.
         11   -1    0    0    0    0 -0.00000000000E+00 -0.00000000000E+00 -0.45593999997E+02  0.45594000000E+02  0.51100000000E-03 0. -1.
    9900012    2    1    2    0    0 -0.35241484176E+02  0.56348770614E+01  0.27484531505E+02  0.46142317427E+02  0.99999969510E+01 0.  0.
         12    1    1    2    0    0  0.35241484176E+02 -0.56348770614E+01 -0.27484531505E+02  0.45045682573E+02  0.00000000000E+00 0. -1.
         11    1    3    3    0    0 -0.44052285735E+00 -0.10034608071E+01  0.72674284155E+00  0.13149712537E+01  0.51100000000E-03 0. -1.
        -11    1    3    3    0    0 -0.14714539332E+02  0.25010525829E+00  0.13172201049E+02  0.19750622804E+02  0.51100000000E-03 0.  1.
         12    1    3    3    0    0 -0.20086421987E+02  0.63882326102E+01  0.13585587614E+02  0.25076723369E+02  0.00000000000E+00 0. -1.
</event>
<event>
 7    1  0.3086024E-009  0.4614232E+02  0.7816164E-02  0.1320468E+00
        -11   -1    0    0    0    0  0.00000000000E+00  0.00000000000E+00  0.45593999997E+02  0.45594000000E+02  0.51100000000E-03 0.  1.
         11   -1    0    0    0    0 -0.00000000000E+00 -0.00000000000E+00 -0.45593999997E+02  0.45594000000E+02  0.51100000000E-03 0. -1.
    9900012    2    1    2    0    0  0.28965571380E+02  0.31168736618E+02  0.14785755292E+02  0.46142322879E+02  0.10000046670E+02 0.  0.
         12    1    1    2    0    0 -0.28965571380E+02 -0.31168736618E+02 -0.14785755292E+02  0.45045677121E+02  0.00000000000E+00 0. -1.
         11    1    3    3    0    0  0.14880933656E+02  0.11382066852E+02  0.93341536409E+01  0.20931317607E+02  0.51100000000E-03 0. -1.
        -11    1    3    3    0    0  0.79830564449E+01  0.78468848956E+01  0.28751838897E+01  0.11557226113E+02  0.51100000000E-03 0.  1.
         12    1    3    3    0    0  0.61015812786E+01  0.11939784870E+02  0.25764177616E+01  0.13653779159E+02  0.00000000000E+00 0. -1.
</event>
<event>
 7    1  0.3086024E-009  0.4614232E+02  0.7816164E-02  0.1320468E+00
        -11   -1    0    0    0    0  0.00000000000E+00  0.00000000000E+00  0.45593999997E+02  0.45594000000E+02  0.51100000000E-03 0.  1.
         11   -1    0    0    0    0 -0.00000000000E+00 -0.00000000000E+00 -0.45593999997E+02  0.45594000000E+02  0.51100000000E-03 0. -1.
    9900012    2    1    2    0    0  0.19963029728E+02 -0.25624334781E+02  0.31208722445E+02  0.46142318236E+02  0.10000004332E+02 0.  0.
         12    1    1    2    0    0 -0.19963029728E+02  0.25624334781E+02 -0.31208722445E+02  0.45045681764E+02  0.00000000000E+00 0. -1.
         11    1    3    3    0    0  0.93990386182E+01 -0.76837379360E+01  0.15345117840E+02  0.19566665464E+02  0.51100000000E-03 0. -1.
        -11    1    3    3    0    0  0.57055260452E+01 -0.69704064847E+01  0.45793701866E+01  0.10104960444E+02  0.51100000000E-03 0.  1.
        -12    1    3    3    0    0  0.48584650649E+01 -0.10970190360E+02  0.11284234419E+02  0.16470692327E+02  0.00000000000E+00 0.  1.
</event>
<event>
 7    1  0.3086024E-009  0.4614232E+02  0.7816164E-02  0.1320468E+00
        -11   -1    0    0    0    0  0.00000000000E+00  0.00000000000E+00  0.45593999997E+02  0.45594000000E+02  0.51100000000E-03 0. -1.
         11   -1    0    0    0    0 -0.00000000000E+00 -0.00000000000E+00 -0.45593999997E+02  0.45594000000E+02  0.51100000000E-03 0.  1.
    9900012    2    1    2    0    0 -0.84857754231E+01 -0.21802020720E+02 -0.38493856882E+02  0.46142317525E+02  0.99999978485E+01 0.  0.
         12    1    1    2    0    0  0.84857754231E+01  0.21802020720E+02  0.38493856882E+02  0.45045682475E+02  0.00000000000E+00 0. -1.
         11    1    3    3    0    0 -0.64537934738E+01 -0.14257579204E+02 -0.31092959327E+02  0.34809512133E+02  0.51100000000E-03 0. -1.
        -11    1    3    3    0    0 -0.25006434639E+01 -0.27849018452E+01 -0.39028244149E+01  0.54074887606E+01  0.51100000000E-03 0.  1.
         12    1    3    3    0    0  0.46866151452E+00 -0.47595396713E+01 -0.34980731396E+01  0.59253166319E+01  0.00000000000E+00 0. -1.
</event>
<event>
 7    1  0.3086024E-009  0.4614232E+02  0.7816164E-02  0.1320468E+00
        -11   -1    0    0    0    0  0.00000000000E+00  0.00000000000E+00  0.45593999997E+02  0.45594000000E+02  0.51100000000E-03 0. -1.
         11   -1    0    0    0    0 -0.00000000000E+00 -0.00000000000E+00 -0.45593999997E+02  0.45594000000E+02  0.51100000000E-03 0.  1.
    9900012    2    1    2    0    0 -0.20843312512E+02 -0.18292979208E+02 -0.35496994748E+02  0.46142318732E+02  0.10000008852E+02 0.  0.
         12    1    1    2    0    0  0.20843312512E+02  0.18292979208E+02  0.35496994748E+02  0.45045681268E+02  0.00000000000E+00 0. -1.
         11    1    3    3    0    0  0.89502599012E-01 -0.66073544917E+00 -0.22753893247E+01  0.23710712535E+01  0.51100000000E-03 0. -1.
        -11    1    3    3    0    0 -0.19000964319E+02 -0.12963737726E+02 -0.29902835452E+02  0.37726313221E+02  0.51100000000E-03 0.  1.
        -12    1    3    3    0    0 -0.19318507914E+01 -0.46685060325E+01 -0.33187699715E+01  0.60449342576E+01  0.00000000000E+00 0.  1.
</event>
<event>
 7    1  0.3086024E-009  0.4614232E+02  0.7816164E-02  0.1320468E+00
        -11   -1    0    0    0    0  0.00000000000E+00  0.00000000000E+00  0.45593999997E+02  0.45594000000E+02  0.51100000000E-03 0.  1.
         11   -1    0    0    0    0 -0.00000000000E+00 -0.00000000000E+00 -0.45593999997E+02  0.45594000000E+02  0.51100000000E-03 0. -1.
    9900012    2    1    2    0    0  0.17288409520E+02 -0.73201559685E+01  0.40946790029E+02  0.46142318733E+02  0.10000008865E+02 0.  0.
         12    1    1    2    0    0 -0.17288409520E+02  0.73201559685E+01 -0.40946790029E+02  0.45045681267E+02  0.00000000000E+00 0. -1.
         11    1    3    3    0    0  0.58955258359E+01 -0.29529117116E+00  0.15160375714E+02  0.16269032356E+02  0.51100000000E-03 0. -1.
        -11    1    3    3    0    0  0.11457998706E+02 -0.75867339484E+01  0.25877866541E+02  0.29300311318E+02  0.51100000000E-03 0.  1.
        -12    1    3    3    0    0 -0.65115022110E-01  0.56186915104E+00 -0.91452226163E-01  0.57297505937E+00  0.00000000000E+00 0.  1.
</event>
<event>
 7    1  0.3086024E-009  0.4614232E+02  0.7816164E-02  0.1320468E+00
        -11   -1    0    0    0    0  0.00000000000E+00  0.00000000000E+00  0.45593999997E+02  0.45594000000E+02  0.51100000000E-03 0.  1.
         11   -1    0    0    0    0 -0.00000000000E+00 -0.00000000000E+00 -0.45593999997E+02  0.45594000000E+02  0.51100000000E-03 0. -1.
    9900012    2    1    2    0    0  0.25749387846E+02  0.16773096609E+02  0.32935477591E+02  0.46142318426E+02  0.10000006060E+02 0.  0.
         12    1    1    2    0    0 -0.25749387846E+02 -0.16773096609E+02 -0.32935477591E+02  0.45045681574E+02  0.00000000000E+00 0. -1.
         11    1    3    3    0    0  0.15544127866E+02  0.75705028645E+01  0.21632577313E+02  0.27692974311E+02  0.51100000000E-03 0. -1.
        -11    1    3    3    0    0  0.35304993826E+01  0.16959995439E+01  0.57919070624E+01  0.69919259167E+01  0.51100000000E-03 0.  1.
         12    1    3    3    0    0  0.66747605983E+01  0.75065942010E+01  0.55109932163E+01  0.11457418198E+02  0.00000000000E+00 0. -1.
</event>
<event>
 7    1  0.3086024E-009  0.4614232E+02  0.7816164E-02  0.1320468E+00
        -11   -1    0    0    0    0  0.00000000000E+00  0.00000000000E+00  0.45593999997E+02  0.45594000000E+02  0.51100000000E-03 0.  1.
         11   -1    0    0    0    0 -0.00000000000E+00 -0.00000000000E+00 -0.45593999997E+02  0.45594000000E+02  0.51100000000E-03 0. -1.
    9900012    2    1    2    0    0 -0.31617862218E+02 -0.31737395501E+02 -0.47076545628E+01  0.46142317678E+02  0.99999992388E+01 0.  0.
         12    1    1    2    0    0  0.31617862218E+02  0.31737395501E+02  0.47076545628E+01  0.45045682322E+02  0.00000000000E+00 0. -1.
         11    1    3    3    0    0 -0.33425695735E+01 -0.16486169791E+01 -0.14667084302E+01  0.40052394657E+01  0.51100000000E-03 0. -1.
        -11    1    3    3    0    0 -0.27708470517E+02 -0.26372536992E+02 -0.29980398164E+01  0.38370018097E+02  0.51100000000E-03 0.  1.
        -12    1    3    3    0    0 -0.56682212797E+00 -0.37162415296E+01 -0.24290631613E+00  0.37670601149E+01  0.00000000000E+00 0.  1.
</event>
<event>
 7    1  0.3086024E-009  0.4614232E+02  0.7816164E-02  0.1320468E+00
        -11   -1    0    0    0    0  0.00000000000E+00  0.00000000000E+00  0.45593999997E+02  0.45594000000E+02  0.51100000000E-03 0.  1.
         11   -1    0    0    0    0 -0.00000000000E+00 -0.00000000000E+00 -0.45593999997E+02  0.45594000000E+02  0.51100000000E-03 0. -1.
    9900012    2    1    2    0    0 -0.25796769151E+02 -0.36908270823E+02  0.11915055116E+01  0.46142318308E+02  0.10000004984E+02 0.  0.
         12    1    1    2    0    0  0.25796769151E+02  0.36908270823E+02 -0.11915055116E+01  0.45045681692E+02  0.00000000000E+00 0. -1.
         11    1    3    3    0    0 -0.77941303689E+01 -0.13358220323E+02  0.37075124675E+01  0.15903967032E+02  0.51100000000E-03 0. -1.
        -11    1    3    3    0    0 -0.11347819327E+02 -0.18370670648E+02 -0.29545595008E+01  0.21794126862E+02  0.51100000000E-03 0.  1.
        -12    1    3    3    0    0 -0.66548194545E+01 -0.51793798517E+01  0.43855254493E+00  0.84442244141E+01  0.00000000000E+00 0.  1.
</event>
<event>
 7    1  0.3086024E-009  0.4614232E+02  0.7816164E-02  0.1320468E+00
        -11   -1    0    0    0    0  0.00000000000E+00  0.00000000000E+00  0.45593999997E+02  0.45594000000E+02  0.51100000000E-03 0. -1.
         11   -1    0    0    0    0 -0.00000000000E+00 -0.00000000000E+00 -0.45593999997E+02  0.45594000000E+02  0.51100000000E-03 0.  1.
    9900012    2    1    2    0    0 -0.44378511282E+02 -0.32623619594E+01  0.70013011053E+01  0.46142317784E+02  0.10000000209E+02 0.  0.
         12    1    1    2    0    0  0.44378511282E+02  0.32623619594E+01 -0.70013011053E+01  0.45045682216E+02  0.00000000000E+00 0. -1.
         11    1    3    3    0    0 -0.12552360373E+02 -0.23742276220E-01 -0.10336104980E+00  0.12552808387E+02  0.51100000000E-03 0. -1.
        -11    1    3    3    0    0 -0.17216074614E+02  0.96728420174E+00  0.63231029451E+01  0.18366014672E+02  0.51100000000E-03 0.  1.
        -12    1    3    3    0    0 -0.14610076295E+02 -0.42059038849E+01  0.78155921004E+00  0.15223494725E+02  0.00000000000E+00 0.  1.
</event>
<event>
 7    1  0.3086024E-009  0.4614232E+02  0.7816164E-02  0.1320468E+00
        -11   -1    0    0    0    0  0.00000000000E+00  0.00000000000E+00  0.45593999997E+02  0.45594000000E+02  0.51100000000E-03 0.  1.
         11   -1    0    0    0    0 -0.00000000000E+00 -0.00000000000E+00 -0.45593999997E+02  0.45594000000E+02  0.51100000000E-03 0. -1.
    9900012    2    1    2    0    0 -0.27374197902E+02 -0.35719676575E+02 -0.19676175635E+01  0.46142317363E+02  0.99999963660E+01 0.  0.
         12    1    1    2    0    0  0.27374197902E+02  0.35719676575E+02  0.19676175635E+01  0.45045682637E+02  0.00000000000E+00 0. -1.
         11    1    3    3    0    0 -0.65968369693E+01 -0.10710308446E+02 -0.48845838127E+01  0.13494003272E+02  0.51100000000E-03 0. -1.
        -11    1    3    3    0    0 -0.59496352982E+01 -0.68754432221E+01  0.69592609452E+00  0.91188920968E+01  0.51100000000E-03 0.  1.
         12    1    3    3    0    0 -0.14827725634E+02 -0.18133924907E+02  0.22210401547E+01  0.23529421994E+02  0.00000000000E+00 0. -1.
</event>
<event>
 7    1  0.3086024E-009  0.4614232E+02  0.7816164E-02  0.1320468E+00
        -11   -1    0    0    0    0  0.00000000000E+00  0.00000000000E+00  0.45593999997E+02  0.45594000000E+02  0.51100000000E-03 0.  1.
         11   -1    0    0    0    0 -0.00000000000E+00 -0.00000000000E+00 -0.45593999997E+02  0.45594000000E+02  0.51100000000E-03 0. -1.
    9900012    2    1    2    0    0 -0.11323463134E+02  0.28192418516E+02  0.33257785315E+02  0.46142316931E+02  0.99999924279E+01 0.  0.
         12    1    1    2    0    0  0.11323463134E+02 -0.28192418516E+02 -0.33257785315E+02  0.45045683069E+02  0.00000000000E+00 0. -1.
         11    1    3    3    0    0 -0.40481493581E+01  0.89628665657E+01  0.67928292163E+01  0.11952531921E+02  0.51100000000E-03 0. -1.
        -11    1    3    3    0    0 -0.80146852571E+00 -0.45653143313E+00  0.10889967185E+01  0.14271253839E+01  0.51100000000E-03 0.  1.
        -12    1    3    3    0    0 -0.64738452505E+01  0.19686083383E+02  0.25375959380E+02  0.32762659626E+02  0.00000000000E+00 0.  1.
</event>
<event>
 7    1  0.3188937E-009  0.4614232E+02  0.7816164E-02  0.1320468E+00
        -11   -1    0    0    0    0  0.00000000000E+00  0.00000000000E+00  0.45593999997E+02  0.45594000000E+02  0.51100000000E-03 0.  1.
         11   -1    0    0    0    0 -0.00000000000E+00 -0.00000000000E+00 -0.45593999997E+02  0.45594000000E+02  0.51100000000E-03 0. -1.
    9900012    2    1    2    0    0 -0.72121008332E+01 -0.38737197905E+02  0.21829535394E+02  0.46142317461E+02  0.99999972610E+01 0.  0.
         12    1    1    2    0    0  0.72121008332E+01  0.38737197905E+02 -0.21829535394E+02  0.45045682539E+02  0.00000000000E+00 0. -1.
         11    1    3    3    0    0 -0.32836396060E+00 -0.31447206817E+01 -0.95723518291E+00  0.33035421161E+01  0.51100000000E-03 0. -1.
        -11    1    3    3    0    0 -0.37291331659E+01 -0.20287125784E+02  0.13694400753E+02  0.24759049235E+02  0.51100000000E-03 0.  1.
         12    1    3    3    0    0 -0.31546037066E+01 -0.15305351439E+02  0.90923698231E+01  0.18079726110E+02  0.00000000000E+00 0. -1.
</event>
<event>
 7    1  0.3086024E-009  0.4614232E+02  0.7816164E-02  0.1320468E+00
        -11   -1    0    0    0    0  0.00000000000E+00  0.00000000000E+00  0.45593999997E+02  0.45594000000E+02  0.51100000000E-03 0.  1.
         11   -1    0    0    0    0 -0.00000000000E+00 -0.00000000000E+00 -0.45593999997E+02  0.45594000000E+02  0.51100000000E-03 0. -1.
    9900012    2    1    2    0    0  0.26108360505E+02  0.21030596948E+02  0.30086226047E+02  0.46142317698E+02  0.99999994279E+01 0.  0.
         12    1    1    2    0    0 -0.26108360505E+02 -0.21030596948E+02 -0.30086226047E+02  0.45045682302E+02  0.00000000000E+00 0. -1.
         11    1    3    3    0    0  0.28556433388E+01  0.40739189291E+00  0.59053232616E+01  0.65721769695E+01  0.51100000000E-03 0. -1.
        -11    1    3    3    0    0  0.91688383126E+01  0.10694309695E+02  0.11173464328E+02  0.17980048977E+02  0.51100000000E-03 0.  1.
        -12    1    3    3    0    0  0.14083878854E+02  0.99288953596E+01  0.13007438458E+02  0.21590091752E+02  0.00000000000E+00 0.  1.
</event>
<event>
 7    1  0.3086024E-009  0.4614232E+02  0.7816164E-02  0.1320468E+00
        -11   -1    0    0    0    0  0.00000000000E+00  0.00000000000E+00  0.45593999997E+02  0.45594000000E+02  0.51100000000E-03 0. -1.
         11   -1    0    0    0    0 -0.00000000000E+00 -0.00000000000E+00 -0.45593999997E+02  0.45594000000E+02  0.51100000000E-03 0.  1.
    9900012    2    1    2    0    0  0.18149285077E+02  0.99963693444E+00 -0.41215504260E+02  0.46142316364E+02  0.99999872564E+01 0.  0.
         12    1    1    2    0    0 -0.18149285077E+02 -0.99963693444E+00  0.41215504260E+02  0.45045683636E+02  0.00000000000E+00 0. -1.
         11    1    3    3    0    0  0.69029669195E+01 -0.24757122139E+00 -0.25451501827E+02  0.26372166943E+02  0.51100000000E-03 0. -1.
        -11    1    3    3    0    0  0.75719140123E+01  0.21969286853E+01 -0.12424475028E+02  0.14714888971E+02  0.51100000000E-03 0.  1.
         12    1    3    3    0    0  0.36744041457E+01 -0.94972052946E+00 -0.33395274058E+01  0.50552604487E+01  0.00000000000E+00 0. -1.
</event>
<event>
 7    1  0.3086024E-009  0.4614232E+02  0.7816164E-02  0.1320468E+00
        -11   -1    0    0    0    0  0.00000000000E+00  0.00000000000E+00  0.45593999997E+02  0.45594000000E+02  0.51100000000E-03 0.  1.
         11   -1    0    0    0    0 -0.00000000000E+00 -0.00000000000E+00 -0.45593999997E+02  0.45594000000E+02  0.51100000000E-03 0. -1.
    9900012    2    1    2    0    0 -0.39369730228E+02  0.20060114965E+01  0.21797098942E+02  0.46142320266E+02  0.10000022845E+02 0.  0.
         12    1    1    2    0    0  0.39369730228E+02 -0.20060114965E+01 -0.21797098942E+02  0.45045679734E+02  0.00000000000E+00 0. -1.
         11    1    3    3    0    0 -0.15443374736E+02  0.27707335631E+01  0.57096692638E+01  0.16696559857E+02  0.51100000000E-03 0. -1.
        -11    1    3    3    0    0 -0.10890877651E+02  0.17865019228E+01  0.97596210160E+01  0.14732718954E+02  0.51100000000E-03 0.  1.
        -12    1    3    3    0    0 -0.13035477841E+02 -0.25512239894E+01  0.63278086622E+01  0.14713041455E+02  0.00000000000E+00 0.  1.
</event>
<event>
 7    1  0.3086024E-009  0.4614232E+02  0.7816164E-02  0.1320468E+00
        -11   -1    0    0    0    0  0.00000000000E+00  0.00000000000E+00  0.45593999997E+02  0.45594000000E+02  0.51100000000E-03 0. -1.
         11   -1    0    0    0    0 -0.00000000000E+00 -0.00000000000E+00 -0.45593999997E+02  0.45594000000E+02  0.51100000000E-03 0.  1.
    9900012    2    1    2    0    0 -0.25594058063E+02  0.36913671128E+02 -0.33820377890E+01  0.46142322029E+02  0.10000038917E+02 0.  0.
         12    1    1    2    0    0  0.25594058063E+02 -0.36913671128E+02  0.33820377890E+01  0.45045677971E+02  0.00000000000E+00 0. -1.
         11    1    3    3    0    0 -0.15803554917E+02  0.15390345082E+02 -0.41886635921E+00  0.22063329736E+02  0.51100000000E-03 0. -1.
        -11    1    3    3    0    0 -0.51716055074E+01  0.80590827593E+01 -0.21934825707E+01  0.98237306811E+01  0.51100000000E-03 0.  1.
         12    1    3    3    0    0 -0.46188976386E+01  0.13464243287E+02 -0.76968885910E+00  0.14255261612E+02  0.00000000000E+00 0. -1.
</event>
<event>
 7    1  0.3086024E-009  0.4614232E+02  0.7816164E-02  0.1320468E+00
        -11   -1    0    0    0    0  0.00000000000E+00  0.00000000000E+00  0.45593999997E+02  0.45594000000E+02  0.51100000000E-03 0.  1.
         11   -1    0    0    0    0 -0.00000000000E+00 -0.00000000000E+00 -0.45593999997E+02  0.45594000000E+02  0.51100000000E-03 0. -1.
    9900012    2    1    2    0    0 -0.11115509836E+02 -0.37283027818E+02 -0.22705390698E+02  0.46142317754E+02  0.99999999368E+01 0.  0.
         12    1    1    2    0    0  0.11115509836E+02  0.37283027818E+02  0.22705390698E+02  0.45045682246E+02  0.00000000000E+00 0. -1.
         11    1    3    3    0    0 -0.84301783601E+01 -0.21402406286E+02 -0.99385021137E+01  0.25058027188E+02  0.51100000000E-03 0. -1.
        -11    1    3    3    0    0 -0.25171844680E+00 -0.55177873456E+01 -0.18211084229E+01  0.58159930809E+01  0.51100000000E-03 0.  1.
         12    1    3    3    0    0 -0.24336130296E+01 -0.10362834186E+02 -0.10945780162E+02  0.15268297485E+02  0.00000000000E+00 0. -1.
</event>
<event>
 7    1  0.3086024E-009  0.4614232E+02  0.7816164E-02  0.1320468E+00
        -11   -1    0    0    0    0  0.00000000000E+00  0.00000000000E+00  0.45593999997E+02  0.45594000000E+02  0.51100000000E-03 0. -1.
         11   -1    0    0    0    0 -0.00000000000E+00 -0.00000000000E+00 -0.45593999997E+02  0.45594000000E+02  0.51100000000E-03 0.  1.
    9900012    2    1    2    0    0 -0.35152185865E+02  0.20183586864E+02 -0.19648409769E+02  0.46142319228E+02  0.10000013377E+02 0.  0.
         12    1    1    2    0    0  0.35152185865E+02 -0.20183586864E+02  0.19648409769E+02  0.45045680772E+02  0.00000000000E+00 0. -1.
         11    1    3    3    0    0 -0.16289433341E+02  0.64421410589E+01 -0.98235523948E+01  0.20083550530E+02  0.51100000000E-03 0. -1.
        -11    1    3    3    0    0 -0.34453572570E+01  0.56714273883E+01 -0.37799168702E+01  0.76369723749E+01  0.51100000000E-03 0.  1.
        -12    1    3    3    0    0 -0.15417395267E+02  0.80700184170E+01 -0.60449405038E+01  0.18421796323E+02  0.00000000000E+00 0.  1.
</event>
<event>
 7    1  0.3086024E-009  0.4614233E+02  0.7816164E-02  0.1320468E+00
        -11   -1    0    0    0    0  0.00000000000E+00  0.00000000000E+00  0.45593999997E+02  0.45594000000E+02  0.51100000000E-03 0.  1.
         11   -1    0    0    0    0 -0.00000000000E+00 -0.00000000000E+00 -0.45593999997E+02  0.45594000000E+02  0.51100000000E-03 0. -1.
    9900012    2    1    2    0    0  0.16322872229E+02 -0.39124360574E+02  0.15230245143E+02  0.46142333003E+02  0.10000138983E+02 0.  0.
         12    1    1    2    0    0 -0.16322872229E+02  0.39124360574E+02 -0.15230245143E+02  0.45045666997E+02  0.00000000000E+00 0. -1.
         11    1    3    3    0    0  0.12963397076E+02 -0.25362786487E+02  0.94286639385E+01  0.30003671544E+02  0.51100000000E-03 0.  1.
        -11    1    3    3    0    0  0.38805831448E+01 -0.53630385306E+01  0.20907165661E+01  0.69420604899E+01  0.51100000000E-03 0. -1.
         12    1    3    3    0    0 -0.52110799185E+00 -0.83985355559E+01  0.37108646382E+01  0.91966009692E+01  0.00000000000E+00 0. -1.
</event>
<event>
 7    1  0.3086024E-009  0.4614232E+02  0.7816164E-02  0.1320468E+00
        -11   -1    0    0    0    0  0.00000000000E+00  0.00000000000E+00  0.45593999997E+02  0.45594000000E+02  0.51100000000E-03 0.  1.
         11   -1    0    0    0    0 -0.00000000000E+00 -0.00000000000E+00 -0.45593999997E+02  0.45594000000E+02  0.51100000000E-03 0. -1.
    9900012    2    1    2    0    0 -0.40090269127E+02  0.16204688041E+02  0.12621085593E+02  0.46142318801E+02  0.10000009482E+02 0.  0.
         12    1    1    2    0    0  0.40090269127E+02 -0.16204688041E+02 -0.12621085593E+02  0.45045681199E+02  0.00000000000E+00 0. -1.
         11    1    3    3    0    0 -0.13632118602E+02  0.61594141692E+01  0.19368135957E+01  0.15083908236E+02  0.51100000000E-03 0. -1.
        -11    1    3    3    0    0 -0.15488286781E+02  0.31900921562E+01  0.32678761175E+01  0.16147530150E+02  0.51100000000E-03 0.  1.
        -12    1    3    3    0    0 -0.10969863743E+02  0.68551817152E+01  0.74163958802E+01  0.14910880415E+02  0.00000000000E+00 0.  1.
</event>
<event>
 7    1  0.3086024E-009  0.4614232E+02  0.7816164E-02  0.1320468E+00
        -11   -1    0    0    0    0  0.00000000000E+00  0.00000000000E+00  0.45593999997E+02  0.45594000000E+02  0.51100000000E-03 0.  1.
         11   -1    0    0    0    0 -0.00000000000E+00 -0.00000000000E+00 -0.45593999997E+02  0.45594000000E+02  0.51100000000E-03 0. -1.
    9900012    2    1    2    0    0 -0.87363791337E+01  0.27148433668E+02  0.34867631479E+02  0.46142317677E+02  0.99999992333E+01 0.  0.
         12    1    1    2    0    0  0.87363791337E+01 -0.27148433668E+02 -0.34867631479E+02  0.45045682323E+02  0.00000000000E+00 0. -1.
         11    1    3    3    0    0  0.98934163504E+00  0.50956329548E+01  0.41745096684E+01  0.66611412921E+01  0.51100000000E-03 0. -1.
        -11    1    3    3    0    0  0.29262265076E+00  0.60079386345E-01  0.17488330373E+01  0.17741631272E+01  0.51100000000E-03 0.  1.
         12    1    3    3    0    0 -0.10018343420E+02  0.21992721327E+02  0.28944288773E+02  0.37707013258E+02  0.00000000000E+00 0. -1.
</event>
<event>
 7    1  0.3086024E-009  0.4614232E+02  0.7816164E-02  0.1320468E+00
        -11   -1    0    0    0    0  0.00000000000E+00  0.00000000000E+00  0.45593999997E+02  0.45594000000E+02  0.51100000000E-03 0.  1.
         11   -1    0    0    0    0 -0.00000000000E+00 -0.00000000000E+00 -0.45593999997E+02  0.45594000000E+02  0.51100000000E-03 0. -1.
    9900012    2    1    2    0    0  0.31084001044E+02  0.11799329653E+02  0.30392007444E+02  0.46142318547E+02  0.10000007163E+02 0.  0.
         12    1    1    2    0    0 -0.31084001044E+02 -0.11799329653E+02 -0.30392007444E+02  0.45045681453E+02  0.00000000000E+00 0. -1.
         11    1    3    3    0    0  0.23844437931E+01 -0.15515799886E+00  0.30660767287E+01  0.38872191828E+01  0.51100000000E-03 0. -1.
        -11    1    3    3    0    0  0.15900076208E+02  0.11118390694E+02  0.16657932119E+02  0.25571815300E+02  0.51100000000E-03 0.  1.
        -12    1    3    3    0    0  0.12799481043E+02  0.83609695806E+00  0.10667998596E+02  0.16683284063E+02  0.00000000000E+00 0.  1.
</event>
<event>
 7    1  0.3086024E-009  0.4614232E+02  0.7816164E-02  0.1320468E+00
        -11   -1    0    0    0    0  0.00000000000E+00  0.00000000000E+00  0.45593999997E+02  0.45594000000E+02  0.51100000000E-03 0. -1.
         11   -1    0    0    0    0 -0.00000000000E+00 -0.00000000000E+00 -0.45593999997E+02  0.45594000000E+02  0.51100000000E-03 0.  1.
    9900012    2    1    2    0    0 -0.64301532917E+01 -0.36480800787E+02 -0.25630409322E+02  0.46142316750E+02  0.99999907825E+01 0.  0.
         12    1    1    2    0    0  0.64301532917E+01  0.36480800787E+02  0.25630409322E+02  0.45045683250E+02  0.00000000000E+00 0. -1.
         11    1    3    3    0    0 -0.33650532076E+01 -0.21080441512E+02 -0.16623666391E+02  0.27056512746E+02  0.51100000000E-03 0.  1.
        -11    1    3    3    0    0 -0.29503797974E+00  0.55732954959E+00 -0.34345435418E+00  0.71807018519E+00  0.51100000000E-03 0. -1.
        -12    1    3    3    0    0 -0.27700621044E+01 -0.15957688825E+02 -0.86632885770E+01  0.18367733819E+02  0.00000000000E+00 0.  1.
</event>
<event>
 7    1  0.3086024E-009  0.4614232E+02  0.7816164E-02  0.1320468E+00
        -11   -1    0    0    0    0  0.00000000000E+00  0.00000000000E+00  0.45593999997E+02  0.45594000000E+02  0.51100000000E-03 0.  1.
         11   -1    0    0    0    0 -0.00000000000E+00 -0.00000000000E+00 -0.45593999997E+02  0.45594000000E+02  0.51100000000E-03 0. -1.
    9900012    2    1    2    0    0 -0.42763543046E+02  0.14025032677E+02  0.19212852990E+01  0.46142317714E+02  0.99999995708E+01 0.  0.
         12    1    1    2    0    0  0.42763543046E+02 -0.14025032677E+02 -0.19212852990E+01  0.45045682286E+02  0.00000000000E+00 0. -1.
         11    1    3    3    0    0 -0.43735529115E+01  0.45144961706E+01 -0.35142647652E+00  0.62954063867E+01  0.51100000000E-03 0. -1.
        -11    1    3    3    0    0 -0.34973603528E+02  0.98867977585E+01  0.21468657788E+01  0.36407564415E+02  0.51100000000E-03 0.  1.
         12    1    3    3    0    0 -0.34163866060E+01 -0.37626125229E+00  0.12584599667E+00  0.34393469128E+01  0.00000000000E+00 0. -1.
</event>
<event>
 7    1  0.3086024E-009  0.4614232E+02  0.7816164E-02  0.1320468E+00
        -11   -1    0    0    0    0  0.00000000000E+00  0.00000000000E+00  0.45593999997E+02  0.45594000000E+02  0.51100000000E-03 0. -1.
         11   -1    0    0    0    0 -0.00000000000E+00 -0.00000000000E+00 -0.45593999997E+02  0.45594000000E+02  0.51100000000E-03 0.  1.
    9900012    2    1    2    0    0 -0.23442598754E+02  0.37950461922E+02 -0.62705981110E+01  0.46142318774E+02  0.10000009235E+02 0.  0.
         12    1    1    2    0    0  0.23442598754E+02 -0.37950461922E+02  0.62705981110E+01  0.45045681226E+02  0.00000000000E+00 0. -1.
         11    1    3    3    0    0 -0.37251951892E+01  0.93417887901E+01  0.15415783620E+01  0.10174603732E+02  0.51100000000E-03 0. -1.
        -11    1    3    3    0    0 -0.14818083645E+02  0.17791776247E+02 -0.63074111962E+01  0.23998048696E+02  0.51100000000E-03 0.  1.
        -12    1    3    3    0    0 -0.48993199195E+01  0.10816896885E+02 -0.15047652767E+01  0.11969666346E+02  0.00000000000E+00 0.  1.
</event>
<event>
 7    1  0.3086024E-009  0.4614232E+02  0.7816164E-02  0.1320468E+00
        -11   -1    0    0    0    0  0.00000000000E+00  0.00000000000E+00  0.45593999997E+02  0.45594000000E+02  0.51100000000E-03 0. -1.
         11   -1    0    0    0    0 -0.00000000000E+00 -0.00000000000E+00 -0.45593999997E+02  0.45594000000E+02  0.51100000000E-03 0.  1.
    9900012    2    1    2    0    0  0.22844420293E+02 -0.36832976701E+02 -0.12271011300E+02  0.46142318415E+02  0.10000005960E+02 0.  0.
         12    1    1    2    0    0 -0.22844420293E+02  0.36832976701E+02  0.12271011300E+02  0.45045681585E+02  0.00000000000E+00 0. -1.
         11    1    3    3    0    0  0.11775032406E+02 -0.13253775368E+02 -0.64165380635E+01  0.18854334002E+02  0.51100000000E-03 0. -1.
        -11    1    3    3    0    0  0.59571802907E+00 -0.63378928762E+01 -0.24929993566E+01  0.68365789788E+01  0.51100000000E-03 0.  1.
        -12    1    3    3    0    0  0.10473669858E+02 -0.17241308456E+02 -0.33614738801E+01  0.20451405434E+02  0.00000000000E+00 0.  1.
</event>
<event>
 7    1  0.3086024E-009  0.4614232E+02  0.7816164E-02  0.1320468E+00
        -11   -1    0    0    0    0  0.00000000000E+00  0.00000000000E+00  0.45593999997E+02  0.45594000000E+02  0.51100000000E-03 0.  1.
         11   -1    0    0    0    0 -0.00000000000E+00 -0.00000000000E+00 -0.45593999997E+02  0.45594000000E+02  0.51100000000E-03 0. -1.
    9900012    2    1    2    0    0  0.95672091858E+01 -0.26149263927E+02  0.35409010301E+02  0.46142317565E+02  0.99999982158E+01 0.  0.
         12    1    1    2    0    0 -0.95672091858E+01  0.26149263927E+02 -0.35409010301E+02  0.45045682435E+02  0.00000000000E+00 0. -1.
         11    1    3    3    0    0 -0.60492788116E+00 -0.29506182556E+01  0.21035615193E+01  0.36738341223E+01  0.51100000000E-03 0. -1.
        -11    1    3    3    0    0  0.97703118022E-01  0.51365531547E+00  0.31674951221E+00  0.61132495204E+00  0.51100000000E-03 0.  1.
        -12    1    3    3    0    0  0.10074433949E+02 -0.23712300986E+02  0.32988699269E+02  0.41857158491E+02  0.00000000000E+00 0.  1.
</event>
<event>
 7    1  0.3086024E-009  0.4614232E+02  0.7816164E-02  0.1320468E+00
        -11   -1    0    0    0    0  0.00000000000E+00  0.00000000000E+00  0.45593999997E+02  0.45594000000E+02  0.51100000000E-03 0.  1.
         11   -1    0    0    0    0 -0.00000000000E+00 -0.00000000000E+00 -0.45593999997E+02  0.45594000000E+02  0.51100000000E-03 0. -1.
    9900012    2    1    2    0    0  0.13097425804E+02  0.35237716311E+01  0.42955255848E+02  0.46142317252E+02  0.99999953601E+01 0.  0.
         12    1    1    2    0    0 -0.13097425804E+02 -0.35237716311E+01 -0.42955255848E+02  0.45045682748E+02  0.00000000000E+00 0. -1.
         11    1    3    3    0    0  0.21221708589E+01 -0.47791883176E+00  0.38233321693E+01  0.43988503842E+01  0.51100000000E-03 0. -1.
        -11    1    3    3    0    0  0.97691012656E+01  0.39266629018E+01  0.39143660011E+02  0.40534924947E+02  0.51100000000E-03 0.  1.
        -12    1    3    3    0    0  0.12061536799E+01  0.75027561115E-01 -0.11736332381E-01  0.12085419214E+01  0.00000000000E+00 0.  1.
</event>
<event>
 7    1  0.3129519E-009  0.4614232E+02  0.7816164E-02  0.1320468E+00
        -11   -1    0    0    0    0  0.00000000000E+00  0.00000000000E+00  0.45593999997E+02  0.45594000000E+02  0.51100000000E-03 0.  1.
         11   -1    0    0    0    0 -0.00000000000E+00 -0.00000000000E+00 -0.45593999997E+02  0.45594000000E+02  0.51100000000E-03 0. -1.
    9900012    2    1    2    0    0 -0.36590515478E+02 -0.13751015601E+02  0.22386541465E+02  0.46142317723E+02  0.99999996542E+01 0.  0.
         12    1    1    2    0    0  0.36590515478E+02  0.13751015601E+02 -0.22386541465E+02  0.45045682277E+02  0.00000000000E+00 0. -1.
         11    1    3    3    0    0 -0.52249445788E+01 -0.48066462768E+01  0.13286854558E+01  0.72228318257E+01  0.51100000000E-03 0. -1.
        -11    1    3    3    0    0 -0.19375347725E+02 -0.67104557872E+01  0.12399150519E+02  0.23961912490E+02  0.51100000000E-03 0.  1.
         12    1    3    3    0    0 -0.11990223175E+02 -0.22339135366E+01  0.86587054904E+01  0.14957573407E+02  0.00000000000E+00 0. -1.
</event>
<event>
 7    1  0.3086024E-009  0.4614232E+02  0.7816164E-02  0.1320468E+00
        -11   -1    0    0    0    0  0.00000000000E+00  0.00000000000E+00  0.45593999997E+02  0.45594000000E+02  0.51100000000E-03 0.  1.
         11   -1    0    0    0    0 -0.00000000000E+00 -0.00000000000E+00 -0.45593999997E+02  0.45594000000E+02  0.51100000000E-03 0. -1.
    9900012    2    1    2    0    0 -0.22107340834E+02  0.35616670502E+02  0.16487318737E+02  0.46142318569E+02  0.10000007369E+02 0.  0.
         12    1    1    2    0    0  0.22107340834E+02 -0.35616670502E+02 -0.16487318737E+02  0.45045681431E+02  0.00000000000E+00 0. -1.
         11    1    3    3    0    0 -0.13128963103E+02  0.14189130149E+02  0.86869621407E+01  0.21193498957E+02  0.51100000000E-03 0. -1.
        -11    1    3    3    0    0 -0.25840209419E+01  0.27369485607E+01  0.24207376349E+01  0.44752678814E+01  0.51100000000E-03 0.  1.
         12    1    3    3    0    0 -0.63943567894E+01  0.18690591792E+02  0.53796189617E+01  0.20473551731E+02  0.00000000000E+00 0. -1.
</event>
<event>
 7    1  0.3086024E-009  0.4614232E+02  0.7816164E-02  0.1320468E+00
        -11   -1    0    0    0    0  0.00000000000E+00  0.00000000000E+00  0.45593999997E+02  0.45594000000E+02  0.51100000000E-03 0. -1.
         11   -1    0    0    0    0 -0.00000000000E+00 -0.00000000000E+00 -0.45593999997E+02  0.45594000000E+02  0.51100000000E-03 0.  1.
    9900012    2    1    2    0    0  0.28414341455E+01  0.96609374227E+01 -0.43905650222E+02  0.46142316730E+02  0.99999905944E+01 0.  0.
         12    1    1    2    0    0 -0.28414341455E+01 -0.96609374227E+01  0.43905650222E+02  0.45045683270E+02  0.00000000000E+00 0. -1.
         11    1    3    3    0    0  0.57904624647E+00 -0.64142138250E+00 -0.79811186360E+00  0.11763072530E+01  0.51100000000E-03 0. -1.
        -11    1    3    3    0    0  0.46255019319E+01  0.71044172987E+01 -0.24115714046E+02  0.25562387946E+02  0.51100000000E-03 0.  1.
        -12    1    3    3    0    0 -0.23631140328E+01  0.31979415065E+01 -0.18991824312E+02  0.19403621531E+02  0.00000000000E+00 0.  1.
</event>
<event>
 7    1  0.3086024E-009  0.4614232E+02  0.7816164E-02  0.1320468E+00
        -11   -1    0    0    0    0  0.00000000000E+00  0.00000000000E+00  0.45593999997E+02  0.45594000000E+02  0.51100000000E-03 0.  1.
         11   -1    0    0    0    0 -0.00000000000E+00 -0.00000000000E+00 -0.45593999997E+02  0.45594000000E+02  0.51100000000E-03 0. -1.
    9900012    2    1    2    0    0  0.15983321508E+02 -0.37767679847E+02  0.18634625619E+02  0.46142317860E+02  0.10000000906E+02 0.  0.
         12    1    1    2    0    0 -0.15983321508E+02  0.37767679847E+02 -0.18634625619E+02  0.45045682140E+02  0.00000000000E+00 0. -1.
         11    1    3    3    0    0  0.29747658300E+00 -0.70183050969E+01  0.57512259031E+00  0.70481107401E+01  0.51100000000E-03 0. -1.
        -11    1    3    3    0    0  0.13884061704E+02 -0.24594591302E+02  0.14237501190E+02  0.31628587244E+02  0.51100000000E-03 0.  1.
         12    1    3    3    0    0  0.18017832210E+01 -0.61547834487E+01  0.38220018387E+01  0.74656198759E+01  0.00000000000E+00 0. -1.
</event>
<event>
 7    1  0.3086024E-009  0.4614232E+02  0.7816164E-02  0.1320468E+00
        -11   -1    0    0    0    0  0.00000000000E+00  0.00000000000E+00  0.45593999997E+02  0.45594000000E+02  0.51100000000E-03 0. -1.
         11   -1    0    0    0    0 -0.00000000000E+00 -0.00000000000E+00 -0.45593999997E+02  0.45594000000E+02  0.51100000000E-03 0.  1.
    9900012    2    1    2    0    0  0.14210246175E+02 -0.61512880908E+01 -0.42300638277E+02  0.46142318296E+02  0.10000004878E+02 0.  0.
         12    1    1    2    0    0 -0.14210246175E+02  0.61512880908E+01  0.42300638277E+02  0.45045681704E+02  0.00000000000E+00 0. -1.
         11    1    3    3    0    0 -0.80486130176E+00  0.75107786679E-01 -0.39481984877E+00  0.89962540471E+00  0.51100000000E-03 0. -1.
        -11    1    3    3    0    0  0.39042953505E+01 -0.32867992674E+01 -0.84929908683E+01  0.99084542567E+01  0.51100000000E-03 0.  1.
        -12    1    3    3    0    0  0.11110812126E+02 -0.29395966101E+01 -0.33412827560E+02  0.35334238635E+02  0.00000000000E+00 0.  1.
</event>
<event>
 7    1  0.3086024E-009  0.4614232E+02  0.7816164E-02  0.1320468E+00
        -11   -1    0    0    0    0  0.00000000000E+00  0.00000000000E+00  0.45593999997E+02  0.45594000000E+02  0.51100000000E-03 0. -1.
         11   -1    0    0    0    0 -0.00000000000E+00 -0.00000000000E+00 -0.45593999997E+02  0.45594000000E+02  0.51100000000E-03 0.  1.
    9900012    2    1    2    0    0 -0.25830550317E+02 -0.35848160627E+02  0.87638601755E+01  0.46142321016E+02  0.10000029677E+02 0.  0.
         12    1    1    2    0    0  0.25830550317E+02  0.35848160627E+02 -0.87638601755E+01  0.45045678984E+02  0.00000000000E+00 0. -1.
         11    1    3    3    0    0 -0.18607606265E+01 -0.29006298074E+01  0.25374645396E+01  0.42795805798E+01  0.51100000000E-03 0. -1.
        -11    1    3    3    0    0 -0.19318732160E+02 -0.30525936728E+02  0.59464921240E+01  0.36611569131E+02  0.51100000000E-03 0.  1.
        -12    1    3    3    0    0 -0.46510575310E+01 -0.24215940913E+01  0.27990351188E+00  0.52511713051E+01  0.00000000000E+00 0.  1.
</event>
<event>
 7    1  0.3086024E-009  0.4614232E+02  0.7816164E-02  0.1320468E+00
        -11   -1    0    0    0    0  0.00000000000E+00  0.00000000000E+00  0.45593999997E+02  0.45594000000E+02  0.51100000000E-03 0.  1.
         11   -1    0    0    0    0 -0.00000000000E+00 -0.00000000000E+00 -0.45593999997E+02  0.45594000000E+02  0.51100000000E-03 0. -1.
    9900012    2    1    2    0    0  0.79096147788E+01 -0.67225176882E+01  0.43833311878E+02  0.46142317851E+02  0.10000000823E+02 0.  0.
         12    1    1    2    0    0 -0.79096147788E+01  0.67225176882E+01 -0.43833311878E+02  0.45045682149E+02  0.00000000000E+00 0. -1.
         11    1    3    3    0    0  0.83855381205E+00 -0.25851097738E+01  0.99572652402E+01  0.10321487120E+02  0.51100000000E-03 0. -1.
        -11    1    3    3    0    0  0.23230640733E+00  0.51244945913E+00  0.17177285790E+02  0.17186498133E+02  0.51100000000E-03 0.  1.
        -12    1    3    3    0    0  0.68387545594E+01 -0.46498573735E+01  0.16698760848E+02  0.18634332598E+02  0.00000000000E+00 0.  1.
</event>
<event>
 7    1  0.3086024E-009  0.4614232E+02  0.7816164E-02  0.1320468E+00
        -11   -1    0    0    0    0  0.00000000000E+00  0.00000000000E+00  0.45593999997E+02  0.45594000000E+02  0.51100000000E-03 0. -1.
         11   -1    0    0    0    0 -0.00000000000E+00 -0.00000000000E+00 -0.45593999997E+02  0.45594000000E+02  0.51100000000E-03 0.  1.
    9900012    2    1    2    0    0 -0.32338415502E+02  0.35334210695E+01 -0.31158551429E+02  0.46142317534E+02  0.99999979314E+01 0.  0.
         12    1    1    2    0    0  0.32338415502E+02 -0.35334210695E+01  0.31158551429E+02  0.45045682466E+02  0.00000000000E+00 0. -1.
         11    1    3    3    0    0 -0.87183499844E+01 -0.14935978689E+00 -0.13734873843E+02  0.16268948784E+02  0.51100000000E-03 0. -1.
        -11    1    3    3    0    0 -0.15025442845E+02  0.32673165413E+01 -0.13305055758E+02  0.20333809261E+02  0.51100000000E-03 0.  1.
         12    1    3    3    0    0 -0.85946226731E+01  0.41546431512E+00 -0.41186218276E+01  0.95395594893E+01  0.00000000000E+00 0. -1.
</event>
<event>
 7    1  0.3086024E-009  0.4614232E+02  0.7816164E-02  0.1320468E+00
        -11   -1    0    0    0    0  0.00000000000E+00  0.00000000000E+00  0.45593999997E+02  0.45594000000E+02  0.51100000000E-03 0. -1.
         11   -1    0    0    0    0 -0.00000000000E+00 -0.00000000000E+00 -0.45593999997E+02  0.45594000000E+02  0.51100000000E-03 0.  1.
    9900012    2    1    2    0    0 -0.44814601471E+02  0.22728975482E+01 -0.39495498528E+01  0.46142317495E+02  0.99999975737E+01 0.  0.
         12    1    1    2    0    0  0.44814601471E+02 -0.22728975482E+01  0.39495498528E+01  0.45045682505E+02  0.00000000000E+00 0. -1.
         11    1    3    3    0    0 -0.18325722512E+02  0.47901792995E+01 -0.44754690629E+01  0.19462984018E+02  0.51100000000E-03 0. -1.
        -11    1    3    3    0    0 -0.57903908272E+01 -0.69237457733E+00 -0.64733225240E+00  0.58674566716E+01  0.51100000000E-03 0.  1.
         12    1    3    3    0    0 -0.20698488132E+02 -0.18249071740E+01  0.11732514625E+01  0.20811876805E+02  0.00000000000E+00 0. -1.
</event>
<event>
 7    1  0.3086024E-009  0.4614232E+02  0.7816164E-02  0.1320468E+00
        -11   -1    0    0    0    0  0.00000000000E+00  0.00000000000E+00  0.45593999997E+02  0.45594000000E+02  0.51100000000E-03 0. -1.
         11   -1    0    0    0    0 -0.00000000000E+00 -0.00000000000E+00 -0.45593999997E+02  0.45594000000E+02  0.51100000000E-03 0.  1.
    9900012    2    1    2    0    0 -0.44097235797E+02 -0.91577677429E+01 -0.82616889696E+00  0.46142317965E+02  0.10000001860E+02 0.  0.
         12    1    1    2    0    0  0.44097235797E+02  0.91577677429E+01  0.82616889696E+00  0.45045682035E+02  0.00000000000E+00 0. -1.
         11    1    3    3    0    0 -0.13053775557E+01 -0.18511821469E+00 -0.12953441130E+01  0.18482954170E+01  0.51100000000E-03 0. -1.
        -11    1    3    3    0    0 -0.32670024076E+02 -0.67854984873E+01 -0.26681693348E+01  0.33473759734E+02  0.51100000000E-03 0.  1.
        -12    1    3    3    0    0 -0.10121834165E+02 -0.21871510409E+01  0.31373445509E+01  0.10820262814E+02  0.00000000000E+00 0.  1.
</event>
<event>
 7    1  0.3086024E-009  0.4614232E+02  0.7816164E-02  0.1320468E+00
        -11   -1    0    0    0    0  0.00000000000E+00  0.00000000000E+00  0.45593999997E+02  0.45594000000E+02  0.51100000000E-03 0.  1.
         11   -1    0    0    0    0 -0.00000000000E+00 -0.00000000000E+00 -0.45593999997E+02  0.45594000000E+02  0.51100000000E-03 0. -1.
    9900012    2    1    2    0    0  0.41642947399E+02  0.11623420545E+01  0.17135558419E+02  0.46142317971E+02  0.10000001917E+02 0.  0.
         12    1    1    2    0    0 -0.41642947399E+02 -0.11623420545E+01 -0.17135558419E+02  0.45045682029E+02  0.00000000000E+00 0. -1.
         11    1    3    3    0    0  0.29593224131E+01 -0.18271038234E+01  0.31476097613E+01  0.46907723241E+01  0.51100000000E-03 0. -1.
        -11    1    3    3    0    0  0.26640683057E+02  0.35062059519E+01  0.10984856755E+02  0.29029063920E+02  0.51100000000E-03 0.  1.
         12    1    3    3    0    0  0.12042941929E+02 -0.51676007402E+00  0.30030919023E+01  0.12422481727E+02  0.00000000000E+00 0. -1.
</event>
<event>
 7    1  0.3086024E-009  0.4614232E+02  0.7816164E-02  0.1320468E+00
        -11   -1    0    0    0    0  0.00000000000E+00  0.00000000000E+00  0.45593999997E+02  0.45594000000E+02  0.51100000000E-03 0.  1.
         11   -1    0    0    0    0 -0.00000000000E+00 -0.00000000000E+00 -0.45593999997E+02  0.45594000000E+02  0.51100000000E-03 0. -1.
    9900012    2    1    2    0    0 -0.40296447604E+02 -0.61410745385E+01  0.19172818883E+02  0.46142317966E+02  0.10000001866E+02 0.  0.
         12    1    1    2    0    0  0.40296447604E+02  0.61410745385E+01 -0.19172818883E+02  0.45045682034E+02  0.00000000000E+00 0. -1.
         11    1    3    3    0    0 -0.12075788031E+02 -0.32906109215E+01  0.24408285176E+01  0.12751879113E+02  0.51100000000E-03 0. -1.
        -11    1    3    3    0    0 -0.13392652782E+02 -0.21600706372E+01  0.11047953698E+02  0.17495323229E+02  0.51100000000E-03 0.  1.
        -12    1    3    3    0    0 -0.14828006791E+02 -0.69039297983E+00  0.56840366680E+01  0.15895115624E+02  0.00000000000E+00 0.  1.
</event>
<event>
 7    1  0.3086024E-009  0.4614232E+02  0.7816164E-02  0.1320468E+00
        -11   -1    0    0    0    0  0.00000000000E+00  0.00000000000E+00  0.45593999997E+02  0.45594000000E+02  0.51100000000E-03 0.  1.
         11   -1    0    0    0    0 -0.00000000000E+00 -0.00000000000E+00 -0.45593999997E+02  0.45594000000E+02  0.51100000000E-03 0. -1.
    9900012    2    1    2    0    0  0.28974277434E+02  0.21543232227E+02  0.26934994352E+02  0.46142317317E+02  0.99999959527E+01 0.  0.
         12    1    1    2    0    0 -0.28974277434E+02 -0.21543232227E+02 -0.26934994352E+02  0.45045682683E+02  0.00000000000E+00 0. -1.
         11    1    3    3    0    0  0.29535235610E+01  0.61244488485E+01  0.39300592232E+01  0.78535050062E+01  0.51100000000E-03 0. -1.
        -11    1    3    3    0    0  0.17324172742E+02  0.12748258306E+02  0.16287548783E+02  0.26980164874E+02  0.51100000000E-03 0.  1.
        -12    1    3    3    0    0  0.86965811310E+01  0.26705250731E+01  0.67173863460E+01  0.11308647437E+02  0.00000000000E+00 0.  1.
</event>
<event>
 7    1  0.3086024E-009  0.4614232E+02  0.7816164E-02  0.1320468E+00
        -11   -1    0    0    0    0  0.00000000000E+00  0.00000000000E+00  0.45593999997E+02  0.45594000000E+02  0.51100000000E-03 0. -1.
         11   -1    0    0    0    0 -0.00000000000E+00 -0.00000000000E+00 -0.45593999997E+02  0.45594000000E+02  0.51100000000E-03 0.  1.
    9900012    2    1    2    0    0  0.20609281321E+02  0.31622493885E+02 -0.24584325198E+02  0.46142316061E+02  0.99999844997E+01 0.  0.
         12    1    1    2    0    0 -0.20609281321E+02 -0.31622493885E+02  0.24584325198E+02  0.45045683939E+02  0.00000000000E+00 0. -1.
         11    1    3    3    0    0  0.12934508918E+02  0.17862229891E+02 -0.19331800556E+02  0.29327108460E+02  0.51100000000E-03 0. -1.
        -11    1    3    3    0    0  0.10464209234E+01  0.12110126931E+01  0.19729749047E+00  0.16125988505E+01  0.51100000000E-03 0.  1.
        -12    1    3    3    0    0  0.66283514796E+01  0.12549251301E+02 -0.54498221318E+01  0.15202608750E+02  0.00000000000E+00 0.  1.
</event>
<event>
 7    1  0.3086024E-009  0.4614232E+02  0.7816164E-02  0.1320468E+00
        -11   -1    0    0    0    0  0.00000000000E+00  0.00000000000E+00  0.45593999997E+02  0.45594000000E+02  0.51100000000E-03 0.  1.
         11   -1    0    0    0    0 -0.00000000000E+00 -0.00000000000E+00 -0.45593999997E+02  0.45594000000E+02  0.51100000000E-03 0. -1.
    9900012    2    1    2    0    0  0.23936126263E+02  0.42292041130E+01  0.37924783884E+02  0.46142317182E+02  0.99999947174E+01 0.  0.
         12    1    1    2    0    0 -0.23936126263E+02 -0.42292041130E+01 -0.37924783884E+02  0.45045682818E+02  0.00000000000E+00 0. -1.
         11    1    3    3    0    0 -0.54458674207E+00 -0.14114053226E+00  0.29670125285E+01  0.30198773112E+01  0.51100000000E-03 0. -1.
        -11    1    3    3    0    0  0.17963340200E+02  0.18061575027E+01  0.22689547926E+02  0.28995851107E+02  0.51100000000E-03 0.  1.
         12    1    3    3    0    0  0.65173728052E+01  0.25641871426E+01  0.12268223429E+02  0.14126588764E+02  0.00000000000E+00 0. -1.
</event>
<event>
 7    1  0.3086024E-009  0.4614232E+02  0.7816164E-02  0.1320468E+00
        -11   -1    0    0    0    0  0.00000000000E+00  0.00000000000E+00  0.45593999997E+02  0.45594000000E+02  0.51100000000E-03 0.  1.
         11   -1    0    0    0    0 -0.00000000000E+00 -0.00000000000E+00 -0.45593999997E+02  0.45594000000E+02  0.51100000000E-03 0. -1.
    9900012    2    1    2    0    0 -0.17663414253E+02 -0.10860210407E+02  0.39989661655E+02  0.46142318604E+02  0.10000007685E+02 0.  0.
         12    1    1    2    0    0  0.17663414253E+02  0.10860210407E+02 -0.39989661655E+02  0.45045681396E+02  0.00000000000E+00 0. -1.
         11    1    3    3    0    0 -0.12533573226E+02 -0.78181871167E+01  0.19552492876E+02  0.24505397069E+02  0.51100000000E-03 0. -1.
        -11    1    3    3    0    0 -0.27374437903E+01  0.51165152874E+00  0.70097868928E+01  0.75427116036E+01  0.51100000000E-03 0.  1.
         12    1    3    3    0    0 -0.23923972372E+01 -0.35536748189E+01  0.13427381886E+02  0.14094209931E+02  0.00000000000E+00 0. -1.
</event>
<event>
 7    1  0.3086024E-009  0.4614232E+02  0.7816164E-02  0.1320468E+00
        -11   -1    0    0    0    0  0.00000000000E+00  0.00000000000E+00  0.45593999997E+02  0.45594000000E+02  0.51100000000E-03 0.  1.
         11   -1    0    0    0    0 -0.00000000000E+00 -0.00000000000E+00 -0.45593999997E+02  0.45594000000E+02  0.51100000000E-03 0. -1.
    9900012    2    1    2    0    0  0.38402000687E+02  0.12908635939E+02  0.19691794018E+02  0.46142319961E+02  0.10000020058E+02 0.  0.
         12    1    1    2    0    0 -0.38402000687E+02 -0.12908635939E+02 -0.19691794018E+02  0.45045680039E+02  0.00000000000E+00 0. -1.
         11    1    3    3    0    0  0.13455507080E+02  0.48477232172E+01  0.11607647621E+02  0.18419787586E+02  0.51100000000E-03 0. -1.
        -11    1    3    3    0    0  0.20336393580E+02  0.55269657027E+01  0.77407586566E+01  0.22450737150E+02  0.51100000000E-03 0.  1.
         12    1    3    3    0    0  0.46101000267E+01  0.25339470194E+01  0.34338774044E+00  0.52717952249E+01  0.00000000000E+00 0. -1.
</event>
<event>
 7    1  0.3086024E-009  0.4614232E+02  0.7816164E-02  0.1320468E+00
        -11   -1    0    0    0    0  0.00000000000E+00  0.00000000000E+00  0.45593999997E+02  0.45594000000E+02  0.51100000000E-03 0. -1.
         11   -1    0    0    0    0 -0.00000000000E+00 -0.00000000000E+00 -0.45593999997E+02  0.45594000000E+02  0.51100000000E-03 0.  1.
    9900012    2    1    2    0    0  0.12045387400E+02 -0.43002765886E+02 -0.58978334444E+01  0.46142315736E+02  0.99999815300E+01 0.  0.
         12    1    1    2    0    0 -0.12045387400E+02  0.43002765886E+02  0.58978334444E+01  0.45045684264E+02  0.00000000000E+00 0. -1.
         11    1    3    3    0    0 -0.10577204086E+01 -0.36576976352E+01  0.62226627652E+00  0.38580746537E+01  0.51100000000E-03 0. -1.
        -11    1    3    3    0    0  0.95502411001E+01 -0.34101934240E+02 -0.49424021464E+01  0.35757186176E+02  0.51100000000E-03 0.  1.
        -12    1    3    3    0    0  0.35528667086E+01 -0.52431340108E+01 -0.15776975744E+01  0.65270549057E+01  0.00000000000E+00 0.  1.
</event>
<event>
 7    1  0.3086024E-009  0.4614232E+02  0.7816164E-02  0.1320468E+00
        -11   -1    0    0    0    0  0.00000000000E+00  0.00000000000E+00  0.45593999997E+02  0.45594000000E+02  0.51100000000E-03 0.  1.
         11   -1    0    0    0    0 -0.00000000000E+00 -0.00000000000E+00 -0.45593999997E+02  0.45594000000E+02  0.51100000000E-03 0. -1.
    9900012    2    1    2    0    0  0.14881111869E+02  0.42500831974E+02  0.11597479874E+01  0.46142320691E+02  0.10000026720E+02 0.  0.
         12    1    1    2    0    0 -0.14881111869E+02 -0.42500831974E+02 -0.11597479874E+01  0.45045679309E+02  0.00000000000E+00 0. -1.
         11    1    3    3    0    0 -0.41987352337E+00  0.15452481281E+01  0.29280975418E+00  0.16278278061E+01  0.51100000000E-03 0. -1.
        -11    1    3    3    0    0  0.25062224260E+01  0.95223470820E+01 -0.31544207111E+01  0.10339565517E+02  0.51100000000E-03 0.  1.
        -12    1    3    3    0    0  0.12794762967E+02  0.31433236764E+02  0.40213589443E+01  0.34174927368E+02  0.00000000000E+00 0.  1.
</event>
<event>
 7    1  0.3086024E-009  0.4614232E+02  0.7816164E-02  0.1320468E+00
        -11   -1    0    0    0    0  0.00000000000E+00  0.00000000000E+00  0.45593999997E+02  0.45594000000E+02  0.51100000000E-03 0.  1.
         11   -1    0    0    0    0 -0.00000000000E+00 -0.00000000000E+00 -0.45593999997E+02  0.45594000000E+02  0.51100000000E-03 0. -1.
    9900012    2    1    2    0    0  0.44022837319E+02 -0.18670196862E+01  0.93604232751E+01  0.46142317721E+02  0.99999996320E+01 0.  0.
         12    1    1    2    0    0 -0.44022837319E+02  0.18670196862E+01 -0.93604232751E+01  0.45045682279E+02  0.00000000000E+00 0. -1.
         11    1    3    3    0    0  0.14027332839E+02 -0.36826611509E+01  0.52813609813E+00  0.14512304700E+02  0.51100000000E-03 0. -1.
        -11    1    3    3    0    0  0.15887884073E+02  0.22809774807E+01  0.28616328135E+01  0.16303884850E+02  0.51100000000E-03 0.  1.
         12    1    3    3    0    0  0.14107620408E+02 -0.46533601595E+00  0.59706543636E+01  0.15326128171E+02  0.00000000000E+00 0. -1.
</event>
<event>
 7    1  0.3086024E-009  0.4614232E+02  0.7816164E-02  0.1320468E+00
        -11   -1    0    0    0    0  0.00000000000E+00  0.00000000000E+00  0.45593999997E+02  0.45594000000E+02  0.51100000000E-03 0.  1.
         11   -1    0    0    0    0 -0.00000000000E+00 -0.00000000000E+00 -0.45593999997E+02  0.45594000000E+02  0.51100000000E-03 0. -1.
    9900012    2    1    2    0    0  0.11046240480E+02 -0.36082883606E+02  0.24599180045E+02  0.46142316778E+02  0.99999910348E+01 0.  0.
         12    1    1    2    0    0 -0.11046240480E+02  0.36082883606E+02 -0.24599180045E+02  0.45045683222E+02  0.00000000000E+00 0. -1.
         11    1    3    3    0    0 -0.34362056846E+00 -0.57310852677E+00  0.21334527159E+00  0.70145915387E+00  0.51100000000E-03 0. -1.
        -11    1    3    3    0    0  0.10122616322E+02 -0.31697906448E+02  0.17826650236E+02  0.37749358846E+02  0.51100000000E-03 0.  1.
        -12    1    3    3    0    0  0.12672447271E+01 -0.38118686311E+01  0.65591845376E+01  0.76914987783E+01  0.00000000000E+00 0.  1.
</event>
<event>
 7    1  0.3086024E-009  0.4614232E+02  0.7816164E-02  0.1320468E+00
        -11   -1    0    0    0    0  0.00000000000E+00  0.00000000000E+00  0.45593999997E+02  0.45594000000E+02  0.51100000000E-03 0.  1.
         11   -1    0    0    0    0 -0.00000000000E+00 -0.00000000000E+00 -0.45593999997E+02  0.45594000000E+02  0.51100000000E-03 0. -1.
    9900012    2    1    2    0    0 -0.27486282045E+02 -0.10142188402E+02  0.34216279396E+02  0.46142318055E+02  0.10000002675E+02 0.  0.
         12    1    1    2    0    0  0.27486282045E+02  0.10142188402E+02 -0.34216279396E+02  0.45045681945E+02  0.00000000000E+00 0. -1.
         11    1    3    3    0    0 -0.36702482834E+01 -0.14912610951E+01  0.10540024578E+01  0.40994516166E+01  0.51100000000E-03 0. -1.
        -11    1    3    3    0    0 -0.15671831228E+02 -0.72378560616E+01  0.19216846789E+02  0.25831764462E+02  0.51100000000E-03 0.  1.
         12    1    3    3    0    0 -0.81442025331E+01 -0.14130712456E+01  0.13945430149E+02  0.16211101976E+02  0.00000000000E+00 0. -1.
</event>
<event>
 7    1  0.3086024E-009  0.4614232E+02  0.7816164E-02  0.1320468E+00
        -11   -1    0    0    0    0  0.00000000000E+00  0.00000000000E+00  0.45593999997E+02  0.45594000000E+02  0.51100000000E-03 0.  1.
         11   -1    0    0    0    0 -0.00000000000E+00 -0.00000000000E+00 -0.45593999997E+02  0.45594000000E+02  0.51100000000E-03 0. -1.
    9900012    2    1    2    0    0 -0.75483109864E+01  0.57490367772E+01  0.44035043090E+02  0.46142318270E+02  0.10000004641E+02 0.  0.
         12    1    1    2    0    0  0.75483109864E+01 -0.57490367772E+01 -0.44035043090E+02  0.45045681730E+02  0.00000000000E+00 0. -1.
         11    1    3    3    0    0 -0.42936517658E+01 -0.14795156273E+01  0.81668502761E+01  0.93446164004E+01  0.51100000000E-03 0. -1.
        -11    1    3    3    0    0 -0.31994344209E+01  0.56421545483E+01  0.25672993568E+02  0.26479669325E+02  0.51100000000E-03 0.  1.
         12    1    3    3    0    0 -0.55224799682E-01  0.15863978562E+01  0.10195199246E+02  0.10318032545E+02  0.00000000000E+00 0. -1.
</event>
<event>
 7    1  0.3086024E-009  0.4614232E+02  0.7816164E-02  0.1320468E+00
        -11   -1    0    0    0    0  0.00000000000E+00  0.00000000000E+00  0.45593999997E+02  0.45594000000E+02  0.51100000000E-03 0.  1.
         11   -1    0    0    0    0 -0.00000000000E+00 -0.00000000000E+00 -0.45593999997E+02  0.45594000000E+02  0.51100000000E-03 0. -1.
    9900012    2    1    2    0    0 -0.11145971544E+02 -0.34189690290E+02  0.27128325944E+02  0.46142315719E+02  0.99999813815E+01 0.  0.
         12    1    1    2    0    0  0.11145971544E+02  0.34189690290E+02 -0.27128325944E+02  0.45045684281E+02  0.00000000000E+00 0. -1.
         11    1    3    3    0    0 -0.33684842405E+01 -0.68466466701E+01  0.93949351331E+01  0.12103225319E+02  0.51100000000E-03 0.  1.
        -11    1    3    3    0    0 -0.16014971763E+01 -0.57085638235E+01  0.10300708092E+01  0.60177687116E+01  0.51100000000E-03 0. -1.
         12    1    3    3    0    0 -0.61759901269E+01 -0.21634479796E+02  0.16703320002E+02  0.28021321689E+02  0.00000000000E+00 0. -1.
</event>
<event>
 7    1  0.3086024E-009  0.4614232E+02  0.7816164E-02  0.1320468E+00
        -11   -1    0    0    0    0  0.00000000000E+00  0.00000000000E+00  0.45593999997E+02  0.45594000000E+02  0.51100000000E-03 0.  1.
         11   -1    0    0    0    0 -0.00000000000E+00 -0.00000000000E+00 -0.45593999997E+02  0.45594000000E+02  0.51100000000E-03 0. -1.
    9900012    2    1    2    0    0 -0.33812059612E+02 -0.29531600845E+02  0.37071302137E+01  0.46142316100E+02  0.99999848506E+01 0.  0.
         12    1    1    2    0    0  0.33812059612E+02  0.29531600845E+02 -0.37071302137E+01  0.45045683900E+02  0.00000000000E+00 0. -1.
         11    1    3    3    0    0 -0.21098231708E+02 -0.17253233076E+02  0.23402074070E+01  0.27354816829E+02  0.51100000000E-03 0.  1.
        -11    1    3    3    0    0 -0.50350125202E+01 -0.91518373289E+01  0.65079987175E+00  0.10465706775E+02  0.51100000000E-03 0. -1.
        -12    1    3    3    0    0 -0.76788153829E+01 -0.31265304400E+01  0.71612293496E+00  0.83217924953E+01  0.00000000000E+00 0.  1.
</event>
<event>
 7    1  0.3086024E-009  0.4614232E+02  0.7816164E-02  0.1320468E+00
        -11   -1    0    0    0    0  0.00000000000E+00  0.00000000000E+00  0.45593999997E+02  0.45594000000E+02  0.51100000000E-03 0.  1.
         11   -1    0    0    0    0 -0.00000000000E+00 -0.00000000000E+00 -0.45593999997E+02  0.45594000000E+02  0.51100000000E-03 0. -1.
    9900012    2    1    2    0    0  0.38108380564E+02 -0.23577006148E+02  0.45814375778E+01  0.46142318094E+02  0.10000003040E+02 0.  0.
         12    1    1    2    0    0 -0.38108380564E+02  0.23577006148E+02 -0.45814375778E+01  0.45045681906E+02  0.00000000000E+00 0. -1.
         11    1    3    3    0    0  0.71732304883E+01 -0.37467150929E+01  0.27837845131E+01  0.85581870804E+01  0.51100000000E-03 0. -1.
        -11    1    3    3    0    0  0.12957241570E+02 -0.95300438720E+01  0.44670928932E+01  0.16693314964E+02  0.51100000000E-03 0.  1.
        -12    1    3    3    0    0  0.17977908505E+02 -0.10300247183E+02 -0.26694398285E+01  0.20890816050E+02  0.00000000000E+00 0.  1.
</event>
<event>
 7    1  0.3086024E-009  0.4614232E+02  0.7816164E-02  0.1320468E+00
        -11   -1    0    0    0    0  0.00000000000E+00  0.00000000000E+00  0.45593999997E+02  0.45594000000E+02  0.51100000000E-03 0. -1.
         11   -1    0    0    0    0 -0.00000000000E+00 -0.00000000000E+00 -0.45593999997E+02  0.45594000000E+02  0.51100000000E-03 0.  1.
    9900012    2    1    2    0    0  0.31643597035E+02  0.12954480615E+02 -0.29325377360E+02  0.46142316982E+02  0.99999928919E+01 0.  0.
         12    1    1    2    0    0 -0.31643597035E+02 -0.12954480615E+02  0.29325377360E+02  0.45045683018E+02  0.00000000000E+00 0. -1.
         11    1    3    3    0    0  0.20405924604E+01  0.29622372518E+01 -0.19223812337E+01  0.40785312300E+01  0.51100000000E-03 0. -1.
        -11    1    3    3    0    0  0.98017482570E+01  0.44694581984E+01 -0.57674878348E+01  0.12219420676E+02  0.51100000000E-03 0.  1.
         12    1    3    3    0    0  0.19801256317E+02  0.55227851647E+01 -0.21635508291E+02  0.29844365075E+02  0.00000000000E+00 0. -1.
</event>
<event>
 7    1  0.3086024E-009  0.4614232E+02  0.7816164E-02  0.1320468E+00
        -11   -1    0    0    0    0  0.00000000000E+00  0.00000000000E+00  0.45593999997E+02  0.45594000000E+02  0.51100000000E-03 0. -1.
         11   -1    0    0    0    0 -0.00000000000E+00 -0.00000000000E+00 -0.45593999997E+02  0.45594000000E+02  0.51100000000E-03 0.  1.
    9900012    2    1    2    0    0 -0.20817278884E+02 -0.15012441037E+02 -0.37018658097E+02  0.46142317262E+02  0.99999954506E+01 0.  0.
         12    1    1    2    0    0  0.20817278884E+02  0.15012441037E+02  0.37018658097E+02  0.45045682738E+02  0.00000000000E+00 0. -1.
         11    1    3    3    0    0 -0.74402661065E+01 -0.52379784116E+01 -0.18044602647E+02  0.20208950060E+02  0.51100000000E-03 0. -1.
        -11    1    3    3    0    0 -0.10299875104E+02 -0.38988658687E+01 -0.12596697860E+02  0.16732166012E+02  0.51100000000E-03 0.  1.
         12    1    3    3    0    0 -0.30771376734E+01 -0.58755967571E+01 -0.63773575894E+01  0.92012011899E+01  0.00000000000E+00 0. -1.
</event>
<event>
 7    1  0.3086024E-009  0.4614232E+02  0.7816164E-02  0.1320468E+00
        -11   -1    0    0    0    0  0.00000000000E+00  0.00000000000E+00  0.45593999997E+02  0.45594000000E+02  0.51100000000E-03 0.  1.
         11   -1    0    0    0    0 -0.00000000000E+00 -0.00000000000E+00 -0.45593999997E+02  0.45594000000E+02  0.51100000000E-03 0. -1.
    9900012    2    1    2    0    0  0.17347476492E+02  0.40997757892E+02  0.68820306464E+01  0.46142318313E+02  0.10000005037E+02 0.  0.
         12    1    1    2    0    0 -0.17347476492E+02 -0.40997757892E+02 -0.68820306464E+01  0.45045681687E+02  0.00000000000E+00 0. -1.
         11    1    3    3    0    0  0.78598860180E+01  0.79317686920E+01  0.22848546435E+01  0.11397864879E+02  0.51100000000E-03 0. -1.
        -11    1    3    3    0    0  0.87933440725E+01  0.28689357436E+02  0.40906462928E+01  0.30284245366E+02  0.51100000000E-03 0.  1.
         12    1    3    3    0    0  0.69424640179E+00  0.43766317637E+01  0.50652971007E+00  0.44602080679E+01  0.00000000000E+00 0. -1.
</event>
<event>
 7    1  0.3086024E-009  0.4614232E+02  0.7816164E-02  0.1320468E+00
        -11   -1    0    0    0    0  0.00000000000E+00  0.00000000000E+00  0.45593999997E+02  0.45594000000E+02  0.51100000000E-03 0.  1.
         11   -1    0    0    0    0 -0.00000000000E+00 -0.00000000000E+00 -0.45593999997E+02  0.45594000000E+02  0.51100000000E-03 0. -1.
    9900012    2    1    2    0    0 -0.34872586371E+02  0.62183954080E+01  0.27827104932E+02  0.46142317737E+02  0.99999997794E+01 0.  0.
         12    1    1    2    0    0  0.34872586371E+02 -0.62183954080E+01 -0.27827104932E+02  0.45045682263E+02  0.00000000000E+00 0. -1.
         11    1    3    3    0    0 -0.53984740829E+01  0.15681951332E+01  0.49811790616E+00  0.56436583976E+01  0.51100000000E-03 0. -1.
        -11    1    3    3    0    0 -0.20451627898E+02  0.29737994846E+01  0.19923615310E+02  0.28706497772E+02  0.51100000000E-03 0.  1.
         12    1    3    3    0    0 -0.90224843904E+01  0.16764007902E+01  0.74053717153E+01  0.11792161567E+02  0.00000000000E+00 0. -1.
</event>
<event>
 7    1  0.3086024E-009  0.4614232E+02  0.7816164E-02  0.1320468E+00
        -11   -1    0    0    0    0  0.00000000000E+00  0.00000000000E+00  0.45593999997E+02  0.45594000000E+02  0.51100000000E-03 0. -1.
         11   -1    0    0    0    0 -0.00000000000E+00 -0.00000000000E+00 -0.45593999997E+02  0.45594000000E+02  0.51100000000E-03 0.  1.
    9900012    2    1    2    0    0 -0.96748500859E+01 -0.14281937390E+02 -0.41611742351E+02  0.46142316952E+02  0.99999926177E+01 0.  0.
         12    1    1    2    0    0  0.96748500859E+01  0.14281937390E+02  0.41611742351E+02  0.45045683048E+02  0.00000000000E+00 0. -1.
         11    1    3    3    0    0 -0.16195818142E+01 -0.49353341431E+01 -0.88183848156E+01  0.10234475041E+02  0.51100000000E-03 0.  1.
        -11    1    3    3    0    0 -0.50318721445E+01 -0.60674120588E+01 -0.10265622381E+02  0.12942806090E+02  0.51100000000E-03 0. -1.
        -12    1    3    3    0    0 -0.30233961273E+01 -0.32791911884E+01 -0.22527735155E+02  0.22965035820E+02  0.00000000000E+00 0.  1.
</event>
<event>
 7    1  0.3165517E-009  0.4614232E+02  0.7816164E-02  0.1320468E+00
        -11   -1    0    0    0    0  0.00000000000E+00  0.00000000000E+00  0.45593999997E+02  0.45594000000E+02  0.51100000000E-03 0. -1.
         11   -1    0    0    0    0 -0.00000000000E+00 -0.00000000000E+00 -0.45593999997E+02  0.45594000000E+02  0.51100000000E-03 0.  1.
    9900012    2    1    2    0    0  0.43667377186E+02  0.12731214131E+01 -0.10984195163E+02  0.46142320831E+02  0.10000027995E+02 0.  0.
         12    1    1    2    0    0 -0.43667377186E+02 -0.12731214131E+01  0.10984195163E+02  0.45045679169E+02  0.00000000000E+00 0. -1.
         11    1    3    3    0    0 -0.18334537183E+00  0.35398231063E-01  0.34552535938E+00  0.39275513393E+00  0.51100000000E-03 0. -1.
        -11    1    3    3    0    0  0.36358537782E+02  0.95787557353E-01 -0.70167140721E+01  0.37029538500E+02  0.51100000000E-03 0.  1.
        -12    1    3    3    0    0  0.74921847758E+01  0.11419356247E+01 -0.43130064498E+01  0.87200271973E+01  0.00000000000E+00 0.  1.
</event>
<event>
 7    1  0.3086024E-009  0.4614232E+02  0.7816164E-02  0.1320468E+00
        -11   -1    0    0    0    0  0.00000000000E+00  0.00000000000E+00  0.45593999997E+02  0.45594000000E+02  0.51100000000E-03 0.  1.
         11   -1    0    0    0    0 -0.00000000000E+00 -0.00000000000E+00 -0.45593999997E+02  0.45594000000E+02  0.51100000000E-03 0. -1.
    9900012    2    1    2    0    0 -0.12447874454E+02 -0.33778309497E+02  0.27077474653E+02  0.46142318692E+02  0.10000008488E+02 0.  0.
         12    1    1    2    0    0  0.12447874454E+02  0.33778309497E+02 -0.27077474653E+02  0.45045681308E+02  0.00000000000E+00 0. -1.
         11    1    3    3    0    0 -0.56831871482E+01 -0.18900786610E+02  0.18169912039E+02  0.26826927785E+02  0.51100000000E-03 0.  1.
        -11    1    3    3    0    0 -0.17027573815E+01 -0.33601859252E+00  0.10576104770E+01  0.20324446799E+01  0.51100000000E-03 0. -1.
        -12    1    3    3    0    0 -0.50619299239E+01 -0.14541504295E+02  0.78499521369E+01  0.17282946227E+02  0.00000000000E+00 0.  1.
</event>
<event>
 7    1  0.3086024E-009  0.4614232E+02  0.7816164E-02  0.1320468E+00
        -11   -1    0    0    0    0  0.00000000000E+00  0.00000000000E+00  0.45593999997E+02  0.45594000000E+02  0.51100000000E-03 0. -1.
         11   -1    0    0    0    0 -0.00000000000E+00 -0.00000000000E+00 -0.45593999997E+02  0.45594000000E+02  0.51100000000E-03 0.  1.
    9900012    2    1    2    0    0  0.44806876890E+02 -0.44320183683E+01 -0.13469749213E+01  0.46142319354E+02  0.10000014526E+02 0.  0.
         12    1    1    2    0    0 -0.44806876890E+02  0.44320183683E+01  0.13469749213E+01  0.45045680646E+02  0.00000000000E+00 0. -1.
         11    1    3    3    0    0  0.79867482225E+01  0.83791053176E+00 -0.22050463167E+01  0.83278130832E+01  0.51100000000E-03 0. -1.
        -11    1    3    3    0    0  0.32299257552E+02 -0.36762226314E+01  0.28309698463E+01  0.32630829621E+02  0.51100000000E-03 0.  1.
        -12    1    3    3    0    0  0.45208711151E+01 -0.15937062686E+01 -0.19728984509E+01  0.51836766496E+01  0.00000000000E+00 0.  1.
</event>
<event>
 7    1  0.3086024E-009  0.4614232E+02  0.7816164E-02  0.1320468E+00
        -11   -1    0    0    0    0  0.00000000000E+00  0.00000000000E+00  0.45593999997E+02  0.45594000000E+02  0.51100000000E-03 0.  1.
         11   -1    0    0    0    0 -0.00000000000E+00 -0.00000000000E+00 -0.45593999997E+02  0.45594000000E+02  0.51100000000E-03 0. -1.
    9900012    2    1    2    0    0 -0.83541848844E+01 -0.14730204754E+02  0.41741371144E+02  0.46142318718E+02  0.10000008728E+02 0.  0.
         12    1    1    2    0    0  0.83541848844E+01  0.14730204754E+02 -0.41741371144E+02  0.45045681282E+02  0.00000000000E+00 0. -1.
         11    1    3    3    0    0  0.88919856414E+00 -0.25463989513E+01  0.31155762578E+01  0.41208782298E+01  0.51100000000E-03 0. -1.
        -11    1    3    3    0    0 -0.40896441293E+01 -0.58926427367E+01  0.10301083724E+02  0.12552320649E+02  0.51100000000E-03 0.  1.
        -12    1    3    3    0    0 -0.51537393192E+01 -0.62911630663E+01  0.28324711162E+02  0.29469119840E+02  0.00000000000E+00 0.  1.
</event>
<event>
 7    1  0.3086024E-009  0.4614232E+02  0.7816164E-02  0.1320468E+00
        -11   -1    0    0    0    0  0.00000000000E+00  0.00000000000E+00  0.45593999997E+02  0.45594000000E+02  0.51100000000E-03 0. -1.
         11   -1    0    0    0    0 -0.00000000000E+00 -0.00000000000E+00 -0.45593999997E+02  0.45594000000E+02  0.51100000000E-03 0.  1.
    9900012    2    1    2    0    0  0.17482618511E+02  0.27000629836E+02 -0.31534703442E+02  0.46142317824E+02  0.10000000573E+02 0.  0.
         12    1    1    2    0    0 -0.17482618511E+02 -0.27000629836E+02  0.31534703442E+02  0.45045682176E+02  0.00000000000E+00 0. -1.
         11    1    3    3    0    0  0.47628904688E+00  0.27797191869E+01 -0.41469269506E+01  0.50150467005E+01  0.51100000000E-03 0. -1.
        -11    1    3    3    0    0  0.86215365660E+01  0.74924347575E+01 -0.14253834232E+02  0.18265794862E+02  0.51100000000E-03 0.  1.
        -12    1    3    3    0    0  0.83847928976E+01  0.16728475891E+02 -0.13133942259E+02  0.22861476262E+02  0.00000000000E+00 0.  1.
</event>
<event>
 7    1  0.3086024E-009  0.4614232E+02  0.7816164E-02  0.1320468E+00
        -11   -1    0    0    0    0  0.00000000000E+00  0.00000000000E+00  0.45593999997E+02  0.45594000000E+02  0.51100000000E-03 0. -1.
         11   -1    0    0    0    0 -0.00000000000E+00 -0.00000000000E+00 -0.45593999997E+02  0.45594000000E+02  0.51100000000E-03 0.  1.
    9900012    2    1    2    0    0 -0.29673312571E+01  0.39734087512E+02 -0.21012157338E+02  0.46142317396E+02  0.99999966733E+01 0.  0.
         12    1    1    2    0    0  0.29673312571E+01 -0.39734087512E+02  0.21012157338E+02  0.45045682604E+02  0.00000000000E+00 0. -1.
         11    1    3    3    0    0 -0.39569232724E+01  0.16430034103E+02 -0.50999857283E+01  0.17652566870E+02  0.51100000000E-03 0. -1.
        -11    1    3    3    0    0 -0.11530862165E+00  0.16121188511E+02 -0.90172680280E+01  0.18472063719E+02  0.51100000000E-03 0.  1.
         12    1    3    3    0    0  0.11049006369E+01  0.71828648981E+01 -0.68949035821E+01  0.10017686807E+02  0.00000000000E+00 0. -1.
</event>
<event>
 7    1  0.3086024E-009  0.4614232E+02  0.7816164E-02  0.1320468E+00
        -11   -1    0    0    0    0  0.00000000000E+00  0.00000000000E+00  0.45593999997E+02  0.45594000000E+02  0.51100000000E-03 0.  1.
         11   -1    0    0    0    0 -0.00000000000E+00 -0.00000000000E+00 -0.45593999997E+02  0.45594000000E+02  0.51100000000E-03 0. -1.
    9900012    2    1    2    0    0 -0.48141668898E+01  0.13607885647E+02  0.42670396227E+02  0.46142317979E+02  0.10000001986E+02 0.  0.
         12    1    1    2    0    0  0.48141668898E+01 -0.13607885647E+02 -0.42670396227E+02  0.45045682021E+02  0.00000000000E+00 0. -1.
         11    1    3    3    0    0 -0.72989610695E-01  0.22273984526E+00 -0.31163555273E+00  0.38994551002E+00  0.51100000000E-03 0. -1.
        -11    1    3    3    0    0 -0.14010878346E+01  0.11843898373E+02  0.30858264657E+02  0.33082827474E+02  0.51100000000E-03 0.  1.
         12    1    3    3    0    0 -0.33400894445E+01  0.15412474285E+01  0.12123767122E+02  0.12669544995E+02  0.00000000000E+00 0. -1.
</event>
<event>
 7    1  0.3086024E-009  0.4614232E+02  0.7816164E-02  0.1320468E+00
        -11   -1    0    0    0    0  0.00000000000E+00  0.00000000000E+00  0.45593999997E+02  0.45594000000E+02  0.51100000000E-03 0. -1.
         11   -1    0    0    0    0 -0.00000000000E+00 -0.00000000000E+00 -0.45593999997E+02  0.45594000000E+02  0.51100000000E-03 0.  1.
    9900012    2    1    2    0    0 -0.20654859049E+02 -0.34683984731E+02 -0.19987783615E+02  0.46142317710E+02  0.99999995325E+01 0.  0.
         12    1    1    2    0    0  0.20654859049E+02  0.34683984731E+02  0.19987783615E+02  0.45045682290E+02  0.00000000000E+00 0. -1.
         11    1    3    3    0    0 -0.10933389062E+01 -0.13950850165E+01 -0.30138821629E+01  0.34964464989E+01  0.51100000000E-03 0. -1.
        -11    1    3    3    0    0 -0.12253674242E+02 -0.25162335521E+02 -0.10202357302E+02  0.29788987161E+02  0.51100000000E-03 0.  1.
         12    1    3    3    0    0 -0.73078459009E+01 -0.81265641936E+01 -0.67715441495E+01  0.12856884050E+02  0.00000000000E+00 0. -1.
</event>
<event>
 7    1  0.3086024E-009  0.4614232E+02  0.7816164E-02  0.1320468E+00
        -11   -1    0    0    0    0  0.00000000000E+00  0.00000000000E+00  0.45593999997E+02  0.45594000000E+02  0.51100000000E-03 0.  1.
         11   -1    0    0    0    0 -0.00000000000E+00 -0.00000000000E+00 -0.45593999997E+02  0.45594000000E+02  0.51100000000E-03 0. -1.
    9900012    2    1    2    0    0  0.58226483575E+00  0.17882339463E+02  0.41340009485E+02  0.46142317840E+02  0.10000000721E+02 0.  0.
         12    1    1    2    0    0 -0.58226483575E+00 -0.17882339463E+02 -0.41340009485E+02  0.45045682160E+02  0.00000000000E+00 0. -1.
         11    1    3    3    0    0  0.51349851782E-01 -0.21157093242E+00  0.13032704948E+00  0.25374094599E+00  0.51100000000E-03 0. -1.
        -11    1    3    3    0    0  0.28165066407E+00  0.59182385848E+01  0.24534783957E+02  0.25240057431E+02  0.51100000000E-03 0.  1.
        -12    1    3    3    0    0  0.24926431991E+00  0.12175671811E+02  0.16674898479E+02  0.20648519463E+02  0.00000000000E+00 0.  1.
</event>
<event>
 7    1  0.3086024E-009  0.4614232E+02  0.7816164E-02  0.1320468E+00
        -11   -1    0    0    0    0  0.00000000000E+00  0.00000000000E+00  0.45593999997E+02  0.45594000000E+02  0.51100000000E-03 0.  1.
         11   -1    0    0    0    0 -0.00000000000E+00 -0.00000000000E+00 -0.45593999997E+02  0.45594000000E+02  0.51100000000E-03 0. -1.
    9900012    2    1    2    0    0  0.29530893329E+02  0.30265396871E+02  0.15525642194E+02  0.46142317919E+02  0.10000001443E+02 0.  0.
         12    1    1    2    0    0 -0.29530893329E+02 -0.30265396871E+02 -0.15525642194E+02  0.45045682081E+02  0.00000000000E+00 0. -1.
         11    1    3    3    0    0  0.30906959594E+01  0.70614953434E+01  0.95410619544E+00  0.77670738951E+01  0.51100000000E-03 0. -1.
        -11    1    3    3    0    0  0.99097619579E+01  0.67283064020E+01  0.31166164610E+01  0.12376865012E+02  0.51100000000E-03 0.  1.
         12    1    3    3    0    0  0.16530435412E+02  0.16475595126E+02  0.11454919537E+02  0.25998379012E+02  0.00000000000E+00 0. -1.
</event>
<event>
 7    1  0.3086024E-009  0.4614232E+02  0.7816164E-02  0.1320468E+00
        -11   -1    0    0    0    0  0.00000000000E+00  0.00000000000E+00  0.45593999997E+02  0.45594000000E+02  0.51100000000E-03 0. -1.
         11   -1    0    0    0    0 -0.00000000000E+00 -0.00000000000E+00 -0.45593999997E+02  0.45594000000E+02  0.51100000000E-03 0.  1.
    9900012    2    1    2    0    0  0.31912888285E-02  0.13462434737E+00 -0.45045481020E+02  0.46142317696E+02  0.99999994067E+01 0.  0.
         12    1    1    2    0    0 -0.31912888285E-02 -0.13462434737E+00  0.45045481020E+02  0.45045682304E+02  0.00000000000E+00 0. -1.
         11    1    3    3    0    0  0.25196516906E+01  0.17050823329E+00 -0.31792422754E+02  0.31892567513E+02  0.51100000000E-03 0. -1.
        -11    1    3    3    0    0 -0.29017097670E+01  0.11369779216E+01 -0.12304098861E+02  0.12692654860E+02  0.51100000000E-03 0.  1.
        -12    1    3    3    0    0  0.38524936523E+00 -0.11728618076E+01 -0.94895940516E+00  0.15570953233E+01  0.00000000000E+00 0.  1.
</event>
<event>
 7    1  0.3086024E-009  0.4614232E+02  0.7816164E-02  0.1320468E+00
        -11   -1    0    0    0    0  0.00000000000E+00  0.00000000000E+00  0.45593999997E+02  0.45594000000E+02  0.51100000000E-03 0.  1.
         11   -1    0    0    0    0 -0.00000000000E+00 -0.00000000000E+00 -0.45593999997E+02  0.45594000000E+02  0.51100000000E-03 0. -1.
    9900012    2    1    2    0    0  0.22502620741E+02 -0.38197627252E+02  0.79803980403E+01  0.46142318511E+02  0.10000006836E+02 0.  0.
         12    1    1    2    0    0 -0.22502620741E+02  0.38197627252E+02 -0.79803980403E+01  0.45045681489E+02  0.00000000000E+00 0. -1.
         11    1    3    3    0    0  0.10591141225E+02 -0.25982465088E+02  0.50906209344E+01  0.28516226718E+02  0.51100000000E-03 0. -1.
        -11    1    3    3    0    0  0.95565184375E+01 -0.94335707276E+01  0.86336785878E+00  0.13456028598E+02  0.51100000000E-03 0.  1.
         12    1    3    3    0    0  0.23549610789E+01 -0.27815914368E+01  0.20264092472E+01  0.41700631939E+01  0.00000000000E+00 0. -1.
</event>
<event>
 7    1  0.3086024E-009  0.4614232E+02  0.7816164E-02  0.1320468E+00
        -11   -1    0    0    0    0  0.00000000000E+00  0.00000000000E+00  0.45593999997E+02  0.45594000000E+02  0.51100000000E-03 0.  1.
         11   -1    0    0    0    0 -0.00000000000E+00 -0.00000000000E+00 -0.45593999997E+02  0.45594000000E+02  0.51100000000E-03 0. -1.
    9900012    2    1    2    0    0 -0.16231010057E+02 -0.14490730524E+02  0.39442192703E+02  0.46142317368E+02  0.99999964168E+01 0.  0.
         12    1    1    2    0    0  0.16231010057E+02  0.14490730524E+02 -0.39442192703E+02  0.45045682632E+02  0.00000000000E+00 0. -1.
         11    1    3    3    0    0 -0.37493925651E+01 -0.27580149440E+00  0.89159235854E+01  0.96761410031E+01  0.51100000000E-03 0. -1.
        -11    1    3    3    0    0 -0.81184899971E+01 -0.72181660134E+01  0.22369151219E+02  0.24867463219E+02  0.51100000000E-03 0.  1.
         12    1    3    3    0    0 -0.43631274945E+01 -0.69967630159E+01  0.81571178980E+01  0.11598713146E+02  0.00000000000E+00 0. -1.
</event>
<event>
 7    1  0.3086024E-009  0.4614231E+02  0.7816164E-02  0.1320468E+00
        -11   -1    0    0    0    0  0.00000000000E+00  0.00000000000E+00  0.45593999997E+02  0.45594000000E+02  0.51100000000E-03 0.  1.
         11   -1    0    0    0    0 -0.00000000000E+00 -0.00000000000E+00 -0.45593999997E+02  0.45594000000E+02  0.51100000000E-03 0. -1.
    9900012    2    1    2    0    0 -0.42990113954E+02  0.11658404259E+02 -0.67116252833E+01  0.46142309844E+02  0.99999278071E+01 0.  0.
         12    1    1    2    0    0  0.42990113954E+02 -0.11658404259E+02  0.67116252833E+01  0.45045690156E+02  0.00000000000E+00 0. -1.
         11    1    3    3    0    0  0.17780125785E-01 -0.24303072123E+00 -0.22039413947E+00  0.32856339140E+00  0.51100000000E-03 0. -1.
        -11    1    3    3    0    0 -0.24958719753E+02  0.28665442021E+01 -0.25895646558E+01  0.25255902533E+02  0.51100000000E-03 0.  1.
        -12    1    3    3    0    0 -0.18049174327E+02  0.90348907779E+01 -0.39016664880E+01  0.20557843920E+02  0.00000000000E+00 0.  1.
</event>
<event>
 7    1  0.3086024E-009  0.4614233E+02  0.7816164E-02  0.1320468E+00
        -11   -1    0    0    0    0  0.00000000000E+00  0.00000000000E+00  0.45593999997E+02  0.45594000000E+02  0.51100000000E-03 0.  1.
         11   -1    0    0    0    0 -0.00000000000E+00 -0.00000000000E+00 -0.45593999997E+02  0.45594000000E+02  0.51100000000E-03 0. -1.
    9900012    2    1    2    0    0 -0.30432291919E+02 -0.27057926155E+02  0.19257643722E+02  0.46142327612E+02  0.10000089824E+02 0.  0.
         12    1    1    2    0    0  0.30432291919E+02  0.27057926155E+02 -0.19257643722E+02  0.45045672388E+02  0.00000000000E+00 0. -1.
         11    1    3    3    0    0 -0.83358041238E+01 -0.44315004690E+01  0.58916412383E+01  0.11128129382E+02  0.51100000000E-03 0. -1.
        -11    1    3    3    0    0 -0.55971671167E+01 -0.67385748516E+01  0.70763854448E+01  0.11261079077E+02  0.51100000000E-03 0.  1.
        -12    1    3    3    0    0 -0.16499320678E+02 -0.15887850834E+02  0.62896170384E+01  0.23753119152E+02  0.00000000000E+00 0.  1.
</event>
<event>
 7    1  0.3086024E-009  0.4614232E+02  0.7816164E-02  0.1320468E+00
        -11   -1    0    0    0    0  0.00000000000E+00  0.00000000000E+00  0.45593999997E+02  0.45594000000E+02  0.51100000000E-03 0. -1.
         11   -1    0    0    0    0 -0.00000000000E+00 -0.00000000000E+00 -0.45593999997E+02  0.45594000000E+02  0.51100000000E-03 0.  1.
    9900012    2    1    2    0    0 -0.23312971228E+02  0.18404520047E+02 -0.33865804574E+02  0.46142315355E+02  0.99999780635E+01 0.  0.
         12    1    1    2    0    0  0.23312971228E+02 -0.18404520047E+02  0.33865804574E+02  0.45045684645E+02  0.00000000000E+00 0. -1.
         11    1    3    3    0    0 -0.17732041491E+01  0.36051250581E+01 -0.40020489137E+01  0.56707649755E+01  0.51100000000E-03 0. -1.
        -11    1    3    3    0    0 -0.13129149468E+02  0.10934169452E+02 -0.24186963589E+02  0.29613169963E+02  0.51100000000E-03 0.  1.
        -12    1    3    3    0    0 -0.84106176114E+01  0.38652255364E+01 -0.56767920717E+01  0.10858380417E+02  0.00000000000E+00 0.  1.
</event>
<event>
 7    1  0.3086024E-009  0.4614232E+02  0.7816164E-02  0.1320468E+00
        -11   -1    0    0    0    0  0.00000000000E+00  0.00000000000E+00  0.45593999997E+02  0.45594000000E+02  0.51100000000E-03 0.  1.
         11   -1    0    0    0    0 -0.00000000000E+00 -0.00000000000E+00 -0.45593999997E+02  0.45594000000E+02  0.51100000000E-03 0. -1.
    9900012    2    1    2    0    0  0.15519041580E+02 -0.28131170506E+02  0.31573883475E+02  0.46142317373E+02  0.99999964642E+01 0.  0.
         12    1    1    2    0    0 -0.15519041580E+02  0.28131170506E+02 -0.31573883475E+02  0.45045682627E+02  0.00000000000E+00 0. -1.
         11    1    3    3    0    0  0.10349207994E+02 -0.23551800278E+02  0.23083422328E+02  0.34563532647E+02  0.51100000000E-03 0. -1.
        -11    1    3    3    0    0  0.56861849526E+01 -0.38382221326E+01  0.67849747345E+01  0.96488616356E+01  0.51100000000E-03 0.  1.
         12    1    3    3    0    0 -0.51635136584E+00 -0.74114809599E+00  0.17054864125E+01  0.19299230908E+01  0.00000000000E+00 0. -1.
</event>
<event>
 7    1  0.3086024E-009  0.4614232E+02  0.7816164E-02  0.1320468E+00
        -11   -1    0    0    0    0  0.00000000000E+00  0.00000000000E+00  0.45593999997E+02  0.45594000000E+02  0.51100000000E-03 0. -1.
         11   -1    0    0    0    0 -0.00000000000E+00 -0.00000000000E+00 -0.45593999997E+02  0.45594000000E+02  0.51100000000E-03 0.  1.
    9900012    2    1    2    0    0  0.24788858046E+02  0.35643056686E+02 -0.12008269071E+02  0.46142317641E+02  0.99999989009E+01 0.  0.
         12    1    1    2    0    0 -0.24788858046E+02 -0.35643056686E+02  0.12008269071E+02  0.45045682359E+02  0.00000000000E+00 0. -1.
         11    1    3    3    0    0  0.36930759202E+01  0.69410462042E+01 -0.13472054640E+01  0.79769602597E+01  0.51100000000E-03 0. -1.
        -11    1    3    3    0    0  0.44443841755E+01  0.37135178825E+01  0.11377091878E+01  0.59023002482E+01  0.51100000000E-03 0.  1.
        -12    1    3    3    0    0  0.16651397951E+02  0.24988492599E+02 -0.11798772795E+02  0.32263057133E+02  0.00000000000E+00 0.  1.
</event>
<event>
 7    1  0.3086024E-009  0.4614232E+02  0.7816164E-02  0.1320468E+00
        -11   -1    0    0    0    0  0.00000000000E+00  0.00000000000E+00  0.45593999997E+02  0.45594000000E+02  0.51100000000E-03 0.  1.
         11   -1    0    0    0    0 -0.00000000000E+00 -0.00000000000E+00 -0.45593999997E+02  0.45594000000E+02  0.51100000000E-03 0. -1.
    9900012    2    1    2    0    0  0.36396093531E+02  0.17751427770E+01  0.26481819817E+02  0.46142317221E+02  0.99999950738E+01 0.  0.
         12    1    1    2    0    0 -0.36396093531E+02 -0.17751427770E+01 -0.26481819817E+02  0.45045682779E+02  0.00000000000E+00 0. -1.
         11    1    3    3    0    0  0.22560694877E+02  0.31630982694E+01  0.20227202050E+02  0.30465223568E+02  0.51100000000E-03 0. -1.
        -11    1    3    3    0    0  0.13512897726E+02 -0.18708340627E+01  0.54621963696E+01  0.14694693412E+02  0.51100000000E-03 0.  1.
        -12    1    3    3    0    0  0.32250092843E+00  0.48287857035E+00  0.79242139726E+00  0.98240024093E+00  0.00000000000E+00 0.  1.
</event>
<event>
 7    1  0.3086024E-009  0.4614232E+02  0.7816164E-02  0.1320468E+00
        -11   -1    0    0    0    0  0.00000000000E+00  0.00000000000E+00  0.45593999997E+02  0.45594000000E+02  0.51100000000E-03 0.  1.
         11   -1    0    0    0    0 -0.00000000000E+00 -0.00000000000E+00 -0.45593999997E+02  0.45594000000E+02  0.51100000000E-03 0. -1.
    9900012    2    1    2    0    0  0.15120736560E+02 -0.15999860839E+02  0.39299889029E+02  0.46142317646E+02  0.99999989528E+01 0.  0.
         12    1    1    2    0    0 -0.15120736560E+02  0.15999860839E+02 -0.39299889029E+02  0.45045682354E+02  0.00000000000E+00 0. -1.
         11    1    3    3    0    0 -0.19783615060E+00 -0.18737325597E+01  0.14479798387E+01  0.23762699178E+01  0.51100000000E-03 0. -1.
        -11    1    3    3    0    0  0.15746458376E+02 -0.13419782427E+02  0.33787922145E+02  0.39619000428E+02  0.51100000000E-03 0.  1.
        -12    1    3    3    0    0 -0.42788566542E+00 -0.70634585307E+00  0.40639870453E+01  0.41470473003E+01  0.00000000000E+00 0.  1.
</event>
<event>
 7    1  0.3086024E-009  0.4614232E+02  0.7816164E-02  0.1320468E+00
        -11   -1    0    0    0    0  0.00000000000E+00  0.00000000000E+00  0.45593999997E+02  0.45594000000E+02  0.51100000000E-03 0. -1.
         11   -1    0    0    0    0 -0.00000000000E+00 -0.00000000000E+00 -0.45593999997E+02  0.45594000000E+02  0.51100000000E-03 0.  1.
    9900012    2    1    2    0    0 -0.44622605664E+02  0.21905381949E+00 -0.61553688220E+01  0.46142317786E+02  0.10000000224E+02 0.  0.
         12    1    1    2    0    0  0.44622605664E+02 -0.21905381949E+00  0.61553688220E+01  0.45045682214E+02  0.00000000000E+00 0. -1.
         11    1    3    3    0    0 -0.14453939820E+02  0.69120460905E+00 -0.63925309170E+01  0.15819563582E+02  0.51100000000E-03 0. -1.
        -11    1    3    3    0    0 -0.11886897330E+02  0.57288512906E+00 -0.11647425422E+01  0.11957556228E+02  0.51100000000E-03 0.  1.
         12    1    3    3    0    0 -0.18281768514E+02 -0.10450359186E+01  0.14019046372E+01  0.18365197976E+02  0.00000000000E+00 0. -1.
</event>
<event>
 7    1  0.3086024E-009  0.4614232E+02  0.7816164E-02  0.1320468E+00
        -11   -1    0    0    0    0  0.00000000000E+00  0.00000000000E+00  0.45593999997E+02  0.45594000000E+02  0.51100000000E-03 0.  1.
         11   -1    0    0    0    0 -0.00000000000E+00 -0.00000000000E+00 -0.45593999997E+02  0.45594000000E+02  0.51100000000E-03 0. -1.
    9900012    2    1    2    0    0  0.39322672305E+02 -0.12168704236E+02 -0.18296545490E+02  0.46142317667E+02  0.99999991447E+01 0.  0.
         12    1    1    2    0    0 -0.39322672305E+02  0.12168704236E+02  0.18296545490E+02  0.45045682333E+02  0.00000000000E+00 0. -1.
         11    1    3    3    0    0  0.29351694548E+01 -0.14884201439E+00 -0.31939048098E+01  0.43403227839E+01  0.51100000000E-03 0. -1.
        -11    1    3    3    0    0  0.12417862911E+01 -0.21323835432E+01 -0.10199634084E+01  0.26700970738E+01  0.51100000000E-03 0.  1.
        -12    1    3    3    0    0  0.35145716559E+02 -0.98874786783E+01 -0.14082677271E+02  0.39131897810E+02  0.00000000000E+00 0.  1.
</event>
<event>
 7    1  0.3086024E-009  0.4614232E+02  0.7816164E-02  0.1320468E+00
        -11   -1    0    0    0    0  0.00000000000E+00  0.00000000000E+00  0.45593999997E+02  0.45594000000E+02  0.51100000000E-03 0. -1.
         11   -1    0    0    0    0 -0.00000000000E+00 -0.00000000000E+00 -0.45593999997E+02  0.45594000000E+02  0.51100000000E-03 0.  1.
    9900012    2    1    2    0    0 -0.24036861954E+02  0.36836966307E+02 -0.97149626283E+01  0.46142319651E+02  0.10000017229E+02 0.  0.
         12    1    1    2    0    0  0.24036861954E+02 -0.36836966307E+02  0.97149626283E+01  0.45045680349E+02  0.00000000000E+00 0. -1.
         11    1    3    3    0    0 -0.80437191685E+01  0.18975641806E+02 -0.57475252413E+01  0.21396505478E+02  0.51100000000E-03 0. -1.
        -11    1    3    3    0    0 -0.16135028033E+02  0.17013426942E+02 -0.42721185221E+01  0.23833732878E+02  0.51100000000E-03 0.  1.
        -12    1    3    3    0    0  0.14188524846E+00  0.84789755958E+00  0.30468113514E+00  0.91208129538E+00  0.00000000000E+00 0.  1.
</event>
<event>
 7    1  0.3086024E-009  0.4614232E+02  0.7816164E-02  0.1320468E+00
        -11   -1    0    0    0    0  0.00000000000E+00  0.00000000000E+00  0.45593999997E+02  0.45594000000E+02  0.51100000000E-03 0.  1.
         11   -1    0    0    0    0 -0.00000000000E+00 -0.00000000000E+00 -0.45593999997E+02  0.45594000000E+02  0.51100000000E-03 0. -1.
    9900012    2    1    2    0    0  0.41448399121E+02 -0.16947645435E+02  0.48909195662E+01  0.46142316859E+02  0.99999917718E+01 0.  0.
         12    1    1    2    0    0 -0.41448399121E+02  0.16947645435E+02 -0.48909195662E+01  0.45045683141E+02  0.00000000000E+00 0. -1.
         11    1    3    3    0    0  0.75244848528E+01 -0.10511071584E+01  0.40114141335E+01  0.85915157085E+01  0.51100000000E-03 0. -1.
        -11    1    3    3    0    0  0.28443601066E+02 -0.13747961873E+02  0.15277773865E+01  0.31628768570E+02  0.51100000000E-03 0.  1.
        -12    1    3    3    0    0  0.54803132020E+01 -0.21485764031E+01 -0.64827195379E+00  0.59220325800E+01  0.00000000000E+00 0.  1.
</event>
<event>
 7    1  0.3086024E-009  0.4614232E+02  0.7816164E-02  0.1320468E+00
        -11   -1    0    0    0    0  0.00000000000E+00  0.00000000000E+00  0.45593999997E+02  0.45594000000E+02  0.51100000000E-03 0. -1.
         11   -1    0    0    0    0 -0.00000000000E+00 -0.00000000000E+00 -0.45593999997E+02  0.45594000000E+02  0.51100000000E-03 0.  1.
    9900012    2    1    2    0    0 -0.15925829639E+02  0.33395313755E+02 -0.25695026423E+02  0.46142318593E+02  0.10000007588E+02 0.  0.
         12    1    1    2    0    0  0.15925829639E+02 -0.33395313755E+02  0.25695026423E+02  0.45045681407E+02  0.00000000000E+00 0. -1.
         11    1    3    3    0    0 -0.46016644206E+01  0.12075719695E+02 -0.43627581948E+01  0.13639354124E+02  0.51100000000E-03 0. -1.
        -11    1    3    3    0    0 -0.75775727809E+01  0.10379538645E+02 -0.97026483646E+01  0.16102664912E+02  0.51100000000E-03 0.  1.
        -12    1    3    3    0    0 -0.37465924376E+01  0.10940055416E+02 -0.11629619864E+02  0.16400299557E+02  0.00000000000E+00 0.  1.
</event>
<event>
 7    1  0.3086024E-009  0.4614232E+02  0.7816164E-02  0.1320468E+00
        -11   -1    0    0    0    0  0.00000000000E+00  0.00000000000E+00  0.45593999997E+02  0.45594000000E+02  0.51100000000E-03 0. -1.
         11   -1    0    0    0    0 -0.00000000000E+00 -0.00000000000E+00 -0.45593999997E+02  0.45594000000E+02  0.51100000000E-03 0.  1.
    9900012    2    1    2    0    0  0.35531404357E+02  0.23186174116E+02 -0.15133872997E+02  0.46142317880E+02  0.10000001086E+02 0.  0.
         12    1    1    2    0    0 -0.35531404357E+02 -0.23186174116E+02  0.15133872997E+02  0.45045682120E+02  0.00000000000E+00 0. -1.
         11    1    3    3    0    0  0.10095178654E+02  0.52887214466E+01 -0.33638475567E+01  0.11882704963E+02  0.51100000000E-03 0. -1.
        -11    1    3    3    0    0  0.45454036428E+01  0.25356317262E+01  0.10857534120E+01  0.53168584014E+01  0.51100000000E-03 0.  1.
        -12    1    3    3    0    0  0.20890822061E+02  0.15361820944E+02 -0.12855778852E+02  0.28942754516E+02  0.00000000000E+00 0.  1.
</event>
<event>
 7    1  0.3086024E-009  0.4614232E+02  0.7816164E-02  0.1320468E+00
        -11   -1    0    0    0    0  0.00000000000E+00  0.00000000000E+00  0.45593999997E+02  0.45594000000E+02  0.51100000000E-03 0. -1.
         11   -1    0    0    0    0 -0.00000000000E+00 -0.00000000000E+00 -0.45593999997E+02  0.45594000000E+02  0.51100000000E-03 0.  1.
    9900012    2    1    2    0    0  0.43601635031E+02 -0.11308715495E+02  0.35193274483E+00  0.46142317852E+02  0.10000000828E+02 0.  0.
         12    1    1    2    0    0 -0.43601635031E+02  0.11308715495E+02 -0.35193274483E+00  0.45045682148E+02  0.00000000000E+00 0. -1.
         11    1    3    3    0    0  0.71635170087E+01 -0.12983409576E+01 -0.20734964513E+00  0.72831764576E+01  0.51100000000E-03 0. -1.
        -11    1    3    3    0    0  0.23019297813E+02 -0.77664425869E+01  0.44724894385E+01  0.24702406043E+02  0.51100000000E-03 0.  1.
        -12    1    3    3    0    0  0.13418820209E+02 -0.22439319501E+01 -0.39132070485E+01  0.14156735352E+02  0.00000000000E+00 0.  1.
</event>
<event>
 7    1  0.3086024E-009  0.4614231E+02  0.7816164E-02  0.1320468E+00
        -11   -1    0    0    0    0  0.00000000000E+00  0.00000000000E+00  0.45593999997E+02  0.45594000000E+02  0.51100000000E-03 0.  1.
         11   -1    0    0    0    0 -0.00000000000E+00 -0.00000000000E+00 -0.45593999997E+02  0.45594000000E+02  0.51100000000E-03 0. -1.
    9900012    2    1    2    0    0  0.98742549233E+01  0.35970348187E+02  0.25253652746E+02  0.46142313902E+02  0.99999648125E+01 0.  0.
         12    1    1    2    0    0 -0.98742549233E+01 -0.35970348187E+02 -0.25253652746E+02  0.45045686098E+02  0.00000000000E+00 0. -1.
         11    1    3    3    0    0  0.79775643907E+00  0.59166023768E+01  0.10244875119E+01  0.60574065362E+01  0.51100000000E-03 0. -1.
        -11    1    3    3    0    0  0.63386329284E+00  0.14716448569E+00  0.13399469878E+01  0.14895966739E+01  0.51100000000E-03 0.  1.
        -12    1    3    3    0    0  0.84426351914E+01  0.29906581325E+02  0.22889218246E+02  0.38595310692E+02  0.00000000000E+00 0.  1.
</event>
<event>
 7    1  0.3086024E-009  0.4614232E+02  0.7816164E-02  0.1320468E+00
        -11   -1    0    0    0    0  0.00000000000E+00  0.00000000000E+00  0.45593999997E+02  0.45594000000E+02  0.51100000000E-03 0.  1.
         11   -1    0    0    0    0 -0.00000000000E+00 -0.00000000000E+00 -0.45593999997E+02  0.45594000000E+02  0.51100000000E-03 0. -1.
    9900012    2    1    2    0    0  0.35365424474E+02 -0.27367764681E+02  0.54227026202E+01  0.46142317681E+02  0.99999992698E+01 0.  0.
         12    1    1    2    0    0 -0.35365424474E+02  0.27367764681E+02 -0.54227026202E+01  0.45045682319E+02  0.00000000000E+00 0. -1.
         11    1    3    3    0    0  0.29217224264E+01 -0.47668296188E+01  0.24395776175E+01  0.61000545707E+01  0.51100000000E-03 0. -1.
        -11    1    3    3    0    0  0.28921260068E+02 -0.21625106916E+02  0.16438228252E+01  0.36149504655E+02  0.51100000000E-03 0.  1.
        -12    1    3    3    0    0  0.35224419797E+01 -0.97582814660E+00  0.13393021775E+01  0.38927584557E+01  0.00000000000E+00 0.  1.
</event>
<event>
 7    1  0.3086024E-009  0.4614232E+02  0.7816164E-02  0.1320468E+00
        -11   -1    0    0    0    0  0.00000000000E+00  0.00000000000E+00  0.45593999997E+02  0.45594000000E+02  0.51100000000E-03 0.  1.
         11   -1    0    0    0    0 -0.00000000000E+00 -0.00000000000E+00 -0.45593999997E+02  0.45594000000E+02  0.51100000000E-03 0. -1.
    9900012    2    1    2    0    0  0.28780680624E+02  0.33822933054E+02  0.75362557962E+01  0.46142317310E+02  0.99999958880E+01 0.  0.
         12    1    1    2    0    0 -0.28780680624E+02 -0.33822933054E+02 -0.75362557962E+01  0.45045682690E+02  0.00000000000E+00 0. -1.
         11    1    3    3    0    0  0.10390799482E+02  0.13113333228E+02 -0.19324549104E+00  0.16732171596E+02  0.51100000000E-03 0. -1.
        -11    1    3    3    0    0  0.12512528951E+02  0.11705661698E+02  0.73688438536E+01  0.18651695808E+02  0.51100000000E-03 0.  1.
        -12    1    3    3    0    0  0.58773521909E+01  0.90039381286E+01  0.36065743367E+00  0.10758449906E+02  0.00000000000E+00 0.  1.
</event>
<event>
 7    1  0.3086024E-009  0.4614232E+02  0.7816164E-02  0.1320468E+00
        -11   -1    0    0    0    0  0.00000000000E+00  0.00000000000E+00  0.45593999997E+02  0.45594000000E+02  0.51100000000E-03 0.  1.
         11   -1    0    0    0    0 -0.00000000000E+00 -0.00000000000E+00 -0.45593999997E+02  0.45594000000E+02  0.51100000000E-03 0. -1.
    9900012    2    1    2    0    0  0.27410266843E+02  0.19049753416E+02  0.30247275903E+02  0.46142317264E+02  0.99999954634E+01 0.  0.
         12    1    1    2    0    0 -0.27410266843E+02 -0.19049753416E+02 -0.30247275903E+02  0.45045682736E+02  0.00000000000E+00 0. -1.
         11    1    3    3    0    0 -0.30381356421E+00  0.14245155431E+00 -0.42144212680E+00  0.53871036234E+00  0.51100000000E-03 0. -1.
        -11    1    3    3    0    0  0.21223236509E+02  0.13914778572E+02  0.25147585623E+02  0.35727410955E+02  0.51100000000E-03 0.  1.
        -12    1    3    3    0    0  0.64908438990E+01  0.49925232894E+01  0.55211324064E+01  0.98761959461E+01  0.00000000000E+00 0.  1.
</event>
<event>
 7    1  0.3086024E-009  0.4614232E+02  0.7816164E-02  0.1320468E+00
        -11   -1    0    0    0    0  0.00000000000E+00  0.00000000000E+00  0.45593999997E+02  0.45594000000E+02  0.51100000000E-03 0. -1.
         11   -1    0    0    0    0 -0.00000000000E+00 -0.00000000000E+00 -0.45593999997E+02  0.45594000000E+02  0.51100000000E-03 0.  1.
    9900012    2    1    2    0    0  0.42623798065E+02 -0.14513601635E+02 -0.12963958327E+01  0.46142318342E+02  0.10000005292E+02 0.  0.
         12    1    1    2    0    0 -0.42623798065E+02  0.14513601635E+02  0.12963958327E+01  0.45045681658E+02  0.00000000000E+00 0. -1.
         11    1    3    3    0    0  0.27876984978E+01 -0.80748129179E+00  0.22957197387E+01  0.37004889313E+01  0.51100000000E-03 0. -1.
        -11    1    3    3    0    0  0.26303758783E+02 -0.91793541536E+01 -0.62081505911E+00  0.27866353913E+02  0.51100000000E-03 0.  1.
         12    1    3    3    0    0  0.13532340784E+02 -0.45267661897E+01 -0.29713005123E+01  0.14575475497E+02  0.00000000000E+00 0. -1.
</event>
<event>
 7    1  0.3086024E-009  0.4614231E+02  0.7816164E-02  0.1320468E+00
        -11   -1    0    0    0    0  0.00000000000E+00  0.00000000000E+00  0.45593999997E+02  0.45594000000E+02  0.51100000000E-03 0. -1.
         11   -1    0    0    0    0 -0.00000000000E+00 -0.00000000000E+00 -0.45593999997E+02  0.45594000000E+02  0.51100000000E-03 0.  1.
    9900012    2    1    2    0    0 -0.27047416695E+02 -0.36019115190E+02  0.41786512605E+00  0.46142311858E+02  0.99999461696E+01 0.  0.
         12    1    1    2    0    0  0.27047416695E+02  0.36019115190E+02 -0.41786512605E+00  0.45045688142E+02  0.00000000000E+00 0. -1.
         11    1    3    3    0    0 -0.38125837503E+01 -0.14647278585E+01  0.10286197454E+01  0.42118026300E+01  0.51100000000E-03 0. -1.
        -11    1    3    3    0    0 -0.78708117345E+01 -0.16034522536E+02 -0.13920327234E+00  0.17862669681E+02  0.51100000000E-03 0.  1.
        -12    1    3    3    0    0 -0.15364021210E+02 -0.18519864795E+02 -0.47155134703E+00  0.24067839547E+02  0.00000000000E+00 0.  1.
</event>
<event>
 7    1  0.3086024E-009  0.4614232E+02  0.7816164E-02  0.1320468E+00
        -11   -1    0    0    0    0  0.00000000000E+00  0.00000000000E+00  0.45593999997E+02  0.45594000000E+02  0.51100000000E-03 0.  1.
         11   -1    0    0    0    0 -0.00000000000E+00 -0.00000000000E+00 -0.45593999997E+02  0.45594000000E+02  0.51100000000E-03 0. -1.
    9900012    2    1    2    0    0  0.36144078764E+02 -0.39344750327E+01  0.26593964317E+02  0.46142318058E+02  0.10000002710E+02 0.  0.
         12    1    1    2    0    0 -0.36144078764E+02  0.39344750327E+01 -0.26593964317E+02  0.45045681942E+02  0.00000000000E+00 0. -1.
         11    1    3    3    0    0  0.12178561882E+02 -0.49306930087E+01  0.12644991368E+02  0.18235265559E+02  0.51100000000E-03 0. -1.
        -11    1    3    3    0    0  0.17275406773E+02  0.88318738240E-01  0.11361245435E+02  0.20676686811E+02  0.51100000000E-03 0.  1.
         12    1    3    3    0    0  0.66901101093E+01  0.90789923776E+00  0.25877275139E+01  0.72303656883E+01  0.00000000000E+00 0. -1.
</event>
<event>
 7    1  0.3086024E-009  0.4614232E+02  0.7816164E-02  0.1320468E+00
        -11   -1    0    0    0    0  0.00000000000E+00  0.00000000000E+00  0.45593999997E+02  0.45594000000E+02  0.51100000000E-03 0.  1.
         11   -1    0    0    0    0 -0.00000000000E+00 -0.00000000000E+00 -0.45593999997E+02  0.45594000000E+02  0.51100000000E-03 0. -1.
    9900012    2    1    2    0    0 -0.29939565006E+01  0.11986502471E+02  0.43318279287E+02  0.46142319436E+02  0.10000015277E+02 0.  0.
         12    1    1    2    0    0  0.29939565006E+01 -0.11986502471E+02 -0.43318279287E+02  0.45045680564E+02  0.00000000000E+00 0. -1.
         11    1    3    3    0    0 -0.38370337745E+01  0.12936230738E+01  0.67117989638E+01  0.78386564177E+01  0.51100000000E-03 0. -1.
        -11    1    3    3    0    0 -0.13151419362E+01  0.47711077017E+01  0.17340400812E+02  0.18032819180E+02  0.51100000000E-03 0.  1.
         12    1    3    3    0    0  0.21582192101E+01  0.59217716951E+01  0.19266079512E+02  0.20270843838E+02  0.00000000000E+00 0. -1.
</event>
<event>
 7    1  0.3086024E-009  0.4614232E+02  0.7816164E-02  0.1320468E+00
        -11   -1    0    0    0    0  0.00000000000E+00  0.00000000000E+00  0.45593999997E+02  0.45594000000E+02  0.51100000000E-03 0.  1.
         11   -1    0    0    0    0 -0.00000000000E+00 -0.00000000000E+00 -0.45593999997E+02  0.45594000000E+02  0.51100000000E-03 0. -1.
    9900012    2    1    2    0    0 -0.53215252043E+01  0.33220958593E+02  0.29952677716E+02  0.46142316270E+02  0.99999864067E+01 0.  0.
         12    1    1    2    0    0  0.53215252043E+01 -0.33220958593E+02 -0.29952677716E+02  0.45045683730E+02  0.00000000000E+00 0. -1.
         11    1    3    3    0    0  0.38626177006E+00  0.77166210003E+01  0.59983151559E+01  0.97813712121E+01  0.51100000000E-03 0. -1.
        -11    1    3    3    0    0 -0.77145751963E+01  0.22042517313E+02  0.20395751473E+02  0.31006030355E+02  0.51100000000E-03 0.  1.
        -12    1    3    3    0    0  0.20067882220E+01  0.34618202796E+01  0.35586110865E+01  0.53549147034E+01  0.00000000000E+00 0.  1.
</event>
<event>
 7    1  0.3676566E-009  0.4614232E+02  0.7816164E-02  0.1320468E+00
        -11   -1    0    0    0    0  0.00000000000E+00  0.00000000000E+00  0.45593999997E+02  0.45594000000E+02  0.51100000000E-03 0. -1.
         11   -1    0    0    0    0 -0.00000000000E+00 -0.00000000000E+00 -0.45593999997E+02  0.45594000000E+02  0.51100000000E-03 0.  1.
    9900012    2    1    2    0    0 -0.17330810751E+02 -0.35393285525E+02 -0.21819071128E+02  0.46142317339E+02  0.99999961506E+01 0.  0.
         12    1    1    2    0    0  0.17330810751E+02  0.35393285525E+02  0.21819071128E+02  0.45045682661E+02  0.00000000000E+00 0. -1.
         11    1    3    3    0    0  0.11313368324E+01 -0.16113741659E+01 -0.21301775083E+01  0.29007078806E+01  0.51100000000E-03 0. -1.
        -11    1    3    3    0    0 -0.10286182099E+02 -0.18491422252E+02 -0.10754007894E+02  0.23735773110E+02  0.51100000000E-03 0.  1.
         12    1    3    3    0    0 -0.81759654843E+01 -0.15290489106E+02 -0.89348857258E+01  0.19505836348E+02  0.00000000000E+00 0. -1.
</event>
<event>
 7    1  0.3086024E-009  0.4614232E+02  0.7816164E-02  0.1320468E+00
        -11   -1    0    0    0    0  0.00000000000E+00  0.00000000000E+00  0.45593999997E+02  0.45594000000E+02  0.51100000000E-03 0. -1.
         11   -1    0    0    0    0 -0.00000000000E+00 -0.00000000000E+00 -0.45593999997E+02  0.45594000000E+02  0.51100000000E-03 0.  1.
    9900012    2    1    2    0    0 -0.42305140747E+02 -0.83531667391E+01 -0.13023550874E+02  0.46142320900E+02  0.10000028623E+02 0.  0.
         12    1    1    2    0    0  0.42305140747E+02  0.83531667391E+01  0.13023550874E+02  0.45045679100E+02  0.00000000000E+00 0. -1.
         11    1    3    3    0    0 -0.14400208503E+02 -0.46750565790E+01 -0.25782049231E+01  0.15358036979E+02  0.51100000000E-03 0. -1.
        -11    1    3    3    0    0 -0.24958303734E+01 -0.70795095769E+00 -0.33487651674E+01  0.42361057846E+01  0.51100000000E-03 0.  1.
        -12    1    3    3    0    0 -0.25409101871E+02 -0.29701592024E+01 -0.70965807839E+01  0.26548178137E+02  0.00000000000E+00 0.  1.
</event>
<event>
 7    1  0.3086024E-009  0.4614232E+02  0.7816164E-02  0.1320468E+00
        -11   -1    0    0    0    0  0.00000000000E+00  0.00000000000E+00  0.45593999997E+02  0.45594000000E+02  0.51100000000E-03 0.  1.
         11   -1    0    0    0    0 -0.00000000000E+00 -0.00000000000E+00 -0.45593999997E+02  0.45594000000E+02  0.51100000000E-03 0. -1.
    9900012    2    1    2    0    0 -0.87586357668E+01 -0.10329835987E+02  0.42961542183E+02  0.46142319644E+02  0.10000017170E+02 0.  0.
         12    1    1    2    0    0  0.87586357668E+01  0.10329835987E+02 -0.42961542183E+02  0.45045680356E+02  0.00000000000E+00 0. -1.
         11    1    3    3    0    0 -0.15929298903E+00 -0.84165966990E+00  0.47715831957E+00  0.98053331374E+00  0.51100000000E-03 0. -1.
        -11    1    3    3    0    0 -0.85186458252E+01 -0.53246258283E+01  0.21020331945E+02  0.23297496051E+02  0.51100000000E-03 0.  1.
        -12    1    3    3    0    0 -0.80696952551E-01 -0.41635504889E+01  0.21464051919E+02  0.21864290280E+02  0.00000000000E+00 0.  1.
</event>
<event>
 7    1  0.3086024E-009  0.4614232E+02  0.7816164E-02  0.1320468E+00
        -11   -1    0    0    0    0  0.00000000000E+00  0.00000000000E+00  0.45593999997E+02  0.45594000000E+02  0.51100000000E-03 0.  1.
         11   -1    0    0    0    0 -0.00000000000E+00 -0.00000000000E+00 -0.45593999997E+02  0.45594000000E+02  0.51100000000E-03 0. -1.
    9900012    2    1    2    0    0 -0.14180125424E+02 -0.11304194005E+02  0.41234120351E+02  0.46142318295E+02  0.10000004869E+02 0.  0.
         12    1    1    2    0    0  0.14180125424E+02  0.11304194005E+02 -0.41234120351E+02  0.45045681705E+02  0.00000000000E+00 0. -1.
         11    1    3    3    0    0 -0.35791777670E+01  0.14064790787E+01  0.10002387219E+02  0.10716176894E+02  0.51100000000E-03 0. -1.
        -11    1    3    3    0    0 -0.68914590071E+01 -0.65300590345E+01  0.18578025257E+02  0.20863290751E+02  0.51100000000E-03 0.  1.
         12    1    3    3    0    0 -0.37094886503E+01 -0.61806140495E+01  0.12653707875E+02  0.14562850650E+02  0.00000000000E+00 0. -1.
</event>
<event>
 7    1  0.3086024E-009  0.4614232E+02  0.7816164E-02  0.1320468E+00
        -11   -1    0    0    0    0  0.00000000000E+00  0.00000000000E+00  0.45593999997E+02  0.45594000000E+02  0.51100000000E-03 0.  1.
         11   -1    0    0    0    0 -0.00000000000E+00 -0.00000000000E+00 -0.45593999997E+02  0.45594000000E+02  0.51100000000E-03 0. -1.
    9900012    2    1    2    0    0  0.64345433356E+01 -0.24780983659E+02  0.37062285838E+02  0.46142317292E+02  0.99999957252E+01 0.  0.
         12    1    1    2    0    0 -0.64345433356E+01  0.24780983659E+02 -0.37062285838E+02  0.45045682708E+02  0.00000000000E+00 0. -1.
         11    1    3    3    0    0 -0.37103556235E+00 -0.27664565437E+01  0.23993703184E+01  0.36807509265E+01  0.51100000000E-03 0. -1.
        -11    1    3    3    0    0  0.58726930103E+01 -0.76986925038E+01  0.99329087580E+01  0.13871592054E+02  0.51100000000E-03 0.  1.
        -12    1    3    3    0    0  0.93288588765E+00 -0.14315834611E+02  0.24730006762E+02  0.28589974312E+02  0.00000000000E+00 0.  1.
</event>
<event>
 7    1  0.3086024E-009  0.4614232E+02  0.7816164E-02  0.1320468E+00
        -11   -1    0    0    0    0  0.00000000000E+00  0.00000000000E+00  0.45593999997E+02  0.45594000000E+02  0.51100000000E-03 0.  1.
         11   -1    0    0    0    0 -0.00000000000E+00 -0.00000000000E+00 -0.45593999997E+02  0.45594000000E+02  0.51100000000E-03 0. -1.
    9900012    2    1    2    0    0 -0.39103074104E+01 -0.31003999826E+02  0.32443410536E+02  0.46142318781E+02  0.10000009302E+02 0.  0.
         12    1    1    2    0    0  0.39103074104E+01  0.31003999826E+02 -0.32443410536E+02  0.45045681219E+02  0.00000000000E+00 0. -1.
         11    1    3    3    0    0 -0.38799572619E+00 -0.66644602978E+01  0.93343336826E+01  0.11475859763E+02  0.51100000000E-03 0. -1.
        -11    1    3    3    0    0 -0.12869200006E+01 -0.23347751401E+02  0.20605178431E+02  0.31166440878E+02  0.51100000000E-03 0.  1.
         12    1    3    3    0    0 -0.22353916836E+01 -0.99178812649E+00  0.25038984225E+01  0.35000181396E+01  0.00000000000E+00 0. -1.
</event>
<event>
 7    1  0.3086024E-009  0.4614231E+02  0.7816164E-02  0.1320468E+00
        -11   -1    0    0    0    0  0.00000000000E+00  0.00000000000E+00  0.45593999997E+02  0.45594000000E+02  0.51100000000E-03 0.  1.
         11   -1    0    0    0    0 -0.00000000000E+00 -0.00000000000E+00 -0.45593999997E+02  0.45594000000E+02  0.51100000000E-03 0. -1.
    9900012    2    1    2    0    0 -0.23037800084E+02  0.23094191625E+02  0.31064965902E+02  0.46142311794E+02  0.99999455848E+01 0.  0.
         12    1    1    2    0    0  0.23037800084E+02 -0.23094191625E+02 -0.31064965902E+02  0.45045688206E+02  0.00000000000E+00 0. -1.
         11    1    3    3    0    0 -0.25865736511E+01 -0.43357439138E+00  0.11844068745E+01  0.28777021929E+01  0.51100000000E-03 0. -1.
        -11    1    3    3    0    0 -0.11320523122E+02  0.13411741333E+02  0.15004474869E+02  0.23090329484E+02  0.51100000000E-03 0.  1.
         12    1    3    3    0    0 -0.91307033101E+01  0.10116024683E+02  0.14876084159E+02  0.20174280116E+02  0.00000000000E+00 0. -1.
</event>
<event>
 7    1  0.3086024E-009  0.4614232E+02  0.7816164E-02  0.1320468E+00
        -11   -1    0    0    0    0  0.00000000000E+00  0.00000000000E+00  0.45593999997E+02  0.45594000000E+02  0.51100000000E-03 0. -1.
         11   -1    0    0    0    0 -0.00000000000E+00 -0.00000000000E+00 -0.45593999997E+02  0.45594000000E+02  0.51100000000E-03 0.  1.
    9900012    2    1    2    0    0 -0.39759984595E+02 -0.29371101616E+01  0.20967366062E+02  0.46142318401E+02  0.10000005838E+02 0.  0.
         12    1    1    2    0    0  0.39759984595E+02  0.29371101616E+01 -0.20967366062E+02  0.45045681599E+02  0.00000000000E+00 0. -1.
         11    1    3    3    0    0 -0.15038966020E+02  0.20393758650E+01  0.75354852514E+01  0.16944411796E+02  0.51100000000E-03 0. -1.
        -11    1    3    3    0    0 -0.13377577736E+02 -0.31605781764E-01  0.86562498600E+01  0.15933965197E+02  0.51100000000E-03 0.  1.
         12    1    3    3    0    0 -0.11343440839E+02 -0.49448802448E+01  0.47756309506E+01  0.13263941408E+02  0.00000000000E+00 0. -1.
</event>
<event>
 7    1  0.3086024E-009  0.4614232E+02  0.7816164E-02  0.1320468E+00
        -11   -1    0    0    0    0  0.00000000000E+00  0.00000000000E+00  0.45593999997E+02  0.45594000000E+02  0.51100000000E-03 0.  1.
         11   -1    0    0    0    0 -0.00000000000E+00 -0.00000000000E+00 -0.45593999997E+02  0.45594000000E+02  0.51100000000E-03 0. -1.
    9900012    2    1    2    0    0  0.25894365650E+02 -0.61018431384E+01  0.36350553764E+02  0.46142318508E+02  0.10000006814E+02 0.  0.
         12    1    1    2    0    0 -0.25894365650E+02  0.61018431384E+01 -0.36350553764E+02  0.45045681492E+02  0.00000000000E+00 0. -1.
         11    1    3    3    0    0  0.47872140885E+01  0.11318423867E+01  0.47703710459E+01  0.68523664594E+01  0.51100000000E-03 0. -1.
        -11    1    3    3    0    0  0.71208820183E+01  0.90864478737E+00  0.91132496086E+01  0.11601030763E+02  0.51100000000E-03 0.  1.
         12    1    3    3    0    0  0.13986269544E+02 -0.81423303125E+01  0.22466933109E+02  0.27688921286E+02  0.00000000000E+00 0. -1.
</event>
<event>
 7    1  0.3086024E-009  0.4614232E+02  0.7816164E-02  0.1320468E+00
        -11   -1    0    0    0    0  0.00000000000E+00  0.00000000000E+00  0.45593999997E+02  0.45594000000E+02  0.51100000000E-03 0.  1.
         11   -1    0    0    0    0 -0.00000000000E+00 -0.00000000000E+00 -0.45593999997E+02  0.45594000000E+02  0.51100000000E-03 0. -1.
    9900012    2    1    2    0    0 -0.37326067193E+02  0.54928849240E+01  0.24611103451E+02  0.46142317743E+02  0.99999998392E+01 0.  0.
         12    1    1    2    0    0  0.37326067193E+02 -0.54928849240E+01 -0.24611103451E+02  0.45045682257E+02  0.00000000000E+00 0. -1.
         11    1    3    3    0    0 -0.10518149656E+02  0.30474747471E+01  0.74113629946E+01  0.13222967753E+02  0.51100000000E-03 0.  1.
        -11    1    3    3    0    0 -0.18330426042E+02  0.22597239740E+01  0.15840218043E+02  0.24331530557E+02  0.51100000000E-03 0. -1.
         12    1    3    3    0    0 -0.84774914957E+01  0.18568620300E+00  0.13595224126E+01  0.85878194331E+01  0.00000000000E+00 0. -1.
</event>
<event>
 7    1  0.3086024E-009  0.4614232E+02  0.7816164E-02  0.1320468E+00
        -11   -1    0    0    0    0  0.00000000000E+00  0.00000000000E+00  0.45593999997E+02  0.45594000000E+02  0.51100000000E-03 0.  1.
         11   -1    0    0    0    0 -0.00000000000E+00 -0.00000000000E+00 -0.45593999997E+02  0.45594000000E+02  0.51100000000E-03 0. -1.
    9900012    2    1    2    0    0 -0.19698164353E+02 -0.37404531453E+02  0.15556246712E+02  0.46142318033E+02  0.10000002478E+02 0.  0.
         12    1    1    2    0    0  0.19698164353E+02  0.37404531453E+02 -0.15556246712E+02  0.45045681967E+02  0.00000000000E+00 0. -1.
         11    1    3    3    0    0 -0.12871335050E+02 -0.26864864097E+02  0.10119866611E+02  0.31461148888E+02  0.51100000000E-03 0.  1.
        -11    1    3    3    0    0 -0.55526719646E+01 -0.41310524094E+01  0.15972991546E+01  0.71027547337E+01  0.51100000000E-03 0. -1.
        -12    1    3    3    0    0 -0.12741573383E+01 -0.64086149472E+01  0.38390809473E+01  0.75784144109E+01  0.00000000000E+00 0.  1.
</event>
<event>
 7    1  0.3086024E-009  0.4614232E+02  0.7816164E-02  0.1320468E+00
        -11   -1    0    0    0    0  0.00000000000E+00  0.00000000000E+00  0.45593999997E+02  0.45594000000E+02  0.51100000000E-03 0. -1.
         11   -1    0    0    0    0 -0.00000000000E+00 -0.00000000000E+00 -0.45593999997E+02  0.45594000000E+02  0.51100000000E-03 0.  1.
    9900012    2    1    2    0    0 -0.36456307980E+02 -0.23720790120E+02  0.11720714401E+02  0.46142318503E+02  0.10000006766E+02 0.  0.
         12    1    1    2    0    0  0.36456307980E+02  0.23720790120E+02 -0.11720714401E+02  0.45045681497E+02  0.00000000000E+00 0. -1.
         11    1    3    3    0    0 -0.28923771000E+01  0.21451494957E-01  0.24120441487E+01  0.37662000334E+01  0.51100000000E-03 0. -1.
        -11    1    3    3    0    0 -0.16950817030E+02 -0.13516470146E+02  0.30792256341E+01  0.21897643571E+02  0.51100000000E-03 0.  1.
        -12    1    3    3    0    0 -0.16613113850E+02 -0.10225771469E+02  0.62294446178E+01  0.20478474899E+02  0.00000000000E+00 0.  1.
</event>
<event>
 7    1  0.3086024E-009  0.4614232E+02  0.7816164E-02  0.1320468E+00
        -11   -1    0    0    0    0  0.00000000000E+00  0.00000000000E+00  0.45593999997E+02  0.45594000000E+02  0.51100000000E-03 0.  1.
         11   -1    0    0    0    0 -0.00000000000E+00 -0.00000000000E+00 -0.45593999997E+02  0.45594000000E+02  0.51100000000E-03 0. -1.
    9900012    2    1    2    0    0  0.45350013797E+01 -0.52023397592E+01  0.44513850630E+02  0.46142317916E+02  0.10000001411E+02 0.  0.
         12    1    1    2    0    0 -0.45350013797E+01  0.52023397592E+01 -0.44513850630E+02  0.45045682084E+02  0.00000000000E+00 0. -1.
         11    1    3    3    0    0 -0.15421585003E+01 -0.16181285777E+00  0.16136016088E+01  0.22378888833E+01  0.51100000000E-03 0. -1.
        -11    1    3    3    0    0  0.19097878658E+01  0.18737425644E+00  0.18682340892E+02  0.18780635247E+02  0.51100000000E-03 0.  1.
         12    1    3    3    0    0  0.41673720142E+01 -0.52279011579E+01  0.24217908129E+02  0.25123793785E+02  0.00000000000E+00 0. -1.
</event>
<event>
 7    1  0.3086024E-009  0.4614232E+02  0.7816164E-02  0.1320468E+00
        -11   -1    0    0    0    0  0.00000000000E+00  0.00000000000E+00  0.45593999997E+02  0.45594000000E+02  0.51100000000E-03 0.  1.
         11   -1    0    0    0    0 -0.00000000000E+00 -0.00000000000E+00 -0.45593999997E+02  0.45594000000E+02  0.51100000000E-03 0. -1.
    9900012    2    1    2    0    0  0.89028306298E+01 -0.16245020642E+01  0.44127248200E+02  0.46142318366E+02  0.10000005513E+02 0.  0.
         12    1    1    2    0    0 -0.89028306298E+01  0.16245020642E+01 -0.44127248200E+02  0.45045681634E+02  0.00000000000E+00 0. -1.
         11    1    3    3    0    0  0.19566635688E+01  0.13945676940E+01  0.22738894057E+01  0.33081603143E+01  0.51100000000E-03 0. -1.
        -11    1    3    3    0    0  0.69181539341E+01 -0.16195385653E+01  0.27150268254E+02  0.28064583117E+02  0.51100000000E-03 0.  1.
         12    1    3    3    0    0  0.28013126910E-01 -0.13995311929E+01  0.14703090540E+02  0.14769574934E+02  0.00000000000E+00 0. -1.
</event>
<event>
 7    1  0.3086024E-009  0.4614232E+02  0.7816164E-02  0.1320468E+00
        -11   -1    0    0    0    0  0.00000000000E+00  0.00000000000E+00  0.45593999997E+02  0.45594000000E+02  0.51100000000E-03 0.  1.
         11   -1    0    0    0    0 -0.00000000000E+00 -0.00000000000E+00 -0.45593999997E+02  0.45594000000E+02  0.51100000000E-03 0. -1.
    9900012    2    1    2    0    0 -0.26405841403E+02 -0.10796430121E+02  0.34860897051E+02  0.46142317557E+02  0.99999981362E+01 0.  0.
         12    1    1    2    0    0  0.26405841403E+02  0.10796430121E+02 -0.34860897051E+02  0.45045682443E+02  0.00000000000E+00 0. -1.
         11    1    3    3    0    0 -0.18628550017E+01 -0.24398181619E+01  0.51100858061E+01  0.59612011061E+01  0.51100000000E-03 0. -1.
        -11    1    3    3    0    0 -0.12459079782E+02 -0.42981675516E+01  0.20729814302E+02  0.24564773856E+02  0.51100000000E-03 0.  1.
        -12    1    3    3    0    0 -0.12083906619E+02 -0.40584444073E+01  0.90209969428E+01  0.15616342595E+02  0.00000000000E+00 0.  1.
</event>
<event>
 7    1  0.3086024E-009  0.4614232E+02  0.7816164E-02  0.1320468E+00
        -11   -1    0    0    0    0  0.00000000000E+00  0.00000000000E+00  0.45593999997E+02  0.45594000000E+02  0.51100000000E-03 0. -1.
         11   -1    0    0    0    0 -0.00000000000E+00 -0.00000000000E+00 -0.45593999997E+02  0.45594000000E+02  0.51100000000E-03 0.  1.
    9900012    2    1    2    0    0 -0.10745283765E+02  0.38216688466E+02 -0.21287017748E+02  0.46142317353E+02  0.99999962805E+01 0.  0.
         12    1    1    2    0    0  0.10745283765E+02 -0.38216688466E+02  0.21287017748E+02  0.45045682647E+02  0.00000000000E+00 0. -1.
         11    1    3    3    0    0  0.96379125044E+00  0.30481790776E+01 -0.31995706340E+01  0.45230014113E+01  0.51100000000E-03 0. -1.
        -11    1    3    3    0    0 -0.79762744828E+01  0.25043029174E+02 -0.15533064855E+02  0.30529499978E+02  0.51100000000E-03 0.  1.
        -12    1    3    3    0    0 -0.37328005327E+01  0.10125480215E+02 -0.25543822584E+01  0.11089815964E+02  0.00000000000E+00 0.  1.
</event>
<event>
 7    1  0.3086024E-009  0.4614232E+02  0.7816164E-02  0.1320468E+00
        -11   -1    0    0    0    0  0.00000000000E+00  0.00000000000E+00  0.45593999997E+02  0.45594000000E+02  0.51100000000E-03 0.  1.
         11   -1    0    0    0    0 -0.00000000000E+00 -0.00000000000E+00 -0.45593999997E+02  0.45594000000E+02  0.51100000000E-03 0. -1.
    9900012    2    1    2    0    0  0.26481880340E+02 -0.34749120913E+02  0.10969140526E+02  0.46142318360E+02  0.10000005458E+02 0.  0.
         12    1    1    2    0    0 -0.26481880340E+02  0.34749120913E+02 -0.10969140526E+02  0.45045681640E+02  0.00000000000E+00 0. -1.
         11    1    3    3    0    0  0.39689742688E+01 -0.40846169952E+01  0.45719989173E+01  0.73034257102E+01  0.51100000000E-03 0. -1.
        -11    1    3    3    0    0  0.13605956861E+02 -0.20828449216E+02  0.58546302374E+01  0.25558228701E+02  0.51100000000E-03 0.  1.
        -12    1    3    3    0    0  0.89069492100E+01 -0.98360547012E+01  0.54251137180E+00  0.13280663948E+02  0.00000000000E+00 0.  1.
</event>
<event>
 7    1  0.3086024E-009  0.4614231E+02  0.7816164E-02  0.1320468E+00
        -11   -1    0    0    0    0  0.00000000000E+00  0.00000000000E+00  0.45593999997E+02  0.45594000000E+02  0.51100000000E-03 0.  1.
         11   -1    0    0    0    0 -0.00000000000E+00 -0.00000000000E+00 -0.45593999997E+02  0.45594000000E+02  0.51100000000E-03 0. -1.
    9900012    2    1    2    0    0 -0.50650347286E+01 -0.19946006207E+02  0.40070141290E+02  0.46142312488E+02  0.99999519148E+01 0.  0.
         12    1    1    2    0    0  0.50650347286E+01  0.19946006207E+02 -0.40070141290E+02  0.45045687512E+02  0.00000000000E+00 0. -1.
         11    1    3    3    0    0 -0.27899032379E+01 -0.32549404861E+01  0.49762424205E+01  0.65681950743E+01  0.51100000000E-03 0. -1.
        -11    1    3    3    0    0  0.47064525680E+00 -0.57653610983E+01  0.19478154802E+02  0.20318942155E+02  0.51100000000E-03 0.  1.
        -12    1    3    3    0    0 -0.27457767474E+01 -0.10925704622E+02  0.15615744068E+02  0.19255175259E+02  0.00000000000E+00 0.  1.
</event>
<event>
 7    1  0.3086024E-009  0.4614232E+02  0.7816164E-02  0.1320468E+00
        -11   -1    0    0    0    0  0.00000000000E+00  0.00000000000E+00  0.45593999997E+02  0.45594000000E+02  0.51100000000E-03 0.  1.
         11   -1    0    0    0    0 -0.00000000000E+00 -0.00000000000E+00 -0.45593999997E+02  0.45594000000E+02  0.51100000000E-03 0. -1.
    9900012    2    1    2    0    0 -0.28844247681E+02  0.49784991809E+01  0.34239413423E+02  0.46142317521E+02  0.99999978132E+01 0.  0.
         12    1    1    2    0    0  0.28844247681E+02 -0.49784991809E+01 -0.34239413423E+02  0.45045682479E+02  0.00000000000E+00 0. -1.
         11    1    3    3    0    0 -0.11879548868E+02  0.12413434892E+01  0.10385996660E+02  0.15828251383E+02  0.51100000000E-03 0.  1.
        -11    1    3    3    0    0 -0.13797186488E+01  0.27207678704E+01  0.32113613105E+01  0.44293388990E+01  0.51100000000E-03 0. -1.
         12    1    3    3    0    0 -0.15584980165E+02  0.10163878213E+01  0.20642055453E+02  0.25884727239E+02  0.00000000000E+00 0. -1.
</event>
<event>
 7    1  0.3086024E-009  0.4614232E+02  0.7816164E-02  0.1320468E+00
        -11   -1    0    0    0    0  0.00000000000E+00  0.00000000000E+00  0.45593999997E+02  0.45594000000E+02  0.51100000000E-03 0.  1.
         11   -1    0    0    0    0 -0.00000000000E+00 -0.00000000000E+00 -0.45593999997E+02  0.45594000000E+02  0.51100000000E-03 0. -1.
    9900012    2    1    2    0    0  0.18984713128E+01 -0.17376746318E+02  0.41515755375E+02  0.46142318184E+02  0.10000003858E+02 0.  0.
         12    1    1    2    0    0 -0.18984713128E+01  0.17376746318E+02 -0.41515755375E+02  0.45045681816E+02  0.00000000000E+00 0. -1.
         11    1    3    3    0    0 -0.84203332927E+00 -0.61936156195E+00  0.17675507726E+01  0.20535006371E+01  0.51100000000E-03 0. -1.
        -11    1    3    3    0    0  0.36001521186E+01 -0.22639316744E+01  0.12655989221E+02  0.13351424843E+02  0.51100000000E-03 0.  1.
        -12    1    3    3    0    0 -0.85964747653E+00 -0.14493453081E+02  0.27092215381E+02  0.30737392704E+02  0.00000000000E+00 0.  1.
</event>
<event>
 7    1  0.3086024E-009  0.4614232E+02  0.7816164E-02  0.1320468E+00
        -11   -1    0    0    0    0  0.00000000000E+00  0.00000000000E+00  0.45593999997E+02  0.45594000000E+02  0.51100000000E-03 0.  1.
         11   -1    0    0    0    0 -0.00000000000E+00 -0.00000000000E+00 -0.45593999997E+02  0.45594000000E+02  0.51100000000E-03 0. -1.
    9900012    2    1    2    0    0 -0.22980508338E+02  0.34653778492E+02  0.17324127069E+02  0.46142317566E+02  0.99999982183E+01 0.  0.
         12    1    1    2    0    0  0.22980508338E+02 -0.34653778492E+02 -0.17324127069E+02  0.45045682434E+02  0.00000000000E+00 0. -1.
         11    1    3    3    0    0 -0.63473883418E+01  0.40496871153E+01  0.38777947831E+01  0.84691556329E+01  0.51100000000E-03 0. -1.
        -11    1    3    3    0    0 -0.55085620004E+01  0.11276245167E+02  0.23638826408E+01  0.12770509065E+02  0.51100000000E-03 0.  1.
         12    1    3    3    0    0 -0.11124557996E+02  0.19327846210E+02  0.11082449646E+02  0.24902652868E+02  0.00000000000E+00 0. -1.
</event>
<event>
 7    1  0.3086024E-009  0.4614232E+02  0.7816164E-02  0.1320468E+00
        -11   -1    0    0    0    0  0.00000000000E+00  0.00000000000E+00  0.45593999997E+02  0.45594000000E+02  0.51100000000E-03 0. -1.
         11   -1    0    0    0    0 -0.00000000000E+00 -0.00000000000E+00 -0.45593999997E+02  0.45594000000E+02  0.51100000000E-03 0.  1.
    9900012    2    1    2    0    0 -0.41416214620E+02 -0.49043347437E+01 -0.17022278498E+02  0.46142319874E+02  0.10000019266E+02 0.  0.
         12    1    1    2    0    0  0.41416214620E+02  0.49043347437E+01  0.17022278498E+02  0.45045680126E+02  0.00000000000E+00 0. -1.
         11    1    3    3    0    0 -0.61576884878E+01 -0.41919688427E+00 -0.63356964985E+00  0.62043746101E+01  0.51100000000E-03 0. -1.
        -11    1    3    3    0    0 -0.26423090091E+01  0.12701814100E+01  0.11438439231E+00  0.29339805324E+01  0.51100000000E-03 0.  1.
        -12    1    3    3    0    0 -0.32616217124E+02 -0.57553192694E+01 -0.16503093240E+02  0.37003964731E+02  0.00000000000E+00 0.  1.
</event>
<event>
 7    1  0.3086024E-009  0.4614232E+02  0.7816164E-02  0.1320468E+00
        -11   -1    0    0    0    0  0.00000000000E+00  0.00000000000E+00  0.45593999997E+02  0.45594000000E+02  0.51100000000E-03 0.  1.
         11   -1    0    0    0    0 -0.00000000000E+00 -0.00000000000E+00 -0.45593999997E+02  0.45594000000E+02  0.51100000000E-03 0. -1.
    9900012    2    1    2    0    0  0.44040380575E+02 -0.24905471321E+01  0.91299251394E+01  0.46142317862E+02  0.10000000924E+02 0.  0.
         12    1    1    2    0    0 -0.44040380575E+02  0.24905471321E+01 -0.91299251394E+01  0.45045682138E+02  0.00000000000E+00 0. -1.
         11    1    3    3    0    0  0.26822515067E+02  0.95417501594E+00  0.41851876387E+01  0.27163828161E+02  0.51100000000E-03 0. -1.
        -11    1    3    3    0    0  0.71258044298E+01 -0.11559691038E+00 -0.28902972707E+00  0.71326004978E+01  0.51100000000E-03 0.  1.
        -12    1    3    3    0    0  0.10092061078E+02 -0.33291252376E+01  0.52337672278E+01  0.11845889204E+02  0.00000000000E+00 0.  1.
</event>
<event>
 7    1  0.3086024E-009  0.4614232E+02  0.7816164E-02  0.1320468E+00
        -11   -1    0    0    0    0  0.00000000000E+00  0.00000000000E+00  0.45593999997E+02  0.45594000000E+02  0.51100000000E-03 0. -1.
         11   -1    0    0    0    0 -0.00000000000E+00 -0.00000000000E+00 -0.45593999997E+02  0.45594000000E+02  0.51100000000E-03 0.  1.
    9900012    2    1    2    0    0  0.22036347117E+02  0.10837024723E+02 -0.37763363966E+02  0.46142319218E+02  0.10000013281E+02 0.  0.
         12    1    1    2    0    0 -0.22036347117E+02 -0.10837024723E+02  0.37763363966E+02  0.45045680782E+02  0.00000000000E+00 0. -1.
         11    1    3    3    0    0  0.58816001115E+01  0.25235598069E+01 -0.15145934174E+02  0.16442654780E+02  0.51100000000E-03 0. -1.
        -11    1    3    3    0    0  0.24412218498E+01 -0.10280093790E+01 -0.28394028005E+01  0.38831142048E+01  0.51100000000E-03 0.  1.
        -12    1    3    3    0    0  0.13713525156E+02  0.93414742952E+01 -0.19778026992E+02  0.25816550232E+02  0.00000000000E+00 0.  1.
</event>
<event>
 7    1  0.3086024E-009  0.4614232E+02  0.7816164E-02  0.1320468E+00
        -11   -1    0    0    0    0  0.00000000000E+00  0.00000000000E+00  0.45593999997E+02  0.45594000000E+02  0.51100000000E-03 0.  1.
         11   -1    0    0    0    0 -0.00000000000E+00 -0.00000000000E+00 -0.45593999997E+02  0.45594000000E+02  0.51100000000E-03 0. -1.
    9900012    2    1    2    0    0  0.40530311215E+02 -0.15536923161E+02  0.12042064699E+02  0.46142318401E+02  0.10000005835E+02 0.  0.
         12    1    1    2    0    0 -0.40530311215E+02  0.15536923161E+02 -0.12042064699E+02  0.45045681599E+02  0.00000000000E+00 0. -1.
         11    1    3    3    0    0  0.12710423524E+01  0.19575722945E+00 -0.16587539407E+00  0.12966820975E+01  0.51100000000E-03 0. -1.
        -11    1    3    3    0    0  0.34196294233E+02 -0.16591219909E+02  0.11035510799E+02  0.39578246755E+02  0.51100000000E-03 0.  1.
        -12    1    3    3    0    0  0.50629746297E+01  0.85853951871E+00  0.11724292940E+01  0.52673895485E+01  0.00000000000E+00 0.  1.
</event>
<event>
 7    1  0.3086024E-009  0.4614232E+02  0.7816164E-02  0.1320468E+00
        -11   -1    0    0    0    0  0.00000000000E+00  0.00000000000E+00  0.45593999997E+02  0.45594000000E+02  0.51100000000E-03 0.  1.
         11   -1    0    0    0    0 -0.00000000000E+00 -0.00000000000E+00 -0.45593999997E+02  0.45594000000E+02  0.51100000000E-03 0. -1.
    9900012    2    1    2    0    0 -0.23663586324E+02 -0.27160679066E+02  0.27045251538E+02  0.46142318345E+02  0.10000005321E+02 0.  0.
         12    1    1    2    0    0  0.23663586324E+02  0.27160679066E+02 -0.27045251538E+02  0.45045681655E+02  0.00000000000E+00 0. -1.
         11    1    3    3    0    0 -0.80237517225E+01 -0.12404956687E+02  0.15184859024E+02  0.21185926601E+02  0.51100000000E-03 0. -1.
        -11    1    3    3    0    0 -0.85532513846E+01 -0.69220996008E+01  0.83914434165E+01  0.13837987390E+02  0.51100000000E-03 0.  1.
         12    1    3    3    0    0 -0.70865832171E+01 -0.78336227785E+01  0.34689490972E+01  0.11118404353E+02  0.00000000000E+00 0. -1.
</event>
<event>
 7    1  0.3086024E-009  0.4614232E+02  0.7816164E-02  0.1320468E+00
        -11   -1    0    0    0    0  0.00000000000E+00  0.00000000000E+00  0.45593999997E+02  0.45594000000E+02  0.51100000000E-03 0.  1.
         11   -1    0    0    0    0 -0.00000000000E+00 -0.00000000000E+00 -0.45593999997E+02  0.45594000000E+02  0.51100000000E-03 0. -1.
    9900012    2    1    2    0    0  0.23712592501E+02 -0.12297985113E+02  0.36271007677E+02  0.46142317867E+02  0.10000000962E+02 0.  0.
         12    1    1    2    0    0 -0.23712592501E+02  0.12297985113E+02 -0.36271007677E+02  0.45045682133E+02  0.00000000000E+00 0. -1.
         11    1    3    3    0    0  0.81803298919E+01 -0.25596168957E+01  0.12842921386E+02  0.15440533209E+02  0.51100000000E-03 0. -1.
        -11    1    3    3    0    0  0.10633095835E+02 -0.58006830502E+01  0.94070157107E+01  0.15336316237E+02  0.51100000000E-03 0.  1.
        -12    1    3    3    0    0  0.48991667740E+01 -0.39376851674E+01  0.14021070580E+02  0.15365468420E+02  0.00000000000E+00 0.  1.
</event>
<event>
 7    1  0.3086024E-009  0.4614232E+02  0.7816164E-02  0.1320468E+00
        -11   -1    0    0    0    0  0.00000000000E+00  0.00000000000E+00  0.45593999997E+02  0.45594000000E+02  0.51100000000E-03 0.  1.
         11   -1    0    0    0    0 -0.00000000000E+00 -0.00000000000E+00 -0.45593999997E+02  0.45594000000E+02  0.51100000000E-03 0. -1.
    9900012    2    1    2    0    0  0.33101980500E+02  0.12199995912E+02  0.28009507048E+02  0.46142317650E+02  0.99999989894E+01 0.  0.
         12    1    1    2    0    0 -0.33101980500E+02 -0.12199995912E+02 -0.28009507048E+02  0.45045682350E+02  0.00000000000E+00 0. -1.
         11    1    3    3    0    0  0.30815332473E+01  0.29227296956E+01  0.26359204349E+01  0.49986270943E+01  0.51100000000E-03 0. -1.
        -11    1    3    3    0    0  0.41447238987E+01 -0.14252072414E+01  0.36398893919E+01  0.56972578425E+01  0.51100000000E-03 0.  1.
        -12    1    3    3    0    0  0.25875723354E+02  0.10702473457E+02  0.21733697221E+02  0.35446432713E+02  0.00000000000E+00 0.  1.
</event>
<event>
 7    1  0.3086024E-009  0.4614232E+02  0.7816164E-02  0.1320468E+00
        -11   -1    0    0    0    0  0.00000000000E+00  0.00000000000E+00  0.45593999997E+02  0.45594000000E+02  0.51100000000E-03 0.  1.
         11   -1    0    0    0    0 -0.00000000000E+00 -0.00000000000E+00 -0.45593999997E+02  0.45594000000E+02  0.51100000000E-03 0. -1.
    9900012    2    1    2    0    0  0.12387135883E+00 -0.11068159523E+02  0.43664561318E+02  0.46142318582E+02  0.10000007482E+02 0.  0.
         12    1    1    2    0    0 -0.12387135883E+00  0.11068159523E+02 -0.43664561318E+02  0.45045681418E+02  0.00000000000E+00 0. -1.
         11    1    3    3    0    0 -0.17993660016E+00 -0.62866193387E+01  0.13449090467E+02  0.14846952366E+02  0.51100000000E-03 0. -1.
        -11    1    3    3    0    0 -0.21889886691E+01 -0.42324200262E+01  0.25421186660E+02  0.25863908872E+02  0.51100000000E-03 0.  1.
         12    1    3    3    0    0  0.24927966281E+01 -0.54912015811E+00  0.47942841910E+01  0.54314573441E+01  0.00000000000E+00 0. -1.
</event>
<event>
 7    1  0.3086024E-009  0.4614232E+02  0.7816164E-02  0.1320468E+00
        -11   -1    0    0    0    0  0.00000000000E+00  0.00000000000E+00  0.45593999997E+02  0.45594000000E+02  0.51100000000E-03 0. -1.
         11   -1    0    0    0    0 -0.00000000000E+00 -0.00000000000E+00 -0.45593999997E+02  0.45594000000E+02  0.51100000000E-03 0.  1.
    9900012    2    1    2    0    0 -0.17474324772E+02 -0.39716736920E+02  0.12097200824E+02  0.46142317792E+02  0.10000000283E+02 0.  0.
         12    1    1    2    0    0  0.17474324772E+02  0.39716736920E+02 -0.12097200824E+02  0.45045682208E+02  0.00000000000E+00 0. -1.
         11    1    3    3    0    0 -0.35184660317E+00 -0.14492753815E+01 -0.90227964708E-01  0.14941005690E+01  0.51100000000E-03 0. -1.
        -11    1    3    3    0    0  0.81451369018E+00 -0.26219095403E+00  0.62990604389E+00  0.10625246035E+01  0.51100000000E-03 0.  1.
        -12    1    3    3    0    0 -0.17936991859E+02 -0.38005270584E+02  0.11557522745E+02  0.43585692620E+02  0.00000000000E+00 0.  1.
</event>
<event>
 7    1  0.3086024E-009  0.4614232E+02  0.7816164E-02  0.1320468E+00
        -11   -1    0    0    0    0  0.00000000000E+00  0.00000000000E+00  0.45593999997E+02  0.45594000000E+02  0.51100000000E-03 0.  1.
         11   -1    0    0    0    0 -0.00000000000E+00 -0.00000000000E+00 -0.45593999997E+02  0.45594000000E+02  0.51100000000E-03 0. -1.
    9900012    2    1    2    0    0 -0.12850923030E+02 -0.12159180912E+02  0.41426098560E+02  0.46142317131E+02  0.99999942583E+01 0.  0.
         12    1    1    2    0    0  0.12850923030E+02  0.12159180912E+02 -0.41426098560E+02  0.45045682869E+02  0.00000000000E+00 0. -1.
         11    1    3    3    0    0 -0.45674639975E+01 -0.12769629309E+01  0.84561771848E+01  0.96953233333E+01  0.51100000000E-03 0. -1.
        -11    1    3    3    0    0  0.70516530370E-01 -0.49064803841E+00 -0.31744692100E+00  0.58862627143E+00  0.51100000000E-03 0.  1.
        -12    1    3    3    0    0 -0.83539755626E+01 -0.10391569942E+02  0.33287368297E+02  0.35858367527E+02  0.00000000000E+00 0.  1.
</event>
<event>
 7    1  0.3086024E-009  0.4614232E+02  0.7816164E-02  0.1320468E+00
        -11   -1    0    0    0    0  0.00000000000E+00  0.00000000000E+00  0.45593999997E+02  0.45594000000E+02  0.51100000000E-03 0.  1.
         11   -1    0    0    0    0 -0.00000000000E+00 -0.00000000000E+00 -0.45593999997E+02  0.45594000000E+02  0.51100000000E-03 0. -1.
    9900012    2    1    2    0    0  0.54097522521E+01 -0.18801421322E+01  0.44680117326E+02  0.46142320539E+02  0.10000025332E+02 0.  0.
         12    1    1    2    0    0 -0.54097522521E+01  0.18801421322E+01 -0.44680117326E+02  0.45045679461E+02  0.00000000000E+00 0. -1.
         11    1    3    3    0    0  0.25658754457E-02  0.18390146619E+01  0.59959082116E+01  0.62715944587E+01  0.51100000000E-03 0. -1.
        -11    1    3    3    0    0  0.40310769040E+01 -0.45605699376E+01  0.37147685541E+02  0.37643046110E+02  0.51100000000E-03 0.  1.
        -12    1    3    3    0    0  0.13761094726E+01  0.84141314338E+00  0.15365235733E+01  0.22276799703E+01  0.00000000000E+00 0.  1.
</event>
<event>
 7    1  0.3086024E-009  0.4614232E+02  0.7816164E-02  0.1320468E+00
        -11   -1    0    0    0    0  0.00000000000E+00  0.00000000000E+00  0.45593999997E+02  0.45594000000E+02  0.51100000000E-03 0. -1.
         11   -1    0    0    0    0 -0.00000000000E+00 -0.00000000000E+00 -0.45593999997E+02  0.45594000000E+02  0.51100000000E-03 0.  1.
    9900012    2    1    2    0    0  0.31291600517E+02 -0.17082936744E+02 -0.27534024854E+02  0.46142317461E+02  0.99999972673E+01 0.  0.
         12    1    1    2    0    0 -0.31291600517E+02  0.17082936744E+02  0.27534024854E+02  0.45045682539E+02  0.00000000000E+00 0. -1.
         11    1    3    3    0    0  0.13467212924E+01 -0.10953301265E+01  0.22414578698E+00  0.17503279465E+01  0.51100000000E-03 0. -1.
        -11    1    3    3    0    0  0.16371879859E+02 -0.10395349694E+02 -0.19707832071E+02  0.27649600188E+02  0.51100000000E-03 0.  1.
         12    1    3    3    0    0  0.13572999365E+02 -0.55922569242E+01 -0.80503385698E+01  0.16742389327E+02  0.00000000000E+00 0. -1.
</event>
<event>
 7    1  0.3086024E-009  0.4614232E+02  0.7816164E-02  0.1320468E+00
        -11   -1    0    0    0    0  0.00000000000E+00  0.00000000000E+00  0.45593999997E+02  0.45594000000E+02  0.51100000000E-03 0.  1.
         11   -1    0    0    0    0 -0.00000000000E+00 -0.00000000000E+00 -0.45593999997E+02  0.45594000000E+02  0.51100000000E-03 0. -1.
    9900012    2    1    2    0    0 -0.30939343238E+01 -0.44920301363E+02 -0.13067442451E+01  0.46142317803E+02  0.10000000378E+02 0.  0.
         12    1    1    2    0    0  0.30939343238E+01  0.44920301363E+02  0.13067442451E+01  0.45045682197E+02  0.00000000000E+00 0. -1.
         11    1    3    3    0    0  0.14477309900E+01 -0.17583662840E+01  0.60531568710E+00  0.23567317095E+01  0.51100000000E-03 0. -1.
        -11    1    3    3    0    0 -0.53635331171E+00 -0.21486235092E+02  0.11893918025E+01  0.21525813026E+02  0.51100000000E-03 0.  1.
         12    1    3    3    0    0 -0.40053120021E+01 -0.21675699987E+02 -0.31014517347E+01  0.22259773067E+02  0.00000000000E+00 0. -1.
</event>
<event>
 7    1  0.3086024E-009  0.4614232E+02  0.7816164E-02  0.1320468E+00
        -11   -1    0    0    0    0  0.00000000000E+00  0.00000000000E+00  0.45593999997E+02  0.45594000000E+02  0.51100000000E-03 0.  1.
         11   -1    0    0    0    0 -0.00000000000E+00 -0.00000000000E+00 -0.45593999997E+02  0.45594000000E+02  0.51100000000E-03 0. -1.
    9900012    2    1    2    0    0  0.21350322620E+02 -0.37664330038E+01  0.39485327492E+02  0.46142318956E+02  0.10000010893E+02 0.  0.
         12    1    1    2    0    0 -0.21350322620E+02  0.37664330038E+01 -0.39485327492E+02  0.45045681044E+02  0.00000000000E+00 0. -1.
         11    1    3    3    0    0  0.61907562463E+01 -0.10540438687E+01  0.20221719152E+02  0.21174380678E+02  0.51100000000E-03 0. -1.
        -11    1    3    3    0    0  0.70825761231E+01  0.44471572396E+00  0.10180005697E+02  0.12409398570E+02  0.51100000000E-03 0.  1.
         12    1    3    3    0    0  0.80769902510E+01 -0.31571048590E+01  0.90836026432E+01  0.12558539707E+02  0.00000000000E+00 0. -1.
</event>
<event>
 7    1  0.3086024E-009  0.4614232E+02  0.7816164E-02  0.1320468E+00
        -11   -1    0    0    0    0  0.00000000000E+00  0.00000000000E+00  0.45593999997E+02  0.45594000000E+02  0.51100000000E-03 0. -1.
         11   -1    0    0    0    0 -0.00000000000E+00 -0.00000000000E+00 -0.45593999997E+02  0.45594000000E+02  0.51100000000E-03 0.  1.
    9900012    2    1    2    0    0 -0.18019545320E+02 -0.26390411468E+02 -0.31748314974E+02  0.46142319467E+02  0.10000015559E+02 0.  0.
         12    1    1    2    0    0  0.18019545320E+02  0.26390411468E+02  0.31748314974E+02  0.45045680533E+02  0.00000000000E+00 0. -1.
         11    1    3    3    0    0 -0.86254765672E+01 -0.66179718536E+01 -0.86315404548E+01  0.13881638533E+02  0.51100000000E-03 0. -1.
        -11    1    3    3    0    0 -0.14737528823E+01 -0.90378279164E+01 -0.97475593342E+01  0.13374198826E+02  0.51100000000E-03 0.  1.
        -12    1    3    3    0    0 -0.79203158701E+01 -0.10734611698E+02 -0.13369215185E+02  0.18886482109E+02  0.00000000000E+00 0.  1.
</event>
<event>
 7    1  0.3086024E-009  0.4614232E+02  0.7816164E-02  0.1320468E+00
        -11   -1    0    0    0    0  0.00000000000E+00  0.00000000000E+00  0.45593999997E+02  0.45594000000E+02  0.51100000000E-03 0. -1.
         11   -1    0    0    0    0 -0.00000000000E+00 -0.00000000000E+00 -0.45593999997E+02  0.45594000000E+02  0.51100000000E-03 0.  1.
    9900012    2    1    2    0    0  0.21790392885E+02 -0.39155371494E+02 -0.45988188764E+01  0.46142317921E+02  0.10000001460E+02 0.  0.
         12    1    1    2    0    0 -0.21790392885E+02  0.39155371494E+02  0.45988188764E+01  0.45045682079E+02  0.00000000000E+00 0. -1.
         11    1    3    3    0    0  0.92185773044E+01 -0.21380474631E+02 -0.87186957497E+00  0.23299506857E+02  0.51100000000E-03 0. -1.
        -11    1    3    3    0    0  0.42786850247E+01 -0.10950749462E+02 -0.26259438608E+01  0.12046644377E+02  0.51100000000E-03 0.  1.
        -12    1    3    3    0    0  0.82931305560E+01 -0.68241474008E+01 -0.11010054406E+01  0.10796166688E+02  0.00000000000E+00 0.  1.
</event>
<event>
 7    1  0.3086024E-009  0.4614232E+02  0.7816164E-02  0.1320468E+00
        -11   -1    0    0    0    0  0.00000000000E+00  0.00000000000E+00  0.45593999997E+02  0.45594000000E+02  0.51100000000E-03 0. -1.
         11   -1    0    0    0    0 -0.00000000000E+00 -0.00000000000E+00 -0.45593999997E+02  0.45594000000E+02  0.51100000000E-03 0.  1.
    9900012    2    1    2    0    0 -0.21439495083E+02  0.39591119647E+02 -0.14158872904E+01  0.46142318286E+02  0.10000004782E+02 0.  0.
         12    1    1    2    0    0  0.21439495083E+02 -0.39591119647E+02  0.14158872904E+01  0.45045681714E+02  0.00000000000E+00 0. -1.
         11    1    3    3    0    0 -0.58009657111E+01  0.36996803458E+01 -0.60565634052E+00  0.69069282395E+01  0.51100000000E-03 0. -1.
        -11    1    3    3    0    0 -0.93373085631E+01  0.23720298986E+02  0.19947902151E+00  0.25492699099E+02  0.51100000000E-03 0.  1.
         12    1    3    3    0    0 -0.63012208086E+01  0.12171140315E+02 -0.10097099714E+01  0.13742690947E+02  0.00000000000E+00 0. -1.
</event>
<event>
 7    1  0.3086024E-009  0.4614231E+02  0.7816164E-02  0.1320468E+00
        -11   -1    0    0    0    0  0.00000000000E+00  0.00000000000E+00  0.45593999997E+02  0.45594000000E+02  0.51100000000E-03 0.  1.
         11   -1    0    0    0    0 -0.00000000000E+00 -0.00000000000E+00 -0.45593999997E+02  0.45594000000E+02  0.51100000000E-03 0. -1.
    9900012    2    1    2    0    0 -0.15199633022E+02  0.41656755726E+02  0.79246565746E+01  0.46142308492E+02  0.99999154756E+01 0.  0.
         12    1    1    2    0    0  0.15199633022E+02 -0.41656755726E+02 -0.79246565746E+01  0.45045691508E+02  0.00000000000E+00 0. -1.
         11    1    3    3    0    0 -0.14510525442E+00  0.68256999080E+01 -0.56073306437E+00  0.68502304049E+01  0.51100000000E-03 0. -1.
        -11    1    3    3    0    0 -0.10516043343E+02  0.18803607344E+02  0.65741805756E+01  0.22525156320E+02  0.51100000000E-03 0.  1.
        -12    1    3    3    0    0 -0.45384844249E+01  0.16027448474E+02  0.19112090634E+01  0.16766921767E+02  0.00000000000E+00 0.  1.
</event>
<event>
 7    1  0.3086024E-009  0.4614232E+02  0.7816164E-02  0.1320468E+00
        -11   -1    0    0    0    0  0.00000000000E+00  0.00000000000E+00  0.45593999997E+02  0.45594000000E+02  0.51100000000E-03 0.  1.
         11   -1    0    0    0    0 -0.00000000000E+00 -0.00000000000E+00 -0.45593999997E+02  0.45594000000E+02  0.51100000000E-03 0. -1.
    9900012    2    1    2    0    0 -0.41357023366E+02 -0.19488973538E+01  0.17745762640E+02  0.46142315698E+02  0.99999811846E+01 0.  0.
         12    1    1    2    0    0  0.41357023366E+02  0.19488973538E+01 -0.17745762640E+02  0.45045684302E+02  0.00000000000E+00 0. -1.
         11    1    3    3    0    0 -0.24897272661E+02 -0.46631355863E+01  0.13950271979E+02  0.28917626251E+02  0.51100000000E-03 0. -1.
        -11    1    3    3    0    0 -0.33400513199E+01  0.69294364557E-01  0.14283582552E+01  0.36333114503E+01  0.51100000000E-03 0.  1.
         12    1    3    3    0    0 -0.13119699385E+02  0.26449438680E+01  0.23671324065E+01  0.13591377996E+02  0.00000000000E+00 0. -1.
</event>
<event>
 7    1  0.3333511E-009  0.4614232E+02  0.7816164E-02  0.1320468E+00
        -11   -1    0    0    0    0  0.00000000000E+00  0.00000000000E+00  0.45593999997E+02  0.45594000000E+02  0.51100000000E-03 0. -1.
         11   -1    0    0    0    0 -0.00000000000E+00 -0.00000000000E+00 -0.45593999997E+02  0.45594000000E+02  0.51100000000E-03 0.  1.
    9900012    2    1    2    0    0 -0.23334206285E+01 -0.34456927108E+02 -0.28920386867E+02  0.46142318142E+02  0.10000003470E+02 0.  0.
         12    1    1    2    0    0  0.23334206285E+01  0.34456927108E+02  0.28920386867E+02  0.45045681858E+02  0.00000000000E+00 0. -1.
         11    1    3    3    0    0 -0.35946602258E+01 -0.49729799932E+01 -0.37188117897E+01  0.71750730686E+01  0.51100000000E-03 0. -1.
        -11    1    3    3    0    0 -0.11117851804E+01 -0.14600330197E+02 -0.12008105584E+02  0.18936744919E+02  0.51100000000E-03 0.  1.
         12    1    3    3    0    0  0.23730247777E+01 -0.14883616918E+02 -0.13193469493E+02  0.20030500154E+02  0.00000000000E+00 0. -1.
</event>
<event>
 7    1  0.3086024E-009  0.4614232E+02  0.7816164E-02  0.1320468E+00
        -11   -1    0    0    0    0  0.00000000000E+00  0.00000000000E+00  0.45593999997E+02  0.45594000000E+02  0.51100000000E-03 0.  1.
         11   -1    0    0    0    0 -0.00000000000E+00 -0.00000000000E+00 -0.45593999997E+02  0.45594000000E+02  0.51100000000E-03 0. -1.
    9900012    2    1    2    0    0  0.14068703358E+02  0.39857630757E+02  0.15574157135E+02  0.46142317475E+02  0.99999973867E+01 0.  0.
         12    1    1    2    0    0 -0.14068703358E+02 -0.39857630757E+02 -0.15574157135E+02  0.45045682525E+02  0.00000000000E+00 0. -1.
         11    1    3    3    0    0  0.70000671041E+01  0.10667424876E+02  0.74909145237E+01  0.14795563308E+02  0.51100000000E-03 0. -1.
        -11    1    3    3    0    0  0.26412299924E+01  0.82371856343E+01  0.63788080995E+00  0.86737659201E+01  0.51100000000E-03 0.  1.
        -12    1    3    3    0    0  0.44274062610E+01  0.20953020247E+02  0.74453618010E+01  0.22672988246E+02  0.00000000000E+00 0.  1.
</event>
<event>
 7    1  0.3086024E-009  0.4614232E+02  0.7816164E-02  0.1320468E+00
        -11   -1    0    0    0    0  0.00000000000E+00  0.00000000000E+00  0.45593999997E+02  0.45594000000E+02  0.51100000000E-03 0.  1.
         11   -1    0    0    0    0 -0.00000000000E+00 -0.00000000000E+00 -0.45593999997E+02  0.45594000000E+02  0.51100000000E-03 0. -1.
    9900012    2    1    2    0    0  0.15715538135E+02 -0.41934201942E+02  0.48639653692E+01  0.46142316628E+02  0.99999896644E+01 0.  0.
         12    1    1    2    0    0 -0.15715538135E+02  0.41934201942E+02 -0.48639653692E+01  0.45045683372E+02  0.00000000000E+00 0. -1.
         11    1    3    3    0    0  0.11993622270E+01 -0.98791534926E+00  0.66329543027E+00  0.16894992092E+01  0.51100000000E-03 0. -1.
        -11    1    3    3    0    0  0.17951218908E+01 -0.11185629781E+02  0.42147084202E+01  0.12087371241E+02  0.51100000000E-03 0.  1.
        -12    1    3    3    0    0  0.12721054017E+02 -0.29760656812E+02 -0.14038481237E-01  0.32365446177E+02  0.00000000000E+00 0.  1.
</event>
<event>
 7    1  0.3086024E-009  0.4614232E+02  0.7816164E-02  0.1320468E+00
        -11   -1    0    0    0    0  0.00000000000E+00  0.00000000000E+00  0.45593999997E+02  0.45594000000E+02  0.51100000000E-03 0.  1.
         11   -1    0    0    0    0 -0.00000000000E+00 -0.00000000000E+00 -0.45593999997E+02  0.45594000000E+02  0.51100000000E-03 0. -1.
    9900012    2    1    2    0    0  0.32918641707E+02 -0.43341731588E+01  0.30441607329E+02  0.46142317792E+02  0.10000000281E+02 0.  0.
         12    1    1    2    0    0 -0.32918641707E+02  0.43341731588E+01 -0.30441607329E+02  0.45045682208E+02  0.00000000000E+00 0. -1.
         11    1    3    3    0    0  0.10521385621E+02 -0.46486676247E+01  0.13326060428E+02  0.17603793706E+02  0.51100000000E-03 0. -1.
        -11    1    3    3    0    0  0.12379625024E+02  0.35780181418E+00  0.12181642958E+02  0.17371688556E+02  0.51100000000E-03 0.  1.
        -12    1    3    3    0    0  0.10017631062E+02 -0.43307348203E-01  0.49339039433E+01  0.11166835529E+02  0.00000000000E+00 0.  1.
</event>
<event>
 7    1  0.3086024E-009  0.4614232E+02  0.7816164E-02  0.1320468E+00
        -11   -1    0    0    0    0  0.00000000000E+00  0.00000000000E+00  0.45593999997E+02  0.45594000000E+02  0.51100000000E-03 0.  1.
         11   -1    0    0    0    0 -0.00000000000E+00 -0.00000000000E+00 -0.45593999997E+02  0.45594000000E+02  0.51100000000E-03 0. -1.
    9900012    2    1    2    0    0 -0.35897963212E+02  0.12446248686E+02  0.24197946786E+02  0.46142317657E+02  0.99999990469E+01 0.  0.
         12    1    1    2    0    0  0.35897963212E+02 -0.12446248686E+02 -0.24197946786E+02  0.45045682343E+02  0.00000000000E+00 0. -1.
         11    1    3    3    0    0 -0.31124139483E+01  0.19115076985E+00 -0.47956251253E+00  0.31549389324E+01  0.51100000000E-03 0. -1.
        -11    1    3    3    0    0 -0.79108223577E+01  0.42850652236E+01  0.76257694118E+01  0.11793865089E+02  0.51100000000E-03 0.  1.
         12    1    3    3    0    0 -0.24874726906E+02  0.79700326927E+01  0.17051739887E+02  0.31193513636E+02  0.00000000000E+00 0. -1.
</event>
<event>
 7    1  0.3086024E-009  0.4614232E+02  0.7816164E-02  0.1320468E+00
        -11   -1    0    0    0    0  0.00000000000E+00  0.00000000000E+00  0.45593999997E+02  0.45594000000E+02  0.51100000000E-03 0.  1.
         11   -1    0    0    0    0 -0.00000000000E+00 -0.00000000000E+00 -0.45593999997E+02  0.45594000000E+02  0.51100000000E-03 0. -1.
    9900012    2    1    2    0    0  0.18534560950E+02  0.22334871418E+02  0.34449048187E+02  0.46142319277E+02  0.10000013819E+02 0.  0.
         12    1    1    2    0    0 -0.18534560950E+02 -0.22334871418E+02 -0.34449048187E+02  0.45045680723E+02  0.00000000000E+00 0. -1.
         11    1    3    3    0    0  0.30489707207E+01  0.92346216416E+01  0.13258827389E+02  0.16442960904E+02  0.51100000000E-03 0. -1.
        -11    1    3    3    0    0  0.11165457299E+02  0.10125157664E+02  0.12653546197E+02  0.19679900560E+02  0.51100000000E-03 0.  1.
        -12    1    3    3    0    0  0.43201329299E+01  0.29750921125E+01  0.85366746010E+01  0.10019457812E+02  0.00000000000E+00 0.  1.
</event>
<event>
 7    1  0.3086024E-009  0.4614232E+02  0.7816164E-02  0.1320468E+00
        -11   -1    0    0    0    0  0.00000000000E+00  0.00000000000E+00  0.45593999997E+02  0.45594000000E+02  0.51100000000E-03 0. -1.
         11   -1    0    0    0    0 -0.00000000000E+00 -0.00000000000E+00 -0.45593999997E+02  0.45594000000E+02  0.51100000000E-03 0.  1.
    9900012    2    1    2    0    0 -0.41115797201E+02  0.17490752312E+02 -0.57164783623E+01  0.46142319622E+02  0.10000016965E+02 0.  0.
         12    1    1    2    0    0  0.41115797201E+02 -0.17490752312E+02  0.57164783623E+01  0.45045680378E+02  0.00000000000E+00 0. -1.
         11    1    3    3    0    0 -0.93334732427E+01  0.19332526709E+01 -0.33539568268E+01  0.10104465118E+02  0.51100000000E-03 0. -1.
        -11    1    3    3    0    0 -0.16383140107E+02  0.86664397757E+01 -0.43864961346E+01  0.19046149395E+02  0.51100000000E-03 0.  1.
        -12    1    3    3    0    0 -0.15399183851E+02  0.68910598654E+01  0.20239745992E+01  0.16991705109E+02  0.00000000000E+00 0.  1.
</event>
<event>
 7    1  0.3086024E-009  0.4614232E+02  0.7816164E-02  0.1320468E+00
        -11   -1    0    0    0    0  0.00000000000E+00  0.00000000000E+00  0.45593999997E+02  0.45594000000E+02  0.51100000000E-03 0.  1.
         11   -1    0    0    0    0 -0.00000000000E+00 -0.00000000000E+00 -0.45593999997E+02  0.45594000000E+02  0.51100000000E-03 0. -1.
    9900012    2    1    2    0    0 -0.18706373662E+02  0.19800556217E+02  0.35876500578E+02  0.46142315014E+02  0.99999749510E+01 0.  0.
         12    1    1    2    0    0  0.18706373662E+02 -0.19800556217E+02 -0.35876500578E+02  0.45045684986E+02  0.00000000000E+00 0. -1.
         11    1    3    3    0    0 -0.43169024883E+01  0.31784900958E+01  0.35995243882E+01  0.64571683008E+01  0.51100000000E-03 0. -1.
        -11    1    3    3    0    0 -0.11078329116E+02  0.86041353072E+01  0.23337263501E+02  0.27228448145E+02  0.51100000000E-03 0.  1.
        -12    1    3    3    0    0 -0.33111420582E+01  0.80179308144E+01  0.89397126888E+01  0.12456698569E+02  0.00000000000E+00 0.  1.
</event>
<event>
 7    1  0.3086024E-009  0.4614232E+02  0.7816164E-02  0.1320468E+00
        -11   -1    0    0    0    0  0.00000000000E+00  0.00000000000E+00  0.45593999997E+02  0.45594000000E+02  0.51100000000E-03 0.  1.
         11   -1    0    0    0    0 -0.00000000000E+00 -0.00000000000E+00 -0.45593999997E+02  0.45594000000E+02  0.51100000000E-03 0. -1.
    9900012    2    1    2    0    0 -0.17344894332E+02  0.39719223179E+02  0.12273999964E+02  0.46142321801E+02  0.10000036835E+02 0.  0.
         12    1    1    2    0    0  0.17344894332E+02 -0.39719223179E+02 -0.12273999964E+02  0.45045678199E+02  0.00000000000E+00 0. -1.
         11    1    3    3    0    0 -0.44546818243E+01  0.45896831575E+01  0.34149224161E+01  0.72505914939E+01  0.51100000000E-03 0. -1.
        -11    1    3    3    0    0 -0.70628917766E+01  0.13626051187E+02  0.57837737864E+01  0.16401394778E+02  0.51100000000E-03 0.  1.
        -12    1    3    3    0    0 -0.58273207312E+01  0.21503488835E+02  0.30753037619E+01  0.22490335529E+02  0.00000000000E+00 0.  1.
</event>
<event>
 7    1  0.3086024E-009  0.4614232E+02  0.7816164E-02  0.1320468E+00
        -11   -1    0    0    0    0  0.00000000000E+00  0.00000000000E+00  0.45593999997E+02  0.45594000000E+02  0.51100000000E-03 0.  1.
         11   -1    0    0    0    0 -0.00000000000E+00 -0.00000000000E+00 -0.45593999997E+02  0.45594000000E+02  0.51100000000E-03 0. -1.
    9900012    2    1    2    0    0 -0.42450111295E+02  0.15056312113E+02 -0.63948590127E+00  0.46142318457E+02  0.10000006349E+02 0.  0.
         12    1    1    2    0    0  0.42450111295E+02 -0.15056312113E+02  0.63948590127E+00  0.45045681543E+02  0.00000000000E+00 0. -1.
         11    1    3    3    0    0 -0.19623564288E+02  0.90458836244E+01  0.14057201957E+01  0.21653829579E+02  0.51100000000E-03 0. -1.
        -11    1    3    3    0    0 -0.19304873683E+02  0.72702701616E+01 -0.12615670323E+01  0.20667039648E+02  0.51100000000E-03 0.  1.
         12    1    3    3    0    0 -0.35216733236E+01 -0.12598416727E+01 -0.78363906468E+00  0.38214492306E+01  0.00000000000E+00 0. -1.
</event>
<event>
 7    1  0.3086024E-009  0.4614231E+02  0.7816164E-02  0.1320468E+00
        -11   -1    0    0    0    0  0.00000000000E+00  0.00000000000E+00  0.45593999997E+02  0.45594000000E+02  0.51100000000E-03 0.  1.
         11   -1    0    0    0    0 -0.00000000000E+00 -0.00000000000E+00 -0.45593999997E+02  0.45594000000E+02  0.51100000000E-03 0. -1.
    9900012    2    1    2    0    0  0.88215879590E+01  0.13925953565E+02  0.41920891938E+02  0.46142314549E+02  0.99999707123E+01 0.  0.
         12    1    1    2    0    0 -0.88215879590E+01 -0.13925953565E+02 -0.41920891938E+02  0.45045685451E+02  0.00000000000E+00 0. -1.
         11    1    3    3    0    0  0.10065477343E+01  0.28225574677E+01  0.11563788073E+02  0.11945759241E+02  0.51100000000E-03 0. -1.
        -11    1    3    3    0    0  0.47788615468E+01  0.28889252592E+01  0.19298714402E+02  0.20090390357E+02  0.51100000000E-03 0.  1.
        -12    1    3    3    0    0  0.30361786779E+01  0.82144708381E+01  0.11058389463E+02  0.14106164951E+02  0.00000000000E+00 0.  1.
</event>
<event>
 7    1  0.3086024E-009  0.4614232E+02  0.7816164E-02  0.1320468E+00
        -11   -1    0    0    0    0  0.00000000000E+00  0.00000000000E+00  0.45593999997E+02  0.45594000000E+02  0.51100000000E-03 0.  1.
         11   -1    0    0    0    0 -0.00000000000E+00 -0.00000000000E+00 -0.45593999997E+02  0.45594000000E+02  0.51100000000E-03 0. -1.
    9900012    2    1    2    0    0 -0.66115182604E+01 -0.63803136689E+01  0.44098673871E+02  0.46142316374E+02  0.99999873475E+01 0.  0.
         12    1    1    2    0    0  0.66115182604E+01  0.63803136689E+01 -0.44098673871E+02  0.45045683626E+02  0.00000000000E+00 0. -1.
         11    1    3    3    0    0 -0.14892261711E+01 -0.24050919224E+01  0.66783424752E+01  0.72527594901E+01  0.51100000000E-03 0. -1.
        -11    1    3    3    0    0 -0.59012217171E+01 -0.82488140579E+00  0.13585003683E+02  0.14834324130E+02  0.51100000000E-03 0.  1.
        -12    1    3    3    0    0  0.77892962785E+00 -0.31503403407E+01  0.23835327713E+02  0.24055232753E+02  0.00000000000E+00 0.  1.
</event>
<event>
 7    1  0.3086024E-009  0.4614232E+02  0.7816164E-02  0.1320468E+00
        -11   -1    0    0    0    0  0.00000000000E+00  0.00000000000E+00  0.45593999997E+02  0.45594000000E+02  0.51100000000E-03 0. -1.
         11   -1    0    0    0    0 -0.00000000000E+00 -0.00000000000E+00 -0.45593999997E+02  0.45594000000E+02  0.51100000000E-03 0.  1.
    9900012    2    1    2    0    0 -0.38421163697E+02  0.23261640848E+02 -0.34385669358E+01  0.46142317661E+02  0.99999990893E+01 0.  0.
         12    1    1    2    0    0  0.38421163697E+02 -0.23261640848E+02  0.34385669358E+01  0.45045682339E+02  0.00000000000E+00 0. -1.
         11    1    3    3    0    0 -0.32051938436E+01  0.18696849695E+00  0.94802608684E-01  0.32120418101E+01  0.51100000000E-03 0. -1.
        -11    1    3    3    0    0 -0.10380596984E+02  0.58281475665E+01  0.23299428235E+01  0.12130652564E+02  0.51100000000E-03 0.  1.
        -12    1    3    3    0    0 -0.24835372870E+02  0.17246524785E+02 -0.58633123680E+01  0.30799623288E+02  0.00000000000E+00 0.  1.
</event>
<event>
 7    1  0.3086024E-009  0.4614232E+02  0.7816164E-02  0.1320468E+00
        -11   -1    0    0    0    0  0.00000000000E+00  0.00000000000E+00  0.45593999997E+02  0.45594000000E+02  0.51100000000E-03 0.  1.
         11   -1    0    0    0    0 -0.00000000000E+00 -0.00000000000E+00 -0.45593999997E+02  0.45594000000E+02  0.51100000000E-03 0. -1.
    9900012    2    1    2    0    0  0.11466056375E+02 -0.43475272938E+02  0.27465976631E+01  0.46142316471E+02  0.99999882380E+01 0.  0.
         12    1    1    2    0    0 -0.11466056375E+02  0.43475272938E+02 -0.27465976631E+01  0.45045683529E+02  0.00000000000E+00 0. -1.
         11    1    3    3    0    0  0.50223940270E+01 -0.21380911777E+02  0.19529743463E+01  0.22049533764E+02  0.51100000000E-03 0. -1.
        -11    1    3    3    0    0  0.16625272586E+01 -0.12186698313E+02 -0.26176937513E+01  0.12575052028E+02  0.51100000000E-03 0.  1.
        -12    1    3    3    0    0  0.47811350897E+01 -0.99076628483E+01  0.34113170681E+01  0.11517730679E+02  0.00000000000E+00 0.  1.
</event>
<event>
 7    1  0.3086024E-009  0.4614232E+02  0.7816164E-02  0.1320468E+00
        -11   -1    0    0    0    0  0.00000000000E+00  0.00000000000E+00  0.45593999997E+02  0.45594000000E+02  0.51100000000E-03 0.  1.
         11   -1    0    0    0    0 -0.00000000000E+00 -0.00000000000E+00 -0.45593999997E+02  0.45594000000E+02  0.51100000000E-03 0. -1.
    9900012    2    1    2    0    0 -0.55287996375E+00  0.19768748583E+02  0.40472266319E+02  0.46142318323E+02  0.10000005123E+02 0.  0.
         12    1    1    2    0    0  0.55287996375E+00 -0.19768748583E+02 -0.40472266319E+02  0.45045681677E+02  0.00000000000E+00 0. -1.
         11    1    3    3    0    0 -0.28432595866E+00 -0.27318073785E+00  0.65831487577E+00  0.76736412679E+00  0.51100000000E-03 0. -1.
        -11    1    3    3    0    0  0.94327970200E+00  0.16212761249E+02  0.37179598062E+02  0.40571737900E+02  0.51100000000E-03 0.  1.
        -12    1    3    3    0    0 -0.12118337071E+01  0.38291680710E+01  0.26343533807E+01  0.48032162957E+01  0.00000000000E+00 0.  1.
</event>
<event>
 7    1  0.3086024E-009  0.4614232E+02  0.7816164E-02  0.1320468E+00
        -11   -1    0    0    0    0  0.00000000000E+00  0.00000000000E+00  0.45593999997E+02  0.45594000000E+02  0.51100000000E-03 0.  1.
         11   -1    0    0    0    0 -0.00000000000E+00 -0.00000000000E+00 -0.45593999997E+02  0.45594000000E+02  0.51100000000E-03 0. -1.
    9900012    2    1    2    0    0 -0.43634475497E+01  0.16730150919E+02  0.41595381799E+02  0.46142318617E+02  0.10000007803E+02 0.  0.
         12    1    1    2    0    0  0.43634475497E+01 -0.16730150919E+02 -0.41595381799E+02  0.45045681383E+02  0.00000000000E+00 0. -1.
         11    1    3    3    0    0  0.32244556794E+00 -0.25303937994E-01  0.59341726744E+00  0.67583707207E+00  0.51100000000E-03 0. -1.
        -11    1    3    3    0    0 -0.39840696885E+01  0.16349512881E+02  0.41304655200E+02  0.44601052949E+02  0.51100000000E-03 0.  1.
        -12    1    3    3    0    0 -0.70182342916E+00  0.40594197589E+00 -0.30269066846E+00  0.86542859571E+00  0.00000000000E+00 0.  1.
</event>
<event>
 7    1  0.3086024E-009  0.4614232E+02  0.7816164E-02  0.1320468E+00
        -11   -1    0    0    0    0  0.00000000000E+00  0.00000000000E+00  0.45593999997E+02  0.45594000000E+02  0.51100000000E-03 0. -1.
         11   -1    0    0    0    0 -0.00000000000E+00 -0.00000000000E+00 -0.45593999997E+02  0.45594000000E+02  0.51100000000E-03 0.  1.
    9900012    2    1    2    0    0 -0.31115173977E+02 -0.28065265442E+02 -0.16531797387E+02  0.46142317623E+02  0.99999987427E+01 0.  0.
         12    1    1    2    0    0  0.31115173977E+02  0.28065265442E+02  0.16531797387E+02  0.45045682377E+02  0.00000000000E+00 0. -1.
         11    1    3    3    0    0 -0.19846499545E+02 -0.16974771404E+02 -0.57392690929E+01  0.26738841007E+02  0.51100000000E-03 0. -1.
        -11    1    3    3    0    0 -0.32046455732E+01 -0.14017775797E+01 -0.19376680026E+01  0.39986611737E+01  0.51100000000E-03 0.  1.
         12    1    3    3    0    0 -0.80640288588E+01 -0.96887164585E+01 -0.88548602911E+01  0.15404815443E+02  0.00000000000E+00 0. -1.
</event>
<event>
 7    1  0.3086024E-009  0.4614230E+02  0.7816164E-02  0.1320468E+00
        -11   -1    0    0    0    0  0.00000000000E+00  0.00000000000E+00  0.45593999997E+02  0.45594000000E+02  0.51100000000E-03 0. -1.
         11   -1    0    0    0    0 -0.00000000000E+00 -0.00000000000E+00 -0.45593999997E+02  0.45594000000E+02  0.51100000000E-03 0.  1.
    9900012    2    1    2    0    0  0.40275382395E+02 -0.20129103418E+02 -0.13518682901E+01  0.46142303431E+02  0.99998693296E+01 0.  0.
         12    1    1    2    0    0 -0.40275382395E+02  0.20129103418E+02  0.13518682901E+01  0.45045696569E+02  0.00000000000E+00 0. -1.
         11    1    3    3    0    0  0.15183773071E+01  0.72962328820E+00 -0.12703880126E+01  0.21099065745E+01  0.51100000000E-03 0. -1.
        -11    1    3    3    0    0  0.24594045862E+02 -0.12541938076E+02 -0.16415711272E+00  0.27607865734E+02  0.51100000000E-03 0.  1.
         12    1    3    3    0    0  0.14162959226E+02 -0.83167886297E+01  0.82676835207E-01  0.16424531123E+02  0.00000000000E+00 0. -1.
</event>
<event>
 7    1  0.3086024E-009  0.4614231E+02  0.7816164E-02  0.1320468E+00
        -11   -1    0    0    0    0  0.00000000000E+00  0.00000000000E+00  0.45593999997E+02  0.45594000000E+02  0.51100000000E-03 0.  1.
         11   -1    0    0    0    0 -0.00000000000E+00 -0.00000000000E+00 -0.45593999997E+02  0.45594000000E+02  0.51100000000E-03 0. -1.
    9900012    2    1    2    0    0 -0.17033220640E+02  0.24792040745E+02  0.33531158350E+02  0.46142306866E+02  0.99999006452E+01 0.  0.
         12    1    1    2    0    0  0.17033220640E+02 -0.24792040745E+02 -0.33531158350E+02  0.45045693134E+02  0.00000000000E+00 0. -1.
         11    1    3    3    0    0 -0.23231086018E+01  0.54078857141E+01  0.12278504675E+02  0.13616304153E+02  0.51100000000E-03 0. -1.
        -11    1    3    3    0    0 -0.96202463640E+01  0.10169707779E+02  0.13544428065E+02  0.19478799457E+02  0.51100000000E-03 0.  1.
         12    1    3    3    0    0 -0.50898656744E+01  0.92144472514E+01  0.77082256100E+01  0.13047203255E+02  0.00000000000E+00 0. -1.
</event>
<event>
 7    1  0.3086024E-009  0.4614232E+02  0.7816164E-02  0.1320468E+00
        -11   -1    0    0    0    0  0.00000000000E+00  0.00000000000E+00  0.45593999997E+02  0.45594000000E+02  0.51100000000E-03 0. -1.
         11   -1    0    0    0    0 -0.00000000000E+00 -0.00000000000E+00 -0.45593999997E+02  0.45594000000E+02  0.51100000000E-03 0.  1.
    9900012    2    1    2    0    0  0.44891027935E+02  0.33691450403E+01 -0.15993587160E+01  0.46142317902E+02  0.10000001284E+02 0.  0.
         12    1    1    2    0    0 -0.44891027935E+02 -0.33691450403E+01  0.15993587160E+01  0.45045682098E+02  0.00000000000E+00 0. -1.
         11    1    3    3    0    0  0.16570044808E+02  0.20631691013E+01  0.49861424348E+00  0.16705438279E+02  0.51100000000E-03 0.  1.
        -11    1    3    3    0    0  0.12791718566E+02  0.33805907232E+01 -0.35603390489E+01  0.13701549982E+02  0.51100000000E-03 0. -1.
         12    1    3    3    0    0  0.15529264561E+02 -0.20746147842E+01  0.14623660894E+01  0.15735329640E+02  0.00000000000E+00 0. -1.
</event>
<event>
 7    1  0.3086024E-009  0.4614232E+02  0.7816164E-02  0.1320468E+00
        -11   -1    0    0    0    0  0.00000000000E+00  0.00000000000E+00  0.45593999997E+02  0.45594000000E+02  0.51100000000E-03 0.  1.
         11   -1    0    0    0    0 -0.00000000000E+00 -0.00000000000E+00 -0.45593999997E+02  0.45594000000E+02  0.51100000000E-03 0. -1.
    9900012    2    1    2    0    0  0.73756110297E+01  0.30371411926E+02  0.32439038299E+02  0.46142317563E+02  0.99999981936E+01 0.  0.
         12    1    1    2    0    0 -0.73756110297E+01 -0.30371411926E+02 -0.32439038299E+02  0.45045682437E+02  0.00000000000E+00 0. -1.
         11    1    3    3    0    0  0.14088470445E+01 -0.29580689588E+00  0.18291821266E+01  0.23277154525E+01  0.51100000000E-03 0. -1.
        -11    1    3    3    0    0  0.25177264304E+01  0.19248981850E+02  0.18471244586E+02  0.26796438671E+02  0.51100000000E-03 0.  1.
        -12    1    3    3    0    0  0.34490375548E+01  0.11418236973E+02  0.12138611586E+02  0.17018163440E+02  0.00000000000E+00 0.  1.
</event>
<event>
 7    1  0.3086024E-009  0.4614232E+02  0.7816164E-02  0.1320468E+00
        -11   -1    0    0    0    0  0.00000000000E+00  0.00000000000E+00  0.45593999997E+02  0.45594000000E+02  0.51100000000E-03 0.  1.
         11   -1    0    0    0    0 -0.00000000000E+00 -0.00000000000E+00 -0.45593999997E+02  0.45594000000E+02  0.51100000000E-03 0. -1.
    9900012    2    1    2    0    0  0.19906008177E+02  0.39867610659E+02  0.65907470584E+01  0.46142317765E+02  0.10000000038E+02 0.  0.
         12    1    1    2    0    0 -0.19906008177E+02 -0.39867610659E+02 -0.65907470584E+01  0.45045682235E+02  0.00000000000E+00 0. -1.
         11    1    3    3    0    0  0.75853472932E+01  0.18287464505E+02  0.58070442210E+01  0.20632271189E+02  0.51100000000E-03 0. -1.
        -11    1    3    3    0    0  0.68086117022E+01  0.16980091399E+02  0.60768391854E-01  0.18294381386E+02  0.51100000000E-03 0.  1.
         12    1    3    3    0    0  0.55120491811E+01  0.46000547552E+01  0.72293444552E+00  0.72156651903E+01  0.00000000000E+00 0. -1.
</event>
<event>
 7    1  0.3086024E-009  0.4614232E+02  0.7816164E-02  0.1320468E+00
        -11   -1    0    0    0    0  0.00000000000E+00  0.00000000000E+00  0.45593999997E+02  0.45594000000E+02  0.51100000000E-03 0. -1.
         11   -1    0    0    0    0 -0.00000000000E+00 -0.00000000000E+00 -0.45593999997E+02  0.45594000000E+02  0.51100000000E-03 0.  1.
    9900012    2    1    2    0    0  0.22095334756E+02  0.25099907887E+02 -0.30181190554E+02  0.46142318107E+02  0.10000003157E+02 0.  0.
         12    1    1    2    0    0 -0.22095334756E+02 -0.25099907887E+02  0.30181190554E+02  0.45045681893E+02  0.00000000000E+00 0. -1.
         11    1    3    3    0    0  0.60070174777E+01  0.37380501419E+01 -0.95149966745E+01  0.11857168288E+02  0.51100000000E-03 0. -1.
        -11    1    3    3    0    0  0.83594659825E+01  0.73592959668E+01 -0.10674192632E+02  0.15426545214E+02  0.51100000000E-03 0.  1.
         12    1    3    3    0    0  0.77288512957E+01  0.14002561779E+02 -0.99920012474E+01  0.18858604605E+02  0.00000000000E+00 0. -1.
</event>
<event>
 7    1  0.3086024E-009  0.4614232E+02  0.7816164E-02  0.1320468E+00
        -11   -1    0    0    0    0  0.00000000000E+00  0.00000000000E+00  0.45593999997E+02  0.45594000000E+02  0.51100000000E-03 0.  1.
         11   -1    0    0    0    0 -0.00000000000E+00 -0.00000000000E+00 -0.45593999997E+02  0.45594000000E+02  0.51100000000E-03 0. -1.
    9900012    2    1    2    0    0 -0.22298064269E+02  0.68693128732E+01  0.38532094726E+02  0.46142318148E+02  0.10000003528E+02 0.  0.
         12    1    1    2    0    0  0.22298064269E+02 -0.68693128732E+01 -0.38532094726E+02  0.45045681852E+02  0.00000000000E+00 0. -1.
         11    1    3    3    0    0  0.18990450926E+00 -0.40339179895E+00  0.17014289575E+01  0.17588773194E+01  0.51100000000E-03 0. -1.
        -11    1    3    3    0    0 -0.87992863011E+01  0.43534643181E+01  0.94183998728E+01  0.13604644332E+02  0.51100000000E-03 0.  1.
        -12    1    3    3    0    0 -0.13688682477E+02  0.29192403540E+01  0.27412265896E+02  0.30778796496E+02  0.00000000000E+00 0.  1.
</event>
<event>
 7    1  0.3086024E-009  0.4614232E+02  0.7816164E-02  0.1320468E+00
        -11   -1    0    0    0    0  0.00000000000E+00  0.00000000000E+00  0.45593999997E+02  0.45594000000E+02  0.51100000000E-03 0. -1.
         11   -1    0    0    0    0 -0.00000000000E+00 -0.00000000000E+00 -0.45593999997E+02  0.45594000000E+02  0.51100000000E-03 0.  1.
    9900012    2    1    2    0    0  0.23552316402E+02  0.31587442144E+02 -0.21831980701E+02  0.46142317738E+02  0.99999997904E+01 0.  0.
         12    1    1    2    0    0 -0.23552316402E+02 -0.31587442144E+02  0.21831980701E+02  0.45045682262E+02  0.00000000000E+00 0. -1.
         11    1    3    3    0    0  0.93149472573E+00  0.54951299385E+01 -0.23001552818E+01  0.60294983246E+01  0.51100000000E-03 0. -1.
        -11    1    3    3    0    0  0.65804797917E+01  0.42305494181E+01 -0.31510788198E+01  0.84338342797E+01  0.51100000000E-03 0.  1.
        -12    1    3    3    0    0  0.16040341885E+02  0.21861762787E+02 -0.16380746600E+02  0.31678985134E+02  0.00000000000E+00 0.  1.
</event>
<event>
 7    1  0.3086024E-009  0.4614232E+02  0.7816164E-02  0.1320468E+00
        -11   -1    0    0    0    0  0.00000000000E+00  0.00000000000E+00  0.45593999997E+02  0.45594000000E+02  0.51100000000E-03 0. -1.
         11   -1    0    0    0    0 -0.00000000000E+00 -0.00000000000E+00 -0.45593999997E+02  0.45594000000E+02  0.51100000000E-03 0.  1.
    9900012    2    1    2    0    0  0.34878877238E+02 -0.14644974300E+02 -0.24456126423E+02  0.46142317973E+02  0.10000001936E+02 0.  0.
         12    1    1    2    0    0 -0.34878877238E+02  0.14644974300E+02  0.24456126423E+02  0.45045682027E+02  0.00000000000E+00 0. -1.
         11    1    3    3    0    0  0.29173309635E+01 -0.49484237511E+00 -0.39027315707E+01  0.48976527951E+01  0.51100000000E-03 0. -1.
        -11    1    3    3    0    0  0.26477118183E+02 -0.14537479738E+02 -0.16540050587E+02  0.34437615744E+02  0.51100000000E-03 0.  1.
        -12    1    3    3    0    0  0.54844280906E+01  0.38734781301E+00 -0.40133442657E+01  0.68070494345E+01  0.00000000000E+00 0.  1.
</event>
<event>
 7    1  0.3086024E-009  0.4614232E+02  0.7816164E-02  0.1320468E+00
        -11   -1    0    0    0    0  0.00000000000E+00  0.00000000000E+00  0.45593999997E+02  0.45594000000E+02  0.51100000000E-03 0.  1.
         11   -1    0    0    0    0 -0.00000000000E+00 -0.00000000000E+00 -0.45593999997E+02  0.45594000000E+02  0.51100000000E-03 0. -1.
    9900012    2    1    2    0    0  0.44458623180E+02 -0.68221219043E+01  0.24500498453E+01  0.46142320223E+02  0.10000022449E+02 0.  0.
         12    1    1    2    0    0 -0.44458623180E+02  0.68221219043E+01 -0.24500498453E+01  0.45045679777E+02  0.00000000000E+00 0. -1.
         11    1    3    3    0    0  0.97852903464E+01 -0.18184280014E+01  0.31910508957E+01  0.10451860774E+02  0.51100000000E-03 0. -1.
        -11    1    3    3    0    0  0.26276971980E+02 -0.63780778720E+01 -0.18860475135E+01  0.27105650873E+02  0.51100000000E-03 0.  1.
        -12    1    3    3    0    0  0.83963608535E+01  0.13743839691E+01  0.11450464631E+01  0.85848085756E+01  0.00000000000E+00 0.  1.
</event>
<event>
 7    1  0.3086024E-009  0.4614232E+02  0.7816164E-02  0.1320468E+00
        -11   -1    0    0    0    0  0.00000000000E+00  0.00000000000E+00  0.45593999997E+02  0.45594000000E+02  0.51100000000E-03 0. -1.
         11   -1    0    0    0    0 -0.00000000000E+00 -0.00000000000E+00 -0.45593999997E+02  0.45594000000E+02  0.51100000000E-03 0.  1.
    9900012    2    1    2    0    0 -0.32296459523E+02 -0.25206246317E+02 -0.18726913434E+02  0.46142318321E+02  0.10000005109E+02 0.  0.
         12    1    1    2    0    0  0.32296459523E+02  0.25206246317E+02  0.18726913434E+02  0.45045681679E+02  0.00000000000E+00 0. -1.
         11    1    3    3    0    0 -0.22730602787E+01 -0.26811761140E+01 -0.39911013719E+01  0.53183078895E+01  0.51100000000E-03 0. -1.
        -11    1    3    3    0    0 -0.21196507973E+02 -0.12089149447E+02 -0.92552112262E+01  0.26097862359E+02  0.51100000000E-03 0.  1.
        -12    1    3    3    0    0 -0.88268912708E+01 -0.10435920756E+02 -0.54806008362E+01  0.14726148073E+02  0.00000000000E+00 0.  1.
</event>
<event>
 7    1  0.3086024E-009  0.4614232E+02  0.7816164E-02  0.1320468E+00
        -11   -1    0    0    0    0  0.00000000000E+00  0.00000000000E+00  0.45593999997E+02  0.45594000000E+02  0.51100000000E-03 0.  1.
         11   -1    0    0    0    0 -0.00000000000E+00 -0.00000000000E+00 -0.45593999997E+02  0.45594000000E+02  0.51100000000E-03 0. -1.
    9900012    2    1    2    0    0  0.23008278979E+02 -0.10878009110E+02  0.37167210564E+02  0.46142317356E+02  0.99999963037E+01 0.  0.
         12    1    1    2    0    0 -0.23008278979E+02  0.10878009110E+02 -0.37167210564E+02  0.45045682644E+02  0.00000000000E+00 0. -1.
         11    1    3    3    0    0  0.17297500468E+02 -0.86490065517E+01  0.20908254263E+02  0.28480939826E+02  0.51100000000E-03 0. -1.
        -11    1    3    3    0    0  0.18945949987E+01 -0.16640558690E+01  0.99660347922E+01  0.10280098340E+02  0.51100000000E-03 0.  1.
         12    1    3    3    0    0  0.38161835126E+01 -0.56494668974E+00  0.62929215088E+01  0.73812791900E+01  0.00000000000E+00 0. -1.
</event>
<event>
 7    1  0.3086024E-009  0.4614232E+02  0.7816164E-02  0.1320468E+00
        -11   -1    0    0    0    0  0.00000000000E+00  0.00000000000E+00  0.45593999997E+02  0.45594000000E+02  0.51100000000E-03 0. -1.
         11   -1    0    0    0    0 -0.00000000000E+00 -0.00000000000E+00 -0.45593999997E+02  0.45594000000E+02  0.51100000000E-03 0.  1.
    9900012    2    1    2    0    0 -0.35100769993E+02  0.27919268861E+02 -0.41908846285E+01  0.46142321608E+02  0.10000035076E+02 0.  0.
         12    1    1    2    0    0  0.35100769993E+02 -0.27919268861E+02  0.41908846285E+01  0.45045678392E+02  0.00000000000E+00 0. -1.
         11    1    3    3    0    0 -0.82642131011E+01  0.43991162881E+01  0.18733217126E+01  0.95477105526E+01  0.51100000000E-03 0. -1.
        -11    1    3    3    0    0 -0.71035440892E+01  0.95840072142E+01 -0.21422560904E+01  0.12120346296E+02  0.51100000000E-03 0.  1.
        -12    1    3    3    0    0 -0.19733012803E+02  0.13936145359E+02 -0.39219502507E+01  0.24474264759E+02  0.00000000000E+00 0.  1.
</event>
<event>
 7    1  0.3086024E-009  0.4614232E+02  0.7816164E-02  0.1320468E+00
        -11   -1    0    0    0    0  0.00000000000E+00  0.00000000000E+00  0.45593999997E+02  0.45594000000E+02  0.51100000000E-03 0. -1.
         11   -1    0    0    0    0 -0.00000000000E+00 -0.00000000000E+00 -0.45593999997E+02  0.45594000000E+02  0.51100000000E-03 0.  1.
    9900012    2    1    2    0    0  0.93959782232E+01 -0.22935241950E+02 -0.37613875772E+02  0.46142318956E+02  0.10000010896E+02 0.  0.
         12    1    1    2    0    0 -0.93959782232E+01  0.22935241950E+02  0.37613875772E+02  0.45045681044E+02  0.00000000000E+00 0. -1.
         11    1    3    3    0    0  0.16103405172E+01 -0.74826935864E+01 -0.11472526109E+02  0.13791401505E+02  0.51100000000E-03 0. -1.
        -11    1    3    3    0    0  0.35322221005E+01 -0.13735933754E+02 -0.17129691755E+02  0.22239127882E+02  0.51100000000E-03 0.  1.
         12    1    3    3    0    0  0.42534156055E+01 -0.17166146098E+01 -0.90116579082E+01  0.10111789569E+02  0.00000000000E+00 0. -1.
</event>
<event>
 7    1  0.3086024E-009  0.4614232E+02  0.7816164E-02  0.1320468E+00
        -11   -1    0    0    0    0  0.00000000000E+00  0.00000000000E+00  0.45593999997E+02  0.45594000000E+02  0.51100000000E-03 0.  1.
         11   -1    0    0    0    0 -0.00000000000E+00 -0.00000000000E+00 -0.45593999997E+02  0.45594000000E+02  0.51100000000E-03 0. -1.
    9900012    2    1    2    0    0  0.97011964731E+01  0.13931777609E+01  0.43966570705E+02  0.46142317667E+02  0.99999991389E+01 0.  0.
         12    1    1    2    0    0 -0.97011964731E+01 -0.13931777609E+01 -0.43966570705E+02  0.45045682333E+02  0.00000000000E+00 0. -1.
         11    1    3    3    0    0  0.23296187641E+01 -0.26003623155E+01  0.73583028408E+01  0.81445459491E+01  0.51100000000E-03 0. -1.
        -11    1    3    3    0    0  0.62048698702E+01  0.14605626606E+01  0.31857335345E+02  0.32488820677E+02  0.51100000000E-03 0.  1.
         12    1    3    3    0    0  0.11667078387E+01  0.25329774158E+01  0.47509325194E+01  0.55089510411E+01  0.00000000000E+00 0. -1.
</event>
<event>
 7    1  0.3086024E-009  0.4614232E+02  0.7816164E-02  0.1320468E+00
        -11   -1    0    0    0    0  0.00000000000E+00  0.00000000000E+00  0.45593999997E+02  0.45594000000E+02  0.51100000000E-03 0. -1.
         11   -1    0    0    0    0 -0.00000000000E+00 -0.00000000000E+00 -0.45593999997E+02  0.45594000000E+02  0.51100000000E-03 0.  1.
    9900012    2    1    2    0    0 -0.12796598366E+02 -0.42715901071E+02 -0.63806242519E+01  0.46142317634E+02  0.99999988368E+01 0.  0.
         12    1    1    2    0    0  0.12796598366E+02  0.42715901071E+02  0.63806242519E+01  0.45045682366E+02  0.00000000000E+00 0. -1.
         11    1    3    3    0    0 -0.44138095303E+01 -0.17936060258E+02 -0.64671286298E+01  0.19570583158E+02  0.51100000000E-03 0.  1.
        -11    1    3    3    0    0  0.13368744220E+00 -0.26838886375E+01  0.10165747470E+01  0.28730741424E+01  0.51100000000E-03 0. -1.
         12    1    3    3    0    0 -0.85164762779E+01 -0.22095952175E+02 -0.93007036911E+00  0.23698660333E+02  0.00000000000E+00 0. -1.
</event>
<event>
 7    1  0.3086024E-009  0.4614232E+02  0.7816164E-02  0.1320468E+00
        -11   -1    0    0    0    0  0.00000000000E+00  0.00000000000E+00  0.45593999997E+02  0.45594000000E+02  0.51100000000E-03 0.  1.
         11   -1    0    0    0    0 -0.00000000000E+00 -0.00000000000E+00 -0.45593999997E+02  0.45594000000E+02  0.51100000000E-03 0. -1.
    9900012    2    1    2    0    0  0.11087543229E+02 -0.33558050351E+02  0.27929143607E+02  0.46142318511E+02  0.10000006834E+02 0.  0.
         12    1    1    2    0    0 -0.11087543229E+02  0.33558050351E+02 -0.27929143607E+02  0.45045681489E+02  0.00000000000E+00 0. -1.
         11    1    3    3    0    0 -0.25762036699E+00 -0.12489485491E+01  0.14870527298E+01  0.19589708559E+01  0.51100000000E-03 0. -1.
        -11    1    3    3    0    0  0.12294793073E+02 -0.29636313845E+02  0.21965875621E+02  0.38884093497E+02  0.51100000000E-03 0.  1.
        -12    1    3    3    0    0 -0.94962947650E+00 -0.26727879565E+01  0.44762152566E+01  0.52992541576E+01  0.00000000000E+00 0.  1.
</event>
<event>
 7    1  0.3086024E-009  0.4614232E+02  0.7816164E-02  0.1320468E+00
        -11   -1    0    0    0    0  0.00000000000E+00  0.00000000000E+00  0.45593999997E+02  0.45594000000E+02  0.51100000000E-03 0.  1.
         11   -1    0    0    0    0 -0.00000000000E+00 -0.00000000000E+00 -0.45593999997E+02  0.45594000000E+02  0.51100000000E-03 0. -1.
    9900012    2    1    2    0    0 -0.19350129762E+02 -0.40677038337E+02 -0.25400709715E+00  0.46142317751E+02  0.99999999059E+01 0.  0.
         12    1    1    2    0    0  0.19350129762E+02  0.40677038337E+02  0.25400709715E+00  0.45045682249E+02  0.00000000000E+00 0. -1.
         11    1    3    3    0    0 -0.12440889482E+02 -0.30466844611E+02 -0.34071099387E+01  0.33084932372E+02  0.51100000000E-03 0. -1.
        -11    1    3    3    0    0 -0.58500004860E+01 -0.90012537171E+01  0.16585873178E+01  0.10862595745E+02  0.51100000000E-03 0.  1.
         12    1    3    3    0    0 -0.10592397938E+01 -0.12089400091E+01  0.14945155238E+01  0.21947896339E+01  0.00000000000E+00 0. -1.
</event>
<event>
 7    1  0.3086024E-009  0.4614232E+02  0.7816164E-02  0.1320468E+00
        -11   -1    0    0    0    0  0.00000000000E+00  0.00000000000E+00  0.45593999997E+02  0.45594000000E+02  0.51100000000E-03 0. -1.
         11   -1    0    0    0    0 -0.00000000000E+00 -0.00000000000E+00 -0.45593999997E+02  0.45594000000E+02  0.51100000000E-03 0.  1.
    9900012    2    1    2    0    0  0.13128214412E+02  0.41699525931E+02 -0.10858785996E+02  0.46142315303E+02  0.99999775844E+01 0.  0.
         12    1    1    2    0    0 -0.13128214412E+02 -0.41699525931E+02  0.10858785996E+02  0.45045684697E+02  0.00000000000E+00 0. -1.
         11    1    3    3    0    0 -0.12900327858E+01  0.11974677769E+01 -0.50078504354E+00  0.18299998869E+01  0.51100000000E-03 0. -1.
        -11    1    3    3    0    0  0.70381067755E+01  0.22982222938E+02 -0.48566736216E+01  0.24521517022E+02  0.51100000000E-03 0.  1.
        -12    1    3    3    0    0  0.73801404228E+01  0.17519835217E+02 -0.55013273304E+01  0.19790798394E+02  0.00000000000E+00 0.  1.
</event>
<event>
 7    1  0.3086024E-009  0.4614232E+02  0.7816164E-02  0.1320468E+00
        -11   -1    0    0    0    0  0.00000000000E+00  0.00000000000E+00  0.45593999997E+02  0.45594000000E+02  0.51100000000E-03 0.  1.
         11   -1    0    0    0    0 -0.00000000000E+00 -0.00000000000E+00 -0.45593999997E+02  0.45594000000E+02  0.51100000000E-03 0. -1.
    9900012    2    1    2    0    0  0.38038219894E+02  0.23569983340E+02 -0.51636398987E+01  0.46142318028E+02  0.10000002431E+02 0.  0.
         12    1    1    2    0    0 -0.38038219894E+02 -0.23569983340E+02  0.51636398987E+01  0.45045681972E+02  0.00000000000E+00 0. -1.
         11    1    3    3    0    0  0.50880188546E+00 -0.80531802367E+00 -0.23781468821E+00  0.98182104527E+00  0.51100000000E-03 0. -1.
        -11    1    3    3    0    0  0.25973089245E+02  0.17133104938E+02 -0.17897226368E+01  0.31166452431E+02  0.51100000000E-03 0.  1.
         12    1    3    3    0    0  0.11556328764E+02  0.72421964251E+01 -0.31361025737E+01  0.13994044551E+02  0.00000000000E+00 0. -1.
</event>
<event>
 7    1  0.3086024E-009  0.4614232E+02  0.7816164E-02  0.1320468E+00
        -11   -1    0    0    0    0  0.00000000000E+00  0.00000000000E+00  0.45593999997E+02  0.45594000000E+02  0.51100000000E-03 0.  1.
         11   -1    0    0    0    0 -0.00000000000E+00 -0.00000000000E+00 -0.45593999997E+02  0.45594000000E+02  0.51100000000E-03 0. -1.
    9900012    2    1    2    0    0 -0.12014331800E+02  0.40190982361E+02  0.16415060484E+02  0.46142318271E+02  0.10000004649E+02 0.  0.
         12    1    1    2    0    0  0.12014331800E+02 -0.40190982361E+02 -0.16415060484E+02  0.45045681729E+02  0.00000000000E+00 0. -1.
         11    1    3    3    0    0 -0.82268371246E+00  0.10175396671E+02  0.76609753815E+00  0.10237304899E+02  0.51100000000E-03 0. -1.
        -11    1    3    3    0    0 -0.76768654505E+01  0.25121828966E+02  0.12211931798E+02  0.28968462718E+02  0.51100000000E-03 0.  1.
         12    1    3    3    0    0 -0.35147826368E+01  0.48937567241E+01  0.34370311483E+01  0.69365506538E+01  0.00000000000E+00 0. -1.
</event>
<event>
 7    1  0.3086024E-009  0.4614232E+02  0.7816164E-02  0.1320468E+00
        -11   -1    0    0    0    0  0.00000000000E+00  0.00000000000E+00  0.45593999997E+02  0.45594000000E+02  0.51100000000E-03 0.  1.
         11   -1    0    0    0    0 -0.00000000000E+00 -0.00000000000E+00 -0.45593999997E+02  0.45594000000E+02  0.51100000000E-03 0. -1.
    9900012    2    1    2    0    0  0.79127203174E+00 -0.30517198486E+02  0.33123829897E+02  0.46142316279E+02  0.99999864881E+01 0.  0.
         12    1    1    2    0    0 -0.79127203174E+00  0.30517198486E+02 -0.33123829897E+02  0.45045683721E+02  0.00000000000E+00 0. -1.
         11    1    3    3    0    0 -0.40071982652E+00 -0.61812569368E+00 -0.34060761078E+00  0.81158459707E+00  0.51100000000E-03 0. -1.
        -11    1    3    3    0    0 -0.25746633343E+00 -0.25007325485E+02  0.30454857914E+02  0.39407245370E+02  0.51100000000E-03 0.  1.
        -12    1    3    3    0    0  0.14494581917E+01 -0.48917473066E+01  0.30095795936E+01  0.59234863122E+01  0.00000000000E+00 0.  1.
</event>
<event>
 7    1  0.3086024E-009  0.4614232E+02  0.7816164E-02  0.1320468E+00
        -11   -1    0    0    0    0  0.00000000000E+00  0.00000000000E+00  0.45593999997E+02  0.45594000000E+02  0.51100000000E-03 0. -1.
         11   -1    0    0    0    0 -0.00000000000E+00 -0.00000000000E+00 -0.45593999997E+02  0.45594000000E+02  0.51100000000E-03 0.  1.
    9900012    2    1    2    0    0 -0.37378409655E+02 -0.23048997413E+02 -0.10035518757E+02  0.46142318445E+02  0.10000006237E+02 0.  0.
         12    1    1    2    0    0  0.37378409655E+02  0.23048997413E+02  0.10035518757E+02  0.45045681555E+02  0.00000000000E+00 0. -1.
         11    1    3    3    0    0 -0.19514077086E+02 -0.16361941421E+02 -0.39395595054E+01  0.25768827310E+02  0.51100000000E-03 0. -1.
        -11    1    3    3    0    0 -0.70197990674E+01 -0.35061942016E+01 -0.42454217267E+01  0.89215796037E+01  0.51100000000E-03 0.  1.
         12    1    3    3    0    0 -0.10844533501E+02 -0.31808617894E+01 -0.18505375248E+01  0.11451911531E+02  0.00000000000E+00 0. -1.
</event>
<event>
 7    1  0.3086024E-009  0.4614232E+02  0.7816164E-02  0.1320468E+00
        -11   -1    0    0    0    0  0.00000000000E+00  0.00000000000E+00  0.45593999997E+02  0.45594000000E+02  0.51100000000E-03 0. -1.
         11   -1    0    0    0    0 -0.00000000000E+00 -0.00000000000E+00 -0.45593999997E+02  0.45594000000E+02  0.51100000000E-03 0.  1.
    9900012    2    1    2    0    0 -0.38655507565E+01 -0.97038799485E+01 -0.43817870603E+02  0.46142317044E+02  0.99999934652E+01 0.  0.
         12    1    1    2    0    0  0.38655507565E+01  0.97038799485E+01  0.43817870603E+02  0.45045682956E+02  0.00000000000E+00 0. -1.
         11    1    3    3    0    0  0.21541591216E+00  0.54970986974E+00 -0.15304495678E+01  0.16403844356E+01  0.51100000000E-03 0. -1.
        -11    1    3    3    0    0  0.17054334415E+01 -0.54504320849E+01 -0.25096828931E+02  0.25738425278E+02  0.51100000000E-03 0.  1.
        -12    1    3    3    0    0 -0.57864001101E+01 -0.48031577334E+01 -0.17190592105E+02  0.18763507331E+02  0.00000000000E+00 0.  1.
</event>
<event>
 7    1  0.3086024E-009  0.4614232E+02  0.7816164E-02  0.1320468E+00
        -11   -1    0    0    0    0  0.00000000000E+00  0.00000000000E+00  0.45593999997E+02  0.45594000000E+02  0.51100000000E-03 0.  1.
         11   -1    0    0    0    0 -0.00000000000E+00 -0.00000000000E+00 -0.45593999997E+02  0.45594000000E+02  0.51100000000E-03 0. -1.
    9900012    2    1    2    0    0  0.35664772599E+02  0.26437085912E+00  0.27514861531E+02  0.46142317615E+02  0.99999986639E+01 0.  0.
         12    1    1    2    0    0 -0.35664772599E+02 -0.26437085912E+00 -0.27514861531E+02  0.45045682385E+02  0.00000000000E+00 0. -1.
         11    1    3    3    0    0  0.47068895474E+01  0.21726227066E+01  0.31203242748E+01  0.60507456134E+01  0.51100000000E-03 0. -1.
        -11    1    3    3    0    0  0.21419513352E+02 -0.17343972689E+01  0.20769661450E+02  0.29886159391E+02  0.51100000000E-03 0.  1.
        -12    1    3    3    0    0  0.95383696991E+01 -0.17385457859E+00  0.36248758065E+01  0.10205412610E+02  0.00000000000E+00 0.  1.
</event>
<event>
 7    1  0.3086024E-009  0.4614232E+02  0.7816164E-02  0.1320468E+00
        -11   -1    0    0    0    0  0.00000000000E+00  0.00000000000E+00  0.45593999997E+02  0.45594000000E+02  0.51100000000E-03 0. -1.
         11   -1    0    0    0    0 -0.00000000000E+00 -0.00000000000E+00 -0.45593999997E+02  0.45594000000E+02  0.51100000000E-03 0.  1.
    9900012    2    1    2    0    0 -0.20350500655E+02  0.29798943253E+02 -0.26962818599E+02  0.46142317824E+02  0.10000000570E+02 0.  0.
         12    1    1    2    0    0  0.20350500655E+02 -0.29798943253E+02  0.26962818599E+02  0.45045682176E+02  0.00000000000E+00 0. -1.
         11    1    3    3    0    0 -0.26187296812E+01  0.35585049340E+00 -0.33918699643E+00  0.26644742064E+01  0.51100000000E-03 0. -1.
        -11    1    3    3    0    0 -0.97444625793E+01  0.15998768353E+02 -0.14760857809E+02  0.23849487695E+02  0.51100000000E-03 0.  1.
         12    1    3    3    0    0 -0.79873083944E+01  0.13444324407E+02 -0.11862773793E+02  0.19628355922E+02  0.00000000000E+00 0. -1.
</event>
<event>
 7    1  0.3086024E-009  0.4614232E+02  0.7816164E-02  0.1320468E+00
        -11   -1    0    0    0    0  0.00000000000E+00  0.00000000000E+00  0.45593999997E+02  0.45594000000E+02  0.51100000000E-03 0. -1.
         11   -1    0    0    0    0 -0.00000000000E+00 -0.00000000000E+00 -0.45593999997E+02  0.45594000000E+02  0.51100000000E-03 0.  1.
    9900012    2    1    2    0    0 -0.15405970662E+02 -0.41993766397E+02 -0.53191282336E+01  0.46142317927E+02  0.10000001512E+02 0.  0.
         12    1    1    2    0    0  0.15405970662E+02  0.41993766397E+02  0.53191282336E+01  0.45045682073E+02  0.00000000000E+00 0. -1.
         11    1    3    3    0    0 -0.50115280460E+00 -0.91665968032E-01 -0.46387623396E+00  0.68901248523E+00  0.51100000000E-03 0. -1.
        -11    1    3    3    0    0 -0.56563047044E+00 -0.87926986998E+01 -0.30616834561E+01  0.93276682027E+01  0.51100000000E-03 0.  1.
        -12    1    3    3    0    0 -0.14339187387E+02 -0.33109401729E+02 -0.17935685436E+01  0.36125637239E+02  0.00000000000E+00 0.  1.
</event>
<event>
 7    1  0.3086024E-009  0.4614232E+02  0.7816164E-02  0.1320468E+00
        -11   -1    0    0    0    0  0.00000000000E+00  0.00000000000E+00  0.45593999997E+02  0.45594000000E+02  0.51100000000E-03 0.  1.
         11   -1    0    0    0    0 -0.00000000000E+00 -0.00000000000E+00 -0.45593999997E+02  0.45594000000E+02  0.51100000000E-03 0. -1.
    9900012    2    1    2    0    0 -0.31613411794E+02  0.22304451141E+02  0.23069831117E+02  0.46142318145E+02  0.10000003501E+02 0.  0.
         12    1    1    2    0    0  0.31613411794E+02 -0.22304451141E+02 -0.23069831117E+02  0.45045681855E+02  0.00000000000E+00 0. -1.
         11    1    3    3    0    0 -0.66564335408E+01  0.10345177086E+01  0.53552512629E+01  0.86056406340E+01  0.51100000000E-03 0. -1.
        -11    1    3    3    0    0 -0.11615366849E+02  0.77285265563E+01  0.58510876933E+01  0.15128849831E+02  0.51100000000E-03 0.  1.
         12    1    3    3    0    0 -0.13341611405E+02  0.13541406877E+02  0.11863492161E+02  0.22407827680E+02  0.00000000000E+00 0. -1.
</event>
<event>
 7    1  0.3086024E-009  0.4614232E+02  0.7816164E-02  0.1320468E+00
        -11   -1    0    0    0    0  0.00000000000E+00  0.00000000000E+00  0.45593999997E+02  0.45594000000E+02  0.51100000000E-03 0.  1.
         11   -1    0    0    0    0 -0.00000000000E+00 -0.00000000000E+00 -0.45593999997E+02  0.45594000000E+02  0.51100000000E-03 0. -1.
    9900012    2    1    2    0    0  0.31272673024E+02 -0.31018783426E+02  0.94323079482E+01  0.46142318337E+02  0.10000005252E+02 0.  0.
         12    1    1    2    0    0 -0.31272673024E+02  0.31018783426E+02 -0.94323079482E+01  0.45045681663E+02  0.00000000000E+00 0. -1.
         11    1    3    3    0    0  0.42758117418E+01 -0.98946505102E+01  0.28010406934E+01  0.11136988103E+02  0.51100000000E-03 0. -1.
        -11    1    3    3    0    0  0.12950537148E+02 -0.10632549989E+02  0.44586789093E+01  0.17339185378E+02  0.51100000000E-03 0.  1.
         12    1    3    3    0    0  0.14046324133E+02 -0.10491582927E+02  0.21725883454E+01  0.17666144856E+02  0.00000000000E+00 0. -1.
</event>
<event>
 7    1  0.3086024E-009  0.4614231E+02  0.7816164E-02  0.1320468E+00
        -11   -1    0    0    0    0  0.00000000000E+00  0.00000000000E+00  0.45593999997E+02  0.45594000000E+02  0.51100000000E-03 0.  1.
         11   -1    0    0    0    0 -0.00000000000E+00 -0.00000000000E+00 -0.45593999997E+02  0.45594000000E+02  0.51100000000E-03 0. -1.
    9900012    2    1    2    0    0  0.20297421406E+02  0.15539656697E+02 -0.37089725551E+02  0.46142312222E+02  0.99999494875E+01 0.  0.
         12    1    1    2    0    0 -0.20297421406E+02 -0.15539656697E+02  0.37089725551E+02  0.45045687778E+02  0.00000000000E+00 0. -1.
         11    1    3    3    0    0  0.97916571932E+01  0.34481147426E+01 -0.17794904813E+02  0.20601569926E+02  0.51100000000E-03 0. -1.
        -11    1    3    3    0    0  0.12249808169E+01  0.42708519929E+01 -0.37143315672E+01  0.57911150912E+01  0.51100000000E-03 0.  1.
        -12    1    3    3    0    0  0.92807833955E+01  0.78206899610E+01 -0.15580489171E+02  0.19749627204E+02  0.00000000000E+00 0.  1.
</event>
<event>
 7    1  0.3086024E-009  0.4614232E+02  0.7816164E-02  0.1320468E+00
        -11   -1    0    0    0    0  0.00000000000E+00  0.00000000000E+00  0.45593999997E+02  0.45594000000E+02  0.51100000000E-03 0.  1.
         11   -1    0    0    0    0 -0.00000000000E+00 -0.00000000000E+00 -0.45593999997E+02  0.45594000000E+02  0.51100000000E-03 0. -1.
    9900012    2    1    2    0    0 -0.19511933731E+02 -0.41345611312E+01  0.40389395558E+02  0.46142318440E+02  0.10000006194E+02 0.  0.
         12    1    1    2    0    0  0.19511933731E+02  0.41345611312E+01 -0.40389395558E+02  0.45045681560E+02  0.00000000000E+00 0. -1.
         11    1    3    3    0    0 -0.39355273603E+01 -0.12395995470E+01  0.45172216748E+01  0.61180286499E+01  0.51100000000E-03 0. -1.
        -11    1    3    3    0    0 -0.10790488422E+02  0.18537932843E+01  0.23785528526E+02  0.26184395305E+02  0.51100000000E-03 0.  1.
        -12    1    3    3    0    0 -0.47859179482E+01 -0.47487548684E+01  0.12086645356E+02  0.13839894486E+02  0.00000000000E+00 0.  1.
</event>
<event>
 7    1  0.3086024E-009  0.4614232E+02  0.7816164E-02  0.1320468E+00
        -11   -1    0    0    0    0  0.00000000000E+00  0.00000000000E+00  0.45593999997E+02  0.45594000000E+02  0.51100000000E-03 0.  1.
         11   -1    0    0    0    0 -0.00000000000E+00 -0.00000000000E+00 -0.45593999997E+02  0.45594000000E+02  0.51100000000E-03 0. -1.
    9900012    2    1    2    0    0  0.38694554388E+02 -0.17405605559E+02  0.15129099126E+02  0.46142320024E+02  0.10000020632E+02 0.  0.
         12    1    1    2    0    0 -0.38694554388E+02  0.17405605559E+02 -0.15129099126E+02  0.45045679976E+02  0.00000000000E+00 0. -1.
         11    1    3    3    0    0  0.91178009928E+01 -0.42175056827E+01  0.11645397910E+01  0.10113248851E+02  0.51100000000E-03 0. -1.
        -11    1    3    3    0    0  0.27697065142E+02 -0.14136870282E+02  0.12849965005E+02  0.33646695525E+02  0.51100000000E-03 0.  1.
        -12    1    3    3    0    0  0.18796882523E+01  0.94877040486E+00  0.11145943300E+01  0.23823756479E+01  0.00000000000E+00 0.  1.
</event>
<event>
 7    1  0.3086024E-009  0.4614232E+02  0.7816164E-02  0.1320468E+00
        -11   -1    0    0    0    0  0.00000000000E+00  0.00000000000E+00  0.45593999997E+02  0.45594000000E+02  0.51100000000E-03 0.  1.
         11   -1    0    0    0    0 -0.00000000000E+00 -0.00000000000E+00 -0.45593999997E+02  0.45594000000E+02  0.51100000000E-03 0. -1.
    9900012    2    1    2    0    0  0.16931273758E+01  0.38391874439E+02  0.23501286808E+02  0.46142321130E+02  0.10000030717E+02 0.  0.
         12    1    1    2    0    0 -0.16931273758E+01 -0.38391874439E+02 -0.23501286808E+02  0.45045678870E+02  0.00000000000E+00 0. -1.
         11    1    3    3    0    0  0.14982634342E+01  0.45981890551E+00  0.10256077639E+00  0.15705876983E+01  0.51100000000E-03 0. -1.
        -11    1    3    3    0    0 -0.10467280841E+00  0.25132915795E+02  0.15432232596E+02  0.29492850251E+02  0.51100000000E-03 0.  1.
         12    1    3    3    0    0  0.29953675005E+00  0.12799139739E+02  0.79664934355E+01  0.15078883181E+02  0.00000000000E+00 0. -1.
</event>
<event>
 7    1  0.3086024E-009  0.4614232E+02  0.7816164E-02  0.1320468E+00
        -11   -1    0    0    0    0  0.00000000000E+00  0.00000000000E+00  0.45593999997E+02  0.45594000000E+02  0.51100000000E-03 0.  1.
         11   -1    0    0    0    0 -0.00000000000E+00 -0.00000000000E+00 -0.45593999997E+02  0.45594000000E+02  0.51100000000E-03 0. -1.
    9900012    2    1    2    0    0  0.43911359301E+02 -0.85234903597E+01  0.53156489777E+01  0.46142317770E+02  0.10000000079E+02 0.  0.
         12    1    1    2    0    0 -0.43911359301E+02  0.85234903597E+01 -0.53156489777E+01  0.45045682230E+02  0.00000000000E+00 0. -1.
         11    1    3    3    0    0  0.80439900086E+01 -0.55287219518E+01  0.46155733256E+00  0.97716721758E+01  0.51100000000E-03 0. -1.
        -11    1    3    3    0    0  0.18979370591E+02 -0.17281309981E+01  0.35441088140E+01  0.19384624122E+02  0.51100000000E-03 0.  1.
         12    1    3    3    0    0  0.16887998701E+02 -0.12666374099E+01  0.13099828312E+01  0.16986021472E+02  0.00000000000E+00 0. -1.
</event>
<event>
 7    1  0.3086024E-009  0.4614232E+02  0.7816164E-02  0.1320468E+00
        -11   -1    0    0    0    0  0.00000000000E+00  0.00000000000E+00  0.45593999997E+02  0.45594000000E+02  0.51100000000E-03 0.  1.
         11   -1    0    0    0    0 -0.00000000000E+00 -0.00000000000E+00 -0.45593999997E+02  0.45594000000E+02  0.51100000000E-03 0. -1.
    9900012    2    1    2    0    0 -0.72139069459E+01  0.39152312295E+02  0.21075328981E+02  0.46142317597E+02  0.99999985055E+01 0.  0.
         12    1    1    2    0    0  0.72139069459E+01 -0.39152312295E+02 -0.21075328981E+02  0.45045682403E+02  0.00000000000E+00 0. -1.
         11    1    3    3    0    0  0.86809987119E+00  0.45504161454E+01  0.23390764350E+01  0.51895243821E+01  0.51100000000E-03 0. -1.
        -11    1    3    3    0    0 -0.18809223517E+01  0.22532351191E+02  0.94275309216E+01  0.24497409222E+02  0.51100000000E-03 0.  1.
        -12    1    3    3    0    0 -0.62010844654E+01  0.12069544959E+02  0.93087216246E+01  0.16455383993E+02  0.00000000000E+00 0.  1.
</event>
<event>
 7    1  0.3086024E-009  0.4614231E+02  0.7816164E-02  0.1320468E+00
        -11   -1    0    0    0    0  0.00000000000E+00  0.00000000000E+00  0.45593999997E+02  0.45594000000E+02  0.51100000000E-03 0. -1.
         11   -1    0    0    0    0 -0.00000000000E+00 -0.00000000000E+00 -0.45593999997E+02  0.45594000000E+02  0.51100000000E-03 0.  1.
    9900012    2    1    2    0    0 -0.33728013877E+02 -0.67391942344E+01 -0.29088109595E+02  0.46142314537E+02  0.99999705993E+01 0.  0.
         12    1    1    2    0    0  0.33728013877E+02  0.67391942344E+01  0.29088109595E+02  0.45045685463E+02  0.00000000000E+00 0. -1.
         11    1    3    3    0    0 -0.18000969302E+02 -0.15685676835E+01 -0.11806305798E+02  0.21584349822E+02  0.51100000000E-03 0. -1.
        -11    1    3    3    0    0 -0.22000179535E+01  0.25541639023E+00 -0.39229520266E+00  0.22492692848E+01  0.51100000000E-03 0.  1.
         12    1    3    3    0    0 -0.13527026621E+02 -0.54260429411E+01 -0.16889508595E+02  0.22308695430E+02  0.00000000000E+00 0. -1.
</event>
<event>
 7    1  0.3086024E-009  0.4614232E+02  0.7816164E-02  0.1320468E+00
        -11   -1    0    0    0    0  0.00000000000E+00  0.00000000000E+00  0.45593999997E+02  0.45594000000E+02  0.51100000000E-03 0.  1.
         11   -1    0    0    0    0 -0.00000000000E+00 -0.00000000000E+00 -0.45593999997E+02  0.45594000000E+02  0.51100000000E-03 0. -1.
    9900012    2    1    2    0    0 -0.37200282234E+02 -0.16813527119E+02  0.19040945921E+02  0.46142319696E+02  0.10000017641E+02 0.  0.
         12    1    1    2    0    0  0.37200282234E+02  0.16813527119E+02 -0.19040945921E+02  0.45045680304E+02  0.00000000000E+00 0. -1.
         11    1    3    3    0    0 -0.28461634460E+01 -0.35503201172E+01  0.35715918135E+01  0.57846078207E+01  0.51100000000E-03 0. -1.
        -11    1    3    3    0    0 -0.41365118135E+01 -0.33678367783E+00  0.33305612284E+01  0.53213524208E+01  0.51100000000E-03 0.  1.
         12    1    3    3    0    0 -0.30217606975E+02 -0.12926423324E+02  0.12138792879E+02  0.35036359454E+02  0.00000000000E+00 0. -1.
</event>
<event>
 7    1  0.3086024E-009  0.4614232E+02  0.7816164E-02  0.1320468E+00
        -11   -1    0    0    0    0  0.00000000000E+00  0.00000000000E+00  0.45593999997E+02  0.45594000000E+02  0.51100000000E-03 0. -1.
         11   -1    0    0    0    0 -0.00000000000E+00 -0.00000000000E+00 -0.45593999997E+02  0.45594000000E+02  0.51100000000E-03 0.  1.
    9900012    2    1    2    0    0  0.29607324190E+02 -0.16992932542E+01 -0.33906223366E+02  0.46142320671E+02  0.10000026537E+02 0.  0.
         12    1    1    2    0    0 -0.29607324190E+02  0.16992932542E+01  0.33906223366E+02  0.45045679329E+02  0.00000000000E+00 0. -1.
         11    1    3    3    0    0  0.47637588570E+01  0.86710663150E+00 -0.24720706480E+01  0.54365803506E+01  0.51100000000E-03 0.  1.
        -11    1    3    3    0    0  0.12683506333E+02  0.17908869621E+01 -0.13569793157E+02  0.18660597407E+02  0.51100000000E-03 0. -1.
         12    1    3    3    0    0  0.12160059000E+02 -0.43572868478E+01 -0.17864359561E+02  0.22045142914E+02  0.00000000000E+00 0. -1.
</event>
<event>
 7    1  0.3086024E-009  0.4614232E+02  0.7816164E-02  0.1320468E+00
        -11   -1    0    0    0    0  0.00000000000E+00  0.00000000000E+00  0.45593999997E+02  0.45594000000E+02  0.51100000000E-03 0.  1.
         11   -1    0    0    0    0 -0.00000000000E+00 -0.00000000000E+00 -0.45593999997E+02  0.45594000000E+02  0.51100000000E-03 0. -1.
    9900012    2    1    2    0    0 -0.36879014780E+02 -0.92034856478E+01  0.24173279197E+02  0.46142319781E+02  0.10000018422E+02 0.  0.
         12    1    1    2    0    0  0.36879014780E+02  0.92034856478E+01 -0.24173279197E+02  0.45045680219E+02  0.00000000000E+00 0. -1.
         11    1    3    3    0    0 -0.70612785921E+01 -0.56815751735E+01  0.67542241070E+01  0.11303163069E+02  0.51100000000E-03 0. -1.
        -11    1    3    3    0    0 -0.18547367722E+02 -0.28142031966E+01  0.93546909601E+01  0.20962700977E+02  0.51100000000E-03 0.  1.
         12    1    3    3    0    0 -0.11270368466E+02 -0.70770727766E+00  0.80643641301E+01  0.13876455735E+02  0.00000000000E+00 0. -1.
</event>
<event>
 7    1  0.3086024E-009  0.4614232E+02  0.7816164E-02  0.1320468E+00
        -11   -1    0    0    0    0  0.00000000000E+00  0.00000000000E+00  0.45593999997E+02  0.45594000000E+02  0.51100000000E-03 0.  1.
         11   -1    0    0    0    0 -0.00000000000E+00 -0.00000000000E+00 -0.45593999997E+02  0.45594000000E+02  0.51100000000E-03 0. -1.
    9900012    2    1    2    0    0  0.20325946168E+02 -0.11182685216E+02  0.38612393356E+02  0.46142318110E+02  0.10000003182E+02 0.  0.
         12    1    1    2    0    0 -0.20325946168E+02  0.11182685216E+02 -0.38612393356E+02  0.45045681890E+02  0.00000000000E+00 0. -1.
         11    1    3    3    0    0  0.14794448936E+01 -0.42247735473E+01  0.57792958605E+01  0.73101114645E+01  0.51100000000E-03 0. -1.
        -11    1    3    3    0    0  0.43950373003E+01 -0.17350598772E+01  0.41341892317E+01  0.62783999963E+01  0.51100000000E-03 0.  1.
        -12    1    3    3    0    0  0.14451463974E+02 -0.52228517916E+01  0.28698908264E+02  0.32553806649E+02  0.00000000000E+00 0.  1.
</event>
<event>
 7    1  0.3086024E-009  0.4614232E+02  0.7816164E-02  0.1320468E+00
        -11   -1    0    0    0    0  0.00000000000E+00  0.00000000000E+00  0.45593999997E+02  0.45594000000E+02  0.51100000000E-03 0.  1.
         11   -1    0    0    0    0 -0.00000000000E+00 -0.00000000000E+00 -0.45593999997E+02  0.45594000000E+02  0.51100000000E-03 0. -1.
    9900012    2    1    2    0    0  0.16724208104E+01 -0.65918900352E+01  0.44529355135E+02  0.46142317916E+02  0.10000001415E+02 0.  0.
         12    1    1    2    0    0 -0.16724208104E+01  0.65918900352E+01 -0.44529355135E+02  0.45045682084E+02  0.00000000000E+00 0. -1.
         11    1    3    3    0    0  0.20515754188E+01 -0.13987284471E+00  0.19949948616E+01  0.28650533800E+01  0.51100000000E-03 0. -1.
        -11    1    3    3    0    0 -0.21302388937E+01 -0.56770171641E+01  0.33019571700E+02  0.33571692796E+02  0.51100000000E-03 0.  1.
        -12    1    3    3    0    0  0.17510842854E+01 -0.77500002639E+00  0.95147885734E+01  0.97055717406E+01  0.00000000000E+00 0.  1.
</event>
<event>
 7    1  0.3086024E-009  0.4614232E+02  0.7816164E-02  0.1320468E+00
        -11   -1    0    0    0    0  0.00000000000E+00  0.00000000000E+00  0.45593999997E+02  0.45594000000E+02  0.51100000000E-03 0.  1.
         11   -1    0    0    0    0 -0.00000000000E+00 -0.00000000000E+00 -0.45593999997E+02  0.45594000000E+02  0.51100000000E-03 0. -1.
    9900012    2    1    2    0    0  0.18910912496E+02  0.98108262666E+01  0.39689273106E+02  0.46142319595E+02  0.10000016720E+02 0.  0.
         12    1    1    2    0    0 -0.18910912496E+02 -0.98108262666E+01 -0.39689273106E+02  0.45045680405E+02  0.00000000000E+00 0. -1.
         11    1    3    3    0    0  0.38627369123E+01  0.27310211968E+01  0.45501870781E+01  0.65637958482E+01  0.51100000000E-03 0. -1.
        -11    1    3    3    0    0  0.53106619558E+01 -0.11791744106E+01  0.10901417619E+02  0.12183369364E+02  0.51100000000E-03 0.  1.
        -12    1    3    3    0    0  0.97375136280E+01  0.82589794805E+01  0.24237668410E+02  0.27395154383E+02  0.00000000000E+00 0.  1.
</event>
<event>
 7    1  0.3086024E-009  0.4614232E+02  0.7816164E-02  0.1320468E+00
        -11   -1    0    0    0    0  0.00000000000E+00  0.00000000000E+00  0.45593999997E+02  0.45594000000E+02  0.51100000000E-03 0.  1.
         11   -1    0    0    0    0 -0.00000000000E+00 -0.00000000000E+00 -0.45593999997E+02  0.45594000000E+02  0.51100000000E-03 0. -1.
    9900012    2    1    2    0    0  0.10009079036E+02 -0.28235013607E+02  0.33640985291E+02  0.46142317101E+02  0.99999939811E+01 0.  0.
         12    1    1    2    0    0 -0.10009079036E+02  0.28235013607E+02 -0.33640985291E+02  0.45045682899E+02  0.00000000000E+00 0. -1.
         11    1    3    3    0    0  0.32716876258E+01 -0.37599777189E+01  0.41754611000E+01  0.65019880057E+01  0.51100000000E-03 0. -1.
        -11    1    3    3    0    0  0.61183252550E+01 -0.19201123455E+02  0.18065971472E+02  0.27064670169E+02  0.51100000000E-03 0.  1.
        -12    1    3    3    0    0  0.61906615479E+00 -0.52739124330E+01  0.11399552719E+02  0.12575658927E+02  0.00000000000E+00 0.  1.
</event>
<event>
 7    1  0.3086024E-009  0.4614232E+02  0.7816164E-02  0.1320468E+00
        -11   -1    0    0    0    0  0.00000000000E+00  0.00000000000E+00  0.45593999997E+02  0.45594000000E+02  0.51100000000E-03 0.  1.
         11   -1    0    0    0    0 -0.00000000000E+00 -0.00000000000E+00 -0.45593999997E+02  0.45594000000E+02  0.51100000000E-03 0. -1.
    9900012    2    1    2    0    0 -0.22458444157E+02  0.19279044668E+02  0.33956593608E+02  0.46142317336E+02  0.99999961196E+01 0.  0.
         12    1    1    2    0    0  0.22458444157E+02 -0.19279044668E+02 -0.33956593608E+02  0.45045682664E+02  0.00000000000E+00 0. -1.
         11    1    3    3    0    0 -0.63943192530E+01  0.22434242207E+01  0.12239246647E+02  0.13989976044E+02  0.51100000000E-03 0. -1.
        -11    1    3    3    0    0 -0.54560849249E+01  0.62284479376E+01  0.53722314307E+01  0.98703240689E+01  0.51100000000E-03 0.  1.
        -12    1    3    3    0    0 -0.10608039979E+02  0.10807172509E+02  0.16345115530E+02  0.22282017223E+02  0.00000000000E+00 0.  1.
</event>
<event>
 7    1  0.3086024E-009  0.4614232E+02  0.7816164E-02  0.1320468E+00
        -11   -1    0    0    0    0  0.00000000000E+00  0.00000000000E+00  0.45593999997E+02  0.45594000000E+02  0.51100000000E-03 0. -1.
         11   -1    0    0    0    0 -0.00000000000E+00 -0.00000000000E+00 -0.45593999997E+02  0.45594000000E+02  0.51100000000E-03 0.  1.
    9900012    2    1    2    0    0  0.30254155263E+02  0.11675613205E+02 -0.31264670090E+02  0.46142318184E+02  0.10000003860E+02 0.  0.
         12    1    1    2    0    0 -0.30254155263E+02 -0.11675613205E+02  0.31264670090E+02  0.45045681816E+02  0.00000000000E+00 0. -1.
         11    1    3    3    0    0  0.23708371626E+01  0.15603141638E+01 -0.69238401493E+01  0.74829814791E+01  0.51100000000E-03 0. -1.
        -11    1    3    3    0    0  0.19331531930E+02  0.78734659005E+01 -0.19573798308E+02  0.28615261182E+02  0.51100000000E-03 0.  1.
         12    1    3    3    0    0  0.85517861700E+01  0.22418331403E+01 -0.47670316334E+01  0.10044075523E+02  0.00000000000E+00 0. -1.
</event>
<event>
 7    1  0.3086024E-009  0.4614232E+02  0.7816164E-02  0.1320468E+00
        -11   -1    0    0    0    0  0.00000000000E+00  0.00000000000E+00  0.45593999997E+02  0.45594000000E+02  0.51100000000E-03 0. -1.
         11   -1    0    0    0    0 -0.00000000000E+00 -0.00000000000E+00 -0.45593999997E+02  0.45594000000E+02  0.51100000000E-03 0.  1.
    9900012    2    1    2    0    0 -0.39289377680E+02  0.17134680543E+02 -0.13851395896E+02  0.46142316033E+02  0.99999842386E+01 0.  0.
         12    1    1    2    0    0  0.39289377680E+02 -0.17134680543E+02  0.13851395896E+02  0.45045683967E+02  0.00000000000E+00 0. -1.
         11    1    3    3    0    0 -0.11709259006E+02  0.31542018813E+01 -0.41274568093E+01  0.12809825758E+02  0.51100000000E-03 0. -1.
        -11    1    3    3    0    0 -0.82312408998E+01  0.82226141124E+01 -0.25712470673E+01  0.11915369123E+02  0.51100000000E-03 0.  1.
        -12    1    3    3    0    0 -0.19348877775E+02  0.57578645489E+01 -0.71526920196E+01  0.21417121152E+02  0.00000000000E+00 0.  1.
</event>
<event>
 7    1  0.3086024E-009  0.4614232E+02  0.7816164E-02  0.1320468E+00
        -11   -1    0    0    0    0  0.00000000000E+00  0.00000000000E+00  0.45593999997E+02  0.45594000000E+02  0.51100000000E-03 0.  1.
         11   -1    0    0    0    0 -0.00000000000E+00 -0.00000000000E+00 -0.45593999997E+02  0.45594000000E+02  0.51100000000E-03 0. -1.
    9900012    2    1    2    0    0 -0.18202050380E+02 -0.17352127009E+02  0.37372483342E+02  0.46142318066E+02  0.10000002780E+02 0.  0.
         12    1    1    2    0    0  0.18202050380E+02  0.17352127009E+02 -0.37372483342E+02  0.45045681934E+02  0.00000000000E+00 0. -1.
         11    1    3    3    0    0 -0.51280365744E+01 -0.24347767124E+01  0.57392748245E+01  0.80724328749E+01  0.51100000000E-03 0. -1.
        -11    1    3    3    0    0 -0.73579482600E+01 -0.13122706383E+02  0.20516542645E+02  0.25441567321E+02  0.51100000000E-03 0.  1.
        -12    1    3    3    0    0 -0.57160655452E+01 -0.17946439139E+01  0.11116665873E+02  0.12628317870E+02  0.00000000000E+00 0.  1.
</event>
<event>
 7    1  0.3086024E-009  0.4614232E+02  0.7816164E-02  0.1320468E+00
        -11   -1    0    0    0    0  0.00000000000E+00  0.00000000000E+00  0.45593999997E+02  0.45594000000E+02  0.51100000000E-03 0.  1.
         11   -1    0    0    0    0 -0.00000000000E+00 -0.00000000000E+00 -0.45593999997E+02  0.45594000000E+02  0.51100000000E-03 0. -1.
    9900012    2    1    2    0    0 -0.14442852804E+02  0.79364929472E+01  0.41922900290E+02  0.46142317786E+02  0.10000000225E+02 0.  0.
         12    1    1    2    0    0  0.14442852804E+02 -0.79364929472E+01 -0.41922900290E+02  0.45045682214E+02  0.00000000000E+00 0. -1.
         11    1    3    3    0    0 -0.79904113603E+01  0.67575008257E+01  0.29635221979E+02  0.31428599605E+02  0.51100000000E-03 0.  1.
        -11    1    3    3    0    0 -0.52709163097E+01  0.21595632701E+01  0.61320532612E+01  0.83694892151E+01  0.51100000000E-03 0. -1.
        -12    1    3    3    0    0 -0.11815251343E+01 -0.98057114865E+00  0.61556250496E+01  0.63442289659E+01  0.00000000000E+00 0.  1.
</event>
<event>
 7    1  0.3086024E-009  0.4614232E+02  0.7816164E-02  0.1320468E+00
        -11   -1    0    0    0    0  0.00000000000E+00  0.00000000000E+00  0.45593999997E+02  0.45594000000E+02  0.51100000000E-03 0.  1.
         11   -1    0    0    0    0 -0.00000000000E+00 -0.00000000000E+00 -0.45593999997E+02  0.45594000000E+02  0.51100000000E-03 0. -1.
    9900012    2    1    2    0    0  0.15275279763E+02 -0.13861130872E-01  0.42376633264E+02  0.46142318622E+02  0.10000007852E+02 0.  0.
         12    1    1    2    0    0 -0.15275279763E+02  0.13861130872E-01 -0.42376633264E+02  0.45045681378E+02  0.00000000000E+00 0. -1.
         11    1    3    3    0    0  0.83359985873E+00 -0.22009980171E+00  0.11333010800E+02  0.11365758519E+02  0.51100000000E-03 0. -1.
        -11    1    3    3    0    0  0.93071594480E+01  0.25612582946E+01  0.23037869976E+02  0.24978525064E+02  0.51100000000E-03 0.  1.
         12    1    3    3    0    0  0.51345204566E+01 -0.23550196238E+01  0.80057524879E+01  0.97980350400E+01  0.00000000000E+00 0. -1.
</event>
<event>
 7    1  0.3086024E-009  0.4614232E+02  0.7816164E-02  0.1320468E+00
        -11   -1    0    0    0    0  0.00000000000E+00  0.00000000000E+00  0.45593999997E+02  0.45594000000E+02  0.51100000000E-03 0.  1.
         11   -1    0    0    0    0 -0.00000000000E+00 -0.00000000000E+00 -0.45593999997E+02  0.45594000000E+02  0.51100000000E-03 0. -1.
    9900012    2    1    2    0    0  0.39728346641E+02  0.13503994933E+02  0.16383347895E+02  0.46142317696E+02  0.99999994078E+01 0.  0.
         12    1    1    2    0    0 -0.39728346641E+02 -0.13503994933E+02 -0.16383347895E+02  0.45045682304E+02  0.00000000000E+00 0. -1.
         11    1    3    3    0    0  0.52657250762E+01  0.78548383071E+00  0.48033671322E+01  0.71705774869E+01  0.51100000000E-03 0. -1.
        -11    1    3    3    0    0  0.88241930087E+01  0.58111032283E+00  0.29237559610E+01  0.93140979511E+01  0.51100000000E-03 0.  1.
        -12    1    3    3    0    0  0.25638428556E+02  0.12137400779E+02  0.86562248022E+01  0.29657642258E+02  0.00000000000E+00 0.  1.
</event>
<event>
 7    1  0.3086024E-009  0.4614232E+02  0.7816164E-02  0.1320468E+00
        -11   -1    0    0    0    0  0.00000000000E+00  0.00000000000E+00  0.45593999997E+02  0.45594000000E+02  0.51100000000E-03 0.  1.
         11   -1    0    0    0    0 -0.00000000000E+00 -0.00000000000E+00 -0.45593999997E+02  0.45594000000E+02  0.51100000000E-03 0. -1.
    9900012    2    1    2    0    0 -0.34973388660E+02 -0.23451163538E+02  0.16000584535E+02  0.46142315510E+02  0.99999794747E+01 0.  0.
         12    1    1    2    0    0  0.34973388660E+02  0.23451163538E+02 -0.16000584535E+02  0.45045684490E+02  0.00000000000E+00 0. -1.
         11    1    3    3    0    0 -0.82485477117E+01 -0.32819729591E+01  0.29871335820E+01  0.93665817219E+01  0.51100000000E-03 0. -1.
        -11    1    3    3    0    0 -0.10267812688E+02 -0.12677972014E+02  0.62149488952E+01  0.17458079557E+02  0.51100000000E-03 0.  1.
        -12    1    3    3    0    0 -0.16457028261E+02 -0.74912185647E+01  0.67985020582E+01  0.19317654232E+02  0.00000000000E+00 0.  1.
</event>
<event>
 7    1  0.3086024E-009  0.4614231E+02  0.7816164E-02  0.1320468E+00
        -11   -1    0    0    0    0  0.00000000000E+00  0.00000000000E+00  0.45593999997E+02  0.45594000000E+02  0.51100000000E-03 0.  1.
         11   -1    0    0    0    0 -0.00000000000E+00 -0.00000000000E+00 -0.45593999997E+02  0.45594000000E+02  0.51100000000E-03 0. -1.
    9900012    2    1    2    0    0  0.34011448772E+02 -0.11245409453E+02  0.27310732616E+02  0.46142312112E+02  0.99999484831E+01 0.  0.
         12    1    1    2    0    0 -0.34011448772E+02  0.11245409453E+02 -0.27310732616E+02  0.45045687888E+02  0.00000000000E+00 0. -1.
         11    1    3    3    0    0  0.66350391695E+00 -0.51811074965E+00 -0.82703533496E+00  0.11801118181E+01  0.51100000000E-03 0. -1.
        -11    1    3    3    0    0  0.14341418861E+02 -0.46957081165E+01  0.13164666545E+02  0.20025843681E+02  0.51100000000E-03 0.  1.
         12    1    3    3    0    0  0.19006525994E+02 -0.60315905865E+01  0.14973101406E+02  0.24936356612E+02  0.00000000000E+00 0. -1.
</event>
<event>
 7    1  0.3086024E-009  0.4614232E+02  0.7816164E-02  0.1320468E+00
        -11   -1    0    0    0    0  0.00000000000E+00  0.00000000000E+00  0.45593999997E+02  0.45594000000E+02  0.51100000000E-03 0. -1.
         11   -1    0    0    0    0 -0.00000000000E+00 -0.00000000000E+00 -0.45593999997E+02  0.45594000000E+02  0.51100000000E-03 0.  1.
    9900012    2    1    2    0    0  0.13763221869E+02 -0.24563630819E+02 -0.35161274795E+02  0.46142317849E+02  0.10000000799E+02 0.  0.
         12    1    1    2    0    0 -0.13763221869E+02  0.24563630819E+02  0.35161274795E+02  0.45045682151E+02  0.00000000000E+00 0. -1.
         11    1    3    3    0    0  0.14405876791E+01 -0.52227309632E+01 -0.37769395171E+01  0.66043534091E+01  0.51100000000E-03 0. -1.
        -11    1    3    3    0    0  0.35860226199E+01 -0.45153738540E+01 -0.34228572941E+01  0.67055284347E+01  0.51100000000E-03 0.  1.
        -12    1    3    3    0    0  0.87366115701E+01 -0.14825526002E+02 -0.27961477984E+02  0.32832436005E+02  0.00000000000E+00 0.  1.
</event>
<event>
 7    1  0.3086024E-009  0.4614232E+02  0.7816164E-02  0.1320468E+00
        -11   -1    0    0    0    0  0.00000000000E+00  0.00000000000E+00  0.45593999997E+02  0.45594000000E+02  0.51100000000E-03 0. -1.
         11   -1    0    0    0    0 -0.00000000000E+00 -0.00000000000E+00 -0.45593999997E+02  0.45594000000E+02  0.51100000000E-03 0.  1.
    9900012    2    1    2    0    0  0.44327730995E+02 -0.71927107866E+01 -0.35257159912E+01  0.46142317667E+02  0.99999991407E+01 0.  0.
         12    1    1    2    0    0 -0.44327730995E+02  0.71927107866E+01  0.35257159912E+01  0.45045682333E+02  0.00000000000E+00 0. -1.
         11    1    3    3    0    0  0.81901079188E+00 -0.90216635735E+00  0.98760631863E+00  0.15684544352E+01  0.51100000000E-03 0. -1.
        -11    1    3    3    0    0  0.29010536873E+02 -0.33392161581E+01 -0.56163861818E+01  0.29737273046E+02  0.51100000000E-03 0.  1.
         12    1    3    3    0    0  0.14498183330E+02 -0.29513282711E+01  0.11030638720E+01  0.14836590185E+02  0.00000000000E+00 0. -1.
</event>
<event>
 7    1  0.3086024E-009  0.4614232E+02  0.7816164E-02  0.1320468E+00
        -11   -1    0    0    0    0  0.00000000000E+00  0.00000000000E+00  0.45593999997E+02  0.45594000000E+02  0.51100000000E-03 0.  1.
         11   -1    0    0    0    0 -0.00000000000E+00 -0.00000000000E+00 -0.45593999997E+02  0.45594000000E+02  0.51100000000E-03 0. -1.
    9900012    2    1    2    0    0 -0.55059809449E+01  0.40001670918E+02 -0.19966574014E+02  0.46142316741E+02  0.99999907004E+01 0.  0.
         12    1    1    2    0    0  0.55059809449E+01 -0.40001670918E+02  0.19966574014E+02  0.45045683259E+02  0.00000000000E+00 0. -1.
         11    1    3    3    0    0 -0.39353786470E+01  0.11541994908E+02 -0.89031597385E+01  0.15098712036E+02  0.51100000000E-03 0. -1.
        -11    1    3    3    0    0 -0.12498885582E+01  0.13918654377E+02 -0.82539706363E+01  0.16230193856E+02  0.51100000000E-03 0.  1.
         12    1    3    3    0    0 -0.32071373969E+00  0.14541021633E+02 -0.28094436388E+01  0.14813410849E+02  0.00000000000E+00 0. -1.
</event>
<event>
 7    1  0.3086024E-009  0.4614232E+02  0.7816164E-02  0.1320468E+00
        -11   -1    0    0    0    0  0.00000000000E+00  0.00000000000E+00  0.45593999997E+02  0.45594000000E+02  0.51100000000E-03 0. -1.
         11   -1    0    0    0    0 -0.00000000000E+00 -0.00000000000E+00 -0.45593999997E+02  0.45594000000E+02  0.51100000000E-03 0.  1.
    9900012    2    1    2    0    0 -0.26987724375E+02 -0.12054279637E+02 -0.33992213315E+02  0.46142317737E+02  0.99999997780E+01 0.  0.
         12    1    1    2    0    0  0.26987724375E+02  0.12054279637E+02  0.33992213315E+02  0.45045682263E+02  0.00000000000E+00 0. -1.
         11    1    3    3    0    0 -0.68474632677E+01 -0.42895224467E+01 -0.13263352612E+02  0.15530752679E+02  0.51100000000E-03 0. -1.
        -11    1    3    3    0    0 -0.25365735957E-01 -0.14245457860E+01 -0.10982221782E+01  0.17989069823E+01  0.51100000000E-03 0.  1.
        -12    1    3    3    0    0 -0.20114895372E+02 -0.63402114040E+01 -0.19630638525E+02  0.28812658075E+02  0.00000000000E+00 0.  1.
</event>
<event>
 7    1  0.3086024E-009  0.4614232E+02  0.7816164E-02  0.1320468E+00
        -11   -1    0    0    0    0  0.00000000000E+00  0.00000000000E+00  0.45593999997E+02  0.45594000000E+02  0.51100000000E-03 0.  1.
         11   -1    0    0    0    0 -0.00000000000E+00 -0.00000000000E+00 -0.45593999997E+02  0.45594000000E+02  0.51100000000E-03 0. -1.
    9900012    2    1    2    0    0 -0.10993150117E+01  0.65946630919E+01  0.44546778947E+02  0.46142316640E+02  0.99999897764E+01 0.  0.
         12    1    1    2    0    0  0.10993150117E+01 -0.65946630919E+01 -0.44546778947E+02  0.45045683360E+02  0.00000000000E+00 0. -1.
         11    1    3    3    0    0 -0.18233155567E+01  0.34001961533E+01  0.12283883640E+02  0.12875543136E+02  0.51100000000E-03 0. -1.
        -11    1    3    3    0    0  0.27062198724E+00  0.36749902112E+01  0.32385820579E+02  0.32594787377E+02  0.51100000000E-03 0.  1.
         12    1    3    3    0    0  0.45337855774E+00 -0.48052327252E+00 -0.12292527210E+00  0.67198612677E+00  0.00000000000E+00 0. -1.
</event>
<event>
 7    1  0.3086024E-009  0.4614232E+02  0.7816164E-02  0.1320468E+00
        -11   -1    0    0    0    0  0.00000000000E+00  0.00000000000E+00  0.45593999997E+02  0.45594000000E+02  0.51100000000E-03 0.  1.
         11   -1    0    0    0    0 -0.00000000000E+00 -0.00000000000E+00 -0.45593999997E+02  0.45594000000E+02  0.51100000000E-03 0. -1.
    9900012    2    1    2    0    0 -0.27592184451E+01  0.36312702159E+02  0.26512032508E+02  0.46142317718E+02  0.99999996095E+01 0.  0.
         12    1    1    2    0    0  0.27592184451E+01 -0.36312702159E+02 -0.26512032508E+02  0.45045682282E+02  0.00000000000E+00 0. -1.
         11    1    3    3    0    0  0.92764046554E+00  0.59709997980E+01  0.78326773763E+00  0.60931817658E+01  0.51100000000E-03 0. -1.
        -11    1    3    3    0    0  0.16793840572E+00  0.24266521935E+01  0.28816523424E+01  0.37710429141E+01  0.51100000000E-03 0.  1.
         12    1    3    3    0    0 -0.38547973164E+01  0.27915050168E+02  0.22847112428E+02  0.36278093038E+02  0.00000000000E+00 0. -1.
</event>
<event>
 7    1  0.3086024E-009  0.4614232E+02  0.7816164E-02  0.1320468E+00
        -11   -1    0    0    0    0  0.00000000000E+00  0.00000000000E+00  0.45593999997E+02  0.45594000000E+02  0.51100000000E-03 0.  1.
         11   -1    0    0    0    0 -0.00000000000E+00 -0.00000000000E+00 -0.45593999997E+02  0.45594000000E+02  0.51100000000E-03 0. -1.
    9900012    2    1    2    0    0 -0.85591358792E+01  0.34639489847E+02  0.27494734347E+02  0.46142317847E+02  0.10000000779E+02 0.  0.
         12    1    1    2    0    0  0.85591358792E+01 -0.34639489847E+02 -0.27494734347E+02  0.45045682153E+02  0.00000000000E+00 0. -1.
         11    1    3    3    0    0 -0.19586250505E+01  0.20117775026E+02  0.15475293715E+02  0.25456743702E+02  0.51100000000E-03 0.  1.
        -11    1    3    3    0    0 -0.62220772369E+01  0.86776857512E+01  0.95660252688E+01  0.14336154116E+02  0.51100000000E-03 0. -1.
         12    1    3    3    0    0 -0.37843359177E+00  0.58440290696E+01  0.24534153636E+01  0.63494200283E+01  0.00000000000E+00 0. -1.
</event>
<event>
 7    1  0.3086024E-009  0.4614232E+02  0.7816164E-02  0.1320468E+00
        -11   -1    0    0    0    0  0.00000000000E+00  0.00000000000E+00  0.45593999997E+02  0.45594000000E+02  0.51100000000E-03 0. -1.
         11   -1    0    0    0    0 -0.00000000000E+00 -0.00000000000E+00 -0.45593999997E+02  0.45594000000E+02  0.51100000000E-03 0.  1.
    9900012    2    1    2    0    0  0.36520259055E+02 -0.12066345028E+02 -0.23447548811E+02  0.46142317088E+02  0.99999938601E+01 0.  0.
         12    1    1    2    0    0 -0.36520259055E+02  0.12066345028E+02  0.23447548811E+02  0.45045682912E+02  0.00000000000E+00 0. -1.
         11    1    3    3    0    0  0.15599431582E+02 -0.30898722571E+01 -0.50845621085E+01  0.16695578706E+02  0.51100000000E-03 0. -1.
        -11    1    3    3    0    0  0.12170097532E+02 -0.43904894104E+01 -0.84598811178E+01  0.15458242462E+02  0.51100000000E-03 0.  1.
         12    1    3    3    0    0  0.87507299408E+01 -0.45859833605E+01 -0.99031055851E+01  0.13988495920E+02  0.00000000000E+00 0. -1.
</event>
<event>
 7    1  0.3086024E-009  0.4614232E+02  0.7816164E-02  0.1320468E+00
        -11   -1    0    0    0    0  0.00000000000E+00  0.00000000000E+00  0.45593999997E+02  0.45594000000E+02  0.51100000000E-03 0.  1.
         11   -1    0    0    0    0 -0.00000000000E+00 -0.00000000000E+00 -0.45593999997E+02  0.45594000000E+02  0.51100000000E-03 0. -1.
    9900012    2    1    2    0    0 -0.41648732330E+01 -0.23473636741E+02  0.38219833773E+02  0.46142317804E+02  0.10000000392E+02 0.  0.
         12    1    1    2    0    0  0.41648732330E+01  0.23473636741E+02 -0.38219833773E+02  0.45045682196E+02  0.00000000000E+00 0. -1.
         11    1    3    3    0    0 -0.12021600495E+01 -0.79317181844E+00  0.64088984830E+01  0.65687358254E+01  0.51100000000E-03 0. -1.
        -11    1    3    3    0    0 -0.18255721774E+01 -0.69602784192E+01  0.61846871603E+01  0.94883373138E+01  0.51100000000E-03 0.  1.
        -12    1    3    3    0    0 -0.11371410061E+01 -0.15720186503E+02  0.25626248129E+02  0.30085244665E+02  0.00000000000E+00 0.  1.
</event>
<event>
 7    1  0.3086024E-009  0.4614232E+02  0.7816164E-02  0.1320468E+00
        -11   -1    0    0    0    0  0.00000000000E+00  0.00000000000E+00  0.45593999997E+02  0.45594000000E+02  0.51100000000E-03 0. -1.
         11   -1    0    0    0    0 -0.00000000000E+00 -0.00000000000E+00 -0.45593999997E+02  0.45594000000E+02  0.51100000000E-03 0.  1.
    9900012    2    1    2    0    0 -0.21177663138E+02 -0.36302733905E+02 -0.16208997303E+02  0.46142317649E+02  0.99999989737E+01 0.  0.
         12    1    1    2    0    0  0.21177663138E+02  0.36302733905E+02  0.16208997303E+02  0.45045682351E+02  0.00000000000E+00 0. -1.
         11    1    3    3    0    0 -0.13826242823E+01 -0.39440069248E+01 -0.27219954435E+00  0.41881897500E+01  0.51100000000E-03 0. -1.
        -11    1    3    3    0    0 -0.20049072324E+02 -0.28615284203E+02 -0.15322801210E+02  0.38152169378E+02  0.51100000000E-03 0.  1.
        -12    1    3    3    0    0  0.25403346907E+00 -0.37434427773E+01 -0.61399654904E+00  0.38019585206E+01  0.00000000000E+00 0.  1.
</event>
<event>
 7    1  0.3086024E-009  0.4614232E+02  0.7816164E-02  0.1320468E+00
        -11   -1    0    0    0    0  0.00000000000E+00  0.00000000000E+00  0.45593999997E+02  0.45594000000E+02  0.51100000000E-03 0.  1.
         11   -1    0    0    0    0 -0.00000000000E+00 -0.00000000000E+00 -0.45593999997E+02  0.45594000000E+02  0.51100000000E-03 0. -1.
    9900012    2    1    2    0    0 -0.19451428189E+02  0.39995750927E+02 -0.71481006789E+01  0.46142317697E+02  0.99999994145E+01 0.  0.
         12    1    1    2    0    0  0.19451428189E+02 -0.39995750927E+02  0.71481006789E+01  0.45045682303E+02  0.00000000000E+00 0. -1.
         11    1    3    3    0    0 -0.11037635563E+01  0.18601288660E+01 -0.13924949058E+01  0.25724338106E+01  0.51100000000E-03 0. -1.
        -11    1    3    3    0    0 -0.97931794462E+01  0.27244748035E+02 -0.11460812118E+01  0.28974060150E+02  0.51100000000E-03 0.  1.
        -12    1    3    3    0    0 -0.85544851865E+01  0.10890874026E+02 -0.46095245613E+01  0.14595823736E+02  0.00000000000E+00 0.  1.
</event>
<event>
 7    1  0.3086024E-009  0.4614232E+02  0.7816164E-02  0.1320468E+00
        -11   -1    0    0    0    0  0.00000000000E+00  0.00000000000E+00  0.45593999997E+02  0.45594000000E+02  0.51100000000E-03 0.  1.
         11   -1    0    0    0    0 -0.00000000000E+00 -0.00000000000E+00 -0.45593999997E+02  0.45594000000E+02  0.51100000000E-03 0. -1.
    9900012    2    1    2    0    0 -0.32456239118E+02 -0.12104494872E+02  0.28795612115E+02  0.46142317289E+02  0.99999956967E+01 0.  0.
         12    1    1    2    0    0  0.32456239118E+02  0.12104494872E+02 -0.28795612115E+02  0.45045682711E+02  0.00000000000E+00 0. -1.
         11    1    3    3    0    0 -0.15272138830E+01 -0.30273437779E+01  0.49784968795E+01  0.60235059587E+01  0.51100000000E-03 0. -1.
        -11    1    3    3    0    0 -0.13984270693E+02 -0.43291590888E+01  0.11904212200E+02  0.18868272671E+02  0.51100000000E-03 0.  1.
         12    1    3    3    0    0 -0.16944754542E+02 -0.47479920051E+01  0.11912903036E+02  0.21250538660E+02  0.00000000000E+00 0. -1.
</event>
<event>
 7    1  0.3086024E-009  0.4614232E+02  0.7816164E-02  0.1320468E+00
        -11   -1    0    0    0    0  0.00000000000E+00  0.00000000000E+00  0.45593999997E+02  0.45594000000E+02  0.51100000000E-03 0.  1.
         11   -1    0    0    0    0 -0.00000000000E+00 -0.00000000000E+00 -0.45593999997E+02  0.45594000000E+02  0.51100000000E-03 0. -1.
    9900012    2    1    2    0    0  0.14713704242E+02 -0.18668663014E+02  0.38263578936E+02  0.46142317141E+02  0.99999943411E+01 0.  0.
         12    1    1    2    0    0 -0.14713704242E+02  0.18668663014E+02 -0.38263578936E+02  0.45045682859E+02  0.00000000000E+00 0. -1.
         11    1    3    3    0    0  0.80084618781E+01 -0.91218815931E+01  0.26518293161E+02  0.29164431383E+02  0.51100000000E-03 0. -1.
        -11    1    3    3    0    0  0.59158932968E+01 -0.70387972760E+01  0.70118753586E+01  0.11563254598E+02  0.51100000000E-03 0.  1.
         12    1    3    3    0    0  0.78934906674E+00 -0.25079841452E+01  0.47334104169E+01  0.54146311598E+01  0.00000000000E+00 0. -1.
</event>
<event>
 7    1  0.3086024E-009  0.4614232E+02  0.7816164E-02  0.1320468E+00
        -11   -1    0    0    0    0  0.00000000000E+00  0.00000000000E+00  0.45593999997E+02  0.45594000000E+02  0.51100000000E-03 0. -1.
         11   -1    0    0    0    0 -0.00000000000E+00 -0.00000000000E+00 -0.45593999997E+02  0.45594000000E+02  0.51100000000E-03 0.  1.
    9900012    2    1    2    0    0 -0.21098446550E+02  0.23376550050E+02 -0.32210339536E+02  0.46142317497E+02  0.99999975942E+01 0.  0.
         12    1    1    2    0    0  0.21098446550E+02 -0.23376550050E+02  0.32210339536E+02  0.45045682503E+02  0.00000000000E+00 0. -1.
         11    1    3    3    0    0 -0.83325830063E+01  0.12560406961E+02 -0.14490295809E+02  0.20908477598E+02  0.51100000000E-03 0. -1.
        -11    1    3    3    0    0 -0.78003456483E+01  0.26577406634E+01 -0.99661003628E+01  0.12931826413E+02  0.51100000000E-03 0.  1.
        -12    1    3    3    0    0 -0.49655178957E+01  0.81584024260E+01 -0.77539433642E+01  0.12302013486E+02  0.00000000000E+00 0.  1.
</event>
<event>
 7    1  0.3086024E-009  0.4614232E+02  0.7816164E-02  0.1320468E+00
        -11   -1    0    0    0    0  0.00000000000E+00  0.00000000000E+00  0.45593999997E+02  0.45594000000E+02  0.51100000000E-03 0.  1.
         11   -1    0    0    0    0 -0.00000000000E+00 -0.00000000000E+00 -0.45593999997E+02  0.45594000000E+02  0.51100000000E-03 0. -1.
    9900012    2    1    2    0    0  0.35603329600E+01 -0.11580126936E+02  0.43385921526E+02  0.46142317662E+02  0.99999990989E+01 0.  0.
         12    1    1    2    0    0 -0.35603329600E+01  0.11580126936E+02 -0.43385921526E+02  0.45045682338E+02  0.00000000000E+00 0. -1.
         11    1    3    3    0    0 -0.18614735999E+01 -0.20315196503E+01  0.10689959073E+02  0.11039356018E+02  0.51100000000E-03 0. -1.
        -11    1    3    3    0    0  0.23999239448E+01 -0.70543341343E+01  0.28062036373E+02  0.29034482098E+02  0.51100000000E-03 0.  1.
        -12    1    3    3    0    0  0.30218826151E+01 -0.24942731518E+01  0.46339260797E+01  0.60684795466E+01  0.00000000000E+00 0.  1.
</event>
<event>
 7    1  0.3086024E-009  0.4614232E+02  0.7816164E-02  0.1320468E+00
        -11   -1    0    0    0    0  0.00000000000E+00  0.00000000000E+00  0.45593999997E+02  0.45594000000E+02  0.51100000000E-03 0.  1.
         11   -1    0    0    0    0 -0.00000000000E+00 -0.00000000000E+00 -0.45593999997E+02  0.45594000000E+02  0.51100000000E-03 0. -1.
    9900012    2    1    2    0    0 -0.80211164931E+01  0.36128690357E+02  0.25680592440E+02  0.46142318689E+02  0.10000008461E+02 0.  0.
         12    1    1    2    0    0  0.80211164931E+01 -0.36128690357E+02 -0.25680592440E+02  0.45045681311E+02  0.00000000000E+00 0. -1.
         11    1    3    3    0    0 -0.27999251460E+01  0.79691775168E+01  0.10134570940E+02  0.13193062552E+02  0.51100000000E-03 0. -1.
        -11    1    3    3    0    0 -0.60677238777E+01  0.21895140520E+02  0.11810157484E+02  0.25606527908E+02  0.51100000000E-03 0.  1.
         12    1    3    3    0    0  0.84653253066E+00  0.62643723206E+01  0.37358640162E+01  0.73427282290E+01  0.00000000000E+00 0. -1.
</event>
<event>
 7    1  0.3086024E-009  0.4614232E+02  0.7816164E-02  0.1320468E+00
        -11   -1    0    0    0    0  0.00000000000E+00  0.00000000000E+00  0.45593999997E+02  0.45594000000E+02  0.51100000000E-03 0. -1.
         11   -1    0    0    0    0 -0.00000000000E+00 -0.00000000000E+00 -0.45593999997E+02  0.45594000000E+02  0.51100000000E-03 0.  1.
    9900012    2    1    2    0    0  0.11582392163E+02  0.15821034823E+02 -0.40554360964E+02  0.46142321580E+02  0.10000034827E+02 0.  0.
         12    1    1    2    0    0 -0.11582392163E+02 -0.15821034823E+02  0.40554360964E+02  0.45045678420E+02  0.00000000000E+00 0. -1.
         11    1    3    3    0    0  0.22003610347E+00  0.18893966449E+01 -0.67323136823E+01  0.69958761672E+01  0.51100000000E-03 0. -1.
        -11    1    3    3    0    0  0.12222552182E+01  0.72584452667E+01 -0.15627748531E+02  0.17274416341E+02  0.51100000000E-03 0.  1.
         12    1    3    3    0    0  0.10140100842E+02  0.66731929113E+01 -0.18194298751E+02  0.21872029072E+02  0.00000000000E+00 0. -1.
</event>
<event>
 7    1  0.3086024E-009  0.4614232E+02  0.7816164E-02  0.1320468E+00
        -11   -1    0    0    0    0  0.00000000000E+00  0.00000000000E+00  0.45593999997E+02  0.45594000000E+02  0.51100000000E-03 0.  1.
         11   -1    0    0    0    0 -0.00000000000E+00 -0.00000000000E+00 -0.45593999997E+02  0.45594000000E+02  0.51100000000E-03 0. -1.
    9900012    2    1    2    0    0 -0.17959835021E+02 -0.21297647440E+02  0.35397289606E+02  0.46142316834E+02  0.99999915421E+01 0.  0.
         12    1    1    2    0    0  0.17959835021E+02  0.21297647440E+02 -0.35397289606E+02  0.45045683166E+02  0.00000000000E+00 0. -1.
         11    1    3    3    0    0 -0.12645244213E+02 -0.12415715420E+02  0.18561260312E+02  0.25662668903E+02  0.51100000000E-03 0. -1.
        -11    1    3    3    0    0 -0.22283123578E+01 -0.79306716593E+01  0.10298108242E+02  0.13187568485E+02  0.51100000000E-03 0.  1.
         12    1    3    3    0    0 -0.30862784500E+01 -0.95126036018E+00  0.65379210526E+01  0.72920794451E+01  0.00000000000E+00 0. -1.
</event>
<event>
 7    1  0.3086024E-009  0.4614232E+02  0.7816164E-02  0.1320468E+00
        -11   -1    0    0    0    0  0.00000000000E+00  0.00000000000E+00  0.45593999997E+02  0.45594000000E+02  0.51100000000E-03 0.  1.
         11   -1    0    0    0    0 -0.00000000000E+00 -0.00000000000E+00 -0.45593999997E+02  0.45594000000E+02  0.51100000000E-03 0. -1.
    9900012    2    1    2    0    0 -0.40510038804E+02 -0.19503088628E+02  0.27712451510E+01  0.46142317525E+02  0.99999978513E+01 0.  0.
         12    1    1    2    0    0  0.40510038804E+02  0.19503088628E+02 -0.27712451510E+01  0.45045682475E+02  0.00000000000E+00 0. -1.
         11    1    3    3    0    0 -0.19948229543E+02 -0.62649783187E+01  0.20518104242E+01  0.21009325109E+02  0.51100000000E-03 0. -1.
        -11    1    3    3    0    0 -0.20405347384E+02 -0.12944605754E+02  0.15739029829E+01  0.24216072985E+02  0.51100000000E-03 0.  1.
        -12    1    3    3    0    0 -0.15646187660E+00 -0.29350455571E+00 -0.85446825610E+00  0.91691943143E+00  0.00000000000E+00 0.  1.
</event>
<event>
 7    1  0.3086024E-009  0.4614232E+02  0.7816164E-02  0.1320468E+00
        -11   -1    0    0    0    0  0.00000000000E+00  0.00000000000E+00  0.45593999997E+02  0.45594000000E+02  0.51100000000E-03 0.  1.
         11   -1    0    0    0    0 -0.00000000000E+00 -0.00000000000E+00 -0.45593999997E+02  0.45594000000E+02  0.51100000000E-03 0. -1.
    9900012    2    1    2    0    0  0.17266711521E+02  0.20526749171E+02  0.36188761644E+02  0.46142320656E+02  0.10000026395E+02 0.  0.
         12    1    1    2    0    0 -0.17266711521E+02 -0.20526749171E+02 -0.36188761644E+02  0.45045679344E+02  0.00000000000E+00 0. -1.
         11    1    3    3    0    0  0.64224288165E+01  0.14295991369E+02  0.22184398721E+02  0.27161931228E+02  0.51100000000E-03 0. -1.
        -11    1    3    3    0    0  0.11815766543E+01 -0.18002537560E+00  0.16382402348E+01  0.20278964110E+01  0.51100000000E-03 0.  1.
         12    1    3    3    0    0  0.96627060507E+01  0.64107831768E+01  0.12366122688E+02  0.16952493017E+02  0.00000000000E+00 0. -1.
</event>
<event>
 7    1  0.3125291E-009  0.4614232E+02  0.7816164E-02  0.1320468E+00
        -11   -1    0    0    0    0  0.00000000000E+00  0.00000000000E+00  0.45593999997E+02  0.45594000000E+02  0.51100000000E-03 0. -1.
         11   -1    0    0    0    0 -0.00000000000E+00 -0.00000000000E+00 -0.45593999997E+02  0.45594000000E+02  0.51100000000E-03 0.  1.
    9900012    2    1    2    0    0 -0.23828590111E+01 -0.42645051612E+02 -0.14312060565E+02  0.46142317391E+02  0.99999966278E+01 0.  0.
         12    1    1    2    0    0  0.23828590111E+01  0.42645051612E+02  0.14312060565E+02  0.45045682609E+02  0.00000000000E+00 0. -1.
         11    1    3    3    0    0  0.55409888507E+00 -0.10576867655E+01  0.71973013513E+00  0.13941802598E+01  0.51100000000E-03 0. -1.
        -11    1    3    3    0    0 -0.88660018840E+00 -0.30168048790E+02 -0.81635465252E+01  0.31265647599E+02  0.51100000000E-03 0.  1.
        -12    1    3    3    0    0 -0.20503577077E+01 -0.11419316057E+02 -0.68682441751E+01  0.13482489532E+02  0.00000000000E+00 0.  1.
</event>
<event>
 7    1  0.3086024E-009  0.4614232E+02  0.7816164E-02  0.1320468E+00
        -11   -1    0    0    0    0  0.00000000000E+00  0.00000000000E+00  0.45593999997E+02  0.45594000000E+02  0.51100000000E-03 0. -1.
         11   -1    0    0    0    0 -0.00000000000E+00 -0.00000000000E+00 -0.45593999997E+02  0.45594000000E+02  0.51100000000E-03 0.  1.
    9900012    2    1    2    0    0  0.66935757065E+01 -0.80399353218E+01 -0.43814027811E+02  0.46142317091E+02  0.99999938869E+01 0.  0.
         12    1    1    2    0    0 -0.66935757065E+01  0.80399353218E+01  0.43814027811E+02  0.45045682909E+02  0.00000000000E+00 0. -1.
         11    1    3    3    0    0  0.15187373419E+01 -0.26609728394E+01 -0.51669469271E+01  0.60070525530E+01  0.51100000000E-03 0. -1.
        -11    1    3    3    0    0  0.35241732409E+01  0.10534336581E+01 -0.84376703712E+01  0.92045532786E+01  0.51100000000E-03 0.  1.
        -12    1    3    3    0    0  0.16506651237E+01 -0.64323961404E+01 -0.30209410513E+02  0.30930711259E+02  0.00000000000E+00 0.  1.
</event>
<event>
 7    1  0.3086024E-009  0.4614232E+02  0.7816164E-02  0.1320468E+00
        -11   -1    0    0    0    0  0.00000000000E+00  0.00000000000E+00  0.45593999997E+02  0.45594000000E+02  0.51100000000E-03 0.  1.
         11   -1    0    0    0    0 -0.00000000000E+00 -0.00000000000E+00 -0.45593999997E+02  0.45594000000E+02  0.51100000000E-03 0. -1.
    9900012    2    1    2    0    0  0.37187185421E+01 -0.44324579411E+02  0.71145215104E+01  0.46142316257E+02  0.99999862840E+01 0.  0.
         12    1    1    2    0    0 -0.37187185421E+01  0.44324579411E+02 -0.71145215104E+01  0.45045683743E+02  0.00000000000E+00 0. -1.
         11    1    3    3    0    0 -0.18142110012E+00 -0.33924497277E+00 -0.56407583627E+00  0.68277564199E+00  0.51100000000E-03 0. -1.
        -11    1    3    3    0    0  0.46124524669E+01 -0.43537840040E+02  0.69164876072E+01  0.44324440597E+02  0.51100000000E-03 0.  1.
        -12    1    3    3    0    0 -0.71231282466E+00 -0.44749439782E+00  0.76210973939E+00  0.11351000181E+01  0.00000000000E+00 0.  1.
</event>
<event>
 7    1  0.3086024E-009  0.4614232E+02  0.7816164E-02  0.1320468E+00
        -11   -1    0    0    0    0  0.00000000000E+00  0.00000000000E+00  0.45593999997E+02  0.45594000000E+02  0.51100000000E-03 0.  1.
         11   -1    0    0    0    0 -0.00000000000E+00 -0.00000000000E+00 -0.45593999997E+02  0.45594000000E+02  0.51100000000E-03 0. -1.
    9900012    2    1    2    0    0  0.57432761850E+01 -0.60819252663E+01  0.44262155914E+02  0.46142317827E+02  0.10000000600E+02 0.  0.
         12    1    1    2    0    0 -0.57432761850E+01  0.60819252663E+01 -0.44262155914E+02  0.45045682173E+02  0.00000000000E+00 0. -1.
         11    1    3    3    0    0  0.36490940939E+01 -0.68002177756E+00  0.81217218612E+01  0.89297639149E+01  0.51100000000E-03 0. -1.
        -11    1    3    3    0    0  0.95583771281E+00 -0.68694990323E+01  0.26349748211E+02  0.27247254426E+02  0.51100000000E-03 0.  1.
        -12    1    3    3    0    0  0.11383443783E+01  0.14675955435E+01  0.97906858417E+01  0.99652994864E+01  0.00000000000E+00 0.  1.
</event>
<event>
 7    1  0.3086024E-009  0.4614232E+02  0.7816164E-02  0.1320468E+00
        -11   -1    0    0    0    0  0.00000000000E+00  0.00000000000E+00  0.45593999997E+02  0.45594000000E+02  0.51100000000E-03 0. -1.
         11   -1    0    0    0    0 -0.00000000000E+00 -0.00000000000E+00 -0.45593999997E+02  0.45594000000E+02  0.51100000000E-03 0.  1.
    9900012    2    1    2    0    0 -0.11606492482E+02  0.18630412196E+02 -0.39335867779E+02  0.46142318517E+02  0.10000006894E+02 0.  0.
         12    1    1    2    0    0  0.11606492482E+02 -0.18630412196E+02  0.39335867779E+02  0.45045681483E+02  0.00000000000E+00 0. -1.
         11    1    3    3    0    0 -0.11439663159E+01 -0.98026863208E+00 -0.16376318356E+01  0.22251795013E+01  0.51100000000E-03 0. -1.
        -11    1    3    3    0    0 -0.98761222247E+01  0.17234254584E+02 -0.31346665047E+02  0.37110251025E+02  0.51100000000E-03 0.  1.
        -12    1    3    3    0    0 -0.58640394099E+00  0.23764262439E+01 -0.63515708963E+01  0.68068879912E+01  0.00000000000E+00 0.  1.
</event>
<event>
 7    1  0.3086024E-009  0.4614231E+02  0.7816164E-02  0.1320468E+00
        -11   -1    0    0    0    0  0.00000000000E+00  0.00000000000E+00  0.45593999997E+02  0.45594000000E+02  0.51100000000E-03 0.  1.
         11   -1    0    0    0    0 -0.00000000000E+00 -0.00000000000E+00 -0.45593999997E+02  0.45594000000E+02  0.51100000000E-03 0. -1.
    9900012    2    1    2    0    0 -0.25594879712E+02  0.31111661904E+02  0.20151436892E+02  0.46142314494E+02  0.99999702064E+01 0.  0.
         12    1    1    2    0    0  0.25594879712E+02 -0.31111661904E+02 -0.20151436892E+02  0.45045685506E+02  0.00000000000E+00 0. -1.
         11    1    3    3    0    0 -0.16659180275E+02  0.13989376327E+02  0.93894830416E+01  0.23693740302E+02  0.51100000000E-03 0. -1.
        -11    1    3    3    0    0 -0.84971915881E+01  0.13223826391E+02  0.92893047061E+01  0.18258231883E+02  0.51100000000E-03 0.  1.
        -12    1    3    3    0    0 -0.43850784806E+00  0.38984591865E+01  0.14726491446E+01  0.41903423087E+01  0.00000000000E+00 0.  1.
</event>
<event>
 7    1  0.3086024E-009  0.4614232E+02  0.7816164E-02  0.1320468E+00
        -11   -1    0    0    0    0  0.00000000000E+00  0.00000000000E+00  0.45593999997E+02  0.45594000000E+02  0.51100000000E-03 0.  1.
         11   -1    0    0    0    0 -0.00000000000E+00 -0.00000000000E+00 -0.45593999997E+02  0.45594000000E+02  0.51100000000E-03 0. -1.
    9900012    2    1    2    0    0 -0.36703222252E+02 -0.25438164905E+02 -0.59065035931E+01  0.46142317165E+02  0.99999945628E+01 0.  0.
         12    1    1    2    0    0  0.36703222252E+02  0.25438164905E+02  0.59065035931E+01  0.45045682835E+02  0.00000000000E+00 0. -1.
         11    1    3    3    0    0 -0.68153320624E+00  0.74876571249E+00 -0.87963749074E-01  0.10163048193E+01  0.51100000000E-03 0. -1.
        -11    1    3    3    0    0 -0.80253344605E+01 -0.80094923103E+01 -0.74512659277E+00  0.11362797814E+02  0.51100000000E-03 0.  1.
         12    1    3    3    0    0 -0.27996354585E+02 -0.18177438307E+02 -0.50734132513E+01  0.33763214531E+02  0.00000000000E+00 0. -1.
</event>
<event>
 7    1  0.3086024E-009  0.4614232E+02  0.7816164E-02  0.1320468E+00
        -11   -1    0    0    0    0  0.00000000000E+00  0.00000000000E+00  0.45593999997E+02  0.45594000000E+02  0.51100000000E-03 0.  1.
         11   -1    0    0    0    0 -0.00000000000E+00 -0.00000000000E+00 -0.45593999997E+02  0.45594000000E+02  0.51100000000E-03 0. -1.
    9900012    2    1    2    0    0 -0.13067281488E+02 -0.34711620752E+02  0.25562924753E+02  0.46142316715E+02  0.99999904627E+01 0.  0.
         12    1    1    2    0    0  0.13067281488E+02  0.34711620752E+02 -0.25562924753E+02  0.45045683285E+02  0.00000000000E+00 0. -1.
         11    1    3    3    0    0  0.15114697598E+01 -0.31818714760E+01  0.31275301055E+01  0.47106572521E+01  0.51100000000E-03 0. -1.
        -11    1    3    3    0    0 -0.77191214762E+01 -0.15164077080E+02  0.96643524410E+01  0.19568693836E+02  0.51100000000E-03 0.  1.
         12    1    3    3    0    0 -0.68596297713E+01 -0.16365672195E+02  0.12771042206E+02  0.21862965628E+02  0.00000000000E+00 0. -1.
</event>
<event>
 7    1  0.3086024E-009  0.4614232E+02  0.7816164E-02  0.1320468E+00
        -11   -1    0    0    0    0  0.00000000000E+00  0.00000000000E+00  0.45593999997E+02  0.45594000000E+02  0.51100000000E-03 0.  1.
         11   -1    0    0    0    0 -0.00000000000E+00 -0.00000000000E+00 -0.45593999997E+02  0.45594000000E+02  0.51100000000E-03 0. -1.
    9900012    2    1    2    0    0  0.24634173160E+02  0.27163803798E+02  0.26161016508E+02  0.46142317535E+02  0.99999979369E+01 0.  0.
         12    1    1    2    0    0 -0.24634173160E+02 -0.27163803798E+02 -0.26161016508E+02  0.45045682465E+02  0.00000000000E+00 0. -1.
         11    1    3    3    0    0 -0.76708684718E+00  0.18136750302E+01  0.11571148646E+01  0.22840215448E+01  0.51100000000E-03 0. -1.
        -11    1    3    3    0    0  0.20464129176E+02  0.22100720316E+02  0.21075317866E+02  0.36761276432E+02  0.51100000000E-03 0.  1.
         12    1    3    3    0    0  0.49371308306E+01  0.32494084510E+01  0.39285837770E+01  0.70970195584E+01  0.00000000000E+00 0. -1.
</event>
<event>
 7    1  0.3086024E-009  0.4614232E+02  0.7816164E-02  0.1320468E+00
        -11   -1    0    0    0    0  0.00000000000E+00  0.00000000000E+00  0.45593999997E+02  0.45594000000E+02  0.51100000000E-03 0. -1.
         11   -1    0    0    0    0 -0.00000000000E+00 -0.00000000000E+00 -0.45593999997E+02  0.45594000000E+02  0.51100000000E-03 0.  1.
    9900012    2    1    2    0    0 -0.71121203863E+01  0.10870465068E+02 -0.43131939417E+02  0.46142318020E+02  0.10000002363E+02 0.  0.
         12    1    1    2    0    0  0.71121203863E+01 -0.10870465068E+02  0.43131939417E+02  0.45045681980E+02  0.00000000000E+00 0. -1.
         11    1    3    3    0    0 -0.95504350011E+00  0.24967979457E+01 -0.10521418652E+02  0.10855706277E+02  0.51100000000E-03 0. -1.
        -11    1    3    3    0    0 -0.80993995070E+00  0.80627893684E+01 -0.18681907656E+02  0.20363650190E+02  0.51100000000E-03 0.  1.
        -12    1    3    3    0    0 -0.53471369354E+01  0.31087775402E+00 -0.13928613109E+02  0.14922961554E+02  0.00000000000E+00 0.  1.
</event>
<event>
 7    1  0.3086024E-009  0.4614232E+02  0.7816164E-02  0.1320468E+00
        -11   -1    0    0    0    0  0.00000000000E+00  0.00000000000E+00  0.45593999997E+02  0.45594000000E+02  0.51100000000E-03 0.  1.
         11   -1    0    0    0    0 -0.00000000000E+00 -0.00000000000E+00 -0.45593999997E+02  0.45594000000E+02  0.51100000000E-03 0. -1.
    9900012    2    1    2    0    0 -0.26080129584E+02 -0.22061027994E+02  0.29364108878E+02  0.46142323122E+02  0.10000048881E+02 0.  0.
         12    1    1    2    0    0  0.26080129584E+02  0.22061027994E+02 -0.29364108878E+02  0.45045676878E+02  0.00000000000E+00 0. -1.
         11    1    3    3    0    0 -0.10202245572E+02 -0.69814959741E+01  0.15322326002E+02  0.19687579209E+02  0.51100000000E-03 0. -1.
        -11    1    3    3    0    0 -0.65427252974E+01 -0.47801292193E+01  0.76926856352E+01  0.11172927200E+02  0.51100000000E-03 0.  1.
         12    1    3    3    0    0 -0.93351587140E+01 -0.10299402801E+02  0.63490972411E+01  0.15281816713E+02  0.00000000000E+00 0. -1.
</event>
<event>
 7    1  0.3086024E-009  0.4614232E+02  0.7816164E-02  0.1320468E+00
        -11   -1    0    0    0    0  0.00000000000E+00  0.00000000000E+00  0.45593999997E+02  0.45594000000E+02  0.51100000000E-03 0.  1.
         11   -1    0    0    0    0 -0.00000000000E+00 -0.00000000000E+00 -0.45593999997E+02  0.45594000000E+02  0.51100000000E-03 0. -1.
    9900012    2    1    2    0    0 -0.24657711438E+02 -0.25946262184E+02  0.27347800900E+02  0.46142317979E+02  0.10000001985E+02 0.  0.
         12    1    1    2    0    0  0.24657711438E+02  0.25946262184E+02 -0.27347800900E+02  0.45045682021E+02  0.00000000000E+00 0. -1.
         11    1    3    3    0    0 -0.16362682646E+01  0.21631595461E+00  0.23686860616E+01  0.28870123564E+01  0.51100000000E-03 0. -1.
        -11    1    3    3    0    0 -0.64861370729E+01 -0.11071683953E+02  0.10651386019E+02  0.16676455980E+02  0.51100000000E-03 0.  1.
        -12    1    3    3    0    0 -0.16535306101E+02 -0.15090894186E+02  0.14327728819E+02  0.26578849642E+02  0.00000000000E+00 0.  1.
</event>
<event>
 7    1  0.3086024E-009  0.4614232E+02  0.7816164E-02  0.1320468E+00
        -11   -1    0    0    0    0  0.00000000000E+00  0.00000000000E+00  0.45593999997E+02  0.45594000000E+02  0.51100000000E-03 0. -1.
         11   -1    0    0    0    0 -0.00000000000E+00 -0.00000000000E+00 -0.45593999997E+02  0.45594000000E+02  0.51100000000E-03 0.  1.
    9900012    2    1    2    0    0 -0.18592489666E+00 -0.45017868493E+02  0.15718018622E+01  0.46142316380E+02  0.99999874038E+01 0.  0.
         12    1    1    2    0    0  0.18592489666E+00  0.45017868493E+02 -0.15718018622E+01  0.45045683620E+02  0.00000000000E+00 0. -1.
         11    1    3    3    0    0 -0.46510634340E+00 -0.11535101189E+02 -0.16271218671E+01  0.11658576636E+02  0.51100000000E-03 0. -1.
        -11    1    3    3    0    0  0.25508762232E+01 -0.17099111197E+02 -0.13155718907E+01  0.17338318918E+02  0.51100000000E-03 0.  1.
        -12    1    3    3    0    0 -0.22716947765E+01 -0.16383656107E+02  0.45144956200E+01  0.17145420826E+02  0.00000000000E+00 0.  1.
</event>
<event>
 7    1  0.3086024E-009  0.4614232E+02  0.7816164E-02  0.1320468E+00
        -11   -1    0    0    0    0  0.00000000000E+00  0.00000000000E+00  0.45593999997E+02  0.45594000000E+02  0.51100000000E-03 0.  1.
         11   -1    0    0    0    0 -0.00000000000E+00 -0.00000000000E+00 -0.45593999997E+02  0.45594000000E+02  0.51100000000E-03 0. -1.
    9900012    2    1    2    0    0  0.30946741692E+02  0.32649626258E+02 -0.23269157228E+01  0.46142318155E+02  0.10000003589E+02 0.  0.
         12    1    1    2    0    0 -0.30946741692E+02 -0.32649626258E+02  0.23269157228E+01  0.45045681845E+02  0.00000000000E+00 0. -1.
         11    1    3    3    0    0  0.51163074673E+01  0.52128846667E+01  0.13024106316E+01  0.74193694046E+01  0.51100000000E-03 0. -1.
        -11    1    3    3    0    0  0.20459994905E+02  0.24839954980E+02 -0.98109629371E+00  0.32196231226E+02  0.51100000000E-03 0.  1.
         12    1    3    3    0    0  0.53704393199E+01  0.25967866109E+01 -0.26482300607E+01  0.65267175246E+01  0.00000000000E+00 0. -1.
</event>
<event>
 7    1  0.3086024E-009  0.4614232E+02  0.7816164E-02  0.1320468E+00
        -11   -1    0    0    0    0  0.00000000000E+00  0.00000000000E+00  0.45593999997E+02  0.45594000000E+02  0.51100000000E-03 0.  1.
         11   -1    0    0    0    0 -0.00000000000E+00 -0.00000000000E+00 -0.45593999997E+02  0.45594000000E+02  0.51100000000E-03 0. -1.
    9900012    2    1    2    0    0  0.10646353304E+02  0.43241225557E+02  0.67797560149E+01  0.46142317432E+02  0.99999970008E+01 0.  0.
         12    1    1    2    0    0 -0.10646353304E+02 -0.43241225557E+02 -0.67797560149E+01  0.45045682568E+02  0.00000000000E+00 0. -1.
         11    1    3    3    0    0  0.68880666251E+00 -0.46702392367E-01 -0.25917332836E+00  0.73743257795E+00  0.51100000000E-03 0. -1.
        -11    1    3    3    0    0  0.20937362883E+01  0.22704978654E+02  0.28910486228E+01  0.22983862811E+02  0.51100000000E-03 0.  1.
         12    1    3    3    0    0  0.78638103536E+01  0.20582949296E+02  0.41478807205E+01  0.22421022043E+02  0.00000000000E+00 0. -1.
</event>
<event>
 7    1  0.3086024E-009  0.4614231E+02  0.7816164E-02  0.1320468E+00
        -11   -1    0    0    0    0  0.00000000000E+00  0.00000000000E+00  0.45593999997E+02  0.45594000000E+02  0.51100000000E-03 0. -1.
         11   -1    0    0    0    0 -0.00000000000E+00 -0.00000000000E+00 -0.45593999997E+02  0.45594000000E+02  0.51100000000E-03 0.  1.
    9900012    2    1    2    0    0 -0.42059150584E+00  0.24682234231E+02 -0.37679229743E+02  0.46142312772E+02  0.99999545069E+01 0.  0.
         12    1    1    2    0    0  0.42059150584E+00 -0.24682234231E+02  0.37679229743E+02  0.45045687228E+02  0.00000000000E+00 0. -1.
         11    1    3    3    0    0 -0.10316067697E+01  0.43794335666E+01 -0.20550364270E+01  0.49463952399E+01  0.51100000000E-03 0. -1.
        -11    1    3    3    0    0 -0.16476430563E+01  0.10439651020E+02 -0.18432745734E+02  0.21247756508E+02  0.51100000000E-03 0.  1.
         12    1    3    3    0    0  0.22586583202E+01  0.98631496443E+01 -0.17191447582E+02  0.19948161025E+02  0.00000000000E+00 0. -1.
</event>
<event>
 7    1  0.3086024E-009  0.4614232E+02  0.7816164E-02  0.1320468E+00
        -11   -1    0    0    0    0  0.00000000000E+00  0.00000000000E+00  0.45593999997E+02  0.45594000000E+02  0.51100000000E-03 0.  1.
         11   -1    0    0    0    0 -0.00000000000E+00 -0.00000000000E+00 -0.45593999997E+02  0.45594000000E+02  0.51100000000E-03 0. -1.
    9900012    2    1    2    0    0 -0.40508798086E+02  0.10155932429E+02  0.16882174275E+02  0.46142317697E+02  0.99999994167E+01 0.  0.
         12    1    1    2    0    0  0.40508798086E+02 -0.10155932429E+02 -0.16882174275E+02  0.45045682303E+02  0.00000000000E+00 0. -1.
         11    1    3    3    0    0 -0.48790065153E+01  0.22890223630E+00  0.48019174177E+01  0.68494899049E+01  0.51100000000E-03 0. -1.
        -11    1    3    3    0    0 -0.18398597128E+02  0.23576399261E+01  0.66428754097E+01  0.19702655564E+02  0.51100000000E-03 0.  1.
         12    1    3    3    0    0 -0.17231194443E+02  0.75693902663E+01  0.54373814479E+01  0.19590172228E+02  0.00000000000E+00 0. -1.
</event>
<event>
 7    1  0.3086024E-009  0.4614232E+02  0.7816164E-02  0.1320468E+00
        -11   -1    0    0    0    0  0.00000000000E+00  0.00000000000E+00  0.45593999997E+02  0.45594000000E+02  0.51100000000E-03 0. -1.
         11   -1    0    0    0    0 -0.00000000000E+00 -0.00000000000E+00 -0.45593999997E+02  0.45594000000E+02  0.51100000000E-03 0.  1.
    9900012    2    1    2    0    0  0.26659216525E+02  0.63986231416E+01 -0.35741537819E+02  0.46142315084E+02  0.99999755899E+01 0.  0.
         12    1    1    2    0    0 -0.26659216525E+02 -0.63986231416E+01  0.35741537819E+02  0.45045684916E+02  0.00000000000E+00 0. -1.
         11    1    3    3    0    0  0.13105753080E+02  0.39104276945E+01 -0.13942354579E+02  0.19530526363E+02  0.51100000000E-03 0. -1.
        -11    1    3    3    0    0  0.10985910659E+02  0.84529291458E+00 -0.11739063828E+02  0.16100011582E+02  0.51100000000E-03 0.  1.
         12    1    3    3    0    0  0.25675527866E+01  0.16429025325E+01 -0.10060119412E+02  0.10511777139E+02  0.00000000000E+00 0. -1.
</event>
<event>
 7    1  0.3086024E-009  0.4614232E+02  0.7816164E-02  0.1320468E+00
        -11   -1    0    0    0    0  0.00000000000E+00  0.00000000000E+00  0.45593999997E+02  0.45594000000E+02  0.51100000000E-03 0.  1.
         11   -1    0    0    0    0 -0.00000000000E+00 -0.00000000000E+00 -0.45593999997E+02  0.45594000000E+02  0.51100000000E-03 0. -1.
    9900012    2    1    2    0    0 -0.34388176501E+02  0.10187236578E+02  0.27254117210E+02  0.46142318996E+02  0.10000011263E+02 0.  0.
         12    1    1    2    0    0  0.34388176501E+02 -0.10187236578E+02 -0.27254117210E+02  0.45045681004E+02  0.00000000000E+00 0. -1.
         11    1    3    3    0    0 -0.37174030427E+01  0.32932579750E+01  0.57717478867E+01  0.76143093843E+01  0.51100000000E-03 0. -1.
        -11    1    3    3    0    0 -0.58951826517E+01 -0.88144483822E+00  0.31504770127E+01  0.67420789946E+01  0.51100000000E-03 0.  1.
         12    1    3    3    0    0 -0.24775590807E+02  0.77754234416E+01  0.18331892311E+02  0.31785930617E+02  0.00000000000E+00 0. -1.
</event>
<event>
 7    1  0.3086024E-009  0.4614232E+02  0.7816164E-02  0.1320468E+00
        -11   -1    0    0    0    0  0.00000000000E+00  0.00000000000E+00  0.45593999997E+02  0.45594000000E+02  0.51100000000E-03 0.  1.
         11   -1    0    0    0    0 -0.00000000000E+00 -0.00000000000E+00 -0.45593999997E+02  0.45594000000E+02  0.51100000000E-03 0. -1.
    9900012    2    1    2    0    0  0.37088641951E+02  0.16127424588E+02  0.19835628811E+02  0.46142319231E+02  0.10000013403E+02 0.  0.
         12    1    1    2    0    0 -0.37088641951E+02 -0.16127424588E+02 -0.19835628811E+02  0.45045680769E+02  0.00000000000E+00 0. -1.
         11    1    3    3    0    0  0.17825048907E+02  0.66572921297E+01  0.72028782627E+01  0.20345352358E+02  0.51100000000E-03 0. -1.
        -11    1    3    3    0    0  0.12990202503E+02  0.93300471683E+01  0.10654632853E+02  0.19217605021E+02  0.51100000000E-03 0.  1.
        -12    1    3    3    0    0  0.62733905411E+01  0.14008528986E+00  0.19781176952E+01  0.65793618524E+01  0.00000000000E+00 0.  1.
</event>
<event>
 7    1  0.3086024E-009  0.4614232E+02  0.7816164E-02  0.1320468E+00
        -11   -1    0    0    0    0  0.00000000000E+00  0.00000000000E+00  0.45593999997E+02  0.45594000000E+02  0.51100000000E-03 0.  1.
         11   -1    0    0    0    0 -0.00000000000E+00 -0.00000000000E+00 -0.45593999997E+02  0.45594000000E+02  0.51100000000E-03 0. -1.
    9900012    2    1    2    0    0 -0.18032475614E+02 -0.15136804723E+02  0.38403390294E+02  0.46142318519E+02  0.10000006911E+02 0.  0.
         12    1    1    2    0    0  0.18032475614E+02  0.15136804723E+02 -0.38403390294E+02  0.45045681481E+02  0.00000000000E+00 0. -1.
         11    1    3    3    0    0  0.49423203599E+00 -0.15389828503E+00  0.31550560491E+00  0.60621286310E+00  0.51100000000E-03 0. -1.
        -11    1    3    3    0    0 -0.86737386980E+01 -0.10585907316E+02  0.16788963684E+02  0.21660204952E+02  0.51100000000E-03 0.  1.
        -12    1    3    3    0    0 -0.98529689518E+01 -0.43969991221E+01  0.21298921005E+02  0.23875900704E+02  0.00000000000E+00 0.  1.
</event>
<event>
 7    1  0.3086024E-009  0.4614232E+02  0.7816164E-02  0.1320468E+00
        -11   -1    0    0    0    0  0.00000000000E+00  0.00000000000E+00  0.45593999997E+02  0.45594000000E+02  0.51100000000E-03 0.  1.
         11   -1    0    0    0    0 -0.00000000000E+00 -0.00000000000E+00 -0.45593999997E+02  0.45594000000E+02  0.51100000000E-03 0. -1.
    9900012    2    1    2    0    0  0.44302492124E+02 -0.78588512953E+01  0.21543212729E+01  0.46142318163E+02  0.10000003661E+02 0.  0.
         12    1    1    2    0    0 -0.44302492124E+02  0.78588512953E+01 -0.21543212729E+01  0.45045681837E+02  0.00000000000E+00 0. -1.
         11    1    3    3    0    0  0.22479377923E+02 -0.68543068213E+01  0.73576258327E-01  0.23501263105E+02  0.51100000000E-03 0. -1.
        -11    1    3    3    0    0  0.11708374076E+02  0.20753933299E+01  0.14335732592E+00  0.11891754814E+02  0.51100000000E-03 0.  1.
        -12    1    3    3    0    0  0.10114740125E+02 -0.30799378039E+01  0.19373876887E+01  0.10749300243E+02  0.00000000000E+00 0.  1.
</event>
<event>
 7    1  0.3086024E-009  0.4614232E+02  0.7816164E-02  0.1320468E+00
        -11   -1    0    0    0    0  0.00000000000E+00  0.00000000000E+00  0.45593999997E+02  0.45594000000E+02  0.51100000000E-03 0.  1.
         11   -1    0    0    0    0 -0.00000000000E+00 -0.00000000000E+00 -0.45593999997E+02  0.45594000000E+02  0.51100000000E-03 0. -1.
    9900012    2    1    2    0    0 -0.37627391037E+02  0.37009758176E+01  0.24486643539E+02  0.46142317743E+02  0.99999998335E+01 0.  0.
         12    1    1    2    0    0  0.37627391037E+02 -0.37009758176E+01 -0.24486643539E+02  0.45045682257E+02  0.00000000000E+00 0. -1.
         11    1    3    3    0    0 -0.94834085799E+01 -0.92389861654E+00  0.66225933373E+01  0.11603765325E+02  0.51100000000E-03 0. -1.
        -11    1    3    3    0    0 -0.17850260521E+02 -0.34309366432E+00  0.13155039552E+02  0.22176667464E+02  0.51100000000E-03 0.  1.
         12    1    3    3    0    0 -0.10293721936E+02  0.49679680984E+01  0.47090106493E+01  0.12361884954E+02  0.00000000000E+00 0. -1.
</event>
<event>
 7    1  0.3086024E-009  0.4614232E+02  0.7816164E-02  0.1320468E+00
        -11   -1    0    0    0    0  0.00000000000E+00  0.00000000000E+00  0.45593999997E+02  0.45594000000E+02  0.51100000000E-03 0.  1.
         11   -1    0    0    0    0 -0.00000000000E+00 -0.00000000000E+00 -0.45593999997E+02  0.45594000000E+02  0.51100000000E-03 0. -1.
    9900012    2    1    2    0    0 -0.26520952323E+02 -0.57798721242E+01  0.35949210833E+02  0.46142316595E+02  0.99999893675E+01 0.  0.
         12    1    1    2    0    0  0.26520952323E+02  0.57798721242E+01 -0.35949210833E+02  0.45045683405E+02  0.00000000000E+00 0. -1.
         11    1    3    3    0    0 -0.66589680961E+01 -0.38405205696E+01  0.13913603452E+02  0.15895905625E+02  0.51100000000E-03 0. -1.
        -11    1    3    3    0    0 -0.16242256303E+02 -0.35638641830E+01  0.16409270496E+02  0.23361853013E+02  0.51100000000E-03 0.  1.
         12    1    3    3    0    0 -0.36197279239E+01  0.16245126284E+01  0.56263368849E+01  0.68845579571E+01  0.00000000000E+00 0. -1.
</event>
<event>
 7    1  0.3086024E-009  0.4614232E+02  0.7816164E-02  0.1320468E+00
        -11   -1    0    0    0    0  0.00000000000E+00  0.00000000000E+00  0.45593999997E+02  0.45594000000E+02  0.51100000000E-03 0.  1.
         11   -1    0    0    0    0 -0.00000000000E+00 -0.00000000000E+00 -0.45593999997E+02  0.45594000000E+02  0.51100000000E-03 0. -1.
    9900012    2    1    2    0    0  0.29120413379E+02 -0.24664117539E+02  0.23933163095E+02  0.46142318020E+02  0.10000002362E+02 0.  0.
         12    1    1    2    0    0 -0.29120413379E+02  0.24664117539E+02 -0.23933163095E+02  0.45045681980E+02  0.00000000000E+00 0. -1.
         11    1    3    3    0    0  0.45183457268E+00 -0.35647294562E+00 -0.48240547936E+00  0.75096121715E+00  0.51100000000E-03 0. -1.
        -11    1    3    3    0    0  0.95240438006E+01 -0.45383109022E+01  0.47668535778E+01  0.11576984472E+02  0.51100000000E-03 0.  1.
        -12    1    3    3    0    0  0.19144535006E+02 -0.19769333691E+02  0.19648714996E+02  0.33814372331E+02  0.00000000000E+00 0.  1.
</event>
<event>
 7    1  0.3086024E-009  0.4614232E+02  0.7816164E-02  0.1320468E+00
        -11   -1    0    0    0    0  0.00000000000E+00  0.00000000000E+00  0.45593999997E+02  0.45594000000E+02  0.51100000000E-03 0.  1.
         11   -1    0    0    0    0 -0.00000000000E+00 -0.00000000000E+00 -0.45593999997E+02  0.45594000000E+02  0.51100000000E-03 0. -1.
    9900012    2    1    2    0    0 -0.11363787745E+02 -0.31419831919E+02  0.30212115805E+02  0.46142318174E+02  0.10000003762E+02 0.  0.
         12    1    1    2    0    0  0.11363787745E+02  0.31419831919E+02 -0.30212115805E+02  0.45045681826E+02  0.00000000000E+00 0. -1.
         11    1    3    3    0    0 -0.79403566048E+00  0.40762296842E-01  0.86188374260E+00  0.11726031050E+01  0.51100000000E-03 0. -1.
        -11    1    3    3    0    0 -0.11158499534E+02 -0.25587115310E+02  0.26176216311E+02  0.38267569590E+02  0.51100000000E-03 0.  1.
        -12    1    3    3    0    0  0.58874744929E+00 -0.58734789059E+01  0.31740157522E+01  0.67021454783E+01  0.00000000000E+00 0.  1.
</event>
<event>
 7    1  0.3086024E-009  0.4614231E+02  0.7816164E-02  0.1320468E+00
        -11   -1    0    0    0    0  0.00000000000E+00  0.00000000000E+00  0.45593999997E+02  0.45594000000E+02  0.51100000000E-03 0.  1.
         11   -1    0    0    0    0 -0.00000000000E+00 -0.00000000000E+00 -0.45593999997E+02  0.45594000000E+02  0.51100000000E-03 0. -1.
    9900012    2    1    2    0    0 -0.25429910676E+02 -0.36984563623E+02  0.38178682393E+01  0.46142307406E+02  0.99999055720E+01 0.  0.
         12    1    1    2    0    0  0.25429910676E+02  0.36984563623E+02 -0.38178682393E+01  0.45045692594E+02  0.00000000000E+00 0. -1.
         11    1    3    3    0    0 -0.51186958456E+01 -0.42473938249E+01 -0.27301419524E+00  0.66570217421E+01  0.51100000000E-03 0.  1.
        -11    1    3    3    0    0 -0.28024096087E+01 -0.69903207616E+01 -0.19250962845E+01  0.77732927342E+01  0.51100000000E-03 0. -1.
         12    1    3    3    0    0 -0.17508805222E+02 -0.25746849037E+02  0.60159787191E+01  0.31711992930E+02  0.00000000000E+00 0. -1.
</event>
<event>
 7    1  0.3086024E-009  0.4614232E+02  0.7816164E-02  0.1320468E+00
        -11   -1    0    0    0    0  0.00000000000E+00  0.00000000000E+00  0.45593999997E+02  0.45594000000E+02  0.51100000000E-03 0.  1.
         11   -1    0    0    0    0 -0.00000000000E+00 -0.00000000000E+00 -0.45593999997E+02  0.45594000000E+02  0.51100000000E-03 0. -1.
    9900012    2    1    2    0    0  0.11754744876E+02 -0.40928107643E+02  0.14691131402E+02  0.46142319139E+02  0.10000012569E+02 0.  0.
         12    1    1    2    0    0 -0.11754744876E+02  0.40928107643E+02 -0.14691131402E+02  0.45045680861E+02  0.00000000000E+00 0. -1.
         11    1    3    3    0    0  0.30861724515E+01 -0.95026824050E+01  0.15637118564E+01  0.10112894161E+02  0.51100000000E-03 0. -1.
        -11    1    3    3    0    0  0.78443729360E+01 -0.17615100543E+02  0.47622093696E+01  0.19862139669E+02  0.51100000000E-03 0.  1.
        -12    1    3    3    0    0  0.82419948891E+00 -0.13810324695E+02  0.83652101757E+01  0.16167285309E+02  0.00000000000E+00 0.  1.
</event>
<event>
 7    1  0.3086024E-009  0.4614232E+02  0.7816164E-02  0.1320468E+00
        -11   -1    0    0    0    0  0.00000000000E+00  0.00000000000E+00  0.45593999997E+02  0.45594000000E+02  0.51100000000E-03 0. -1.
         11   -1    0    0    0    0 -0.00000000000E+00 -0.00000000000E+00 -0.45593999997E+02  0.45594000000E+02  0.51100000000E-03 0.  1.
    9900012    2    1    2    0    0  0.36780407988E+02 -0.52530711735E+01 -0.25469991156E+02  0.46142316322E+02  0.99999868809E+01 0.  0.
         12    1    1    2    0    0 -0.36780407988E+02  0.52530711735E+01  0.25469991156E+02  0.45045683678E+02  0.00000000000E+00 0. -1.
         11    1    3    3    0    0  0.28072088868E+02 -0.35149473609E+01 -0.15066482095E+02  0.32053017196E+02  0.51100000000E-03 0. -1.
        -11    1    3    3    0    0  0.60636611056E+01 -0.15766306399E+01 -0.48057359314E+01  0.78961286896E+01  0.51100000000E-03 0.  1.
         12    1    3    3    0    0  0.26446580141E+01 -0.16149317266E+00 -0.55977731293E+01  0.61931704371E+01  0.00000000000E+00 0. -1.
</event>
<event>
 7    1  0.3086024E-009  0.4614232E+02  0.7816164E-02  0.1320468E+00
        -11   -1    0    0    0    0  0.00000000000E+00  0.00000000000E+00  0.45593999997E+02  0.45594000000E+02  0.51100000000E-03 0.  1.
         11   -1    0    0    0    0 -0.00000000000E+00 -0.00000000000E+00 -0.45593999997E+02  0.45594000000E+02  0.51100000000E-03 0. -1.
    9900012    2    1    2    0    0 -0.43507937829E+02 -0.10953025197E+02 -0.40254305788E+01  0.46142317561E+02  0.99999981718E+01 0.  0.
         12    1    1    2    0    0  0.43507937829E+02  0.10953025197E+02  0.40254305788E+01  0.45045682439E+02  0.00000000000E+00 0. -1.
         11    1    3    3    0    0 -0.17891991985E+02 -0.31671195099E+01  0.10902106425E+01  0.18202817987E+02  0.51100000000E-03 0.  1.
        -11    1    3    3    0    0 -0.15647050935E+02 -0.24498996865E+01 -0.50794330979E+01  0.16632283436E+02  0.51100000000E-03 0. -1.
         12    1    3    3    0    0 -0.99688949088E+01 -0.53360060009E+01 -0.36208123337E-01  0.11307216137E+02  0.00000000000E+00 0. -1.
</event>
<event>
 7    1  0.3086024E-009  0.4614232E+02  0.7816164E-02  0.1320468E+00
        -11   -1    0    0    0    0  0.00000000000E+00  0.00000000000E+00  0.45593999997E+02  0.45594000000E+02  0.51100000000E-03 0.  1.
         11   -1    0    0    0    0 -0.00000000000E+00 -0.00000000000E+00 -0.45593999997E+02  0.45594000000E+02  0.51100000000E-03 0. -1.
    9900012    2    1    2    0    0  0.80902365964E+01 -0.44313085293E+02 -0.10973032668E+00  0.46142317664E+02  0.99999991136E+01 0.  0.
         12    1    1    2    0    0 -0.80902365964E+01  0.44313085293E+02  0.10973032668E+00  0.45045682336E+02  0.00000000000E+00 0. -1.
         11    1    3    3    0    0  0.27817388265E+01 -0.42795296327E+01  0.18648565450E+01  0.54341636864E+01  0.51100000000E-03 0. -1.
        -11    1    3    3    0    0  0.55828970213E+01 -0.39105232072E+02 -0.12905294196E+01  0.39522821015E+02  0.51100000000E-03 0.  1.
        -12    1    3    3    0    0 -0.27439925142E+00 -0.92832358880E+00 -0.68405745206E+00  0.11853329627E+01  0.00000000000E+00 0.  1.
</event>
<event>
 7    1  0.3086024E-009  0.4614232E+02  0.7816164E-02  0.1320468E+00
        -11   -1    0    0    0    0  0.00000000000E+00  0.00000000000E+00  0.45593999997E+02  0.45594000000E+02  0.51100000000E-03 0.  1.
         11   -1    0    0    0    0 -0.00000000000E+00 -0.00000000000E+00 -0.45593999997E+02  0.45594000000E+02  0.51100000000E-03 0. -1.
    9900012    2    1    2    0    0  0.63009794376E+01  0.19344651235E+02  0.40189495155E+02  0.46142318807E+02  0.10000009538E+02 0.  0.
         12    1    1    2    0    0 -0.63009794376E+01 -0.19344651235E+02 -0.40189495155E+02  0.45045681193E+02  0.00000000000E+00 0. -1.
         11    1    3    3    0    0  0.20495486324E+01  0.13502298977E-01  0.30475199185E+01  0.36726298239E+01  0.51100000000E-03 0. -1.
        -11    1    3    3    0    0 -0.14208334289E+01  0.43225191044E+01  0.81588999268E+01  0.93418727950E+01  0.51100000000E-03 0.  1.
        -12    1    3    3    0    0  0.56722642341E+01  0.15008629832E+02  0.28983075310E+02  0.33127816188E+02  0.00000000000E+00 0.  1.
</event>
<event>
 7    1  0.3086024E-009  0.4614232E+02  0.7816164E-02  0.1320468E+00
        -11   -1    0    0    0    0  0.00000000000E+00  0.00000000000E+00  0.45593999997E+02  0.45594000000E+02  0.51100000000E-03 0.  1.
         11   -1    0    0    0    0 -0.00000000000E+00 -0.00000000000E+00 -0.45593999997E+02  0.45594000000E+02  0.51100000000E-03 0. -1.
    9900012    2    1    2    0    0 -0.31318916601E+02  0.12197913375E+02  0.29990829377E+02  0.46142317915E+02  0.10000001404E+02 0.  0.
         12    1    1    2    0    0  0.31318916601E+02 -0.12197913375E+02 -0.29990829377E+02  0.45045682085E+02  0.00000000000E+00 0. -1.
         11    1    3    3    0    0 -0.64110116496E+01  0.55423623001E+01  0.75666036298E+01  0.11361000880E+02  0.51100000000E-03 0. -1.
        -11    1    3    3    0    0 -0.22513718637E+02  0.77228123576E+01  0.18920198936E+02  0.30405316732E+02  0.51100000000E-03 0.  1.
         12    1    3    3    0    0 -0.23941863145E+01 -0.10672612829E+01  0.35040268116E+01  0.43760003029E+01  0.00000000000E+00 0. -1.
</event>
<event>
 7    1  0.3086024E-009  0.4614232E+02  0.7816164E-02  0.1320468E+00
        -11   -1    0    0    0    0  0.00000000000E+00  0.00000000000E+00  0.45593999997E+02  0.45594000000E+02  0.51100000000E-03 0.  1.
         11   -1    0    0    0    0 -0.00000000000E+00 -0.00000000000E+00 -0.45593999997E+02  0.45594000000E+02  0.51100000000E-03 0. -1.
    9900012    2    1    2    0    0  0.27506109425E+02 -0.29039416016E+02  0.20718102278E+02  0.46142317629E+02  0.99999987962E+01 0.  0.
         12    1    1    2    0    0 -0.27506109425E+02  0.29039416016E+02 -0.20718102278E+02  0.45045682371E+02  0.00000000000E+00 0. -1.
         11    1    3    3    0    0  0.19303875165E+01 -0.61012477619E+01  0.31378605602E+01  0.71272567915E+01  0.51100000000E-03 0. -1.
        -11    1    3    3    0    0  0.19136900627E+02 -0.19470111222E+02  0.15579614139E+02  0.31432953625E+02  0.51100000000E-03 0.  1.
        -12    1    3    3    0    0  0.64388212819E+01 -0.34680570325E+01  0.20006275787E+01  0.75821072130E+01  0.00000000000E+00 0.  1.
</event>
<event>
 7    1  0.3086024E-009  0.4614232E+02  0.7816164E-02  0.1320468E+00
        -11   -1    0    0    0    0  0.00000000000E+00  0.00000000000E+00  0.45593999997E+02  0.45594000000E+02  0.51100000000E-03 0.  1.
         11   -1    0    0    0    0 -0.00000000000E+00 -0.00000000000E+00 -0.45593999997E+02  0.45594000000E+02  0.51100000000E-03 0. -1.
    9900012    2    1    2    0    0 -0.13844895716E+02  0.40771371421E+01  0.42670941544E+02  0.46142318332E+02  0.10000005205E+02 0.  0.
         12    1    1    2    0    0  0.13844895716E+02 -0.40771371421E+01 -0.42670941544E+02  0.45045681668E+02  0.00000000000E+00 0. -1.
         11    1    3    3    0    0 -0.32209980731E+01  0.57937790027E+01  0.13978470912E+02  0.15470628721E+02  0.51100000000E-03 0. -1.
        -11    1    3    3    0    0 -0.36219769950E+01 -0.64580683472E+00  0.81396282548E+01  0.89324874592E+01  0.51100000000E-03 0.  1.
         12    1    3    3    0    0 -0.70019206476E+01 -0.10708350258E+01  0.20552842377E+02  0.21739202152E+02  0.00000000000E+00 0. -1.
</event>
<event>
 7    1  0.3086024E-009  0.4614232E+02  0.7816164E-02  0.1320468E+00
        -11   -1    0    0    0    0  0.00000000000E+00  0.00000000000E+00  0.45593999997E+02  0.45594000000E+02  0.51100000000E-03 0.  1.
         11   -1    0    0    0    0 -0.00000000000E+00 -0.00000000000E+00 -0.45593999997E+02  0.45594000000E+02  0.51100000000E-03 0. -1.
    9900012    2    1    2    0    0  0.74591413400E-01 -0.18865221373E+02  0.40904905494E+02  0.46142318355E+02  0.10000005419E+02 0.  0.
         12    1    1    2    0    0 -0.74591413400E-01  0.18865221373E+02 -0.40904905494E+02  0.45045681645E+02  0.00000000000E+00 0. -1.
         11    1    3    3    0    0 -0.11355404715E+01 -0.49946783254E+01  0.49688910847E+01  0.71362555033E+01  0.51100000000E-03 0. -1.
        -11    1    3    3    0    0 -0.22406643712E+01 -0.68067976640E+01  0.19797952552E+02  0.21054975582E+02  0.51100000000E-03 0.  1.
        -12    1    3    3    0    0  0.34507962561E+01 -0.70637453835E+01  0.16138061858E+02  0.17951087270E+02  0.00000000000E+00 0.  1.
</event>
<event>
 7    1  0.3086024E-009  0.4614232E+02  0.7816164E-02  0.1320468E+00
        -11   -1    0    0    0    0  0.00000000000E+00  0.00000000000E+00  0.45593999997E+02  0.45594000000E+02  0.51100000000E-03 0. -1.
         11   -1    0    0    0    0 -0.00000000000E+00 -0.00000000000E+00 -0.45593999997E+02  0.45594000000E+02  0.51100000000E-03 0.  1.
    9900012    2    1    2    0    0  0.19766978294E+01  0.12016565386E+02 -0.43368285887E+02  0.46142318755E+02  0.10000009066E+02 0.  0.
         12    1    1    2    0    0 -0.19766978294E+01 -0.12016565386E+02  0.43368285887E+02  0.45045681245E+02  0.00000000000E+00 0. -1.
         11    1    3    3    0    0  0.29115709107E+01  0.38040050283E+01 -0.16268514457E+02  0.16959135070E+02  0.51100000000E-03 0. -1.
        -11    1    3    3    0    0 -0.14533996764E+01  0.30238041813E+01 -0.29206273710E+01  0.44481262176E+01  0.51100000000E-03 0.  1.
        -12    1    3    3    0    0  0.51852659514E+00  0.51887561768E+01 -0.24179144059E+02  0.24735057468E+02  0.00000000000E+00 0.  1.
</event>
<event>
 7    1  0.3086024E-009  0.4614232E+02  0.7816164E-02  0.1320468E+00
        -11   -1    0    0    0    0  0.00000000000E+00  0.00000000000E+00  0.45593999997E+02  0.45594000000E+02  0.51100000000E-03 0.  1.
         11   -1    0    0    0    0 -0.00000000000E+00 -0.00000000000E+00 -0.45593999997E+02  0.45594000000E+02  0.51100000000E-03 0. -1.
    9900012    2    1    2    0    0 -0.75669616197E+01 -0.10395411454E+02  0.43171633912E+02  0.46142318053E+02  0.10000002660E+02 0.  0.
         12    1    1    2    0    0  0.75669616197E+01  0.10395411454E+02 -0.43171633912E+02  0.45045681947E+02  0.00000000000E+00 0. -1.
         11    1    3    3    0    0 -0.52489449320E+01 -0.20413553861E+01  0.11608014990E+02  0.12902114826E+02  0.51100000000E-03 0. -1.
        -11    1    3    3    0    0 -0.58115370748E+00 -0.97704928095E+00  0.14793440886E+02  0.14837056934E+02  0.51100000000E-03 0.  1.
         12    1    3    3    0    0 -0.17368629801E+01 -0.73770067870E+01  0.16770178035E+02  0.18403146293E+02  0.00000000000E+00 0. -1.
</event>
<event>
 7    1  0.3086024E-009  0.4614232E+02  0.7816164E-02  0.1320468E+00
        -11   -1    0    0    0    0  0.00000000000E+00  0.00000000000E+00  0.45593999997E+02  0.45594000000E+02  0.51100000000E-03 0. -1.
         11   -1    0    0    0    0 -0.00000000000E+00 -0.00000000000E+00 -0.45593999997E+02  0.45594000000E+02  0.51100000000E-03 0.  1.
    9900012    2    1    2    0    0  0.40828200502E+02  0.18484889112E+02  0.45255246241E+01  0.46142318133E+02  0.10000003394E+02 0.  0.
         12    1    1    2    0    0 -0.40828200502E+02 -0.18484889112E+02 -0.45255246241E+01  0.45045681867E+02  0.00000000000E+00 0. -1.
         11    1    3    3    0    0  0.12829458653E+02  0.47756352897E+01  0.34186957805E+01  0.14109896628E+02  0.51100000000E-03 0. -1.
        -11    1    3    3    0    0  0.68381034659E+01  0.25724738364E+01 -0.27590597417E+01  0.78095897184E+01  0.51100000000E-03 0.  1.
        -12    1    3    3    0    0  0.21160638383E+02  0.11136779986E+02  0.38658885854E+01  0.24222831787E+02  0.00000000000E+00 0.  1.
</event>
<event>
 7    1  0.3086024E-009  0.4614232E+02  0.7816164E-02  0.1320468E+00
        -11   -1    0    0    0    0  0.00000000000E+00  0.00000000000E+00  0.45593999997E+02  0.45594000000E+02  0.51100000000E-03 0.  1.
         11   -1    0    0    0    0 -0.00000000000E+00 -0.00000000000E+00 -0.45593999997E+02  0.45594000000E+02  0.51100000000E-03 0. -1.
    9900012    2    1    2    0    0 -0.10924862393E+01  0.14656102260E+02  0.42580729163E+02  0.46142319233E+02  0.10000013426E+02 0.  0.
         12    1    1    2    0    0  0.10924862393E+01 -0.14656102260E+02 -0.42580729163E+02  0.45045680767E+02  0.00000000000E+00 0. -1.
         11    1    3    3    0    0 -0.18171894230E+01  0.24616001145E+01  0.23292480215E+01  0.38453932347E+01  0.51100000000E-03 0. -1.
        -11    1    3    3    0    0 -0.15824915439E+01  0.71441716748E+01  0.25725888571E+02  0.26746304631E+02  0.51100000000E-03 0.  1.
         12    1    3    3    0    0  0.23071947275E+01  0.50503304709E+01  0.14525592571E+02  0.15550621367E+02  0.00000000000E+00 0. -1.
</event>
<event>
 7    1  0.3086024E-009  0.4614232E+02  0.7816164E-02  0.1320468E+00
        -11   -1    0    0    0    0  0.00000000000E+00  0.00000000000E+00  0.45593999997E+02  0.45594000000E+02  0.51100000000E-03 0. -1.
         11   -1    0    0    0    0 -0.00000000000E+00 -0.00000000000E+00 -0.45593999997E+02  0.45594000000E+02  0.51100000000E-03 0.  1.
    9900012    2    1    2    0    0  0.31801722792E+02 -0.25325409745E+02 -0.19400711495E+02  0.46142316990E+02  0.99999929711E+01 0.  0.
         12    1    1    2    0    0 -0.31801722792E+02  0.25325409745E+02  0.19400711495E+02  0.45045683010E+02  0.00000000000E+00 0. -1.
         11    1    3    3    0    0  0.10143515859E+02 -0.69969871083E+01 -0.21241047023E+01  0.12504421763E+02  0.51100000000E-03 0. -1.
        -11    1    3    3    0    0  0.85710981554E+01 -0.99714662380E+01 -0.98284339092E+01  0.16416210765E+02  0.51100000000E-03 0.  1.
        -12    1    3    3    0    0  0.13087108777E+02 -0.83569563990E+01 -0.74481728839E+01  0.17221684462E+02  0.00000000000E+00 0.  1.
</event>
<event>
 7    1  0.3086024E-009  0.4614232E+02  0.7816164E-02  0.1320468E+00
        -11   -1    0    0    0    0  0.00000000000E+00  0.00000000000E+00  0.45593999997E+02  0.45594000000E+02  0.51100000000E-03 0. -1.
         11   -1    0    0    0    0 -0.00000000000E+00 -0.00000000000E+00 -0.45593999997E+02  0.45594000000E+02  0.51100000000E-03 0.  1.
    9900012    2    1    2    0    0  0.34625551773E+02 -0.37669317603E+01  0.28565624453E+02  0.46142317512E+02  0.99999977251E+01 0.  0.
         12    1    1    2    0    0 -0.34625551773E+02  0.37669317603E+01 -0.28565624453E+02  0.45045682488E+02  0.00000000000E+00 0. -1.
         11    1    3    3    0    0  0.16249029899E+00 -0.10713587472E+00  0.10084910130E+01  0.10271005683E+01  0.51100000000E-03 0. -1.
        -11    1    3    3    0    0  0.15617820825E+01 -0.70498364166E+00 -0.48853377192E+00  0.17818054651E+01  0.51100000000E-03 0.  1.
        -12    1    3    3    0    0  0.32901279391E+02 -0.29548122439E+01  0.28045667212E+02  0.43333411478E+02  0.00000000000E+00 0.  1.
</event>
<event>
 7    1  0.3086024E-009  0.4614232E+02  0.7816164E-02  0.1320468E+00
        -11   -1    0    0    0    0  0.00000000000E+00  0.00000000000E+00  0.45593999997E+02  0.45594000000E+02  0.51100000000E-03 0.  1.
         11   -1    0    0    0    0 -0.00000000000E+00 -0.00000000000E+00 -0.45593999997E+02  0.45594000000E+02  0.51100000000E-03 0. -1.
    9900012    2    1    2    0    0  0.37430576257E+02  0.66387567595E+01  0.24165933179E+02  0.46142318113E+02  0.10000003211E+02 0.  0.
         12    1    1    2    0    0 -0.37430576257E+02 -0.66387567595E+01 -0.24165933179E+02  0.45045681887E+02  0.00000000000E+00 0. -1.
         11    1    3    3    0    0  0.48323505149E+01  0.20854111037E+01  0.62965653876E+01  0.82065392774E+01  0.51100000000E-03 0. -1.
        -11    1    3    3    0    0  0.27994900101E+02  0.59689485181E+01  0.14789506447E+02  0.32219129090E+02  0.51100000000E-03 0.  1.
         12    1    3    3    0    0  0.46033256408E+01 -0.14156028623E+01  0.30798613442E+01  0.57166497459E+01  0.00000000000E+00 0. -1.
</event>
<event>
 7    1  0.3086024E-009  0.4614232E+02  0.7816164E-02  0.1320468E+00
        -11   -1    0    0    0    0  0.00000000000E+00  0.00000000000E+00  0.45593999997E+02  0.45594000000E+02  0.51100000000E-03 0.  1.
         11   -1    0    0    0    0 -0.00000000000E+00 -0.00000000000E+00 -0.45593999997E+02  0.45594000000E+02  0.51100000000E-03 0. -1.
    9900012    2    1    2    0    0 -0.11510023662E+02 -0.27367871713E+02  0.33876724243E+02  0.46142317718E+02  0.99999996083E+01 0.  0.
         12    1    1    2    0    0  0.11510023662E+02  0.27367871713E+02 -0.33876724243E+02  0.45045682282E+02  0.00000000000E+00 0. -1.
         11    1    3    3    0    0 -0.35797773500E+01 -0.21678910069E+01  0.29879482527E+01  0.51422166733E+01  0.51100000000E-03 0. -1.
        -11    1    3    3    0    0 -0.52319677185E+01 -0.19786232609E+02  0.20429822718E+02  0.28917920804E+02  0.51100000000E-03 0.  1.
         12    1    3    3    0    0 -0.26982785939E+01 -0.54137480972E+01  0.10458953272E+02  0.12082180241E+02  0.00000000000E+00 0. -1.
</event>
<event>
 7    1  0.3086024E-009  0.4614232E+02  0.7816164E-02  0.1320468E+00
        -11   -1    0    0    0    0  0.00000000000E+00  0.00000000000E+00  0.45593999997E+02  0.45594000000E+02  0.51100000000E-03 0.  1.
         11   -1    0    0    0    0 -0.00000000000E+00 -0.00000000000E+00 -0.45593999997E+02  0.45594000000E+02  0.51100000000E-03 0. -1.
    9900012    2    1    2    0    0  0.10999104428E+02 -0.23955106400E+02  0.36527879736E+02  0.46142318532E+02  0.10000007033E+02 0.  0.
         12    1    1    2    0    0 -0.10999104428E+02  0.23955106400E+02 -0.36527879736E+02  0.45045681468E+02  0.00000000000E+00 0. -1.
         11    1    3    3    0    0  0.53154578558E+01 -0.68811557779E+01  0.84536139840E+01  0.12127159053E+02  0.51100000000E-03 0. -1.
        -11    1    3    3    0    0  0.16412618103E+01 -0.11746762212E+02  0.21938614420E+02  0.24939586318E+02  0.51100000000E-03 0.  1.
        -12    1    3    3    0    0  0.40423847621E+01 -0.53271884100E+01  0.61356513322E+01  0.90755731604E+01  0.00000000000E+00 0.  1.
</event>
<event>
 7    1  0.3086024E-009  0.4614231E+02  0.7816164E-02  0.1320468E+00
        -11   -1    0    0    0    0  0.00000000000E+00  0.00000000000E+00  0.45593999997E+02  0.45594000000E+02  0.51100000000E-03 0. -1.
         11   -1    0    0    0    0 -0.00000000000E+00 -0.00000000000E+00 -0.45593999997E+02  0.45594000000E+02  0.51100000000E-03 0.  1.
    9900012    2    1    2    0    0 -0.99504749432E+01 -0.37510559662E+02 -0.22870498984E+02  0.46142314729E+02  0.99999723515E+01 0.  0.
         12    1    1    2    0    0  0.99504749432E+01  0.37510559662E+02  0.22870498984E+02  0.45045685271E+02  0.00000000000E+00 0. -1.
         11    1    3    3    0    0 -0.19838374998E+01 -0.23551133390E+01  0.23911958931E+00  0.30885835757E+01  0.51100000000E-03 0. -1.
        -11    1    3    3    0    0 -0.54931833673E+00 -0.87516716991E+01 -0.72098642190E+01  0.11352341189E+02  0.51100000000E-03 0.  1.
         12    1    3    3    0    0 -0.74173191067E+01 -0.26403774624E+02 -0.15899754354E+02  0.31701389964E+02  0.00000000000E+00 0. -1.
</event>
<event>
 7    1  0.3086024E-009  0.4614232E+02  0.7816164E-02  0.1320468E+00
        -11   -1    0    0    0    0  0.00000000000E+00  0.00000000000E+00  0.45593999997E+02  0.45594000000E+02  0.51100000000E-03 0.  1.
         11   -1    0    0    0    0 -0.00000000000E+00 -0.00000000000E+00 -0.45593999997E+02  0.45594000000E+02  0.51100000000E-03 0. -1.
    9900012    2    1    2    0    0  0.91043879550E+01 -0.42553201416E+02 -0.11638241838E+02  0.46142317589E+02  0.99999984300E+01 0.  0.
         12    1    1    2    0    0 -0.91043879550E+01  0.42553201416E+02  0.11638241838E+02  0.45045682411E+02  0.00000000000E+00 0. -1.
         11    1    3    3    0    0  0.17710274942E+01 -0.22453553367E+02 -0.90556882636E+01  0.24275586242E+02  0.51100000000E-03 0. -1.
        -11    1    3    3    0    0  0.48779010743E+01 -0.13648509966E+02 -0.34802308640E+01  0.14905963582E+02  0.51100000000E-03 0.  1.
         12    1    3    3    0    0  0.24554593865E+01 -0.64511380833E+01  0.89767728911E+00  0.69607677654E+01  0.00000000000E+00 0. -1.
</event>
<event>
 7    1  0.3086024E-009  0.4614232E+02  0.7816164E-02  0.1320468E+00
        -11   -1    0    0    0    0  0.00000000000E+00  0.00000000000E+00  0.45593999997E+02  0.45594000000E+02  0.51100000000E-03 0.  1.
         11   -1    0    0    0    0 -0.00000000000E+00 -0.00000000000E+00 -0.45593999997E+02  0.45594000000E+02  0.51100000000E-03 0. -1.
    9900012    2    1    2    0    0  0.17172590818E+02  0.40861051955E+02 -0.80367841884E+01  0.46142319382E+02  0.10000014779E+02 0.  0.
         12    1    1    2    0    0 -0.17172590818E+02 -0.40861051955E+02  0.80367841884E+01  0.45045680618E+02  0.00000000000E+00 0. -1.
         11    1    3    3    0    0  0.18382565420E+01  0.15852592159E+02 -0.35324093180E+01  0.16345084311E+02  0.51100000000E-03 0. -1.
        -11    1    3    3    0    0  0.15375301396E+02  0.24883307281E+02 -0.46309261692E+01  0.29614596937E+02  0.51100000000E-03 0.  1.
        -12    1    3    3    0    0 -0.40967120169E-01  0.12515251448E+00  0.12655129880E+00  0.18263813414E+00  0.00000000000E+00 0.  1.
</event>
<event>
 7    1  0.3086024E-009  0.4614232E+02  0.7816164E-02  0.1320468E+00
        -11   -1    0    0    0    0  0.00000000000E+00  0.00000000000E+00  0.45593999997E+02  0.45594000000E+02  0.51100000000E-03 0.  1.
         11   -1    0    0    0    0 -0.00000000000E+00 -0.00000000000E+00 -0.45593999997E+02  0.45594000000E+02  0.51100000000E-03 0. -1.
    9900012    2    1    2    0    0 -0.37301871348E+02  0.21947351514E+02  0.12489903726E+02  0.46142317192E+02  0.99999948134E+01 0.  0.
         12    1    1    2    0    0  0.37301871348E+02 -0.21947351514E+02 -0.12489903726E+02  0.45045682808E+02  0.00000000000E+00 0. -1.
         11    1    3    3    0    0 -0.27760188235E+02  0.16889527181E+02  0.12596416951E+02  0.34850450492E+02  0.51100000000E-03 0. -1.
        -11    1    3    3    0    0 -0.74924052761E+01  0.52751063701E+01  0.39255720322E+00  0.91715312492E+01  0.51100000000E-03 0.  1.
         12    1    3    3    0    0 -0.20492778366E+01 -0.21728203644E+00 -0.49907042752E+00  0.21203354514E+01  0.00000000000E+00 0. -1.
</event>
<event>
 7    1  0.3086024E-009  0.4614232E+02  0.7816164E-02  0.1320468E+00
        -11   -1    0    0    0    0  0.00000000000E+00  0.00000000000E+00  0.45593999997E+02  0.45594000000E+02  0.51100000000E-03 0.  1.
         11   -1    0    0    0    0 -0.00000000000E+00 -0.00000000000E+00 -0.45593999997E+02  0.45594000000E+02  0.51100000000E-03 0. -1.
    9900012    2    1    2    0    0 -0.35288679755E+02  0.35260255958E+01  0.27773903204E+02  0.46142317915E+02  0.10000001399E+02 0.  0.
         12    1    1    2    0    0  0.35288679755E+02 -0.35260255958E+01 -0.27773903204E+02  0.45045682085E+02  0.00000000000E+00 0. -1.
         11    1    3    3    0    0 -0.30800894556E+01 -0.13139076936E+01  0.55787406019E+01  0.65065852370E+01  0.51100000000E-03 0. -1.
        -11    1    3    3    0    0 -0.25052589485E+02  0.43908347995E+01  0.19188384324E+02  0.31860724464E+02  0.51100000000E-03 0.  1.
         12    1    3    3    0    0 -0.71560008141E+01  0.44909848991E+00  0.30067782787E+01  0.77750082137E+01  0.00000000000E+00 0. -1.
</event>
<event>
 7    1  0.3086024E-009  0.4614232E+02  0.7816164E-02  0.1320468E+00
        -11   -1    0    0    0    0  0.00000000000E+00  0.00000000000E+00  0.45593999997E+02  0.45594000000E+02  0.51100000000E-03 0.  1.
         11   -1    0    0    0    0 -0.00000000000E+00 -0.00000000000E+00 -0.45593999997E+02  0.45594000000E+02  0.51100000000E-03 0. -1.
    9900012    2    1    2    0    0 -0.18270286109E+02  0.44588223099E+01  0.40932005279E+02  0.46142317554E+02  0.99999981103E+01 0.  0.
         12    1    1    2    0    0  0.18270286109E+02 -0.44588223099E+01 -0.40932005279E+02  0.45045682446E+02  0.00000000000E+00 0. -1.
         11    1    3    3    0    0 -0.82586285517E+00 -0.34479186626E+00  0.69036241350E+01  0.69613904750E+01  0.51100000000E-03 0. -1.
        -11    1    3    3    0    0 -0.37950293013E+01  0.77815220497E+00  0.25571878463E+01  0.46418722725E+01  0.51100000000E-03 0.  1.
        -12    1    3    3    0    0 -0.13649393953E+02  0.40254619712E+01  0.31471193297E+02  0.34539054806E+02  0.00000000000E+00 0.  1.
</event>
<event>
 7    1  0.3086024E-009  0.4614232E+02  0.7816164E-02  0.1320468E+00
        -11   -1    0    0    0    0  0.00000000000E+00  0.00000000000E+00  0.45593999997E+02  0.45594000000E+02  0.51100000000E-03 0. -1.
         11   -1    0    0    0    0 -0.00000000000E+00 -0.00000000000E+00 -0.45593999997E+02  0.45594000000E+02  0.51100000000E-03 0.  1.
    9900012    2    1    2    0    0  0.15640953271E+02  0.56141628979E+01 -0.41868308707E+02  0.46142317430E+02  0.99999969772E+01 0.  0.
         12    1    1    2    0    0 -0.15640953271E+02 -0.56141628979E+01  0.41868308707E+02  0.45045682570E+02  0.00000000000E+00 0. -1.
         11    1    3    3    0    0  0.26724914361E+00  0.61794614658E+00 -0.50316623049E+00  0.84050940593E+00  0.51100000000E-03 0. -1.
        -11    1    3    3    0    0  0.53109938562E+01  0.22504397854E+01 -0.55721817522E+01  0.80199965529E+01  0.51100000000E-03 0.  1.
        -12    1    3    3    0    0  0.10062710271E+02  0.27457769660E+01 -0.35792960724E+02  0.37281811471E+02  0.00000000000E+00 0.  1.
</event>
<event>
 7    1  0.3086024E-009  0.4614232E+02  0.7816164E-02  0.1320468E+00
        -11   -1    0    0    0    0  0.00000000000E+00  0.00000000000E+00  0.45593999997E+02  0.45594000000E+02  0.51100000000E-03 0.  1.
         11   -1    0    0    0    0 -0.00000000000E+00 -0.00000000000E+00 -0.45593999997E+02  0.45594000000E+02  0.51100000000E-03 0. -1.
    9900012    2    1    2    0    0 -0.19907754742E+02 -0.65948995460E+01  0.39866051436E+02  0.46142318120E+02  0.10000003277E+02 0.  0.
         12    1    1    2    0    0  0.19907754742E+02  0.65948995460E+01 -0.39866051436E+02  0.45045681880E+02  0.00000000000E+00 0. -1.
         11    1    3    3    0    0 -0.40263412470E+01 -0.21773118905E+01  0.48640228346E+01  0.66791338737E+01  0.51100000000E-03 0. -1.
        -11    1    3    3    0    0 -0.12383181163E+02 -0.51838723039E+01  0.32294890736E+02  0.34973928514E+02  0.51100000000E-03 0.  1.
        -12    1    3    3    0    0 -0.34982323324E+01  0.76628464846E+00  0.27071378653E+01  0.44892557329E+01  0.00000000000E+00 0.  1.
</event>
<event>
 7    1  0.3086024E-009  0.4614232E+02  0.7816164E-02  0.1320468E+00
        -11   -1    0    0    0    0  0.00000000000E+00  0.00000000000E+00  0.45593999997E+02  0.45594000000E+02  0.51100000000E-03 0.  1.
         11   -1    0    0    0    0 -0.00000000000E+00 -0.00000000000E+00 -0.45593999997E+02  0.45594000000E+02  0.51100000000E-03 0. -1.
    9900012    2    1    2    0    0  0.29082910987E+02 -0.21353471575E+02  0.26969000337E+02  0.46142318310E+02  0.10000005003E+02 0.  0.
         12    1    1    2    0    0 -0.29082910987E+02  0.21353471575E+02 -0.26969000337E+02  0.45045681690E+02  0.00000000000E+00 0. -1.
         11    1    3    3    0    0  0.31621640630E+01 -0.85521748258E+00  0.40867961568E+01  0.52376122033E+01  0.51100000000E-03 0. -1.
        -11    1    3    3    0    0  0.16464120142E+02 -0.14450577315E+02  0.19087868352E+02  0.29055690583E+02  0.51100000000E-03 0.  1.
        -12    1    3    3    0    0  0.94566267821E+01 -0.60476767774E+01  0.37943358281E+01  0.11849015523E+02  0.00000000000E+00 0.  1.
</event>
<event>
 7    1  0.3086024E-009  0.4614232E+02  0.7816164E-02  0.1320468E+00
        -11   -1    0    0    0    0  0.00000000000E+00  0.00000000000E+00  0.45593999997E+02  0.45594000000E+02  0.51100000000E-03 0. -1.
         11   -1    0    0    0    0 -0.00000000000E+00 -0.00000000000E+00 -0.45593999997E+02  0.45594000000E+02  0.51100000000E-03 0.  1.
    9900012    2    1    2    0    0 -0.31744860034E+02  0.23724686792E+02  0.21412996125E+02  0.46142319796E+02  0.10000018560E+02 0.  0.
         12    1    1    2    0    0  0.31744860034E+02 -0.23724686792E+02 -0.21412996125E+02  0.45045680204E+02  0.00000000000E+00 0. -1.
         11    1    3    3    0    0 -0.91961681786E+01  0.31570101117E+01  0.34734045840E+01  0.10324764485E+02  0.51100000000E-03 0. -1.
        -11    1    3    3    0    0 -0.37882353869E+01  0.25133578044E+01  0.72278916425E+00  0.46032726659E+01  0.51100000000E-03 0.  1.
         12    1    3    3    0    0 -0.18760456468E+02  0.18054318876E+02  0.17216802376E+02  0.31214282645E+02  0.00000000000E+00 0. -1.
</event>
<event>
 7    1  0.3086024E-009  0.4614232E+02  0.7816164E-02  0.1320468E+00
        -11   -1    0    0    0    0  0.00000000000E+00  0.00000000000E+00  0.45593999997E+02  0.45594000000E+02  0.51100000000E-03 0.  1.
         11   -1    0    0    0    0 -0.00000000000E+00 -0.00000000000E+00 -0.45593999997E+02  0.45594000000E+02  0.51100000000E-03 0. -1.
    9900012    2    1    2    0    0 -0.44617278712E+01 -0.42084228455E+02 -0.15431277941E+02  0.46142316088E+02  0.99999847412E+01 0.  0.
         12    1    1    2    0    0  0.44617278712E+01  0.42084228455E+02  0.15431277941E+02  0.45045683912E+02  0.00000000000E+00 0. -1.
         11    1    3    3    0    0 -0.44837137010E+01 -0.30618940101E+02 -0.96208403589E+01  0.32406538707E+02  0.51100000000E-03 0. -1.
        -11    1    3    3    0    0 -0.15829355210E+01 -0.95861003132E+01 -0.34274472489E+01  0.10302737451E+02  0.51100000000E-03 0.  1.
         12    1    3    3    0    0  0.16049213508E+01 -0.18791880404E+01 -0.23829903335E+01  0.34330399303E+01  0.00000000000E+00 0. -1.
</event>
<event>
 7    1  0.3086024E-009  0.4614232E+02  0.7816164E-02  0.1320468E+00
        -11   -1    0    0    0    0  0.00000000000E+00  0.00000000000E+00  0.45593999997E+02  0.45594000000E+02  0.51100000000E-03 0. -1.
         11   -1    0    0    0    0 -0.00000000000E+00 -0.00000000000E+00 -0.45593999997E+02  0.45594000000E+02  0.51100000000E-03 0.  1.
    9900012    2    1    2    0    0 -0.35190181628E+02 -0.19461234544E+02  0.20298399088E+02  0.46142317204E+02  0.99999949194E+01 0.  0.
         12    1    1    2    0    0  0.35190181628E+02  0.19461234544E+02 -0.20298399088E+02  0.45045682796E+02  0.00000000000E+00 0. -1.
         11    1    3    3    0    0 -0.20238574543E+02 -0.13500569840E+02  0.14437342107E+02  0.28289611749E+02  0.51100000000E-03 0. -1.
        -11    1    3    3    0    0 -0.90780586549E+01 -0.60244527142E+01  0.46972563286E+01  0.11864627964E+02  0.51100000000E-03 0.  1.
         12    1    3    3    0    0 -0.58735484309E+01  0.63788010411E-01  0.11638006529E+01  0.59880774911E+01  0.00000000000E+00 0. -1.
</event>
<event>
 7    1 -0.1968780E-008  0.4614232E+02  0.7816164E-02  0.1320468E+00
        -11   -1    0    0    0    0  0.00000000000E+00  0.00000000000E+00  0.45593999997E+02  0.45594000000E+02  0.51100000000E-03 0. -1.
         11   -1    0    0    0    0 -0.00000000000E+00 -0.00000000000E+00 -0.45593999997E+02  0.45594000000E+02  0.51100000000E-03 0.  1.
    9900012    2    1    2    0    0 -0.14312086846E+02 -0.23226637872E+02 -0.35844120468E+02  0.46142317534E+02  0.99999979280E+01 0.  0.
         12    1    1    2    0    0  0.14312086846E+02  0.23226637872E+02  0.35844120468E+02  0.45045682466E+02  0.00000000000E+00 0. -1.
         11    1    3    3    0    0 -0.13859329545E+02 -0.15673041664E+02 -0.26083896395E+02  0.33437926100E+02  0.51100000000E-03 0. -1.
        -11    1    3    3    0    0  0.72876325750E+00 -0.63930425320E+01 -0.72107609618E+01  0.96642207451E+01  0.51100000000E-03 0.  1.
        -12    1    3    3    0    0 -0.11815205581E+01 -0.11605536765E+01 -0.25494631106E+01  0.30401706889E+01  0.00000000000E+00 0.  1.
</event>
<event>
 7    1  0.3086024E-009  0.4614232E+02  0.7816164E-02  0.1320468E+00
        -11   -1    0    0    0    0  0.00000000000E+00  0.00000000000E+00  0.45593999997E+02  0.45594000000E+02  0.51100000000E-03 0.  1.
         11   -1    0    0    0    0 -0.00000000000E+00 -0.00000000000E+00 -0.45593999997E+02  0.45594000000E+02  0.51100000000E-03 0. -1.
    9900012    2    1    2    0    0 -0.14713161286E+02 -0.32253982090E+02  0.27790591690E+02  0.46142318052E+02  0.10000002656E+02 0.  0.
         12    1    1    2    0    0  0.14713161286E+02  0.32253982090E+02 -0.27790591690E+02  0.45045681948E+02  0.00000000000E+00 0. -1.
         11    1    3    3    0    0 -0.39027916540E+01 -0.72509209734E+01  0.10500703632E+02  0.13344377643E+02  0.51100000000E-03 0. -1.
        -11    1    3    3    0    0 -0.11202179412E+02 -0.24808545955E+02  0.16329948963E+02  0.31743030879E+02  0.51100000000E-03 0.  1.
        -12    1    3    3    0    0  0.39180978008E+00 -0.19451516114E+00  0.95993909471E+00  0.10549095304E+01  0.00000000000E+00 0.  1.
</event>
<event>
 7    1  0.3086024E-009  0.4614232E+02  0.7816164E-02  0.1320468E+00
        -11   -1    0    0    0    0  0.00000000000E+00  0.00000000000E+00  0.45593999997E+02  0.45594000000E+02  0.51100000000E-03 0. -1.
         11   -1    0    0    0    0 -0.00000000000E+00 -0.00000000000E+00 -0.45593999997E+02  0.45594000000E+02  0.51100000000E-03 0.  1.
    9900012    2    1    2    0    0  0.25791369909E+02  0.36479195574E+02 -0.57608201930E+01  0.46142317401E+02  0.99999967164E+01 0.  0.
         12    1    1    2    0    0 -0.25791369909E+02 -0.36479195574E+02  0.57608201930E+01  0.45045682599E+02  0.00000000000E+00 0. -1.
         11    1    3    3    0    0  0.40485037822E+01  0.97888384187E+01 -0.34029308096E+01  0.11126170896E+02  0.51100000000E-03 0. -1.
        -11    1    3    3    0    0  0.10401832275E+02  0.14784765604E+02  0.14596819528E+01  0.18136098817E+02  0.51100000000E-03 0.  1.
        -12    1    3    3    0    0  0.11341033852E+02  0.11905591551E+02 -0.38175713362E+01  0.16880047687E+02  0.00000000000E+00 0.  1.
</event>
<event>
 7    1  0.3086024E-009  0.4614232E+02  0.7816164E-02  0.1320468E+00
        -11   -1    0    0    0    0  0.00000000000E+00  0.00000000000E+00  0.45593999997E+02  0.45594000000E+02  0.51100000000E-03 0.  1.
         11   -1    0    0    0    0 -0.00000000000E+00 -0.00000000000E+00 -0.45593999997E+02  0.45594000000E+02  0.51100000000E-03 0. -1.
    9900012    2    1    2    0    0  0.15366419590E+01  0.15679842615E+02  0.42200650708E+02  0.46142315932E+02  0.99999833231E+01 0.  0.
         12    1    1    2    0    0 -0.15366419590E+01 -0.15679842615E+02 -0.42200650708E+02  0.45045684068E+02  0.00000000000E+00 0. -1.
         11    1    3    3    0    0  0.21780111334E+01  0.17290438824E+01  0.73848460726E+01  0.78910884560E+01  0.51100000000E-03 0. -1.
        -11    1    3    3    0    0 -0.14422366290E+01  0.14635443727E+02  0.31334478085E+02  0.34613953497E+02  0.51100000000E-03 0.  1.
        -12    1    3    3    0    0  0.80086745455E+00 -0.68464499425E+00  0.34813265506E+01  0.36372739792E+01  0.00000000000E+00 0.  1.
</event>
<event>
 7    1  0.3086024E-009  0.4614232E+02  0.7816164E-02  0.1320468E+00
        -11   -1    0    0    0    0  0.00000000000E+00  0.00000000000E+00  0.45593999997E+02  0.45594000000E+02  0.51100000000E-03 0. -1.
         11   -1    0    0    0    0 -0.00000000000E+00 -0.00000000000E+00 -0.45593999997E+02  0.45594000000E+02  0.51100000000E-03 0.  1.
    9900012    2    1    2    0    0  0.27519430737E+02 -0.22428661676E+02 -0.27726333193E+02  0.46142317799E+02  0.10000000344E+02 0.  0.
         12    1    1    2    0    0 -0.27519430737E+02  0.22428661676E+02  0.27726333193E+02  0.45045682201E+02  0.00000000000E+00 0. -1.
         11    1    3    3    0    0  0.11666598393E+02 -0.11319603845E+02 -0.79025228903E+01  0.18074645710E+02  0.51100000000E-03 0. -1.
        -11    1    3    3    0    0  0.10682229655E+02 -0.51055298774E+01 -0.13281013661E+02  0.17792183391E+02  0.51100000000E-03 0.  1.
        -12    1    3    3    0    0  0.51706026890E+01 -0.60035279541E+01 -0.65427966422E+01  0.10275488697E+02  0.00000000000E+00 0.  1.
</event>
<event>
 7    1  0.3086024E-009  0.4614232E+02  0.7816164E-02  0.1320468E+00
        -11   -1    0    0    0    0  0.00000000000E+00  0.00000000000E+00  0.45593999997E+02  0.45594000000E+02  0.51100000000E-03 0.  1.
         11   -1    0    0    0    0 -0.00000000000E+00 -0.00000000000E+00 -0.45593999997E+02  0.45594000000E+02  0.51100000000E-03 0. -1.
    9900012    2    1    2    0    0 -0.48452127996E+01  0.86513105638E+01  0.43940781018E+02  0.46142317654E+02  0.99999990264E+01 0.  0.
         12    1    1    2    0    0  0.48452127996E+01 -0.86513105638E+01 -0.43940781018E+02  0.45045682346E+02  0.00000000000E+00 0. -1.
         11    1    3    3    0    0  0.14840348611E+01  0.36049259097E+01  0.13365694155E+02  0.13922630168E+02  0.51100000000E-03 0. -1.
        -11    1    3    3    0    0 -0.46517377134E+01  0.90682974479E-01  0.18174514455E+02  0.18760593357E+02  0.51100000000E-03 0.  1.
        -12    1    3    3    0    0 -0.16775099473E+01  0.49557016796E+01  0.12400572408E+02  0.13459094130E+02  0.00000000000E+00 0.  1.
</event>
<event>
 7    1  0.3086024E-009  0.4614232E+02  0.7816164E-02  0.1320468E+00
        -11   -1    0    0    0    0  0.00000000000E+00  0.00000000000E+00  0.45593999997E+02  0.45594000000E+02  0.51100000000E-03 0.  1.
         11   -1    0    0    0    0 -0.00000000000E+00 -0.00000000000E+00 -0.45593999997E+02  0.45594000000E+02  0.51100000000E-03 0. -1.
    9900012    2    1    2    0    0 -0.23842909391E+02  0.16181739663E+02  0.34623408956E+02  0.46142317916E+02  0.10000001408E+02 0.  0.
         12    1    1    2    0    0  0.23842909391E+02 -0.16181739663E+02 -0.34623408956E+02  0.45045682084E+02  0.00000000000E+00 0. -1.
         11    1    3    3    0    0 -0.75188987338E+01  0.86338308552E+01  0.10946471730E+02  0.15839890056E+02  0.51100000000E-03 0. -1.
        -11    1    3    3    0    0 -0.95170258033E+01  0.16033258179E+01  0.14536413359E+02  0.17448545711E+02  0.51100000000E-03 0.  1.
        -12    1    3    3    0    0 -0.68069848534E+01  0.59445829899E+01  0.91405238672E+01  0.12853882148E+02  0.00000000000E+00 0.  1.
</event>
<event>
 7    1  0.3086024E-009  0.4614232E+02  0.7816164E-02  0.1320468E+00
        -11   -1    0    0    0    0  0.00000000000E+00  0.00000000000E+00  0.45593999997E+02  0.45594000000E+02  0.51100000000E-03 0.  1.
         11   -1    0    0    0    0 -0.00000000000E+00 -0.00000000000E+00 -0.45593999997E+02  0.45594000000E+02  0.51100000000E-03 0. -1.
    9900012    2    1    2    0    0  0.34337425287E+02 -0.10096138186E+02  0.27351831924E+02  0.46142317729E+02  0.99999997082E+01 0.  0.
         12    1    1    2    0    0 -0.34337425287E+02  0.10096138186E+02 -0.27351831924E+02  0.45045682271E+02  0.00000000000E+00 0. -1.
         11    1    3    3    0    0  0.10886757446E+00 -0.24107325880E+00  0.25872388769E+00  0.37000915672E+00  0.51100000000E-03 0. -1.
        -11    1    3    3    0    0  0.52002867354E+01 -0.51742462978E+01  0.71486436608E+01  0.10242993377E+02  0.51100000000E-03 0.  1.
        -12    1    3    3    0    0  0.29028270978E+02 -0.46808186297E+01  0.19944464376E+02  0.35529315195E+02  0.00000000000E+00 0.  1.
</event>
<event>
 7    1  0.3086024E-009  0.4614232E+02  0.7816164E-02  0.1320468E+00
        -11   -1    0    0    0    0  0.00000000000E+00  0.00000000000E+00  0.45593999997E+02  0.45594000000E+02  0.51100000000E-03 0.  1.
         11   -1    0    0    0    0 -0.00000000000E+00 -0.00000000000E+00 -0.45593999997E+02  0.45594000000E+02  0.51100000000E-03 0. -1.
    9900012    2    1    2    0    0  0.15211549649E+02 -0.29230556457E+02  0.30713136934E+02  0.46142318144E+02  0.10000003491E+02 0.  0.
         12    1    1    2    0    0 -0.15211549649E+02  0.29230556457E+02 -0.30713136934E+02  0.45045681856E+02  0.00000000000E+00 0. -1.
         11    1    3    3    0    0  0.13094937965E+00 -0.79454277858E+01  0.79862084960E+01  0.11266166022E+02  0.51100000000E-03 0. -1.
        -11    1    3    3    0    0  0.12274494941E+02 -0.14623198000E+02  0.14868828863E+02  0.24198826786E+02  0.51100000000E-03 0.  1.
        -12    1    3    3    0    0  0.28061053282E+01 -0.66619306718E+01  0.78580995749E+01  0.10677325335E+02  0.00000000000E+00 0.  1.
</event>
<event>
 7    1  0.3086024E-009  0.4614232E+02  0.7816164E-02  0.1320468E+00
        -11   -1    0    0    0    0  0.00000000000E+00  0.00000000000E+00  0.45593999997E+02  0.45594000000E+02  0.51100000000E-03 0.  1.
         11   -1    0    0    0    0 -0.00000000000E+00 -0.00000000000E+00 -0.45593999997E+02  0.45594000000E+02  0.51100000000E-03 0. -1.
    9900012    2    1    2    0    0  0.47029957839E+00  0.13203482480E+02  0.43064606529E+02  0.46142318001E+02  0.10000002183E+02 0.  0.
         12    1    1    2    0    0 -0.47029957839E+00 -0.13203482480E+02 -0.43064606529E+02  0.45045681999E+02  0.00000000000E+00 0. -1.
         11    1    3    3    0    0 -0.15017940281E+01 -0.25147927428E+00  0.54922361427E+01  0.56994109552E+01  0.51100000000E-03 0. -1.
        -11    1    3    3    0    0  0.38359181520E+00  0.49696363552E+01  0.22752099291E+02  0.23291682004E+02  0.51100000000E-03 0.  1.
        -12    1    3    3    0    0  0.15885017913E+01  0.84853253988E+01  0.14820271096E+02  0.17151225041E+02  0.00000000000E+00 0.  1.
</event>
<event>
 7    1  0.3086024E-009  0.4614231E+02  0.7816164E-02  0.1320468E+00
        -11   -1    0    0    0    0  0.00000000000E+00  0.00000000000E+00  0.45593999997E+02  0.45594000000E+02  0.51100000000E-03 0.  1.
         11   -1    0    0    0    0 -0.00000000000E+00 -0.00000000000E+00 -0.45593999997E+02  0.45594000000E+02  0.51100000000E-03 0. -1.
    9900012    2    1    2    0    0  0.35840373666E+02 -0.24872152297E+01  0.27173440021E+02  0.46142306902E+02  0.99999009801E+01 0.  0.
         12    1    1    2    0    0 -0.35840373666E+02  0.24872152297E+01 -0.27173440021E+02  0.45045693098E+02  0.00000000000E+00 0. -1.
         11    1    3    3    0    0  0.27355262961E+02 -0.25073105491E+01  0.20680942523E+02  0.34384566331E+02  0.51100000000E-03 0.  1.
        -11    1    3    3    0    0  0.87621363041E+00  0.86388361234E+00 -0.55719947364E+00  0.13507467329E+01  0.51100000000E-03 0. -1.
        -12    1    3    3    0    0  0.76088970743E+01 -0.84378829293E+00  0.70496969713E+01  0.10406993839E+02  0.00000000000E+00 0.  1.
</event>
<event>
 7    1  0.3086024E-009  0.4614232E+02  0.7816164E-02  0.1320468E+00
        -11   -1    0    0    0    0  0.00000000000E+00  0.00000000000E+00  0.45593999997E+02  0.45594000000E+02  0.51100000000E-03 0.  1.
         11   -1    0    0    0    0 -0.00000000000E+00 -0.00000000000E+00 -0.45593999997E+02  0.45594000000E+02  0.51100000000E-03 0. -1.
    9900012    2    1    2    0    0 -0.29180532475E+02 -0.26549844305E+02  0.21742025137E+02  0.46142319129E+02  0.10000012472E+02 0.  0.
         12    1    1    2    0    0  0.29180532475E+02  0.26549844305E+02 -0.21742025137E+02  0.45045680871E+02  0.00000000000E+00 0. -1.
         11    1    3    3    0    0 -0.14228974701E+02 -0.14992883491E+02  0.97416762233E+01  0.22850613391E+02  0.51100000000E-03 0.  1.
        -11    1    3    3    0    0 -0.10836183854E+02 -0.66323537979E+01  0.46381382611E+01  0.13524914943E+02  0.51100000000E-03 0. -1.
         12    1    3    3    0    0 -0.41153739192E+01 -0.49246070155E+01  0.73622106521E+01  0.97667907952E+01  0.00000000000E+00 0. -1.
</event>
<event>
 7    1  0.3086024E-009  0.4614232E+02  0.7816164E-02  0.1320468E+00
        -11   -1    0    0    0    0  0.00000000000E+00  0.00000000000E+00  0.45593999997E+02  0.45594000000E+02  0.51100000000E-03 0. -1.
         11   -1    0    0    0    0 -0.00000000000E+00 -0.00000000000E+00 -0.45593999997E+02  0.45594000000E+02  0.51100000000E-03 0.  1.
    9900012    2    1    2    0    0 -0.53913897808E+01  0.41564881403E+02  0.16504757881E+02  0.46142317826E+02  0.10000000589E+02 0.  0.
         12    1    1    2    0    0  0.53913897808E+01 -0.41564881403E+02 -0.16504757881E+02  0.45045682174E+02  0.00000000000E+00 0. -1.
         11    1    3    3    0    0  0.10800800494E+01  0.72063096831E+01  0.21829548306E+01  0.76067577991E+01  0.51100000000E-03 0. -1.
        -11    1    3    3    0    0 -0.55103086091E+01  0.19845920673E+02  0.11910694357E+02  0.23792618785E+02  0.51100000000E-03 0.  1.
        -12    1    3    3    0    0 -0.96116122104E+00  0.14512651048E+02  0.24111086928E+01  0.14742941242E+02  0.00000000000E+00 0.  1.
</event>
<event>
 7    1  0.3086024E-009  0.4614232E+02  0.7816164E-02  0.1320468E+00
        -11   -1    0    0    0    0  0.00000000000E+00  0.00000000000E+00  0.45593999997E+02  0.45594000000E+02  0.51100000000E-03 0.  1.
         11   -1    0    0    0    0 -0.00000000000E+00 -0.00000000000E+00 -0.45593999997E+02  0.45594000000E+02  0.51100000000E-03 0. -1.
    9900012    2    1    2    0    0  0.11909047691E+02  0.27390057225E+01  0.43356499155E+02  0.46142316653E+02  0.99999898929E+01 0.  0.
         12    1    1    2    0    0 -0.11909047691E+02 -0.27390057225E+01 -0.43356499155E+02  0.45045683347E+02  0.00000000000E+00 0. -1.
         11    1    3    3    0    0  0.84479814138E+00  0.15766526093E+01  0.79181882076E+01  0.81177103978E+01  0.51100000000E-03 0. -1.
        -11    1    3    3    0    0  0.10868107548E+01 -0.27103641617E+01  0.10223931300E+02  0.10632779646E+02  0.51100000000E-03 0.  1.
        -12    1    3    3    0    0  0.99774387944E+01  0.38727172749E+01  0.25214379647E+02  0.27391826609E+02  0.00000000000E+00 0.  1.
</event>
<event>
 7    1  0.3086024E-009  0.4614232E+02  0.7816164E-02  0.1320468E+00
        -11   -1    0    0    0    0  0.00000000000E+00  0.00000000000E+00  0.45593999997E+02  0.45594000000E+02  0.51100000000E-03 0. -1.
         11   -1    0    0    0    0 -0.00000000000E+00 -0.00000000000E+00 -0.45593999997E+02  0.45594000000E+02  0.51100000000E-03 0.  1.
    9900012    2    1    2    0    0  0.24858608527E+02  0.25407987862E+02 -0.27669427893E+02  0.46142317576E+02  0.99999983125E+01 0.  0.
         12    1    1    2    0    0 -0.24858608527E+02 -0.25407987862E+02  0.27669427893E+02  0.45045682424E+02  0.00000000000E+00 0. -1.
         11    1    3    3    0    0  0.63380118480E+01  0.23369159293E+01 -0.43650731743E+01  0.80427255532E+01  0.51100000000E-03 0. -1.
        -11    1    3    3    0    0  0.13751633771E+02  0.18991262845E+02 -0.15600531976E+02  0.28162956060E+02  0.51100000000E-03 0.  1.
        -12    1    3    3    0    0  0.47689629076E+01  0.40798090881E+01 -0.77038227432E+01  0.99366359634E+01  0.00000000000E+00 0.  1.
</event>
<event>
 7    1  0.3086024E-009  0.4614232E+02  0.7816164E-02  0.1320468E+00
        -11   -1    0    0    0    0  0.00000000000E+00  0.00000000000E+00  0.45593999997E+02  0.45594000000E+02  0.51100000000E-03 0. -1.
         11   -1    0    0    0    0 -0.00000000000E+00 -0.00000000000E+00 -0.45593999997E+02  0.45594000000E+02  0.51100000000E-03 0.  1.
    9900012    2    1    2    0    0 -0.14239595018E+02  0.36258443349E+02 -0.22620183709E+02  0.46142317727E+02  0.99999996932E+01 0.  0.
         12    1    1    2    0    0  0.14239595018E+02 -0.36258443349E+02  0.22620183709E+02  0.45045682273E+02  0.00000000000E+00 0. -1.
         11    1    3    3    0    0  0.13052639157E+00  0.22506740311E+01 -0.21963582585E+01  0.31474689187E+01  0.51100000000E-03 0. -1.
        -11    1    3    3    0    0 -0.94869215246E+01  0.23609029295E+02 -0.95514887297E+01  0.27177543699E+02  0.51100000000E-03 0.  1.
        -12    1    3    3    0    0 -0.48831998848E+01  0.10398740023E+02 -0.10872336721E+02  0.15817305110E+02  0.00000000000E+00 0.  1.
</event>
<event>
 7    1  0.3086024E-009  0.4614232E+02  0.7816164E-02  0.1320468E+00
        -11   -1    0    0    0    0  0.00000000000E+00  0.00000000000E+00  0.45593999997E+02  0.45594000000E+02  0.51100000000E-03 0.  1.
         11   -1    0    0    0    0 -0.00000000000E+00 -0.00000000000E+00 -0.45593999997E+02  0.45594000000E+02  0.51100000000E-03 0. -1.
    9900012    2    1    2    0    0  0.20361999939E+01  0.44750067351E+02  0.47327546110E+01  0.46142316471E+02  0.99999882390E+01 0.  0.
         12    1    1    2    0    0 -0.20361999939E+01 -0.44750067351E+02 -0.47327546110E+01  0.45045683529E+02  0.00000000000E+00 0. -1.
         11    1    3    3    0    0 -0.68765990092E+00  0.31359381819E+02  0.88910634877E+00  0.31379519030E+02  0.51100000000E-03 0. -1.
        -11    1    3    3    0    0  0.17613097254E+01  0.91823137200E+01  0.61115900276E+00  0.93696644972E+01  0.51100000000E-03 0.  1.
         12    1    3    3    0    0  0.96255016939E+00  0.42083718121E+01  0.32324892594E+01  0.53931329438E+01  0.00000000000E+00 0. -1.
</event>
<event>
 7    1  0.3086024E-009  0.4614232E+02  0.7816164E-02  0.1320468E+00
        -11   -1    0    0    0    0  0.00000000000E+00  0.00000000000E+00  0.45593999997E+02  0.45594000000E+02  0.51100000000E-03 0.  1.
         11   -1    0    0    0    0 -0.00000000000E+00 -0.00000000000E+00 -0.45593999997E+02  0.45594000000E+02  0.51100000000E-03 0. -1.
    9900012    2    1    2    0    0 -0.12604869062E+02 -0.35371743887E+02  0.24881127467E+02  0.46142317702E+02  0.99999994564E+01 0.  0.
         12    1    1    2    0    0  0.12604869062E+02  0.35371743887E+02 -0.24881127467E+02  0.45045682298E+02  0.00000000000E+00 0. -1.
         11    1    3    3    0    0  0.63265462346E+00 -0.54578942831E+00  0.11541248311E+01  0.14248306424E+01  0.51100000000E-03 0. -1.
        -11    1    3    3    0    0 -0.45144394921E+01 -0.85848362961E+01  0.29801164727E+01  0.10146953859E+02  0.51100000000E-03 0.  1.
        -12    1    3    3    0    0 -0.87230841934E+01 -0.26241118163E+02  0.20746886163E+02  0.34570533200E+02  0.00000000000E+00 0.  1.
</event>
<event>
 7    1  0.3086024E-009  0.4614232E+02  0.7816164E-02  0.1320468E+00
        -11   -1    0    0    0    0  0.00000000000E+00  0.00000000000E+00  0.45593999997E+02  0.45594000000E+02  0.51100000000E-03 0. -1.
         11   -1    0    0    0    0 -0.00000000000E+00 -0.00000000000E+00 -0.45593999997E+02  0.45594000000E+02  0.51100000000E-03 0.  1.
    9900012    2    1    2    0    0 -0.21122370595E+02 -0.37958483025E+02 -0.11921096687E+02  0.46142317418E+02  0.99999968674E+01 0.  0.
         12    1    1    2    0    0  0.21122370595E+02  0.37958483025E+02  0.11921096687E+02  0.45045682582E+02  0.00000000000E+00 0. -1.
         11    1    3    3    0    0 -0.36583845466E+01 -0.12589213395E+02 -0.34031915442E+01  0.13544511226E+02  0.51100000000E-03 0. -1.
        -11    1    3    3    0    0 -0.13978171958E+02 -0.22067879707E+02 -0.93099647961E+01  0.27731859851E+02  0.51100000000E-03 0.  1.
         12    1    3    3    0    0 -0.34858140905E+01 -0.33013899232E+01  0.79205965317E+00  0.48659463409E+01  0.00000000000E+00 0. -1.
</event>
<event>
 7    1  0.3086024E-009  0.4614232E+02  0.7816164E-02  0.1320468E+00
        -11   -1    0    0    0    0  0.00000000000E+00  0.00000000000E+00  0.45593999997E+02  0.45594000000E+02  0.51100000000E-03 0. -1.
         11   -1    0    0    0    0 -0.00000000000E+00 -0.00000000000E+00 -0.45593999997E+02  0.45594000000E+02  0.51100000000E-03 0.  1.
    9900012    2    1    2    0    0  0.26088812023E+02  0.36632886501E+02 -0.25532049603E+01  0.46142319389E+02  0.10000014845E+02 0.  0.
         12    1    1    2    0    0 -0.26088812023E+02 -0.36632886501E+02  0.25532049603E+01  0.45045680611E+02  0.00000000000E+00 0. -1.
         11    1    3    3    0    0  0.50686482354E+01  0.96077477733E+01 -0.31198458791E+01  0.11301922437E+02  0.51100000000E-03 0. -1.
        -11    1    3    3    0    0  0.21127684897E+02  0.25574307057E+02  0.13263897209E+01  0.33199149997E+02  0.51100000000E-03 0.  1.
        -12    1    3    3    0    0 -0.10752110954E+00  0.14508316703E+01 -0.75974880209E+00  0.16412469549E+01  0.00000000000E+00 0.  1.
</event>
<event>
 7    1  0.3086024E-009  0.4614232E+02  0.7816164E-02  0.1320468E+00
        -11   -1    0    0    0    0  0.00000000000E+00  0.00000000000E+00  0.45593999997E+02  0.45594000000E+02  0.51100000000E-03 0.  1.
         11   -1    0    0    0    0 -0.00000000000E+00 -0.00000000000E+00 -0.45593999997E+02  0.45594000000E+02  0.51100000000E-03 0. -1.
    9900012    2    1    2    0    0  0.15703191830E+02 -0.80470963651E+01  0.41445960131E+02  0.46142316469E+02  0.99999882159E+01 0.  0.
         12    1    1    2    0    0 -0.15703191830E+02  0.80470963651E+01 -0.41445960131E+02  0.45045683531E+02  0.00000000000E+00 0. -1.
         11    1    3    3    0    0  0.83886665664E+00 -0.27480024926E+01  0.43544335439E+01  0.52169250249E+01  0.51100000000E-03 0. -1.
        -11    1    3    3    0    0  0.70731457659E+01 -0.24678083477E+01  0.94015147314E+01  0.12021145893E+02  0.51100000000E-03 0.  1.
        -12    1    3    3    0    0  0.77911794080E+01 -0.28312855248E+01  0.27690011856E+02  0.28904245551E+02  0.00000000000E+00 0.  1.
</event>
<event>
 7    1  0.3086024E-009  0.4614232E+02  0.7816164E-02  0.1320468E+00
        -11   -1    0    0    0    0  0.00000000000E+00  0.00000000000E+00  0.45593999997E+02  0.45594000000E+02  0.51100000000E-03 0.  1.
         11   -1    0    0    0    0 -0.00000000000E+00 -0.00000000000E+00 -0.45593999997E+02  0.45594000000E+02  0.51100000000E-03 0. -1.
    9900012    2    1    2    0    0  0.27146047463E+02 -0.34441834645E+01  0.35781883313E+02  0.46142318009E+02  0.10000002260E+02 0.  0.
         12    1    1    2    0    0 -0.27146047463E+02  0.34441834645E+01 -0.35781883313E+02  0.45045681991E+02  0.00000000000E+00 0. -1.
         11    1    3    3    0    0  0.88693885229E+01 -0.21222509249E+01  0.69985465336E+01  0.11495636372E+02  0.51100000000E-03 0. -1.
        -11    1    3    3    0    0  0.15939745389E+02 -0.21611356935E+01  0.20849663519E+02  0.26333523495E+02  0.51100000000E-03 0.  1.
        -12    1    3    3    0    0  0.23369135508E+01  0.83920315392E+00  0.79336732606E+01  0.83131581414E+01  0.00000000000E+00 0.  1.
</event>
<event>
 7    1  0.3086024E-009  0.4614232E+02  0.7816164E-02  0.1320468E+00
        -11   -1    0    0    0    0  0.00000000000E+00  0.00000000000E+00  0.45593999997E+02  0.45594000000E+02  0.51100000000E-03 0. -1.
         11   -1    0    0    0    0 -0.00000000000E+00 -0.00000000000E+00 -0.45593999997E+02  0.45594000000E+02  0.51100000000E-03 0.  1.
    9900012    2    1    2    0    0 -0.34491025495E+02 -0.25500094322E+02 -0.13756009387E+02  0.46142318249E+02  0.10000004453E+02 0.  0.
         12    1    1    2    0    0  0.34491025495E+02  0.25500094322E+02  0.13756009387E+02  0.45045681751E+02  0.00000000000E+00 0. -1.
         11    1    3    3    0    0 -0.29211168745E+02 -0.20562082564E+02 -0.88485459686E+01  0.36802016043E+02  0.51100000000E-03 0.  1.
        -11    1    3    3    0    0 -0.11474625140E+01  0.30484882879E+00 -0.12677672215E+01  0.17369044357E+01  0.51100000000E-03 0. -1.
         12    1    3    3    0    0 -0.41323942356E+01 -0.52428605864E+01 -0.36396961972E+01  0.76033977704E+01  0.00000000000E+00 0. -1.
</event>
<event>
 7    1  0.3086024E-009  0.4614232E+02  0.7816164E-02  0.1320468E+00
        -11   -1    0    0    0    0  0.00000000000E+00  0.00000000000E+00  0.45593999997E+02  0.45594000000E+02  0.51100000000E-03 0.  1.
         11   -1    0    0    0    0 -0.00000000000E+00 -0.00000000000E+00 -0.45593999997E+02  0.45594000000E+02  0.51100000000E-03 0. -1.
    9900012    2    1    2    0    0 -0.30300503525E+02  0.25416123335E+02  0.21564176620E+02  0.46142317049E+02  0.99999935027E+01 0.  0.
         12    1    1    2    0    0  0.30300503525E+02 -0.25416123335E+02 -0.21564176620E+02  0.45045682951E+02  0.00000000000E+00 0. -1.
         11    1    3    3    0    0 -0.68661542086E+01  0.24192972353E+01  0.30143761967E+01  0.78793106834E+01  0.51100000000E-03 0. -1.
        -11    1    3    3    0    0 -0.11291960357E+02  0.15460296417E+02  0.11416813567E+02  0.22290643021E+02  0.51100000000E-03 0.  1.
         12    1    3    3    0    0 -0.12142388959E+02  0.75365296829E+01  0.71329868564E+01  0.15972363344E+02  0.00000000000E+00 0. -1.
</event>
<event>
 7    1  0.3086024E-009  0.4614232E+02  0.7816164E-02  0.1320468E+00
        -11   -1    0    0    0    0  0.00000000000E+00  0.00000000000E+00  0.45593999997E+02  0.45594000000E+02  0.51100000000E-03 0.  1.
         11   -1    0    0    0    0 -0.00000000000E+00 -0.00000000000E+00 -0.45593999997E+02  0.45594000000E+02  0.51100000000E-03 0. -1.
    9900012    2    1    2    0    0 -0.18834766537E+02  0.15867779041E+02  0.37717086849E+02  0.46142317826E+02  0.10000000590E+02 0.  0.
         12    1    1    2    0    0  0.18834766537E+02 -0.15867779041E+02 -0.37717086849E+02  0.45045682174E+02  0.00000000000E+00 0. -1.
         11    1    3    3    0    0 -0.12349184566E+01 -0.54258246213E+00  0.38478442021E+01  0.40774164109E+01  0.51100000000E-03 0. -1.
        -11    1    3    3    0    0 -0.16944926572E+02  0.14543289062E+02  0.33129586708E+02  0.39952563234E+02  0.51100000000E-03 0.  1.
         12    1    3    3    0    0 -0.65492150841E+00  0.18670724413E+01  0.73965593830E+00  0.21123381808E+01  0.00000000000E+00 0. -1.
</event>
<event>
 7    1  0.3086024E-009  0.4614232E+02  0.7816164E-02  0.1320468E+00
        -11   -1    0    0    0    0  0.00000000000E+00  0.00000000000E+00  0.45593999997E+02  0.45594000000E+02  0.51100000000E-03 0. -1.
         11   -1    0    0    0    0 -0.00000000000E+00 -0.00000000000E+00 -0.45593999997E+02  0.45594000000E+02  0.51100000000E-03 0.  1.
    9900012    2    1    2    0    0 -0.35262488280E+02 -0.28013007380E+02 -0.97041135770E+00  0.46142319181E+02  0.10000012952E+02 0.  0.
         12    1    1    2    0    0  0.35262488280E+02  0.28013007380E+02  0.97041135770E+00  0.45045680819E+02  0.00000000000E+00 0. -1.
         11    1    3    3    0    0 -0.30974872188E+01 -0.14333689565E+01  0.34684726642E+00  0.34306379761E+01  0.51100000000E-03 0. -1.
        -11    1    3    3    0    0 -0.30058419915E+02 -0.21862266854E+02  0.67573020845E+00  0.37174237469E+02  0.51100000000E-03 0.  1.
        -12    1    3    3    0    0 -0.21065811466E+01 -0.47173715695E+01 -0.19929888326E+01  0.55374437368E+01  0.00000000000E+00 0.  1.
</event>
<event>
 7    1  0.3086024E-009  0.4614232E+02  0.7816164E-02  0.1320468E+00
        -11   -1    0    0    0    0  0.00000000000E+00  0.00000000000E+00  0.45593999997E+02  0.45594000000E+02  0.51100000000E-03 0.  1.
         11   -1    0    0    0    0 -0.00000000000E+00 -0.00000000000E+00 -0.45593999997E+02  0.45594000000E+02  0.51100000000E-03 0. -1.
    9900012    2    1    2    0    0  0.29471064802E+02 -0.13354750768E+02  0.31340397733E+02  0.46142316980E+02  0.99999928818E+01 0.  0.
         12    1    1    2    0    0 -0.29471064802E+02  0.13354750768E+02 -0.31340397733E+02  0.45045683020E+02  0.00000000000E+00 0. -1.
         11    1    3    3    0    0  0.51037188343E+01 -0.11979674919E+01  0.10449764764E+02  0.11691050250E+02  0.51100000000E-03 0. -1.
        -11    1    3    3    0    0  0.19001859756E+02 -0.86170982873E+01  0.17193803139E+02  0.27036122572E+02  0.51100000000E-03 0.  1.
         12    1    3    3    0    0  0.53654862120E+01 -0.35396849885E+01  0.36968298296E+01  0.74151441590E+01  0.00000000000E+00 0. -1.
</event>
<event>
 7    1  0.3086024E-009  0.4614233E+02  0.7816164E-02  0.1320468E+00
        -11   -1    0    0    0    0  0.00000000000E+00  0.00000000000E+00  0.45593999997E+02  0.45594000000E+02  0.51100000000E-03 0. -1.
         11   -1    0    0    0    0 -0.00000000000E+00 -0.00000000000E+00 -0.45593999997E+02  0.45594000000E+02  0.51100000000E-03 0.  1.
    9900012    2    1    2    0    0  0.19162541908E+02 -0.40765400381E+02  0.30271967279E+00  0.46142328512E+02  0.10000098039E+02 0.  0.
         12    1    1    2    0    0 -0.19162541908E+02  0.40765400381E+02 -0.30271967279E+00  0.45045671488E+02  0.00000000000E+00 0. -1.
         11    1    3    3    0    0  0.35128455548E+01 -0.11455425861E+02  0.29036208140E+01  0.12328742014E+02  0.51100000000E-03 0. -1.
        -11    1    3    3    0    0  0.69165691304E+01 -0.79471201106E+01 -0.20197067024E+01  0.10727295186E+02  0.51100000000E-03 0.  1.
         12    1    3    3    0    0  0.87331272223E+01 -0.21362854409E+02 -0.58119443883E+00  0.23086291312E+02  0.00000000000E+00 0. -1.
</event>
<event>
 7    1  0.3086024E-009  0.4614232E+02  0.7816164E-02  0.1320468E+00
        -11   -1    0    0    0    0  0.00000000000E+00  0.00000000000E+00  0.45593999997E+02  0.45594000000E+02  0.51100000000E-03 0.  1.
         11   -1    0    0    0    0 -0.00000000000E+00 -0.00000000000E+00 -0.45593999997E+02  0.45594000000E+02  0.51100000000E-03 0. -1.
    9900012    2    1    2    0    0 -0.22444196145E+02 -0.23601528736E+02  0.31118151271E+02  0.46142318323E+02  0.10000005120E+02 0.  0.
         12    1    1    2    0    0  0.22444196145E+02  0.23601528736E+02 -0.31118151271E+02  0.45045681677E+02  0.00000000000E+00 0. -1.
         11    1    3    3    0    0 -0.49787088892E+01 -0.82492988380E+01  0.11811789592E+02  0.15243255792E+02  0.51100000000E-03 0. -1.
        -11    1    3    3    0    0 -0.80207225614E+01 -0.50851528954E+01  0.43477012313E+01  0.10444772694E+02  0.51100000000E-03 0.  1.
        -12    1    3    3    0    0 -0.94447646941E+01 -0.10267077002E+02  0.14958660448E+02  0.20454289836E+02  0.00000000000E+00 0.  1.
</event>
<event>
 7    1  0.3086024E-009  0.4614232E+02  0.7816164E-02  0.1320468E+00
        -11   -1    0    0    0    0  0.00000000000E+00  0.00000000000E+00  0.45593999997E+02  0.45594000000E+02  0.51100000000E-03 0.  1.
         11   -1    0    0    0    0 -0.00000000000E+00 -0.00000000000E+00 -0.45593999997E+02  0.45594000000E+02  0.51100000000E-03 0. -1.
    9900012    2    1    2    0    0 -0.98832582261E+01 -0.16382048351E+02  0.40780672265E+02  0.46142317280E+02  0.99999956131E+01 0.  0.
         12    1    1    2    0    0  0.98832582261E+01  0.16382048351E+02 -0.40780672265E+02  0.45045682720E+02  0.00000000000E+00 0. -1.
         11    1    3    3    0    0 -0.57965269405E+01 -0.10239398304E+02  0.24737925894E+02  0.27393612029E+02  0.51100000000E-03 0. -1.
        -11    1    3    3    0    0 -0.13658156928E+01 -0.63087697584E+01  0.13738407285E+02  0.15179257669E+02  0.51100000000E-03 0.  1.
         12    1    3    3    0    0 -0.27209155927E+01  0.16611971184E+00  0.23043390856E+01  0.35694475823E+01  0.00000000000E+00 0. -1.
</event>
<event>
 7    1  0.3086024E-009  0.4614232E+02  0.7816164E-02  0.1320468E+00
        -11   -1    0    0    0    0  0.00000000000E+00  0.00000000000E+00  0.45593999997E+02  0.45594000000E+02  0.51100000000E-03 0. -1.
         11   -1    0    0    0    0 -0.00000000000E+00 -0.00000000000E+00 -0.45593999997E+02  0.45594000000E+02  0.51100000000E-03 0.  1.
    9900012    2    1    2    0    0 -0.78853455211E+01  0.22442423853E+02 -0.38252741936E+02  0.46142319541E+02  0.10000016235E+02 0.  0.
         12    1    1    2    0    0  0.78853455211E+01 -0.22442423853E+02  0.38252741936E+02  0.45045680459E+02  0.00000000000E+00 0. -1.
         11    1    3    3    0    0  0.17875814025E+01  0.68064803072E+00 -0.22342926679E+01  0.29412230448E+01  0.51100000000E-03 0. -1.
        -11    1    3    3    0    0 -0.19182135630E+01  0.34485319424E+01 -0.66464317569E+01  0.77296164970E+01  0.51100000000E-03 0.  1.
         12    1    3    3    0    0 -0.77547133605E+01  0.18313243880E+02 -0.29372017511E+02  0.35471480000E+02  0.00000000000E+00 0. -1.
</event>
<event>
 7    1  0.3086024E-009  0.4614232E+02  0.7816164E-02  0.1320468E+00
        -11   -1    0    0    0    0  0.00000000000E+00  0.00000000000E+00  0.45593999997E+02  0.45594000000E+02  0.51100000000E-03 0. -1.
         11   -1    0    0    0    0 -0.00000000000E+00 -0.00000000000E+00 -0.45593999997E+02  0.45594000000E+02  0.51100000000E-03 0.  1.
    9900012    2    1    2    0    0  0.15387246993E+02  0.31151481847E+02 -0.28669346572E+02  0.46142316254E+02  0.99999862570E+01 0.  0.
         12    1    1    2    0    0 -0.15387246993E+02 -0.31151481847E+02  0.28669346572E+02  0.45045683746E+02  0.00000000000E+00 0. -1.
         11    1    3    3    0    0 -0.58094969530E+00  0.49981846297E+01 -0.57731668265E+01  0.76582509497E+01  0.51100000000E-03 0. -1.
        -11    1    3    3    0    0  0.16633805063E+01  0.26647679822E+01 -0.41338439227E+01  0.51919638814E+01  0.51100000000E-03 0.  1.
         12    1    3    3    0    0  0.14304816182E+02  0.23488529235E+02 -0.18762335823E+02  0.33292101423E+02  0.00000000000E+00 0. -1.
</event>
<event>
 7    1  0.3086024E-009  0.4614232E+02  0.7816164E-02  0.1320468E+00
        -11   -1    0    0    0    0  0.00000000000E+00  0.00000000000E+00  0.45593999997E+02  0.45594000000E+02  0.51100000000E-03 0. -1.
         11   -1    0    0    0    0 -0.00000000000E+00 -0.00000000000E+00 -0.45593999997E+02  0.45594000000E+02  0.51100000000E-03 0.  1.
    9900012    2    1    2    0    0  0.23682205907E+02  0.29849137897E+02 -0.24026974887E+02  0.46142318386E+02  0.10000005701E+02 0.  0.
         12    1    1    2    0    0 -0.23682205907E+02 -0.29849137897E+02  0.24026974887E+02  0.45045681614E+02  0.00000000000E+00 0. -1.
         11    1    3    3    0    0  0.88266841005E+01  0.13981264738E+02 -0.93727905240E+01  0.19006191579E+02  0.51100000000E-03 0. -1.
        -11    1    3    3    0    0  0.12794762999E+02  0.12032428491E+02 -0.14506031610E+02  0.22779601597E+02  0.51100000000E-03 0.  1.
         12    1    3    3    0    0  0.20607588079E+01  0.38354446686E+01 -0.14815275287E+00  0.43565252103E+01  0.00000000000E+00 0. -1.
</event>
<event>
 7    1  0.3086024E-009  0.4614233E+02  0.7816164E-02  0.1320468E+00
        -11   -1    0    0    0    0  0.00000000000E+00  0.00000000000E+00  0.45593999997E+02  0.45594000000E+02  0.51100000000E-03 0.  1.
         11   -1    0    0    0    0 -0.00000000000E+00 -0.00000000000E+00 -0.45593999997E+02  0.45594000000E+02  0.51100000000E-03 0. -1.
    9900012    2    1    2    0    0  0.14537943553E+02 -0.27106627048E+01  0.42548948449E+02  0.46142328630E+02  0.10000099114E+02 0.  0.
         12    1    1    2    0    0 -0.14537943553E+02  0.27106627048E+01 -0.42548948449E+02  0.45045671370E+02  0.00000000000E+00 0. -1.
         11    1    3    3    0    0  0.20072997944E+01 -0.12161215313E+01  0.12577536140E+01  0.26627332683E+01  0.51100000000E-03 0. -1.
        -11    1    3    3    0    0  0.60523687216E+01 -0.22322959096E+01  0.13913826251E+02  0.15336520902E+02  0.51100000000E-03 0.  1.
         12    1    3    3    0    0  0.64782750373E+01  0.73775473605E+00  0.27377368583E+02  0.28143074460E+02  0.00000000000E+00 0. -1.
</event>
<event>
 7    1  0.3086024E-009  0.4614232E+02  0.7816164E-02  0.1320468E+00
        -11   -1    0    0    0    0  0.00000000000E+00  0.00000000000E+00  0.45593999997E+02  0.45594000000E+02  0.51100000000E-03 0.  1.
         11   -1    0    0    0    0 -0.00000000000E+00 -0.00000000000E+00 -0.45593999997E+02  0.45594000000E+02  0.51100000000E-03 0. -1.
    9900012    2    1    2    0    0  0.21527922980E+02 -0.18115003325E+02  0.35178243368E+02  0.46142316303E+02  0.99999867019E+01 0.  0.
         12    1    1    2    0    0 -0.21527922980E+02  0.18115003325E+02 -0.35178243368E+02  0.45045683697E+02  0.00000000000E+00 0. -1.
         11    1    3    3    0    0  0.25905358344E+01 -0.47492035193E+01  0.23939410786E+01  0.59158062955E+01  0.51100000000E-03 0. -1.
        -11    1    3    3    0    0  0.11528974418E+02 -0.90963127030E+01  0.22238766579E+02  0.26650007413E+02  0.51100000000E-03 0.  1.
         12    1    3    3    0    0  0.74084127277E+01 -0.42694871031E+01  0.10545535710E+02  0.13576502594E+02  0.00000000000E+00 0. -1.
</event>
<event>
 7    1  0.3086024E-009  0.4614232E+02  0.7816164E-02  0.1320468E+00
        -11   -1    0    0    0    0  0.00000000000E+00  0.00000000000E+00  0.45593999997E+02  0.45594000000E+02  0.51100000000E-03 0.  1.
         11   -1    0    0    0    0 -0.00000000000E+00 -0.00000000000E+00 -0.45593999997E+02  0.45594000000E+02  0.51100000000E-03 0. -1.
    9900012    2    1    2    0    0  0.19399384248E+02  0.21236443313E+02  0.34666855272E+02  0.46142317762E+02  0.10000000010E+02 0.  0.
         12    1    1    2    0    0 -0.19399384248E+02 -0.21236443313E+02 -0.34666855272E+02  0.45045682238E+02  0.00000000000E+00 0. -1.
         11    1    3    3    0    0  0.84782316886E+01  0.74028085383E+01  0.15362297012E+02  0.19044215829E+02  0.51100000000E-03 0. -1.
        -11    1    3    3    0    0  0.45215304453E+01  0.84545945299E+01  0.14710100346E+02  0.17558800035E+02  0.51100000000E-03 0.  1.
        -12    1    3    3    0    0  0.63996221144E+01  0.53790402447E+01  0.45944579147E+01  0.95393018975E+01  0.00000000000E+00 0.  1.
</event>
<event>
 7    1  0.3086024E-009  0.4614232E+02  0.7816164E-02  0.1320468E+00
        -11   -1    0    0    0    0  0.00000000000E+00  0.00000000000E+00  0.45593999997E+02  0.45594000000E+02  0.51100000000E-03 0.  1.
         11   -1    0    0    0    0 -0.00000000000E+00 -0.00000000000E+00 -0.45593999997E+02  0.45594000000E+02  0.51100000000E-03 0. -1.
    9900012    2    1    2    0    0 -0.18429627634E+02 -0.40749619536E+02  0.53787246891E+01  0.46142319338E+02  0.10000014376E+02 0.  0.
         12    1    1    2    0    0  0.18429627634E+02  0.40749619536E+02 -0.53787246891E+01  0.45045680662E+02  0.00000000000E+00 0. -1.
         11    1    3    3    0    0  0.69115948659E-01 -0.33150167967E+01  0.43726915291E+00  0.33444458360E+01  0.51100000000E-03 0. -1.
        -11    1    3    3    0    0 -0.86158198640E+01 -0.17503278172E+02 -0.16941962288E+01  0.19582323657E+02  0.51100000000E-03 0.  1.
        -12    1    3    3    0    0 -0.98829237184E+01 -0.19931324568E+02  0.66356517650E+01  0.23215549845E+02  0.00000000000E+00 0.  1.
</event>
<event>
 7    1  0.3086024E-009  0.4614232E+02  0.7816164E-02  0.1320468E+00
        -11   -1    0    0    0    0  0.00000000000E+00  0.00000000000E+00  0.45593999997E+02  0.45594000000E+02  0.51100000000E-03 0. -1.
         11   -1    0    0    0    0 -0.00000000000E+00 -0.00000000000E+00 -0.45593999997E+02  0.45594000000E+02  0.51100000000E-03 0.  1.
    9900012    2    1    2    0    0 -0.59562451960E+01  0.43915524180E+02 -0.80661726318E+01  0.46142320276E+02  0.10000022937E+02 0.  0.
         12    1    1    2    0    0  0.59562451960E+01 -0.43915524180E+02  0.80661726318E+01  0.45045679724E+02  0.00000000000E+00 0. -1.
         11    1    3    3    0    0 -0.25234111355E+01  0.27618943543E+02 -0.63525311363E+01  0.28452210781E+02  0.51100000000E-03 0. -1.
        -11    1    3    3    0    0  0.42884237172E+00  0.11050836784E+02 -0.16075935722E+01  0.11175386202E+02  0.51100000000E-03 0.  1.
         12    1    3    3    0    0 -0.38616764323E+01  0.52457438526E+01 -0.10604792326E+00  0.65147232940E+01  0.00000000000E+00 0. -1.
</event>
<event>
 7    1  0.3086024E-009  0.4614232E+02  0.7816164E-02  0.1320468E+00
        -11   -1    0    0    0    0  0.00000000000E+00  0.00000000000E+00  0.45593999997E+02  0.45594000000E+02  0.51100000000E-03 0. -1.
         11   -1    0    0    0    0 -0.00000000000E+00 -0.00000000000E+00 -0.45593999997E+02  0.45594000000E+02  0.51100000000E-03 0.  1.
    9900012    2    1    2    0    0 -0.37626219839E+02 -0.86965279005E+00 -0.24751258495E+02  0.46142317493E+02  0.99999975585E+01 0.  0.
         12    1    1    2    0    0  0.37626219839E+02  0.86965279005E+00  0.24751258495E+02  0.45045682507E+02  0.00000000000E+00 0. -1.
         11    1    3    3    0    0 -0.33296317417E+01 -0.23258024733E+01 -0.27717944607E+01  0.49171790158E+01  0.51100000000E-03 0. -1.
        -11    1    3    3    0    0 -0.19824149349E+02  0.22999746648E+00 -0.16164364032E+02  0.25580001194E+02  0.51100000000E-03 0.  1.
        -12    1    3    3    0    0 -0.14472438748E+02  0.12261522168E+01 -0.58151000030E+01  0.15645137284E+02  0.00000000000E+00 0.  1.
</event>
<event>
 7    1  0.3086024E-009  0.4614232E+02  0.7816164E-02  0.1320468E+00
        -11   -1    0    0    0    0  0.00000000000E+00  0.00000000000E+00  0.45593999997E+02  0.45594000000E+02  0.51100000000E-03 0. -1.
         11   -1    0    0    0    0 -0.00000000000E+00 -0.00000000000E+00 -0.45593999997E+02  0.45594000000E+02  0.51100000000E-03 0.  1.
    9900012    2    1    2    0    0 -0.22990495776E+02 -0.36572713873E+02  0.12766645098E+02  0.46142317375E+02  0.99999964815E+01 0.  0.
         12    1    1    2    0    0  0.22990495776E+02  0.36572713873E+02 -0.12766645098E+02  0.45045682625E+02  0.00000000000E+00 0. -1.
         11    1    3    3    0    0 -0.79476737174E+01 -0.11688839271E+02  0.16981918702E+01  0.14236514212E+02  0.51100000000E-03 0. -1.
        -11    1    3    3    0    0 -0.89528635954E+01 -0.88781603400E+01  0.29266694280E+01  0.12943758797E+02  0.51100000000E-03 0.  1.
         12    1    3    3    0    0 -0.60899584634E+01 -0.16005714262E+02  0.81417837994E+01  0.18962044367E+02  0.00000000000E+00 0. -1.
</event>
<event>
 7    1  0.3086024E-009  0.4614232E+02  0.7816164E-02  0.1320468E+00
        -11   -1    0    0    0    0  0.00000000000E+00  0.00000000000E+00  0.45593999997E+02  0.45594000000E+02  0.51100000000E-03 0. -1.
         11   -1    0    0    0    0 -0.00000000000E+00 -0.00000000000E+00 -0.45593999997E+02  0.45594000000E+02  0.51100000000E-03 0.  1.
    9900012    2    1    2    0    0 -0.43440824402E+02  0.61720388910E+01 -0.10193839660E+02  0.46142315902E+02  0.99999830497E+01 0.  0.
         12    1    1    2    0    0  0.43440824402E+02 -0.61720388910E+01  0.10193839660E+02  0.45045684098E+02  0.00000000000E+00 0. -1.
         11    1    3    3    0    0 -0.62747196825E+01 -0.34548209859E+00  0.96159487055E+00  0.63573681607E+01  0.51100000000E-03 0. -1.
        -11    1    3    3    0    0 -0.27443687306E+02  0.24442730664E+01 -0.67975498417E+01  0.28378462394E+02  0.51100000000E-03 0.  1.
         12    1    3    3    0    0 -0.97224174139E+01  0.40732479232E+01 -0.43578846884E+01  0.11406485347E+02  0.00000000000E+00 0. -1.
</event>
<event>
 7    1  0.3086024E-009  0.4614232E+02  0.7816164E-02  0.1320468E+00
        -11   -1    0    0    0    0  0.00000000000E+00  0.00000000000E+00  0.45593999997E+02  0.45594000000E+02  0.51100000000E-03 0.  1.
         11   -1    0    0    0    0 -0.00000000000E+00 -0.00000000000E+00 -0.45593999997E+02  0.45594000000E+02  0.51100000000E-03 0. -1.
    9900012    2    1    2    0    0 -0.20209439108E+02 -0.40840088087E+01  0.40050129179E+02  0.46142318694E+02  0.10000008508E+02 0.  0.
         12    1    1    2    0    0  0.20209439108E+02  0.40840088087E+01 -0.40050129179E+02  0.45045681306E+02  0.00000000000E+00 0. -1.
         11    1    3    3    0    0 -0.28929992523E+01 -0.35138006368E+01  0.66397280808E+01  0.80499831576E+01  0.51100000000E-03 0.  1.
        -11    1    3    3    0    0 -0.51387074419E+01  0.22740778274E+01  0.12890041001E+02  0.14061682026E+02  0.51100000000E-03 0. -1.
        -12    1    3    3    0    0 -0.12177732414E+02 -0.28442859993E+01  0.20520360098E+02  0.24030653510E+02  0.00000000000E+00 0.  1.
</event>
<event>
 7    1  0.3086024E-009  0.4614232E+02  0.7816164E-02  0.1320468E+00
        -11   -1    0    0    0    0  0.00000000000E+00  0.00000000000E+00  0.45593999997E+02  0.45594000000E+02  0.51100000000E-03 0.  1.
         11   -1    0    0    0    0 -0.00000000000E+00 -0.00000000000E+00 -0.45593999997E+02  0.45594000000E+02  0.51100000000E-03 0. -1.
    9900012    2    1    2    0    0 -0.41528422936E+02 -0.49613903430E+01  0.16729857400E+02  0.46142318361E+02  0.10000005469E+02 0.  0.
         12    1    1    2    0    0  0.41528422936E+02  0.49613903430E+01 -0.16729857400E+02  0.45045681639E+02  0.00000000000E+00 0. -1.
         11    1    3    3    0    0 -0.11361440725E+02  0.23287051915E+00  0.88896655659E+01  0.14427845236E+02  0.51100000000E-03 0. -1.
        -11    1    3    3    0    0 -0.21322971476E+02 -0.37855343874E+01  0.67993352540E+01  0.22698685938E+02  0.51100000000E-03 0.  1.
         12    1    3    3    0    0 -0.88440107356E+01 -0.14087264748E+01  0.10408565797E+01  0.90157871865E+01  0.00000000000E+00 0. -1.
</event>
<event>
 7    1  0.3086024E-009  0.4614232E+02  0.7816164E-02  0.1320468E+00
        -11   -1    0    0    0    0  0.00000000000E+00  0.00000000000E+00  0.45593999997E+02  0.45594000000E+02  0.51100000000E-03 0. -1.
         11   -1    0    0    0    0 -0.00000000000E+00 -0.00000000000E+00 -0.45593999997E+02  0.45594000000E+02  0.51100000000E-03 0.  1.
    9900012    2    1    2    0    0  0.10787033310E+02 -0.42605811835E+02  0.98741202839E+01  0.46142317176E+02  0.99999946603E+01 0.  0.
         12    1    1    2    0    0 -0.10787033310E+02  0.42605811835E+02 -0.98741202839E+01  0.45045682824E+02  0.00000000000E+00 0. -1.
         11    1    3    3    0    0  0.32429313865E+00 -0.10356306905E+02  0.48532916295E+01  0.11441708730E+02  0.51100000000E-03 0. -1.
        -11    1    3    3    0    0  0.75811044249E+01 -0.20585968008E+02  0.57040241358E+01  0.22666960862E+02  0.51100000000E-03 0.  1.
         12    1    3    3    0    0  0.28816357468E+01 -0.11663536922E+02 -0.68319548138E+00  0.12033647584E+02  0.00000000000E+00 0. -1.
</event>
<event>
 7    1  0.3086024E-009  0.4614232E+02  0.7816164E-02  0.1320468E+00
        -11   -1    0    0    0    0  0.00000000000E+00  0.00000000000E+00  0.45593999997E+02  0.45594000000E+02  0.51100000000E-03 0.  1.
         11   -1    0    0    0    0 -0.00000000000E+00 -0.00000000000E+00 -0.45593999997E+02  0.45594000000E+02  0.51100000000E-03 0. -1.
    9900012    2    1    2    0    0 -0.17740607780E+02  0.62176365007E+01  0.40935624423E+02  0.46142317466E+02  0.99999973067E+01 0.  0.
         12    1    1    2    0    0  0.17740607780E+02 -0.62176365007E+01 -0.40935624423E+02  0.45045682534E+02  0.00000000000E+00 0. -1.
         11    1    3    3    0    0 -0.11933324552E+02  0.16336909689E+01  0.15549977998E+02  0.19669138188E+02  0.51100000000E-03 0. -1.
        -11    1    3    3    0    0 -0.18719210491E+01  0.14502435527E+01  0.61365154794E+01  0.65775464473E+01  0.51100000000E-03 0.  1.
         12    1    3    3    0    0 -0.39353621793E+01  0.31337019790E+01  0.19249130945E+02  0.19895632831E+02  0.00000000000E+00 0. -1.
</event>
<event>
 7    1  0.3086024E-009  0.4614232E+02  0.7816164E-02  0.1320468E+00
        -11   -1    0    0    0    0  0.00000000000E+00  0.00000000000E+00  0.45593999997E+02  0.45594000000E+02  0.51100000000E-03 0.  1.
         11   -1    0    0    0    0 -0.00000000000E+00 -0.00000000000E+00 -0.45593999997E+02  0.45594000000E+02  0.51100000000E-03 0. -1.
    9900012    2    1    2    0    0 -0.29412368220E+01 -0.84062998310E+01  0.44156502862E+02  0.46142317678E+02  0.99999992403E+01 0.  0.
         12    1    1    2    0    0  0.29412368220E+01  0.84062998310E+01 -0.44156502862E+02  0.45045682322E+02  0.00000000000E+00 0. -1.
         11    1    3    3    0    0 -0.89505410349E+00  0.34667122146E+00  0.94783737345E+00  0.13489620942E+01  0.51100000000E-03 0. -1.
        -11    1    3    3    0    0 -0.40721487843E+01 -0.76518935418E+01  0.25449992861E+02  0.26885609671E+02  0.51100000000E-03 0.  1.
        -12    1    3    3    0    0  0.20259660659E+01 -0.11010775107E+01  0.17758672628E+02  0.17907745913E+02  0.00000000000E+00 0.  1.
</event>
<event>
 7    1  0.3086024E-009  0.4614232E+02  0.7816164E-02  0.1320468E+00
        -11   -1    0    0    0    0  0.00000000000E+00  0.00000000000E+00  0.45593999997E+02  0.45594000000E+02  0.51100000000E-03 0.  1.
         11   -1    0    0    0    0 -0.00000000000E+00 -0.00000000000E+00 -0.45593999997E+02  0.45594000000E+02  0.51100000000E-03 0. -1.
    9900012    2    1    2    0    0  0.24856099974E+02  0.50455149052E+01  0.37226745084E+02  0.46142317897E+02  0.10000001235E+02 0.  0.
         12    1    1    2    0    0 -0.24856099974E+02 -0.50455149052E+01 -0.37226745084E+02  0.45045682103E+02  0.00000000000E+00 0. -1.
         11    1    3    3    0    0  0.10984487136E+02 -0.22866142463E+01  0.15631195002E+02  0.19241149129E+02  0.51100000000E-03 0.  1.
        -11    1    3    3    0    0  0.70444192911E+01  0.51981932412E+01  0.13587551708E+02  0.16163743929E+02  0.51100000000E-03 0. -1.
        -12    1    3    3    0    0  0.68271935470E+01  0.21339359103E+01  0.80079983734E+01  0.10737424838E+02  0.00000000000E+00 0.  1.
</event>
<event>
 7    1  0.3086024E-009  0.4614232E+02  0.7816164E-02  0.1320468E+00
        -11   -1    0    0    0    0  0.00000000000E+00  0.00000000000E+00  0.45593999997E+02  0.45594000000E+02  0.51100000000E-03 0. -1.
         11   -1    0    0    0    0 -0.00000000000E+00 -0.00000000000E+00 -0.45593999997E+02  0.45594000000E+02  0.51100000000E-03 0.  1.
    9900012    2    1    2    0    0  0.19951072663E+02  0.40208627176E+02 -0.37860946719E+01  0.46142317492E+02  0.99999975453E+01 0.  0.
         12    1    1    2    0    0 -0.19951072663E+02 -0.40208627176E+02  0.37860946719E+01  0.45045682508E+02  0.00000000000E+00 0. -1.
         11    1    3    3    0    0 -0.44602288870E-01 -0.15306456841E+00 -0.24791461984E+00  0.29475421308E+00  0.51100000000E-03 0. -1.
        -11    1    3    3    0    0  0.13758043248E+02  0.21433280467E+02 -0.46367280547E+01  0.25887613118E+02  0.51100000000E-03 0.  1.
        -12    1    3    3    0    0  0.62376317043E+01  0.18928411276E+02  0.10985480026E+01  0.19959950161E+02  0.00000000000E+00 0.  1.
</event>
<event>
 7    1  0.3086024E-009  0.4614232E+02  0.7816164E-02  0.1320468E+00
        -11   -1    0    0    0    0  0.00000000000E+00  0.00000000000E+00  0.45593999997E+02  0.45594000000E+02  0.51100000000E-03 0. -1.
         11   -1    0    0    0    0 -0.00000000000E+00 -0.00000000000E+00 -0.45593999997E+02  0.45594000000E+02  0.51100000000E-03 0.  1.
    9900012    2    1    2    0    0  0.40455068988E+02  0.19731107528E+01  0.19713138892E+02  0.46142316324E+02  0.99999868948E+01 0.  0.
         12    1    1    2    0    0 -0.40455068988E+02 -0.19731107528E+01 -0.19713138892E+02  0.45045683676E+02  0.00000000000E+00 0. -1.
         11    1    3    3    0    0  0.73594029716E+00 -0.15267829289E+00  0.28837728751E+00  0.80503447329E+00  0.51100000000E-03 0. -1.
        -11    1    3    3    0    0  0.30022301693E+02 -0.26478328651E+01  0.14889473444E+02  0.33616157388E+02  0.51100000000E-03 0.  1.
        -12    1    3    3    0    0  0.96968269981E+01  0.47736219108E+01  0.45352881605E+01  0.11721124463E+02  0.00000000000E+00 0.  1.
</event>
<event>
 7    1  0.3086024E-009  0.4614233E+02  0.7816164E-02  0.1320468E+00
        -11   -1    0    0    0    0  0.00000000000E+00  0.00000000000E+00  0.45593999997E+02  0.45594000000E+02  0.51100000000E-03 0.  1.
         11   -1    0    0    0    0 -0.00000000000E+00 -0.00000000000E+00 -0.45593999997E+02  0.45594000000E+02  0.51100000000E-03 0. -1.
    9900012    2    1    2    0    0  0.28452273433E+02 -0.12487297198E+02  0.32613617443E+02  0.46142328759E+02  0.10000100289E+02 0.  0.
         12    1    1    2    0    0 -0.28452273433E+02  0.12487297198E+02 -0.32613617443E+02  0.45045671241E+02  0.00000000000E+00 0. -1.
         11    1    3    3    0    0  0.11888875374E+02 -0.28777032853E+01  0.16657671606E+02  0.20666508110E+02  0.51100000000E-03 0. -1.
        -11    1    3    3    0    0  0.21461044717E+01  0.55768446869E+00  0.17018577838E+01  0.27951916835E+01  0.51100000000E-03 0.  1.
         12    1    3    3    0    0  0.14417293588E+02 -0.10167278381E+02  0.14254088053E+02  0.22680628966E+02  0.00000000000E+00 0. -1.
</event>
<event>
 7    1  0.3086024E-009  0.4614232E+02  0.7816164E-02  0.1320468E+00
        -11   -1    0    0    0    0  0.00000000000E+00  0.00000000000E+00  0.45593999997E+02  0.45594000000E+02  0.51100000000E-03 0.  1.
         11   -1    0    0    0    0 -0.00000000000E+00 -0.00000000000E+00 -0.45593999997E+02  0.45594000000E+02  0.51100000000E-03 0. -1.
    9900012    2    1    2    0    0 -0.47075894458E+01 -0.63807800269E+01  0.44342277932E+02  0.46142319138E+02  0.10000012552E+02 0.  0.
         12    1    1    2    0    0  0.47075894458E+01  0.63807800269E+01 -0.44342277932E+02  0.45045680862E+02  0.00000000000E+00 0. -1.
         11    1    3    3    0    0 -0.56171602272E+01 -0.55975564899E+00  0.15535156328E+02  0.16528971468E+02  0.51100000000E-03 0. -1.
        -11    1    3    3    0    0  0.44932736491E+00 -0.40744105419E+01  0.25654857935E+02  0.25980270442E+02  0.51100000000E-03 0.  1.
        -12    1    3    3    0    0  0.46024341643E+00 -0.17466138360E+01  0.31522636695E+01  0.36330772269E+01  0.00000000000E+00 0.  1.
</event>
<event>
 7    1  0.3086024E-009  0.4614232E+02  0.7816164E-02  0.1320468E+00
        -11   -1    0    0    0    0  0.00000000000E+00  0.00000000000E+00  0.45593999997E+02  0.45594000000E+02  0.51100000000E-03 0. -1.
         11   -1    0    0    0    0 -0.00000000000E+00 -0.00000000000E+00 -0.45593999997E+02  0.45594000000E+02  0.51100000000E-03 0.  1.
    9900012    2    1    2    0    0  0.19211693275E+02  0.33604489957E+01 -0.40604577974E+02  0.46142317317E+02  0.99999959487E+01 0.  0.
         12    1    1    2    0    0 -0.19211693275E+02 -0.33604489957E+01  0.40604577974E+02  0.45045682683E+02  0.00000000000E+00 0. -1.
         11    1    3    3    0    0  0.42939978040E+01  0.31478293000E+01 -0.17647112639E+02  0.18432792279E+02  0.51100000000E-03 0. -1.
        -11    1    3    3    0    0  0.61545837290E+01  0.16135195200E+01 -0.70690334493E+01  0.95107087163E+01  0.51100000000E-03 0.  1.
         12    1    3    3    0    0  0.87631117423E+01 -0.14008998242E+01 -0.15888431886E+02  0.18198816322E+02  0.00000000000E+00 0. -1.
</event>
<event>
 7    1  0.3086024E-009  0.4614232E+02  0.7816164E-02  0.1320468E+00
        -11   -1    0    0    0    0  0.00000000000E+00  0.00000000000E+00  0.45593999997E+02  0.45594000000E+02  0.51100000000E-03 0.  1.
         11   -1    0    0    0    0 -0.00000000000E+00 -0.00000000000E+00 -0.45593999997E+02  0.45594000000E+02  0.51100000000E-03 0. -1.
    9900012    2    1    2    0    0  0.17468378734E+02  0.22949292248E+02  0.34602012313E+02  0.46142317339E+02  0.99999961517E+01 0.  0.
         12    1    1    2    0    0 -0.17468378734E+02 -0.22949292248E+02 -0.34602012313E+02  0.45045682661E+02  0.00000000000E+00 0. -1.
         11    1    3    3    0    0  0.32975661166E+01  0.10459891866E+02  0.12194863249E+02  0.16401157583E+02  0.51100000000E-03 0. -1.
        -11    1    3    3    0    0  0.78040230352E+01  0.36342150632E+01  0.10849514867E+02  0.13849991617E+02  0.51100000000E-03 0.  1.
        -12    1    3    3    0    0  0.63667895823E+01  0.88551853183E+01  0.11557634196E+02  0.15891168139E+02  0.00000000000E+00 0.  1.
</event>
<event>
 7    1  0.3086024E-009  0.4614231E+02  0.7816164E-02  0.1320468E+00
        -11   -1    0    0    0    0  0.00000000000E+00  0.00000000000E+00  0.45593999997E+02  0.45594000000E+02  0.51100000000E-03 0.  1.
         11   -1    0    0    0    0 -0.00000000000E+00 -0.00000000000E+00 -0.45593999997E+02  0.45594000000E+02  0.51100000000E-03 0. -1.
    9900012    2    1    2    0    0 -0.42273531243E+02 -0.13325740826E+02  0.80303982953E+01  0.46142310871E+02  0.99999371729E+01 0.  0.
         12    1    1    2    0    0  0.42273531243E+02  0.13325740826E+02 -0.80303982953E+01  0.45045689129E+02  0.00000000000E+00 0. -1.
         11    1    3    3    0    0 -0.66927062267E+01 -0.49951597415E+01 -0.62842596708E+00  0.83748944434E+01  0.51100000000E-03 0. -1.
        -11    1    3    3    0    0 -0.33615432735E+02 -0.75471341442E+01  0.90378142053E+01  0.35617953866E+02  0.51100000000E-03 0.  1.
        -12    1    3    3    0    0 -0.19653922811E+01 -0.78344694044E+00 -0.37898994288E+00  0.21494625616E+01  0.00000000000E+00 0.  1.
</event>
<event>
 7    1  0.3086024E-009  0.4614232E+02  0.7816164E-02  0.1320468E+00
        -11   -1    0    0    0    0  0.00000000000E+00  0.00000000000E+00  0.45593999997E+02  0.45594000000E+02  0.51100000000E-03 0.  1.
         11   -1    0    0    0    0 -0.00000000000E+00 -0.00000000000E+00 -0.45593999997E+02  0.45594000000E+02  0.51100000000E-03 0. -1.
    9900012    2    1    2    0    0 -0.36127022664E+02  0.11806230043E+02  0.24177772317E+02  0.46142317536E+02  0.99999979450E+01 0.  0.
         12    1    1    2    0    0  0.36127022664E+02 -0.11806230043E+02 -0.24177772317E+02  0.45045682464E+02  0.00000000000E+00 0. -1.
         11    1    3    3    0    0 -0.16122113268E+02  0.49241912540E+00  0.88952234253E+01  0.18419826624E+02  0.51100000000E-03 0. -1.
        -11    1    3    3    0    0 -0.13485896367E+02  0.63652288349E+01  0.10564164613E+02  0.18275314311E+02  0.51100000000E-03 0.  1.
         12    1    3    3    0    0 -0.65190130294E+01  0.49485820831E+01  0.47183842793E+01  0.94471766003E+01  0.00000000000E+00 0. -1.
</event>
<event>
 7    1  0.3086024E-009  0.4614232E+02  0.7816164E-02  0.1320468E+00
        -11   -1    0    0    0    0  0.00000000000E+00  0.00000000000E+00  0.45593999997E+02  0.45594000000E+02  0.51100000000E-03 0. -1.
         11   -1    0    0    0    0 -0.00000000000E+00 -0.00000000000E+00 -0.45593999997E+02  0.45594000000E+02  0.51100000000E-03 0.  1.
    9900012    2    1    2    0    0 -0.34771501549E+02 -0.89252774009E+01 -0.27210213357E+02  0.46142316438E+02  0.99999879323E+01 0.  0.
         12    1    1    2    0    0  0.34771501549E+02  0.89252774009E+01  0.27210213357E+02  0.45045683562E+02  0.00000000000E+00 0. -1.
         11    1    3    3    0    0 -0.20201566410E+01 -0.16665801149E+01 -0.54874689313E+01  0.60803649288E+01  0.51100000000E-03 0. -1.
        -11    1    3    3    0    0 -0.18861823800E+02 -0.54148210736E+01 -0.11891236564E+02  0.22945374079E+02  0.51100000000E-03 0.  1.
         12    1    3    3    0    0 -0.13889521108E+02 -0.18438762124E+01 -0.98315078611E+01  0.17116577430E+02  0.00000000000E+00 0. -1.
</event>
<event>
 7    1  0.3086024E-009  0.4614232E+02  0.7816164E-02  0.1320468E+00
        -11   -1    0    0    0    0  0.00000000000E+00  0.00000000000E+00  0.45593999997E+02  0.45594000000E+02  0.51100000000E-03 0.  1.
         11   -1    0    0    0    0 -0.00000000000E+00 -0.00000000000E+00 -0.45593999997E+02  0.45594000000E+02  0.51100000000E-03 0. -1.
    9900012    2    1    2    0    0  0.40952381482E+01  0.65533258173E+00  0.44854352496E+02  0.46142319029E+02  0.10000011561E+02 0.  0.
         12    1    1    2    0    0 -0.40952381482E+01 -0.65533258173E+00 -0.44854352496E+02  0.45045680971E+02  0.00000000000E+00 0. -1.
         11    1    3    3    0    0 -0.39576650060E+00  0.28229752777E+01  0.87597753523E+01  0.92119208108E+01  0.51100000000E-03 0. -1.
        -11    1    3    3    0    0  0.22501920048E+01 -0.18171230791E+01  0.32819236916E+02  0.32946435503E+02  0.51100000000E-03 0.  1.
        -12    1    3    3    0    0  0.22408126439E+01 -0.35051961687E+00  0.32753402282E+01  0.39839627154E+01  0.00000000000E+00 0.  1.
</event>
<event>
 7    1  0.3086024E-009  0.4614232E+02  0.7816164E-02  0.1320468E+00
        -11   -1    0    0    0    0  0.00000000000E+00  0.00000000000E+00  0.45593999997E+02  0.45594000000E+02  0.51100000000E-03 0.  1.
         11   -1    0    0    0    0 -0.00000000000E+00 -0.00000000000E+00 -0.45593999997E+02  0.45594000000E+02  0.51100000000E-03 0. -1.
    9900012    2    1    2    0    0 -0.17187335453E+02  0.41599603894E+02  0.17837766420E+01  0.46142318706E+02  0.10000008615E+02 0.  0.
         12    1    1    2    0    0  0.17187335453E+02 -0.41599603894E+02 -0.17837766420E+01  0.45045681294E+02  0.00000000000E+00 0. -1.
         11    1    3    3    0    0 -0.62643102897E+01  0.23968143609E+02 -0.30942591723E+00  0.24775173786E+02  0.51100000000E-03 0.  1.
        -11    1    3    3    0    0 -0.51489668224E+01  0.11435463639E+02  0.28598853373E+01  0.12863150173E+02  0.51100000000E-03 0. -1.
        -12    1    3    3    0    0 -0.57740583412E+01  0.61959966466E+01 -0.76668277806E+00  0.85039947469E+01  0.00000000000E+00 0.  1.
</event>
<event>
 7    1  0.3086024E-009  0.4614232E+02  0.7816164E-02  0.1320468E+00
        -11   -1    0    0    0    0  0.00000000000E+00  0.00000000000E+00  0.45593999997E+02  0.45594000000E+02  0.51100000000E-03 0.  1.
         11   -1    0    0    0    0 -0.00000000000E+00 -0.00000000000E+00 -0.45593999997E+02  0.45594000000E+02  0.51100000000E-03 0. -1.
    9900012    2    1    2    0    0 -0.14253845004E+02  0.26230193394E+02  0.33733044318E+02  0.46142318500E+02  0.10000006737E+02 0.  0.
         12    1    1    2    0    0  0.14253845004E+02 -0.26230193394E+02 -0.33733044318E+02  0.45045681500E+02  0.00000000000E+00 0. -1.
         11    1    3    3    0    0 -0.55507505360E+01  0.42548611424E+01  0.36882121662E+01  0.79068061882E+01  0.51100000000E-03 0. -1.
        -11    1    3    3    0    0 -0.45488757979E+01  0.10845044784E+02  0.14447562416E+02  0.18628991583E+02  0.51100000000E-03 0.  1.
         12    1    3    3    0    0 -0.41542186698E+01  0.11130287467E+02  0.15597269736E+02  0.19606520729E+02  0.00000000000E+00 0. -1.
</event>
<event>
 7    1  0.3086024E-009  0.4614232E+02  0.7816164E-02  0.1320468E+00
        -11   -1    0    0    0    0  0.00000000000E+00  0.00000000000E+00  0.45593999997E+02  0.45594000000E+02  0.51100000000E-03 0.  1.
         11   -1    0    0    0    0 -0.00000000000E+00 -0.00000000000E+00 -0.45593999997E+02  0.45594000000E+02  0.51100000000E-03 0. -1.
    9900012    2    1    2    0    0 -0.45699170195E+01 -0.24732492705E+02  0.37370217749E+02  0.46142317504E+02  0.99999976536E+01 0.  0.
         12    1    1    2    0    0  0.45699170195E+01  0.24732492705E+02 -0.37370217749E+02  0.45045682496E+02  0.00000000000E+00 0. -1.
         11    1    3    3    0    0  0.27520816174E+00 -0.10594393592E+02  0.16400117947E+02  0.19526412473E+02  0.51100000000E-03 0.  1.
        -11    1    3    3    0    0 -0.35013557071E+01 -0.27276178347E+01  0.89378356613E+01  0.99791932244E+01  0.51100000000E-03 0. -1.
        -12    1    3    3    0    0 -0.13437694742E+01 -0.11410481278E+02  0.12032264141E+02  0.16636711807E+02  0.00000000000E+00 0.  1.
</event>
<event>
 7    1  0.3086024E-009  0.4614232E+02  0.7816164E-02  0.1320468E+00
        -11   -1    0    0    0    0  0.00000000000E+00  0.00000000000E+00  0.45593999997E+02  0.45594000000E+02  0.51100000000E-03 0.  1.
         11   -1    0    0    0    0 -0.00000000000E+00 -0.00000000000E+00 -0.45593999997E+02  0.45594000000E+02  0.51100000000E-03 0. -1.
    9900012    2    1    2    0    0 -0.12861610232E+01  0.27221605358E+02  0.35867025152E+02  0.46142317613E+02  0.99999986499E+01 0.  0.
         12    1    1    2    0    0  0.12861610232E+01 -0.27221605358E+02 -0.35867025152E+02  0.45045682387E+02  0.00000000000E+00 0. -1.
         11    1    3    3    0    0 -0.27512174381E+00 -0.80921155890E+00  0.12522580690E+01  0.15161351699E+01  0.51100000000E-03 0. -1.
        -11    1    3    3    0    0 -0.50888464584E-01  0.18321367931E+02  0.24228859750E+02  0.30376187344E+02  0.51100000000E-03 0.  1.
         12    1    3    3    0    0 -0.96015081478E+00  0.97094489865E+01  0.10385907333E+02  0.14249995099E+02  0.00000000000E+00 0. -1.
</event>
<event>
 7    1  0.3149205E-009  0.4614232E+02  0.7816164E-02  0.1320468E+00
        -11   -1    0    0    0    0  0.00000000000E+00  0.00000000000E+00  0.45593999997E+02  0.45594000000E+02  0.51100000000E-03 0. -1.
         11   -1    0    0    0    0 -0.00000000000E+00 -0.00000000000E+00 -0.45593999997E+02  0.45594000000E+02  0.51100000000E-03 0.  1.
    9900012    2    1    2    0    0  0.12271771668E+02 -0.83750372187E+01 -0.42525001001E+02  0.46142319425E+02  0.10000015174E+02 0.  0.
         12    1    1    2    0    0 -0.12271771668E+02  0.83750372187E+01  0.42525001001E+02  0.45045680575E+02  0.00000000000E+00 0. -1.
         11    1    3    3    0    0  0.54157968899E+01 -0.32096448594E+01 -0.70996080078E+01  0.94887886583E+01  0.51100000000E-03 0.  1.
        -11    1    3    3    0    0  0.48001772820E+01 -0.44443255029E+01 -0.19229199121E+02  0.20311470410E+02  0.51100000000E-03 0. -1.
         12    1    3    3    0    0  0.20557974965E+01 -0.72106685638E+00 -0.16196193873E+02  0.16342060357E+02  0.00000000000E+00 0. -1.
</event>
<event>
 7    1  0.3086024E-009  0.4614232E+02  0.7816164E-02  0.1320468E+00
        -11   -1    0    0    0    0  0.00000000000E+00  0.00000000000E+00  0.45593999997E+02  0.45594000000E+02  0.51100000000E-03 0.  1.
         11   -1    0    0    0    0 -0.00000000000E+00 -0.00000000000E+00 -0.45593999997E+02  0.45594000000E+02  0.51100000000E-03 0. -1.
    9900012    2    1    2    0    0 -0.21097951044E+02  0.37521083735E+02 -0.13272465781E+02  0.46142316402E+02  0.99999876093E+01 0.  0.
         12    1    1    2    0    0  0.21097951044E+02 -0.37521083735E+02  0.13272465781E+02  0.45045683598E+02  0.00000000000E+00 0. -1.
         11    1    3    3    0    0 -0.10211718828E+02  0.16647812081E+02 -0.12083514306E+01  0.19567548695E+02  0.51100000000E-03 0. -1.
        -11    1    3    3    0    0 -0.57742266947E+01  0.10973173658E+02 -0.49259446346E+01  0.13342307329E+02  0.51100000000E-03 0.  1.
         12    1    3    3    0    0 -0.51120055216E+01  0.99000979961E+01 -0.71381697153E+01  0.13232460379E+02  0.00000000000E+00 0. -1.
</event>
<event>
 7    1  0.3086024E-009  0.4614231E+02  0.7816164E-02  0.1320468E+00
        -11   -1    0    0    0    0  0.00000000000E+00  0.00000000000E+00  0.45593999997E+02  0.45594000000E+02  0.51100000000E-03 0.  1.
         11   -1    0    0    0    0 -0.00000000000E+00 -0.00000000000E+00 -0.45593999997E+02  0.45594000000E+02  0.51100000000E-03 0. -1.
    9900012    2    1    2    0    0  0.16448270619E+02  0.20016304061E+02  0.36849908033E+02  0.46142314783E+02  0.99999728445E+01 0.  0.
         12    1    1    2    0    0 -0.16448270619E+02 -0.20016304061E+02 -0.36849908033E+02  0.45045685217E+02  0.00000000000E+00 0. -1.
         11    1    3    3    0    0  0.82103110419E+00  0.49536947331E+01  0.50163880476E+01  0.70976991264E+01  0.51100000000E-03 0. -1.
        -11    1    3    3    0    0  0.63345815118E+01  0.52609928721E+01  0.71408032990E+01  0.10899359658E+02  0.51100000000E-03 0.  1.
        -12    1    3    3    0    0  0.92926580032E+01  0.98016164559E+01  0.24692716686E+02  0.28145255999E+02  0.00000000000E+00 0.  1.
</event>
<event>
 7    1  0.3086024E-009  0.4614232E+02  0.7816164E-02  0.1320468E+00
        -11   -1    0    0    0    0  0.00000000000E+00  0.00000000000E+00  0.45593999997E+02  0.45594000000E+02  0.51100000000E-03 0. -1.
         11   -1    0    0    0    0 -0.00000000000E+00 -0.00000000000E+00 -0.45593999997E+02  0.45594000000E+02  0.51100000000E-03 0.  1.
    9900012    2    1    2    0    0 -0.42247389519E+02 -0.14597758682E+02  0.55836407830E+01  0.46142317364E+02  0.99999963797E+01 0.  0.
         12    1    1    2    0    0  0.42247389519E+02  0.14597758682E+02 -0.55836407830E+01  0.45045682636E+02  0.00000000000E+00 0. -1.
         11    1    3    3    0    0 -0.19758249234E+01 -0.83427568247E+00  0.19945026799E+01  0.29288122582E+01  0.51100000000E-03 0. -1.
        -11    1    3    3    0    0 -0.20135063646E+02 -0.10344239070E+02  0.21272210581E+01  0.22736515556E+02  0.51100000000E-03 0.  1.
        -12    1    3    3    0    0 -0.20136500950E+02 -0.34192439300E+01  0.14619170450E+01  0.20476989550E+02  0.00000000000E+00 0.  1.
</event>
<event>
 7    1  0.3086024E-009  0.4614232E+02  0.7816164E-02  0.1320468E+00
        -11   -1    0    0    0    0  0.00000000000E+00  0.00000000000E+00  0.45593999997E+02  0.45594000000E+02  0.51100000000E-03 0. -1.
         11   -1    0    0    0    0 -0.00000000000E+00 -0.00000000000E+00 -0.45593999997E+02  0.45594000000E+02  0.51100000000E-03 0.  1.
    9900012    2    1    2    0    0 -0.14810816847E+02  0.63424681320E+01 -0.42065738128E+02  0.46142317388E+02  0.99999965995E+01 0.  0.
         12    1    1    2    0    0  0.14810816847E+02 -0.63424681320E+01  0.42065738128E+02  0.45045682612E+02  0.00000000000E+00 0. -1.
         11    1    3    3    0    0 -0.24207288422E+00  0.18587914400E+01 -0.16963996703E+01  0.25281370615E+01  0.51100000000E-03 0. -1.
        -11    1    3    3    0    0 -0.15024412191E+02  0.49426934255E+01 -0.39315028999E+02  0.42377289736E+02  0.51100000000E-03 0.  1.
        -12    1    3    3    0    0  0.45566822836E+00 -0.45901673363E+00 -0.10543094594E+01  0.12368905903E+01  0.00000000000E+00 0.  1.
</event>
<event>
 7    1  0.3086024E-009  0.4614231E+02  0.7816164E-02  0.1320468E+00
        -11   -1    0    0    0    0  0.00000000000E+00  0.00000000000E+00  0.45593999997E+02  0.45594000000E+02  0.51100000000E-03 0.  1.
         11   -1    0    0    0    0 -0.00000000000E+00 -0.00000000000E+00 -0.45593999997E+02  0.45594000000E+02  0.51100000000E-03 0. -1.
    9900012    2    1    2    0    0 -0.64749420296E+01 -0.10029515481E+02  0.43434983031E+02  0.46142314236E+02  0.99999678542E+01 0.  0.
         12    1    1    2    0    0  0.64749420296E+01  0.10029515481E+02 -0.43434983031E+02  0.45045685764E+02  0.00000000000E+00 0. -1.
         11    1    3    3    0    0  0.12022512744E+01 -0.12088525267E+01  0.11507458236E+02  0.11633070441E+02  0.51100000000E-03 0. -1.
        -11    1    3    3    0    0 -0.39317644945E+01 -0.27805388774E+01  0.63911774846E+01  0.80023320595E+01  0.51100000000E-03 0.  1.
        -12    1    3    3    0    0 -0.37454288095E+01 -0.60401240772E+01  0.25536347310E+02  0.26506911736E+02  0.00000000000E+00 0.  1.
</event>
<event>
 7    1  0.3086024E-009  0.4614232E+02  0.7816164E-02  0.1320468E+00
        -11   -1    0    0    0    0  0.00000000000E+00  0.00000000000E+00  0.45593999997E+02  0.45594000000E+02  0.51100000000E-03 0. -1.
         11   -1    0    0    0    0 -0.00000000000E+00 -0.00000000000E+00 -0.45593999997E+02  0.45594000000E+02  0.51100000000E-03 0.  1.
    9900012    2    1    2    0    0  0.21865683632E+02 -0.35321926480E+02 -0.17417429225E+02  0.46142318167E+02  0.10000003704E+02 0.  0.
         12    1    1    2    0    0 -0.21865683632E+02  0.35321926480E+02  0.17417429225E+02  0.45045681833E+02  0.00000000000E+00 0. -1.
         11    1    3    3    0    0  0.10005612585E+02 -0.11800540043E+02 -0.88765188737E+01  0.17836973288E+02  0.51100000000E-03 0. -1.
        -11    1    3    3    0    0  0.57698929588E+01 -0.17379491787E+02 -0.63590240335E+01  0.19384931943E+02  0.51100000000E-03 0.  1.
         12    1    3    3    0    0  0.60901780882E+01 -0.61418946502E+01 -0.21818863177E+01  0.89204129357E+01  0.00000000000E+00 0. -1.
</event>
<event>
 7    1  0.3086024E-009  0.4614232E+02  0.7816164E-02  0.1320468E+00
        -11   -1    0    0    0    0  0.00000000000E+00  0.00000000000E+00  0.45593999997E+02  0.45594000000E+02  0.51100000000E-03 0.  1.
         11   -1    0    0    0    0 -0.00000000000E+00 -0.00000000000E+00 -0.45593999997E+02  0.45594000000E+02  0.51100000000E-03 0. -1.
    9900012    2    1    2    0    0  0.28323370452E+02 -0.99669210677E+01  0.33579170178E+02  0.46142317642E+02  0.99999989106E+01 0.  0.
         12    1    1    2    0    0 -0.28323370452E+02  0.99669210677E+01 -0.33579170178E+02  0.45045682358E+02  0.00000000000E+00 0. -1.
         11    1    3    3    0    0 -0.44833661898E+00  0.27866904810E+00  0.10936606125E+01  0.12143953058E+01  0.51100000000E-03 0. -1.
        -11    1    3    3    0    0  0.19908931392E+02 -0.46326485720E+01  0.19691053193E+02  0.28382469203E+02  0.51100000000E-03 0.  1.
        -12    1    3    3    0    0  0.88627756786E+01 -0.56129415438E+01  0.12794456372E+02  0.16545453133E+02  0.00000000000E+00 0.  1.
</event>
<event>
 7    1  0.3086024E-009  0.4614232E+02  0.7816164E-02  0.1320468E+00
        -11   -1    0    0    0    0  0.00000000000E+00  0.00000000000E+00  0.45593999997E+02  0.45594000000E+02  0.51100000000E-03 0.  1.
         11   -1    0    0    0    0 -0.00000000000E+00 -0.00000000000E+00 -0.45593999997E+02  0.45594000000E+02  0.51100000000E-03 0. -1.
    9900012    2    1    2    0    0  0.44697828925E+02 -0.55361044399E+01 -0.75435918593E+00  0.46142318511E+02  0.10000006843E+02 0.  0.
         12    1    1    2    0    0 -0.44697828925E+02  0.55361044399E+01  0.75435918593E+00  0.45045681489E+02  0.00000000000E+00 0. -1.
         11    1    3    3    0    0  0.40341371793E+02 -0.35152574313E+01 -0.26919726166E+01  0.40583617751E+02  0.51100000000E-03 0. -1.
        -11    1    3    3    0    0  0.42762311985E+01 -0.12992241733E+01  0.18082724411E+01  0.48212017379E+01  0.51100000000E-03 0.  1.
         12    1    3    3    0    0  0.80225933909E-01 -0.72162283524E+00  0.12934098958E+00  0.73749902264E+00  0.00000000000E+00 0. -1.
</event>
<event>
 7    1  0.3086024E-009  0.4614232E+02  0.7816164E-02  0.1320468E+00
        -11   -1    0    0    0    0  0.00000000000E+00  0.00000000000E+00  0.45593999997E+02  0.45594000000E+02  0.51100000000E-03 0.  1.
         11   -1    0    0    0    0 -0.00000000000E+00 -0.00000000000E+00 -0.45593999997E+02  0.45594000000E+02  0.51100000000E-03 0. -1.
    9900012    2    1    2    0    0 -0.29138384107E+02  0.10408096299E+02  0.32737434349E+02  0.46142317580E+02  0.99999983493E+01 0.  0.
         12    1    1    2    0    0  0.29138384107E+02 -0.10408096299E+02 -0.32737434349E+02  0.45045682420E+02  0.00000000000E+00 0. -1.
         11    1    3    3    0    0 -0.34123189378E+00  0.53250002295E+00  0.33983282193E+01  0.34566791039E+01  0.51100000000E-03 0. -1.
        -11    1    3    3    0    0 -0.16785587609E+02  0.66012510086E+01  0.21089237648E+02  0.27750466863E+02  0.51100000000E-03 0.  1.
        -12    1    3    3    0    0 -0.12011564604E+02  0.32743452675E+01  0.82498684819E+01  0.14935171614E+02  0.00000000000E+00 0.  1.
</event>
<event>
 7    1  0.3086024E-009  0.4614232E+02  0.7816164E-02  0.1320468E+00
        -11   -1    0    0    0    0  0.00000000000E+00  0.00000000000E+00  0.45593999997E+02  0.45594000000E+02  0.51100000000E-03 0. -1.
         11   -1    0    0    0    0 -0.00000000000E+00 -0.00000000000E+00 -0.45593999997E+02  0.45594000000E+02  0.51100000000E-03 0.  1.
    9900012    2    1    2    0    0  0.24393357142E+02  0.19629180374E+02 -0.32384762527E+02  0.46142318312E+02  0.10000005027E+02 0.  0.
         12    1    1    2    0    0 -0.24393357142E+02 -0.19629180374E+02  0.32384762527E+02  0.45045681688E+02  0.00000000000E+00 0. -1.
         11    1    3    3    0    0  0.12978376928E+02  0.83291954202E+01 -0.17908394303E+02  0.23633119785E+02  0.51100000000E-03 0. -1.
        -11    1    3    3    0    0  0.11387696591E+02  0.11765509831E+02 -0.14688592064E+02  0.21996854146E+02  0.51100000000E-03 0.  1.
         12    1    3    3    0    0  0.27283622084E-01 -0.46552487693E+00  0.21222383946E+00  0.51234438136E+00  0.00000000000E+00 0. -1.
</event>
<event>
 7    1  0.3086024E-009  0.4614232E+02  0.7816164E-02  0.1320468E+00
        -11   -1    0    0    0    0  0.00000000000E+00  0.00000000000E+00  0.45593999997E+02  0.45594000000E+02  0.51100000000E-03 0. -1.
         11   -1    0    0    0    0 -0.00000000000E+00 -0.00000000000E+00 -0.45593999997E+02  0.45594000000E+02  0.51100000000E-03 0.  1.
    9900012    2    1    2    0    0 -0.28308672720E+02  0.16563215662E+02 -0.30877052799E+02  0.46142318145E+02  0.10000003499E+02 0.  0.
         12    1    1    2    0    0  0.28308672720E+02 -0.16563215662E+02  0.30877052799E+02  0.45045681855E+02  0.00000000000E+00 0. -1.
         11    1    3    3    0    0 -0.84761507784E+01  0.41797905790E+01 -0.59925788105E+01  0.11190477307E+02  0.51100000000E-03 0. -1.
        -11    1    3    3    0    0 -0.13121087103E+02  0.40159133385E+01 -0.12427909753E+02  0.18513331083E+02  0.51100000000E-03 0.  1.
        -12    1    3    3    0    0 -0.67114348387E+01  0.83675117447E+01 -0.12456564236E+02  0.16438509754E+02  0.00000000000E+00 0.  1.
</event>
<event>
 7    1  0.3086024E-009  0.4614232E+02  0.7816164E-02  0.1320468E+00
        -11   -1    0    0    0    0  0.00000000000E+00  0.00000000000E+00  0.45593999997E+02  0.45594000000E+02  0.51100000000E-03 0. -1.
         11   -1    0    0    0    0 -0.00000000000E+00 -0.00000000000E+00 -0.45593999997E+02  0.45594000000E+02  0.51100000000E-03 0.  1.
    9900012    2    1    2    0    0  0.23745062071E+02 -0.17326908778E+02 -0.34133029736E+02  0.46142318082E+02  0.10000002923E+02 0.  0.
         12    1    1    2    0    0 -0.23745062071E+02  0.17326908778E+02  0.34133029736E+02  0.45045681918E+02  0.00000000000E+00 0. -1.
         11    1    3    3    0    0  0.16072851132E+01 -0.34724822894E+01 -0.12352015441E+01  0.40208483932E+01  0.51100000000E-03 0. -1.
        -11    1    3    3    0    0  0.15282771230E+02 -0.83901603947E+01 -0.20079548932E+02  0.26592220168E+02  0.51100000000E-03 0.  1.
        -12    1    3    3    0    0  0.68550057276E+01 -0.54642660940E+01 -0.12818279260E+02  0.15529249520E+02  0.00000000000E+00 0.  1.
</event>
<event>
 7    1  0.3086024E-009  0.4614232E+02  0.7816164E-02  0.1320468E+00
        -11   -1    0    0    0    0  0.00000000000E+00  0.00000000000E+00  0.45593999997E+02  0.45594000000E+02  0.51100000000E-03 0.  1.
         11   -1    0    0    0    0 -0.00000000000E+00 -0.00000000000E+00 -0.45593999997E+02  0.45594000000E+02  0.51100000000E-03 0. -1.
    9900012    2    1    2    0    0  0.41651719924E+02  0.16567928040E+02 -0.44442609341E+01  0.46142317993E+02  0.10000002119E+02 0.  0.
         12    1    1    2    0    0 -0.41651719924E+02 -0.16567928040E+02  0.44442609341E+01  0.45045682007E+02  0.00000000000E+00 0. -1.
         11    1    3    3    0    0  0.98698372794E+01  0.47693594759E+00  0.74610615525E-01  0.98816356351E+01  0.51100000000E-03 0. -1.
        -11    1    3    3    0    0  0.92287506132E+01  0.72415676613E+01 -0.90694422989E+00  0.11765742143E+02  0.51100000000E-03 0.  1.
        -12    1    3    3    0    0  0.22553132032E+02  0.88494244309E+01 -0.36119273198E+01  0.24494940216E+02  0.00000000000E+00 0.  1.
</event>
<event>
 7    1  0.3086024E-009  0.4614232E+02  0.7816164E-02  0.1320468E+00
        -11   -1    0    0    0    0  0.00000000000E+00  0.00000000000E+00  0.45593999997E+02  0.45594000000E+02  0.51100000000E-03 0. -1.
         11   -1    0    0    0    0 -0.00000000000E+00 -0.00000000000E+00 -0.45593999997E+02  0.45594000000E+02  0.51100000000E-03 0.  1.
    9900012    2    1    2    0    0  0.28184766603E+02  0.21664749095E+02 -0.27665340397E+02  0.46142317841E+02  0.10000000733E+02 0.  0.
         12    1    1    2    0    0 -0.28184766603E+02 -0.21664749095E+02  0.27665340397E+02  0.45045682159E+02  0.00000000000E+00 0. -1.
         11    1    3    3    0    0  0.22332303050E+01  0.43613797400E+00 -0.66115141608E-01  0.22763798893E+01  0.51100000000E-03 0. -1.
        -11    1    3    3    0    0  0.24270420359E+02  0.17518991238E+02 -0.23200450374E+02  0.37871219365E+02  0.51100000000E-03 0.  1.
        -12    1    3    3    0    0  0.16811159397E+01  0.37096198835E+01 -0.43987748811E+01  0.59947185870E+01  0.00000000000E+00 0.  1.
</event>
<event>
 7    1  0.3086024E-009  0.4614232E+02  0.7816164E-02  0.1320468E+00
        -11   -1    0    0    0    0  0.00000000000E+00  0.00000000000E+00  0.45593999997E+02  0.45594000000E+02  0.51100000000E-03 0.  1.
         11   -1    0    0    0    0 -0.00000000000E+00 -0.00000000000E+00 -0.45593999997E+02  0.45594000000E+02  0.51100000000E-03 0. -1.
    9900012    2    1    2    0    0 -0.12859962075E+02 -0.13268536062E+02  0.41081392773E+02  0.46142317566E+02  0.99999982196E+01 0.  0.
         12    1    1    2    0    0  0.12859962075E+02  0.13268536062E+02 -0.41081392773E+02  0.45045682434E+02  0.00000000000E+00 0. -1.
         11    1    3    3    0    0 -0.34918074271E+01 -0.52227333359E+01  0.90661442443E+01  0.11030169279E+02  0.51100000000E-03 0. -1.
        -11    1    3    3    0    0  0.65900832871E+00  0.74580838878E+00  0.13914291086E+01  0.17107300650E+01  0.51100000000E-03 0.  1.
        -12    1    3    3    0    0 -0.10027162977E+02 -0.87916111147E+01  0.30623819420E+02  0.33401418222E+02  0.00000000000E+00 0.  1.
</event>
<event>
 7    1  0.3086024E-009  0.4614232E+02  0.7816164E-02  0.1320468E+00
        -11   -1    0    0    0    0  0.00000000000E+00  0.00000000000E+00  0.45593999997E+02  0.45594000000E+02  0.51100000000E-03 0.  1.
         11   -1    0    0    0    0 -0.00000000000E+00 -0.00000000000E+00 -0.45593999997E+02  0.45594000000E+02  0.51100000000E-03 0. -1.
    9900012    2    1    2    0    0 -0.20416766739E+02 -0.15347773206E+02  0.37104110183E+02  0.46142317644E+02  0.99999989288E+01 0.  0.
         12    1    1    2    0    0  0.20416766739E+02  0.15347773206E+02 -0.37104110183E+02  0.45045682356E+02  0.00000000000E+00 0. -1.
         11    1    3    3    0    0 -0.39653011288E+01 -0.12498943447E+01  0.28311330151E+01  0.50300261754E+01  0.51100000000E-03 0. -1.
        -11    1    3    3    0    0 -0.51060948697E+00 -0.18086428229E+01  0.68003537882E+01  0.70552620656E+01  0.51100000000E-03 0.  1.
        -12    1    3    3    0    0 -0.15940856123E+02 -0.12289236039E+02  0.27472623380E+02  0.34057029403E+02  0.00000000000E+00 0.  1.
</event>
<event>
 7    1  0.3086024E-009  0.4614231E+02  0.7816164E-02  0.1320468E+00
        -11   -1    0    0    0    0  0.00000000000E+00  0.00000000000E+00  0.45593999997E+02  0.45594000000E+02  0.51100000000E-03 0.  1.
         11   -1    0    0    0    0 -0.00000000000E+00 -0.00000000000E+00 -0.45593999997E+02  0.45594000000E+02  0.51100000000E-03 0. -1.
    9900012    2    1    2    0    0 -0.18737717303E+02  0.37839462148E+02  0.15690349707E+02  0.46142311867E+02  0.99999462569E+01 0.  0.
         12    1    1    2    0    0  0.18737717303E+02 -0.37839462148E+02 -0.15690349707E+02  0.45045688133E+02  0.00000000000E+00 0. -1.
         11    1    3    3    0    0 -0.21925369754E+01  0.24168550969E+01  0.75536401940E-01  0.32640638715E+01  0.51100000000E-03 0. -1.
        -11    1    3    3    0    0 -0.12192982298E+01  0.72032198044E+01  0.57114860958E+01  0.92733024003E+01  0.51100000000E-03 0.  1.
        -12    1    3    3    0    0 -0.15325882098E+02  0.28219387247E+02  0.99033272094E+01  0.33604945596E+02  0.00000000000E+00 0.  1.
</event>
<event>
 7    1  0.3086024E-009  0.4614232E+02  0.7816164E-02  0.1320468E+00
        -11   -1    0    0    0    0  0.00000000000E+00  0.00000000000E+00  0.45593999997E+02  0.45594000000E+02  0.51100000000E-03 0.  1.
         11   -1    0    0    0    0 -0.00000000000E+00 -0.00000000000E+00 -0.45593999997E+02  0.45594000000E+02  0.51100000000E-03 0. -1.
    9900012    2    1    2    0    0  0.26214934896E+02  0.30666751612E+02  0.20035992115E+02  0.46142318230E+02  0.10000004279E+02 0.  0.
         12    1    1    2    0    0 -0.26214934896E+02 -0.30666751612E+02 -0.20035992115E+02  0.45045681770E+02  0.00000000000E+00 0. -1.
         11    1    3    3    0    0  0.48661646950E+00  0.47150231891E+01  0.18705273346E+01  0.50957935626E+01  0.51100000000E-03 0. -1.
        -11    1    3    3    0    0  0.45204835674E+01  0.24911992502E+01  0.30395910577E+01  0.59899882676E+01  0.51100000000E-03 0.  1.
        -12    1    3    3    0    0  0.21207834859E+02  0.23460529173E+02  0.15125873723E+02  0.35056536400E+02  0.00000000000E+00 0.  1.
</event>
<event>
 7    1  0.3086024E-009  0.4614232E+02  0.7816164E-02  0.1320468E+00
        -11   -1    0    0    0    0  0.00000000000E+00  0.00000000000E+00  0.45593999997E+02  0.45594000000E+02  0.51100000000E-03 0. -1.
         11   -1    0    0    0    0 -0.00000000000E+00 -0.00000000000E+00 -0.45593999997E+02  0.45594000000E+02  0.51100000000E-03 0.  1.
    9900012    2    1    2    0    0 -0.12970056341E+01 -0.42604268718E+02 -0.14570777090E+02  0.46142317836E+02  0.10000000684E+02 0.  0.
         12    1    1    2    0    0  0.12970056341E+01  0.42604268718E+02  0.14570777090E+02  0.45045682164E+02  0.00000000000E+00 0. -1.
         11    1    3    3    0    0 -0.64544113663E+00 -0.38100094023E+02 -0.12930498409E+02  0.40239676293E+02  0.51100000000E-03 0. -1.
        -11    1    3    3    0    0  0.48730095760E+00 -0.33893306413E+01 -0.23551698168E+01  0.41559414753E+01  0.51100000000E-03 0.  1.
         12    1    3    3    0    0 -0.11388654550E+01 -0.11148440541E+01  0.71489113634E+00  0.17467000677E+01  0.00000000000E+00 0. -1.
</event>
<event>
 7    1  0.3086024E-009  0.4614232E+02  0.7816164E-02  0.1320468E+00
        -11   -1    0    0    0    0  0.00000000000E+00  0.00000000000E+00  0.45593999997E+02  0.45594000000E+02  0.51100000000E-03 0.  1.
         11   -1    0    0    0    0 -0.00000000000E+00 -0.00000000000E+00 -0.45593999997E+02  0.45594000000E+02  0.51100000000E-03 0. -1.
    9900012    2    1    2    0    0 -0.43872637280E+02 -0.23540663756E+01  0.99379821974E+01  0.46142318514E+02  0.10000006862E+02 0.  0.
         12    1    1    2    0    0  0.43872637280E+02  0.23540663756E+01 -0.99379821974E+01  0.45045681486E+02  0.00000000000E+00 0. -1.
         11    1    3    3    0    0 -0.22839804365E+01  0.11384530013E+01  0.91237007663E+00  0.27101773537E+01  0.51100000000E-03 0. -1.
        -11    1    3    3    0    0 -0.39019391152E+02 -0.52489635943E+01  0.82922615813E+01  0.40234638150E+02  0.51100000000E-03 0.  1.
        -12    1    3    3    0    0 -0.25692656917E+01  0.17564442174E+01  0.73335053952E+00  0.31975030097E+01  0.00000000000E+00 0.  1.
</event>
<event>
 7    1  0.3086024E-009  0.4614232E+02  0.7816164E-02  0.1320468E+00
        -11   -1    0    0    0    0  0.00000000000E+00  0.00000000000E+00  0.45593999997E+02  0.45594000000E+02  0.51100000000E-03 0. -1.
         11   -1    0    0    0    0 -0.00000000000E+00 -0.00000000000E+00 -0.45593999997E+02  0.45594000000E+02  0.51100000000E-03 0.  1.
    9900012    2    1    2    0    0  0.68151718368E+01  0.16302763677E+02 -0.41435332342E+02  0.46142318331E+02  0.10000005199E+02 0.  0.
         12    1    1    2    0    0 -0.68151718368E+01 -0.16302763677E+02  0.41435332342E+02  0.45045681669E+02  0.00000000000E+00 0. -1.
         11    1    3    3    0    0  0.15502624782E+01  0.22738193486E+01 -0.28119720124E+01  0.39345590656E+01  0.51100000000E-03 0. -1.
        -11    1    3    3    0    0 -0.41553627219E+00  0.80035060124E+01 -0.12923931221E+02  0.15207129162E+02  0.51100000000E-03 0.  1.
        -12    1    3    3    0    0  0.56804456307E+01  0.60254383166E+01 -0.25699429109E+02  0.27000630103E+02  0.00000000000E+00 0.  1.
</event>
<event>
 7    1  0.3086024E-009  0.4614232E+02  0.7816164E-02  0.1320468E+00
        -11   -1    0    0    0    0  0.00000000000E+00  0.00000000000E+00  0.45593999997E+02  0.45594000000E+02  0.51100000000E-03 0. -1.
         11   -1    0    0    0    0 -0.00000000000E+00 -0.00000000000E+00 -0.45593999997E+02  0.45594000000E+02  0.51100000000E-03 0.  1.
    9900012    2    1    2    0    0 -0.36337792278E+02 -0.12737061605E+02 -0.23376176195E+02  0.46142317638E+02  0.99999988810E+01 0.  0.
         12    1    1    2    0    0  0.36337792278E+02  0.12737061605E+02  0.23376176195E+02  0.45045682362E+02  0.00000000000E+00 0. -1.
         11    1    3    3    0    0 -0.13115440119E+01 -0.12711689918E+01 -0.23799483545E+00  0.18419175073E+01  0.51100000000E-03 0. -1.
        -11    1    3    3    0    0 -0.21256216314E+02 -0.27753533214E+01 -0.14359393073E+02  0.25801579171E+02  0.51100000000E-03 0.  1.
        -12    1    3    3    0    0 -0.13770031952E+02 -0.86905392914E+01 -0.87787882862E+01  0.18498820960E+02  0.00000000000E+00 0.  1.
</event>
<event>
 7    1  0.3086024E-009  0.4614232E+02  0.7816164E-02  0.1320468E+00
        -11   -1    0    0    0    0  0.00000000000E+00  0.00000000000E+00  0.45593999997E+02  0.45594000000E+02  0.51100000000E-03 0.  1.
         11   -1    0    0    0    0 -0.00000000000E+00 -0.00000000000E+00 -0.45593999997E+02  0.45594000000E+02  0.51100000000E-03 0. -1.
    9900012    2    1    2    0    0  0.21750344004E+02  0.42456270137E+01  0.39217478227E+02  0.46142318615E+02  0.10000007783E+02 0.  0.
         12    1    1    2    0    0 -0.21750344004E+02 -0.42456270137E+01 -0.39217478227E+02  0.45045681385E+02  0.00000000000E+00 0. -1.
         11    1    3    3    0    0  0.10703039147E+02 -0.22054655615E+01  0.18056228474E+02  0.21105603813E+02  0.51100000000E-03 0. -1.
        -11    1    3    3    0    0  0.29155473225E+00  0.15208554905E+01  0.24801810896E+01  0.29239193018E+01  0.51100000000E-03 0.  1.
        -12    1    3    3    0    0  0.10755750124E+02  0.49302370847E+01  0.18681068663E+02  0.22112795500E+02  0.00000000000E+00 0.  1.
</event>
<event>
 7    1  0.3086024E-009  0.4614232E+02  0.7816164E-02  0.1320468E+00
        -11   -1    0    0    0    0  0.00000000000E+00  0.00000000000E+00  0.45593999997E+02  0.45594000000E+02  0.51100000000E-03 0.  1.
         11   -1    0    0    0    0 -0.00000000000E+00 -0.00000000000E+00 -0.45593999997E+02  0.45594000000E+02  0.51100000000E-03 0. -1.
    9900012    2    1    2    0    0 -0.36831583347E+02  0.36268352703E+01  0.25678669490E+02  0.46142317270E+02  0.99999955177E+01 0.  0.
         12    1    1    2    0    0  0.36831583347E+02 -0.36268352703E+01 -0.25678669490E+02  0.45045682730E+02  0.00000000000E+00 0. -1.
         11    1    3    3    0    0 -0.43449719949E+01 -0.59658242821E+00  0.25787730495E+00  0.43933123263E+01  0.51100000000E-03 0. -1.
        -11    1    3    3    0    0 -0.21502930627E+02  0.18091462280E+01  0.14010558336E+02  0.25728287560E+02  0.51100000000E-03 0.  1.
         12    1    3    3    0    0 -0.10983680725E+02  0.24142714705E+01  0.11410233849E+02  0.16020717384E+02  0.00000000000E+00 0. -1.
</event>
<event>
 7    1  0.3086024E-009  0.4614232E+02  0.7816164E-02  0.1320468E+00
        -11   -1    0    0    0    0  0.00000000000E+00  0.00000000000E+00  0.45593999997E+02  0.45594000000E+02  0.51100000000E-03 0. -1.
         11   -1    0    0    0    0 -0.00000000000E+00 -0.00000000000E+00 -0.45593999997E+02  0.45594000000E+02  0.51100000000E-03 0.  1.
    9900012    2    1    2    0    0 -0.41855172650E+02 -0.49072975297E+01 -0.15911510796E+02  0.46142320713E+02  0.10000026919E+02 0.  0.
         12    1    1    2    0    0  0.41855172650E+02  0.49072975297E+01  0.15911510796E+02  0.45045679287E+02  0.00000000000E+00 0. -1.
         11    1    3    3    0    0 -0.26595110012E+01 -0.25509350020E+01 -0.18743249509E+01  0.41344119815E+01  0.51100000000E-03 0. -1.
        -11    1    3    3    0    0 -0.29893225835E+02  0.79607366283E-02 -0.93146715194E+01  0.31310830714E+02  0.51100000000E-03 0.  1.
         12    1    3    3    0    0 -0.93024358131E+01 -0.23643232643E+01 -0.47225143262E+01  0.10697078018E+02  0.00000000000E+00 0. -1.
</event>
<event>
 7    1  0.3086024E-009  0.4614232E+02  0.7816164E-02  0.1320468E+00
        -11   -1    0    0    0    0  0.00000000000E+00  0.00000000000E+00  0.45593999997E+02  0.45594000000E+02  0.51100000000E-03 0. -1.
         11   -1    0    0    0    0 -0.00000000000E+00 -0.00000000000E+00 -0.45593999997E+02  0.45594000000E+02  0.51100000000E-03 0.  1.
    9900012    2    1    2    0    0 -0.34564929514E+02  0.14413986617E+02 -0.25032302052E+02  0.46142317537E+02  0.99999979593E+01 0.  0.
         12    1    1    2    0    0  0.34564929514E+02 -0.14413986617E+02  0.25032302052E+02  0.45045682463E+02  0.00000000000E+00 0. -1.
         11    1    3    3    0    0 -0.46749105125E+00  0.10415105372E+01 -0.23106420160E+01  0.25772774141E+01  0.51100000000E-03 0. -1.
        -11    1    3    3    0    0 -0.15556573197E+02  0.52760954993E+01 -0.66302007705E+01  0.17714505804E+02  0.51100000000E-03 0.  1.
        -12    1    3    3    0    0 -0.18540865266E+02  0.80963805802E+01 -0.16091459265E+02  0.25850534319E+02  0.00000000000E+00 0.  1.
</event>
<event>
 7    1  0.3086024E-009  0.4614232E+02  0.7816164E-02  0.1320468E+00
        -11   -1    0    0    0    0  0.00000000000E+00  0.00000000000E+00  0.45593999997E+02  0.45594000000E+02  0.51100000000E-03 0.  1.
         11   -1    0    0    0    0 -0.00000000000E+00 -0.00000000000E+00 -0.45593999997E+02  0.45594000000E+02  0.51100000000E-03 0. -1.
    9900012    2    1    2    0    0  0.15119040923E+01 -0.10590838209E+02  0.43756848344E+02  0.46142317799E+02  0.10000000349E+02 0.  0.
         12    1    1    2    0    0 -0.15119040923E+01  0.10590838209E+02 -0.43756848344E+02  0.45045682201E+02  0.00000000000E+00 0. -1.
         11    1    3    3    0    0  0.10013076287E+01 -0.32632314485E+01  0.59434681085E+01  0.68539120122E+01  0.51100000000E-03 0. -1.
        -11    1    3    3    0    0 -0.15620702278E+01 -0.20976676388E+01  0.26743291639E+02  0.26870874955E+02  0.51100000000E-03 0.  1.
        -12    1    3    3    0    0  0.20726666914E+01 -0.52299391214E+01  0.11070088596E+02  0.12417530832E+02  0.00000000000E+00 0.  1.
</event>
<event>
 7    1  0.3086024E-009  0.4614232E+02  0.7816164E-02  0.1320468E+00
        -11   -1    0    0    0    0  0.00000000000E+00  0.00000000000E+00  0.45593999997E+02  0.45594000000E+02  0.51100000000E-03 0.  1.
         11   -1    0    0    0    0 -0.00000000000E+00 -0.00000000000E+00 -0.45593999997E+02  0.45594000000E+02  0.51100000000E-03 0. -1.
    9900012    2    1    2    0    0  0.52163567855E+01 -0.16152881605E+01  0.44713464995E+02  0.46142317790E+02  0.10000000261E+02 0.  0.
         12    1    1    2    0    0 -0.52163567855E+01  0.16152881605E+01 -0.44713464995E+02  0.45045682210E+02  0.00000000000E+00 0. -1.
         11    1    3    3    0    0 -0.17975601662E+01  0.14740730152E+00  0.31206109408E+01  0.36043257856E+01  0.51100000000E-03 0. -1.
        -11    1    3    3    0    0  0.33238290321E+01  0.83237749633E+00  0.28163558721E+02  0.28371230707E+02  0.51100000000E-03 0.  1.
         12    1    3    3    0    0  0.36900879196E+01 -0.25950729584E+01  0.13429295333E+02  0.14166761297E+02  0.00000000000E+00 0. -1.
</event>
<event>
 7    1  0.3086024E-009  0.4614232E+02  0.7816164E-02  0.1320468E+00
        -11   -1    0    0    0    0  0.00000000000E+00  0.00000000000E+00  0.45593999997E+02  0.45594000000E+02  0.51100000000E-03 0.  1.
         11   -1    0    0    0    0 -0.00000000000E+00 -0.00000000000E+00 -0.45593999997E+02  0.45594000000E+02  0.51100000000E-03 0. -1.
    9900012    2    1    2    0    0  0.12641911761E+02 -0.34757048231E+02  0.25714639446E+02  0.46142322999E+02  0.10000047761E+02 0.  0.
         12    1    1    2    0    0 -0.12641911761E+02  0.34757048231E+02 -0.25714639446E+02  0.45045677001E+02  0.00000000000E+00 0. -1.
         11    1    3    3    0    0 -0.33409885801E+00  0.79651266366E-01  0.99676577153E+00  0.10542810989E+01  0.51100000000E-03 0. -1.
        -11    1    3    3    0    0  0.69332000002E+01 -0.26627870601E+02  0.18058671466E+02  0.32912434889E+02  0.51100000000E-03 0.  1.
        -12    1    3    3    0    0  0.60428106189E+01 -0.82088288960E+01  0.66592022084E+01  0.12175607010E+02  0.00000000000E+00 0.  1.
</event>
<event>
 7    1  0.3086024E-009  0.4614232E+02  0.7816164E-02  0.1320468E+00
        -11   -1    0    0    0    0  0.00000000000E+00  0.00000000000E+00  0.45593999997E+02  0.45594000000E+02  0.51100000000E-03 0.  1.
         11   -1    0    0    0    0 -0.00000000000E+00 -0.00000000000E+00 -0.45593999997E+02  0.45594000000E+02  0.51100000000E-03 0. -1.
    9900012    2    1    2    0    0 -0.18268626124E+02  0.24504997666E+02  0.33088910074E+02  0.46142316733E+02  0.99999906271E+01 0.  0.
         12    1    1    2    0    0  0.18268626124E+02 -0.24504997666E+02 -0.33088910074E+02  0.45045683267E+02  0.00000000000E+00 0. -1.
         11    1    3    3    0    0 -0.42958177634E+01  0.92311570082E+01  0.70989948859E+01  0.12412253567E+02  0.51100000000E-03 0. -1.
        -11    1    3    3    0    0 -0.68659971031E+01  0.34226939864E+01  0.97562164871E+01  0.12411305763E+02  0.51100000000E-03 0.  1.
        -12    1    3    3    0    0 -0.71068112576E+01  0.11851146671E+02  0.16233698701E+02  0.21318757403E+02  0.00000000000E+00 0.  1.
</event>
<event>
 7    1  0.3086024E-009  0.4614232E+02  0.7816164E-02  0.1320468E+00
        -11   -1    0    0    0    0  0.00000000000E+00  0.00000000000E+00  0.45593999997E+02  0.45594000000E+02  0.51100000000E-03 0.  1.
         11   -1    0    0    0    0 -0.00000000000E+00 -0.00000000000E+00 -0.45593999997E+02  0.45594000000E+02  0.51100000000E-03 0. -1.
    9900012    2    1    2    0    0 -0.24149827755E+02 -0.38023395552E+02 -0.34723229286E+00  0.46142319184E+02  0.10000012979E+02 0.  0.
         12    1    1    2    0    0  0.24149827755E+02  0.38023395552E+02  0.34723229286E+00  0.45045680816E+02  0.00000000000E+00 0. -1.
         11    1    3    3    0    0 -0.48452198655E+01 -0.71424130218E+01 -0.15218192153E+01  0.87639119863E+01  0.51100000000E-03 0. -1.
        -11    1    3    3    0    0 -0.12725337169E+02 -0.26181382316E+02 -0.53166591662E+00  0.29114973037E+02  0.51100000000E-03 0.  1.
        -12    1    3    3    0    0 -0.65792707206E+01 -0.46996002144E+01  0.17062528391E+01  0.82634341615E+01  0.00000000000E+00 0.  1.
</event>
<event>
 7    1  0.3086024E-009  0.4614232E+02  0.7816164E-02  0.1320468E+00
        -11   -1    0    0    0    0  0.00000000000E+00  0.00000000000E+00  0.45593999997E+02  0.45594000000E+02  0.51100000000E-03 0. -1.
         11   -1    0    0    0    0 -0.00000000000E+00 -0.00000000000E+00 -0.45593999997E+02  0.45594000000E+02  0.51100000000E-03 0.  1.
    9900012    2    1    2    0    0 -0.30155980643E+02 -0.14519600897E+02 -0.30148159484E+02  0.46142317643E+02  0.99999989224E+01 0.  0.
         12    1    1    2    0    0  0.30155980643E+02  0.14519600897E+02  0.30148159484E+02  0.45045682357E+02  0.00000000000E+00 0. -1.
         11    1    3    3    0    0 -0.27086116397E+01 -0.97651575370E+00 -0.69999938797E+01  0.75690207167E+01  0.51100000000E-03 0. -1.
        -11    1    3    3    0    0 -0.13262171860E+02 -0.67161098471E+01 -0.13683232467E+02  0.20204509025E+02  0.51100000000E-03 0.  1.
         12    1    3    3    0    0 -0.14185197143E+02 -0.68269752960E+01 -0.94649331380E+01  0.18368787902E+02  0.00000000000E+00 0. -1.
</event>
<event>
 7    1  0.3086024E-009  0.4614232E+02  0.7816164E-02  0.1320468E+00
        -11   -1    0    0    0    0  0.00000000000E+00  0.00000000000E+00  0.45593999997E+02  0.45594000000E+02  0.51100000000E-03 0.  1.
         11   -1    0    0    0    0 -0.00000000000E+00 -0.00000000000E+00 -0.45593999997E+02  0.45594000000E+02  0.51100000000E-03 0. -1.
    9900012    2    1    2    0    0  0.36341600516E+01  0.44633932114E+02  0.48701630068E+01  0.46142317599E+02  0.99999985205E+01 0.  0.
         12    1    1    2    0    0 -0.36341600516E+01 -0.44633932114E+02 -0.48701630068E+01  0.45045682401E+02  0.00000000000E+00 0. -1.
         11    1    3    3    0    0  0.11843940883E+01  0.36630697511E+01  0.32709377820E+01  0.50517228341E+01  0.51100000000E-03 0. -1.
        -11    1    3    3    0    0  0.47653589560E+00  0.15454221397E+02  0.91528653008E+00  0.15488634386E+02  0.51100000000E-03 0.  1.
         12    1    3    3    0    0  0.19732300677E+01  0.25516640967E+02  0.68393869468E+00  0.25601960379E+02  0.00000000000E+00 0. -1.
</event>
<event>
 7    1  0.3086024E-009  0.4614232E+02  0.7816164E-02  0.1320468E+00
        -11   -1    0    0    0    0  0.00000000000E+00  0.00000000000E+00  0.45593999997E+02  0.45594000000E+02  0.51100000000E-03 0.  1.
         11   -1    0    0    0    0 -0.00000000000E+00 -0.00000000000E+00 -0.45593999997E+02  0.45594000000E+02  0.51100000000E-03 0. -1.
    9900012    2    1    2    0    0  0.31602148990E+02 -0.21237911851E+01  0.32029784693E+02  0.46142318550E+02  0.10000007198E+02 0.  0.
         12    1    1    2    0    0 -0.31602148990E+02  0.21237911851E+01 -0.32029784693E+02  0.45045681450E+02  0.00000000000E+00 0. -1.
         11    1    3    3    0    0  0.58376292954E+00  0.13101050651E+00  0.41262467576E+01  0.41693950972E+01  0.51100000000E-03 0. -1.
        -11    1    3    3    0    0  0.34680387153E+01 -0.37941149497E-01  0.49560834127E+01  0.60490904371E+01  0.51100000000E-03 0.  1.
         12    1    3    3    0    0  0.27550347345E+02 -0.22168605421E+01  0.22947454523E+02  0.35923833016E+02  0.00000000000E+00 0. -1.
</event>
<event>
 7    1  0.3086024E-009  0.4614232E+02  0.7816164E-02  0.1320468E+00
        -11   -1    0    0    0    0  0.00000000000E+00  0.00000000000E+00  0.45593999997E+02  0.45594000000E+02  0.51100000000E-03 0. -1.
         11   -1    0    0    0    0 -0.00000000000E+00 -0.00000000000E+00 -0.45593999997E+02  0.45594000000E+02  0.51100000000E-03 0.  1.
    9900012    2    1    2    0    0  0.11428010664E+02 -0.88638799657E+01 -0.42660821462E+02  0.46142317814E+02  0.10000000479E+02 0.  0.
         12    1    1    2    0    0 -0.11428010664E+02  0.88638799657E+01  0.42660821462E+02  0.45045682186E+02  0.00000000000E+00 0. -1.
         11    1    3    3    0    0  0.42474939159E+01 -0.17192118865E+01 -0.19095116122E+02  0.19637218592E+02  0.51100000000E-03 0. -1.
        -11    1    3    3    0    0  0.69444649228E+01 -0.24209546437E+01 -0.15468567851E+02  0.17127848846E+02  0.51100000000E-03 0.  1.
         12    1    3    3    0    0  0.23605182522E+00 -0.47237134355E+01 -0.80971374894E+01  0.93772503756E+01  0.00000000000E+00 0. -1.
</event>
<event>
 7    1  0.3086024E-009  0.4614232E+02  0.7816164E-02  0.1320468E+00
        -11   -1    0    0    0    0  0.00000000000E+00  0.00000000000E+00  0.45593999997E+02  0.45594000000E+02  0.51100000000E-03 0. -1.
         11   -1    0    0    0    0 -0.00000000000E+00 -0.00000000000E+00 -0.45593999997E+02  0.45594000000E+02  0.51100000000E-03 0.  1.
    9900012    2    1    2    0    0 -0.41949542133E+02  0.10724771467E+01 -0.16376786009E+02  0.46142318604E+02  0.10000007689E+02 0.  0.
         12    1    1    2    0    0  0.41949542133E+02 -0.10724771467E+01  0.16376786009E+02  0.45045681396E+02  0.00000000000E+00 0. -1.
         11    1    3    3    0    0 -0.10995797186E+02 -0.27257605671E+01 -0.68512532503E+01  0.13239221948E+02  0.51100000000E-03 0. -1.
        -11    1    3    3    0    0 -0.72257412312E+01 -0.72327078664E+00 -0.31864329357E+01  0.79301836098E+01  0.51100000000E-03 0.  1.
         12    1    3    3    0    0 -0.23728003716E+02  0.45215085005E+01 -0.63390998232E+01  0.24972913047E+02  0.00000000000E+00 0. -1.
</event>
<event>
 7    1  0.3086024E-009  0.4614232E+02  0.7816164E-02  0.1320468E+00
        -11   -1    0    0    0    0  0.00000000000E+00  0.00000000000E+00  0.45593999997E+02  0.45594000000E+02  0.51100000000E-03 0. -1.
         11   -1    0    0    0    0 -0.00000000000E+00 -0.00000000000E+00 -0.45593999997E+02  0.45594000000E+02  0.51100000000E-03 0.  1.
    9900012    2    1    2    0    0 -0.24458748763E+02 -0.37078303618E+02 -0.74888230705E+01  0.46142318063E+02  0.10000002749E+02 0.  0.
         12    1    1    2    0    0  0.24458748763E+02  0.37078303618E+02  0.74888230705E+01  0.45045681937E+02  0.00000000000E+00 0. -1.
         11    1    3    3    0    0 -0.56990118081E+01 -0.11467579946E+02 -0.20335027539E+01  0.12966081101E+02  0.51100000000E-03 0. -1.
        -11    1    3    3    0    0 -0.95730762087E+01 -0.87660409310E+01  0.77427347404E+00  0.13003336548E+02  0.51100000000E-03 0.  1.
        -12    1    3    3    0    0 -0.91866607464E+01 -0.16844682741E+02 -0.62295937906E+01  0.20172900414E+02  0.00000000000E+00 0.  1.
</event>
<event>
 7    1  0.3446349E-009  0.4614232E+02  0.7816164E-02  0.1320468E+00
        -11   -1    0    0    0    0  0.00000000000E+00  0.00000000000E+00  0.45593999997E+02  0.45594000000E+02  0.51100000000E-03 0. -1.
         11   -1    0    0    0    0 -0.00000000000E+00 -0.00000000000E+00 -0.45593999997E+02  0.45594000000E+02  0.51100000000E-03 0.  1.
    9900012    2    1    2    0    0  0.16239618908E+02  0.17561171650E+02 -0.38170584505E+02  0.46142317705E+02  0.99999994862E+01 0.  0.
         12    1    1    2    0    0 -0.16239618908E+02 -0.17561171650E+02  0.38170584505E+02  0.45045682295E+02  0.00000000000E+00 0. -1.
         11    1    3    3    0    0 -0.79159796322E+00  0.30365080242E+01 -0.35022292767E+01  0.47024056061E+01  0.51100000000E-03 0. -1.
        -11    1    3    3    0    0  0.66426290876E+01  0.57112595107E+01 -0.17048655353E+02  0.19167672160E+02  0.51100000000E-03 0.  1.
         12    1    3    3    0    0  0.10388587783E+02  0.88134041147E+01 -0.17619699875E+02  0.22272239939E+02  0.00000000000E+00 0. -1.
</event>
<event>
 7    1  0.3086024E-009  0.4614232E+02  0.7816164E-02  0.1320468E+00
        -11   -1    0    0    0    0  0.00000000000E+00  0.00000000000E+00  0.45593999997E+02  0.45594000000E+02  0.51100000000E-03 0.  1.
         11   -1    0    0    0    0 -0.00000000000E+00 -0.00000000000E+00 -0.45593999997E+02  0.45594000000E+02  0.51100000000E-03 0. -1.
    9900012    2    1    2    0    0 -0.76337788991E+01 -0.43689137049E+02 -0.78802415692E+01  0.46142317815E+02  0.10000000491E+02 0.  0.
         12    1    1    2    0    0  0.76337788991E+01  0.43689137049E+02  0.78802415692E+01  0.45045682185E+02  0.00000000000E+00 0. -1.
         11    1    3    3    0    0 -0.61535569065E+01 -0.15824279659E+02 -0.53155070899E+01  0.17791253615E+02  0.51100000000E-03 0. -1.
        -11    1    3    3    0    0 -0.26673666732E+01 -0.11504901325E+02 -0.16232394572E+01  0.11921095003E+02  0.51100000000E-03 0.  1.
         12    1    3    3    0    0  0.11871446806E+01 -0.16359956065E+02 -0.94149502201E+00  0.16429969197E+02  0.00000000000E+00 0. -1.
</event>
<event>
 7    1  0.3086024E-009  0.4614232E+02  0.7816164E-02  0.1320468E+00
        -11   -1    0    0    0    0  0.00000000000E+00  0.00000000000E+00  0.45593999997E+02  0.45594000000E+02  0.51100000000E-03 0. -1.
         11   -1    0    0    0    0 -0.00000000000E+00 -0.00000000000E+00 -0.45593999997E+02  0.45594000000E+02  0.51100000000E-03 0.  1.
    9900012    2    1    2    0    0  0.44905234371E+02  0.32622449602E+01  0.14110833818E+01  0.46142317938E+02  0.10000001618E+02 0.  0.
         12    1    1    2    0    0 -0.44905234371E+02 -0.32622449602E+01 -0.14110833818E+01  0.45045682062E+02  0.00000000000E+00 0. -1.
         11    1    3    3    0    0  0.53784339671E+01 -0.10449430646E+01 -0.11390285572E+01  0.55961454826E+01  0.51100000000E-03 0. -1.
        -11    1    3    3    0    0  0.10663247485E+01 -0.10970761336E+01 -0.44284175974E+00  0.15927126538E+01  0.51100000000E-03 0.  1.
        -12    1    3    3    0    0  0.38460475655E+02  0.54042641585E+01  0.29929536987E+01  0.38953459802E+02  0.00000000000E+00 0.  1.
</event>
<event>
 7    1  0.3086024E-009  0.4614231E+02  0.7816164E-02  0.1320468E+00
        -11   -1    0    0    0    0  0.00000000000E+00  0.00000000000E+00  0.45593999997E+02  0.45594000000E+02  0.51100000000E-03 0. -1.
         11   -1    0    0    0    0 -0.00000000000E+00 -0.00000000000E+00 -0.45593999997E+02  0.45594000000E+02  0.51100000000E-03 0.  1.
    9900012    2    1    2    0    0  0.40151702412E+02 -0.16226857648E+01 -0.20354906055E+02  0.46142306353E+02  0.99998959687E+01 0.  0.
         12    1    1    2    0    0 -0.40151702412E+02  0.16226857648E+01  0.20354906055E+02  0.45045693647E+02  0.00000000000E+00 0. -1.
         11    1    3    3    0    0  0.13753545947E+02 -0.82972163139E+00 -0.11026336006E+02  0.17647338329E+02  0.51100000000E-03 0. -1.
        -11    1    3    3    0    0  0.90490490850E+01 -0.27200714507E+01 -0.38010786678E+01  0.10184904385E+02  0.51100000000E-03 0.  1.
         12    1    3    3    0    0  0.17349107380E+02  0.19271073173E+01 -0.55274913811E+01  0.18310063639E+02  0.00000000000E+00 0. -1.
</event>
<event>
 7    1  0.3086024E-009  0.4614232E+02  0.7816164E-02  0.1320468E+00
        -11   -1    0    0    0    0  0.00000000000E+00  0.00000000000E+00  0.45593999997E+02  0.45594000000E+02  0.51100000000E-03 0. -1.
         11   -1    0    0    0    0 -0.00000000000E+00 -0.00000000000E+00 -0.45593999997E+02  0.45594000000E+02  0.51100000000E-03 0.  1.
    9900012    2    1    2    0    0 -0.38293109626E+02  0.23578901101E+02 -0.26051255672E+01  0.46142317619E+02  0.99999987032E+01 0.  0.
         12    1    1    2    0    0  0.38293109626E+02 -0.23578901101E+02  0.26051255672E+01  0.45045682381E+02  0.00000000000E+00 0. -1.
         11    1    3    3    0    0 -0.92361404604E+01  0.45338823405E+01  0.23357773590E+01  0.10550745747E+02  0.51100000000E-03 0. -1.
        -11    1    3    3    0    0 -0.22576634858E+02  0.13112321013E+02 -0.58600164470E+01  0.26757750221E+02  0.51100000000E-03 0.  1.
        -12    1    3    3    0    0 -0.64803343076E+01  0.59326977478E+01  0.91911352091E+00  0.88338216514E+01  0.00000000000E+00 0.  1.
</event>
<event>
 7    1  0.3086024E-009  0.4614232E+02  0.7816164E-02  0.1320468E+00
        -11   -1    0    0    0    0  0.00000000000E+00  0.00000000000E+00  0.45593999997E+02  0.45594000000E+02  0.51100000000E-03 0.  1.
         11   -1    0    0    0    0 -0.00000000000E+00 -0.00000000000E+00 -0.45593999997E+02  0.45594000000E+02  0.51100000000E-03 0. -1.
    9900012    2    1    2    0    0 -0.19302965250E+02  0.17977916582E+02  0.36514428886E+02  0.46142317977E+02  0.10000001969E+02 0.  0.
         12    1    1    2    0    0  0.19302965250E+02 -0.17977916582E+02 -0.36514428886E+02  0.45045682023E+02  0.00000000000E+00 0. -1.
         11    1    3    3    0    0  0.48473200998E+00 -0.19483580781E+00  0.79016334378E+00  0.94725101451E+00  0.51100000000E-03 0. -1.
        -11    1    3    3    0    0 -0.90944693674E+01  0.55460726650E+01  0.18240615090E+02  0.21123170552E+02  0.51100000000E-03 0.  1.
         12    1    3    3    0    0 -0.10693227892E+02  0.12626679725E+02  0.17483650452E+02  0.24071896410E+02  0.00000000000E+00 0. -1.
</event>
<event>
 7    1  0.3086024E-009  0.4614232E+02  0.7816164E-02  0.1320468E+00
        -11   -1    0    0    0    0  0.00000000000E+00  0.00000000000E+00  0.45593999997E+02  0.45594000000E+02  0.51100000000E-03 0.  1.
         11   -1    0    0    0    0 -0.00000000000E+00 -0.00000000000E+00 -0.45593999997E+02  0.45594000000E+02  0.51100000000E-03 0. -1.
    9900012    2    1    2    0    0  0.32584620597E+02  0.69026306939E+01  0.30326715007E+02  0.46142318153E+02  0.10000003576E+02 0.  0.
         12    1    1    2    0    0 -0.32584620597E+02 -0.69026306939E+01 -0.30326715007E+02  0.45045681847E+02  0.00000000000E+00 0. -1.
         11    1    3    3    0    0  0.10059191887E+02  0.27622461785E+01  0.64130593662E+01  0.12245189916E+02  0.51100000000E-03 0. -1.
        -11    1    3    3    0    0  0.12297348074E+02 -0.92936295960E+00  0.14967621966E+02  0.19393766853E+02  0.51100000000E-03 0.  1.
        -12    1    3    3    0    0  0.10228080636E+02  0.50697474750E+01  0.89460336745E+01  0.14503361385E+02  0.00000000000E+00 0.  1.
</event>
<event>
 7    1  0.3086024E-009  0.4614232E+02  0.7816164E-02  0.1320468E+00
        -11   -1    0    0    0    0  0.00000000000E+00  0.00000000000E+00  0.45593999997E+02  0.45594000000E+02  0.51100000000E-03 0.  1.
         11   -1    0    0    0    0 -0.00000000000E+00 -0.00000000000E+00 -0.45593999997E+02  0.45594000000E+02  0.51100000000E-03 0. -1.
    9900012    2    1    2    0    0 -0.32650470355E+02 -0.27361287056E+02 -0.14643098017E+02  0.46142316929E+02  0.99999924124E+01 0.  0.
         12    1    1    2    0    0  0.32650470355E+02  0.27361287056E+02  0.14643098017E+02  0.45045683071E+02  0.00000000000E+00 0. -1.
         11    1    3    3    0    0 -0.33500686733E+01 -0.47767639109E+01 -0.49327234971E+01  0.76401698238E+01  0.51100000000E-03 0.  1.
        -11    1    3    3    0    0 -0.11184432499E+02 -0.66592320457E+01 -0.48874442170E+01  0.13904100582E+02  0.51100000000E-03 0. -1.
        -12    1    3    3    0    0 -0.18115969183E+02 -0.15925291099E+02 -0.48229303030E+01  0.24598046523E+02  0.00000000000E+00 0.  1.
</event>
<event>
 7    1  0.3086024E-009  0.4614232E+02  0.7816164E-02  0.1320468E+00
        -11   -1    0    0    0    0  0.00000000000E+00  0.00000000000E+00  0.45593999997E+02  0.45594000000E+02  0.51100000000E-03 0. -1.
         11   -1    0    0    0    0 -0.00000000000E+00 -0.00000000000E+00 -0.45593999997E+02  0.45594000000E+02  0.51100000000E-03 0.  1.
    9900012    2    1    2    0    0  0.31774632206E+02 -0.29655973417E+02 -0.11832560732E+02  0.46142317581E+02  0.99999983557E+01 0.  0.
         12    1    1    2    0    0 -0.31774632206E+02  0.29655973417E+02  0.11832560732E+02  0.45045682419E+02  0.00000000000E+00 0. -1.
         11    1    3    3    0    0  0.16305744310E+02 -0.18321691801E+02 -0.49412323021E+01  0.25019541660E+02  0.51100000000E-03 0.  1.
        -11    1    3    3    0    0  0.67804551172E+01 -0.41580453974E+01 -0.57119678321E+01  0.97923689625E+01  0.51100000000E-03 0. -1.
         12    1    3    3    0    0  0.86884327791E+01 -0.71762362183E+01 -0.11793605978E+01  0.11330406958E+02  0.00000000000E+00 0. -1.
</event>
<event>
 7    1  0.3086024E-009  0.4614231E+02  0.7816164E-02  0.1320468E+00
        -11   -1    0    0    0    0  0.00000000000E+00  0.00000000000E+00  0.45593999997E+02  0.45594000000E+02  0.51100000000E-03 0. -1.
         11   -1    0    0    0    0 -0.00000000000E+00 -0.00000000000E+00 -0.45593999997E+02  0.45594000000E+02  0.51100000000E-03 0.  1.
    9900012    2    1    2    0    0 -0.23202166040E+02  0.86402762390E+01 -0.37631358598E+02  0.46142311723E+02  0.99999449351E+01 0.  0.
         12    1    1    2    0    0  0.23202166040E+02 -0.86402762390E+01  0.37631358598E+02  0.45045688277E+02  0.00000000000E+00 0. -1.
         11    1    3    3    0    0 -0.40731339764E+01  0.11699450056E+01 -0.67045433237E+01  0.79315883117E+01  0.51100000000E-03 0.  1.
        -11    1    3    3    0    0 -0.64136026687E+01 -0.77582187871E+00 -0.49598073122E+01  0.81446846234E+01  0.51100000000E-03 0. -1.
        -12    1    3    3    0    0 -0.12715429395E+02  0.82461531121E+01 -0.25967007962E+02  0.30066038787E+02  0.00000000000E+00 0.  1.
</event>
<event>
 7    1  0.3086024E-009  0.4614232E+02  0.7816164E-02  0.1320468E+00
        -11   -1    0    0    0    0  0.00000000000E+00  0.00000000000E+00  0.45593999997E+02  0.45594000000E+02  0.51100000000E-03 0. -1.
         11   -1    0    0    0    0 -0.00000000000E+00 -0.00000000000E+00 -0.45593999997E+02  0.45594000000E+02  0.51100000000E-03 0.  1.
    9900012    2    1    2    0    0 -0.33427951707E+02  0.29959811156E+02  0.37543657085E+01  0.46142317613E+02  0.99999986465E+01 0.  0.
         12    1    1    2    0    0  0.33427951707E+02 -0.29959811156E+02 -0.37543657085E+01  0.45045682387E+02  0.00000000000E+00 0. -1.
         11    1    3    3    0    0 -0.12074810531E+02  0.15183341232E+02  0.31421419126E+01  0.19652174342E+02  0.51100000000E-03 0. -1.
        -11    1    3    3    0    0 -0.74347767949E+01  0.48711712891E+01  0.26765189607E+01  0.92826703985E+01  0.51100000000E-03 0.  1.
         12    1    3    3    0    0 -0.13918364382E+02  0.99052986356E+01 -0.20642951648E+01  0.17207472872E+02  0.00000000000E+00 0. -1.
</event>
<event>
 7    1  0.3086024E-009  0.4614232E+02  0.7816164E-02  0.1320468E+00
        -11   -1    0    0    0    0  0.00000000000E+00  0.00000000000E+00  0.45593999997E+02  0.45594000000E+02  0.51100000000E-03 0. -1.
         11   -1    0    0    0    0 -0.00000000000E+00 -0.00000000000E+00 -0.45593999997E+02  0.45594000000E+02  0.51100000000E-03 0.  1.
    9900012    2    1    2    0    0 -0.26405487057E+02  0.30849264187E+02 -0.19498373841E+02  0.46142318409E+02  0.10000005906E+02 0.  0.
         12    1    1    2    0    0  0.26405487057E+02 -0.30849264187E+02  0.19498373841E+02  0.45045681591E+02  0.00000000000E+00 0. -1.
         11    1    3    3    0    0 -0.45088153891E+01  0.10914682652E+02 -0.63808836273E+01  0.13422942663E+02  0.51100000000E-03 0. -1.
        -11    1    3    3    0    0 -0.60544121059E+01  0.77170250083E+01 -0.59270916477E+01  0.11460313983E+02  0.51100000000E-03 0.  1.
         12    1    3    3    0    0 -0.15842259561E+02  0.12217556527E+02 -0.71903985663E+01  0.21259061763E+02  0.00000000000E+00 0. -1.
</event>
<event>
 7    1  0.3086024E-009  0.4614232E+02  0.7816164E-02  0.1320468E+00
        -11   -1    0    0    0    0  0.00000000000E+00  0.00000000000E+00  0.45593999997E+02  0.45594000000E+02  0.51100000000E-03 0.  1.
         11   -1    0    0    0    0 -0.00000000000E+00 -0.00000000000E+00 -0.45593999997E+02  0.45594000000E+02  0.51100000000E-03 0. -1.
    9900012    2    1    2    0    0 -0.17512760405E+02 -0.24276605570E+02  0.33660999491E+02  0.46142320499E+02  0.10000024963E+02 0.  0.
         12    1    1    2    0    0  0.17512760405E+02  0.24276605570E+02 -0.33660999491E+02  0.45045679501E+02  0.00000000000E+00 0. -1.
         11    1    3    3    0    0 -0.11313625054E+02 -0.92835663138E+01  0.16761529146E+02  0.22251552192E+02  0.51100000000E-03 0. -1.
        -11    1    3    3    0    0 -0.61039837374E+01 -0.12890303200E+02  0.12304561402E+02  0.18836686694E+02  0.51100000000E-03 0.  1.
         12    1    3    3    0    0 -0.95151613361E-01 -0.21027360560E+01  0.45949089440E+01  0.50540816134E+01  0.00000000000E+00 0. -1.
</event>
<event>
 7    1  0.3086024E-009  0.4614232E+02  0.7816164E-02  0.1320468E+00
        -11   -1    0    0    0    0  0.00000000000E+00  0.00000000000E+00  0.45593999997E+02  0.45594000000E+02  0.51100000000E-03 0.  1.
         11   -1    0    0    0    0 -0.00000000000E+00 -0.00000000000E+00 -0.45593999997E+02  0.45594000000E+02  0.51100000000E-03 0. -1.
    9900012    2    1    2    0    0  0.37332851764E+02 -0.10795867786E+02  0.22777641236E+02  0.46142317384E+02  0.99999965619E+01 0.  0.
         12    1    1    2    0    0 -0.37332851764E+02  0.10795867786E+02 -0.22777641236E+02  0.45045682616E+02  0.00000000000E+00 0. -1.
         11    1    3    3    0    0  0.17751730965E+02 -0.67078858346E+01  0.11531809370E+02  0.22205907147E+02  0.51100000000E-03 0. -1.
        -11    1    3    3    0    0  0.90752951111E+01 -0.15143851476E+01  0.90372888643E+01  0.12896779986E+02  0.51100000000E-03 0.  1.
         12    1    3    3    0    0  0.10505825687E+02 -0.25735968036E+01  0.22085430017E+01  0.11039630251E+02  0.00000000000E+00 0. -1.
</event>
<event>
 7    1  0.3086024E-009  0.4614232E+02  0.7816164E-02  0.1320468E+00
        -11   -1    0    0    0    0  0.00000000000E+00  0.00000000000E+00  0.45593999997E+02  0.45594000000E+02  0.51100000000E-03 0.  1.
         11   -1    0    0    0    0 -0.00000000000E+00 -0.00000000000E+00 -0.45593999997E+02  0.45594000000E+02  0.51100000000E-03 0. -1.
    9900012    2    1    2    0    0  0.11546775838E+02 -0.34019461844E+02  0.27174648623E+02  0.46142319361E+02  0.10000014592E+02 0.  0.
         12    1    1    2    0    0 -0.11546775838E+02  0.34019461844E+02 -0.27174648623E+02  0.45045680639E+02  0.00000000000E+00 0. -1.
         11    1    3    3    0    0  0.63224783846E+01 -0.13763545688E+02  0.12891366834E+02  0.19889601854E+02  0.51100000000E-03 0. -1.
        -11    1    3    3    0    0  0.21730456287E+01 -0.18101250659E+01  0.18077874354E+00  0.28339656444E+01  0.51100000000E-03 0.  1.
        -12    1    3    3    0    0  0.30512518250E+01 -0.18445791090E+02  0.14102503046E+02  0.23418751863E+02  0.00000000000E+00 0.  1.
</event>
<event>
 7    1  0.3086024E-009  0.4614232E+02  0.7816164E-02  0.1320468E+00
        -11   -1    0    0    0    0  0.00000000000E+00  0.00000000000E+00  0.45593999997E+02  0.45594000000E+02  0.51100000000E-03 0.  1.
         11   -1    0    0    0    0 -0.00000000000E+00 -0.00000000000E+00 -0.45593999997E+02  0.45594000000E+02  0.51100000000E-03 0. -1.
    9900012    2    1    2    0    0 -0.84532961155E+01 -0.38380417545E+02  0.22013605580E+02  0.46142317668E+02  0.99999991511E+01 0.  0.
         12    1    1    2    0    0  0.84532961155E+01  0.38380417545E+02 -0.22013605580E+02  0.45045682332E+02  0.00000000000E+00 0. -1.
         11    1    3    3    0    0 -0.39131577199E+01 -0.11160870500E+02  0.36830324233E+01  0.12387193457E+02  0.51100000000E-03 0. -1.
        -11    1    3    3    0    0 -0.53928372533E+01 -0.16632285002E+02  0.13483583769E+02  0.22079914618E+02  0.51100000000E-03 0.  1.
        -12    1    3    3    0    0  0.85269885769E+00 -0.10587262043E+02  0.48469893878E+01  0.11675209593E+02  0.00000000000E+00 0.  1.
</event>
<event>
 7    1  0.3086024E-009  0.4614232E+02  0.7816164E-02  0.1320468E+00
        -11   -1    0    0    0    0  0.00000000000E+00  0.00000000000E+00  0.45593999997E+02  0.45594000000E+02  0.51100000000E-03 0.  1.
         11   -1    0    0    0    0 -0.00000000000E+00 -0.00000000000E+00 -0.45593999997E+02  0.45594000000E+02  0.51100000000E-03 0. -1.
    9900012    2    1    2    0    0 -0.38353946046E+02  0.65955232100E+01  0.22684519087E+02  0.46142317522E+02  0.99999978185E+01 0.  0.
         12    1    1    2    0    0  0.38353946046E+02 -0.65955232100E+01 -0.22684519087E+02  0.45045682478E+02  0.00000000000E+00 0. -1.
         11    1    3    3    0    0 -0.21469557606E+02  0.48459513103E+01  0.96513358405E+01  0.24032757471E+02  0.51100000000E-03 0. -1.
        -11    1    3    3    0    0 -0.36653137362E+01  0.24649463389E+01  0.47841125916E+01  0.65113914633E+01  0.51100000000E-03 0.  1.
        -12    1    3    3    0    0 -0.13219074704E+02 -0.71537443910E+00  0.82490706546E+01  0.15598168587E+02  0.00000000000E+00 0.  1.
</event>
<event>
 7    1  0.3086024E-009  0.4614232E+02  0.7816164E-02  0.1320468E+00
        -11   -1    0    0    0    0  0.00000000000E+00  0.00000000000E+00  0.45593999997E+02  0.45594000000E+02  0.51100000000E-03 0.  1.
         11   -1    0    0    0    0 -0.00000000000E+00 -0.00000000000E+00 -0.45593999997E+02  0.45594000000E+02  0.51100000000E-03 0. -1.
    9900012    2    1    2    0    0  0.40076828394E+02  0.12828039331E+02  0.16074910842E+02  0.46142317345E+02  0.99999962094E+01 0.  0.
         12    1    1    2    0    0 -0.40076828394E+02 -0.12828039331E+02 -0.16074910842E+02  0.45045682655E+02  0.00000000000E+00 0. -1.
         11    1    3    3    0    0  0.21460205263E+02  0.62926114623E+01  0.50785639942E+01  0.22933145913E+02  0.51100000000E-03 0. -1.
        -11    1    3    3    0    0  0.73037928137E+00 -0.32261542917E+00  0.17811494712E+01  0.19519293814E+01  0.51100000000E-03 0.  1.
        -12    1    3    3    0    0  0.17886243850E+02  0.68580432983E+01  0.92151973770E+01  0.21257242051E+02  0.00000000000E+00 0.  1.
</event>
<event>
 7    1  0.3086024E-009  0.4614232E+02  0.7816164E-02  0.1320468E+00
        -11   -1    0    0    0    0  0.00000000000E+00  0.00000000000E+00  0.45593999997E+02  0.45594000000E+02  0.51100000000E-03 0.  1.
         11   -1    0    0    0    0 -0.00000000000E+00 -0.00000000000E+00 -0.45593999997E+02  0.45594000000E+02  0.51100000000E-03 0. -1.
    9900012    2    1    2    0    0 -0.94808480244E+01 -0.79622011678E+01  0.43310857990E+02  0.46142317115E+02  0.99999941094E+01 0.  0.
         12    1    1    2    0    0  0.94808480244E+01  0.79622011678E+01 -0.43310857990E+02  0.45045682885E+02  0.00000000000E+00 0. -1.
         11    1    3    3    0    0 -0.25758466239E+01  0.76526817049E+00  0.49207052864E+01  0.56065998590E+01  0.51100000000E-03 0. -1.
        -11    1    3    3    0    0 -0.88947424143E+00 -0.17138659623E+01  0.18541125094E+02  0.18641400725E+02  0.51100000000E-03 0.  1.
        -12    1    3    3    0    0 -0.60155271591E+01 -0.70136033760E+01  0.19849027610E+02  0.21894316532E+02  0.00000000000E+00 0.  1.
</event>
<event>
 7    1  0.3086024E-009  0.4614232E+02  0.7816164E-02  0.1320468E+00
        -11   -1    0    0    0    0  0.00000000000E+00  0.00000000000E+00  0.45593999997E+02  0.45594000000E+02  0.51100000000E-03 0.  1.
         11   -1    0    0    0    0 -0.00000000000E+00 -0.00000000000E+00 -0.45593999997E+02  0.45594000000E+02  0.51100000000E-03 0. -1.
    9900012    2    1    2    0    0  0.19611244835E+01  0.25774819638E+02  0.36890733537E+02  0.46142316993E+02  0.99999929968E+01 0.  0.
         12    1    1    2    0    0 -0.19611244835E+01 -0.25774819638E+02 -0.36890733537E+02  0.45045683007E+02  0.00000000000E+00 0. -1.
         11    1    3    3    0    0  0.17237904096E+01  0.22137188989E+02  0.33552149205E+02  0.40233981984E+02  0.51100000000E-03 0. -1.
        -11    1    3    3    0    0 -0.24664510404E-01  0.41760501774E+01  0.24653676959E+01  0.48495403452E+01  0.51100000000E-03 0.  1.
         12    1    3    3    0    0  0.26199858436E+00 -0.53841952845E+00  0.87321663662E+00  0.10587946644E+01  0.00000000000E+00 0. -1.
</event>
<event>
 7    1  0.3086024E-009  0.4614231E+02  0.7816164E-02  0.1320468E+00
        -11   -1    0    0    0    0  0.00000000000E+00  0.00000000000E+00  0.45593999997E+02  0.45594000000E+02  0.51100000000E-03 0.  1.
         11   -1    0    0    0    0 -0.00000000000E+00 -0.00000000000E+00 -0.45593999997E+02  0.45594000000E+02  0.51100000000E-03 0. -1.
    9900012    2    1    2    0    0 -0.29889490138E+02  0.17073318821E+02  0.29055706215E+02  0.46142313193E+02  0.99999583450E+01 0.  0.
         12    1    1    2    0    0  0.29889490138E+02 -0.17073318821E+02 -0.29055706215E+02  0.45045686807E+02  0.00000000000E+00 0. -1.
         11    1    3    3    0    0 -0.76839968974E+01  0.87126498989E+01  0.60830410822E+01  0.13113255341E+02  0.51100000000E-03 0. -1.
        -11    1    3    3    0    0 -0.11458959469E+02  0.40874754000E+01  0.11707756249E+02  0.16884512546E+02  0.51100000000E-03 0.  1.
         12    1    3    3    0    0 -0.10746533771E+02  0.42731935216E+01  0.11264908884E+02  0.16144545306E+02  0.00000000000E+00 0. -1.
</event>
<event>
 7    1  0.3086024E-009  0.4614232E+02  0.7816164E-02  0.1320468E+00
        -11   -1    0    0    0    0  0.00000000000E+00  0.00000000000E+00  0.45593999997E+02  0.45594000000E+02  0.51100000000E-03 0.  1.
         11   -1    0    0    0    0 -0.00000000000E+00 -0.00000000000E+00 -0.45593999997E+02  0.45594000000E+02  0.51100000000E-03 0. -1.
    9900012    2    1    2    0    0 -0.31423504794E+02  0.11180658914E+02  0.30276551709E+02  0.46142319067E+02  0.10000011910E+02 0.  0.
         12    1    1    2    0    0  0.31423504794E+02 -0.11180658914E+02 -0.30276551709E+02  0.45045680933E+02  0.00000000000E+00 0. -1.
         11    1    3    3    0    0 -0.51537401418E+01  0.37071772588E+01  0.43925574521E+01  0.77200234396E+01  0.51100000000E-03 0. -1.
        -11    1    3    3    0    0 -0.14241979415E+02  0.14698792694E-01  0.13098057983E+02  0.19349245900E+02  0.51100000000E-03 0.  1.
        -12    1    3    3    0    0 -0.12027785237E+02  0.74587828623E+01  0.12785936274E+02  0.19073049727E+02  0.00000000000E+00 0.  1.
</event>
<event>
 7    1  0.3086024E-009  0.4614232E+02  0.7816164E-02  0.1320468E+00
        -11   -1    0    0    0    0  0.00000000000E+00  0.00000000000E+00  0.45593999997E+02  0.45594000000E+02  0.51100000000E-03 0.  1.
         11   -1    0    0    0    0 -0.00000000000E+00 -0.00000000000E+00 -0.45593999997E+02  0.45594000000E+02  0.51100000000E-03 0. -1.
    9900012    2    1    2    0    0 -0.25547326124E+02 -0.10741043665E+02  0.35511656422E+02  0.46142316156E+02  0.99999853656E+01 0.  0.
         12    1    1    2    0    0  0.25547326124E+02  0.10741043665E+02 -0.35511656422E+02  0.45045683844E+02  0.00000000000E+00 0. -1.
         11    1    3    3    0    0 -0.66823812219E+00 -0.18392327410E+01  0.35503200939E+01  0.40538984070E+01  0.51100000000E-03 0. -1.
        -11    1    3    3    0    0 -0.24773415123E+02 -0.76857586220E+01  0.29126008962E+02  0.39001504853E+02  0.51100000000E-03 0.  1.
        -12    1    3    3    0    0 -0.10567287912E+00 -0.12160523025E+01  0.28353273657E+01  0.30869128965E+01  0.00000000000E+00 0.  1.
</event>
<event>
 7    1  0.3086024E-009  0.4614232E+02  0.7816164E-02  0.1320468E+00
        -11   -1    0    0    0    0  0.00000000000E+00  0.00000000000E+00  0.45593999997E+02  0.45594000000E+02  0.51100000000E-03 0.  1.
         11   -1    0    0    0    0 -0.00000000000E+00 -0.00000000000E+00 -0.45593999997E+02  0.45594000000E+02  0.51100000000E-03 0. -1.
    9900012    2    1    2    0    0  0.99694467332E+00  0.52581041100E+01  0.44726636260E+02  0.46142317092E+02  0.99999938976E+01 0.  0.
         12    1    1    2    0    0 -0.99694467332E+00 -0.52581041100E+01 -0.44726636260E+02  0.45045682908E+02  0.00000000000E+00 0. -1.
         11    1    3    3    0    0  0.10520315495E+01  0.30709114182E+01  0.18436124148E+02  0.18719720649E+02  0.51100000000E-03 0.  1.
        -11    1    3    3    0    0  0.28854435407E+01  0.35246567499E+01  0.16137125694E+02  0.16767701559E+02  0.51100000000E-03 0. -1.
        -12    1    3    3    0    0 -0.29405304169E+01 -0.13374640580E+01  0.10153386418E+02  0.10654894884E+02  0.00000000000E+00 0.  1.
</event>
<event>
 7    1  0.3086024E-009  0.4614232E+02  0.7816164E-02  0.1320468E+00
        -11   -1    0    0    0    0  0.00000000000E+00  0.00000000000E+00  0.45593999997E+02  0.45594000000E+02  0.51100000000E-03 0.  1.
         11   -1    0    0    0    0 -0.00000000000E+00 -0.00000000000E+00 -0.45593999997E+02  0.45594000000E+02  0.51100000000E-03 0. -1.
    9900012    2    1    2    0    0 -0.65654536868E+01  0.18885758422E+02  0.40365039250E+02  0.46142318220E+02  0.10000004189E+02 0.  0.
         12    1    1    2    0    0  0.65654536868E+01 -0.18885758422E+02 -0.40365039250E+02  0.45045681780E+02  0.00000000000E+00 0. -1.
         11    1    3    3    0    0 -0.77114456318E+01  0.95614031714E+01  0.23567578661E+02  0.26576636141E+02  0.51100000000E-03 0. -1.
        -11    1    3    3    0    0 -0.88101370339E+00  0.60508691358E+01  0.11389808125E+02  0.12927371420E+02  0.51100000000E-03 0.  1.
         12    1    3    3    0    0  0.20270056484E+01  0.32734861150E+01  0.54076524639E+01  0.66383106597E+01  0.00000000000E+00 0. -1.
</event>
<event>
 7    1  0.3086024E-009  0.4614232E+02  0.7816164E-02  0.1320468E+00
        -11   -1    0    0    0    0  0.00000000000E+00  0.00000000000E+00  0.45593999997E+02  0.45594000000E+02  0.51100000000E-03 0. -1.
         11   -1    0    0    0    0 -0.00000000000E+00 -0.00000000000E+00 -0.45593999997E+02  0.45594000000E+02  0.51100000000E-03 0.  1.
    9900012    2    1    2    0    0 -0.11579684182E+02  0.40342407209E+02 -0.16355869199E+02  0.46142319159E+02  0.10000012744E+02 0.  0.
         12    1    1    2    0    0  0.11579684182E+02 -0.40342407209E+02  0.16355869199E+02  0.45045680841E+02  0.00000000000E+00 0. -1.
         11    1    3    3    0    0 -0.54815781752E+00  0.15232747437E+02 -0.71047307009E+01  0.16817082686E+02  0.51100000000E-03 0. -1.
        -11    1    3    3    0    0 -0.75728203465E+01  0.20205196086E+02 -0.88124045357E+01  0.23307853416E+02  0.51100000000E-03 0.  1.
         12    1    3    3    0    0 -0.34587060178E+01  0.49044636862E+01 -0.43873396271E+00  0.60173830572E+01  0.00000000000E+00 0. -1.
</event>
<event>
 7    1  0.3086024E-009  0.4614232E+02  0.7816164E-02  0.1320468E+00
        -11   -1    0    0    0    0  0.00000000000E+00  0.00000000000E+00  0.45593999997E+02  0.45594000000E+02  0.51100000000E-03 0. -1.
         11   -1    0    0    0    0 -0.00000000000E+00 -0.00000000000E+00 -0.45593999997E+02  0.45594000000E+02  0.51100000000E-03 0.  1.
    9900012    2    1    2    0    0 -0.43733861019E+02  0.10786534691E+02  0.33602318034E+00  0.46142324937E+02  0.10000065434E+02 0.  0.
         12    1    1    2    0    0  0.43733861019E+02 -0.10786534691E+02 -0.33602318034E+00  0.45045675063E+02  0.00000000000E+00 0. -1.
         11    1    3    3    0    0 -0.10148835051E+02  0.20795368570E+01 -0.21855879828E+01  0.10587734485E+02  0.51100000000E-03 0. -1.
        -11    1    3    3    0    0 -0.18366918061E+02  0.39742279915E+01 -0.22310955124E+01  0.18923951877E+02  0.51100000000E-03 0.  1.
         12    1    3    3    0    0 -0.15218107907E+02  0.47327698430E+01  0.47527066756E+01  0.16630638574E+02  0.00000000000E+00 0. -1.
</event>
<event>
 7    1  0.3086024E-009  0.4614232E+02  0.7816164E-02  0.1320468E+00
        -11   -1    0    0    0    0  0.00000000000E+00  0.00000000000E+00  0.45593999997E+02  0.45594000000E+02  0.51100000000E-03 0. -1.
         11   -1    0    0    0    0 -0.00000000000E+00 -0.00000000000E+00 -0.45593999997E+02  0.45594000000E+02  0.51100000000E-03 0.  1.
    9900012    2    1    2    0    0 -0.13160420571E+01  0.18086698309E+02 -0.41234120454E+02  0.46142319718E+02  0.10000017848E+02 0.  0.
         12    1    1    2    0    0  0.13160420571E+01 -0.18086698309E+02  0.41234120454E+02  0.45045680282E+02  0.00000000000E+00 0. -1.
         11    1    3    3    0    0  0.37539669013E-01 -0.17178051945E+00 -0.28223142299E+01  0.28277863510E+01  0.51100000000E-03 0. -1.
        -11    1    3    3    0    0 -0.42894486222E+01  0.15047414393E+02 -0.30818552871E+02  0.34563090873E+02  0.51100000000E-03 0.  1.
        -12    1    3    3    0    0  0.29358668961E+01  0.32110644355E+01 -0.75932533532E+01  0.87514424941E+01  0.00000000000E+00 0.  1.
</event>
<event>
 7    1  0.3086024E-009  0.4614232E+02  0.7816164E-02  0.1320468E+00
        -11   -1    0    0    0    0  0.00000000000E+00  0.00000000000E+00  0.45593999997E+02  0.45594000000E+02  0.51100000000E-03 0. -1.
         11   -1    0    0    0    0 -0.00000000000E+00 -0.00000000000E+00 -0.45593999997E+02  0.45594000000E+02  0.51100000000E-03 0.  1.
    9900012    2    1    2    0    0  0.43205442037E+02  0.12018313967E+02  0.42383202174E+01  0.46142318182E+02  0.10000003835E+02 0.  0.
         12    1    1    2    0    0 -0.43205442037E+02 -0.12018313967E+02 -0.42383202174E+01  0.45045681818E+02  0.00000000000E+00 0. -1.
         11    1    3    3    0    0  0.24830247019E+01 -0.56402564575E+00  0.15455963663E+01  0.29786582529E+01  0.51100000000E-03 0. -1.
        -11    1    3    3    0    0  0.12253259002E+02  0.94677595276E+00 -0.12206345912E-01  0.12289788043E+02  0.51100000000E-03 0.  1.
        -12    1    3    3    0    0  0.28469158333E+02  0.11635563660E+02  0.27049301970E+01  0.30873871886E+02  0.00000000000E+00 0.  1.
</event>
<event>
 7    1  0.3086024E-009  0.4614232E+02  0.7816164E-02  0.1320468E+00
        -11   -1    0    0    0    0  0.00000000000E+00  0.00000000000E+00  0.45593999997E+02  0.45594000000E+02  0.51100000000E-03 0. -1.
         11   -1    0    0    0    0 -0.00000000000E+00 -0.00000000000E+00 -0.45593999997E+02  0.45594000000E+02  0.51100000000E-03 0.  1.
    9900012    2    1    2    0    0 -0.38775633922E+02 -0.18177120514E+02 -0.13969823917E+02  0.46142317893E+02  0.10000001200E+02 0.  0.
         12    1    1    2    0    0  0.38775633922E+02  0.18177120514E+02  0.13969823917E+02  0.45045682107E+02  0.00000000000E+00 0. -1.
         11    1    3    3    0    0 -0.11912742270E+02 -0.83401421056E+01 -0.60484758353E+01  0.15749776472E+02  0.51100000000E-03 0.  1.
        -11    1    3    3    0    0 -0.61343564437E+00 -0.15759724264E+01 -0.11740736991E+01  0.20587476024E+01  0.51100000000E-03 0. -1.
        -12    1    3    3    0    0 -0.26249456007E+02 -0.82610059818E+01 -0.67472743827E+01  0.28333793818E+02  0.00000000000E+00 0.  1.
</event>
<event>
 7    1  0.3086024E-009  0.4614232E+02  0.7816164E-02  0.1320468E+00
        -11   -1    0    0    0    0  0.00000000000E+00  0.00000000000E+00  0.45593999997E+02  0.45594000000E+02  0.51100000000E-03 0.  1.
         11   -1    0    0    0    0 -0.00000000000E+00 -0.00000000000E+00 -0.45593999997E+02  0.45594000000E+02  0.51100000000E-03 0. -1.
    9900012    2    1    2    0    0 -0.23100570887E+01 -0.42954303040E+02  0.13368066593E+02  0.46142315214E+02  0.99999767709E+01 0.  0.
         12    1    1    2    0    0  0.23100570887E+01  0.42954303040E+02 -0.13368066593E+02  0.45045684786E+02  0.00000000000E+00 0. -1.
         11    1    3    3    0    0 -0.24582517089E+01 -0.89202261385E+01  0.12597011255E+01  0.93381091776E+01  0.51100000000E-03 0. -1.
        -11    1    3    3    0    0 -0.32605051546E+01 -0.20856022814E+02  0.65611827714E+01  0.22105512912E+02  0.51100000000E-03 0.  1.
        -12    1    3    3    0    0  0.34086997748E+01 -0.13178054088E+02  0.55471826956E+01  0.14698693124E+02  0.00000000000E+00 0.  1.
</event>
<event>
 7    1  0.3086024E-009  0.4614232E+02  0.7816164E-02  0.1320468E+00
        -11   -1    0    0    0    0  0.00000000000E+00  0.00000000000E+00  0.45593999997E+02  0.45594000000E+02  0.51100000000E-03 0.  1.
         11   -1    0    0    0    0 -0.00000000000E+00 -0.00000000000E+00 -0.45593999997E+02  0.45594000000E+02  0.51100000000E-03 0. -1.
    9900012    2    1    2    0    0 -0.10112961007E+02  0.37421367457E+02  0.22945211085E+02  0.46142318360E+02  0.10000005458E+02 0.  0.
         12    1    1    2    0    0  0.10112961007E+02 -0.37421367457E+02 -0.22945211085E+02  0.45045681640E+02  0.00000000000E+00 0. -1.
         11    1    3    3    0    0  0.15195272632E+01  0.44415112750E+01  0.17873379693E+01  0.50230033633E+01  0.51100000000E-03 0. -1.
        -11    1    3    3    0    0 -0.39694476835E+01  0.14256738920E+02  0.66503116075E+01  0.16224603671E+02  0.51100000000E-03 0.  1.
         12    1    3    3    0    0 -0.76630405869E+01  0.18723117262E+02  0.14507561509E+02  0.24894711325E+02  0.00000000000E+00 0. -1.
</event>
<event>
 7    1  0.3086024E-009  0.4614232E+02  0.7816164E-02  0.1320468E+00
        -11   -1    0    0    0    0  0.00000000000E+00  0.00000000000E+00  0.45593999997E+02  0.45594000000E+02  0.51100000000E-03 0.  1.
         11   -1    0    0    0    0 -0.00000000000E+00 -0.00000000000E+00 -0.45593999997E+02  0.45594000000E+02  0.51100000000E-03 0. -1.
    9900012    2    1    2    0    0  0.39267046134E+02 -0.35147767944E+01  0.21791258526E+02  0.46142317453E+02  0.99999971866E+01 0.  0.
         12    1    1    2    0    0 -0.39267046134E+02  0.35147767944E+01 -0.21791258526E+02  0.45045682547E+02  0.00000000000E+00 0. -1.
         11    1    3    3    0    0  0.20684581295E+02 -0.68769184203E+00  0.89130338799E+01  0.22533685819E+02  0.51100000000E-03 0.  1.
        -11    1    3    3    0    0  0.30693454051E+01  0.27322715263E+00 -0.19266117517E+00  0.30874994546E+01  0.51100000000E-03 0. -1.
        -12    1    3    3    0    0  0.15513119434E+02 -0.31003121050E+01  0.13070885821E+02  0.20521132179E+02  0.00000000000E+00 0.  1.
</event>
<event>
 7    1  0.3086024E-009  0.4614232E+02  0.7816164E-02  0.1320468E+00
        -11   -1    0    0    0    0  0.00000000000E+00  0.00000000000E+00  0.45593999997E+02  0.45594000000E+02  0.51100000000E-03 0. -1.
         11   -1    0    0    0    0 -0.00000000000E+00 -0.00000000000E+00 -0.45593999997E+02  0.45594000000E+02  0.51100000000E-03 0.  1.
    9900012    2    1    2    0    0 -0.26468967450E+02 -0.29402238171E+02 -0.21541025464E+02  0.46142316240E+02  0.99999861279E+01 0.  0.
         12    1    1    2    0    0  0.26468967450E+02  0.29402238171E+02  0.21541025464E+02  0.45045683760E+02  0.00000000000E+00 0. -1.
         11    1    3    3    0    0 -0.20022579223E+02 -0.19557425526E+02 -0.17458299074E+02  0.32987706479E+02  0.51100000000E-03 0.  1.
        -11    1    3    3    0    0 -0.38704892391E+01 -0.31718093474E+01 -0.32182610512E+01  0.59496441861E+01  0.51100000000E-03 0. -1.
         12    1    3    3    0    0 -0.25758989880E+01 -0.66730032975E+01 -0.86446533969E+00  0.72049655744E+01  0.00000000000E+00 0. -1.
</event>
<event>
 7    1  0.3086024E-009  0.4614232E+02  0.7816164E-02  0.1320468E+00
        -11   -1    0    0    0    0  0.00000000000E+00  0.00000000000E+00  0.45593999997E+02  0.45594000000E+02  0.51100000000E-03 0.  1.
         11   -1    0    0    0    0 -0.00000000000E+00 -0.00000000000E+00 -0.45593999997E+02  0.45594000000E+02  0.51100000000E-03 0. -1.
    9900012    2    1    2    0    0  0.20234265340E+02  0.34181235402E+02  0.21244555621E+02  0.46142317732E+02  0.99999997312E+01 0.  0.
         12    1    1    2    0    0 -0.20234265340E+02 -0.34181235402E+02 -0.21244555621E+02  0.45045682268E+02  0.00000000000E+00 0. -1.
         11    1    3    3    0    0  0.11330883876E+01  0.62745838557E+01  0.20778979312E+01  0.67061130269E+01  0.51100000000E-03 0. -1.
        -11    1    3    3    0    0  0.17093703480E+02  0.21259454375E+02  0.13313788139E+02  0.30354835758E+02  0.51100000000E-03 0.  1.
        -12    1    3    3    0    0  0.20074734730E+01  0.66471971713E+01  0.58528695506E+01  0.90813689472E+01  0.00000000000E+00 0.  1.
</event>
<event>
 7    1  0.3086024E-009  0.4614231E+02  0.7816164E-02  0.1320468E+00
        -11   -1    0    0    0    0  0.00000000000E+00  0.00000000000E+00  0.45593999997E+02  0.45594000000E+02  0.51100000000E-03 0. -1.
         11   -1    0    0    0    0 -0.00000000000E+00 -0.00000000000E+00 -0.45593999997E+02  0.45594000000E+02  0.51100000000E-03 0.  1.
    9900012    2    1    2    0    0 -0.10759568039E+01  0.44749532602E+02 -0.50433732169E+01  0.46142312475E+02  0.99999517983E+01 0.  0.
         12    1    1    2    0    0  0.10759568039E+01 -0.44749532602E+02  0.50433732169E+01  0.45045687525E+02  0.00000000000E+00 0. -1.
         11    1    3    3    0    0 -0.30020873841E+01  0.86240805553E+01  0.13058482349E+00  0.91325980281E+01  0.51100000000E-03 0.  1.
        -11    1    3    3    0    0  0.19264715165E+01  0.11709658092E+02  0.73250329098E+00  0.11889657122E+02  0.51100000000E-03 0. -1.
         12    1    3    3    0    0 -0.34093638509E-03  0.24415793955E+02 -0.59064613314E+01  0.25120057325E+02  0.00000000000E+00 0. -1.
</event>
<event>
 7    1  0.3086024E-009  0.4614232E+02  0.7816164E-02  0.1320468E+00
        -11   -1    0    0    0    0  0.00000000000E+00  0.00000000000E+00  0.45593999997E+02  0.45594000000E+02  0.51100000000E-03 0.  1.
         11   -1    0    0    0    0 -0.00000000000E+00 -0.00000000000E+00 -0.45593999997E+02  0.45594000000E+02  0.51100000000E-03 0. -1.
    9900012    2    1    2    0    0  0.29708802998E+02  0.35440573348E+01  0.33674027664E+02  0.46142318108E+02  0.10000003165E+02 0.  0.
         12    1    1    2    0    0 -0.29708802998E+02 -0.35440573348E+01 -0.33674027664E+02  0.45045681892E+02  0.00000000000E+00 0. -1.
         11    1    3    3    0    0  0.75382843701E+01 -0.19028927685E+01  0.66610983659E+01  0.10238015620E+02  0.51100000000E-03 0. -1.
        -11    1    3    3    0    0  0.20518568304E+02  0.65716088603E+01  0.25583984580E+02  0.33447540351E+02  0.51100000000E-03 0.  1.
        -12    1    3    3    0    0  0.16519503237E+01 -0.11246587569E+01  0.14289447181E+01  0.24567621372E+01  0.00000000000E+00 0.  1.
</event>
<event>
 7    1  0.3086024E-009  0.4614232E+02  0.7816164E-02  0.1320468E+00
        -11   -1    0    0    0    0  0.00000000000E+00  0.00000000000E+00  0.45593999997E+02  0.45594000000E+02  0.51100000000E-03 0.  1.
         11   -1    0    0    0    0 -0.00000000000E+00 -0.00000000000E+00 -0.45593999997E+02  0.45594000000E+02  0.51100000000E-03 0. -1.
    9900012    2    1    2    0    0 -0.25266411977E+02 -0.71222813697E+01  0.36605941244E+02  0.46142318737E+02  0.10000008901E+02 0.  0.
         12    1    1    2    0    0  0.25266411977E+02  0.71222813697E+01 -0.36605941244E+02  0.45045681263E+02  0.00000000000E+00 0. -1.
         11    1    3    3    0    0 -0.39078792255E+01 -0.39171345370E+01  0.50413870507E+01  0.74853888796E+01  0.51100000000E-03 0. -1.
        -11    1    3    3    0    0 -0.72447453782E+01 -0.37718866930E+01  0.10714579927E+02  0.13472775813E+02  0.51100000000E-03 0.  1.
         12    1    3    3    0    0 -0.14113787373E+02  0.56673986039E+00  0.20849974266E+02  0.25184154045E+02  0.00000000000E+00 0. -1.
</event>
<event>
 7    1  0.3086024E-009  0.4614232E+02  0.7816164E-02  0.1320468E+00
        -11   -1    0    0    0    0  0.00000000000E+00  0.00000000000E+00  0.45593999997E+02  0.45594000000E+02  0.51100000000E-03 0.  1.
         11   -1    0    0    0    0 -0.00000000000E+00 -0.00000000000E+00 -0.45593999997E+02  0.45594000000E+02  0.51100000000E-03 0. -1.
    9900012    2    1    2    0    0  0.27161642225E+02 -0.35086100028E+02  0.77668726500E+01  0.46142317251E+02  0.99999953510E+01 0.  0.
         12    1    1    2    0    0 -0.27161642225E+02  0.35086100028E+02 -0.77668726500E+01  0.45045682749E+02  0.00000000000E+00 0. -1.
         11    1    3    3    0    0 -0.54660495551E+00 -0.39374098569E+00  0.71989224546E+00  0.98592801329E+00  0.51100000000E-03 0. -1.
        -11    1    3    3    0    0  0.24270974354E+02 -0.27839519810E+02  0.60187881432E+01  0.37421182108E+02  0.51100000000E-03 0.  1.
        -12    1    3    3    0    0  0.34372728269E+01 -0.68528392319E+01  0.10281922614E+01  0.77352071305E+01  0.00000000000E+00 0.  1.
</event>
<event>
 7    1  0.3086024E-009  0.4614232E+02  0.7816164E-02  0.1320468E+00
        -11   -1    0    0    0    0  0.00000000000E+00  0.00000000000E+00  0.45593999997E+02  0.45594000000E+02  0.51100000000E-03 0.  1.
         11   -1    0    0    0    0 -0.00000000000E+00 -0.00000000000E+00 -0.45593999997E+02  0.45594000000E+02  0.51100000000E-03 0. -1.
    9900012    2    1    2    0    0 -0.21004669315E+01 -0.44523710104E+02 -0.65069749891E+01  0.46142318229E+02  0.10000004265E+02 0.  0.
         12    1    1    2    0    0  0.21004669315E+01  0.44523710104E+02  0.65069749891E+01  0.45045681771E+02  0.00000000000E+00 0. -1.
         11    1    3    3    0    0  0.24496701345E+01 -0.19567149068E+02 -0.38335765646E+01  0.20089064586E+02  0.51100000000E-03 0.  1.
        -11    1    3    3    0    0 -0.23130550772E+01 -0.30263713899E+01 -0.10416517431E+01  0.39489474793E+01  0.51100000000E-03 0. -1.
        -12    1    3    3    0    0 -0.22370819888E+01 -0.21930189646E+02 -0.16317466815E+01  0.22104306163E+02  0.00000000000E+00 0.  1.
</event>
<event>
 7    1  0.3086024E-009  0.4614232E+02  0.7816164E-02  0.1320468E+00
        -11   -1    0    0    0    0  0.00000000000E+00  0.00000000000E+00  0.45593999997E+02  0.45594000000E+02  0.51100000000E-03 0.  1.
         11   -1    0    0    0    0 -0.00000000000E+00 -0.00000000000E+00 -0.45593999997E+02  0.45594000000E+02  0.51100000000E-03 0. -1.
    9900012    2    1    2    0    0  0.20543637103E+01 -0.42386052663E+02  0.15110116663E+02  0.46142317674E+02  0.99999992071E+01 0.  0.
         12    1    1    2    0    0 -0.20543637103E+01  0.42386052663E+02 -0.15110116663E+02  0.45045682326E+02  0.00000000000E+00 0. -1.
         11    1    3    3    0    0  0.13911399556E+01 -0.17430984845E+02  0.10512928020E+02  0.20403336954E+02  0.51100000000E-03 0. -1.
        -11    1    3    3    0    0  0.10047977748E+01 -0.21605072052E+02  0.53677909995E+01  0.22284567248E+02  0.51100000000E-03 0.  1.
         12    1    3    3    0    0 -0.34157402011E+00 -0.33499957664E+01 -0.77060235689E+00  0.34544134724E+01  0.00000000000E+00 0. -1.
</event>
<event>
 7    1  0.3086024E-009  0.4614232E+02  0.7816164E-02  0.1320468E+00
        -11   -1    0    0    0    0  0.00000000000E+00  0.00000000000E+00  0.45593999997E+02  0.45594000000E+02  0.51100000000E-03 0.  1.
         11   -1    0    0    0    0 -0.00000000000E+00 -0.00000000000E+00 -0.45593999997E+02  0.45594000000E+02  0.51100000000E-03 0. -1.
    9900012    2    1    2    0    0  0.19381682618E+02 -0.63758477657E+01  0.40159834613E+02  0.46142319053E+02  0.10000011776E+02 0.  0.
         12    1    1    2    0    0 -0.19381682618E+02  0.63758477657E+01 -0.40159834613E+02  0.45045680947E+02  0.00000000000E+00 0. -1.
         11    1    3    3    0    0  0.14053018406E+01 -0.25002118749E+01  0.10212675933E+02  0.10607765206E+02  0.51100000000E-03 0. -1.
        -11    1    3    3    0    0  0.38972953502E+01 -0.28530528775E+01  0.56377672682E+01  0.74238293219E+01  0.51100000000E-03 0.  1.
        -12    1    3    3    0    0  0.14079085427E+02 -0.10225830133E+01  0.24309391412E+02  0.28110724525E+02  0.00000000000E+00 0.  1.
</event>
<event>
 7    1  0.3086024E-009  0.4614232E+02  0.7816164E-02  0.1320468E+00
        -11   -1    0    0    0    0  0.00000000000E+00  0.00000000000E+00  0.45593999997E+02  0.45594000000E+02  0.51100000000E-03 0. -1.
         11   -1    0    0    0    0 -0.00000000000E+00 -0.00000000000E+00 -0.45593999997E+02  0.45594000000E+02  0.51100000000E-03 0.  1.
    9900012    2    1    2    0    0  0.16053226174E+01  0.38904240877E+02 -0.22649425342E+02  0.46142317773E+02  0.10000000113E+02 0.  0.
         12    1    1    2    0    0 -0.16053226174E+01 -0.38904240877E+02  0.22649425342E+02  0.45045682227E+02  0.00000000000E+00 0. -1.
         11    1    3    3    0    0  0.32357569569E+01  0.53827172970E+01 -0.22003776299E+01  0.66547299388E+01  0.51100000000E-03 0. -1.
        -11    1    3    3    0    0 -0.25667550886E+01  0.20955448875E+02 -0.11590113175E+02  0.24084222904E+02  0.51100000000E-03 0.  1.
         12    1    3    3    0    0  0.93632074911E+00  0.12566074705E+02 -0.88589345373E+01  0.15403364930E+02  0.00000000000E+00 0. -1.
</event>
<event>
 7    1  0.3086024E-009  0.4614232E+02  0.7816164E-02  0.1320468E+00
        -11   -1    0    0    0    0  0.00000000000E+00  0.00000000000E+00  0.45593999997E+02  0.45594000000E+02  0.51100000000E-03 0. -1.
         11   -1    0    0    0    0 -0.00000000000E+00 -0.00000000000E+00 -0.45593999997E+02  0.45594000000E+02  0.51100000000E-03 0.  1.
    9900012    2    1    2    0    0 -0.10577168178E+02 -0.54937381867E+01 -0.43440256170E+02  0.46142317609E+02  0.99999986165E+01 0.  0.
         12    1    1    2    0    0  0.10577168178E+02  0.54937381867E+01  0.43440256170E+02  0.45045682391E+02  0.00000000000E+00 0. -1.
         11    1    3    3    0    0 -0.82343176385E+01 -0.39335038052E+01 -0.16938642166E+02  0.19240427174E+02  0.51100000000E-03 0. -1.
        -11    1    3    3    0    0 -0.27749814996E+01  0.20858222573E+00 -0.17212002696E+02  0.17435511634E+02  0.51100000000E-03 0.  1.
         12    1    3    3    0    0  0.43213096021E+00 -0.17688166073E+01 -0.92896113076E+01  0.94663788009E+01  0.00000000000E+00 0. -1.
</event>
<event>
 7    1  0.3086024E-009  0.4614232E+02  0.7816164E-02  0.1320468E+00
        -11   -1    0    0    0    0  0.00000000000E+00  0.00000000000E+00  0.45593999997E+02  0.45594000000E+02  0.51100000000E-03 0. -1.
         11   -1    0    0    0    0 -0.00000000000E+00 -0.00000000000E+00 -0.45593999997E+02  0.45594000000E+02  0.51100000000E-03 0.  1.
    9900012    2    1    2    0    0 -0.18942136214E+02  0.37858484567E+02 -0.15396240926E+02  0.46142316381E+02  0.99999874146E+01 0.  0.
         12    1    1    2    0    0  0.18942136214E+02 -0.37858484567E+02  0.15396240926E+02  0.45045683619E+02  0.00000000000E+00 0. -1.
         11    1    3    3    0    0 -0.47883887466E+01  0.69487220787E+01 -0.38358911263E+01  0.92697069160E+01  0.51100000000E-03 0. -1.
        -11    1    3    3    0    0 -0.32571165604E+01  0.68942151302E+01 -0.65001188482E+01  0.10019508763E+02  0.51100000000E-03 0.  1.
         12    1    3    3    0    0 -0.10896630907E+02  0.24015547358E+02 -0.50602309520E+01  0.26853100702E+02  0.00000000000E+00 0. -1.
</event>
<event>
 7    1  0.3086024E-009  0.4614232E+02  0.7816164E-02  0.1320468E+00
        -11   -1    0    0    0    0  0.00000000000E+00  0.00000000000E+00  0.45593999997E+02  0.45594000000E+02  0.51100000000E-03 0. -1.
         11   -1    0    0    0    0 -0.00000000000E+00 -0.00000000000E+00 -0.45593999997E+02  0.45594000000E+02  0.51100000000E-03 0.  1.
    9900012    2    1    2    0    0  0.36517459431E+02  0.23197071211E+02 -0.12549285429E+02  0.46142317400E+02  0.99999967109E+01 0.  0.
         12    1    1    2    0    0 -0.36517459431E+02 -0.23197071211E+02  0.12549285429E+02  0.45045682600E+02  0.00000000000E+00 0. -1.
         11    1    3    3    0    0  0.40256229192E+00  0.50590791498E+00  0.84381487605E+00  0.10630254106E+01  0.51100000000E-03 0. -1.
        -11    1    3    3    0    0  0.33921573625E+02  0.19822842648E+02 -0.13259401881E+02  0.41466010012E+02  0.51100000000E-03 0.  1.
        -12    1    3    3    0    0  0.21933235137E+01  0.28683206489E+01 -0.13369842472E+00  0.36132819775E+01  0.00000000000E+00 0.  1.
</event>
<event>
 7    1  0.3086024E-009  0.4614232E+02  0.7816164E-02  0.1320468E+00
        -11   -1    0    0    0    0  0.00000000000E+00  0.00000000000E+00  0.45593999997E+02  0.45594000000E+02  0.51100000000E-03 0.  1.
         11   -1    0    0    0    0 -0.00000000000E+00 -0.00000000000E+00 -0.45593999997E+02  0.45594000000E+02  0.51100000000E-03 0. -1.
    9900012    2    1    2    0    0 -0.66875990610E+01 -0.15543679865E+02  0.41746657855E+02  0.46142318664E+02  0.10000008235E+02 0.  0.
         12    1    1    2    0    0  0.66875990610E+01  0.15543679865E+02 -0.41746657855E+02  0.45045681336E+02  0.00000000000E+00 0. -1.
         11    1    3    3    0    0 -0.74909898736E+01 -0.98654149376E+01  0.25082192883E+02  0.27974233524E+02  0.51100000000E-03 0. -1.
        -11    1    3    3    0    0 -0.10470653112E+01 -0.37635914794E+01  0.13386722050E+02  0.13945081359E+02  0.51100000000E-03 0.  1.
         12    1    3    3    0    0  0.18504561238E+01 -0.19146734476E+01  0.32777429224E+01  0.42230037819E+01  0.00000000000E+00 0. -1.
</event>
<event>
 7    1  0.3086024E-009  0.4614232E+02  0.7816164E-02  0.1320468E+00
        -11   -1    0    0    0    0  0.00000000000E+00  0.00000000000E+00  0.45593999997E+02  0.45594000000E+02  0.51100000000E-03 0.  1.
         11   -1    0    0    0    0 -0.00000000000E+00 -0.00000000000E+00 -0.45593999997E+02  0.45594000000E+02  0.51100000000E-03 0. -1.
    9900012    2    1    2    0    0  0.65034236211E+01 -0.43588423449E+02 -0.93203160691E+01  0.46142317974E+02  0.10000001943E+02 0.  0.
         12    1    1    2    0    0 -0.65034236211E+01  0.43588423449E+02  0.93203160691E+01  0.45045682026E+02  0.00000000000E+00 0. -1.
         11    1    3    3    0    0 -0.15764213468E+01 -0.86261912074E+01 -0.16055150132E+01  0.89148167524E+01  0.51100000000E-03 0. -1.
        -11    1    3    3    0    0  0.68534823010E+00 -0.11128347712E+02 -0.14624372597E+00  0.11150390687E+02  0.51100000000E-03 0.  1.
        -12    1    3    3    0    0  0.73944967379E+01 -0.23833884530E+02 -0.75685573299E+01  0.26077110535E+02  0.00000000000E+00 0.  1.
</event>
<event>
 7    1  0.3086024E-009  0.4614232E+02  0.7816164E-02  0.1320468E+00
        -11   -1    0    0    0    0  0.00000000000E+00  0.00000000000E+00  0.45593999997E+02  0.45594000000E+02  0.51100000000E-03 0.  1.
         11   -1    0    0    0    0 -0.00000000000E+00 -0.00000000000E+00 -0.45593999997E+02  0.45594000000E+02  0.51100000000E-03 0. -1.
    9900012    2    1    2    0    0  0.15373723323E+02 -0.36578110540E+02  0.21326132916E+02  0.46142317803E+02  0.10000000380E+02 0.  0.
         12    1    1    2    0    0 -0.15373723323E+02  0.36578110540E+02 -0.21326132916E+02  0.45045682197E+02  0.00000000000E+00 0. -1.
         11    1    3    3    0    0  0.43040450887E+01 -0.17416319319E+02  0.10974822223E+02  0.21030922610E+02  0.51100000000E-03 0. -1.
        -11    1    3    3    0    0  0.54439823568E+01 -0.42689796638E+01  0.38297285405E+01  0.79074618068E+01  0.51100000000E-03 0.  1.
        -12    1    3    3    0    0  0.56256958771E+01 -0.14892811557E+02  0.65215821524E+01  0.17203933386E+02  0.00000000000E+00 0.  1.
</event>
<event>
 7    1  0.3086024E-009  0.4614232E+02  0.7816164E-02  0.1320468E+00
        -11   -1    0    0    0    0  0.00000000000E+00  0.00000000000E+00  0.45593999997E+02  0.45594000000E+02  0.51100000000E-03 0.  1.
         11   -1    0    0    0    0 -0.00000000000E+00 -0.00000000000E+00 -0.45593999997E+02  0.45594000000E+02  0.51100000000E-03 0. -1.
    9900012    2    1    2    0    0  0.33778708463E+02 -0.51285720133E+01  0.29356602554E+02  0.46142317523E+02  0.99999978287E+01 0.  0.
         12    1    1    2    0    0 -0.33778708463E+02  0.51285720133E+01 -0.29356602554E+02  0.45045682477E+02  0.00000000000E+00 0. -1.
         11    1    3    3    0    0  0.15575061887E+02 -0.18886120279E+01  0.16265685375E+02  0.22599157709E+02  0.51100000000E-03 0.  1.
        -11    1    3    3    0    0  0.15422281808E+02 -0.63831070580E+00  0.86542233767E+01  0.17696039083E+02  0.51100000000E-03 0. -1.
         12    1    3    3    0    0  0.27813647679E+01 -0.26016492796E+01  0.44366938027E+01  0.58471207312E+01  0.00000000000E+00 0. -1.
</event>
<event>
 7    1  0.3086024E-009  0.4614232E+02  0.7816164E-02  0.1320468E+00
        -11   -1    0    0    0    0  0.00000000000E+00  0.00000000000E+00  0.45593999997E+02  0.45594000000E+02  0.51100000000E-03 0. -1.
         11   -1    0    0    0    0 -0.00000000000E+00 -0.00000000000E+00 -0.45593999997E+02  0.45594000000E+02  0.51100000000E-03 0.  1.
    9900012    2    1    2    0    0 -0.30656174423E+02 -0.24413298952E+02 -0.22210423266E+02  0.46142322098E+02  0.10000039550E+02 0.  0.
         12    1    1    2    0    0  0.30656174423E+02  0.24413298952E+02  0.22210423266E+02  0.45045677902E+02  0.00000000000E+00 0. -1.
         11    1    3    3    0    0 -0.16744626215E+02 -0.13195157499E+02 -0.85265243140E+01  0.22960755772E+02  0.51100000000E-03 0. -1.
        -11    1    3    3    0    0 -0.10325396232E+02 -0.11046732712E+02 -0.11136407537E+02  0.18779341949E+02  0.51100000000E-03 0.  1.
         12    1    3    3    0    0 -0.35861519759E+01 -0.17140874062E+00 -0.25474914153E+01  0.44022243766E+01  0.00000000000E+00 0. -1.
</event>
<event>
 7    1  0.3086024E-009  0.4614232E+02  0.7816164E-02  0.1320468E+00
        -11   -1    0    0    0    0  0.00000000000E+00  0.00000000000E+00  0.45593999997E+02  0.45594000000E+02  0.51100000000E-03 0.  1.
         11   -1    0    0    0    0 -0.00000000000E+00 -0.00000000000E+00 -0.45593999997E+02  0.45594000000E+02  0.51100000000E-03 0. -1.
    9900012    2    1    2    0    0 -0.42891920386E+02 -0.10012381998E+02  0.94418484067E+01  0.46142321750E+02  0.10000036376E+02 0.  0.
         12    1    1    2    0    0  0.42891920386E+02  0.10012381998E+02 -0.94418484067E+01  0.45045678250E+02  0.00000000000E+00 0. -1.
         11    1    3    3    0    0 -0.85453531361E+01 -0.45145014105E+01  0.25454329771E+01  0.99941489136E+01  0.51100000000E-03 0. -1.
        -11    1    3    3    0    0 -0.30293819723E+02 -0.70382763953E+01  0.66620707931E+01  0.31806226364E+02  0.51100000000E-03 0.  1.
         12    1    3    3    0    0 -0.40527475266E+01  0.15403958080E+01  0.23434463651E+00  0.43419464724E+01  0.00000000000E+00 0. -1.
</event>
<event>
 7    1  0.3086024E-009  0.4614232E+02  0.7816164E-02  0.1320468E+00
        -11   -1    0    0    0    0  0.00000000000E+00  0.00000000000E+00  0.45593999997E+02  0.45594000000E+02  0.51100000000E-03 0. -1.
         11   -1    0    0    0    0 -0.00000000000E+00 -0.00000000000E+00 -0.45593999997E+02  0.45594000000E+02  0.51100000000E-03 0.  1.
    9900012    2    1    2    0    0 -0.30196456012E+02  0.30524884269E+02 -0.13620530643E+02  0.46142319072E+02  0.10000011951E+02 0.  0.
         12    1    1    2    0    0  0.30196456012E+02 -0.30524884269E+02  0.13620530643E+02  0.45045680928E+02  0.00000000000E+00 0. -1.
         11    1    3    3    0    0 -0.56023019029E+01  0.19987418223E+01 -0.16006933844E+01  0.61597869327E+01  0.51100000000E-03 0. -1.
        -11    1    3    3    0    0 -0.81110856509E+01  0.13416535011E+02 -0.35729155862E+01  0.16079765178E+02  0.51100000000E-03 0.  1.
         12    1    3    3    0    0 -0.16483068458E+02  0.15109607436E+02 -0.84469216724E+01  0.23902766961E+02  0.00000000000E+00 0. -1.
</event>
<event>
 7    1  0.3086024E-009  0.4614232E+02  0.7816164E-02  0.1320468E+00
        -11   -1    0    0    0    0  0.00000000000E+00  0.00000000000E+00  0.45593999997E+02  0.45594000000E+02  0.51100000000E-03 0.  1.
         11   -1    0    0    0    0 -0.00000000000E+00 -0.00000000000E+00 -0.45593999997E+02  0.45594000000E+02  0.51100000000E-03 0. -1.
    9900012    2    1    2    0    0 -0.28943358491E+02 -0.23207092985E+02  0.25550466193E+02  0.46142317762E+02  0.10000000011E+02 0.  0.
         12    1    1    2    0    0  0.28943358491E+02  0.23207092985E+02 -0.25550466193E+02  0.45045682238E+02  0.00000000000E+00 0. -1.
         11    1    3    3    0    0 -0.10265406489E+02 -0.13874168481E+02  0.97684188005E+01  0.19831619388E+02  0.51100000000E-03 0. -1.
        -11    1    3    3    0    0 -0.67007495775E+01 -0.47836230601E+01  0.64991717796E+01  0.10489152900E+02  0.51100000000E-03 0.  1.
         12    1    3    3    0    0 -0.11977202424E+02 -0.45493014442E+01  0.92828756127E+01  0.15821545474E+02  0.00000000000E+00 0. -1.
</event>
<event>
 7    1  0.3086024E-009  0.4614232E+02  0.7816164E-02  0.1320468E+00
        -11   -1    0    0    0    0  0.00000000000E+00  0.00000000000E+00  0.45593999997E+02  0.45594000000E+02  0.51100000000E-03 0.  1.
         11   -1    0    0    0    0 -0.00000000000E+00 -0.00000000000E+00 -0.45593999997E+02  0.45594000000E+02  0.51100000000E-03 0. -1.
    9900012    2    1    2    0    0 -0.18328219379E+02 -0.21047877154E+02  0.35357837548E+02  0.46142318360E+02  0.10000005466E+02 0.  0.
         12    1    1    2    0    0  0.18328219379E+02  0.21047877154E+02 -0.35357837548E+02  0.45045681640E+02  0.00000000000E+00 0. -1.
         11    1    3    3    0    0 -0.29102882917E+01 -0.53956482286E+01  0.53012574709E+01  0.81046979451E+01  0.51100000000E-03 0. -1.
        -11    1    3    3    0    0 -0.13087267382E+02 -0.86449352050E+01  0.17764786150E+02  0.23698082189E+02  0.51100000000E-03 0.  1.
        -12    1    3    3    0    0 -0.23306637049E+01 -0.70072937204E+01  0.12291793927E+02  0.14339538226E+02  0.00000000000E+00 0.  1.
</event>
<event>
 7    1  0.3086024E-009  0.4614232E+02  0.7816164E-02  0.1320468E+00
        -11   -1    0    0    0    0  0.00000000000E+00  0.00000000000E+00  0.45593999997E+02  0.45594000000E+02  0.51100000000E-03 0. -1.
         11   -1    0    0    0    0 -0.00000000000E+00 -0.00000000000E+00 -0.45593999997E+02  0.45594000000E+02  0.51100000000E-03 0.  1.
    9900012    2    1    2    0    0 -0.19993962490E+02  0.18106137600E+02  0.36076623846E+02  0.46142317155E+02  0.99999944704E+01 0.  0.
         12    1    1    2    0    0  0.19993962490E+02 -0.18106137600E+02 -0.36076623846E+02  0.45045682845E+02  0.00000000000E+00 0. -1.
         11    1    3    3    0    0 -0.13040586354E+00  0.27030317682E+01  0.56704649376E+01  0.62831170050E+01  0.51100000000E-03 0. -1.
        -11    1    3    3    0    0 -0.47983929171E+01  0.65995606940E+01  0.76638967855E+01  0.11194377613E+02  0.51100000000E-03 0.  1.
         12    1    3    3    0    0 -0.15065163709E+02  0.88035451383E+01  0.22742262123E+02  0.28664822537E+02  0.00000000000E+00 0. -1.
</event>
<event>
 7    1  0.3086024E-009  0.4614232E+02  0.7816164E-02  0.1320468E+00
        -11   -1    0    0    0    0  0.00000000000E+00  0.00000000000E+00  0.45593999997E+02  0.45594000000E+02  0.51100000000E-03 0.  1.
         11   -1    0    0    0    0 -0.00000000000E+00 -0.00000000000E+00 -0.45593999997E+02  0.45594000000E+02  0.51100000000E-03 0. -1.
    9900012    2    1    2    0    0 -0.55741510239E+01 -0.29233499218E+02  0.33814861453E+02  0.46142317729E+02  0.99999997110E+01 0.  0.
         12    1    1    2    0    0  0.55741510239E+01  0.29233499218E+02 -0.33814861453E+02  0.45045682271E+02  0.00000000000E+00 0. -1.
         11    1    3    3    0    0 -0.73499144423E+00 -0.25049633337E-01 -0.23088417508E-01  0.73578070332E+00  0.51100000000E-03 0. -1.
        -11    1    3    3    0    0 -0.15495823950E+01 -0.15165302154E+02  0.12834879933E+02  0.19927913543E+02  0.51100000000E-03 0.  1.
        -12    1    3    3    0    0 -0.32895771847E+01 -0.14043147431E+02  0.21003069937E+02  0.25478623483E+02  0.00000000000E+00 0.  1.
</event>
<event>
 7    1  0.3086024E-009  0.4614232E+02  0.7816164E-02  0.1320468E+00
        -11   -1    0    0    0    0  0.00000000000E+00  0.00000000000E+00  0.45593999997E+02  0.45594000000E+02  0.51100000000E-03 0.  1.
         11   -1    0    0    0    0 -0.00000000000E+00 -0.00000000000E+00 -0.45593999997E+02  0.45594000000E+02  0.51100000000E-03 0. -1.
    9900012    2    1    2    0    0  0.13152117446E+02  0.43023912235E+02  0.22534926368E+01  0.46142318227E+02  0.10000004248E+02 0.  0.
         12    1    1    2    0    0 -0.13152117446E+02 -0.43023912235E+02 -0.22534926368E+01  0.45045681773E+02  0.00000000000E+00 0. -1.
         11    1    3    3    0    0  0.42892592959E+01  0.88340437359E+01 -0.28108925231E+01  0.10214655700E+02  0.51100000000E-03 0. -1.
        -11    1    3    3    0    0  0.59300828233E+01  0.20486141796E+02  0.50356433785E+01  0.21913593783E+02  0.51100000000E-03 0.  1.
         12    1    3    3    0    0  0.29327753268E+01  0.13703726703E+02  0.28741781429E-01  0.14014068744E+02  0.00000000000E+00 0. -1.
</event>
<event>
 7    1  0.3086024E-009  0.4614232E+02  0.7816164E-02  0.1320468E+00
        -11   -1    0    0    0    0  0.00000000000E+00  0.00000000000E+00  0.45593999997E+02  0.45594000000E+02  0.51100000000E-03 0.  1.
         11   -1    0    0    0    0 -0.00000000000E+00 -0.00000000000E+00 -0.45593999997E+02  0.45594000000E+02  0.51100000000E-03 0. -1.
    9900012    2    1    2    0    0  0.21733475047E+02  0.39165275071E+02  0.47802540415E+01  0.46142317213E+02  0.99999950025E+01 0.  0.
         12    1    1    2    0    0 -0.21733475047E+02 -0.39165275071E+02 -0.47802540415E+01  0.45045682787E+02  0.00000000000E+00 0. -1.
         11    1    3    3    0    0  0.15156844621E+02  0.25352509217E+02  0.38044802846E+01  0.29781768466E+02  0.51100000000E-03 0.  1.
        -11    1    3    3    0    0 -0.54284052993E+00  0.44945435418E+01 -0.44059568800E+00  0.45485956417E+01  0.51100000000E-03 0. -1.
         12    1    3    3    0    0  0.71194709562E+01  0.93182223129E+01  0.14163694449E+01  0.11811953106E+02  0.00000000000E+00 0. -1.
</event>
<event>
 7    1  0.3086024E-009  0.4614232E+02  0.7816164E-02  0.1320468E+00
        -11   -1    0    0    0    0  0.00000000000E+00  0.00000000000E+00  0.45593999997E+02  0.45594000000E+02  0.51100000000E-03 0.  1.
         11   -1    0    0    0    0 -0.00000000000E+00 -0.00000000000E+00 -0.45593999997E+02  0.45594000000E+02  0.51100000000E-03 0. -1.
    9900012    2    1    2    0    0  0.33753604171E+02  0.14159857646E+02  0.26254640011E+02  0.46142317796E+02  0.10000000319E+02 0.  0.
         12    1    1    2    0    0 -0.33753604171E+02 -0.14159857646E+02 -0.26254640011E+02  0.45045682204E+02  0.00000000000E+00 0. -1.
         11    1    3    3    0    0  0.14654595084E+01  0.71689031357E+00  0.36248301037E+01  0.39750341929E+01  0.51100000000E-03 0. -1.
        -11    1    3    3    0    0  0.42703549734E+01 -0.15093495672E+00  0.14767791119E+01  0.45210164528E+01  0.51100000000E-03 0.  1.
        -12    1    3    3    0    0  0.28017789689E+02  0.13593902289E+02  0.21153030796E+02  0.37646267150E+02  0.00000000000E+00 0.  1.
</event>
<event>
 7    1  0.3086024E-009  0.4614232E+02  0.7816164E-02  0.1320468E+00
        -11   -1    0    0    0    0  0.00000000000E+00  0.00000000000E+00  0.45593999997E+02  0.45594000000E+02  0.51100000000E-03 0. -1.
         11   -1    0    0    0    0 -0.00000000000E+00 -0.00000000000E+00 -0.45593999997E+02  0.45594000000E+02  0.51100000000E-03 0.  1.
    9900012    2    1    2    0    0  0.37559203197E+02  0.17907992184E+02 -0.17254668478E+02  0.46142317486E+02  0.99999974888E+01 0.  0.
         12    1    1    2    0    0 -0.37559203197E+02 -0.17907992184E+02  0.17254668478E+02  0.45045682514E+02  0.00000000000E+00 0. -1.
         11    1    3    3    0    0  0.35091334491E+01  0.58125870744E+00  0.13381607401E+00  0.35594643208E+01  0.51100000000E-03 0. -1.
        -11    1    3    3    0    0  0.98231046901E+01  0.21018291601E+01 -0.65130774520E+01  0.11972102979E+02  0.51100000000E-03 0.  1.
         12    1    3    3    0    0  0.24226965058E+02  0.15224904317E+02 -0.10875407100E+02  0.30610750186E+02  0.00000000000E+00 0. -1.
</event>
<event>
 7    1  0.3086024E-009  0.4614232E+02  0.7816164E-02  0.1320468E+00
        -11   -1    0    0    0    0  0.00000000000E+00  0.00000000000E+00  0.45593999997E+02  0.45594000000E+02  0.51100000000E-03 0.  1.
         11   -1    0    0    0    0 -0.00000000000E+00 -0.00000000000E+00 -0.45593999997E+02  0.45594000000E+02  0.51100000000E-03 0. -1.
    9900012    2    1    2    0    0 -0.35155654883E+02  0.12460206544E+02  0.25257408236E+02  0.46142317763E+02  0.10000000018E+02 0.  0.
         12    1    1    2    0    0  0.35155654883E+02 -0.12460206544E+02 -0.25257408236E+02  0.45045682237E+02  0.00000000000E+00 0. -1.
         11    1    3    3    0    0 -0.11409840552E+01  0.22033111340E+01  0.22420259155E+01  0.33441149852E+01  0.51100000000E-03 0. -1.
        -11    1    3    3    0    0 -0.91652070802E+01  0.16388662774E+01  0.31196489697E+01  0.98193234722E+01  0.51100000000E-03 0.  1.
        -12    1    3    3    0    0 -0.24849463748E+02  0.86180291328E+01  0.19895733351E+02  0.32978879306E+02  0.00000000000E+00 0.  1.
</event>
<event>
 7    1  0.3086024E-009  0.4614232E+02  0.7816164E-02  0.1320468E+00
        -11   -1    0    0    0    0  0.00000000000E+00  0.00000000000E+00  0.45593999997E+02  0.45594000000E+02  0.51100000000E-03 0. -1.
         11   -1    0    0    0    0 -0.00000000000E+00 -0.00000000000E+00 -0.45593999997E+02  0.45594000000E+02  0.51100000000E-03 0.  1.
    9900012    2    1    2    0    0  0.30148147242E+01  0.21032754243E+02 -0.39719614214E+02  0.46142316386E+02  0.99999874648E+01 0.  0.
         12    1    1    2    0    0 -0.30148147242E+01 -0.21032754243E+02  0.39719614214E+02  0.45045683614E+02  0.00000000000E+00 0. -1.
         11    1    3    3    0    0  0.34952344695E+01  0.75093617588E+01 -0.14250179371E+02  0.16482560189E+02  0.51100000000E-03 0. -1.
        -11    1    3    3    0    0  0.18951100443E+01  0.63147045948E+01 -0.17274741273E+02  0.18490095254E+02  0.51100000000E-03 0.  1.
         12    1    3    3    0    0 -0.23755297896E+01  0.72086878899E+01 -0.81946935701E+01  0.11169660943E+02  0.00000000000E+00 0. -1.
</event>
<event>
 7    1  0.3086024E-009  0.4614232E+02  0.7816164E-02  0.1320468E+00
        -11   -1    0    0    0    0  0.00000000000E+00  0.00000000000E+00  0.45593999997E+02  0.45594000000E+02  0.51100000000E-03 0. -1.
         11   -1    0    0    0    0 -0.00000000000E+00 -0.00000000000E+00 -0.45593999997E+02  0.45594000000E+02  0.51100000000E-03 0.  1.
    9900012    2    1    2    0    0  0.19834341162E+02 -0.38598916104E+02 -0.12076255631E+02  0.46142319144E+02  0.10000012610E+02 0.  0.
         12    1    1    2    0    0 -0.19834341162E+02  0.38598916104E+02  0.12076255631E+02  0.45045680856E+02  0.00000000000E+00 0. -1.
         11    1    3    3    0    0  0.26508662726E+00 -0.94559499313E+00 -0.13099816050E+01  0.16372149760E+01  0.51100000000E-03 0. -1.
        -11    1    3    3    0    0  0.82552998085E+00 -0.64326999546E+01 -0.35092336258E+01  0.73739981934E+01  0.51100000000E-03 0.  1.
        -12    1    3    3    0    0  0.18743724554E+02 -0.31220621156E+02 -0.72570404007E+01  0.37131105975E+02  0.00000000000E+00 0.  1.
</event>
<event>
 7    1  0.3086024E-009  0.4614232E+02  0.7816164E-02  0.1320468E+00
        -11   -1    0    0    0    0  0.00000000000E+00  0.00000000000E+00  0.45593999997E+02  0.45594000000E+02  0.51100000000E-03 0.  1.
         11   -1    0    0    0    0 -0.00000000000E+00 -0.00000000000E+00 -0.45593999997E+02  0.45594000000E+02  0.51100000000E-03 0. -1.
    9900012    2    1    2    0    0  0.88544569181E+00 -0.34676900068E+02  0.28737467018E+02  0.46142318486E+02  0.10000006611E+02 0.  0.
         12    1    1    2    0    0 -0.88544569181E+00  0.34676900068E+02 -0.28737467018E+02  0.45045681514E+02  0.00000000000E+00 0. -1.
         11    1    3    3    0    0  0.23783615412E+01 -0.10752228204E+02  0.48831996376E+01  0.12046271371E+02  0.51100000000E-03 0. -1.
        -11    1    3    3    0    0 -0.17356015279E+01 -0.91526691013E+01  0.68072714739E+01  0.11537877167E+02  0.51100000000E-03 0.  1.
        -12    1    3    3    0    0  0.24268567854E+00 -0.14772002763E+02  0.17046995907E+02  0.22558169948E+02  0.00000000000E+00 0.  1.
</event>
<event>
 7    1  0.3086024E-009  0.4614232E+02  0.7816164E-02  0.1320468E+00
        -11   -1    0    0    0    0  0.00000000000E+00  0.00000000000E+00  0.45593999997E+02  0.45594000000E+02  0.51100000000E-03 0.  1.
         11   -1    0    0    0    0 -0.00000000000E+00 -0.00000000000E+00 -0.45593999997E+02  0.45594000000E+02  0.51100000000E-03 0. -1.
    9900012    2    1    2    0    0  0.29543459914E+02  0.30632034525E+02  0.14764011637E+02  0.46142316495E+02  0.99999884541E+01 0.  0.
         12    1    1    2    0    0 -0.29543459914E+02 -0.30632034525E+02 -0.14764011637E+02  0.45045683505E+02  0.00000000000E+00 0. -1.
         11    1    3    3    0    0  0.87503426007E+01  0.98798660328E+01  0.16568705511E+01  0.13301333344E+02  0.51100000000E-03 0. -1.
        -11    1    3    3    0    0  0.10995472612E+02  0.13804176541E+02  0.10548463610E+02  0.20560296514E+02  0.51100000000E-03 0.  1.
        -12    1    3    3    0    0  0.97976447014E+01  0.69479919507E+01  0.25586774758E+01  0.12280686637E+02  0.00000000000E+00 0.  1.
</event>
<event>
 7    1  0.3086024E-009  0.4614232E+02  0.7816164E-02  0.1320468E+00
        -11   -1    0    0    0    0  0.00000000000E+00  0.00000000000E+00  0.45593999997E+02  0.45594000000E+02  0.51100000000E-03 0.  1.
         11   -1    0    0    0    0 -0.00000000000E+00 -0.00000000000E+00 -0.45593999997E+02  0.45594000000E+02  0.51100000000E-03 0. -1.
    9900012    2    1    2    0    0 -0.21359158458E+02 -0.78625409221E+01  0.38872615661E+02  0.46142318208E+02  0.10000004072E+02 0.  0.
         12    1    1    2    0    0  0.21359158458E+02  0.78625409221E+01 -0.38872615661E+02  0.45045681792E+02  0.00000000000E+00 0. -1.
         11    1    3    3    0    0 -0.48262907919E+01 -0.47606612972E+01  0.66098270200E+01  0.94681989993E+01  0.51100000000E-03 0. -1.
        -11    1    3    3    0    0 -0.11470458103E+02 -0.21750595376E+01  0.17473077765E+02  0.21014536395E+02  0.51100000000E-03 0.  1.
         12    1    3    3    0    0 -0.50624095632E+01 -0.92682008733E+00  0.14789710877E+02  0.15659582813E+02  0.00000000000E+00 0. -1.
</event>
<event>
 7    1  0.3086024E-009  0.4614232E+02  0.7816164E-02  0.1320468E+00
        -11   -1    0    0    0    0  0.00000000000E+00  0.00000000000E+00  0.45593999997E+02  0.45594000000E+02  0.51100000000E-03 0.  1.
         11   -1    0    0    0    0 -0.00000000000E+00 -0.00000000000E+00 -0.45593999997E+02  0.45594000000E+02  0.51100000000E-03 0. -1.
    9900012    2    1    2    0    0  0.37766358910E+02  0.13020632867E+02  0.20815348160E+02  0.46142318024E+02  0.10000002401E+02 0.  0.
         12    1    1    2    0    0 -0.37766358910E+02 -0.13020632867E+02 -0.20815348160E+02  0.45045681976E+02  0.00000000000E+00 0. -1.
         11    1    3    3    0    0  0.79175697266E+01  0.31621676953E+01  0.18735837159E+01  0.87291197214E+01  0.51100000000E-03 0. -1.
        -11    1    3    3    0    0  0.16361793513E+02  0.17288997043E+01  0.10848602597E+02  0.19707601572E+02  0.51100000000E-03 0.  1.
        -12    1    3    3    0    0  0.13486995671E+02  0.81295654675E+01  0.80931618469E+01  0.17705596731E+02  0.00000000000E+00 0.  1.
</event>
<event>
 7    1  0.3086024E-009  0.4614232E+02  0.7816164E-02  0.1320468E+00
        -11   -1    0    0    0    0  0.00000000000E+00  0.00000000000E+00  0.45593999997E+02  0.45594000000E+02  0.51100000000E-03 0.  1.
         11   -1    0    0    0    0 -0.00000000000E+00 -0.00000000000E+00 -0.45593999997E+02  0.45594000000E+02  0.51100000000E-03 0. -1.
    9900012    2    1    2    0    0 -0.37343379131E+02  0.23743411760E+02  0.84164059231E+01  0.46142318125E+02  0.10000003315E+02 0.  0.
         12    1    1    2    0    0  0.37343379131E+02 -0.23743411760E+02 -0.84164059231E+01  0.45045681875E+02  0.00000000000E+00 0. -1.
         11    1    3    3    0    0 -0.20949819950E+01  0.14473412570E+01  0.28681617537E+00  0.25624226921E+01  0.51100000000E-03 0.  1.
        -11    1    3    3    0    0 -0.11400687966E+02  0.11347610494E+02 -0.77025637924E-01  0.16085704312E+02  0.51100000000E-03 0. -1.
        -12    1    3    3    0    0 -0.23847709171E+02  0.10948460009E+02  0.82066153856E+01  0.27494191120E+02  0.00000000000E+00 0.  1.
</event>
<event>
 7    1  0.3086024E-009  0.4614232E+02  0.7816164E-02  0.1320468E+00
        -11   -1    0    0    0    0  0.00000000000E+00  0.00000000000E+00  0.45593999997E+02  0.45594000000E+02  0.51100000000E-03 0. -1.
         11   -1    0    0    0    0 -0.00000000000E+00 -0.00000000000E+00 -0.45593999997E+02  0.45594000000E+02  0.51100000000E-03 0.  1.
    9900012    2    1    2    0    0 -0.18084049164E+02 -0.31095271522E+02 -0.27113921135E+02  0.46142318026E+02  0.10000002413E+02 0.  0.
         12    1    1    2    0    0  0.18084049164E+02  0.31095271522E+02  0.27113921135E+02  0.45045681974E+02  0.00000000000E+00 0. -1.
         11    1    3    3    0    0 -0.13269878731E+01 -0.48662815905E+01 -0.57234845416E+01  0.76288838563E+01  0.51100000000E-03 0. -1.
        -11    1    3    3    0    0 -0.65376095238E-01 -0.42216794031E+01 -0.43320648826E+01  0.60492675113E+01  0.51100000000E-03 0.  1.
        -12    1    3    3    0    0 -0.16691685196E+02 -0.22007310529E+02 -0.17058371711E+02  0.32464166658E+02  0.00000000000E+00 0.  1.
</event>
<event>
 7    1  0.3086024E-009  0.4614232E+02  0.7816164E-02  0.1320468E+00
        -11   -1    0    0    0    0  0.00000000000E+00  0.00000000000E+00  0.45593999997E+02  0.45594000000E+02  0.51100000000E-03 0.  1.
         11   -1    0    0    0    0 -0.00000000000E+00 -0.00000000000E+00 -0.45593999997E+02  0.45594000000E+02  0.51100000000E-03 0. -1.
    9900012    2    1    2    0    0  0.16819134545E+02  0.36049389921E+02  0.21134608267E+02  0.46142317997E+02  0.10000002150E+02 0.  0.
         12    1    1    2    0    0 -0.16819134545E+02 -0.36049389921E+02 -0.21134608267E+02  0.45045682003E+02  0.00000000000E+00 0. -1.
         11    1    3    3    0    0  0.31409554918E+01  0.17623974444E+01  0.21816672964E+01  0.42108572295E+01  0.51100000000E-03 0. -1.
        -11    1    3    3    0    0  0.48107935717E+01  0.18997519746E+02  0.82064510930E+01  0.21246066250E+02  0.51100000000E-03 0.  1.
         12    1    3    3    0    0  0.88673854818E+01  0.15289472731E+02  0.10746489877E+02  0.20685394518E+02  0.00000000000E+00 0. -1.
</event>
<event>
 7    1  0.3086024E-009  0.4614232E+02  0.7816164E-02  0.1320468E+00
        -11   -1    0    0    0    0  0.00000000000E+00  0.00000000000E+00  0.45593999997E+02  0.45594000000E+02  0.51100000000E-03 0. -1.
         11   -1    0    0    0    0 -0.00000000000E+00 -0.00000000000E+00 -0.45593999997E+02  0.45594000000E+02  0.51100000000E-03 0.  1.
    9900012    2    1    2    0    0 -0.34230332679E+02 -0.27793001411E+02 -0.92166669421E+01  0.46142317052E+02  0.99999935340E+01 0.  0.
         12    1    1    2    0    0  0.34230332679E+02  0.27793001411E+02  0.92166669421E+01  0.45045682948E+02  0.00000000000E+00 0. -1.
         11    1    3    3    0    0 -0.69464289375E+01 -0.70276230127E+01 -0.19057363416E+01  0.10063408541E+02  0.51100000000E-03 0. -1.
        -11    1    3    3    0    0 -0.10706543382E+02 -0.13171846204E+02 -0.20267953103E+01  0.17094896991E+02  0.51100000000E-03 0.  1.
        -12    1    3    3    0    0 -0.16577360359E+02 -0.75935321937E+01 -0.52841352902E+01  0.18984011521E+02  0.00000000000E+00 0.  1.
</event>
<event>
 7    1  0.3086024E-009  0.4614232E+02  0.7816164E-02  0.1320468E+00
        -11   -1    0    0    0    0  0.00000000000E+00  0.00000000000E+00  0.45593999997E+02  0.45594000000E+02  0.51100000000E-03 0.  1.
         11   -1    0    0    0    0 -0.00000000000E+00 -0.00000000000E+00 -0.45593999997E+02  0.45594000000E+02  0.51100000000E-03 0. -1.
    9900012    2    1    2    0    0 -0.19670788983E+01  0.18141952080E+02  0.41183900467E+02  0.46142317828E+02  0.10000000612E+02 0.  0.
         12    1    1    2    0    0  0.19670788983E+01 -0.18141952080E+02 -0.41183900467E+02  0.45045682172E+02  0.00000000000E+00 0. -1.
         11    1    3    3    0    0  0.14549131309E+01  0.42051883792E+00  0.21504271404E+01  0.26301987490E+01  0.51100000000E-03 0. -1.
        -11    1    3    3    0    0 -0.12353589746E+01  0.10834619497E+02  0.30147822475E+02  0.32059418143E+02  0.51100000000E-03 0.  1.
        -12    1    3    3    0    0 -0.21866330546E+01  0.68868137453E+01  0.88856508510E+01  0.11452700936E+02  0.00000000000E+00 0.  1.
</event>
<event>
 7    1  0.3086024E-009  0.4614232E+02  0.7816164E-02  0.1320468E+00
        -11   -1    0    0    0    0  0.00000000000E+00  0.00000000000E+00  0.45593999997E+02  0.45594000000E+02  0.51100000000E-03 0. -1.
         11   -1    0    0    0    0 -0.00000000000E+00 -0.00000000000E+00 -0.45593999997E+02  0.45594000000E+02  0.51100000000E-03 0.  1.
    9900012    2    1    2    0    0  0.24366094642E+02 -0.37680458231E+02 -0.39484122022E+01  0.46142318081E+02  0.10000002920E+02 0.  0.
         12    1    1    2    0    0 -0.24366094642E+02  0.37680458231E+02  0.39484122022E+01  0.45045681919E+02  0.00000000000E+00 0. -1.
         11    1    3    3    0    0  0.71062603443E+01 -0.44246235753E+01  0.35414943703E-01  0.83712295598E+01  0.51100000000E-03 0. -1.
        -11    1    3    3    0    0  0.25408912974E+01 -0.65846141009E+01 -0.14287167562E+01  0.72010071013E+01  0.51100000000E-03 0.  1.
         12    1    3    3    0    0  0.14718943001E+02 -0.26671220555E+02 -0.25551103897E+01  0.30570081420E+02  0.00000000000E+00 0. -1.
</event>
<event>
 7    1  0.3086024E-009  0.4614232E+02  0.7816164E-02  0.1320468E+00
        -11   -1    0    0    0    0  0.00000000000E+00  0.00000000000E+00  0.45593999997E+02  0.45594000000E+02  0.51100000000E-03 0.  1.
         11   -1    0    0    0    0 -0.00000000000E+00 -0.00000000000E+00 -0.45593999997E+02  0.45594000000E+02  0.51100000000E-03 0. -1.
    9900012    2    1    2    0    0 -0.13546870136E+02  0.12672255891E+02  0.41048869086E+02  0.46142318597E+02  0.10000007619E+02 0.  0.
         12    1    1    2    0    0  0.13546870136E+02 -0.12672255891E+02 -0.41048869086E+02  0.45045681403E+02  0.00000000000E+00 0. -1.
         11    1    3    3    0    0 -0.84788179519E+01  0.87252826171E+01  0.16698161079E+02  0.20660336258E+02  0.51100000000E-03 0. -1.
        -11    1    3    3    0    0 -0.29251210410E+01  0.39215706064E+01  0.12211731683E+02  0.13155281832E+02  0.51100000000E-03 0.  1.
         12    1    3    3    0    0 -0.21429311433E+01  0.25402667836E-01  0.12138976325E+02  0.12326700507E+02  0.00000000000E+00 0. -1.
</event>
<event>
 7    1  0.3086024E-009  0.4614232E+02  0.7816164E-02  0.1320468E+00
        -11   -1    0    0    0    0  0.00000000000E+00  0.00000000000E+00  0.45593999997E+02  0.45594000000E+02  0.51100000000E-03 0. -1.
         11   -1    0    0    0    0 -0.00000000000E+00 -0.00000000000E+00 -0.45593999997E+02  0.45594000000E+02  0.51100000000E-03 0.  1.
    9900012    2    1    2    0    0 -0.37677605768E+02  0.23801980933E+02 -0.65557023076E+01  0.46142317571E+02  0.99999982686E+01 0.  0.
         12    1    1    2    0    0  0.37677605768E+02 -0.23801980933E+02  0.65557023076E+01  0.45045682429E+02  0.00000000000E+00 0. -1.
         11    1    3    3    0    0 -0.99866828335E+01  0.48753960693E+01 -0.52944209913E+01  0.12309923426E+02  0.51100000000E-03 0. -1.
        -11    1    3    3    0    0 -0.25400115998E+02  0.15737928561E+02 -0.99469816418E+00  0.29897118804E+02  0.51100000000E-03 0.  1.
        -12    1    3    3    0    0 -0.22908069367E+01  0.31886563026E+01 -0.26658315217E+00  0.39352753416E+01  0.00000000000E+00 0.  1.
</event>
<event>
 7    1  0.3086024E-009  0.4614232E+02  0.7816164E-02  0.1320468E+00
        -11   -1    0    0    0    0  0.00000000000E+00  0.00000000000E+00  0.45593999997E+02  0.45594000000E+02  0.51100000000E-03 0.  1.
         11   -1    0    0    0    0 -0.00000000000E+00 -0.00000000000E+00 -0.45593999997E+02  0.45594000000E+02  0.51100000000E-03 0. -1.
    9900012    2    1    2    0    0 -0.72866306092E+01  0.43319993424E+02 -0.99697851798E+01  0.46142318382E+02  0.10000005659E+02 0.  0.
         12    1    1    2    0    0  0.72866306092E+01 -0.43319993424E+02  0.99697851798E+01  0.45045681618E+02  0.00000000000E+00 0. -1.
         11    1    3    3    0    0  0.11030080655E+01  0.18941409653E+01 -0.61641424986E+00  0.22769197565E+01  0.51100000000E-03 0. -1.
        -11    1    3    3    0    0 -0.56624296363E+01  0.22174099822E+02 -0.84654242390E+01  0.24401172515E+02  0.51100000000E-03 0.  1.
        -12    1    3    3    0    0 -0.27272090384E+01  0.19251752637E+02 -0.88794669096E+00  0.19464226110E+02  0.00000000000E+00 0.  1.
</event>
<event>
 7    1  0.3086024E-009  0.4614232E+02  0.7816164E-02  0.1320468E+00
        -11   -1    0    0    0    0  0.00000000000E+00  0.00000000000E+00  0.45593999997E+02  0.45594000000E+02  0.51100000000E-03 0.  1.
         11   -1    0    0    0    0 -0.00000000000E+00 -0.00000000000E+00 -0.45593999997E+02  0.45594000000E+02  0.51100000000E-03 0. -1.
    9900012    2    1    2    0    0 -0.36256474929E+02 -0.11229637033E+02  0.24258540947E+02  0.46142317287E+02  0.99999956796E+01 0.  0.
         12    1    1    2    0    0  0.36256474929E+02  0.11229637033E+02 -0.24258540947E+02  0.45045682713E+02  0.00000000000E+00 0. -1.
         11    1    3    3    0    0 -0.18513801392E+01 -0.15630180520E+01  0.20754658778E+00  0.24318120194E+01  0.51100000000E-03 0. -1.
        -11    1    3    3    0    0 -0.26809462958E+02 -0.61485770118E+01  0.21644888508E+02  0.35000764308E+02  0.51100000000E-03 0.  1.
        -12    1    3    3    0    0 -0.75956318318E+01 -0.35180419690E+01  0.24061058516E+01  0.87097409599E+01  0.00000000000E+00 0.  1.
</event>
<event>
 7    1  0.3086024E-009  0.4614232E+02  0.7816164E-02  0.1320468E+00
        -11   -1    0    0    0    0  0.00000000000E+00  0.00000000000E+00  0.45593999997E+02  0.45594000000E+02  0.51100000000E-03 0.  1.
         11   -1    0    0    0    0 -0.00000000000E+00 -0.00000000000E+00 -0.45593999997E+02  0.45594000000E+02  0.51100000000E-03 0. -1.
    9900012    2    1    2    0    0  0.44285380271E+02 -0.33987908847E+01  0.75077811766E+01  0.46142318038E+02  0.10000002525E+02 0.  0.
         12    1    1    2    0    0 -0.44285380271E+02  0.33987908847E+01 -0.75077811766E+01  0.45045681962E+02  0.00000000000E+00 0. -1.
         11    1    3    3    0    0  0.29578185542E+00  0.11731591358E+01  0.31491067414E+00  0.12501832897E+01  0.51100000000E-03 0. -1.
        -11    1    3    3    0    0  0.29610578090E+02 -0.17758358973E+01  0.48054452340E+01  0.30050494706E+02  0.51100000000E-03 0.  1.
         12    1    3    3    0    0  0.14379020326E+02 -0.27961141233E+01  0.23874252684E+01  0.14841640042E+02  0.00000000000E+00 0. -1.
</event>
<event>
 7    1  0.3086024E-009  0.4614232E+02  0.7816164E-02  0.1320468E+00
        -11   -1    0    0    0    0  0.00000000000E+00  0.00000000000E+00  0.45593999997E+02  0.45594000000E+02  0.51100000000E-03 0.  1.
         11   -1    0    0    0    0 -0.00000000000E+00 -0.00000000000E+00 -0.45593999997E+02  0.45594000000E+02  0.51100000000E-03 0. -1.
    9900012    2    1    2    0    0 -0.39285663212E+02 -0.60512677610E+01  0.21192729255E+02  0.46142323750E+02  0.10000054612E+02 0.  0.
         12    1    1    2    0    0  0.39285663212E+02  0.60512677610E+01 -0.21192729255E+02  0.45045676250E+02  0.00000000000E+00 0. -1.
         11    1    3    3    0    0 -0.74972953060E+01  0.24358458066E+01  0.33136739422E+01  0.85512114320E+01  0.51100000000E-03 0. -1.
        -11    1    3    3    0    0 -0.10457058777E+02 -0.36031299014E+01  0.75573246138E+01  0.13395737342E+02  0.51100000000E-03 0.  1.
         12    1    3    3    0    0 -0.21331309130E+02 -0.48839836662E+01  0.10321730699E+02  0.24195374977E+02  0.00000000000E+00 0. -1.
</event>
<event>
 7    1  0.3086024E-009  0.4614232E+02  0.7816164E-02  0.1320468E+00
        -11   -1    0    0    0    0  0.00000000000E+00  0.00000000000E+00  0.45593999997E+02  0.45594000000E+02  0.51100000000E-03 0. -1.
         11   -1    0    0    0    0 -0.00000000000E+00 -0.00000000000E+00 -0.45593999997E+02  0.45594000000E+02  0.51100000000E-03 0.  1.
    9900012    2    1    2    0    0  0.15403432121E+02  0.25923463003E+02 -0.33463738227E+02  0.46142318395E+02  0.10000005779E+02 0.  0.
         12    1    1    2    0    0 -0.15403432121E+02 -0.25923463003E+02  0.33463738227E+02  0.45045681605E+02  0.00000000000E+00 0. -1.
         11    1    3    3    0    0  0.52524223587E+01  0.12005892717E+02 -0.18742290282E+02  0.22869255472E+02  0.51100000000E-03 0. -1.
        -11    1    3    3    0    0  0.66700275566E+01  0.95187159476E+01 -0.12925871890E+02  0.17383135082E+02  0.51100000000E-03 0.  1.
         12    1    3    3    0    0  0.34809822052E+01  0.43988543381E+01 -0.17955760544E+01  0.58899278406E+01  0.00000000000E+00 0. -1.
</event>
<event>
 7    1  0.3086024E-009  0.4614232E+02  0.7816164E-02  0.1320468E+00
        -11   -1    0    0    0    0  0.00000000000E+00  0.00000000000E+00  0.45593999997E+02  0.45594000000E+02  0.51100000000E-03 0.  1.
         11   -1    0    0    0    0 -0.00000000000E+00 -0.00000000000E+00 -0.45593999997E+02  0.45594000000E+02  0.51100000000E-03 0. -1.
    9900012    2    1    2    0    0 -0.13891144668E+02 -0.20001479636E+02  0.37895783590E+02  0.46142317612E+02  0.99999986444E+01 0.  0.
         12    1    1    2    0    0  0.13891144668E+02  0.20001479636E+02 -0.37895783590E+02  0.45045682388E+02  0.00000000000E+00 0. -1.
         11    1    3    3    0    0 -0.46845706420E+01 -0.27936647957E+01  0.59751814181E+01  0.80902755411E+01  0.51100000000E-03 0. -1.
        -11    1    3    3    0    0 -0.92791849182E+01 -0.16038149557E+02  0.25475242919E+02  0.31501008174E+02  0.51100000000E-03 0.  1.
         12    1    3    3    0    0  0.72610891933E-01 -0.11696652837E+01  0.64453592531E+01  0.65510338969E+01  0.00000000000E+00 0. -1.
</event>
<event>
 7    1  0.3086024E-009  0.4614232E+02  0.7816164E-02  0.1320468E+00
        -11   -1    0    0    0    0  0.00000000000E+00  0.00000000000E+00  0.45593999997E+02  0.45594000000E+02  0.51100000000E-03 0.  1.
         11   -1    0    0    0    0 -0.00000000000E+00 -0.00000000000E+00 -0.45593999997E+02  0.45594000000E+02  0.51100000000E-03 0. -1.
    9900012    2    1    2    0    0  0.36417143195E+01  0.29621301202E+02  0.33740625873E+02  0.46142318716E+02  0.10000008708E+02 0.  0.
         12    1    1    2    0    0 -0.36417143195E+01 -0.29621301202E+02 -0.33740625873E+02  0.45045681284E+02  0.00000000000E+00 0. -1.
         11    1    3    3    0    0 -0.17495280476E+01  0.15803694514E+02  0.14248373194E+02  0.21350263409E+02  0.51100000000E-03 0.  1.
        -11    1    3    3    0    0  0.10579999060E+01  0.72537243357E+01  0.10982812039E+02  0.13204470496E+02  0.51100000000E-03 0. -1.
        -12    1    3    3    0    0  0.43332424611E+01  0.65638823515E+01  0.85094406391E+01  0.11587584811E+02  0.00000000000E+00 0.  1.
</event>
<event>
 7    1  0.3086024E-009  0.4614232E+02  0.7816164E-02  0.1320468E+00
        -11   -1    0    0    0    0  0.00000000000E+00  0.00000000000E+00  0.45593999997E+02  0.45594000000E+02  0.51100000000E-03 0. -1.
         11   -1    0    0    0    0 -0.00000000000E+00 -0.00000000000E+00 -0.45593999997E+02  0.45594000000E+02  0.51100000000E-03 0.  1.
    9900012    2    1    2    0    0  0.39686263295E+02 -0.17531394033E+02 -0.12114627261E+02  0.46142318023E+02  0.10000002392E+02 0.  0.
         12    1    1    2    0    0 -0.39686263295E+02  0.17531394033E+02  0.12114627261E+02  0.45045681977E+02  0.00000000000E+00 0. -1.
         11    1    3    3    0    0  0.32852845534E+01 -0.45623509762E+01 -0.68539795804E+00  0.56637365448E+01  0.51100000000E-03 0. -1.
        -11    1    3    3    0    0  0.34615835275E+02 -0.11381285293E+02 -0.10592451495E+02  0.37947196677E+02  0.51100000000E-03 0.  1.
        -12    1    3    3    0    0  0.17851434668E+01 -0.15877577644E+01 -0.83677780838E+00  0.25313848020E+01  0.00000000000E+00 0.  1.
</event>
<event>
 7    1  0.3086024E-009  0.4614232E+02  0.7816164E-02  0.1320468E+00
        -11   -1    0    0    0    0  0.00000000000E+00  0.00000000000E+00  0.45593999997E+02  0.45594000000E+02  0.51100000000E-03 0.  1.
         11   -1    0    0    0    0 -0.00000000000E+00 -0.00000000000E+00 -0.45593999997E+02  0.45594000000E+02  0.51100000000E-03 0. -1.
    9900012    2    1    2    0    0  0.42326075362E+02 -0.11654377858E+02  0.10089216949E+02  0.46142317882E+02  0.10000001107E+02 0.  0.
         12    1    1    2    0    0 -0.42326075362E+02  0.11654377858E+02 -0.10089216949E+02  0.45045682118E+02  0.00000000000E+00 0. -1.
         11    1    3    3    0    0  0.56396949217E+01 -0.13380785714E+01  0.33034355274E+01  0.66715290315E+01  0.51100000000E-03 0. -1.
        -11    1    3    3    0    0  0.32291861655E+02 -0.63326392453E+01  0.50620351587E+01  0.33294006205E+02  0.51100000000E-03 0.  1.
        -12    1    3    3    0    0  0.43945187845E+01 -0.39836600413E+01  0.17237462631E+01  0.61767826457E+01  0.00000000000E+00 0.  1.
</event>
<event>
 7    1  0.3086024E-009  0.4614232E+02  0.7816164E-02  0.1320468E+00
        -11   -1    0    0    0    0  0.00000000000E+00  0.00000000000E+00  0.45593999997E+02  0.45594000000E+02  0.51100000000E-03 0. -1.
         11   -1    0    0    0    0 -0.00000000000E+00 -0.00000000000E+00 -0.45593999997E+02  0.45594000000E+02  0.51100000000E-03 0.  1.
    9900012    2    1    2    0    0  0.12258433707E+02 -0.23822718717E+01 -0.43280123266E+02  0.46142317786E+02  0.10000000230E+02 0.  0.
         12    1    1    2    0    0 -0.12258433707E+02  0.23822718717E+01  0.43280123266E+02  0.45045682214E+02  0.00000000000E+00 0. -1.
         11    1    3    3    0    0  0.21481058239E+01  0.69431112972E+00 -0.17864113099E+02  0.18006192369E+02  0.51100000000E-03 0. -1.
        -11    1    3    3    0    0  0.54423312388E+01 -0.26979376739E+00 -0.18760887545E+02  0.19536188465E+02  0.51100000000E-03 0.  1.
        -12    1    3    3    0    0  0.46679966439E+01 -0.28067892341E+01 -0.66551226213E+01  0.85999369519E+01  0.00000000000E+00 0.  1.
</event>
<event>
 7    1  0.3086024E-009  0.4614232E+02  0.7816164E-02  0.1320468E+00
        -11   -1    0    0    0    0  0.00000000000E+00  0.00000000000E+00  0.45593999997E+02  0.45594000000E+02  0.51100000000E-03 0.  1.
         11   -1    0    0    0    0 -0.00000000000E+00 -0.00000000000E+00 -0.45593999997E+02  0.45594000000E+02  0.51100000000E-03 0. -1.
    9900012    2    1    2    0    0 -0.42697185887E+02  0.55470633722E+01  0.13239851406E+02  0.46142320296E+02  0.10000023115E+02 0.  0.
         12    1    1    2    0    0  0.42697185887E+02 -0.55470633722E+01 -0.13239851406E+02  0.45045679704E+02  0.00000000000E+00 0. -1.
         11    1    3    3    0    0 -0.12908467713E+02  0.65774297064E+00  0.13832380698E+01  0.12999019668E+02  0.51100000000E-03 0. -1.
        -11    1    3    3    0    0 -0.14617337282E+02  0.58183136035E+01  0.65858737931E+01  0.17055587246E+02  0.51100000000E-03 0.  1.
        -12    1    3    3    0    0 -0.15171380892E+02 -0.92899320197E+00  0.52707395428E+01  0.16087713382E+02  0.00000000000E+00 0.  1.
</event>
<event>
 7    1  0.3086024E-009  0.4614232E+02  0.7816164E-02  0.1320468E+00
        -11   -1    0    0    0    0  0.00000000000E+00  0.00000000000E+00  0.45593999997E+02  0.45594000000E+02  0.51100000000E-03 0.  1.
         11   -1    0    0    0    0 -0.00000000000E+00 -0.00000000000E+00 -0.45593999997E+02  0.45594000000E+02  0.51100000000E-03 0. -1.
    9900012    2    1    2    0    0 -0.17035964016E+02  0.27911116637E+02  0.30981591008E+02  0.46142317818E+02  0.10000000517E+02 0.  0.
         12    1    1    2    0    0  0.17035964016E+02 -0.27911116637E+02 -0.30981591008E+02  0.45045682182E+02  0.00000000000E+00 0. -1.
         11    1    3    3    0    0 -0.67360012637E+01  0.63230842291E+01  0.89603234313E+01  0.12870217692E+02  0.51100000000E-03 0. -1.
        -11    1    3    3    0    0  0.47581185355E+00  0.22496259090E+01  0.41231757976E+00  0.23360692837E+01  0.51100000000E-03 0.  1.
        -12    1    3    3    0    0 -0.10775774606E+02  0.19338406499E+02  0.21608949997E+02  0.30936030842E+02  0.00000000000E+00 0.  1.
</event>
<event>
 7    1  0.3086024E-009  0.4614232E+02  0.7816164E-02  0.1320468E+00
        -11   -1    0    0    0    0  0.00000000000E+00  0.00000000000E+00  0.45593999997E+02  0.45594000000E+02  0.51100000000E-03 0.  1.
         11   -1    0    0    0    0 -0.00000000000E+00 -0.00000000000E+00 -0.45593999997E+02  0.45594000000E+02  0.51100000000E-03 0. -1.
    9900012    2    1    2    0    0  0.29194067193E+01 -0.44718583373E+02  0.45649537469E+01  0.46142318329E+02  0.10000005179E+02 0.  0.
         12    1    1    2    0    0 -0.29194067193E+01  0.44718583373E+02 -0.45649537469E+01  0.45045681671E+02  0.00000000000E+00 0. -1.
         11    1    3    3    0    0  0.49127364818E+01 -0.23512341600E+02  0.11373109950E+01  0.24047009457E+02  0.51100000000E-03 0. -1.
        -11    1    3    3    0    0 -0.27869220040E+01 -0.20417503357E+02  0.37175620805E+01  0.20939475773E+02  0.51100000000E-03 0.  1.
         12    1    3    3    0    0  0.79359224152E+00 -0.78873841614E+00 -0.28991932859E+00  0.11558330987E+01  0.00000000000E+00 0. -1.
</event>
<event>
 7    1  0.3086024E-009  0.4614232E+02  0.7816164E-02  0.1320468E+00
        -11   -1    0    0    0    0  0.00000000000E+00  0.00000000000E+00  0.45593999997E+02  0.45594000000E+02  0.51100000000E-03 0.  1.
         11   -1    0    0    0    0 -0.00000000000E+00 -0.00000000000E+00 -0.45593999997E+02  0.45594000000E+02  0.51100000000E-03 0. -1.
    9900012    2    1    2    0    0  0.41660933161E+02  0.20524213558E+01  0.17007872645E+02  0.46142317441E+02  0.99999970809E+01 0.  0.
         12    1    1    2    0    0 -0.41660933161E+02 -0.20524213558E+01 -0.17007872645E+02  0.45045682559E+02  0.00000000000E+00 0. -1.
         11    1    3    3    0    0  0.19892497525E+01 -0.99175067571E+00 -0.60130313527E+00  0.23026614389E+01  0.51100000000E-03 0. -1.
        -11    1    3    3    0    0  0.21210710462E+02 -0.13385394456E+00  0.71428180735E+01  0.22381510348E+02  0.51100000000E-03 0.  1.
        -12    1    3    3    0    0  0.18460972947E+02  0.31780259761E+01  0.10466357707E+02  0.21458145654E+02  0.00000000000E+00 0.  1.
</event>
<event>
 7    1  0.3086024E-009  0.4614232E+02  0.7816164E-02  0.1320468E+00
        -11   -1    0    0    0    0  0.00000000000E+00  0.00000000000E+00  0.45593999997E+02  0.45594000000E+02  0.51100000000E-03 0. -1.
         11   -1    0    0    0    0 -0.00000000000E+00 -0.00000000000E+00 -0.45593999997E+02  0.45594000000E+02  0.51100000000E-03 0.  1.
    9900012    2    1    2    0    0 -0.33046702736E+02 -0.55373557645E+01  0.30105922540E+02  0.46142318270E+02  0.10000004636E+02 0.  0.
         12    1    1    2    0    0  0.33046702736E+02  0.55373557645E+01 -0.30105922540E+02  0.45045681730E+02  0.00000000000E+00 0. -1.
         11    1    3    3    0    0 -0.11324076924E+02  0.15267939848E+01  0.88847646174E+01  0.14474282732E+02  0.51100000000E-03 0. -1.
        -11    1    3    3    0    0 -0.14729989284E+02 -0.52591949562E+01  0.17741954854E+02  0.23651821880E+02  0.51100000000E-03 0.  1.
        -12    1    3    3    0    0 -0.69926365281E+01 -0.18049547931E+01  0.34792030679E+01  0.80162136577E+01  0.00000000000E+00 0.  1.
</event>
<event>
 7    1  0.3086024E-009  0.4614232E+02  0.7816164E-02  0.1320468E+00
        -11   -1    0    0    0    0  0.00000000000E+00  0.00000000000E+00  0.45593999997E+02  0.45594000000E+02  0.51100000000E-03 0.  1.
         11   -1    0    0    0    0 -0.00000000000E+00 -0.00000000000E+00 -0.45593999997E+02  0.45594000000E+02  0.51100000000E-03 0. -1.
    9900012    2    1    2    0    0 -0.11444375110E+02 -0.36226287408E+01  0.43416775135E+02  0.46142317368E+02  0.99999964158E+01 0.  0.
         12    1    1    2    0    0  0.11444375110E+02  0.36226287408E+01 -0.43416775135E+02  0.45045682632E+02  0.00000000000E+00 0. -1.
         11    1    3    3    0    0 -0.22114262140E+01 -0.99512580401E-01  0.26802918177E+01  0.34762441143E+01  0.51100000000E-03 0. -1.
        -11    1    3    3    0    0 -0.17915308079E+00 -0.36271117674E+01  0.11661526406E+02  0.12213895119E+02  0.51100000000E-03 0.  1.
        -12    1    3    3    0    0 -0.90537958153E+01  0.10399560696E+00  0.29074956912E+02  0.30452178135E+02  0.00000000000E+00 0.  1.
</event>
<event>
 7    1  0.3086024E-009  0.4614233E+02  0.7816164E-02  0.1320468E+00
        -11   -1    0    0    0    0  0.00000000000E+00  0.00000000000E+00  0.45593999997E+02  0.45594000000E+02  0.51100000000E-03 0.  1.
         11   -1    0    0    0    0 -0.00000000000E+00 -0.00000000000E+00 -0.45593999997E+02  0.45594000000E+02  0.51100000000E-03 0. -1.
    9900012    2    1    2    0    0  0.27866282954E+02  0.30884165401E+02  0.17284418053E+02  0.46142328669E+02  0.10000099468E+02 0.  0.
         12    1    1    2    0    0 -0.27866282954E+02 -0.30884165401E+02 -0.17284418053E+02  0.45045671331E+02  0.00000000000E+00 0. -1.
         11    1    3    3    0    0  0.16818523348E+02  0.12530274763E+02  0.76821447130E+01  0.22335752974E+02  0.51100000000E-03 0. -1.
        -11    1    3    3    0    0  0.27316438910E+01  0.66935378963E+01  0.48949831700E+01  0.87307610443E+01  0.51100000000E-03 0.  1.
        -12    1    3    3    0    0  0.83161157150E+01  0.11660352742E+02  0.47072901702E+01  0.15075814651E+02  0.00000000000E+00 0.  1.
</event>
<event>
 7    1  0.3086024E-009  0.4614232E+02  0.7816164E-02  0.1320468E+00
        -11   -1    0    0    0    0  0.00000000000E+00  0.00000000000E+00  0.45593999997E+02  0.45594000000E+02  0.51100000000E-03 0. -1.
         11   -1    0    0    0    0 -0.00000000000E+00 -0.00000000000E+00 -0.45593999997E+02  0.45594000000E+02  0.51100000000E-03 0.  1.
    9900012    2    1    2    0    0 -0.35548354300E+02  0.24949032527E+02  0.11957166194E+02  0.46142317178E+02  0.99999946814E+01 0.  0.
         12    1    1    2    0    0  0.35548354300E+02 -0.24949032527E+02 -0.11957166194E+02  0.45045682822E+02  0.00000000000E+00 0. -1.
         11    1    3    3    0    0 -0.19631216030E+02  0.12429086833E+02  0.10475508443E+02  0.25487312917E+02  0.51100000000E-03 0. -1.
        -11    1    3    3    0    0 -0.13940729181E+02  0.95042068287E+01  0.20800522092E+01  0.17000014559E+02  0.51100000000E-03 0.  1.
         12    1    3    3    0    0 -0.19764090895E+01  0.30157388661E+01 -0.59839445851E+00  0.36549897025E+01  0.00000000000E+00 0. -1.
</event>
<event>
 7    1  0.3086024E-009  0.4614232E+02  0.7816164E-02  0.1320468E+00
        -11   -1    0    0    0    0  0.00000000000E+00  0.00000000000E+00  0.45593999997E+02  0.45594000000E+02  0.51100000000E-03 0.  1.
         11   -1    0    0    0    0 -0.00000000000E+00 -0.00000000000E+00 -0.45593999997E+02  0.45594000000E+02  0.51100000000E-03 0. -1.
    9900012    2    1    2    0    0 -0.21198334325E+02 -0.34341804968E+02  0.20009612175E+02  0.46142317343E+02  0.99999961881E+01 0.  0.
         12    1    1    2    0    0  0.21198334325E+02  0.34341804968E+02 -0.20009612175E+02  0.45045682657E+02  0.00000000000E+00 0. -1.
         11    1    3    3    0    0 -0.17930969809E+01 -0.30017753925E+01  0.15778658651E+01  0.38360804526E+01  0.51100000000E-03 0. -1.
        -11    1    3    3    0    0 -0.48148535221E+01 -0.16224971249E+02  0.10080718930E+02  0.19699071067E+02  0.51100000000E-03 0.  1.
         12    1    3    3    0    0 -0.14590383822E+02 -0.15115058326E+02  0.83510273798E+01  0.22607165824E+02  0.00000000000E+00 0. -1.
</event>
<event>
 7    1  0.3086024E-009  0.4614231E+02  0.7816164E-02  0.1320468E+00
        -11   -1    0    0    0    0  0.00000000000E+00  0.00000000000E+00  0.45593999997E+02  0.45594000000E+02  0.51100000000E-03 0.  1.
         11   -1    0    0    0    0 -0.00000000000E+00 -0.00000000000E+00 -0.45593999997E+02  0.45594000000E+02  0.51100000000E-03 0. -1.
    9900012    2    1    2    0    0 -0.42268713167E+01 -0.20342062260E+01  0.44800779383E+02  0.46142309091E+02  0.99999209415E+01 0.  0.
         12    1    1    2    0    0  0.42268713167E+01  0.20342062260E+01 -0.44800779383E+02  0.45045690909E+02  0.00000000000E+00 0. -1.
         11    1    3    3    0    0 -0.65481708420E+00 -0.21150835310E+01  0.17561946529E+01  0.28260544362E+01  0.51100000000E-03 0. -1.
        -11    1    3    3    0    0 -0.32040117938E-02 -0.46888717672E+00  0.18647501236E+02  0.18653395618E+02  0.51100000000E-03 0.  1.
         12    1    3    3    0    0 -0.35688502207E+01  0.54976448171E+00  0.24397083494E+02  0.24662859037E+02  0.00000000000E+00 0. -1.
</event>
<event>
 7    1  0.3086024E-009  0.4614232E+02  0.7816164E-02  0.1320468E+00
        -11   -1    0    0    0    0  0.00000000000E+00  0.00000000000E+00  0.45593999997E+02  0.45594000000E+02  0.51100000000E-03 0.  1.
         11   -1    0    0    0    0 -0.00000000000E+00 -0.00000000000E+00 -0.45593999997E+02  0.45594000000E+02  0.51100000000E-03 0. -1.
    9900012    2    1    2    0    0 -0.43462164742E+02  0.93605628705E+01 -0.72480162815E+01  0.46142316063E+02  0.99999845137E+01 0.  0.
         12    1    1    2    0    0  0.43462164742E+02 -0.93605628705E+01  0.72480162815E+01  0.45045683937E+02  0.00000000000E+00 0. -1.
         11    1    3    3    0    0 -0.57814565502E+01  0.36262171113E+01 -0.14240648582E+01  0.69715601813E+01  0.51100000000E-03 0. -1.
        -11    1    3    3    0    0 -0.34826699026E+02  0.50915993858E+01 -0.72190819903E+01  0.35929632539E+02  0.51100000000E-03 0.  1.
        -12    1    3    3    0    0 -0.28540091663E+01  0.64274637341E+00  0.13951305670E+01  0.32411233424E+01  0.00000000000E+00 0.  1.
</event>
<event>
 7    1  0.3086024E-009  0.4614232E+02  0.7816164E-02  0.1320468E+00
        -11   -1    0    0    0    0  0.00000000000E+00  0.00000000000E+00  0.45593999997E+02  0.45594000000E+02  0.51100000000E-03 0.  1.
         11   -1    0    0    0    0 -0.00000000000E+00 -0.00000000000E+00 -0.45593999997E+02  0.45594000000E+02  0.51100000000E-03 0. -1.
    9900012    2    1    2    0    0 -0.17715623072E+02 -0.41360752419E+02  0.21350376684E+01  0.46142317329E+02  0.99999960563E+01 0.  0.
         12    1    1    2    0    0  0.17715623072E+02  0.41360752419E+02 -0.21350376684E+01  0.45045682671E+02  0.00000000000E+00 0. -1.
         11    1    3    3    0    0 -0.69536086373E+01 -0.98479186130E+01  0.19951454280E+01  0.12219442689E+02  0.51100000000E-03 0.  1.
        -11    1    3    3    0    0 -0.81711374556E+01 -0.19750251659E+02 -0.27123402016E+01  0.21545224936E+02  0.51100000000E-03 0. -1.
         12    1    3    3    0    0 -0.25908769791E+01 -0.11762582147E+02  0.28522324421E+01  0.12377649704E+02  0.00000000000E+00 0. -1.
</event>
<event>
 7    1  0.3086024E-009  0.4614231E+02  0.7816164E-02  0.1320468E+00
        -11   -1    0    0    0    0  0.00000000000E+00  0.00000000000E+00  0.45593999997E+02  0.45594000000E+02  0.51100000000E-03 0. -1.
         11   -1    0    0    0    0 -0.00000000000E+00 -0.00000000000E+00 -0.45593999997E+02  0.45594000000E+02  0.51100000000E-03 0.  1.
    9900012    2    1    2    0    0  0.36807020132E+02 -0.22658103852E+02 -0.12687293336E+02  0.46142314154E+02  0.99999671079E+01 0.  0.
         12    1    1    2    0    0 -0.36807020132E+02  0.22658103852E+02  0.12687293336E+02  0.45045685846E+02  0.00000000000E+00 0. -1.
         11    1    3    3    0    0  0.48712499897E+01 -0.35661273831E+01  0.85107207946E+00  0.60967749606E+01  0.51100000000E-03 0. -1.
        -11    1    3    3    0    0  0.19236479036E+01 -0.63073826944E+00  0.55008943776E+00  0.20978204575E+01  0.51100000000E-03 0.  1.
        -12    1    3    3    0    0  0.30012122238E+02 -0.18461238200E+02 -0.14088454853E+02  0.37947718736E+02  0.00000000000E+00 0.  1.
</event>
<event>
 7    1  0.3086024E-009  0.4614232E+02  0.7816164E-02  0.1320468E+00
        -11   -1    0    0    0    0  0.00000000000E+00  0.00000000000E+00  0.45593999997E+02  0.45594000000E+02  0.51100000000E-03 0.  1.
         11   -1    0    0    0    0 -0.00000000000E+00 -0.00000000000E+00 -0.45593999997E+02  0.45594000000E+02  0.51100000000E-03 0. -1.
    9900012    2    1    2    0    0  0.85054021172E+01  0.32248223500E+02 -0.30279096748E+02  0.46142317810E+02  0.10000000446E+02 0.  0.
         12    1    1    2    0    0 -0.85054021172E+01 -0.32248223500E+02  0.30279096748E+02  0.45045682190E+02  0.00000000000E+00 0. -1.
         11    1    3    3    0    0  0.22455147050E+01  0.12459746631E+02 -0.77387501042E+01  0.14838324563E+02  0.51100000000E-03 0. -1.
        -11    1    3    3    0    0  0.16276813209E+01  0.14894872122E+02 -0.15424447927E+02  0.21503956755E+02  0.51100000000E-03 0.  1.
         12    1    3    3    0    0  0.46322060913E+01  0.48936047467E+01 -0.71158987170E+01  0.98000364917E+01  0.00000000000E+00 0. -1.
</event>
<event>
 7    1  0.3086024E-009  0.4614232E+02  0.7816164E-02  0.1320468E+00
        -11   -1    0    0    0    0  0.00000000000E+00  0.00000000000E+00  0.45593999997E+02  0.45594000000E+02  0.51100000000E-03 0. -1.
         11   -1    0    0    0    0 -0.00000000000E+00 -0.00000000000E+00 -0.45593999997E+02  0.45594000000E+02  0.51100000000E-03 0.  1.
    9900012    2    1    2    0    0  0.15556096050E+02  0.97405323901E+01 -0.41136885968E+02  0.46142317824E+02  0.10000000573E+02 0.  0.
         12    1    1    2    0    0 -0.15556096050E+02 -0.97405323901E+01  0.41136885968E+02  0.45045682176E+02  0.00000000000E+00 0. -1.
         11    1    3    3    0    0  0.16108468110E+01 -0.59863876979E+00 -0.58261375201E+00  0.18145618949E+01  0.51100000000E-03 0. -1.
        -11    1    3    3    0    0  0.59498686485E+01  0.52718755595E+01 -0.13516520397E+02  0.15680877933E+02  0.51100000000E-03 0.  1.
        -12    1    3    3    0    0  0.79953805902E+01  0.50672956004E+01 -0.27037751819E+02  0.28646877996E+02  0.00000000000E+00 0.  1.
</event>
<event>
 7    1  0.3086024E-009  0.4614231E+02  0.7816164E-02  0.1320468E+00
        -11   -1    0    0    0    0  0.00000000000E+00  0.00000000000E+00  0.45593999997E+02  0.45594000000E+02  0.51100000000E-03 0.  1.
         11   -1    0    0    0    0 -0.00000000000E+00 -0.00000000000E+00 -0.45593999997E+02  0.45594000000E+02  0.51100000000E-03 0. -1.
    9900012    2    1    2    0    0  0.94383103260E+00 -0.61762291828E+01  0.44610280854E+02  0.46142314503E+02  0.99999702941E+01 0.  0.
         12    1    1    2    0    0 -0.94383103260E+00  0.61762291828E+01 -0.44610280854E+02  0.45045685497E+02  0.00000000000E+00 0. -1.
         11    1    3    3    0    0  0.26228773700E+01 -0.20571534016E+01  0.23096717955E+02  0.23336018220E+02  0.51100000000E-03 0. -1.
        -11    1    3    3    0    0 -0.13407415659E+01 -0.46879514075E+01  0.21595743676E+02  0.22139345553E+02  0.51100000000E-03 0.  1.
         12    1    3    3    0    0 -0.33830477150E+00  0.56887562637E+00 -0.82180776260E-01  0.66695073033E+00  0.00000000000E+00 0. -1.
</event>
<event>
 7    1  0.3086024E-009  0.4614232E+02  0.7816164E-02  0.1320468E+00
        -11   -1    0    0    0    0  0.00000000000E+00  0.00000000000E+00  0.45593999997E+02  0.45594000000E+02  0.51100000000E-03 0.  1.
         11   -1    0    0    0    0 -0.00000000000E+00 -0.00000000000E+00 -0.45593999997E+02  0.45594000000E+02  0.51100000000E-03 0. -1.
    9900012    2    1    2    0    0 -0.24216285931E+01  0.59753885435E+01  0.44581878292E+02  0.46142318461E+02  0.10000006382E+02 0.  0.
         12    1    1    2    0    0  0.24216285931E+01 -0.59753885435E+01 -0.44581878292E+02  0.45045681539E+02  0.00000000000E+00 0. -1.
         11    1    3    3    0    0 -0.72693141446E+00 -0.27570531689E+00  0.71112968575E+01  0.71536694053E+01  0.51100000000E-03 0. -1.
        -11    1    3    3    0    0 -0.16493416361E+01  0.70373118187E+01  0.16626068687E+02  0.18129264897E+02  0.51100000000E-03 0.  1.
        -12    1    3    3    0    0 -0.45355542571E-01 -0.78621795826E+00  0.20844512747E+02  0.20859384159E+02  0.00000000000E+00 0.  1.
</event>
<event>
 7    1  0.3086024E-009  0.4614232E+02  0.7816164E-02  0.1320468E+00
        -11   -1    0    0    0    0  0.00000000000E+00  0.00000000000E+00  0.45593999997E+02  0.45594000000E+02  0.51100000000E-03 0. -1.
         11   -1    0    0    0    0 -0.00000000000E+00 -0.00000000000E+00 -0.45593999997E+02  0.45594000000E+02  0.51100000000E-03 0.  1.
    9900012    2    1    2    0    0 -0.18606206668E+02 -0.39292957625E+02 -0.11789235536E+02  0.46142317410E+02  0.99999968000E+01 0.  0.
         12    1    1    2    0    0  0.18606206668E+02  0.39292957625E+02  0.11789235536E+02  0.45045682590E+02  0.00000000000E+00 0. -1.
         11    1    3    3    0    0 -0.76641516880E+01 -0.15813971472E+02 -0.73006769848E+01  0.19029471866E+02  0.51100000000E-03 0. -1.
        -11    1    3    3    0    0 -0.47166278569E+01 -0.69831368194E+01 -0.43444680924E+01  0.94807795800E+01  0.51100000000E-03 0.  1.
         12    1    3    3    0    0 -0.62254271234E+01 -0.16495849333E+02 -0.14409045838E+00  0.17632065964E+02  0.00000000000E+00 0. -1.
</event>
<event>
 7    1  0.3086024E-009  0.4614232E+02  0.7816164E-02  0.1320468E+00
        -11   -1    0    0    0    0  0.00000000000E+00  0.00000000000E+00  0.45593999997E+02  0.45594000000E+02  0.51100000000E-03 0.  1.
         11   -1    0    0    0    0 -0.00000000000E+00 -0.00000000000E+00 -0.45593999997E+02  0.45594000000E+02  0.51100000000E-03 0. -1.
    9900012    2    1    2    0    0  0.11895062077E+02  0.22446107088E+02  0.37199369779E+02  0.46142319440E+02  0.10000015307E+02 0.  0.
         12    1    1    2    0    0 -0.11895062077E+02 -0.22446107088E+02 -0.37199369779E+02  0.45045680560E+02  0.00000000000E+00 0. -1.
         11    1    3    3    0    0  0.30004203760E+00  0.62902903725E+01  0.82846286409E+01  0.10406385068E+02  0.51100000000E-03 0. -1.
        -11    1    3    3    0    0  0.10526638885E+01  0.65980655050E+01  0.10810819762E+02  0.12708910019E+02  0.51100000000E-03 0.  1.
         12    1    3    3    0    0  0.10542356151E+02  0.95577512104E+01  0.18103921376E+02  0.23027024354E+02  0.00000000000E+00 0. -1.
</event>
<event>
 7    1  0.3086024E-009  0.4614232E+02  0.7816164E-02  0.1320468E+00
        -11   -1    0    0    0    0  0.00000000000E+00  0.00000000000E+00  0.45593999997E+02  0.45594000000E+02  0.51100000000E-03 0.  1.
         11   -1    0    0    0    0 -0.00000000000E+00 -0.00000000000E+00 -0.45593999997E+02  0.45594000000E+02  0.51100000000E-03 0. -1.
    9900012    2    1    2    0    0  0.17541224168E+01 -0.37543881194E+02  0.24829287092E+02  0.46142318098E+02  0.10000003073E+02 0.  0.
         12    1    1    2    0    0 -0.17541224168E+01  0.37543881194E+02 -0.24829287092E+02  0.45045681902E+02  0.00000000000E+00 0. -1.
         11    1    3    3    0    0  0.49077282872E+01 -0.14002060440E+02  0.98679643871E+01  0.17819096916E+02  0.51100000000E-03 0. -1.
        -11    1    3    3    0    0  0.15174601797E+00 -0.92959214012E+01  0.72536814120E+01  0.11792076825E+02  0.51100000000E-03 0.  1.
         12    1    3    3    0    0 -0.33053518883E+01 -0.14245899352E+02  0.77076412925E+01  0.16531144357E+02  0.00000000000E+00 0. -1.
</event>
<event>
 7    1  0.3086024E-009  0.4614232E+02  0.7816164E-02  0.1320468E+00
        -11   -1    0    0    0    0  0.00000000000E+00  0.00000000000E+00  0.45593999997E+02  0.45594000000E+02  0.51100000000E-03 0.  1.
         11   -1    0    0    0    0 -0.00000000000E+00 -0.00000000000E+00 -0.45593999997E+02  0.45594000000E+02  0.51100000000E-03 0. -1.
    9900012    2    1    2    0    0  0.31740745391E+01 -0.26503645950E+02  0.36284912341E+02  0.46142324720E+02  0.10000063454E+02 0.  0.
         12    1    1    2    0    0 -0.31740745391E+01  0.26503645950E+02 -0.36284912341E+02  0.45045675280E+02  0.00000000000E+00 0. -1.
         11    1    3    3    0    0  0.22286491517E+01 -0.14413831476E+02  0.24962823026E+02  0.28911380952E+02  0.51100000000E-03 0. -1.
        -11    1    3    3    0    0 -0.12212047162E+01 -0.92865167056E+01  0.73322524629E+01  0.11895068723E+02  0.51100000000E-03 0.  1.
         12    1    3    3    0    0  0.21666301037E+01 -0.28032977683E+01  0.39898368528E+01  0.53358750450E+01  0.00000000000E+00 0. -1.
</event>
<event>
 7    1  0.3086024E-009  0.4614231E+02  0.7816164E-02  0.1320468E+00
        -11   -1    0    0    0    0  0.00000000000E+00  0.00000000000E+00  0.45593999997E+02  0.45594000000E+02  0.51100000000E-03 0.  1.
         11   -1    0    0    0    0 -0.00000000000E+00 -0.00000000000E+00 -0.45593999997E+02  0.45594000000E+02  0.51100000000E-03 0. -1.
    9900012    2    1    2    0    0 -0.36462146383E+02 -0.26235269169E+02 -0.33669399594E+01  0.46142314836E+02  0.99999733259E+01 0.  0.
         12    1    1    2    0    0  0.36462146383E+02  0.26235269169E+02  0.33669399594E+01  0.45045685164E+02  0.00000000000E+00 0. -1.
         11    1    3    3    0    0 -0.16883463794E+02 -0.12326207660E+02  0.29934045898E+01  0.21117462354E+02  0.51100000000E-03 0. -1.
        -11    1    3    3    0    0 -0.12186707499E+01 -0.17506905429E+01 -0.10267154518E+01  0.23673235211E+01  0.51100000000E-03 0.  1.
         12    1    3    3    0    0 -0.18360011839E+02 -0.12158370966E+02 -0.53336290974E+01  0.22657528961E+02  0.00000000000E+00 0. -1.
</event>
<event>
 7    1  0.3086024E-009  0.4614232E+02  0.7816164E-02  0.1320468E+00
        -11   -1    0    0    0    0  0.00000000000E+00  0.00000000000E+00  0.45593999997E+02  0.45594000000E+02  0.51100000000E-03 0.  1.
         11   -1    0    0    0    0 -0.00000000000E+00 -0.00000000000E+00 -0.45593999997E+02  0.45594000000E+02  0.51100000000E-03 0. -1.
    9900012    2    1    2    0    0  0.26074130337E+02 -0.12423090169E+02  0.34567614837E+02  0.46142318324E+02  0.10000005131E+02 0.  0.
         12    1    1    2    0    0 -0.26074130337E+02  0.12423090169E+02 -0.34567614837E+02  0.45045681676E+02  0.00000000000E+00 0. -1.
         11    1    3    3    0    0  0.11575438413E+02 -0.97928279813E+01  0.13997734755E+02  0.20635572027E+02  0.51100000000E-03 0. -1.
        -11    1    3    3    0    0  0.46117457902E+01 -0.95814017144E+00  0.92787871975E+01  0.10405869687E+02  0.51100000000E-03 0.  1.
         12    1    3    3    0    0  0.98869461335E+01 -0.16721220165E+01  0.11291092884E+02  0.15100876610E+02  0.00000000000E+00 0. -1.
</event>
<event>
 7    1  0.3086024E-009  0.4614233E+02  0.7816164E-02  0.1320468E+00
        -11   -1    0    0    0    0  0.00000000000E+00  0.00000000000E+00  0.45593999997E+02  0.45594000000E+02  0.51100000000E-03 0.  1.
         11   -1    0    0    0    0 -0.00000000000E+00 -0.00000000000E+00 -0.45593999997E+02  0.45594000000E+02  0.51100000000E-03 0. -1.
    9900012    2    1    2    0    0  0.15539678073E+02 -0.36564224838E+02  0.21229429765E+02  0.46142325171E+02  0.10000067572E+02 0.  0.
         12    1    1    2    0    0 -0.15539678073E+02  0.36564224838E+02 -0.21229429765E+02  0.45045674829E+02  0.00000000000E+00 0. -1.
         11    1    3    3    0    0  0.32872836122E+01 -0.17711044719E+01  0.32009965546E+01  0.49182744740E+01  0.51100000000E-03 0. -1.
        -11    1    3    3    0    0  0.36129236617E+01 -0.14830193278E+02  0.85611508430E+01  0.17500890094E+02  0.51100000000E-03 0.  1.
        -12    1    3    3    0    0  0.86394707993E+01 -0.19962927088E+02  0.94672823673E+01  0.23723160604E+02  0.00000000000E+00 0.  1.
</event>
<event>
 7    1  0.3086024E-009  0.4614232E+02  0.7816164E-02  0.1320468E+00
        -11   -1    0    0    0    0  0.00000000000E+00  0.00000000000E+00  0.45593999997E+02  0.45594000000E+02  0.51100000000E-03 0.  1.
         11   -1    0    0    0    0 -0.00000000000E+00 -0.00000000000E+00 -0.45593999997E+02  0.45594000000E+02  0.51100000000E-03 0. -1.
    9900012    2    1    2    0    0  0.37381046437E+01  0.12290079301E+01  0.44873484530E+02  0.46142317625E+02  0.99999987553E+01 0.  0.
         12    1    1    2    0    0 -0.37381046437E+01 -0.12290079301E+01 -0.44873484530E+02  0.45045682375E+02  0.00000000000E+00 0. -1.
         11    1    3    3    0    0  0.36656009200E+01 -0.31618316379E+01  0.13169680451E+02  0.14031190002E+02  0.51100000000E-03 0. -1.
        -11    1    3    3    0    0  0.76972450616E+00  0.20906587315E+00  0.71094728227E+01  0.71540749530E+01  0.51100000000E-03 0.  1.
         12    1    3    3    0    0 -0.69722078246E+00  0.41817736949E+01  0.24594331256E+02  0.24957052670E+02  0.00000000000E+00 0. -1.
</event>
<event>
 7    1  0.3086024E-009  0.4614231E+02  0.7816164E-02  0.1320468E+00
        -11   -1    0    0    0    0  0.00000000000E+00  0.00000000000E+00  0.45593999997E+02  0.45594000000E+02  0.51100000000E-03 0.  1.
         11   -1    0    0    0    0 -0.00000000000E+00 -0.00000000000E+00 -0.45593999997E+02  0.45594000000E+02  0.51100000000E-03 0. -1.
    9900012    2    1    2    0    0 -0.32741658864E+02 -0.23306047186E+02  0.20345167771E+02  0.46142313056E+02  0.99999570953E+01 0.  0.
         12    1    1    2    0    0  0.32741658864E+02  0.23306047186E+02 -0.20345167771E+02  0.45045686944E+02  0.00000000000E+00 0. -1.
         11    1    3    3    0    0 -0.10873192063E+01 -0.22915655798E+01  0.19283430023E+01  0.31862270570E+01  0.51100000000E-03 0. -1.
        -11    1    3    3    0    0 -0.20250144195E+02 -0.94371770389E+01  0.12879290628E+02  0.25787686552E+02  0.51100000000E-03 0.  1.
        -12    1    3    3    0    0 -0.11404195463E+02 -0.11577304567E+02  0.55375341408E+01  0.17168399447E+02  0.00000000000E+00 0.  1.
</event>
<event>
 7    1  0.3086024E-009  0.4614232E+02  0.7816164E-02  0.1320468E+00
        -11   -1    0    0    0    0  0.00000000000E+00  0.00000000000E+00  0.45593999997E+02  0.45594000000E+02  0.51100000000E-03 0.  1.
         11   -1    0    0    0    0 -0.00000000000E+00 -0.00000000000E+00 -0.45593999997E+02  0.45594000000E+02  0.51100000000E-03 0. -1.
    9900012    2    1    2    0    0 -0.13605090701E+02 -0.34648386747E+02  0.25367387654E+02  0.46142317038E+02  0.99999934027E+01 0.  0.
         12    1    1    2    0    0  0.13605090701E+02  0.34648386747E+02 -0.25367387654E+02  0.45045682962E+02  0.00000000000E+00 0. -1.
         11    1    3    3    0    0 -0.40549046843E+01 -0.22967636731E+02  0.14232715423E+02  0.27322605615E+02  0.51100000000E-03 0. -1.
        -11    1    3    3    0    0 -0.60930095031E+01 -0.73489888824E+01  0.60758015528E+01  0.11315819333E+02  0.51100000000E-03 0.  1.
         12    1    3    3    0    0 -0.34571765136E+01 -0.43317611339E+01  0.50588706778E+01  0.75038920903E+01  0.00000000000E+00 0. -1.
</event>
<event>
 7    1  0.3086024E-009  0.4614232E+02  0.7816164E-02  0.1320468E+00
        -11   -1    0    0    0    0  0.00000000000E+00  0.00000000000E+00  0.45593999997E+02  0.45594000000E+02  0.51100000000E-03 0. -1.
         11   -1    0    0    0    0 -0.00000000000E+00 -0.00000000000E+00 -0.45593999997E+02  0.45594000000E+02  0.51100000000E-03 0.  1.
    9900012    2    1    2    0    0 -0.29321810536E+02 -0.28513503282E+02 -0.18876575867E+02  0.46142316977E+02  0.99999928505E+01 0.  0.
         12    1    1    2    0    0  0.29321810536E+02  0.28513503282E+02  0.18876575867E+02  0.45045683023E+02  0.00000000000E+00 0. -1.
         11    1    3    3    0    0  0.50355146997E-01 -0.62038815453E-01 -0.10262346501E+00  0.13006264699E+00  0.51100000000E-03 0. -1.
        -11    1    3    3    0    0 -0.34942768954E+01  0.43970341270E-01 -0.19737227579E+01  0.40134132853E+01  0.51100000000E-03 0.  1.
        -12    1    3    3    0    0 -0.25877888788E+02 -0.28495434808E+02 -0.16800229644E+02  0.41998841045E+02  0.00000000000E+00 0.  1.
</event>
<event>
 7    1  0.3086024E-009  0.4614232E+02  0.7816164E-02  0.1320468E+00
        -11   -1    0    0    0    0  0.00000000000E+00  0.00000000000E+00  0.45593999997E+02  0.45594000000E+02  0.51100000000E-03 0.  1.
         11   -1    0    0    0    0 -0.00000000000E+00 -0.00000000000E+00 -0.45593999997E+02  0.45594000000E+02  0.51100000000E-03 0. -1.
    9900012    2    1    2    0    0  0.16302685177E+02  0.10554891220E+02  0.40643945038E+02  0.46142317178E+02  0.99999946798E+01 0.  0.
         12    1    1    2    0    0 -0.16302685177E+02 -0.10554891220E+02 -0.40643945038E+02  0.45045682822E+02  0.00000000000E+00 0. -1.
         11    1    3    3    0    0  0.14082414996E+02  0.67672319635E+01  0.34909423033E+02  0.38246276385E+02  0.51100000000E-03 0. -1.
        -11    1    3    3    0    0  0.20893912748E+01  0.13862799733E+01  0.45953527046E+01  0.52349398091E+01  0.51100000000E-03 0.  1.
         12    1    3    3    0    0  0.13087890644E+00  0.24013792829E+01  0.11391693006E+01  0.26611009834E+01  0.00000000000E+00 0. -1.
</event>
<event>
 7    1  0.3086024E-009  0.4614232E+02  0.7816164E-02  0.1320468E+00
        -11   -1    0    0    0    0  0.00000000000E+00  0.00000000000E+00  0.45593999997E+02  0.45594000000E+02  0.51100000000E-03 0. -1.
         11   -1    0    0    0    0 -0.00000000000E+00 -0.00000000000E+00 -0.45593999997E+02  0.45594000000E+02  0.51100000000E-03 0.  1.
    9900012    2    1    2    0    0  0.34552365049E+00  0.41152496745E+01 -0.44855978788E+02  0.46142317637E+02  0.99999988706E+01 0.  0.
         12    1    1    2    0    0 -0.34552365049E+00 -0.41152496745E+01  0.44855978788E+02  0.45045682363E+02  0.00000000000E+00 0. -1.
         11    1    3    3    0    0  0.95191536167E+00  0.13251621144E+01 -0.24554774093E+01  0.29481463759E+01  0.51100000000E-03 0. -1.
        -11    1    3    3    0    0 -0.31400015630E+01 -0.12604674892E+01 -0.20626091985E+02  0.20901771670E+02  0.51100000000E-03 0.  1.
        -12    1    3    3    0    0  0.25336098518E+01  0.40505550494E+01 -0.21774409394E+02  0.22292399592E+02  0.00000000000E+00 0.  1.
</event>
<event>
 7    1  0.3086024E-009  0.4614232E+02  0.7816164E-02  0.1320468E+00
        -11   -1    0    0    0    0  0.00000000000E+00  0.00000000000E+00  0.45593999997E+02  0.45594000000E+02  0.51100000000E-03 0.  1.
         11   -1    0    0    0    0 -0.00000000000E+00 -0.00000000000E+00 -0.45593999997E+02  0.45594000000E+02  0.51100000000E-03 0. -1.
    9900012    2    1    2    0    0  0.26084933938E+02 -0.11452351083E+02  0.34893170225E+02  0.46142318162E+02  0.10000003656E+02 0.  0.
         12    1    1    2    0    0 -0.26084933938E+02  0.11452351083E+02 -0.34893170225E+02  0.45045681838E+02  0.00000000000E+00 0. -1.
         11    1    3    3    0    0  0.11631472313E+02 -0.48153853069E+01  0.20598695602E+02  0.24140947467E+02  0.51100000000E-03 0.  1.
        -11    1    3    3    0    0  0.85344861225E+01 -0.16864573878E+01  0.54576668211E+01  0.10269747771E+02  0.51100000000E-03 0. -1.
        -12    1    3    3    0    0  0.59189755025E+01 -0.49505083883E+01  0.88368078020E+01  0.11731622924E+02  0.00000000000E+00 0.  1.
</event>
<event>
 7    1  0.3086024E-009  0.4614232E+02  0.7816164E-02  0.1320468E+00
        -11   -1    0    0    0    0  0.00000000000E+00  0.00000000000E+00  0.45593999997E+02  0.45594000000E+02  0.51100000000E-03 0.  1.
         11   -1    0    0    0    0 -0.00000000000E+00 -0.00000000000E+00 -0.45593999997E+02  0.45594000000E+02  0.51100000000E-03 0. -1.
    9900012    2    1    2    0    0  0.37881445513E+02  0.24361928847E+02  0.77841157525E+00  0.46142318565E+02  0.10000007334E+02 0.  0.
         12    1    1    2    0    0 -0.37881445513E+02 -0.24361928847E+02 -0.77841157525E+00  0.45045681435E+02  0.00000000000E+00 0. -1.
         11    1    3    3    0    0  0.51128203639E+01  0.16527972148E+01  0.17860772440E+01  0.56623972741E+01  0.51100000000E-03 0. -1.
        -11    1    3    3    0    0  0.22182308734E+02  0.19015052024E+02 -0.15147054098E+01  0.29256133664E+02  0.51100000000E-03 0.  1.
        -12    1    3    3    0    0  0.10586316415E+02  0.36940796085E+01  0.50703974109E+00  0.11223787627E+02  0.00000000000E+00 0.  1.
</event>
<event>
 7    1  0.3086024E-009  0.4614232E+02  0.7816164E-02  0.1320468E+00
        -11   -1    0    0    0    0  0.00000000000E+00  0.00000000000E+00  0.45593999997E+02  0.45594000000E+02  0.51100000000E-03 0.  1.
         11   -1    0    0    0    0 -0.00000000000E+00 -0.00000000000E+00 -0.45593999997E+02  0.45594000000E+02  0.51100000000E-03 0. -1.
    9900012    2    1    2    0    0 -0.12699099157E+02  0.23805700021E+02  0.36071248615E+02  0.46142318192E+02  0.10000003929E+02 0.  0.
         12    1    1    2    0    0  0.12699099157E+02 -0.23805700021E+02 -0.36071248615E+02  0.45045681808E+02  0.00000000000E+00 0. -1.
         11    1    3    3    0    0 -0.27543548000E+01  0.23393315566E+01  0.28284554925E+01  0.45890198551E+01  0.51100000000E-03 0. -1.
        -11    1    3    3    0    0 -0.21848048997E+01  0.11195004916E+02  0.20382804449E+02  0.23357230679E+02  0.51100000000E-03 0.  1.
        -12    1    3    3    0    0 -0.77599394576E+01  0.10271363549E+02  0.12859988673E+02  0.18196067658E+02  0.00000000000E+00 0.  1.
</event>
<event>
 7    1  0.3086024E-009  0.4614232E+02  0.7816164E-02  0.1320468E+00
        -11   -1    0    0    0    0  0.00000000000E+00  0.00000000000E+00  0.45593999997E+02  0.45594000000E+02  0.51100000000E-03 0.  1.
         11   -1    0    0    0    0 -0.00000000000E+00 -0.00000000000E+00 -0.45593999997E+02  0.45594000000E+02  0.51100000000E-03 0. -1.
    9900012    2    1    2    0    0  0.31727504034E+02  0.29170945982E+02  0.13097134879E+02  0.46142317146E+02  0.99999943937E+01 0.  0.
         12    1    1    2    0    0 -0.31727504034E+02 -0.29170945982E+02 -0.13097134879E+02  0.45045682854E+02  0.00000000000E+00 0. -1.
         11    1    3    3    0    0  0.75084173159E+01  0.12680117762E+02  0.51523100333E+01  0.15611150374E+02  0.51100000000E-03 0. -1.
        -11    1    3    3    0    0  0.49760953318E+01  0.27717574513E+01  0.34456823104E+00  0.57063904219E+01  0.51100000000E-03 0.  1.
         12    1    3    3    0    0  0.19242991387E+02  0.13719070768E+02  0.76002566142E+01  0.24824776351E+02  0.00000000000E+00 0. -1.
</event>
<event>
 7    1  0.3086024E-009  0.4614232E+02  0.7816164E-02  0.1320468E+00
        -11   -1    0    0    0    0  0.00000000000E+00  0.00000000000E+00  0.45593999997E+02  0.45594000000E+02  0.51100000000E-03 0.  1.
         11   -1    0    0    0    0 -0.00000000000E+00 -0.00000000000E+00 -0.45593999997E+02  0.45594000000E+02  0.51100000000E-03 0. -1.
    9900012    2    1    2    0    0  0.68080841393E+01 -0.10141702263E+02  0.43357921125E+02  0.46142318090E+02  0.10000003000E+02 0.  0.
         12    1    1    2    0    0 -0.68080841393E+01  0.10141702263E+02 -0.43357921125E+02  0.45045681910E+02  0.00000000000E+00 0. -1.
         11    1    3    3    0    0 -0.89918700089E+00 -0.29077749928E+00  0.36598675303E+01  0.37799099748E+01  0.51100000000E-03 0. -1.
        -11    1    3    3    0    0  0.59373747864E+01 -0.10611449985E+02  0.28285087210E+02  0.30788008199E+02  0.51100000000E-03 0.  1.
         12    1    3    3    0    0  0.17698963538E+01  0.76052522142E+00  0.11412966385E+02  0.11574399916E+02  0.00000000000E+00 0. -1.
</event>
<event>
 7    1  0.3086024E-009  0.4614232E+02  0.7816164E-02  0.1320468E+00
        -11   -1    0    0    0    0  0.00000000000E+00  0.00000000000E+00  0.45593999997E+02  0.45594000000E+02  0.51100000000E-03 0.  1.
         11   -1    0    0    0    0 -0.00000000000E+00 -0.00000000000E+00 -0.45593999997E+02  0.45594000000E+02  0.51100000000E-03 0. -1.
    9900012    2    1    2    0    0 -0.21379429019E+02 -0.17629852494E+02  0.35513683949E+02  0.46142318389E+02  0.10000005727E+02 0.  0.
         12    1    1    2    0    0  0.21379429019E+02  0.17629852494E+02 -0.35513683949E+02  0.45045681611E+02  0.00000000000E+00 0. -1.
         11    1    3    3    0    0 -0.87761397261E+01 -0.61704085238E+01  0.10358421988E+02  0.14912795720E+02  0.51100000000E-03 0. -1.
        -11    1    3    3    0    0 -0.11507596850E+02 -0.11891159076E+02  0.25082979633E+02  0.30049630895E+02  0.51100000000E-03 0.  1.
         12    1    3    3    0    0 -0.10956924432E+01  0.43171510596E+00  0.72282328492E-01  0.11798917738E+01  0.00000000000E+00 0. -1.
</event>
<event>
 7    1  0.3086024E-009  0.4614232E+02  0.7816164E-02  0.1320468E+00
        -11   -1    0    0    0    0  0.00000000000E+00  0.00000000000E+00  0.45593999997E+02  0.45594000000E+02  0.51100000000E-03 0.  1.
         11   -1    0    0    0    0 -0.00000000000E+00 -0.00000000000E+00 -0.45593999997E+02  0.45594000000E+02  0.51100000000E-03 0. -1.
    9900012    2    1    2    0    0 -0.42392748465E+01  0.52536318782E+00  0.44842680451E+02  0.46142318212E+02  0.10000004116E+02 0.  0.
         12    1    1    2    0    0  0.42392748465E+01 -0.52536318782E+00 -0.44842680451E+02  0.45045681788E+02  0.00000000000E+00 0. -1.
         11    1    3    3    0    0 -0.22250315270E+01  0.33121045765E+00  0.43398521069E+01  0.48882289466E+01  0.51100000000E-03 0. -1.
        -11    1    3    3    0    0  0.25389693079E+01 -0.10688890560E+01  0.94334153784E+01  0.98274215806E+01  0.51100000000E-03 0.  1.
        -12    1    3    3    0    0 -0.45532126273E+01  0.12630417862E+01  0.31069412965E+02  0.31426667685E+02  0.00000000000E+00 0.  1.
</event>
<event>
 7    1  0.3086024E-009  0.4614232E+02  0.7816164E-02  0.1320468E+00
        -11   -1    0    0    0    0  0.00000000000E+00  0.00000000000E+00  0.45593999997E+02  0.45594000000E+02  0.51100000000E-03 0.  1.
         11   -1    0    0    0    0 -0.00000000000E+00 -0.00000000000E+00 -0.45593999997E+02  0.45594000000E+02  0.51100000000E-03 0. -1.
    9900012    2    1    2    0    0 -0.33590840133E+02 -0.18481656002E+02  0.23647353395E+02  0.46142317943E+02  0.10000001655E+02 0.  0.
         12    1    1    2    0    0  0.33590840133E+02  0.18481656002E+02 -0.23647353395E+02  0.45045682057E+02  0.00000000000E+00 0. -1.
         11    1    3    3    0    0 -0.47459448573E+01 -0.32897014517E+01  0.64341474462E+01  0.86454833208E+01  0.51100000000E-03 0. -1.
        -11    1    3    3    0    0 -0.39625292941E+00 -0.15392878630E+01  0.82390716337E-01  0.15916067355E+01  0.51100000000E-03 0.  1.
        -12    1    3    3    0    0 -0.28448642347E+02 -0.13652666687E+02  0.17130815232E+02  0.35905227886E+02  0.00000000000E+00 0.  1.
</event>
<event>
 7    1  0.3086024E-009  0.4614232E+02  0.7816164E-02  0.1320468E+00
        -11   -1    0    0    0    0  0.00000000000E+00  0.00000000000E+00  0.45593999997E+02  0.45594000000E+02  0.51100000000E-03 0.  1.
         11   -1    0    0    0    0 -0.00000000000E+00 -0.00000000000E+00 -0.45593999997E+02  0.45594000000E+02  0.51100000000E-03 0. -1.
    9900012    2    1    2    0    0 -0.12581779595E+02 -0.16243128252E+01  0.43222377592E+02  0.46142317692E+02  0.99999993703E+01 0.  0.
         12    1    1    2    0    0  0.12581779595E+02  0.16243128252E+01 -0.43222377592E+02  0.45045682308E+02  0.00000000000E+00 0. -1.
         11    1    3    3    0    0 -0.28694721349E+01  0.16750732445E+01  0.57388851047E+01  0.66313304256E+01  0.51100000000E-03 0. -1.
        -11    1    3    3    0    0 -0.78427843087E+01 -0.54497919711E+01  0.30763372474E+02  0.32211715019E+02  0.51100000000E-03 0.  1.
         12    1    3    3    0    0 -0.18695231510E+01  0.21504059014E+01  0.67201200125E+01  0.72992722470E+01  0.00000000000E+00 0. -1.
</event>
<event>
 7    1  0.3086024E-009  0.4614232E+02  0.7816164E-02  0.1320468E+00
        -11   -1    0    0    0    0  0.00000000000E+00  0.00000000000E+00  0.45593999997E+02  0.45594000000E+02  0.51100000000E-03 0. -1.
         11   -1    0    0    0    0 -0.00000000000E+00 -0.00000000000E+00 -0.45593999997E+02  0.45594000000E+02  0.51100000000E-03 0.  1.
    9900012    2    1    2    0    0 -0.36312388037E+02  0.24279224489E+02  0.11001963596E+02  0.46142317968E+02  0.10000001890E+02 0.  0.
         12    1    1    2    0    0  0.36312388037E+02 -0.24279224489E+02 -0.11001963596E+02  0.45045682032E+02  0.00000000000E+00 0. -1.
         11    1    3    3    0    0 -0.42216641761E+01  0.50769721488E+01  0.39135321274E+01  0.76755344171E+01  0.51100000000E-03 0. -1.
        -11    1    3    3    0    0 -0.14499358289E+02  0.72670624318E+01  0.55754472224E+00  0.16228137402E+02  0.51100000000E-03 0.  1.
         12    1    3    3    0    0 -0.17591365572E+02  0.11935189908E+02  0.65308867462E+01  0.22238646149E+02  0.00000000000E+00 0. -1.
</event>
<event>
 7    1  0.3086024E-009  0.4614232E+02  0.7816164E-02  0.1320468E+00
        -11   -1    0    0    0    0  0.00000000000E+00  0.00000000000E+00  0.45593999997E+02  0.45594000000E+02  0.51100000000E-03 0.  1.
         11   -1    0    0    0    0 -0.00000000000E+00 -0.00000000000E+00 -0.45593999997E+02  0.45594000000E+02  0.51100000000E-03 0. -1.
    9900012    2    1    2    0    0 -0.10030816788E+02 -0.17951222915E+02  0.40078046414E+02  0.46142317699E+02  0.99999994344E+01 0.  0.
         12    1    1    2    0    0  0.10030816788E+02  0.17951222915E+02 -0.40078046414E+02  0.45045682301E+02  0.00000000000E+00 0. -1.
         11    1    3    3    0    0 -0.10498939852E+01 -0.97123613870E+00  0.30906076757E+00  0.14632483851E+01  0.51100000000E-03 0. -1.
        -11    1    3    3    0    0 -0.95183239005E+00 -0.38997524122E+00  0.22802976231E+00  0.10535954732E+01  0.51100000000E-03 0.  1.
        -12    1    3    3    0    0 -0.80290904129E+01 -0.16590011535E+02  0.39540955884E+02  0.43625473841E+02  0.00000000000E+00 0.  1.
</event>
<event>
 7    1  0.3086024E-009  0.4614232E+02  0.7816164E-02  0.1320468E+00
        -11   -1    0    0    0    0  0.00000000000E+00  0.00000000000E+00  0.45593999997E+02  0.45594000000E+02  0.51100000000E-03 0.  1.
         11   -1    0    0    0    0 -0.00000000000E+00 -0.00000000000E+00 -0.45593999997E+02  0.45594000000E+02  0.51100000000E-03 0. -1.
    9900012    2    1    2    0    0  0.21969481230E+02  0.27673043314E+02  0.27940262390E+02  0.46142315476E+02  0.99999791640E+01 0.  0.
         12    1    1    2    0    0 -0.21969481230E+02 -0.27673043314E+02 -0.27940262390E+02  0.45045684524E+02  0.00000000000E+00 0. -1.
         11    1    3    3    0    0  0.75905608561E+00  0.44162561481E+01  0.31069418792E+01  0.54527582569E+01  0.51100000000E-03 0. -1.
        -11    1    3    3    0    0  0.16477824533E+02  0.13208911914E+02  0.16689279688E+02  0.26917022719E+02  0.51100000000E-03 0.  1.
        -12    1    3    3    0    0  0.47326006116E+01  0.10047875253E+02  0.81440408232E+01  0.13772534501E+02  0.00000000000E+00 0.  1.
</event>
<event>
 7    1  0.3086024E-009  0.4614232E+02  0.7816164E-02  0.1320468E+00
        -11   -1    0    0    0    0  0.00000000000E+00  0.00000000000E+00  0.45593999997E+02  0.45594000000E+02  0.51100000000E-03 0.  1.
         11   -1    0    0    0    0 -0.00000000000E+00 -0.00000000000E+00 -0.45593999997E+02  0.45594000000E+02  0.51100000000E-03 0. -1.
    9900012    2    1    2    0    0 -0.12444121856E+02  0.21506898379E+02  0.37572738588E+02  0.46142317281E+02  0.99999956233E+01 0.  0.
         12    1    1    2    0    0  0.12444121856E+02 -0.21506898379E+02 -0.37572738588E+02  0.45045682719E+02  0.00000000000E+00 0. -1.
         11    1    3    3    0    0 -0.11319149493E+02  0.19719695153E+02  0.30692827449E+02  0.38197371366E+02  0.51100000000E-03 0.  1.
        -11    1    3    3    0    0 -0.21444122918E+00  0.22291462833E+01  0.21377291609E+01  0.30959593698E+01  0.51100000000E-03 0. -1.
         12    1    3    3    0    0 -0.91053113330E+00 -0.44194305737E+00  0.47421819774E+01  0.48489865454E+01  0.00000000000E+00 0. -1.
</event>
<event>
 7    1  0.3086024E-009  0.4614232E+02  0.7816164E-02  0.1320468E+00
        -11   -1    0    0    0    0  0.00000000000E+00  0.00000000000E+00  0.45593999997E+02  0.45594000000E+02  0.51100000000E-03 0.  1.
         11   -1    0    0    0    0 -0.00000000000E+00 -0.00000000000E+00 -0.45593999997E+02  0.45594000000E+02  0.51100000000E-03 0. -1.
    9900012    2    1    2    0    0 -0.10106995713E+02 -0.43673618188E+02  0.44246087827E+01  0.46142318178E+02  0.10000003799E+02 0.  0.
         12    1    1    2    0    0  0.10106995713E+02  0.43673618188E+02 -0.44246087827E+01  0.45045681822E+02  0.00000000000E+00 0. -1.
         11    1    3    3    0    0 -0.58612951886E+01 -0.10565094694E+02  0.25144813173E+01  0.12340932855E+02  0.51100000000E-03 0. -1.
        -11    1    3    3    0    0  0.27280081527E+00 -0.13591280948E+02  0.21706511022E+01  0.13766229133E+02  0.51100000000E-03 0.  1.
        -12    1    3    3    0    0 -0.45185013401E+01 -0.19517242546E+02 -0.26052363672E+00  0.20035156189E+02  0.00000000000E+00 0.  1.
</event>
<event>
 7    1  0.3086024E-009  0.4614232E+02  0.7816164E-02  0.1320468E+00
        -11   -1    0    0    0    0  0.00000000000E+00  0.00000000000E+00  0.45593999997E+02  0.45594000000E+02  0.51100000000E-03 0.  1.
         11   -1    0    0    0    0 -0.00000000000E+00 -0.00000000000E+00 -0.45593999997E+02  0.45594000000E+02  0.51100000000E-03 0. -1.
    9900012    2    1    2    0    0  0.26075809980E+02 -0.27737221563E+02  0.24079287768E+02  0.46142318458E+02  0.10000006356E+02 0.  0.
         12    1    1    2    0    0 -0.26075809980E+02  0.27737221563E+02 -0.24079287768E+02  0.45045681542E+02  0.00000000000E+00 0. -1.
         11    1    3    3    0    0  0.12829709977E+01 -0.21498263816E+01  0.53544960425E+00  0.25601708130E+01  0.51100000000E-03 0. -1.
        -11    1    3    3    0    0  0.16084712337E+02 -0.18642333476E+02  0.20489789260E+02  0.32032577676E+02  0.51100000000E-03 0.  1.
        -12    1    3    3    0    0  0.87081266455E+01 -0.69450617054E+01  0.30540489043E+01  0.11549569969E+02  0.00000000000E+00 0.  1.
</event>
<event>
 7    1  0.3086024E-009  0.4614231E+02  0.7816164E-02  0.1320468E+00
        -11   -1    0    0    0    0  0.00000000000E+00  0.00000000000E+00  0.45593999997E+02  0.45594000000E+02  0.51100000000E-03 0.  1.
         11   -1    0    0    0    0 -0.00000000000E+00 -0.00000000000E+00 -0.45593999997E+02  0.45594000000E+02  0.51100000000E-03 0. -1.
    9900012    2    1    2    0    0 -0.10982419802E+02 -0.13746082325E+02  0.41467402240E+02  0.46142314607E+02  0.99999712380E+01 0.  0.
         12    1    1    2    0    0  0.10982419802E+02  0.13746082325E+02 -0.41467402240E+02  0.45045685393E+02  0.00000000000E+00 0. -1.
         11    1    3    3    0    0  0.11201288803E+01 -0.47921752858E+01  0.13646519304E+02  0.14506795720E+02  0.51100000000E-03 0. -1.
        -11    1    3    3    0    0 -0.74008416824E+00 -0.54770569621E+00  0.19119151711E+01  0.21220570181E+01  0.51100000000E-03 0.  1.
         12    1    3    3    0    0 -0.11362464514E+02 -0.84062013433E+01  0.25908967765E+02  0.29513461869E+02  0.00000000000E+00 0. -1.
</event>
<event>
 7    1  0.3086024E-009  0.4614232E+02  0.7816164E-02  0.1320468E+00
        -11   -1    0    0    0    0  0.00000000000E+00  0.00000000000E+00  0.45593999997E+02  0.45594000000E+02  0.51100000000E-03 0. -1.
         11   -1    0    0    0    0 -0.00000000000E+00 -0.00000000000E+00 -0.45593999997E+02  0.45594000000E+02  0.51100000000E-03 0.  1.
    9900012    2    1    2    0    0  0.29774390921E+02 -0.27222157543E+02  0.20038795203E+02  0.46142317308E+02  0.99999958693E+01 0.  0.
         12    1    1    2    0    0 -0.29774390921E+02  0.27222157543E+02 -0.20038795203E+02  0.45045682692E+02  0.00000000000E+00 0. -1.
         11    1    3    3    0    0  0.56634100759E+00 -0.21132098485E+01  0.78130257504E+00  0.23231082574E+01  0.51100000000E-03 0. -1.
        -11    1    3    3    0    0  0.17192528755E+02 -0.17920231950E+02  0.15672625360E+02  0.29365778452E+02  0.51100000000E-03 0.  1.
        -12    1    3    3    0    0  0.12015521158E+02 -0.71887157437E+01  0.35848672685E+01  0.14453430599E+02  0.00000000000E+00 0.  1.
</event>
<event>
 7    1  0.3086024E-009  0.4614232E+02  0.7816164E-02  0.1320468E+00
        -11   -1    0    0    0    0  0.00000000000E+00  0.00000000000E+00  0.45593999997E+02  0.45594000000E+02  0.51100000000E-03 0.  1.
         11   -1    0    0    0    0 -0.00000000000E+00 -0.00000000000E+00 -0.45593999997E+02  0.45594000000E+02  0.51100000000E-03 0. -1.
    9900012    2    1    2    0    0 -0.38730589234E+02 -0.17618845506E+02  0.14786185385E+02  0.46142317215E+02  0.99999950179E+01 0.  0.
         12    1    1    2    0    0  0.38730589234E+02  0.17618845506E+02 -0.14786185385E+02  0.45045682785E+02  0.00000000000E+00 0. -1.
         11    1    3    3    0    0 -0.38259570873E+01 -0.18466835004E+01  0.19465808303E+01  0.46730466266E+01  0.51100000000E-03 0.  1.
        -11    1    3    3    0    0 -0.20758741978E+02 -0.47012510214E+01  0.89518520877E+01  0.23090318009E+02  0.51100000000E-03 0. -1.
        -12    1    3    3    0    0 -0.14145890168E+02 -0.11070910984E+02  0.38877524666E+01  0.18378952579E+02  0.00000000000E+00 0.  1.
</event>
<event>
 7    1  0.3086024E-009  0.4614232E+02  0.7816164E-02  0.1320468E+00
        -11   -1    0    0    0    0  0.00000000000E+00  0.00000000000E+00  0.45593999997E+02  0.45594000000E+02  0.51100000000E-03 0.  1.
         11   -1    0    0    0    0 -0.00000000000E+00 -0.00000000000E+00 -0.45593999997E+02  0.45594000000E+02  0.51100000000E-03 0. -1.
    9900012    2    1    2    0    0  0.17284936637E+02  0.22401824413E+02  0.35049999899E+02  0.46142320246E+02  0.10000022660E+02 0.  0.
         12    1    1    2    0    0 -0.17284936637E+02 -0.22401824413E+02 -0.35049999899E+02  0.45045679754E+02  0.00000000000E+00 0. -1.
         11    1    3    3    0    0  0.71443251057E+01  0.93175248205E+01  0.20313719710E+02  0.23462839954E+02  0.51100000000E-03 0. -1.
        -11    1    3    3    0    0  0.35188585422E+01  0.80501357216E+01  0.61462806915E+01  0.10722118129E+02  0.51100000000E-03 0.  1.
        -12    1    3    3    0    0  0.66217529889E+01  0.50341638710E+01  0.85899994980E+01  0.11957362163E+02  0.00000000000E+00 0.  1.
</event>
<event>
 7    1  0.3086024E-009  0.4614232E+02  0.7816164E-02  0.1320468E+00
        -11   -1    0    0    0    0  0.00000000000E+00  0.00000000000E+00  0.45593999997E+02  0.45594000000E+02  0.51100000000E-03 0.  1.
         11   -1    0    0    0    0 -0.00000000000E+00 -0.00000000000E+00 -0.45593999997E+02  0.45594000000E+02  0.51100000000E-03 0. -1.
    9900012    2    1    2    0    0  0.97818527975E+01 -0.13550159227E+02  0.41830875000E+02  0.46142316938E+02  0.99999924985E+01 0.  0.
         12    1    1    2    0    0 -0.97818527975E+01  0.13550159227E+02 -0.41830875000E+02  0.45045683062E+02  0.00000000000E+00 0. -1.
         11    1    3    3    0    0  0.20605651018E+01  0.41800274823E+00  0.40869904317E+01  0.45961011615E+01  0.51100000000E-03 0. -1.
        -11    1    3    3    0    0  0.82956697943E+01 -0.10421050113E+02  0.25275772724E+02  0.28570633697E+02  0.51100000000E-03 0.  1.
         12    1    3    3    0    0 -0.57438209865E+00 -0.35471118631E+01  0.12468111844E+02  0.12975582080E+02  0.00000000000E+00 0. -1.
</event>
<event>
 7    1  0.3086024E-009  0.4614231E+02  0.7816164E-02  0.1320468E+00
        -11   -1    0    0    0    0  0.00000000000E+00  0.00000000000E+00  0.45593999997E+02  0.45594000000E+02  0.51100000000E-03 0.  1.
         11   -1    0    0    0    0 -0.00000000000E+00 -0.00000000000E+00 -0.45593999997E+02  0.45594000000E+02  0.51100000000E-03 0. -1.
    9900012    2    1    2    0    0 -0.32151856926E+01  0.13991686150E+02  0.42696710648E+02  0.46142314296E+02  0.99999684034E+01 0.  0.
         12    1    1    2    0    0  0.32151856926E+01 -0.13991686150E+02 -0.42696710648E+02  0.45045685704E+02  0.00000000000E+00 0. -1.
         11    1    3    3    0    0 -0.14958272230E+01  0.70093644435E+01  0.83871282788E+01  0.11032343813E+02  0.51100000000E-03 0. -1.
        -11    1    3    3    0    0 -0.95450560368E+00  0.54418097997E+01  0.22114441904E+02  0.22794142139E+02  0.51100000000E-03 0.  1.
         12    1    3    3    0    0 -0.76485286594E+00  0.15405119065E+01  0.12195140465E+02  0.12315828344E+02  0.00000000000E+00 0. -1.
</event>
<event>
 7    1  0.3086024E-009  0.4614232E+02  0.7816164E-02  0.1320468E+00
        -11   -1    0    0    0    0  0.00000000000E+00  0.00000000000E+00  0.45593999997E+02  0.45594000000E+02  0.51100000000E-03 0.  1.
         11   -1    0    0    0    0 -0.00000000000E+00 -0.00000000000E+00 -0.45593999997E+02  0.45594000000E+02  0.51100000000E-03 0. -1.
    9900012    2    1    2    0    0 -0.33357593723E+02  0.84974283659E+01  0.29054744000E+02  0.46142317668E+02  0.99999991504E+01 0.  0.
         12    1    1    2    0    0  0.33357593723E+02 -0.84974283659E+01 -0.29054744000E+02  0.45045682332E+02  0.00000000000E+00 0. -1.
         11    1    3    3    0    0 -0.81327144195E+01  0.17607523159E+01  0.47589936559E+01  0.95858913735E+01  0.51100000000E-03 0. -1.
        -11    1    3    3    0    0 -0.98187141717E+01  0.14595863987E+01  0.14435080993E+02  0.17518821421E+02  0.51100000000E-03 0.  1.
        -12    1    3    3    0    0 -0.15406165132E+02  0.52770896513E+01  0.98606693515E+01  0.19037604874E+02  0.00000000000E+00 0.  1.
</event>
<event>
 7    1  0.3086024E-009  0.4614232E+02  0.7816164E-02  0.1320468E+00
        -11   -1    0    0    0    0  0.00000000000E+00  0.00000000000E+00  0.45593999997E+02  0.45594000000E+02  0.51100000000E-03 0.  1.
         11   -1    0    0    0    0 -0.00000000000E+00 -0.00000000000E+00 -0.45593999997E+02  0.45594000000E+02  0.51100000000E-03 0. -1.
    9900012    2    1    2    0    0  0.37079306864E+02 -0.12012545181E+02 -0.22581787924E+02  0.46142318908E+02  0.10000010457E+02 0.  0.
         12    1    1    2    0    0 -0.37079306864E+02  0.12012545181E+02  0.22581787924E+02  0.45045681092E+02  0.00000000000E+00 0. -1.
         11    1    3    3    0    0  0.63882798284E+01 -0.26222505314E+01 -0.12425023557E+00  0.69066457414E+01  0.51100000000E-03 0. -1.
        -11    1    3    3    0    0  0.16393119397E+02 -0.50357134330E+01 -0.10638343971E+02  0.20180860638E+02  0.51100000000E-03 0.  1.
         12    1    3    3    0    0  0.14297907638E+02 -0.43545812161E+01 -0.11819193717E+02  0.19054812529E+02  0.00000000000E+00 0. -1.
</event>
<event>
 7    1  0.3086024E-009  0.4614232E+02  0.7816164E-02  0.1320468E+00
        -11   -1    0    0    0    0  0.00000000000E+00  0.00000000000E+00  0.45593999997E+02  0.45594000000E+02  0.51100000000E-03 0.  1.
         11   -1    0    0    0    0 -0.00000000000E+00 -0.00000000000E+00 -0.45593999997E+02  0.45594000000E+02  0.51100000000E-03 0. -1.
    9900012    2    1    2    0    0 -0.29287428990E+02  0.26618252675E+02  0.21513452653E+02  0.46142317439E+02  0.99999970622E+01 0.  0.
         12    1    1    2    0    0  0.29287428990E+02 -0.26618252675E+02 -0.21513452653E+02  0.45045682561E+02  0.00000000000E+00 0. -1.
         11    1    3    3    0    0 -0.75205298698E+01  0.93159573361E+01  0.27075428664E+01  0.12275024206E+02  0.51100000000E-03 0. -1.
        -11    1    3    3    0    0 -0.88576569451E+01  0.98228882753E+01  0.94739251859E+01  0.16269679755E+02  0.51100000000E-03 0.  1.
        -12    1    3    3    0    0 -0.12909242175E+02  0.74794070639E+01  0.93319846011E+01  0.17597613479E+02  0.00000000000E+00 0.  1.
</event>
<event>
 7    1  0.3086024E-009  0.4614232E+02  0.7816164E-02  0.1320468E+00
        -11   -1    0    0    0    0  0.00000000000E+00  0.00000000000E+00  0.45593999997E+02  0.45594000000E+02  0.51100000000E-03 0. -1.
         11   -1    0    0    0    0 -0.00000000000E+00 -0.00000000000E+00 -0.45593999997E+02  0.45594000000E+02  0.51100000000E-03 0.  1.
    9900012    2    1    2    0    0 -0.24478150696E+02 -0.37762346924E+02  0.19846240526E+01  0.46142318306E+02  0.10000004969E+02 0.  0.
         12    1    1    2    0    0  0.24478150696E+02  0.37762346924E+02 -0.19846240526E+01  0.45045681694E+02  0.00000000000E+00 0. -1.
         11    1    3    3    0    0 -0.13120373174E+02 -0.16511755784E+02  0.91669608762E+00  0.21109775064E+02  0.51100000000E-03 0. -1.
        -11    1    3    3    0    0 -0.86217837437E+01 -0.11459845171E+02  0.30837445484E+01  0.14668765693E+02  0.51100000000E-03 0.  1.
        -12    1    3    3    0    0 -0.27359937783E+01 -0.97907459682E+01 -0.20158165834E+01  0.10363777548E+02  0.00000000000E+00 0.  1.
</event>
<event>
 7    1  0.3086024E-009  0.4614232E+02  0.7816164E-02  0.1320468E+00
        -11   -1    0    0    0    0  0.00000000000E+00  0.00000000000E+00  0.45593999997E+02  0.45594000000E+02  0.51100000000E-03 0. -1.
         11   -1    0    0    0    0 -0.00000000000E+00 -0.00000000000E+00 -0.45593999997E+02  0.45594000000E+02  0.51100000000E-03 0.  1.
    9900012    2    1    2    0    0 -0.25853615501E+02  0.18023583554E+02 -0.32184694120E+02  0.46142317252E+02  0.99999953614E+01 0.  0.
         12    1    1    2    0    0  0.25853615501E+02 -0.18023583554E+02  0.32184694120E+02  0.45045682748E+02  0.00000000000E+00 0. -1.
         11    1    3    3    0    0 -0.12015335828E+02  0.80323260982E+01 -0.21364095220E+02  0.25793625616E+02  0.51100000000E-03 0. -1.
        -11    1    3    3    0    0 -0.99928065449E+01  0.82826947727E+01 -0.87966946354E+01  0.15679319249E+02  0.51100000000E-03 0.  1.
         12    1    3    3    0    0 -0.38454731276E+01  0.17085626828E+01 -0.20239042653E+01  0.46693723873E+01  0.00000000000E+00 0. -1.
</event>
<event>
 7    1  0.3086024E-009  0.4614232E+02  0.7816164E-02  0.1320468E+00
        -11   -1    0    0    0    0  0.00000000000E+00  0.00000000000E+00  0.45593999997E+02  0.45594000000E+02  0.51100000000E-03 0.  1.
         11   -1    0    0    0    0 -0.00000000000E+00 -0.00000000000E+00 -0.45593999997E+02  0.45594000000E+02  0.51100000000E-03 0. -1.
    9900012    2    1    2    0    0  0.39591843196E+01 -0.83724887352E+01  0.44083330127E+02  0.46142315377E+02  0.99999782573E+01 0.  0.
         12    1    1    2    0    0 -0.39591843196E+01  0.83724887352E+01 -0.44083330127E+02  0.45045684623E+02  0.00000000000E+00 0. -1.
         11    1    3    3    0    0  0.49654939381E+01 -0.13694686835E+00  0.19826737069E+02  0.20439530023E+02  0.51100000000E-03 0. -1.
        -11    1    3    3    0    0  0.25893706106E-01 -0.61973260564E+01  0.18441192145E+02  0.19454693232E+02  0.51100000000E-03 0.  1.
         12    1    3    3    0    0 -0.10322033246E+01 -0.20382158104E+01  0.58154009129E+01  0.62480921225E+01  0.00000000000E+00 0. -1.
</event>
<event>
 7    1  0.3086024E-009  0.4614232E+02  0.7816164E-02  0.1320468E+00
        -11   -1    0    0    0    0  0.00000000000E+00  0.00000000000E+00  0.45593999997E+02  0.45594000000E+02  0.51100000000E-03 0.  1.
         11   -1    0    0    0    0 -0.00000000000E+00 -0.00000000000E+00 -0.45593999997E+02  0.45594000000E+02  0.51100000000E-03 0. -1.
    9900012    2    1    2    0    0 -0.45358739559E+01  0.44277939785E+01  0.44597465119E+02  0.46142318663E+02  0.10000008223E+02 0.  0.
         12    1    1    2    0    0  0.45358739559E+01 -0.44277939785E+01 -0.44597465119E+02  0.45045681337E+02  0.00000000000E+00 0. -1.
         11    1    3    3    0    0 -0.59581688859E+01  0.17737463345E+01  0.30691773966E+02  0.31315027414E+02  0.51100000000E-03 0. -1.
        -11    1    3    3    0    0  0.56383779452E+00  0.67572291371E+00  0.11733254312E+02  0.11766213134E+02  0.51100000000E-03 0.  1.
         12    1    3    3    0    0  0.85845713546E+00  0.19783247302E+01  0.21724368420E+01  0.30610781147E+01  0.00000000000E+00 0. -1.
</event>
<event>
 7    1  0.3086024E-009  0.4614232E+02  0.7816164E-02  0.1320468E+00
        -11   -1    0    0    0    0  0.00000000000E+00  0.00000000000E+00  0.45593999997E+02  0.45594000000E+02  0.51100000000E-03 0.  1.
         11   -1    0    0    0    0 -0.00000000000E+00 -0.00000000000E+00 -0.45593999997E+02  0.45594000000E+02  0.51100000000E-03 0. -1.
    9900012    2    1    2    0    0  0.19385545123E+02  0.23218856385E+02  0.33379616929E+02  0.46142317878E+02  0.10000001063E+02 0.  0.
         12    1    1    2    0    0 -0.19385545123E+02 -0.23218856385E+02 -0.33379616929E+02  0.45045682122E+02  0.00000000000E+00 0. -1.
         11    1    3    3    0    0 -0.26234034800E+00 -0.60153949233E+00  0.18448764610E+01  0.19581219667E+01  0.51100000000E-03 0. -1.
        -11    1    3    3    0    0  0.84854472678E+01  0.10649522787E+02  0.15354664613E+02  0.20522691747E+02  0.51100000000E-03 0.  1.
         12    1    3    3    0    0  0.11162438204E+02  0.13170873090E+02  0.16180075855E+02  0.23661504163E+02  0.00000000000E+00 0. -1.
</event>
<event>
 7    1  0.3086024E-009  0.4614232E+02  0.7816164E-02  0.1320468E+00
        -11   -1    0    0    0    0  0.00000000000E+00  0.00000000000E+00  0.45593999997E+02  0.45594000000E+02  0.51100000000E-03 0. -1.
         11   -1    0    0    0    0 -0.00000000000E+00 -0.00000000000E+00 -0.45593999997E+02  0.45594000000E+02  0.51100000000E-03 0.  1.
    9900012    2    1    2    0    0 -0.19008419124E+02  0.38955084724E+02 -0.12259474234E+02  0.46142319497E+02  0.10000015829E+02 0.  0.
         12    1    1    2    0    0  0.19008419124E+02 -0.38955084724E+02  0.12259474234E+02  0.45045680503E+02  0.00000000000E+00 0. -1.
         11    1    3    3    0    0 -0.77404776271E+00  0.15619993261E+01 -0.16741204775E+01  0.24169549992E+01  0.51100000000E-03 0. -1.
        -11    1    3    3    0    0 -0.15840590615E+02  0.30167962091E+02 -0.53597933559E+01  0.34492863506E+02  0.51100000000E-03 0.  1.
        -12    1    3    3    0    0 -0.23937807468E+01  0.72251233072E+01 -0.52255604006E+01  0.92325009921E+01  0.00000000000E+00 0.  1.
</event>
<event>
 7    1  0.3086024E-009  0.4614232E+02  0.7816164E-02  0.1320468E+00
        -11   -1    0    0    0    0  0.00000000000E+00  0.00000000000E+00  0.45593999997E+02  0.45594000000E+02  0.51100000000E-03 0. -1.
         11   -1    0    0    0    0 -0.00000000000E+00 -0.00000000000E+00 -0.45593999997E+02  0.45594000000E+02  0.51100000000E-03 0.  1.
    9900012    2    1    2    0    0  0.24778366108E+02 -0.57371205263E+00 -0.37614052089E+02  0.46142317776E+02  0.10000000136E+02 0.  0.
         12    1    1    2    0    0 -0.24778366108E+02  0.57371205263E+00  0.37614052089E+02  0.45045682224E+02  0.00000000000E+00 0. -1.
         11    1    3    3    0    0  0.21570092129E+01 -0.94041390406E+00 -0.46032902046E+00  0.23977010079E+01  0.51100000000E-03 0. -1.
        -11    1    3    3    0    0  0.13363585791E+02  0.91005459292E-01 -0.26109224311E+02  0.29330620545E+02  0.51100000000E-03 0.  1.
         12    1    3    3    0    0  0.92577711037E+01  0.27569639214E+00 -0.11044498757E+02  0.14413996223E+02  0.00000000000E+00 0. -1.
</event>
<event>
 7    1  0.3086024E-009  0.4614232E+02  0.7816164E-02  0.1320468E+00
        -11   -1    0    0    0    0  0.00000000000E+00  0.00000000000E+00  0.45593999997E+02  0.45594000000E+02  0.51100000000E-03 0.  1.
         11   -1    0    0    0    0 -0.00000000000E+00 -0.00000000000E+00 -0.45593999997E+02  0.45594000000E+02  0.51100000000E-03 0. -1.
    9900012    2    1    2    0    0 -0.41129333281E+02  0.56925832747E+01  0.17466710040E+02  0.46142317409E+02  0.99999967900E+01 0.  0.
         12    1    1    2    0    0  0.41129333281E+02 -0.56925832747E+01 -0.17466710040E+02  0.45045682591E+02  0.00000000000E+00 0. -1.
         11    1    3    3    0    0 -0.11945349058E+02  0.31895640106E+01  0.56907458842E+01  0.13610630833E+02  0.51100000000E-03 0. -1.
        -11    1    3    3    0    0 -0.26325601998E+02  0.38698701816E+01  0.84026069515E+01  0.27903709782E+02  0.51100000000E-03 0.  1.
        -12    1    3    3    0    0 -0.28583822247E+01 -0.13668509175E+01  0.33733572045E+01  0.46279767936E+01  0.00000000000E+00 0.  1.
</event>
<event>
 7    1  0.3086024E-009  0.4614231E+02  0.7816164E-02  0.1320468E+00
        -11   -1    0    0    0    0  0.00000000000E+00  0.00000000000E+00  0.45593999997E+02  0.45594000000E+02  0.51100000000E-03 0.  1.
         11   -1    0    0    0    0 -0.00000000000E+00 -0.00000000000E+00 -0.45593999997E+02  0.45594000000E+02  0.51100000000E-03 0. -1.
    9900012    2    1    2    0    0 -0.38179427990E+02  0.17499118586E+02  0.16285763704E+02  0.46142312389E+02  0.99999510085E+01 0.  0.
         12    1    1    2    0    0  0.38179427990E+02 -0.17499118586E+02 -0.16285763704E+02  0.45045687611E+02  0.00000000000E+00 0. -1.
         11    1    3    3    0    0 -0.19920155495E+00 -0.31937658998E+00  0.12448007791E+01  0.13004660344E+01  0.51100000000E-03 0. -1.
        -11    1    3    3    0    0 -0.15447799460E+02  0.94253579927E+01  0.80133560338E+01  0.19791052439E+02  0.51100000000E-03 0.  1.
         12    1    3    3    0    0 -0.22532426975E+02  0.83931371836E+01  0.70276068915E+01  0.25050793915E+02  0.00000000000E+00 0. -1.
</event>
<event>
 7    1  0.3086024E-009  0.4614232E+02  0.7816164E-02  0.1320468E+00
        -11   -1    0    0    0    0  0.00000000000E+00  0.00000000000E+00  0.45593999997E+02  0.45594000000E+02  0.51100000000E-03 0. -1.
         11   -1    0    0    0    0 -0.00000000000E+00 -0.00000000000E+00 -0.45593999997E+02  0.45594000000E+02  0.51100000000E-03 0.  1.
    9900012    2    1    2    0    0 -0.31089740100E+02 -0.32564319042E+02 -0.14514534263E+01  0.46142317286E+02  0.99999956640E+01 0.  0.
         12    1    1    2    0    0  0.31089740100E+02  0.32564319042E+02  0.14514534263E+01  0.45045682714E+02  0.00000000000E+00 0. -1.
         11    1    3    3    0    0 -0.52789327995E+01 -0.96874873789E+01 -0.17319829059E+00  0.11033790877E+02  0.51100000000E-03 0. -1.
        -11    1    3    3    0    0 -0.24176395954E+02 -0.19193867185E+02  0.39626101205E-01  0.30869146883E+02  0.51100000000E-03 0.  1.
        -12    1    3    3    0    0 -0.16344113465E+01 -0.36829644787E+01 -0.13178812369E+01  0.42393795248E+01  0.00000000000E+00 0.  1.
</event>
<event>
 7    1  0.3086024E-009  0.4614232E+02  0.7816164E-02  0.1320468E+00
        -11   -1    0    0    0    0  0.00000000000E+00  0.00000000000E+00  0.45593999997E+02  0.45594000000E+02  0.51100000000E-03 0. -1.
         11   -1    0    0    0    0 -0.00000000000E+00 -0.00000000000E+00 -0.45593999997E+02  0.45594000000E+02  0.51100000000E-03 0.  1.
    9900012    2    1    2    0    0  0.35947730506E+02 -0.12697500228E+02 -0.23992657280E+02  0.46142318255E+02  0.10000004500E+02 0.  0.
         12    1    1    2    0    0 -0.35947730506E+02  0.12697500228E+02  0.23992657280E+02  0.45045681745E+02  0.00000000000E+00 0. -1.
         11    1    3    3    0    0  0.15669918274E+01  0.14449279131E+00  0.73333732586E+00  0.17361236847E+01  0.51100000000E-03 0. -1.
        -11    1    3    3    0    0  0.30301154309E+02 -0.12491163816E+02 -0.22382443559E+02  0.39688322034E+02  0.51100000000E-03 0.  1.
        -12    1    3    3    0    0  0.40795843689E+01 -0.35082920313E+00 -0.23435510471E+01  0.47178725357E+01  0.00000000000E+00 0.  1.
</event>
<event>
 7    1  0.3086024E-009  0.4614232E+02  0.7816164E-02  0.1320468E+00
        -11   -1    0    0    0    0  0.00000000000E+00  0.00000000000E+00  0.45593999997E+02  0.45594000000E+02  0.51100000000E-03 0.  1.
         11   -1    0    0    0    0 -0.00000000000E+00 -0.00000000000E+00 -0.45593999997E+02  0.45594000000E+02  0.51100000000E-03 0. -1.
    9900012    2    1    2    0    0 -0.35117233459E+02 -0.19128333429E+02  0.20736447570E+02  0.46142317816E+02  0.10000000499E+02 0.  0.
         12    1    1    2    0    0  0.35117233459E+02  0.19128333429E+02 -0.20736447570E+02  0.45045682184E+02  0.00000000000E+00 0. -1.
         11    1    3    3    0    0 -0.14537929488E+02 -0.50619955666E+01  0.40910374840E+01  0.15928332646E+02  0.51100000000E-03 0. -1.
        -11    1    3    3    0    0 -0.19302764443E+02 -0.12262008719E+02  0.14202470223E+02  0.26919579002E+02  0.51100000000E-03 0.  1.
        -12    1    3    3    0    0 -0.12765395287E+01 -0.18043291435E+01  0.24429398628E+01  0.32944061680E+01  0.00000000000E+00 0.  1.
</event>
<event>
 7    1  0.3086024E-009  0.4614232E+02  0.7816164E-02  0.1320468E+00
        -11   -1    0    0    0    0  0.00000000000E+00  0.00000000000E+00  0.45593999997E+02  0.45594000000E+02  0.51100000000E-03 0.  1.
         11   -1    0    0    0    0 -0.00000000000E+00 -0.00000000000E+00 -0.45593999997E+02  0.45594000000E+02  0.51100000000E-03 0. -1.
    9900012    2    1    2    0    0 -0.40843510271E+02 -0.11424551802E+01  0.18963540114E+02  0.46142318866E+02  0.10000010077E+02 0.  0.
         12    1    1    2    0    0  0.40843510271E+02  0.11424551802E+01 -0.18963540114E+02  0.45045681134E+02  0.00000000000E+00 0. -1.
         11    1    3    3    0    0  0.20757623627E+00  0.22497063498E+00 -0.10473902153E+00  0.32352774876E+00  0.51100000000E-03 0. -1.
        -11    1    3    3    0    0 -0.19729206955E+02 -0.41461058470E+01  0.91654512741E+01  0.22145818975E+02  0.51100000000E-03 0.  1.
         12    1    3    3    0    0 -0.21321879553E+02  0.27786800319E+01  0.99028278619E+01  0.23672972142E+02  0.00000000000E+00 0. -1.
</event>
<event>
 7    1  0.3086024E-009  0.4614232E+02  0.7816164E-02  0.1320468E+00
        -11   -1    0    0    0    0  0.00000000000E+00  0.00000000000E+00  0.45593999997E+02  0.45594000000E+02  0.51100000000E-03 0. -1.
         11   -1    0    0    0    0 -0.00000000000E+00 -0.00000000000E+00 -0.45593999997E+02  0.45594000000E+02  0.51100000000E-03 0.  1.
    9900012    2    1    2    0    0 -0.43172443405E+02 -0.34648391096E+01  0.12379358655E+02  0.46142317628E+02  0.99999987882E+01 0.  0.
         12    1    1    2    0    0  0.43172443405E+02  0.34648391096E+01 -0.12379358655E+02  0.45045682372E+02  0.00000000000E+00 0. -1.
         11    1    3    3    0    0 -0.87422809268E+00  0.11435146289E+00  0.85535589009E+00  0.12284074955E+01  0.51100000000E-03 0. -1.
        -11    1    3    3    0    0 -0.27836279156E+02 -0.66418417430E+01  0.71419927474E+01  0.29495432861E+02  0.51100000000E-03 0.  1.
        -12    1    3    3    0    0 -0.14461936156E+02  0.30626511705E+01  0.43820100178E+01  0.15418477272E+02  0.00000000000E+00 0.  1.
</event>
<event>
 7    1  0.3086024E-009  0.4614232E+02  0.7816164E-02  0.1320468E+00
        -11   -1    0    0    0    0  0.00000000000E+00  0.00000000000E+00  0.45593999997E+02  0.45594000000E+02  0.51100000000E-03 0.  1.
         11   -1    0    0    0    0 -0.00000000000E+00 -0.00000000000E+00 -0.45593999997E+02  0.45594000000E+02  0.51100000000E-03 0. -1.
    9900012    2    1    2    0    0  0.22506081825E+02 -0.34888267873E+02  0.17475647344E+02  0.46142320913E+02  0.10000028745E+02 0.  0.
         12    1    1    2    0    0 -0.22506081825E+02  0.34888267873E+02 -0.17475647344E+02  0.45045679087E+02  0.00000000000E+00 0. -1.
         11    1    3    3    0    0  0.35846251192E+01 -0.89656514228E+01  0.57574701552E+01  0.11241926237E+02  0.51100000000E-03 0. -1.
        -11    1    3    3    0    0  0.90837744472E+01 -0.16167802865E+02  0.96095030664E+01  0.20886726817E+02  0.51100000000E-03 0.  1.
         12    1    3    3    0    0  0.98376822589E+01 -0.97548135853E+01  0.21086741225E+01  0.14013667859E+02  0.00000000000E+00 0. -1.
</event>
<event>
 7    1  0.3086024E-009  0.4614232E+02  0.7816164E-02  0.1320468E+00
        -11   -1    0    0    0    0  0.00000000000E+00  0.00000000000E+00  0.45593999997E+02  0.45594000000E+02  0.51100000000E-03 0. -1.
         11   -1    0    0    0    0 -0.00000000000E+00 -0.00000000000E+00 -0.45593999997E+02  0.45594000000E+02  0.51100000000E-03 0.  1.
    9900012    2    1    2    0    0  0.73453376581E+01  0.43469637616E+02  0.92493305421E+01  0.46142317685E+02  0.99999993054E+01 0.  0.
         12    1    1    2    0    0 -0.73453376581E+01 -0.43469637616E+02 -0.92493305421E+01  0.45045682315E+02  0.00000000000E+00 0. -1.
         11    1    3    3    0    0  0.42646117168E+01  0.14984959021E+02  0.59907360740E+01  0.16692058858E+02  0.51100000000E-03 0. -1.
        -11    1    3    3    0    0  0.15971698261E+01  0.19437635170E+02  0.49643627161E+01  0.20125046829E+02  0.51100000000E-03 0.  1.
         12    1    3    3    0    0  0.14835561152E+01  0.90470434250E+01 -0.17057682480E+01  0.93252119974E+01  0.00000000000E+00 0. -1.
</event>
<event>
 7    1  0.3086024E-009  0.4614232E+02  0.7816164E-02  0.1320468E+00
        -11   -1    0    0    0    0  0.00000000000E+00  0.00000000000E+00  0.45593999997E+02  0.45594000000E+02  0.51100000000E-03 0. -1.
         11   -1    0    0    0    0 -0.00000000000E+00 -0.00000000000E+00 -0.45593999997E+02  0.45594000000E+02  0.51100000000E-03 0.  1.
    9900012    2    1    2    0    0 -0.35843582941E+02 -0.26045338366E+02 -0.81235060557E+01  0.46142318306E+02  0.10000004972E+02 0.  0.
         12    1    1    2    0    0  0.35843582941E+02  0.26045338366E+02  0.81235060557E+01  0.45045681694E+02  0.00000000000E+00 0. -1.
         11    1    3    3    0    0 -0.78091706339E+00  0.47269938293E+00 -0.12307563279E+01  0.15323307627E+01  0.51100000000E-03 0. -1.
        -11    1    3    3    0    0 -0.29773042071E+02 -0.21979034888E+02 -0.68735079677E+01  0.37639834230E+02  0.51100000000E-03 0.  1.
        -12    1    3    3    0    0 -0.52896238058E+01 -0.45390028604E+01 -0.19241760062E-01  0.69701533139E+01  0.00000000000E+00 0.  1.
</event>
<event>
 7    1  0.3086024E-009  0.4614232E+02  0.7816164E-02  0.1320468E+00
        -11   -1    0    0    0    0  0.00000000000E+00  0.00000000000E+00  0.45593999997E+02  0.45594000000E+02  0.51100000000E-03 0. -1.
         11   -1    0    0    0    0 -0.00000000000E+00 -0.00000000000E+00 -0.45593999997E+02  0.45594000000E+02  0.51100000000E-03 0.  1.
    9900012    2    1    2    0    0  0.12070872377E+01 -0.19423092390E+02 -0.40625114829E+02  0.46142317271E+02  0.99999955349E+01 0.  0.
         12    1    1    2    0    0 -0.12070872377E+01  0.19423092390E+02  0.40625114829E+02  0.45045682729E+02  0.00000000000E+00 0. -1.
         11    1    3    3    0    0  0.34248466755E+01 -0.16589883608E+02 -0.33976862635E+02  0.37965523935E+02  0.51100000000E-03 0.  1.
        -11    1    3    3    0    0  0.32305859838E+00 -0.12592703024E+01 -0.60308340549E+00  0.14331219095E+01  0.51100000000E-03 0. -1.
        -12    1    3    3    0    0 -0.25408180361E+01 -0.15739384797E+01 -0.60451687888E+01  0.67436714270E+01  0.00000000000E+00 0.  1.
</event>
<event>
 7    1  0.3086024E-009  0.4614232E+02  0.7816164E-02  0.1320468E+00
        -11   -1    0    0    0    0  0.00000000000E+00  0.00000000000E+00  0.45593999997E+02  0.45594000000E+02  0.51100000000E-03 0.  1.
         11   -1    0    0    0    0 -0.00000000000E+00 -0.00000000000E+00 -0.45593999997E+02  0.45594000000E+02  0.51100000000E-03 0. -1.
    9900012    2    1    2    0    0  0.42744601897E+02 -0.35503616823E+01  0.13762538930E+02  0.46142317219E+02  0.99999950535E+01 0.  0.
         12    1    1    2    0    0 -0.42744601897E+02  0.35503616823E+01 -0.13762538930E+02  0.45045682781E+02  0.00000000000E+00 0. -1.
         11    1    3    3    0    0  0.99219573403E+01 -0.15317071102E+01  0.13981156586E+01  0.10136374687E+02  0.51100000000E-03 0. -1.
        -11    1    3    3    0    0  0.26037094408E+02 -0.40306314028E+01  0.74192481632E+01  0.27371911119E+02  0.51100000000E-03 0.  1.
        -12    1    3    3    0    0  0.67855501488E+01  0.20119768307E+01  0.49451751087E+01  0.86340314132E+01  0.00000000000E+00 0.  1.
</event>
<event>
 7    1  0.3086024E-009  0.4614231E+02  0.7816164E-02  0.1320468E+00
        -11   -1    0    0    0    0  0.00000000000E+00  0.00000000000E+00  0.45593999997E+02  0.45594000000E+02  0.51100000000E-03 0. -1.
         11   -1    0    0    0    0 -0.00000000000E+00 -0.00000000000E+00 -0.45593999997E+02  0.45594000000E+02  0.51100000000E-03 0.  1.
    9900012    2    1    2    0    0 -0.42451663350E+02  0.14816119583E+02  0.27300058744E+01  0.46142311497E+02  0.99999428769E+01 0.  0.
         12    1    1    2    0    0  0.42451663350E+02 -0.14816119583E+02 -0.27300058744E+01  0.45045688503E+02  0.00000000000E+00 0. -1.
         11    1    3    3    0    0 -0.75650064479E+01  0.18572538621E+01  0.17953015293E+01  0.79938615392E+01  0.51100000000E-03 0. -1.
        -11    1    3    3    0    0 -0.21845623227E+01  0.20158687496E+01 -0.19317373356E+01  0.35450879752E+01  0.51100000000E-03 0.  1.
        -12    1    3    3    0    0 -0.32702094579E+02  0.10942996971E+02  0.28664416807E+01  0.34603361982E+02  0.00000000000E+00 0.  1.
</event>
<event>
 7    1  0.3086024E-009  0.4614232E+02  0.7816164E-02  0.1320468E+00
        -11   -1    0    0    0    0  0.00000000000E+00  0.00000000000E+00  0.45593999997E+02  0.45594000000E+02  0.51100000000E-03 0. -1.
         11   -1    0    0    0    0 -0.00000000000E+00 -0.00000000000E+00 -0.45593999997E+02  0.45594000000E+02  0.51100000000E-03 0.  1.
    9900012    2    1    2    0    0 -0.85263024914E+01 -0.42992312213E+02 -0.10395980027E+02  0.46142321580E+02  0.10000034822E+02 0.  0.
         12    1    1    2    0    0  0.85263024914E+01  0.42992312213E+02  0.10395980027E+02  0.45045678420E+02  0.00000000000E+00 0. -1.
         11    1    3    3    0    0 -0.81745135209E+00 -0.12130094947E+02  0.34109004709E+00  0.12162391739E+02  0.51100000000E-03 0. -1.
        -11    1    3    3    0    0 -0.50594290362E+01 -0.23148546617E+02 -0.10227502511E+02  0.25808038293E+02  0.51100000000E-03 0.  1.
        -12    1    3    3    0    0 -0.26494221031E+01 -0.77136706489E+01 -0.50956756248E+00  0.81718915473E+01  0.00000000000E+00 0.  1.
</event>
<event>
 7    1  0.3086024E-009  0.4614232E+02  0.7816164E-02  0.1320468E+00
        -11   -1    0    0    0    0  0.00000000000E+00  0.00000000000E+00  0.45593999997E+02  0.45594000000E+02  0.51100000000E-03 0.  1.
         11   -1    0    0    0    0 -0.00000000000E+00 -0.00000000000E+00 -0.45593999997E+02  0.45594000000E+02  0.51100000000E-03 0. -1.
    9900012    2    1    2    0    0  0.40730742418E+02 -0.18822384432E+02  0.39796966802E+01  0.46142317418E+02  0.99999968689E+01 0.  0.
         12    1    1    2    0    0 -0.40730742418E+02  0.18822384432E+02 -0.39796966802E+01  0.45045682582E+02  0.00000000000E+00 0. -1.
         11    1    3    3    0    0 -0.97524847047E-01 -0.72519141670E-01  0.11319998410E+00  0.16608618010E+00  0.51100000000E-03 0. -1.
        -11    1    3    3    0    0  0.30445047580E+02 -0.13103002970E+02  0.67151697356E+01  0.33818384258E+02  0.51100000000E-03 0.  1.
        -12    1    3    3    0    0  0.10383219685E+02 -0.56468623204E+01 -0.28486730395E+01  0.12157846979E+02  0.00000000000E+00 0.  1.
</event>
<event>
 7    1  0.3086024E-009  0.4614232E+02  0.7816164E-02  0.1320468E+00
        -11   -1    0    0    0    0  0.00000000000E+00  0.00000000000E+00  0.45593999997E+02  0.45594000000E+02  0.51100000000E-03 0.  1.
         11   -1    0    0    0    0 -0.00000000000E+00 -0.00000000000E+00 -0.45593999997E+02  0.45594000000E+02  0.51100000000E-03 0. -1.
    9900012    2    1    2    0    0  0.27247689190E+01 -0.44910362667E+02  0.21791100227E+01  0.46142316955E+02  0.99999926468E+01 0.  0.
         12    1    1    2    0    0 -0.27247689190E+01  0.44910362667E+02 -0.21791100227E+01  0.45045683045E+02  0.00000000000E+00 0. -1.
         11    1    3    3    0    0 -0.11097920072E+01 -0.29819806816E+01 -0.89235210268E+00  0.33045634539E+01  0.51100000000E-03 0. -1.
        -11    1    3    3    0    0  0.58041306143E+00 -0.32865340168E+02  0.42188078696E+01  0.33140093599E+02  0.51100000000E-03 0.  1.
        -12    1    3    3    0    0  0.32541478648E+01 -0.90630418176E+01 -0.11473457443E+01  0.96976599017E+01  0.00000000000E+00 0.  1.
</event>
<event>
 7    1  0.3086024E-009  0.4614232E+02  0.7816164E-02  0.1320468E+00
        -11   -1    0    0    0    0  0.00000000000E+00  0.00000000000E+00  0.45593999997E+02  0.45594000000E+02  0.51100000000E-03 0. -1.
         11   -1    0    0    0    0 -0.00000000000E+00 -0.00000000000E+00 -0.45593999997E+02  0.45594000000E+02  0.51100000000E-03 0.  1.
    9900012    2    1    2    0    0 -0.18881530853E+02 -0.14981893846E+02 -0.38054488928E+02  0.46142317875E+02  0.10000001036E+02 0.  0.
         12    1    1    2    0    0  0.18881530853E+02  0.14981893846E+02  0.38054488928E+02  0.45045682125E+02  0.00000000000E+00 0. -1.
         11    1    3    3    0    0 -0.34772452615E+01 -0.54982436563E+00 -0.37841263187E+01  0.51684769225E+01  0.51100000000E-03 0. -1.
        -11    1    3    3    0    0 -0.43941420740E+01 -0.18141961613E+01 -0.33691791277E+01  0.58267624402E+01  0.51100000000E-03 0.  1.
        -12    1    3    3    0    0 -0.11010143518E+02 -0.12617873319E+02 -0.30901183481E+02  0.35147078512E+02  0.00000000000E+00 0.  1.
</event>
<event>
 7    1  0.3086024E-009  0.4614232E+02  0.7816164E-02  0.1320468E+00
        -11   -1    0    0    0    0  0.00000000000E+00  0.00000000000E+00  0.45593999997E+02  0.45594000000E+02  0.51100000000E-03 0.  1.
         11   -1    0    0    0    0 -0.00000000000E+00 -0.00000000000E+00 -0.45593999997E+02  0.45594000000E+02  0.51100000000E-03 0. -1.
    9900012    2    1    2    0    0  0.39082085162E+02  0.11055337430E+02 -0.19480338549E+02  0.46142318117E+02  0.10000003248E+02 0.  0.
         12    1    1    2    0    0 -0.39082085162E+02 -0.11055337430E+02  0.19480338549E+02  0.45045681883E+02  0.00000000000E+00 0. -1.
         11    1    3    3    0    0  0.11457097812E+01 -0.60872310302E+00 -0.93256548805E+00  0.15977713759E+01  0.51100000000E-03 0. -1.
        -11    1    3    3    0    0  0.15520589393E+01 -0.84422212557E+00 -0.19826635406E+01  0.26556643095E+01  0.51100000000E-03 0.  1.
        -12    1    3    3    0    0  0.36384316441E+02  0.12508282659E+02 -0.16565109520E+02  0.41888882432E+02  0.00000000000E+00 0.  1.
</event>
<event>
 7    1  0.3086024E-009  0.4614233E+02  0.7816164E-02  0.1320468E+00
        -11   -1    0    0    0    0  0.00000000000E+00  0.00000000000E+00  0.45593999997E+02  0.45594000000E+02  0.51100000000E-03 0. -1.
         11   -1    0    0    0    0 -0.00000000000E+00 -0.00000000000E+00 -0.45593999997E+02  0.45594000000E+02  0.51100000000E-03 0.  1.
    9900012    2    1    2    0    0  0.44123577349E+01  0.34560443539E+02 -0.28552050291E+02  0.46142326132E+02  0.10000076337E+02 0.  0.
         12    1    1    2    0    0 -0.44123577349E+01 -0.34560443539E+02  0.28552050291E+02  0.45045673868E+02  0.00000000000E+00 0. -1.
         11    1    3    3    0    0  0.29657533008E+01  0.30753568140E+01 -0.55094641709E+01  0.69719228256E+01  0.51100000000E-03 0. -1.
        -11    1    3    3    0    0  0.48239022500E+00  0.41465968693E+01 -0.44077999979E+01  0.60708868387E+01  0.51100000000E-03 0.  1.
         12    1    3    3    0    0  0.96421420911E+00  0.27338489855E+02 -0.18634786122E+02  0.33099516468E+02  0.00000000000E+00 0. -1.
</event>
<event>
 7    1  0.3086024E-009  0.4614232E+02  0.7816164E-02  0.1320468E+00
        -11   -1    0    0    0    0  0.00000000000E+00  0.00000000000E+00  0.45593999997E+02  0.45594000000E+02  0.51100000000E-03 0.  1.
         11   -1    0    0    0    0 -0.00000000000E+00 -0.00000000000E+00 -0.45593999997E+02  0.45594000000E+02  0.51100000000E-03 0. -1.
    9900012    2    1    2    0    0 -0.96357601644E+00 -0.31501947035E+02  0.32184038229E+02  0.46142318048E+02  0.10000002620E+02 0.  0.
         12    1    1    2    0    0  0.96357601644E+00  0.31501947035E+02 -0.32184038229E+02  0.45045681952E+02  0.00000000000E+00 0. -1.
         11    1    3    3    0    0 -0.88891911419E+00 -0.85787099608E+01  0.88707641232E+01  0.12372344086E+02  0.51100000000E-03 0. -1.
        -11    1    3    3    0    0 -0.39725032459E+01 -0.89079907955E+01  0.76709198122E+01  0.12408710371E+02  0.51100000000E-03 0.  1.
        -12    1    3    3    0    0  0.38978463436E+01 -0.14015246279E+02  0.15642354294E+02  0.21361263592E+02  0.00000000000E+00 0.  1.
</event>
<event>
 7    1  0.3086024E-009  0.4614232E+02  0.7816164E-02  0.1320468E+00
        -11   -1    0    0    0    0  0.00000000000E+00  0.00000000000E+00  0.45593999997E+02  0.45594000000E+02  0.51100000000E-03 0.  1.
         11   -1    0    0    0    0 -0.00000000000E+00 -0.00000000000E+00 -0.45593999997E+02  0.45594000000E+02  0.51100000000E-03 0. -1.
    9900012    2    1    2    0    0 -0.59605974226E+01 -0.95206345027E+01  0.43622727385E+02  0.46142317105E+02  0.99999940210E+01 0.  0.
         12    1    1    2    0    0  0.59605974226E+01  0.95206345027E+01 -0.43622727385E+02  0.45045682895E+02  0.00000000000E+00 0. -1.
         11    1    3    3    0    0 -0.19869397068E+01 -0.26786860205E+01  0.20780281173E+02  0.21046219948E+02  0.51100000000E-03 0.  1.
        -11    1    3    3    0    0 -0.13510955629E+01 -0.20027160314E+01  0.16594641000E+02  0.16769568895E+02  0.51100000000E-03 0. -1.
         12    1    3    3    0    0 -0.26225621530E+01 -0.48392324508E+01  0.62478052114E+01  0.83265282632E+01  0.00000000000E+00 0. -1.
</event>
<event>
 7    1  0.3086024E-009  0.4614232E+02  0.7816164E-02  0.1320468E+00
        -11   -1    0    0    0    0  0.00000000000E+00  0.00000000000E+00  0.45593999997E+02  0.45594000000E+02  0.51100000000E-03 0. -1.
         11   -1    0    0    0    0 -0.00000000000E+00 -0.00000000000E+00 -0.45593999997E+02  0.45594000000E+02  0.51100000000E-03 0.  1.
    9900012    2    1    2    0    0  0.35665077002E+02 -0.17991299950E+01 -0.27456855983E+02  0.46142317335E+02  0.99999961135E+01 0.  0.
         12    1    1    2    0    0 -0.35665077002E+02  0.17991299950E+01  0.27456855983E+02  0.45045682665E+02  0.00000000000E+00 0. -1.
         11    1    3    3    0    0  0.72710143167E+01  0.16543690069E+00 -0.27501437208E+01  0.77754941520E+01  0.51100000000E-03 0.  1.
        -11    1    3    3    0    0  0.55598379136E+01 -0.30003115250E+01 -0.36945111808E+01  0.73186802088E+01  0.51100000000E-03 0. -1.
        -12    1    3    3    0    0  0.22834224772E+02  0.10357446293E+01 -0.21012201081E+02  0.31048142974E+02  0.00000000000E+00 0.  1.
</event>
<event>
 7    1  0.3086024E-009  0.4614232E+02  0.7816164E-02  0.1320468E+00
        -11   -1    0    0    0    0  0.00000000000E+00  0.00000000000E+00  0.45593999997E+02  0.45594000000E+02  0.51100000000E-03 0.  1.
         11   -1    0    0    0    0 -0.00000000000E+00 -0.00000000000E+00 -0.45593999997E+02  0.45594000000E+02  0.51100000000E-03 0. -1.
    9900012    2    1    2    0    0  0.11770337440E+02  0.37076042910E+02  0.22714305757E+02  0.46142317772E+02  0.10000000099E+02 0.  0.
         12    1    1    2    0    0 -0.11770337440E+02 -0.37076042910E+02 -0.22714305757E+02  0.45045682228E+02  0.00000000000E+00 0. -1.
         11    1    3    3    0    0  0.30441472106E+01  0.19103335846E+02  0.15326489612E+02  0.24680063954E+02  0.51100000000E-03 0. -1.
        -11    1    3    3    0    0  0.51917177216E+01  0.80879933818E+01  0.42244649060E+01  0.10498365294E+02  0.51100000000E-03 0.  1.
         12    1    3    3    0    0  0.35344725083E+01  0.98847136827E+01  0.31633512388E+01  0.10963888524E+02  0.00000000000E+00 0. -1.
</event>
<event>
 7    1  0.3086024E-009  0.4614232E+02  0.7816164E-02  0.1320468E+00
        -11   -1    0    0    0    0  0.00000000000E+00  0.00000000000E+00  0.45593999997E+02  0.45594000000E+02  0.51100000000E-03 0.  1.
         11   -1    0    0    0    0 -0.00000000000E+00 -0.00000000000E+00 -0.45593999997E+02  0.45594000000E+02  0.51100000000E-03 0. -1.
    9900012    2    1    2    0    0  0.11969565321E+02 -0.32134217273E+02  0.29210180717E+02  0.46142322391E+02  0.10000042220E+02 0.  0.
         12    1    1    2    0    0 -0.11969565321E+02  0.32134217273E+02 -0.29210180717E+02  0.45045677609E+02  0.00000000000E+00 0. -1.
         11    1    3    3    0    0  0.23178044709E+01 -0.61823766571E+01  0.76321244358E+01  0.10091745258E+02  0.51100000000E-03 0. -1.
        -11    1    3    3    0    0  0.43615551007E+01 -0.19459650215E+02  0.11782539226E+02  0.23163103856E+02  0.51100000000E-03 0.  1.
        -12    1    3    3    0    0  0.52902057490E+01 -0.64921904010E+01  0.97955170553E+01  0.12887473276E+02  0.00000000000E+00 0.  1.
</event>
<event>
 7    1  0.3086024E-009  0.4614232E+02  0.7816164E-02  0.1320468E+00
        -11   -1    0    0    0    0  0.00000000000E+00  0.00000000000E+00  0.45593999997E+02  0.45594000000E+02  0.51100000000E-03 0.  1.
         11   -1    0    0    0    0 -0.00000000000E+00 -0.00000000000E+00 -0.45593999997E+02  0.45594000000E+02  0.51100000000E-03 0. -1.
    9900012    2    1    2    0    0 -0.87557571982E+01  0.26709613594E+02  0.35200096548E+02  0.46142317194E+02  0.99999948327E+01 0.  0.
         12    1    1    2    0    0  0.87557571982E+01 -0.26709613594E+02 -0.35200096548E+02  0.45045682806E+02  0.00000000000E+00 0. -1.
         11    1    3    3    0    0  0.10998455740E+01  0.29250139098E+01  0.56870634349E+01  0.64890721550E+01  0.51100000000E-03 0. -1.
        -11    1    3    3    0    0 -0.42307425579E+01  0.17693015983E+02  0.20234931422E+02  0.27210190133E+02  0.51100000000E-03 0.  1.
         12    1    3    3    0    0 -0.56248602142E+01  0.60915837012E+01  0.92781016906E+01  0.12443054906E+02  0.00000000000E+00 0. -1.
</event>
<event>
 7    1  0.3086024E-009  0.4614232E+02  0.7816164E-02  0.1320468E+00
        -11   -1    0    0    0    0  0.00000000000E+00  0.00000000000E+00  0.45593999997E+02  0.45594000000E+02  0.51100000000E-03 0.  1.
         11   -1    0    0    0    0 -0.00000000000E+00 -0.00000000000E+00 -0.45593999997E+02  0.45594000000E+02  0.51100000000E-03 0. -1.
    9900012    2    1    2    0    0  0.20801955955E+00 -0.91675770994E+01  0.44102445214E+02  0.46142318566E+02  0.10000007339E+02 0.  0.
         12    1    1    2    0    0 -0.20801955955E+00  0.91675770994E+01 -0.44102445214E+02  0.45045681434E+02  0.00000000000E+00 0. -1.
         11    1    3    3    0    0  0.41416309347E+01 -0.24236197322E+01  0.11301584602E+02  0.12278145389E+02  0.51100000000E-03 0. -1.
        -11    1    3    3    0    0 -0.19738310237E+01 -0.12988212563E+01  0.13825818184E+02  0.14026268010E+02  0.51100000000E-03 0.  1.
         12    1    3    3    0    0 -0.19597803515E+01 -0.54451361109E+01  0.18975042428E+02  0.19837905167E+02  0.00000000000E+00 0. -1.
</event>
<event>
 7    1  0.3086024E-009  0.4614233E+02  0.7816164E-02  0.1320468E+00
        -11   -1    0    0    0    0  0.00000000000E+00  0.00000000000E+00  0.45593999997E+02  0.45594000000E+02  0.51100000000E-03 0.  1.
         11   -1    0    0    0    0 -0.00000000000E+00 -0.00000000000E+00 -0.45593999997E+02  0.45594000000E+02  0.51100000000E-03 0. -1.
    9900012    2    1    2    0    0  0.11907393124E+02 -0.90818389164E+00  0.43433874312E+02  0.46142331543E+02  0.10000125672E+02 0.  0.
         12    1    1    2    0    0 -0.11907393124E+02  0.90818389164E+00 -0.43433874312E+02  0.45045668457E+02  0.00000000000E+00 0. -1.
         11    1    3    3    0    0  0.47173032434E+01  0.12181806494E+01  0.99176175270E+01  0.11049708216E+02  0.51100000000E-03 0. -1.
        -11    1    3    3    0    0  0.72002537569E+01  0.10033964378E+01  0.23474918808E+02  0.24574830048E+02  0.51100000000E-03 0.  1.
         12    1    3    3    0    0 -0.10163876286E-01 -0.31297609788E+01  0.10041337977E+02  0.10517793279E+02  0.00000000000E+00 0. -1.
</event>
<event>
 7    1  0.3086024E-009  0.4614232E+02  0.7816164E-02  0.1320468E+00
        -11   -1    0    0    0    0  0.00000000000E+00  0.00000000000E+00  0.45593999997E+02  0.45594000000E+02  0.51100000000E-03 0. -1.
         11   -1    0    0    0    0 -0.00000000000E+00 -0.00000000000E+00 -0.45593999997E+02  0.45594000000E+02  0.51100000000E-03 0.  1.
    9900012    2    1    2    0    0  0.18931444119E+02  0.15378527065E+02 -0.37871030290E+02  0.46142316452E+02  0.99999880607E+01 0.  0.
         12    1    1    2    0    0 -0.18931444119E+02 -0.15378527065E+02  0.37871030290E+02  0.45045683548E+02  0.00000000000E+00 0. -1.
         11    1    3    3    0    0  0.15132715030E+02  0.14373706917E+02 -0.28577322121E+02  0.35387368574E+02  0.51100000000E-03 0. -1.
        -11    1    3    3    0    0  0.28550399012E+01  0.21740613174E+01 -0.80159485866E+01  0.87825524452E+01  0.51100000000E-03 0.  1.
         12    1    3    3    0    0  0.94368918788E+00 -0.11692411688E+01 -0.12777595822E+01  0.19723954330E+01  0.00000000000E+00 0. -1.
</event>
<event>
 7    1  0.3086024E-009  0.4614232E+02  0.7816164E-02  0.1320468E+00
        -11   -1    0    0    0    0  0.00000000000E+00  0.00000000000E+00  0.45593999997E+02  0.45594000000E+02  0.51100000000E-03 0.  1.
         11   -1    0    0    0    0 -0.00000000000E+00 -0.00000000000E+00 -0.45593999997E+02  0.45594000000E+02  0.51100000000E-03 0. -1.
    9900012    2    1    2    0    0  0.55430343905E+01 -0.43037085190E+02  0.12091216440E+02  0.46142318222E+02  0.10000004200E+02 0.  0.
         12    1    1    2    0    0 -0.55430343905E+01  0.43037085190E+02 -0.12091216440E+02  0.45045681778E+02  0.00000000000E+00 0. -1.
         11    1    3    3    0    0  0.13780655218E+01 -0.80821867604E+01 -0.13217251946E+01  0.83046833271E+01  0.51100000000E-03 0. -1.
        -11    1    3    3    0    0  0.24735721101E+01 -0.14851973657E+02  0.74624847101E+01  0.16804414860E+02  0.51100000000E-03 0.  1.
         12    1    3    3    0    0  0.16913967587E+01 -0.20102924772E+02  0.59504569249E+01  0.21033220034E+02  0.00000000000E+00 0. -1.
</event>
<event>
 7    1  0.3086024E-009  0.4614232E+02  0.7816164E-02  0.1320468E+00
        -11   -1    0    0    0    0  0.00000000000E+00  0.00000000000E+00  0.45593999997E+02  0.45594000000E+02  0.51100000000E-03 0.  1.
         11   -1    0    0    0    0 -0.00000000000E+00 -0.00000000000E+00 -0.45593999997E+02  0.45594000000E+02  0.51100000000E-03 0. -1.
    9900012    2    1    2    0    0 -0.16515474199E+02 -0.18623804516E+02  0.37543394990E+02  0.46142317743E+02  0.99999998342E+01 0.  0.
         12    1    1    2    0    0  0.16515474199E+02  0.18623804516E+02 -0.37543394990E+02  0.45045682257E+02  0.00000000000E+00 0. -1.
         11    1    3    3    0    0 -0.26361524608E+01 -0.86099018945E+01  0.13666869786E+02  0.16366521941E+02  0.51100000000E-03 0.  1.
        -11    1    3    3    0    0 -0.31035185997E+01 -0.27494903388E+01  0.27606239631E+01  0.49812217125E+01  0.51100000000E-03 0. -1.
         12    1    3    3    0    0 -0.10775803138E+02 -0.72644122822E+01  0.21115901241E+02  0.24794574090E+02  0.00000000000E+00 0. -1.
</event>
<event>
 7    1  0.3086024E-009  0.4614232E+02  0.7816164E-02  0.1320468E+00
        -11   -1    0    0    0    0  0.00000000000E+00  0.00000000000E+00  0.45593999997E+02  0.45594000000E+02  0.51100000000E-03 0. -1.
         11   -1    0    0    0    0 -0.00000000000E+00 -0.00000000000E+00 -0.45593999997E+02  0.45594000000E+02  0.51100000000E-03 0.  1.
    9900012    2    1    2    0    0  0.31293570739E+02 -0.30821426590E+02  0.99932760325E+01  0.46142317937E+02  0.10000001608E+02 0.  0.
         12    1    1    2    0    0 -0.31293570739E+02  0.30821426590E+02 -0.99932760325E+01  0.45045682063E+02  0.00000000000E+00 0. -1.
         11    1    3    3    0    0  0.59267208543E+01 -0.92836687416E+01  0.43003876130E+01  0.11823952777E+02  0.51100000000E-03 0. -1.
        -11    1    3    3    0    0  0.15448933272E+02 -0.14884801383E+02  0.63044252729E+01  0.22360067749E+02  0.51100000000E-03 0.  1.
         12    1    3    3    0    0  0.99179166122E+01 -0.66529564657E+01 -0.61153685339E+00  0.11958297412E+02  0.00000000000E+00 0. -1.
</event>
<event>
 7    1  0.3086024E-009  0.4614232E+02  0.7816164E-02  0.1320468E+00
        -11   -1    0    0    0    0  0.00000000000E+00  0.00000000000E+00  0.45593999997E+02  0.45594000000E+02  0.51100000000E-03 0. -1.
         11   -1    0    0    0    0 -0.00000000000E+00 -0.00000000000E+00 -0.45593999997E+02  0.45594000000E+02  0.51100000000E-03 0.  1.
    9900012    2    1    2    0    0 -0.20926744368E+02 -0.86561462513E+01 -0.38939130928E+02  0.46142318574E+02  0.10000007408E+02 0.  0.
         12    1    1    2    0    0  0.20926744368E+02  0.86561462513E+01  0.38939130928E+02  0.45045681426E+02  0.00000000000E+00 0. -1.
         11    1    3    3    0    0 -0.66866346720E+01 -0.19339481955E+00 -0.68137304613E+01  0.95485814577E+01  0.51100000000E-03 0. -1.
        -11    1    3    3    0    0 -0.96639772260E+01 -0.50416054051E+01 -0.26127544257E+02  0.28310047864E+02  0.51100000000E-03 0.  1.
         12    1    3    3    0    0 -0.45761324697E+01 -0.34211460266E+01 -0.59978562098E+01  0.82836892523E+01  0.00000000000E+00 0. -1.
</event>
<event>
 7    1  0.3086024E-009  0.4614232E+02  0.7816164E-02  0.1320468E+00
        -11   -1    0    0    0    0  0.00000000000E+00  0.00000000000E+00  0.45593999997E+02  0.45594000000E+02  0.51100000000E-03 0.  1.
         11   -1    0    0    0    0 -0.00000000000E+00 -0.00000000000E+00 -0.45593999997E+02  0.45594000000E+02  0.51100000000E-03 0. -1.
    9900012    2    1    2    0    0  0.18625144073E+01 -0.44908752487E+02 -0.29746752847E+01  0.46142315380E+02  0.99999782858E+01 0.  0.
         12    1    1    2    0    0 -0.18625144073E+01  0.44908752487E+02  0.29746752847E+01  0.45045684620E+02  0.00000000000E+00 0. -1.
         11    1    3    3    0    0 -0.30261088845E+01 -0.16228787446E+02 -0.15644441897E+01  0.16582471554E+02  0.51100000000E-03 0. -1.
        -11    1    3    3    0    0  0.30851835846E+01 -0.20375585284E+02  0.12763825234E+01  0.20647323944E+02  0.51100000000E-03 0.  1.
         12    1    3    3    0    0  0.18034397071E+01 -0.83043797566E+01 -0.26866136184E+01  0.89125198824E+01  0.00000000000E+00 0. -1.
</event>
<event>
 7    1  0.3086024E-009  0.4614232E+02  0.7816164E-02  0.1320468E+00
        -11   -1    0    0    0    0  0.00000000000E+00  0.00000000000E+00  0.45593999997E+02  0.45594000000E+02  0.51100000000E-03 0.  1.
         11   -1    0    0    0    0 -0.00000000000E+00 -0.00000000000E+00 -0.45593999997E+02  0.45594000000E+02  0.51100000000E-03 0. -1.
    9900012    2    1    2    0    0  0.44423459895E+02 -0.27526387051E+01 -0.69348877297E+01  0.46142317890E+02  0.10000001176E+02 0.  0.
         12    1    1    2    0    0 -0.44423459895E+02  0.27526387051E+01  0.69348877297E+01  0.45045682110E+02  0.00000000000E+00 0. -1.
         11    1    3    3    0    0  0.88803583750E+01 -0.98980964731E+00 -0.34209305575E+01  0.95678238982E+01  0.51100000000E-03 0. -1.
        -11    1    3    3    0    0  0.18306157844E+02 -0.30174909312E+01 -0.50375461938E+01  0.19224919725E+02  0.51100000000E-03 0.  1.
        -12    1    3    3    0    0  0.17236943677E+02  0.12546618735E+01  0.15235890216E+01  0.17349574267E+02  0.00000000000E+00 0.  1.
</event>
<event>
 7    1  0.3086024E-009  0.4614232E+02  0.7816164E-02  0.1320468E+00
        -11   -1    0    0    0    0  0.00000000000E+00  0.00000000000E+00  0.45593999997E+02  0.45594000000E+02  0.51100000000E-03 0. -1.
         11   -1    0    0    0    0 -0.00000000000E+00 -0.00000000000E+00 -0.45593999997E+02  0.45594000000E+02  0.51100000000E-03 0.  1.
    9900012    2    1    2    0    0  0.20626646669E+02 -0.72304271598E+01 -0.39387510414E+02  0.46142316452E+02  0.99999880594E+01 0.  0.
         12    1    1    2    0    0 -0.20626646669E+02  0.72304271598E+01  0.39387510414E+02  0.45045683548E+02  0.00000000000E+00 0. -1.
         11    1    3    3    0    0  0.34771824633E+01 -0.14625196579E+01 -0.11752611662E+02  0.12343161782E+02  0.51100000000E-03 0. -1.
        -11    1    3    3    0    0  0.40865422415E+01  0.14750150673E+01 -0.82842246393E+01  0.93543505962E+01  0.51100000000E-03 0.  1.
        -12    1    3    3    0    0  0.13062921964E+02 -0.72429225693E+01 -0.19350674113E+02  0.24444804074E+02  0.00000000000E+00 0.  1.
</event>
<event>
 7    1  0.3086024E-009  0.4614232E+02  0.7816164E-02  0.1320468E+00
        -11   -1    0    0    0    0  0.00000000000E+00  0.00000000000E+00  0.45593999997E+02  0.45594000000E+02  0.51100000000E-03 0.  1.
         11   -1    0    0    0    0 -0.00000000000E+00 -0.00000000000E+00 -0.45593999997E+02  0.45594000000E+02  0.51100000000E-03 0. -1.
    9900012    2    1    2    0    0 -0.36694981893E+02 -0.24876000408E+02  0.79860101244E+01  0.46142318186E+02  0.10000003871E+02 0.  0.
         12    1    1    2    0    0  0.36694981893E+02  0.24876000408E+02 -0.79860101244E+01  0.45045681814E+02  0.00000000000E+00 0. -1.
         11    1    3    3    0    0 -0.69067124164E+00 -0.18390534987E+01 -0.73747745956E+00  0.20983369128E+01  0.51100000000E-03 0. -1.
        -11    1    3    3    0    0 -0.20375339515E+02 -0.13660923162E+02  0.19803833530E+01  0.24610916287E+02  0.51100000000E-03 0.  1.
        -12    1    3    3    0    0 -0.15628971136E+02 -0.93760237476E+01  0.67431042309E+01  0.19433064986E+02  0.00000000000E+00 0.  1.
</event>
<event>
 7    1  0.3086024E-009  0.4614232E+02  0.7816164E-02  0.1320468E+00
        -11   -1    0    0    0    0  0.00000000000E+00  0.00000000000E+00  0.45593999997E+02  0.45594000000E+02  0.51100000000E-03 0.  1.
         11   -1    0    0    0    0 -0.00000000000E+00 -0.00000000000E+00 -0.45593999997E+02  0.45594000000E+02  0.51100000000E-03 0. -1.
    9900012    2    1    2    0    0 -0.43213031590E+02 -0.12474178009E+02 -0.24783568902E+01  0.46142317975E+02  0.10000001955E+02 0.  0.
         12    1    1    2    0    0  0.43213031590E+02  0.12474178009E+02  0.24783568902E+01  0.45045682025E+02  0.00000000000E+00 0. -1.
         11    1    3    3    0    0 -0.94698179652E+00  0.89638426815E+00  0.25667223310E+00  0.13289695916E+01  0.51100000000E-03 0.  1.
        -11    1    3    3    0    0 -0.13406921983E+02 -0.30832843857E+01 -0.33903083950E+01  0.14168499953E+02  0.51100000000E-03 0. -1.
        -12    1    3    3    0    0 -0.28859127811E+02 -0.10287277891E+02  0.65527927174E+00  0.30644848430E+02  0.00000000000E+00 0.  1.
</event>
<event>
 7    1  0.3086024E-009  0.4614231E+02  0.7816164E-02  0.1320468E+00
        -11   -1    0    0    0    0  0.00000000000E+00  0.00000000000E+00  0.45593999997E+02  0.45594000000E+02  0.51100000000E-03 0.  1.
         11   -1    0    0    0    0 -0.00000000000E+00 -0.00000000000E+00 -0.45593999997E+02  0.45594000000E+02  0.51100000000E-03 0. -1.
    9900012    2    1    2    0    0  0.19416200602E+02 -0.25342624850E+02  0.31778552687E+02  0.46142313292E+02  0.99999592437E+01 0.  0.
         12    1    1    2    0    0 -0.19416200602E+02  0.25342624850E+02 -0.31778552687E+02  0.45045686708E+02  0.00000000000E+00 0. -1.
         11    1    3    3    0    0  0.30508144387E+01 -0.21996737262E+01  0.72565202745E+01  0.81733175636E+01  0.51100000000E-03 0. -1.
        -11    1    3    3    0    0  0.82569857768E+01 -0.97119690308E+01  0.14708359191E+02  0.19463709485E+02  0.51100000000E-03 0.  1.
         12    1    3    3    0    0  0.81084003867E+01 -0.13430982093E+02  0.98136732218E+01  0.18505286243E+02  0.00000000000E+00 0. -1.
</event>
<event>
 7    1  0.3086024E-009  0.4614232E+02  0.7816164E-02  0.1320468E+00
        -11   -1    0    0    0    0  0.00000000000E+00  0.00000000000E+00  0.45593999997E+02  0.45594000000E+02  0.51100000000E-03 0.  1.
         11   -1    0    0    0    0 -0.00000000000E+00 -0.00000000000E+00 -0.45593999997E+02  0.45594000000E+02  0.51100000000E-03 0. -1.
    9900012    2    1    2    0    0 -0.13283680630E+02 -0.34132870707E+02  0.26222211532E+02  0.46142318615E+02  0.10000007790E+02 0.  0.
         12    1    1    2    0    0  0.13283680630E+02  0.34132870707E+02 -0.26222211532E+02  0.45045681385E+02  0.00000000000E+00 0. -1.
         11    1    3    3    0    0 -0.13289879843E+02 -0.28119635415E+02  0.24389273617E+02  0.39524314921E+02  0.51100000000E-03 0. -1.
        -11    1    3    3    0    0  0.12812337879E+00 -0.45056211697E+01  0.22656068271E+01  0.50448005195E+01  0.51100000000E-03 0.  1.
         12    1    3    3    0    0 -0.12192416601E+00 -0.15076141220E+01 -0.43266891211E+00  0.15732031752E+01  0.00000000000E+00 0. -1.
</event>
<event>
 7    1  0.3086024E-009  0.4614232E+02  0.7816164E-02  0.1320468E+00
        -11   -1    0    0    0    0  0.00000000000E+00  0.00000000000E+00  0.45593999997E+02  0.45594000000E+02  0.51100000000E-03 0. -1.
         11   -1    0    0    0    0 -0.00000000000E+00 -0.00000000000E+00 -0.45593999997E+02  0.45594000000E+02  0.51100000000E-03 0.  1.
    9900012    2    1    2    0    0  0.58281659515E+01  0.40233140858E+02 -0.19402069581E+02  0.46142318235E+02  0.10000004325E+02 0.  0.
         12    1    1    2    0    0 -0.58281659515E+01 -0.40233140858E+02  0.19402069581E+02  0.45045681765E+02  0.00000000000E+00 0. -1.
         11    1    3    3    0    0  0.34480909795E+00  0.51239003560E-01  0.12914412016E+00  0.37174885932E+00  0.51100000000E-03 0. -1.
        -11    1    3    3    0    0  0.76721455639E+01  0.33014595442E+02 -0.15698788234E+02  0.37353410581E+02  0.51100000000E-03 0.  1.
        -12    1    3    3    0    0 -0.21887887103E+01  0.71673064122E+01 -0.38324254667E+01  0.84171587951E+01  0.00000000000E+00 0.  1.
</event>
<event>
 7    1  0.3086024E-009  0.4614232E+02  0.7816164E-02  0.1320468E+00
        -11   -1    0    0    0    0  0.00000000000E+00  0.00000000000E+00  0.45593999997E+02  0.45594000000E+02  0.51100000000E-03 0. -1.
         11   -1    0    0    0    0 -0.00000000000E+00 -0.00000000000E+00 -0.45593999997E+02  0.45594000000E+02  0.51100000000E-03 0.  1.
    9900012    2    1    2    0    0 -0.35722199968E+02 -0.17337852434E+02 -0.21270560212E+02  0.46142318416E+02  0.10000005974E+02 0.  0.
         12    1    1    2    0    0  0.35722199968E+02  0.17337852434E+02  0.21270560212E+02  0.45045681584E+02  0.00000000000E+00 0. -1.
         11    1    3    3    0    0 -0.97888372211E+01 -0.18838228803E+01 -0.52938648517E+01  0.11286945030E+02  0.51100000000E-03 0. -1.
        -11    1    3    3    0    0 -0.43087752081E+01 -0.25630661966E+00 -0.84123291494E+00  0.43976027510E+01  0.51100000000E-03 0.  1.
        -12    1    3    3    0    0 -0.21624587539E+02 -0.15197722934E+02 -0.15135462446E+02  0.30457770635E+02  0.00000000000E+00 0.  1.
</event>
<event>
 7    1  0.3086024E-009  0.4614232E+02  0.7816164E-02  0.1320468E+00
        -11   -1    0    0    0    0  0.00000000000E+00  0.00000000000E+00  0.45593999997E+02  0.45594000000E+02  0.51100000000E-03 0. -1.
         11   -1    0    0    0    0 -0.00000000000E+00 -0.00000000000E+00 -0.45593999997E+02  0.45594000000E+02  0.51100000000E-03 0.  1.
    9900012    2    1    2    0    0 -0.15385361707E+02 -0.41698679877E+02  0.73228573849E+01  0.46142317647E+02  0.99999989612E+01 0.  0.
         12    1    1    2    0    0  0.15385361707E+02  0.41698679877E+02 -0.73228573849E+01  0.45045682353E+02  0.00000000000E+00 0. -1.
         11    1    3    3    0    0 -0.51956855973E+01 -0.89253719167E+01  0.10874248030E+01  0.10384599445E+02  0.51100000000E-03 0. -1.
        -11    1    3    3    0    0 -0.49093607683E+01 -0.22763416064E+02  0.10536868634E+01  0.23310623980E+02  0.51100000000E-03 0.  1.
        -12    1    3    3    0    0 -0.52803153415E+01 -0.10009891896E+02  0.51817457185E+01  0.12447094222E+02  0.00000000000E+00 0.  1.
</event>
<event>
 7    1  0.3086024E-009  0.4614232E+02  0.7816164E-02  0.1320468E+00
        -11   -1    0    0    0    0  0.00000000000E+00  0.00000000000E+00  0.45593999997E+02  0.45594000000E+02  0.51100000000E-03 0.  1.
         11   -1    0    0    0    0 -0.00000000000E+00 -0.00000000000E+00 -0.45593999997E+02  0.45594000000E+02  0.51100000000E-03 0. -1.
    9900012    2    1    2    0    0 -0.24428267591E+02  0.63010750881E+01  0.37318490459E+02  0.46142317245E+02  0.99999952934E+01 0.  0.
         12    1    1    2    0    0  0.24428267591E+02 -0.63010750881E+01 -0.37318490459E+02  0.45045682755E+02  0.00000000000E+00 0. -1.
         11    1    3    3    0    0 -0.10585170147E+02  0.20258404820E+01  0.11241886204E+02  0.15573370297E+02  0.51100000000E-03 0. -1.
        -11    1    3    3    0    0 -0.48663737883E+01  0.49512685908E+01  0.11824297013E+02  0.13711697730E+02  0.51100000000E-03 0.  1.
        -12    1    3    3    0    0 -0.89767236552E+01 -0.67603398473E+00  0.14252307241E+02  0.16857249219E+02  0.00000000000E+00 0.  1.
</event>
<event>
 7    1  0.3086024E-009  0.4614232E+02  0.7816164E-02  0.1320468E+00
        -11   -1    0    0    0    0  0.00000000000E+00  0.00000000000E+00  0.45593999997E+02  0.45594000000E+02  0.51100000000E-03 0. -1.
         11   -1    0    0    0    0 -0.00000000000E+00 -0.00000000000E+00 -0.45593999997E+02  0.45594000000E+02  0.51100000000E-03 0.  1.
    9900012    2    1    2    0    0 -0.39711133097E+02  0.20225999377E+02  0.65611246290E+01  0.46142317643E+02  0.99999989218E+01 0.  0.
         12    1    1    2    0    0  0.39711133097E+02 -0.20225999377E+02 -0.65611246290E+01  0.45045682357E+02  0.00000000000E+00 0. -1.
         11    1    3    3    0    0 -0.27587137433E+02  0.15164640712E+02  0.52392849007E+01  0.31913423292E+02  0.51100000000E-03 0.  1.
        -11    1    3    3    0    0 -0.15768686130E+01  0.23583650945E+01 -0.11544565682E+01  0.30628696953E+01  0.51100000000E-03 0. -1.
        -12    1    3    3    0    0 -0.10547127050E+02  0.27029935705E+01  0.24762962964E+01  0.11166024656E+02  0.00000000000E+00 0.  1.
</event>
<event>
 7    1  0.3086024E-009  0.4614231E+02  0.7816164E-02  0.1320468E+00
        -11   -1    0    0    0    0  0.00000000000E+00  0.00000000000E+00  0.45593999997E+02  0.45594000000E+02  0.51100000000E-03 0.  1.
         11   -1    0    0    0    0 -0.00000000000E+00 -0.00000000000E+00 -0.45593999997E+02  0.45594000000E+02  0.51100000000E-03 0. -1.
    9900012    2    1    2    0    0  0.10516006849E+02  0.40161894812E+02  0.17479975857E+02  0.46142314847E+02  0.99999734284E+01 0.  0.
         12    1    1    2    0    0 -0.10516006849E+02 -0.40161894812E+02 -0.17479975857E+02  0.45045685153E+02  0.00000000000E+00 0. -1.
         11    1    3    3    0    0  0.18600380302E+01  0.40904402011E+01 -0.11085919236E+01  0.46282198335E+01  0.51100000000E-03 0. -1.
        -11    1    3    3    0    0  0.42011911767E+01  0.15002474831E+02  0.81554984964E+01  0.17585119117E+02  0.51100000000E-03 0.  1.
         12    1    3    3    0    0  0.44547776422E+01  0.21068979779E+02  0.10433069284E+02  0.23928975897E+02  0.00000000000E+00 0. -1.
</event>
<event>
 7    1  0.3086024E-009  0.4614232E+02  0.7816164E-02  0.1320468E+00
        -11   -1    0    0    0    0  0.00000000000E+00  0.00000000000E+00  0.45593999997E+02  0.45594000000E+02  0.51100000000E-03 0.  1.
         11   -1    0    0    0    0 -0.00000000000E+00 -0.00000000000E+00 -0.45593999997E+02  0.45594000000E+02  0.51100000000E-03 0. -1.
    9900012    2    1    2    0    0  0.79677974524E+01 -0.43731127859E+01  0.44119196916E+02  0.46142318207E+02  0.10000004066E+02 0.  0.
         12    1    1    2    0    0 -0.79677974524E+01  0.43731127859E+01 -0.44119196916E+02  0.45045681793E+02  0.00000000000E+00 0. -1.
         11    1    3    3    0    0  0.57118944981E+01 -0.22058270956E+01  0.13044619926E+02  0.14410188104E+02  0.51100000000E-03 0. -1.
        -11    1    3    3    0    0  0.32734811638E+01 -0.27172284722E+01  0.29342750902E+02  0.29649553796E+02  0.51100000000E-03 0.  1.
         12    1    3    3    0    0 -0.10175782095E+01  0.54994278194E+00  0.17318260882E+01  0.20825763073E+01  0.00000000000E+00 0. -1.
</event>
<event>
 7    1  0.3086024E-009  0.4614232E+02  0.7816164E-02  0.1320468E+00
        -11   -1    0    0    0    0  0.00000000000E+00  0.00000000000E+00  0.45593999997E+02  0.45594000000E+02  0.51100000000E-03 0. -1.
         11   -1    0    0    0    0 -0.00000000000E+00 -0.00000000000E+00 -0.45593999997E+02  0.45594000000E+02  0.51100000000E-03 0.  1.
    9900012    2    1    2    0    0  0.39063234401E+01 -0.41057960870E+02 -0.18113474257E+02  0.46142318040E+02  0.10000002542E+02 0.  0.
         12    1    1    2    0    0 -0.39063234401E+01  0.41057960870E+02  0.18113474257E+02  0.45045681960E+02  0.00000000000E+00 0. -1.
         11    1    3    3    0    0 -0.59908969668E+00 -0.12684496789E+02 -0.22960853737E+01  0.12904548638E+02  0.51100000000E-03 0. -1.
        -11    1    3    3    0    0  0.33537903471E+01 -0.16560619111E+02 -0.63320229428E+01  0.18044293554E+02  0.51100000000E-03 0.  1.
        -12    1    3    3    0    0  0.11516227896E+01 -0.11812844970E+02 -0.94853659403E+01  0.15193475848E+02  0.00000000000E+00 0.  1.
</event>
<event>
 7    1  0.3086024E-009  0.4614232E+02  0.7816164E-02  0.1320468E+00
        -11   -1    0    0    0    0  0.00000000000E+00  0.00000000000E+00  0.45593999997E+02  0.45594000000E+02  0.51100000000E-03 0. -1.
         11   -1    0    0    0    0 -0.00000000000E+00 -0.00000000000E+00 -0.45593999997E+02  0.45594000000E+02  0.51100000000E-03 0.  1.
    9900012    2    1    2    0    0  0.15145167593E+02  0.10621453301E+02 -0.41072157391E+02  0.46142317805E+02  0.10000000400E+02 0.  0.
         12    1    1    2    0    0 -0.15145167593E+02 -0.10621453301E+02  0.41072157391E+02  0.45045682195E+02  0.00000000000E+00 0. -1.
         11    1    3    3    0    0  0.90056608992E+01  0.78707148215E+01 -0.19175807441E+02  0.22600036976E+02  0.51100000000E-03 0. -1.
        -11    1    3    3    0    0 -0.10716931965E-01  0.32105458727E+00  0.26433282635E+00  0.41600841920E+00  0.51100000000E-03 0.  1.
        -12    1    3    3    0    0  0.61502236261E+01  0.24296838921E+01 -0.22160682776E+02  0.23126272410E+02  0.00000000000E+00 0.  1.
</event>
<event>
 7    1  0.3086024E-009  0.4614232E+02  0.7816164E-02  0.1320468E+00
        -11   -1    0    0    0    0  0.00000000000E+00  0.00000000000E+00  0.45593999997E+02  0.45594000000E+02  0.51100000000E-03 0.  1.
         11   -1    0    0    0    0 -0.00000000000E+00 -0.00000000000E+00 -0.45593999997E+02  0.45594000000E+02  0.51100000000E-03 0. -1.
    9900012    2    1    2    0    0 -0.41198811212E+02  0.13152218991E+02  0.12601214125E+02  0.46142317553E+02  0.99999981024E+01 0.  0.
         12    1    1    2    0    0  0.41198811212E+02 -0.13152218991E+02 -0.12601214125E+02  0.45045682447E+02  0.00000000000E+00 0. -1.
         11    1    3    3    0    0 -0.15582410706E+02  0.19317632548E+01  0.62306155088E+01  0.16892714482E+02  0.51100000000E-03 0. -1.
        -11    1    3    3    0    0 -0.16298562528E+02  0.45189311514E+01  0.22871816095E+01  0.17067368843E+02  0.51100000000E-03 0.  1.
         12    1    3    3    0    0 -0.93178379779E+01  0.67015245851E+01  0.40834170065E+01  0.12182234228E+02  0.00000000000E+00 0. -1.
</event>
<event>
 7    1  0.3086024E-009  0.4614232E+02  0.7816164E-02  0.1320468E+00
        -11   -1    0    0    0    0  0.00000000000E+00  0.00000000000E+00  0.45593999997E+02  0.45594000000E+02  0.51100000000E-03 0.  1.
         11   -1    0    0    0    0 -0.00000000000E+00 -0.00000000000E+00 -0.45593999997E+02  0.45594000000E+02  0.51100000000E-03 0. -1.
    9900012    2    1    2    0    0 -0.12754771130E+02 -0.12285445466E+01  0.43184720230E+02  0.46142316860E+02  0.99999917792E+01 0.  0.
         12    1    1    2    0    0  0.12754771130E+02  0.12285445466E+01 -0.43184720230E+02  0.45045683140E+02  0.00000000000E+00 0. -1.
         11    1    3    3    0    0 -0.15689427271E+00 -0.30081441136E+01  0.66150426325E+01  0.72685855648E+01  0.51100000000E-03 0. -1.
        -11    1    3    3    0    0 -0.58072560754E+01  0.20001651079E+01  0.13649539777E+02  0.14967792755E+02  0.51100000000E-03 0.  1.
         12    1    3    3    0    0 -0.67906207816E+01 -0.22056554086E+00  0.22920137820E+02  0.23905938539E+02  0.00000000000E+00 0. -1.
</event>
<event>
 7    1  0.3086024E-009  0.4614232E+02  0.7816164E-02  0.1320468E+00
        -11   -1    0    0    0    0  0.00000000000E+00  0.00000000000E+00  0.45593999997E+02  0.45594000000E+02  0.51100000000E-03 0. -1.
         11   -1    0    0    0    0 -0.00000000000E+00 -0.00000000000E+00 -0.45593999997E+02  0.45594000000E+02  0.51100000000E-03 0.  1.
    9900012    2    1    2    0    0 -0.10884255384E+02  0.26521081678E+02 -0.34745914468E+02  0.46142319177E+02  0.10000012908E+02 0.  0.
         12    1    1    2    0    0  0.10884255384E+02 -0.26521081678E+02  0.34745914468E+02  0.45045680823E+02  0.00000000000E+00 0. -1.
         11    1    3    3    0    0  0.55969697448E+00  0.65687947542E+00 -0.76424994412E+00  0.11527487092E+01  0.51100000000E-03 0. -1.
        -11    1    3    3    0    0 -0.12545177946E+01  0.93773370008E+01 -0.15793669063E+02  0.18410547164E+02  0.51100000000E-03 0.  1.
        -12    1    3    3    0    0 -0.10189434563E+02  0.16486865202E+02 -0.18187995460E+02  0.26579023304E+02  0.00000000000E+00 0.  1.
</event>
<event>
 7    1  0.3086024E-009  0.4614232E+02  0.7816164E-02  0.1320468E+00
        -11   -1    0    0    0    0  0.00000000000E+00  0.00000000000E+00  0.45593999997E+02  0.45594000000E+02  0.51100000000E-03 0.  1.
         11   -1    0    0    0    0 -0.00000000000E+00 -0.00000000000E+00 -0.45593999997E+02  0.45594000000E+02  0.51100000000E-03 0. -1.
    9900012    2    1    2    0    0  0.42145679976E+02  0.84311301007E+01 -0.13482255308E+02  0.46142317592E+02  0.99999984619E+01 0.  0.
         12    1    1    2    0    0 -0.42145679976E+02 -0.84311301007E+01  0.13482255308E+02  0.45045682408E+02  0.00000000000E+00 0. -1.
         11    1    3    3    0    0  0.45459064879E+01  0.12614531985E+01 -0.22474042952E-01  0.47177362487E+01  0.51100000000E-03 0. -1.
        -11    1    3    3    0    0  0.11350084275E+02 -0.15686877205E+01 -0.49297168298E+01  0.12473463933E+02  0.51100000000E-03 0.  1.
        -12    1    3    3    0    0  0.26249689213E+02  0.87383646227E+01 -0.85300644351E+01  0.28951117411E+02  0.00000000000E+00 0.  1.
</event>
<event>
 7    1  0.3086024E-009  0.4614232E+02  0.7816164E-02  0.1320468E+00
        -11   -1    0    0    0    0  0.00000000000E+00  0.00000000000E+00  0.45593999997E+02  0.45594000000E+02  0.51100000000E-03 0. -1.
         11   -1    0    0    0    0 -0.00000000000E+00 -0.00000000000E+00 -0.45593999997E+02  0.45594000000E+02  0.51100000000E-03 0.  1.
    9900012    2    1    2    0    0  0.13202713240E+02 -0.42939693349E+02 -0.33142986815E+01  0.46142317881E+02  0.10000001096E+02 0.  0.
         12    1    1    2    0    0 -0.13202713240E+02  0.42939693349E+02  0.33142986815E+01  0.45045682119E+02  0.00000000000E+00 0. -1.
         11    1    3    3    0    0  0.48503542328E+00 -0.10605878639E+02  0.91947015776E+00  0.10656704307E+02  0.51100000000E-03 0. -1.
        -11    1    3    3    0    0  0.12208954693E+02 -0.27018630723E+02 -0.20596635081E+01  0.29720484432E+02  0.51100000000E-03 0.  1.
         12    1    3    3    0    0  0.50872312336E+00 -0.53151839871E+01 -0.21741053311E+01  0.57651291420E+01  0.00000000000E+00 0. -1.
</event>
<event>
 7    1  0.3086024E-009  0.4614232E+02  0.7816164E-02  0.1320468E+00
        -11   -1    0    0    0    0  0.00000000000E+00  0.00000000000E+00  0.45593999997E+02  0.45594000000E+02  0.51100000000E-03 0. -1.
         11   -1    0    0    0    0 -0.00000000000E+00 -0.00000000000E+00 -0.45593999997E+02  0.45594000000E+02  0.51100000000E-03 0.  1.
    9900012    2    1    2    0    0 -0.35917046820E+02 -0.10000334561E+02  0.25279885114E+02  0.46142317244E+02  0.99999952845E+01 0.  0.
         12    1    1    2    0    0  0.35917046820E+02  0.10000334561E+02 -0.25279885114E+02  0.45045682756E+02  0.00000000000E+00 0. -1.
         11    1    3    3    0    0 -0.14713756942E+02 -0.51366816830E+01  0.81019034181E+01  0.17564765336E+02  0.51100000000E-03 0. -1.
        -11    1    3    3    0    0 -0.96670779512E+00 -0.58652175241E+00  0.37515080910E+01  0.39182068533E+01  0.51100000000E-03 0.  1.
        -12    1    3    3    0    0 -0.20236582083E+02 -0.42771311252E+01  0.13426473605E+02  0.24659345055E+02  0.00000000000E+00 0.  1.
</event>
<event>
 7    1  0.3086024E-009  0.4614232E+02  0.7816164E-02  0.1320468E+00
        -11   -1    0    0    0    0  0.00000000000E+00  0.00000000000E+00  0.45593999997E+02  0.45594000000E+02  0.51100000000E-03 0.  1.
         11   -1    0    0    0    0 -0.00000000000E+00 -0.00000000000E+00 -0.45593999997E+02  0.45594000000E+02  0.51100000000E-03 0. -1.
    9900012    2    1    2    0    0  0.12982292583E+02  0.51244069638E+01  0.42828891527E+02  0.46142318555E+02  0.10000007239E+02 0.  0.
         12    1    1    2    0    0 -0.12982292583E+02 -0.51244069638E+01 -0.42828891527E+02  0.45045681445E+02  0.00000000000E+00 0. -1.
         11    1    3    3    0    0  0.21143001419E+01 -0.79690543542E+00  0.16669230257E+02  0.16821669387E+02  0.51100000000E-03 0. -1.
        -11    1    3    3    0    0  0.17800063517E+01  0.10843648825E+01  0.95844935732E+01  0.98085058560E+01  0.51100000000E-03 0.  1.
         12    1    3    3    0    0  0.90879860893E+01  0.48369475168E+01  0.16575167697E+02  0.19512143312E+02  0.00000000000E+00 0. -1.
</event>
<event>
 7    1  0.3086024E-009  0.4614232E+02  0.7816164E-02  0.1320468E+00
        -11   -1    0    0    0    0  0.00000000000E+00  0.00000000000E+00  0.45593999997E+02  0.45594000000E+02  0.51100000000E-03 0.  1.
         11   -1    0    0    0    0 -0.00000000000E+00 -0.00000000000E+00 -0.45593999997E+02  0.45594000000E+02  0.51100000000E-03 0. -1.
    9900012    2    1    2    0    0  0.14440352342E+02  0.22140296826E+02  0.36474605276E+02  0.46142319304E+02  0.10000014073E+02 0.  0.
         12    1    1    2    0    0 -0.14440352342E+02 -0.22140296826E+02 -0.36474605276E+02  0.45045680696E+02  0.00000000000E+00 0. -1.
         11    1    3    3    0    0  0.94640274560E+01  0.11787256314E+02  0.22786124688E+02  0.27344372468E+02  0.51100000000E-03 0. -1.
        -11    1    3    3    0    0  0.43759155643E+01  0.60400744212E+01  0.11996728240E+02  0.14126309665E+02  0.51100000000E-03 0.  1.
         12    1    3    3    0    0  0.60040932125E+00  0.43129660902E+01  0.16917523479E+01  0.46716371707E+01  0.00000000000E+00 0. -1.
</event>
<event>
 7    1  0.3086024E-009  0.4614232E+02  0.7816164E-02  0.1320468E+00
        -11   -1    0    0    0    0  0.00000000000E+00  0.00000000000E+00  0.45593999997E+02  0.45594000000E+02  0.51100000000E-03 0. -1.
         11   -1    0    0    0    0 -0.00000000000E+00 -0.00000000000E+00 -0.45593999997E+02  0.45594000000E+02  0.51100000000E-03 0.  1.
    9900012    2    1    2    0    0 -0.25323937732E+02 -0.32182151847E+02  0.18764879530E+02  0.46142318480E+02  0.10000006558E+02 0.  0.
         12    1    1    2    0    0  0.25323937732E+02  0.32182151847E+02 -0.18764879530E+02  0.45045681520E+02  0.00000000000E+00 0. -1.
         11    1    3    3    0    0 -0.16580210869E+01 -0.52340672214E+01  0.51370014480E+01  0.75188614657E+01  0.51100000000E-03 0. -1.
        -11    1    3    3    0    0 -0.12637421235E+02 -0.11678114575E+02  0.51011662903E+01  0.17947274815E+02  0.51100000000E-03 0.  1.
         12    1    3    3    0    0 -0.11028495410E+02 -0.15269970051E+02  0.85267117918E+01  0.20676182199E+02  0.00000000000E+00 0. -1.
</event>
<event>
 7    1  0.3086024E-009  0.4614232E+02  0.7816164E-02  0.1320468E+00
        -11   -1    0    0    0    0  0.00000000000E+00  0.00000000000E+00  0.45593999997E+02  0.45594000000E+02  0.51100000000E-03 0.  1.
         11   -1    0    0    0    0 -0.00000000000E+00 -0.00000000000E+00 -0.45593999997E+02  0.45594000000E+02  0.51100000000E-03 0. -1.
    9900012    2    1    2    0    0  0.31447733258E+02  0.51170831234E+01  0.31842879548E+02  0.46142318247E+02  0.10000004428E+02 0.  0.
         12    1    1    2    0    0 -0.31447733258E+02 -0.51170831234E+01 -0.31842879548E+02  0.45045681753E+02  0.00000000000E+00 0. -1.
         11    1    3    3    0    0  0.22907067171E+02  0.21028851395E+01  0.18867879525E+02  0.29751516437E+02  0.51100000000E-03 0. -1.
        -11    1    3    3    0    0  0.54741366755E+01  0.20347829759E+01  0.11395947742E+02  0.12805238745E+02  0.51100000000E-03 0.  1.
        -12    1    3    3    0    0  0.30665294114E+01  0.97941500804E+00  0.15790522800E+01  0.35855630648E+01  0.00000000000E+00 0.  1.
</event>
<event>
 7    1  0.3086024E-009  0.4614232E+02  0.7816164E-02  0.1320468E+00
        -11   -1    0    0    0    0  0.00000000000E+00  0.00000000000E+00  0.45593999997E+02  0.45594000000E+02  0.51100000000E-03 0. -1.
         11   -1    0    0    0    0 -0.00000000000E+00 -0.00000000000E+00 -0.45593999997E+02  0.45594000000E+02  0.51100000000E-03 0.  1.
    9900012    2    1    2    0    0 -0.84537821831E+01  0.19649977269E+02 -0.39642471147E+02  0.46142316982E+02  0.99999928993E+01 0.  0.
         12    1    1    2    0    0  0.84537821831E+01 -0.19649977269E+02  0.39642471147E+02  0.45045683018E+02  0.00000000000E+00 0. -1.
         11    1    3    3    0    0  0.85355883461E+00  0.19820544261E+01 -0.20166637188E+01  0.29536477867E+01  0.51100000000E-03 0. -1.
        -11    1    3    3    0    0 -0.54755334271E+01  0.44809706912E+01 -0.90768309167E+01  0.11508667360E+02  0.51100000000E-03 0.  1.
        -12    1    3    3    0    0 -0.38318075906E+01  0.13186952152E+02 -0.28548976512E+02  0.31680001836E+02  0.00000000000E+00 0.  1.
</event>
<event>
 7    1  0.3086024E-009  0.4614232E+02  0.7816164E-02  0.1320468E+00
        -11   -1    0    0    0    0  0.00000000000E+00  0.00000000000E+00  0.45593999997E+02  0.45594000000E+02  0.51100000000E-03 0.  1.
         11   -1    0    0    0    0 -0.00000000000E+00 -0.00000000000E+00 -0.45593999997E+02  0.45594000000E+02  0.51100000000E-03 0. -1.
    9900012    2    1    2    0    0 -0.72650583154E+01  0.36431983954E+02  0.25476321567E+02  0.46142317768E+02  0.10000000063E+02 0.  0.
         12    1    1    2    0    0  0.72650583154E+01 -0.36431983954E+02 -0.25476321567E+02  0.45045682232E+02  0.00000000000E+00 0. -1.
         11    1    3    3    0    0 -0.49279429937E+01  0.13499040235E+02  0.56573139203E+01  0.15443895573E+02  0.51100000000E-03 0. -1.
        -11    1    3    3    0    0 -0.33960774718E+01  0.15770944312E+02  0.14763234779E+02  0.21867993234E+02  0.51100000000E-03 0.  1.
         12    1    3    3    0    0  0.10589621502E+01  0.71619994065E+01  0.50557728682E+01  0.88304289607E+01  0.00000000000E+00 0. -1.
</event>
<event>
 7    1  0.3086024E-009  0.4614232E+02  0.7816164E-02  0.1320468E+00
        -11   -1    0    0    0    0  0.00000000000E+00  0.00000000000E+00  0.45593999997E+02  0.45594000000E+02  0.51100000000E-03 0.  1.
         11   -1    0    0    0    0 -0.00000000000E+00 -0.00000000000E+00 -0.45593999997E+02  0.45594000000E+02  0.51100000000E-03 0. -1.
    9900012    2    1    2    0    0  0.44162390668E+02 -0.80714465151E+01 -0.36944045067E+01  0.46142316267E+02  0.99999863732E+01 0.  0.
         12    1    1    2    0    0 -0.44162390668E+02  0.80714465151E+01  0.36944045067E+01  0.45045683733E+02  0.00000000000E+00 0. -1.
         11    1    3    3    0    0  0.13284950449E+02  0.13774357735E+01 -0.20261194952E+01  0.13508974728E+02  0.51100000000E-03 0. -1.
        -11    1    3    3    0    0  0.76744760751E+01 -0.36622124530E+01  0.10398164567E+01  0.85668314797E+01  0.51100000000E-03 0.  1.
        -12    1    3    3    0    0  0.23202964144E+02 -0.57866698356E+01 -0.27081014682E+01  0.24066510059E+02  0.00000000000E+00 0.  1.
</event>
<event>
 7    1  0.3086024E-009  0.4614232E+02  0.7816164E-02  0.1320468E+00
        -11   -1    0    0    0    0  0.00000000000E+00  0.00000000000E+00  0.45593999997E+02  0.45594000000E+02  0.51100000000E-03 0.  1.
         11   -1    0    0    0    0 -0.00000000000E+00 -0.00000000000E+00 -0.45593999997E+02  0.45594000000E+02  0.51100000000E-03 0. -1.
    9900012    2    1    2    0    0 -0.14657721796E+02  0.24809713834E+02  0.34622861636E+02  0.46142320333E+02  0.10000023455E+02 0.  0.
         12    1    1    2    0    0  0.14657721796E+02 -0.24809713834E+02 -0.34622861636E+02  0.45045679667E+02  0.00000000000E+00 0. -1.
         11    1    3    3    0    0  0.80636280636E+00  0.44518790138E+01  0.74022431472E+01  0.86754049819E+01  0.51100000000E-03 0. -1.
        -11    1    3    3    0    0 -0.49474520539E+01  0.74061583073E+01  0.11478476783E+02  0.14528726449E+02  0.51100000000E-03 0.  1.
         12    1    3    3    0    0 -0.10516632548E+02  0.12951676513E+02  0.15742141706E+02  0.22938188902E+02  0.00000000000E+00 0. -1.
</event>
<event>
 7    1  0.3086024E-009  0.4614232E+02  0.7816164E-02  0.1320468E+00
        -11   -1    0    0    0    0  0.00000000000E+00  0.00000000000E+00  0.45593999997E+02  0.45594000000E+02  0.51100000000E-03 0.  1.
         11   -1    0    0    0    0 -0.00000000000E+00 -0.00000000000E+00 -0.45593999997E+02  0.45594000000E+02  0.51100000000E-03 0. -1.
    9900012    2    1    2    0    0  0.71412659077E+01 -0.20271756297E+02  0.39587519111E+02  0.46142318170E+02  0.10000003731E+02 0.  0.
         12    1    1    2    0    0 -0.71412659077E+01  0.20271756297E+02 -0.39587519111E+02  0.45045681830E+02  0.00000000000E+00 0. -1.
         11    1    3    3    0    0  0.17413511768E+01 -0.78485259047E+00  0.35701567504E+01  0.40489896262E+01  0.51100000000E-03 0. -1.
        -11    1    3    3    0    0  0.14052783717E+01 -0.77378441198E+01  0.22044947535E+02  0.23405741838E+02  0.51100000000E-03 0.  1.
         12    1    3    3    0    0  0.39946363591E+01 -0.11749059587E+02  0.13972414826E+02  0.18687586706E+02  0.00000000000E+00 0. -1.
</event>
<event>
 7    1  0.3086024E-009  0.4614232E+02  0.7816164E-02  0.1320468E+00
        -11   -1    0    0    0    0  0.00000000000E+00  0.00000000000E+00  0.45593999997E+02  0.45594000000E+02  0.51100000000E-03 0. -1.
         11   -1    0    0    0    0 -0.00000000000E+00 -0.00000000000E+00 -0.45593999997E+02  0.45594000000E+02  0.51100000000E-03 0.  1.
    9900012    2    1    2    0    0 -0.39407414508E+02  0.14278849566E+02 -0.16501011507E+02  0.46142320475E+02  0.10000024743E+02 0.  0.
         12    1    1    2    0    0  0.39407414508E+02 -0.14278849566E+02  0.16501011507E+02  0.45045679525E+02  0.00000000000E+00 0. -1.
         11    1    3    3    0    0 -0.12080390757E+02  0.67625911505E+01 -0.42336969683E+01  0.14477315711E+02  0.51100000000E-03 0. -1.
        -11    1    3    3    0    0 -0.38875850057E+01 -0.11395660398E+01 -0.28916199873E+01  0.49772878506E+01  0.51100000000E-03 0.  1.
        -12    1    3    3    0    0 -0.23439438746E+02  0.86558244553E+01 -0.93756945515E+01  0.26687716913E+02  0.00000000000E+00 0.  1.
</event>
<event>
 7    1  0.3086024E-009  0.4614232E+02  0.7816164E-02  0.1320468E+00
        -11   -1    0    0    0    0  0.00000000000E+00  0.00000000000E+00  0.45593999997E+02  0.45594000000E+02  0.51100000000E-03 0. -1.
         11   -1    0    0    0    0 -0.00000000000E+00 -0.00000000000E+00 -0.45593999997E+02  0.45594000000E+02  0.51100000000E-03 0.  1.
    9900012    2    1    2    0    0 -0.33285035008E+02 -0.28644920613E+02 -0.10034359538E+02  0.46142318701E+02  0.10000008571E+02 0.  0.
         12    1    1    2    0    0  0.33285035008E+02  0.28644920613E+02  0.10034359538E+02  0.45045681299E+02  0.00000000000E+00 0. -1.
         11    1    3    3    0    0 -0.10592316291E+01  0.17684898385E+00  0.83694459423E+00  0.13615152302E+01  0.51100000000E-03 0. -1.
        -11    1    3    3    0    0 -0.97159857140E+01 -0.68058296412E+01 -0.16843920443E+01  0.11981522120E+02  0.51100000000E-03 0.  1.
         12    1    3    3    0    0 -0.22509817664E+02 -0.22015939955E+02 -0.91869120876E+01  0.32799281350E+02  0.00000000000E+00 0. -1.
</event>
<event>
 7    1  0.3086024E-009  0.4614232E+02  0.7816164E-02  0.1320468E+00
        -11   -1    0    0    0    0  0.00000000000E+00  0.00000000000E+00  0.45593999997E+02  0.45594000000E+02  0.51100000000E-03 0.  1.
         11   -1    0    0    0    0 -0.00000000000E+00 -0.00000000000E+00 -0.45593999997E+02  0.45594000000E+02  0.51100000000E-03 0. -1.
    9900012    2    1    2    0    0 -0.14457099600E+02 -0.40839880511E+02  0.12337330865E+02  0.46142319831E+02  0.10000018872E+02 0.  0.
         12    1    1    2    0    0  0.14457099600E+02  0.40839880511E+02 -0.12337330865E+02  0.45045680169E+02  0.00000000000E+00 0. -1.
         11    1    3    3    0    0 -0.54317745679E+01 -0.89678702338E+01  0.23404637913E+01  0.10742655282E+02  0.51100000000E-03 0. -1.
        -11    1    3    3    0    0 -0.30778574046E+01 -0.41144059717E+01  0.36733987009E+01  0.63162806287E+01  0.51100000000E-03 0.  1.
        -12    1    3    3    0    0 -0.59474676280E+01 -0.27757604306E+02  0.63234683731E+01  0.29083383920E+02  0.00000000000E+00 0.  1.
</event>
<event>
 7    1  0.3086024E-009  0.4614232E+02  0.7816164E-02  0.1320468E+00
        -11   -1    0    0    0    0  0.00000000000E+00  0.00000000000E+00  0.45593999997E+02  0.45594000000E+02  0.51100000000E-03 0.  1.
         11   -1    0    0    0    0 -0.00000000000E+00 -0.00000000000E+00 -0.45593999997E+02  0.45594000000E+02  0.51100000000E-03 0. -1.
    9900012    2    1    2    0    0  0.99701412371E+01 -0.28390405162E+02  0.33521555564E+02  0.46142317532E+02  0.99999979104E+01 0.  0.
         12    1    1    2    0    0 -0.99701412371E+01  0.28390405162E+02 -0.33521555564E+02  0.45045682468E+02  0.00000000000E+00 0. -1.
         11    1    3    3    0    0  0.62245725296E+01 -0.15664864378E+02  0.19904721985E+02  0.26083160022E+02  0.51100000000E-03 0. -1.
        -11    1    3    3    0    0  0.29843494626E+01 -0.69008179127E+01  0.11647989308E+02  0.13863739927E+02  0.51100000000E-03 0.  1.
         12    1    3    3    0    0  0.76121924488E+00 -0.58247228712E+01  0.19688442712E+01  0.61954175832E+01  0.00000000000E+00 0. -1.
</event>
<event>
 7    1  0.3086024E-009  0.4614232E+02  0.7816164E-02  0.1320468E+00
        -11   -1    0    0    0    0  0.00000000000E+00  0.00000000000E+00  0.45593999997E+02  0.45594000000E+02  0.51100000000E-03 0.  1.
         11   -1    0    0    0    0 -0.00000000000E+00 -0.00000000000E+00 -0.45593999997E+02  0.45594000000E+02  0.51100000000E-03 0. -1.
    9900012    2    1    2    0    0  0.35582971636E+02 -0.23160116823E+02  0.15052397059E+02  0.46142317200E+02  0.99999948792E+01 0.  0.
         12    1    1    2    0    0 -0.35582971636E+02  0.23160116823E+02 -0.15052397059E+02  0.45045682800E+02  0.00000000000E+00 0. -1.
         11    1    3    3    0    0  0.24433936022E+02 -0.14466364538E+02  0.61586114256E+01  0.29055488766E+02  0.51100000000E-03 0. -1.
        -11    1    3    3    0    0  0.11315657956E+02 -0.88014991696E+01  0.85551566104E+01  0.16694346573E+02  0.51100000000E-03 0.  1.
        -12    1    3    3    0    0 -0.16662234178E+00  0.10774688373E+00  0.33862902335E+00  0.39248186097E+00  0.00000000000E+00 0.  1.
</event>
<event>
 7    1  0.3086024E-009  0.4614232E+02  0.7816164E-02  0.1320468E+00
        -11   -1    0    0    0    0  0.00000000000E+00  0.00000000000E+00  0.45593999997E+02  0.45594000000E+02  0.51100000000E-03 0.  1.
         11   -1    0    0    0    0 -0.00000000000E+00 -0.00000000000E+00 -0.45593999997E+02  0.45594000000E+02  0.51100000000E-03 0. -1.
    9900012    2    1    2    0    0 -0.34014528544E+02  0.20578587937E+02  0.21181289510E+02  0.46142318089E+02  0.10000002986E+02 0.  0.
         12    1    1    2    0    0  0.34014528544E+02 -0.20578587937E+02 -0.21181289510E+02  0.45045681911E+02  0.00000000000E+00 0. -1.
         11    1    3    3    0    0 -0.43174642366E+01  0.40155637320E+01  0.27917448110E+01  0.65237327407E+01  0.51100000000E-03 0. -1.
        -11    1    3    3    0    0 -0.14831586186E+00 -0.38418969902E+00  0.15805851346E+01  0.16333551202E+01  0.51100000000E-03 0.  1.
        -12    1    3    3    0    0 -0.29548748445E+02  0.16947213904E+02  0.16808959565E+02  0.37985230228E+02  0.00000000000E+00 0.  1.
</event>
<event>
 7    1  0.3086024E-009  0.4614232E+02  0.7816164E-02  0.1320468E+00
        -11   -1    0    0    0    0  0.00000000000E+00  0.00000000000E+00  0.45593999997E+02  0.45594000000E+02  0.51100000000E-03 0.  1.
         11   -1    0    0    0    0 -0.00000000000E+00 -0.00000000000E+00 -0.45593999997E+02  0.45594000000E+02  0.51100000000E-03 0. -1.
    9900012    2    1    2    0    0 -0.44211139098E+02 -0.79223924811E+01 -0.34240833503E+01  0.46142317968E+02  0.10000001886E+02 0.  0.
         12    1    1    2    0    0  0.44211139098E+02  0.79223924811E+01  0.34240833503E+01  0.45045682032E+02  0.00000000000E+00 0. -1.
         11    1    3    3    0    0 -0.10732953394E+02 -0.11065061320E+01  0.33573019766E+01  0.11300093858E+02  0.51100000000E-03 0. -1.
        -11    1    3    3    0    0 -0.16060389225E+02 -0.35319048317E+01 -0.29093405819E+01  0.16699542409E+02  0.51100000000E-03 0.  1.
         12    1    3    3    0    0 -0.17417796479E+02 -0.32839815174E+01 -0.38720447450E+01  0.18142681700E+02  0.00000000000E+00 0. -1.
</event>
<event>
 7    1  0.3086024E-009  0.4614232E+02  0.7816164E-02  0.1320468E+00
        -11   -1    0    0    0    0  0.00000000000E+00  0.00000000000E+00  0.45593999997E+02  0.45594000000E+02  0.51100000000E-03 0.  1.
         11   -1    0    0    0    0 -0.00000000000E+00 -0.00000000000E+00 -0.45593999997E+02  0.45594000000E+02  0.51100000000E-03 0. -1.
    9900012    2    1    2    0    0 -0.44059717662E+02 -0.71822376259E+01  0.60224774509E+01  0.46142317716E+02  0.99999995924E+01 0.  0.
         12    1    1    2    0    0  0.44059717662E+02  0.71822376259E+01 -0.60224774509E+01  0.45045682284E+02  0.00000000000E+00 0. -1.
         11    1    3    3    0    0 -0.17531543369E+02 -0.59210506047E+01  0.15131087614E+01  0.18566188396E+02  0.51100000000E-03 0. -1.
        -11    1    3    3    0    0 -0.18330949373E+01  0.90894776495E+00 -0.84590919027E+00  0.22140428424E+01  0.51100000000E-03 0.  1.
        -12    1    3    3    0    0 -0.24695079356E+02 -0.21701347862E+01  0.53552778797E+01  0.25362086478E+02  0.00000000000E+00 0.  1.
</event>
<event>
 7    1  0.3086024E-009  0.4614232E+02  0.7816164E-02  0.1320468E+00
        -11   -1    0    0    0    0  0.00000000000E+00  0.00000000000E+00  0.45593999997E+02  0.45594000000E+02  0.51100000000E-03 0. -1.
         11   -1    0    0    0    0 -0.00000000000E+00 -0.00000000000E+00 -0.45593999997E+02  0.45594000000E+02  0.51100000000E-03 0.  1.
    9900012    2    1    2    0    0 -0.26488478339E+02  0.29814213659E+02 -0.20942461453E+02  0.46142317492E+02  0.99999975503E+01 0.  0.
         12    1    1    2    0    0  0.26488478339E+02 -0.29814213659E+02  0.20942461453E+02  0.45045682508E+02  0.00000000000E+00 0. -1.
         11    1    3    3    0    0 -0.59575389943E+01  0.77963443253E+01 -0.10009314244E+02  0.14016477004E+02  0.51100000000E-03 0. -1.
        -11    1    3    3    0    0 -0.94206185573E+01  0.10502982459E+02 -0.64177146219E+01  0.15499927605E+02  0.51100000000E-03 0.  1.
         12    1    3    3    0    0 -0.11110320787E+02  0.11514886875E+02 -0.45154325870E+01  0.16625912883E+02  0.00000000000E+00 0. -1.
</event>
<event>
 7    1  0.3086024E-009  0.4614232E+02  0.7816164E-02  0.1320468E+00
        -11   -1    0    0    0    0  0.00000000000E+00  0.00000000000E+00  0.45593999997E+02  0.45594000000E+02  0.51100000000E-03 0.  1.
         11   -1    0    0    0    0 -0.00000000000E+00 -0.00000000000E+00 -0.45593999997E+02  0.45594000000E+02  0.51100000000E-03 0. -1.
    9900012    2    1    2    0    0 -0.12161507607E+02  0.41063266571E+02  0.13964933795E+02  0.46142317580E+02  0.99999983515E+01 0.  0.
         12    1    1    2    0    0  0.12161507607E+02 -0.41063266571E+02 -0.13964933795E+02  0.45045682420E+02  0.00000000000E+00 0. -1.
         11    1    3    3    0    0 -0.46936366056E+00  0.39238626204E+01 -0.10561643350E+01  0.40905358418E+01  0.51100000000E-03 0. -1.
        -11    1    3    3    0    0 -0.28076691145E+01  0.13691386710E+02  0.32381365557E+01  0.14346518899E+02  0.51100000000E-03 0.  1.
         12    1    3    3    0    0 -0.88844748321E+01  0.23448017241E+02  0.11782961574E+02  0.27705262840E+02  0.00000000000E+00 0. -1.
</event>
<event>
 7    1  0.3235468E-009  0.4614231E+02  0.7816164E-02  0.1320468E+00
        -11   -1    0    0    0    0  0.00000000000E+00  0.00000000000E+00  0.45593999997E+02  0.45594000000E+02  0.51100000000E-03 0. -1.
         11   -1    0    0    0    0 -0.00000000000E+00 -0.00000000000E+00 -0.45593999997E+02  0.45594000000E+02  0.51100000000E-03 0.  1.
    9900012    2    1    2    0    0 -0.27183719968E+02  0.28872265397E+02 -0.21367064820E+02  0.46142314308E+02  0.99999685074E+01 0.  0.
         12    1    1    2    0    0  0.27183719968E+02 -0.28872265397E+02  0.21367064820E+02  0.45045685692E+02  0.00000000000E+00 0. -1.
         11    1    3    3    0    0  0.13333350829E+00  0.76779314473E+00  0.47093206276E+00  0.91052809203E+00  0.51100000000E-03 0. -1.
        -11    1    3    3    0    0 -0.25529805414E+02  0.26025518282E+02 -0.21824656055E+02  0.42490165668E+02  0.51100000000E-03 0.  1.
        -12    1    3    3    0    0 -0.17872480627E+01  0.20789539703E+01 -0.13340827899E-01  0.27416205474E+01  0.00000000000E+00 0.  1.
</event>
<event>
 7    1  0.3086024E-009  0.4614232E+02  0.7816164E-02  0.1320468E+00
        -11   -1    0    0    0    0  0.00000000000E+00  0.00000000000E+00  0.45593999997E+02  0.45594000000E+02  0.51100000000E-03 0. -1.
         11   -1    0    0    0    0 -0.00000000000E+00 -0.00000000000E+00 -0.45593999997E+02  0.45594000000E+02  0.51100000000E-03 0.  1.
    9900012    2    1    2    0    0 -0.23195806756E+02 -0.94322575350E+01 -0.37444632704E+02  0.46142318169E+02  0.10000003721E+02 0.  0.
         12    1    1    2    0    0  0.23195806756E+02  0.94322575350E+01  0.37444632704E+02  0.45045681831E+02  0.00000000000E+00 0. -1.
         11    1    3    3    0    0 -0.49431390377E+01 -0.53794059143E+01 -0.66361999592E+01  0.98697407107E+01  0.51100000000E-03 0. -1.
        -11    1    3    3    0    0 -0.13410919495E+02 -0.35948330296E+01 -0.19268925901E+02  0.23750096671E+02  0.51100000000E-03 0.  1.
        -12    1    3    3    0    0 -0.48417482226E+01 -0.45801859111E+00 -0.11539506844E+02  0.12522480788E+02  0.00000000000E+00 0.  1.
</event>
<event>
 7    1  0.3086024E-009  0.4614232E+02  0.7816164E-02  0.1320468E+00
        -11   -1    0    0    0    0  0.00000000000E+00  0.00000000000E+00  0.45593999997E+02  0.45594000000E+02  0.51100000000E-03 0.  1.
         11   -1    0    0    0    0 -0.00000000000E+00 -0.00000000000E+00 -0.45593999997E+02  0.45594000000E+02  0.51100000000E-03 0. -1.
    9900012    2    1    2    0    0  0.15087515917E+02  0.37974210968E+02  0.18958892872E+02  0.46142318141E+02  0.10000003466E+02 0.  0.
         12    1    1    2    0    0 -0.15087515917E+02 -0.37974210968E+02 -0.18958892872E+02  0.45045681859E+02  0.00000000000E+00 0. -1.
         11    1    3    3    0    0  0.62943383133E+01  0.76813335013E+01  0.52646207125E+01  0.11240009371E+02  0.51100000000E-03 0. -1.
        -11    1    3    3    0    0 -0.42439345993E+00  0.64609065867E+01  0.37549662301E+01  0.74848644197E+01  0.51100000000E-03 0.  1.
        -12    1    3    3    0    0  0.92175710633E+01  0.23831970880E+02  0.99393059296E+01  0.27417444350E+02  0.00000000000E+00 0.  1.
</event>
<event>
 7    1  0.3086024E-009  0.4614231E+02  0.7816164E-02  0.1320468E+00
        -11   -1    0    0    0    0  0.00000000000E+00  0.00000000000E+00  0.45593999997E+02  0.45594000000E+02  0.51100000000E-03 0. -1.
         11   -1    0    0    0    0 -0.00000000000E+00 -0.00000000000E+00 -0.45593999997E+02  0.45594000000E+02  0.51100000000E-03 0.  1.
    9900012    2    1    2    0    0 -0.43332251831E+02 -0.12296624120E+02  0.47197687277E+00  0.46142314572E+02  0.99999709194E+01 0.  0.
         12    1    1    2    0    0  0.43332251831E+02  0.12296624120E+02 -0.47197687277E+00  0.45045685428E+02  0.00000000000E+00 0. -1.
         11    1    3    3    0    0 -0.18524137171E+02 -0.37973811079E+01  0.41178819089E+01  0.19352537635E+02  0.51100000000E-03 0. -1.
        -11    1    3    3    0    0 -0.22759521413E+02 -0.74959748771E+01 -0.21423353849E+01  0.24057744189E+02  0.51100000000E-03 0.  1.
         12    1    3    3    0    0 -0.20485932470E+01 -0.10032681354E+01 -0.15035696513E+01  0.27320327486E+01  0.00000000000E+00 0. -1.
</event>
<event>
 7    1  0.3086024E-009  0.4614232E+02  0.7816164E-02  0.1320468E+00
        -11   -1    0    0    0    0  0.00000000000E+00  0.00000000000E+00  0.45593999997E+02  0.45594000000E+02  0.51100000000E-03 0.  1.
         11   -1    0    0    0    0 -0.00000000000E+00 -0.00000000000E+00 -0.45593999997E+02  0.45594000000E+02  0.51100000000E-03 0. -1.
    9900012    2    1    2    0    0 -0.22428646951E+02 -0.39043073220E+02  0.13067752965E+01  0.46142318384E+02  0.10000005684E+02 0.  0.
         12    1    1    2    0    0  0.22428646951E+02  0.39043073220E+02 -0.13067752965E+01  0.45045681616E+02  0.00000000000E+00 0. -1.
         11    1    3    3    0    0 -0.51811556222E+01 -0.85316175831E+01  0.31397282147E+01  0.10463783526E+02  0.51100000000E-03 0. -1.
        -11    1    3    3    0    0 -0.17592861392E+02 -0.28248609278E+02 -0.11873695024E+01  0.33300188358E+02  0.51100000000E-03 0.  1.
         12    1    3    3    0    0  0.34537006315E+00 -0.22628463596E+01 -0.64558341579E+00  0.23783465000E+01  0.00000000000E+00 0. -1.
</event>
<event>
 7    1  0.3086024E-009  0.4614232E+02  0.7816164E-02  0.1320468E+00
        -11   -1    0    0    0    0  0.00000000000E+00  0.00000000000E+00  0.45593999997E+02  0.45594000000E+02  0.51100000000E-03 0.  1.
         11   -1    0    0    0    0 -0.00000000000E+00 -0.00000000000E+00 -0.45593999997E+02  0.45594000000E+02  0.51100000000E-03 0. -1.
    9900012    2    1    2    0    0  0.25325284394E+02 -0.38117648776E+00  0.37250480141E+02  0.46142316568E+02  0.99999891171E+01 0.  0.
         12    1    1    2    0    0 -0.25325284394E+02  0.38117648776E+00 -0.37250480141E+02  0.45045683432E+02  0.00000000000E+00 0. -1.
         11    1    3    3    0    0 -0.39836419776E+00 -0.37536257013E+00 -0.12580623102E+00  0.56162136889E+00  0.51100000000E-03 0. -1.
        -11    1    3    3    0    0  0.94955273169E+01 -0.15662338394E+01  0.11483792556E+02  0.14983177874E+02  0.51100000000E-03 0.  1.
         12    1    3    3    0    0  0.16228121275E+02  0.15604199218E+01  0.25892493816E+02  0.30597517325E+02  0.00000000000E+00 0. -1.
</event>
<event>
 7    1  0.3086024E-009  0.4614232E+02  0.7816164E-02  0.1320468E+00
        -11   -1    0    0    0    0  0.00000000000E+00  0.00000000000E+00  0.45593999997E+02  0.45594000000E+02  0.51100000000E-03 0.  1.
         11   -1    0    0    0    0 -0.00000000000E+00 -0.00000000000E+00 -0.45593999997E+02  0.45594000000E+02  0.51100000000E-03 0. -1.
    9900012    2    1    2    0    0  0.15324068177E+02  0.34323459678E+02 -0.24823102659E+02  0.46142319015E+02  0.10000011432E+02 0.  0.
         12    1    1    2    0    0 -0.15324068177E+02 -0.34323459678E+02  0.24823102659E+02  0.45045680985E+02  0.00000000000E+00 0. -1.
         11    1    3    3    0    0 -0.10058149591E+01  0.35005604752E+01 -0.24571902240E+01  0.43935602227E+01  0.51100000000E-03 0. -1.
        -11    1    3    3    0    0  0.48841545695E+01  0.11197730083E+02 -0.10546560575E+02  0.16139208936E+02  0.51100000000E-03 0.  1.
        -12    1    3    3    0    0  0.11445728567E+02  0.19625169120E+02 -0.11819351860E+02  0.25609549856E+02  0.00000000000E+00 0.  1.
</event>
<event>
 7    1  0.3086024E-009  0.4614232E+02  0.7816164E-02  0.1320468E+00
        -11   -1    0    0    0    0  0.00000000000E+00  0.00000000000E+00  0.45593999997E+02  0.45594000000E+02  0.51100000000E-03 0. -1.
         11   -1    0    0    0    0 -0.00000000000E+00 -0.00000000000E+00 -0.45593999997E+02  0.45594000000E+02  0.51100000000E-03 0.  1.
    9900012    2    1    2    0    0  0.84748783952E+01  0.43393362351E+02  0.86200913664E+01  0.46142318352E+02  0.10000005387E+02 0.  0.
         12    1    1    2    0    0 -0.84748783952E+01 -0.43393362351E+02 -0.86200913664E+01  0.45045681648E+02  0.00000000000E+00 0. -1.
         11    1    3    3    0    0 -0.14756323647E+01  0.11476380951E+02  0.33585401382E+01  0.12048427396E+02  0.51100000000E-03 0. -1.
        -11    1    3    3    0    0  0.48609963866E+01  0.19631306566E+02  0.15293176915E+01  0.20281920427E+02  0.51100000000E-03 0.  1.
         12    1    3    3    0    0  0.50895143732E+01  0.12285674835E+02  0.37322335368E+01  0.13811970528E+02  0.00000000000E+00 0. -1.
</event>
<event>
 7    1  0.3086024E-009  0.4614232E+02  0.7816164E-02  0.1320468E+00
        -11   -1    0    0    0    0  0.00000000000E+00  0.00000000000E+00  0.45593999997E+02  0.45594000000E+02  0.51100000000E-03 0. -1.
         11   -1    0    0    0    0 -0.00000000000E+00 -0.00000000000E+00 -0.45593999997E+02  0.45594000000E+02  0.51100000000E-03 0.  1.
    9900012    2    1    2    0    0 -0.13220105945E+02 -0.12834933982E+02 -0.41104826001E+02  0.46142318164E+02  0.10000003671E+02 0.  0.
         12    1    1    2    0    0  0.13220105945E+02  0.12834933982E+02  0.41104826001E+02  0.45045681836E+02  0.00000000000E+00 0. -1.
         11    1    3    3    0    0 -0.47516677424E+01 -0.25174581372E+01 -0.77220409951E+01  0.94098809343E+01  0.51100000000E-03 0.  1.
        -11    1    3    3    0    0 -0.55120952994E+01 -0.86284493967E+01 -0.30804625705E+02  0.32461643499E+02  0.51100000000E-03 0. -1.
         12    1    3    3    0    0 -0.29563429037E+01 -0.16890264477E+01 -0.25781593013E+01  0.42707937305E+01  0.00000000000E+00 0. -1.
</event>
<event>
 7    1  0.3086024E-009  0.4614232E+02  0.7816164E-02  0.1320468E+00
        -11   -1    0    0    0    0  0.00000000000E+00  0.00000000000E+00  0.45593999997E+02  0.45594000000E+02  0.51100000000E-03 0.  1.
         11   -1    0    0    0    0 -0.00000000000E+00 -0.00000000000E+00 -0.45593999997E+02  0.45594000000E+02  0.51100000000E-03 0. -1.
    9900012    2    1    2    0    0 -0.94121822973E+01 -0.12631172096E+02  0.42201632760E+02  0.46142317724E+02  0.99999996605E+01 0.  0.
         12    1    1    2    0    0  0.94121822973E+01  0.12631172096E+02 -0.42201632760E+02  0.45045682276E+02  0.00000000000E+00 0. -1.
         11    1    3    3    0    0 -0.47217329173E+01 -0.16268816726E+01  0.10460358437E+02  0.11591402185E+02  0.51100000000E-03 0. -1.
        -11    1    3    3    0    0 -0.61024901652E+01 -0.10165502137E+02  0.25932584800E+02  0.28514501128E+02  0.51100000000E-03 0.  1.
         12    1    3    3    0    0  0.14120407852E+01 -0.83878828708E+00  0.58086895227E+01  0.60364144109E+01  0.00000000000E+00 0. -1.
</event>
<event>
 7    1  0.3086024E-009  0.4614232E+02  0.7816164E-02  0.1320468E+00
        -11   -1    0    0    0    0  0.00000000000E+00  0.00000000000E+00  0.45593999997E+02  0.45594000000E+02  0.51100000000E-03 0.  1.
         11   -1    0    0    0    0 -0.00000000000E+00 -0.00000000000E+00 -0.45593999997E+02  0.45594000000E+02  0.51100000000E-03 0. -1.
    9900012    2    1    2    0    0  0.13953405581E+02 -0.38177901698E+02 -0.19412979711E+02  0.46142317780E+02  0.10000000174E+02 0.  0.
         12    1    1    2    0    0 -0.13953405581E+02  0.38177901698E+02  0.19412979711E+02  0.45045682220E+02  0.00000000000E+00 0. -1.
         11    1    3    3    0    0  0.46607588732E+01 -0.57937126792E+01 -0.30211353667E+01  0.80260226170E+01  0.51100000000E-03 0. -1.
        -11    1    3    3    0    0  0.26331034935E+01 -0.18709280343E+02 -0.11593579081E+02  0.22167126136E+02  0.51100000000E-03 0.  1.
        -12    1    3    3    0    0  0.66595432138E+01 -0.13674908676E+02 -0.47982652635E+01  0.15949169027E+02  0.00000000000E+00 0.  1.
</event>
<event>
 7    1  0.3086024E-009  0.4614232E+02  0.7816164E-02  0.1320468E+00
        -11   -1    0    0    0    0  0.00000000000E+00  0.00000000000E+00  0.45593999997E+02  0.45594000000E+02  0.51100000000E-03 0.  1.
         11   -1    0    0    0    0 -0.00000000000E+00 -0.00000000000E+00 -0.45593999997E+02  0.45594000000E+02  0.51100000000E-03 0. -1.
    9900012    2    1    2    0    0  0.24065270739E+02  0.55646993803E+00  0.38074487336E+02  0.46142317627E+02  0.99999987766E+01 0.  0.
         12    1    1    2    0    0 -0.24065270739E+02 -0.55646993803E+00 -0.38074487336E+02  0.45045682373E+02  0.00000000000E+00 0. -1.
         11    1    3    3    0    0  0.19056142201E+01  0.16508075550E+01  0.28591622109E+01  0.38119994686E+01  0.51100000000E-03 0. -1.
        -11    1    3    3    0    0  0.37304483614E+01  0.19061498684E+01  0.10868882505E+02  0.11648272811E+02  0.51100000000E-03 0.  1.
        -12    1    3    3    0    0  0.18429208157E+02 -0.30004874854E+01  0.24346442620E+02  0.30682045348E+02  0.00000000000E+00 0.  1.
</event>
<event>
 7    1  0.3086024E-009  0.4614232E+02  0.7816164E-02  0.1320468E+00
        -11   -1    0    0    0    0  0.00000000000E+00  0.00000000000E+00  0.45593999997E+02  0.45594000000E+02  0.51100000000E-03 0.  1.
         11   -1    0    0    0    0 -0.00000000000E+00 -0.00000000000E+00 -0.45593999997E+02  0.45594000000E+02  0.51100000000E-03 0. -1.
    9900012    2    1    2    0    0 -0.21131199239E+02 -0.30946867123E+02  0.24997546494E+02  0.46142317668E+02  0.99999991530E+01 0.  0.
         12    1    1    2    0    0  0.21131199239E+02  0.30946867123E+02 -0.24997546494E+02  0.45045682332E+02  0.00000000000E+00 0. -1.
         11    1    3    3    0    0 -0.78617443617E+01 -0.71044257236E+01  0.33744319125E+01  0.11120552156E+02  0.51100000000E-03 0. -1.
        -11    1    3    3    0    0 -0.93215956339E+01 -0.17549445945E+02  0.13554556231E+02  0.24054130477E+02  0.51100000000E-03 0.  1.
         12    1    3    3    0    0 -0.39478592435E+01 -0.62929954548E+01  0.80685583502E+01  0.10967635035E+02  0.00000000000E+00 0. -1.
</event>
<event>
 7    1  0.3086024E-009  0.4614232E+02  0.7816164E-02  0.1320468E+00
        -11   -1    0    0    0    0  0.00000000000E+00  0.00000000000E+00  0.45593999997E+02  0.45594000000E+02  0.51100000000E-03 0. -1.
         11   -1    0    0    0    0 -0.00000000000E+00 -0.00000000000E+00 -0.45593999997E+02  0.45594000000E+02  0.51100000000E-03 0.  1.
    9900012    2    1    2    0    0  0.10148201556E+02 -0.42297587987E+02 -0.11706473429E+02  0.46142318026E+02  0.10000002414E+02 0.  0.
         12    1    1    2    0    0 -0.10148201556E+02  0.42297587987E+02  0.11706473429E+02  0.45045681974E+02  0.00000000000E+00 0. -1.
         11    1    3    3    0    0  0.28818749095E+01 -0.11052657495E+02 -0.14359492625E+01  0.11512097604E+02  0.51100000000E-03 0. -1.
        -11    1    3    3    0    0 -0.51033693909E+00 -0.34473893968E+01 -0.35881153345E+01  0.50019505554E+01  0.51100000000E-03 0.  1.
        -12    1    3    3    0    0  0.77766635857E+01 -0.27797541096E+02 -0.66824088315E+01  0.29628269866E+02  0.00000000000E+00 0.  1.
</event>
<event>
 7    1  0.3086024E-009  0.4614232E+02  0.7816164E-02  0.1320468E+00
        -11   -1    0    0    0    0  0.00000000000E+00  0.00000000000E+00  0.45593999997E+02  0.45594000000E+02  0.51100000000E-03 0. -1.
         11   -1    0    0    0    0 -0.00000000000E+00 -0.00000000000E+00 -0.45593999997E+02  0.45594000000E+02  0.51100000000E-03 0.  1.
    9900012    2    1    2    0    0 -0.30515742626E+02 -0.28595879619E+02 -0.16738536912E+02  0.46142317664E+02  0.99999991162E+01 0.  0.
         12    1    1    2    0    0  0.30515742626E+02  0.28595879619E+02  0.16738536912E+02  0.45045682336E+02  0.00000000000E+00 0. -1.
         11    1    3    3    0    0 -0.39280821202E+01 -0.80929578975E+01 -0.27419192426E+01  0.94044626677E+01  0.51100000000E-03 0. -1.
        -11    1    3    3    0    0 -0.47699535022E+01 -0.15308071309E+01 -0.27491009270E+01  0.57143138742E+01  0.51100000000E-03 0.  1.
        -12    1    3    3    0    0 -0.21817707003E+02 -0.18972114590E+02 -0.11247516742E+02  0.31023541122E+02  0.00000000000E+00 0.  1.
</event>
<event>
 7    1  0.3086024E-009  0.4614232E+02  0.7816164E-02  0.1320468E+00
        -11   -1    0    0    0    0  0.00000000000E+00  0.00000000000E+00  0.45593999997E+02  0.45594000000E+02  0.51100000000E-03 0. -1.
         11   -1    0    0    0    0 -0.00000000000E+00 -0.00000000000E+00 -0.45593999997E+02  0.45594000000E+02  0.51100000000E-03 0.  1.
    9900012    2    1    2    0    0  0.23139999781E+02  0.29614185811E+02  0.24832516229E+02  0.46142318149E+02  0.10000003540E+02 0.  0.
         12    1    1    2    0    0 -0.23139999781E+02 -0.29614185811E+02 -0.24832516229E+02  0.45045681851E+02  0.00000000000E+00 0. -1.
         11    1    3    3    0    0  0.83458672869E+01  0.13445724386E+02  0.15787593976E+02  0.22353727404E+02  0.51100000000E-03 0. -1.
        -11    1    3    3    0    0  0.88063591582E+01  0.98488230463E+01  0.44265737659E+01  0.13933622379E+02  0.51100000000E-03 0.  1.
         12    1    3    3    0    0  0.59877733361E+01  0.63196383790E+01  0.46183484864E+01  0.98549683666E+01  0.00000000000E+00 0. -1.
</event>
<event>
 7    1  0.3086024E-009  0.4614232E+02  0.7816164E-02  0.1320468E+00
        -11   -1    0    0    0    0  0.00000000000E+00  0.00000000000E+00  0.45593999997E+02  0.45594000000E+02  0.51100000000E-03 0.  1.
         11   -1    0    0    0    0 -0.00000000000E+00 -0.00000000000E+00 -0.45593999997E+02  0.45594000000E+02  0.51100000000E-03 0. -1.
    9900012    2    1    2    0    0 -0.13429667647E+02  0.41485580221E+02  0.11300624973E+02  0.46142318030E+02  0.10000002449E+02 0.  0.
         12    1    1    2    0    0  0.13429667647E+02 -0.41485580221E+02 -0.11300624973E+02  0.45045681970E+02  0.00000000000E+00 0. -1.
         11    1    3    3    0    0 -0.57353529662E+01  0.10660807227E+02  0.52114818547E+01  0.13179781021E+02  0.51100000000E-03 0. -1.
        -11    1    3    3    0    0 -0.73560914432E-01  0.93530334780E+01  0.36810816092E+01  0.10051617209E+02  0.51100000000E-03 0.  1.
        -12    1    3    3    0    0 -0.76207537669E+01  0.21471739516E+02  0.24080615093E+01  0.22910919799E+02  0.00000000000E+00 0.  1.
</event>
<event>
 7    1  0.3086024E-009  0.4614232E+02  0.7816164E-02  0.1320468E+00
        -11   -1    0    0    0    0  0.00000000000E+00  0.00000000000E+00  0.45593999997E+02  0.45594000000E+02  0.51100000000E-03 0.  1.
         11   -1    0    0    0    0 -0.00000000000E+00 -0.00000000000E+00 -0.45593999997E+02  0.45594000000E+02  0.51100000000E-03 0. -1.
    9900012    2    1    2    0    0 -0.23754792915E+02 -0.18302414386E+02  0.33613164610E+02  0.46142318810E+02  0.10000009562E+02 0.  0.
         12    1    1    2    0    0  0.23754792915E+02  0.18302414386E+02 -0.33613164610E+02  0.45045681190E+02  0.00000000000E+00 0. -1.
         11    1    3    3    0    0 -0.73040065237E+01 -0.31230544051E+01  0.80818444689E+01  0.11332175007E+02  0.51100000000E-03 0. -1.
        -11    1    3    3    0    0 -0.44178251567E+01 -0.83557986605E+01  0.73973906458E+01  0.12002413882E+02  0.51100000000E-03 0.  1.
        -12    1    3    3    0    0 -0.12032961235E+02 -0.68235613202E+01  0.18133929496E+02  0.22807729920E+02  0.00000000000E+00 0.  1.
</event>
<event>
 7    1  0.3086024E-009  0.4614232E+02  0.7816164E-02  0.1320468E+00
        -11   -1    0    0    0    0  0.00000000000E+00  0.00000000000E+00  0.45593999997E+02  0.45594000000E+02  0.51100000000E-03 0.  1.
         11   -1    0    0    0    0 -0.00000000000E+00 -0.00000000000E+00 -0.45593999997E+02  0.45594000000E+02  0.51100000000E-03 0. -1.
    9900012    2    1    2    0    0  0.12364367795E+02 -0.19435734983E+02  0.38710312043E+02  0.46142316036E+02  0.99999842690E+01 0.  0.
         12    1    1    2    0    0 -0.12364367795E+02  0.19435734983E+02 -0.38710312043E+02  0.45045683964E+02  0.00000000000E+00 0. -1.
         11    1    3    3    0    0  0.67357510813E+01 -0.11626022485E+02  0.18111033989E+02  0.22550926674E+02  0.51100000000E-03 0. -1.
        -11    1    3    3    0    0  0.70086423506E+01 -0.69109679630E+01  0.17963659449E+02  0.20483544782E+02  0.51100000000E-03 0.  1.
         12    1    3    3    0    0 -0.13800256372E+01 -0.89874453513E+00  0.26356186056E+01  0.31078445799E+01  0.00000000000E+00 0. -1.
</event>
<event>
 7    1  0.3086024E-009  0.4614232E+02  0.7816164E-02  0.1320468E+00
        -11   -1    0    0    0    0  0.00000000000E+00  0.00000000000E+00  0.45593999997E+02  0.45594000000E+02  0.51100000000E-03 0. -1.
         11   -1    0    0    0    0 -0.00000000000E+00 -0.00000000000E+00 -0.45593999997E+02  0.45594000000E+02  0.51100000000E-03 0.  1.
    9900012    2    1    2    0    0 -0.42667673748E+02 -0.60277702648E+01 -0.13124369635E+02  0.46142317901E+02  0.10000001274E+02 0.  0.
         12    1    1    2    0    0  0.42667673748E+02  0.60277702648E+01  0.13124369635E+02  0.45045682099E+02  0.00000000000E+00 0. -1.
         11    1    3    3    0    0 -0.14005939980E+02 -0.31513290055E+01 -0.62889079778E+00  0.14369855014E+02  0.51100000000E-03 0.  1.
        -11    1    3    3    0    0 -0.94818505333E+01  0.11325971945E+01 -0.51257118717E+01  0.10837951301E+02  0.51100000000E-03 0. -1.
         12    1    3    3    0    0 -0.19179883235E+02 -0.40090384538E+01 -0.73697669652E+01  0.20934511586E+02  0.00000000000E+00 0. -1.
</event>
<event>
 7    1  0.3086024E-009  0.4614232E+02  0.7816164E-02  0.1320468E+00
        -11   -1    0    0    0    0  0.00000000000E+00  0.00000000000E+00  0.45593999997E+02  0.45594000000E+02  0.51100000000E-03 0. -1.
         11   -1    0    0    0    0 -0.00000000000E+00 -0.00000000000E+00 -0.45593999997E+02  0.45594000000E+02  0.51100000000E-03 0.  1.
    9900012    2    1    2    0    0  0.36054106670E+02 -0.18314346240E+02 -0.19844388187E+02  0.46142316206E+02  0.99999858190E+01 0.  0.
         12    1    1    2    0    0 -0.36054106670E+02  0.18314346240E+02  0.19844388187E+02  0.45045683794E+02  0.00000000000E+00 0. -1.
         11    1    3    3    0    0  0.12486975763E+02 -0.10619857326E+02 -0.11098674767E+02  0.19796123741E+02  0.51100000000E-03 0. -1.
        -11    1    3    3    0    0  0.55948283762E+01 -0.14588671373E+01 -0.27328599356E+01  0.63952264676E+01  0.51100000000E-03 0.  1.
         12    1    3    3    0    0  0.17972302531E+02 -0.62356217760E+01 -0.60128534843E+01  0.19950965997E+02  0.00000000000E+00 0. -1.
</event>
<event>
 7    1  0.3086024E-009  0.4614233E+02  0.7816164E-02  0.1320468E+00
        -11   -1    0    0    0    0  0.00000000000E+00  0.00000000000E+00  0.45593999997E+02  0.45594000000E+02  0.51100000000E-03 0.  1.
         11   -1    0    0    0    0 -0.00000000000E+00 -0.00000000000E+00 -0.45593999997E+02  0.45594000000E+02  0.51100000000E-03 0. -1.
    9900012    2    1    2    0    0  0.43749983844E+02  0.69082304856E+01  0.82053655383E+01  0.46142325863E+02  0.10000073882E+02 0.  0.
         12    1    1    2    0    0 -0.43749983844E+02 -0.69082304856E+01 -0.82053655383E+01  0.45045674137E+02  0.00000000000E+00 0. -1.
         11    1    3    3    0    0 -0.27581622099E+00 -0.10842593446E+00  0.43668577186E+00  0.52775514729E+00  0.51100000000E-03 0. -1.
        -11    1    3    3    0    0  0.11862743059E+02  0.43124210139E+01  0.12268573045E+01  0.12681751732E+02  0.51100000000E-03 0.  1.
        -12    1    3    3    0    0  0.32163057006E+02  0.27042354061E+01  0.65418224620E+01  0.32932818984E+02  0.00000000000E+00 0.  1.
</event>
<event>
 7    1  0.3086024E-009  0.4614231E+02  0.7816164E-02  0.1320468E+00
        -11   -1    0    0    0    0  0.00000000000E+00  0.00000000000E+00  0.45593999997E+02  0.45594000000E+02  0.51100000000E-03 0. -1.
         11   -1    0    0    0    0 -0.00000000000E+00 -0.00000000000E+00 -0.45593999997E+02  0.45594000000E+02  0.51100000000E-03 0.  1.
    9900012    2    1    2    0    0  0.43012999386E+02 -0.13174848979E+02  0.23279744657E+01  0.46142309564E+02  0.99999252491E+01 0.  0.
         12    1    1    2    0    0 -0.43012999386E+02  0.13174848979E+02 -0.23279744657E+01  0.45045690436E+02  0.00000000000E+00 0. -1.
         11    1    3    3    0    0  0.17981639771E+01 -0.12176502985E+01 -0.16089779297E+01  0.27027534437E+01  0.51100000000E-03 0. -1.
        -11    1    3    3    0    0  0.24032726195E+02 -0.80900207146E+01 -0.15584292289E+00  0.25358325079E+02  0.51100000000E-03 0.  1.
         12    1    3    3    0    0  0.17182109213E+02 -0.38671779658E+01  0.40927953183E+01  0.18081231041E+02  0.00000000000E+00 0. -1.
</event>
<event>
 7    1  0.3086024E-009  0.4614232E+02  0.7816164E-02  0.1320468E+00
        -11   -1    0    0    0    0  0.00000000000E+00  0.00000000000E+00  0.45593999997E+02  0.45594000000E+02  0.51100000000E-03 0.  1.
         11   -1    0    0    0    0 -0.00000000000E+00 -0.00000000000E+00 -0.45593999997E+02  0.45594000000E+02  0.51100000000E-03 0. -1.
    9900012    2    1    2    0    0 -0.11122283283E+02  0.28108685705E+01  0.43560385609E+02  0.46142319165E+02  0.10000012798E+02 0.  0.
         12    1    1    2    0    0  0.11122283283E+02 -0.28108685705E+01 -0.43560385609E+02  0.45045680835E+02  0.00000000000E+00 0. -1.
         11    1    3    3    0    0 -0.72564867305E+01 -0.15295544251E+01  0.17774161267E+02  0.19259204174E+02  0.51100000000E-03 0. -1.
        -11    1    3    3    0    0 -0.41746624769E+01  0.15458976532E+01  0.19419772309E+02  0.19923482706E+02  0.51100000000E-03 0.  1.
         12    1    3    3    0    0  0.30886592464E+00  0.27945253424E+01  0.63664520327E+01  0.69596322844E+01  0.00000000000E+00 0. -1.
</event>
<event>
 7    1  0.3086024E-009  0.4614232E+02  0.7816164E-02  0.1320468E+00
        -11   -1    0    0    0    0  0.00000000000E+00  0.00000000000E+00  0.45593999997E+02  0.45594000000E+02  0.51100000000E-03 0. -1.
         11   -1    0    0    0    0 -0.00000000000E+00 -0.00000000000E+00 -0.45593999997E+02  0.45594000000E+02  0.51100000000E-03 0.  1.
    9900012    2    1    2    0    0 -0.37210764519E+02 -0.19280955539E+02 -0.16514152203E+02  0.46142318014E+02  0.10000002310E+02 0.  0.
         12    1    1    2    0    0  0.37210764519E+02  0.19280955539E+02  0.16514152203E+02  0.45045681986E+02  0.00000000000E+00 0. -1.
         11    1    3    3    0    0 -0.83444635513E+01 -0.77067180634E+01 -0.25286294086E+01  0.11636904323E+02  0.51100000000E-03 0. -1.
        -11    1    3    3    0    0 -0.58307040976E+01 -0.41264276113E+01 -0.48276860780E+01  0.86215467425E+01  0.51100000000E-03 0.  1.
         12    1    3    3    0    0 -0.23035596870E+02 -0.74478098645E+01 -0.91578367164E+01  0.25883866949E+02  0.00000000000E+00 0. -1.
</event>
<event>
 7    1  0.3086024E-009  0.4614232E+02  0.7816164E-02  0.1320468E+00
        -11   -1    0    0    0    0  0.00000000000E+00  0.00000000000E+00  0.45593999997E+02  0.45594000000E+02  0.51100000000E-03 0.  1.
         11   -1    0    0    0    0 -0.00000000000E+00 -0.00000000000E+00 -0.45593999997E+02  0.45594000000E+02  0.51100000000E-03 0. -1.
    9900012    2    1    2    0    0  0.27736495725E+01 -0.34696809718E+02  0.28592863163E+02  0.46142316961E+02  0.99999927082E+01 0.  0.
         12    1    1    2    0    0 -0.27736495725E+01  0.34696809718E+02 -0.28592863163E+02  0.45045683039E+02  0.00000000000E+00 0. -1.
         11    1    3    3    0    0  0.14722071286E+01 -0.39656945668E+01  0.50136142800E+01  0.65597603338E+01  0.51100000000E-03 0.  1.
        -11    1    3    3    0    0 -0.17279129481E+00 -0.20672644718E+02  0.20110038193E+02  0.28840973161E+02  0.51100000000E-03 0. -1.
        -12    1    3    3    0    0  0.14742337387E+01 -0.10058470433E+02  0.34692106901E+01  0.10741583467E+02  0.00000000000E+00 0.  1.
</event>
<event>
 7    1  0.3086024E-009  0.4614232E+02  0.7816164E-02  0.1320468E+00
        -11   -1    0    0    0    0  0.00000000000E+00  0.00000000000E+00  0.45593999997E+02  0.45594000000E+02  0.51100000000E-03 0.  1.
         11   -1    0    0    0    0 -0.00000000000E+00 -0.00000000000E+00 -0.45593999997E+02  0.45594000000E+02  0.51100000000E-03 0. -1.
    9900012    2    1    2    0    0  0.97757203489E+01  0.28105066874E+02  0.33817955612E+02  0.46142316366E+02  0.99999872742E+01 0.  0.
         12    1    1    2    0    0 -0.97757203489E+01 -0.28105066874E+02 -0.33817955612E+02  0.45045683634E+02  0.00000000000E+00 0. -1.
         11    1    3    3    0    0  0.11139109966E+01  0.75618871682E+01  0.13489786002E+02  0.15504749656E+02  0.51100000000E-03 0. -1.
        -11    1    3    3    0    0  0.54253751016E+01  0.72120269767E+01  0.62293042001E+01  0.10965959109E+02  0.51100000000E-03 0.  1.
        -12    1    3    3    0    0  0.32364342508E+01  0.13331152729E+02  0.14098865410E+02  0.19671607601E+02  0.00000000000E+00 0.  1.
</event>
<event>
 7    1  0.3086024E-009  0.4614232E+02  0.7816164E-02  0.1320468E+00
        -11   -1    0    0    0    0  0.00000000000E+00  0.00000000000E+00  0.45593999997E+02  0.45594000000E+02  0.51100000000E-03 0. -1.
         11   -1    0    0    0    0 -0.00000000000E+00 -0.00000000000E+00 -0.45593999997E+02  0.45594000000E+02  0.51100000000E-03 0.  1.
    9900012    2    1    2    0    0  0.11375308541E+02 -0.43138596821E+02 -0.62271108039E+01  0.46142322193E+02  0.10000040413E+02 0.  0.
         12    1    1    2    0    0 -0.11375308541E+02  0.43138596821E+02  0.62271108039E+01  0.45045677807E+02  0.00000000000E+00 0. -1.
         11    1    3    3    0    0  0.51641338458E+01 -0.12082851991E+02 -0.39550416298E+01  0.13722461338E+02  0.51100000000E-03 0. -1.
        -11    1    3    3    0    0  0.39799383291E+01 -0.19379795467E+02  0.17722832772E+01  0.19863468220E+02  0.51100000000E-03 0.  1.
        -12    1    3    3    0    0  0.22312363662E+01 -0.11675949364E+02 -0.40443524512E+01  0.12556392636E+02  0.00000000000E+00 0.  1.
</event>
<event>
 7    1  0.3086024E-009  0.4614232E+02  0.7816164E-02  0.1320468E+00
        -11   -1    0    0    0    0  0.00000000000E+00  0.00000000000E+00  0.45593999997E+02  0.45594000000E+02  0.51100000000E-03 0.  1.
         11   -1    0    0    0    0 -0.00000000000E+00 -0.00000000000E+00 -0.45593999997E+02  0.45594000000E+02  0.51100000000E-03 0. -1.
    9900012    2    1    2    0    0  0.35529535577E+02  0.22142520151E+02  0.16627521130E+02  0.46142317011E+02  0.99999931618E+01 0.  0.
         12    1    1    2    0    0 -0.35529535577E+02 -0.22142520151E+02 -0.16627521130E+02  0.45045682989E+02  0.00000000000E+00 0. -1.
         11    1    3    3    0    0  0.86162087186E+01  0.93022477470E+01  0.66147858554E+01  0.14301267706E+02  0.51100000000E-03 0. -1.
        -11    1    3    3    0    0  0.17970249550E+02  0.69841048186E+01  0.44339281472E+01  0.19783005537E+02  0.51100000000E-03 0.  1.
        -12    1    3    3    0    0  0.89430773089E+01  0.58561675854E+01  0.55788071278E+01  0.12058043768E+02  0.00000000000E+00 0.  1.
</event>
<event>
 7    1  0.3086024E-009  0.4614232E+02  0.7816164E-02  0.1320468E+00
        -11   -1    0    0    0    0  0.00000000000E+00  0.00000000000E+00  0.45593999997E+02  0.45594000000E+02  0.51100000000E-03 0.  1.
         11   -1    0    0    0    0 -0.00000000000E+00 -0.00000000000E+00 -0.45593999997E+02  0.45594000000E+02  0.51100000000E-03 0. -1.
    9900012    2    1    2    0    0  0.28473328650E+02  0.18533481580E+02  0.29578591055E+02  0.46142318379E+02  0.10000005636E+02 0.  0.
         12    1    1    2    0    0 -0.28473328650E+02 -0.18533481580E+02 -0.29578591055E+02  0.45045681621E+02  0.00000000000E+00 0. -1.
         11    1    3    3    0    0  0.11873757580E+02  0.83083953812E+01  0.75289652486E+01  0.16330978870E+02  0.51100000000E-03 0. -1.
        -11    1    3    3    0    0  0.42081143609E+01  0.51859217698E+01  0.77366296175E+01  0.10220442709E+02  0.51100000000E-03 0.  1.
        -12    1    3    3    0    0  0.12391456709E+02  0.50391644290E+01  0.14312996189E+02  0.19590896800E+02  0.00000000000E+00 0.  1.
</event>
<event>
 7    1  0.3086024E-009  0.4614232E+02  0.7816164E-02  0.1320468E+00
        -11   -1    0    0    0    0  0.00000000000E+00  0.00000000000E+00  0.45593999997E+02  0.45594000000E+02  0.51100000000E-03 0.  1.
         11   -1    0    0    0    0 -0.00000000000E+00 -0.00000000000E+00 -0.45593999997E+02  0.45594000000E+02  0.51100000000E-03 0. -1.
    9900012    2    1    2    0    0  0.10070443304E+02 -0.15248243858E+01  0.43879089315E+02  0.46142318777E+02  0.10000009266E+02 0.  0.
         12    1    1    2    0    0 -0.10070443304E+02  0.15248243858E+01 -0.43879089315E+02  0.45045681223E+02  0.00000000000E+00 0. -1.
         11    1    3    3    0    0 -0.43761192635E+00 -0.13659473801E+00 -0.20389101476E+00  0.50173113074E+00  0.51100000000E-03 0. -1.
        -11    1    3    3    0    0  0.71337881248E+01 -0.15284439032E+01  0.19378853755E+02  0.20706690873E+02  0.51100000000E-03 0.  1.
        -12    1    3    3    0    0  0.33742671053E+01  0.14021425540E+00  0.24704126574E+02  0.24933896774E+02  0.00000000000E+00 0.  1.
</event>
<event>
 7    1  0.3086024E-009  0.4614232E+02  0.7816164E-02  0.1320468E+00
        -11   -1    0    0    0    0  0.00000000000E+00  0.00000000000E+00  0.45593999997E+02  0.45594000000E+02  0.51100000000E-03 0.  1.
         11   -1    0    0    0    0 -0.00000000000E+00 -0.00000000000E+00 -0.45593999997E+02  0.45594000000E+02  0.51100000000E-03 0. -1.
    9900012    2    1    2    0    0  0.80563257275E+01 -0.82317162514E+01  0.43548226241E+02  0.46142317128E+02  0.99999942267E+01 0.  0.
         12    1    1    2    0    0 -0.80563257275E+01  0.82317162514E+01 -0.43548226241E+02  0.45045682872E+02  0.00000000000E+00 0. -1.
         11    1    3    3    0    0  0.51398074892E+01 -0.75734723606E+01  0.22405144478E+02  0.24202594984E+02  0.51100000000E-03 0.  1.
        -11    1    3    3    0    0  0.90733118639E-01 -0.10130278619E+01  0.56101146932E+00  0.11615472774E+01  0.51100000000E-03 0. -1.
        -12    1    3    3    0    0  0.28257851197E+01  0.35478397119E+00  0.20582070293E+02  0.20778174866E+02  0.00000000000E+00 0.  1.
</event>
<event>
 7    1  0.3086024E-009  0.4614232E+02  0.7816164E-02  0.1320468E+00
        -11   -1    0    0    0    0  0.00000000000E+00  0.00000000000E+00  0.45593999997E+02  0.45594000000E+02  0.51100000000E-03 0. -1.
         11   -1    0    0    0    0 -0.00000000000E+00 -0.00000000000E+00 -0.45593999997E+02  0.45594000000E+02  0.51100000000E-03 0.  1.
    9900012    2    1    2    0    0 -0.27019571729E+02  0.35846495931E+02 -0.37529921244E+01  0.46142317890E+02  0.10000001172E+02 0.  0.
         12    1    1    2    0    0  0.27019571729E+02 -0.35846495931E+02  0.37529921244E+01  0.45045682110E+02  0.00000000000E+00 0. -1.
         11    1    3    3    0    0 -0.75234196886E+01  0.96518679579E+01 -0.49470725587E+01  0.13199769924E+02  0.51100000000E-03 0. -1.
        -11    1    3    3    0    0 -0.14189014492E+02  0.17183313913E+02 -0.78828049085E+00  0.22298336164E+02  0.51100000000E-03 0.  1.
         12    1    3    3    0    0 -0.53071375478E+01  0.90113140600E+01  0.19823609251E+01  0.10644211802E+02  0.00000000000E+00 0. -1.
</event>
<event>
 7    1  0.3086024E-009  0.4614232E+02  0.7816164E-02  0.1320468E+00
        -11   -1    0    0    0    0  0.00000000000E+00  0.00000000000E+00  0.45593999997E+02  0.45594000000E+02  0.51100000000E-03 0.  1.
         11   -1    0    0    0    0 -0.00000000000E+00 -0.00000000000E+00 -0.45593999997E+02  0.45594000000E+02  0.51100000000E-03 0. -1.
    9900012    2    1    2    0    0 -0.41041392454E+02  0.11890728146E+02  0.14259319179E+02  0.46142317701E+02  0.99999994494E+01 0.  0.
         12    1    1    2    0    0  0.41041392454E+02 -0.11890728146E+02 -0.14259319179E+02  0.45045682299E+02  0.00000000000E+00 0. -1.
         11    1    3    3    0    0 -0.12785730055E+02  0.23862162050E+00  0.32198448326E+01  0.13187085892E+02  0.51100000000E-03 0.  1.
        -11    1    3    3    0    0 -0.27267114027E+02  0.99207652009E+01  0.10737412632E+02  0.30938796354E+02  0.51100000000E-03 0. -1.
        -12    1    3    3    0    0 -0.98854837117E+00  0.17313413241E+01  0.30206171423E+00  0.20164354545E+01  0.00000000000E+00 0.  1.
</event>
<event>
 7    1  0.3086024E-009  0.4614232E+02  0.7816164E-02  0.1320468E+00
        -11   -1    0    0    0    0  0.00000000000E+00  0.00000000000E+00  0.45593999997E+02  0.45594000000E+02  0.51100000000E-03 0.  1.
         11   -1    0    0    0    0 -0.00000000000E+00 -0.00000000000E+00 -0.45593999997E+02  0.45594000000E+02  0.51100000000E-03 0. -1.
    9900012    2    1    2    0    0 -0.28427743471E+02  0.13170980846E+01  0.34917647837E+02  0.46142317891E+02  0.10000001184E+02 0.  0.
         12    1    1    2    0    0  0.28427743471E+02 -0.13170980846E+01 -0.34917647837E+02  0.45045682109E+02  0.00000000000E+00 0. -1.
         11    1    3    3    0    0 -0.96162884619E+01  0.21245479609E+01  0.88522942412E+01  0.13241971961E+02  0.51100000000E-03 0. -1.
        -11    1    3    3    0    0 -0.70437653479E+01 -0.16541260042E+00  0.46055871072E+01  0.84174476219E+01  0.51100000000E-03 0.  1.
         12    1    3    3    0    0 -0.11767689661E+02 -0.64203727585E+00  0.21459766489E+02  0.24482898308E+02  0.00000000000E+00 0. -1.
</event>
<event>
 7    1  0.3086024E-009  0.4614231E+02  0.7816164E-02  0.1320468E+00
        -11   -1    0    0    0    0  0.00000000000E+00  0.00000000000E+00  0.45593999997E+02  0.45594000000E+02  0.51100000000E-03 0. -1.
         11   -1    0    0    0    0 -0.00000000000E+00 -0.00000000000E+00 -0.45593999997E+02  0.45594000000E+02  0.51100000000E-03 0.  1.
    9900012    2    1    2    0    0  0.29642008595E+02  0.10547258515E+02 -0.32236943463E+02  0.46142313640E+02  0.99999624231E+01 0.  0.
         12    1    1    2    0    0 -0.29642008595E+02 -0.10547258515E+02  0.32236943463E+02  0.45045686360E+02  0.00000000000E+00 0. -1.
         11    1    3    3    0    0  0.24551321395E+01  0.18746397627E+01 -0.10271268897E+01  0.32552938379E+01  0.51100000000E-03 0. -1.
        -11    1    3    3    0    0  0.12845202072E+02  0.70517781288E+01 -0.12524955271E+02  0.19276962828E+02  0.51100000000E-03 0.  1.
         12    1    3    3    0    0  0.14341674384E+02  0.16208406236E+01 -0.18684861303E+02  0.23610056975E+02  0.00000000000E+00 0. -1.
</event>
<event>
 7    1  0.3086024E-009  0.4614232E+02  0.7816164E-02  0.1320468E+00
        -11   -1    0    0    0    0  0.00000000000E+00  0.00000000000E+00  0.45593999997E+02  0.45594000000E+02  0.51100000000E-03 0.  1.
         11   -1    0    0    0    0 -0.00000000000E+00 -0.00000000000E+00 -0.45593999997E+02  0.45594000000E+02  0.51100000000E-03 0. -1.
    9900012    2    1    2    0    0  0.80176264245E+01 -0.37656001920E+02  0.23384967121E+02  0.46142317617E+02  0.99999986826E+01 0.  0.
         12    1    1    2    0    0 -0.80176264245E+01  0.37656001920E+02 -0.23384967121E+02  0.45045682383E+02  0.00000000000E+00 0. -1.
         11    1    3    3    0    0  0.12963063968E+01 -0.17840957869E+02  0.59263146069E+01  0.18844134181E+02  0.51100000000E-03 0. -1.
        -11    1    3    3    0    0  0.24364914482E+01 -0.74565825318E+01  0.55537055456E+01  0.96114909966E+01  0.51100000000E-03 0.  1.
         12    1    3    3    0    0  0.42848285796E+01 -0.12358461519E+02  0.11904946969E+02  0.17686692439E+02  0.00000000000E+00 0. -1.
</event>
<event>
 7    1  0.3086024E-009  0.4614232E+02  0.7816164E-02  0.1320468E+00
        -11   -1    0    0    0    0  0.00000000000E+00  0.00000000000E+00  0.45593999997E+02  0.45594000000E+02  0.51100000000E-03 0.  1.
         11   -1    0    0    0    0 -0.00000000000E+00 -0.00000000000E+00 -0.45593999997E+02  0.45594000000E+02  0.51100000000E-03 0. -1.
    9900012    2    1    2    0    0  0.11469558700E+02  0.31348983546E+02  0.30245726210E+02  0.46142317631E+02  0.99999988142E+01 0.  0.
         12    1    1    2    0    0 -0.11469558700E+02 -0.31348983546E+02 -0.30245726210E+02  0.45045682369E+02  0.00000000000E+00 0. -1.
         11    1    3    3    0    0  0.13088581819E+01  0.18304453247E+01  0.19551574732E+00  0.22587311694E+01  0.51100000000E-03 0. -1.
        -11    1    3    3    0    0 -0.69900372820E+00  0.57536342992E+01  0.64908095426E+01  0.87019263752E+01  0.51100000000E-03 0.  1.
        -12    1    3    3    0    0  0.10859704247E+02  0.23764903922E+02  0.23559400920E+02  0.35181660086E+02  0.00000000000E+00 0.  1.
</event>
<event>
 7    1  0.3086024E-009  0.4614232E+02  0.7816164E-02  0.1320468E+00
        -11   -1    0    0    0    0  0.00000000000E+00  0.00000000000E+00  0.45593999997E+02  0.45594000000E+02  0.51100000000E-03 0.  1.
         11   -1    0    0    0    0 -0.00000000000E+00 -0.00000000000E+00 -0.45593999997E+02  0.45594000000E+02  0.51100000000E-03 0. -1.
    9900012    2    1    2    0    0  0.44345976472E+01  0.15626840862E+02  0.42014874267E+02  0.46142317951E+02  0.10000001729E+02 0.  0.
         12    1    1    2    0    0 -0.44345976472E+01 -0.15626840862E+02 -0.42014874267E+02  0.45045682049E+02  0.00000000000E+00 0. -1.
         11    1    3    3    0    0  0.48282883015E+00  0.73312789182E+01  0.11121025676E+02  0.13328840407E+02  0.51100000000E-03 0. -1.
        -11    1    3    3    0    0 -0.21560130814E-01  0.57720777266E+01  0.22074342463E+02  0.22816527815E+02  0.51100000000E-03 0.  1.
        -12    1    3    3    0    0  0.39733289479E+01  0.25234842172E+01  0.88195061284E+01  0.99969497284E+01  0.00000000000E+00 0.  1.
</event>
<event>
 7    1  0.3086024E-009  0.4614232E+02  0.7816164E-02  0.1320468E+00
        -11   -1    0    0    0    0  0.00000000000E+00  0.00000000000E+00  0.45593999997E+02  0.45594000000E+02  0.51100000000E-03 0.  1.
         11   -1    0    0    0    0 -0.00000000000E+00 -0.00000000000E+00 -0.45593999997E+02  0.45594000000E+02  0.51100000000E-03 0. -1.
    9900012    2    1    2    0    0 -0.19203595905E+02  0.33474989980E+02  0.23232745208E+02  0.46142317634E+02  0.99999988445E+01 0.  0.
         12    1    1    2    0    0  0.19203595905E+02 -0.33474989980E+02 -0.23232745208E+02  0.45045682366E+02  0.00000000000E+00 0. -1.
         11    1    3    3    0    0 -0.49331335648E+01  0.13852169542E+02  0.10264694958E+02  0.17932717882E+02  0.51100000000E-03 0. -1.
        -11    1    3    3    0    0 -0.10013649113E+02  0.13231174756E+02  0.11981882584E+02  0.20467111778E+02  0.51100000000E-03 0.  1.
         12    1    3    3    0    0 -0.42568132275E+01  0.63916456815E+01  0.98616766594E+00  0.77424879746E+01  0.00000000000E+00 0. -1.
</event>
<event>
 7    1  0.3086024E-009  0.4614232E+02  0.7816164E-02  0.1320468E+00
        -11   -1    0    0    0    0  0.00000000000E+00  0.00000000000E+00  0.45593999997E+02  0.45594000000E+02  0.51100000000E-03 0.  1.
         11   -1    0    0    0    0 -0.00000000000E+00 -0.00000000000E+00 -0.45593999997E+02  0.45594000000E+02  0.51100000000E-03 0. -1.
    9900012    2    1    2    0    0 -0.13043957427E+02  0.12500707085E+02  0.41263798984E+02  0.46142316416E+02  0.99999877302E+01 0.  0.
         12    1    1    2    0    0  0.13043957427E+02 -0.12500707085E+02 -0.41263798984E+02  0.45045683584E+02  0.00000000000E+00 0. -1.
         11    1    3    3    0    0  0.28650702003E+00  0.85685696028E-01  0.10016553024E+01  0.10453429662E+01  0.51100000000E-03 0. -1.
        -11    1    3    3    0    0  0.38301915954E+00  0.42570044403E+01  0.69250973207E+01  0.81379213344E+01  0.51100000000E-03 0.  1.
        -12    1    3    3    0    0 -0.13713483606E+02  0.81580169486E+01  0.33337046361E+02  0.36959052115E+02  0.00000000000E+00 0.  1.
</event>
<event>
 7    1  0.3086024E-009  0.4614232E+02  0.7816164E-02  0.1320468E+00
        -11   -1    0    0    0    0  0.00000000000E+00  0.00000000000E+00  0.45593999997E+02  0.45594000000E+02  0.51100000000E-03 0.  1.
         11   -1    0    0    0    0 -0.00000000000E+00 -0.00000000000E+00 -0.45593999997E+02  0.45594000000E+02  0.51100000000E-03 0. -1.
    9900012    2    1    2    0    0  0.41921922355E+02  0.16380529074E+02  0.18287178311E+01  0.46142317459E+02  0.99999972425E+01 0.  0.
         12    1    1    2    0    0 -0.41921922355E+02 -0.16380529074E+02 -0.18287178311E+01  0.45045682541E+02  0.00000000000E+00 0. -1.
         11    1    3    3    0    0  0.14998394852E+02  0.10277663152E+02 -0.15460755898E+01  0.18247535670E+02  0.51100000000E-03 0. -1.
        -11    1    3    3    0    0  0.30704269532E+01  0.32602153280E+00  0.96062088069E+00  0.32336673379E+01  0.51100000000E-03 0.  1.
         12    1    3    3    0    0  0.23853100550E+02  0.57768443888E+01  0.24141725402E+01  0.24661114451E+02  0.00000000000E+00 0. -1.
</event>
<event>
 7    1  0.3086024E-009  0.4614232E+02  0.7816164E-02  0.1320468E+00
        -11   -1    0    0    0    0  0.00000000000E+00  0.00000000000E+00  0.45593999997E+02  0.45594000000E+02  0.51100000000E-03 0.  1.
         11   -1    0    0    0    0 -0.00000000000E+00 -0.00000000000E+00 -0.45593999997E+02  0.45594000000E+02  0.51100000000E-03 0. -1.
    9900012    2    1    2    0    0 -0.31237592252E+02  0.30830757437E+02  0.10138576681E+02  0.46142317511E+02  0.99999977164E+01 0.  0.
         12    1    1    2    0    0  0.31237592252E+02 -0.30830757437E+02 -0.10138576681E+02  0.45045682489E+02  0.00000000000E+00 0. -1.
         11    1    3    3    0    0 -0.98098094246E+01  0.15598943562E+02  0.36208715358E+01  0.18779513097E+02  0.51100000000E-03 0. -1.
        -11    1    3    3    0    0 -0.18634879107E+02  0.14040077286E+02  0.46288691163E+01  0.23786738303E+02  0.51100000000E-03 0.  1.
         12    1    3    3    0    0 -0.27929037203E+01  0.11917365882E+01  0.18888360292E+01  0.35760661112E+01  0.00000000000E+00 0. -1.
</event>
<event>
 7    1  0.3086024E-009  0.4614232E+02  0.7816164E-02  0.1320468E+00
        -11   -1    0    0    0    0  0.00000000000E+00  0.00000000000E+00  0.45593999997E+02  0.45594000000E+02  0.51100000000E-03 0.  1.
         11   -1    0    0    0    0 -0.00000000000E+00 -0.00000000000E+00 -0.45593999997E+02  0.45594000000E+02  0.51100000000E-03 0. -1.
    9900012    2    1    2    0    0 -0.19577347379E+02 -0.34034456736E+02  0.22079326001E+02  0.46142318605E+02  0.10000007695E+02 0.  0.
         12    1    1    2    0    0  0.19577347379E+02  0.34034456736E+02 -0.22079326001E+02  0.45045681395E+02  0.00000000000E+00 0. -1.
         11    1    3    3    0    0 -0.55274254526E+01 -0.89621527038E+01  0.41397429009E+01  0.11314154178E+02  0.51100000000E-03 0. -1.
        -11    1    3    3    0    0 -0.14588884888E+02 -0.22087604958E+02  0.14285840558E+02  0.30079612626E+02  0.51100000000E-03 0.  1.
        -12    1    3    3    0    0  0.53896296226E+00 -0.29846990747E+01  0.36537425415E+01  0.47485518003E+01  0.00000000000E+00 0.  1.
</event>
<event>
 7    1  0.3086024E-009  0.4614232E+02  0.7816164E-02  0.1320468E+00
        -11   -1    0    0    0    0  0.00000000000E+00  0.00000000000E+00  0.45593999997E+02  0.45594000000E+02  0.51100000000E-03 0.  1.
         11   -1    0    0    0    0 -0.00000000000E+00 -0.00000000000E+00 -0.45593999997E+02  0.45594000000E+02  0.51100000000E-03 0. -1.
    9900012    2    1    2    0    0  0.20768517126E+02 -0.23529506598E+02  0.32313225702E+02  0.46142317193E+02  0.99999948155E+01 0.  0.
         12    1    1    2    0    0 -0.20768517126E+02  0.23529506598E+02 -0.32313225702E+02  0.45045682807E+02  0.00000000000E+00 0. -1.
         11    1    3    3    0    0  0.26421672919E+01 -0.82355265440E+01  0.83261606900E+01  0.12005411178E+02  0.51100000000E-03 0. -1.
        -11    1    3    3    0    0  0.13134766463E+02 -0.10074447040E+02  0.13281314669E+02  0.21222862503E+02  0.51100000000E-03 0.  1.
         12    1    3    3    0    0  0.49915833704E+01 -0.52195330131E+01  0.10705750343E+02  0.12914043512E+02  0.00000000000E+00 0. -1.
</event>
<event>
 7    1  0.3086024E-009  0.4614232E+02  0.7816164E-02  0.1320468E+00
        -11   -1    0    0    0    0  0.00000000000E+00  0.00000000000E+00  0.45593999997E+02  0.45594000000E+02  0.51100000000E-03 0.  1.
         11   -1    0    0    0    0 -0.00000000000E+00 -0.00000000000E+00 -0.45593999997E+02  0.45594000000E+02  0.51100000000E-03 0. -1.
    9900012    2    1    2    0    0 -0.19843916818E+02  0.40098442673E+02  0.52390236224E+01  0.46142317544E+02  0.99999980167E+01 0.  0.
         12    1    1    2    0    0  0.19843916818E+02 -0.40098442673E+02 -0.52390236224E+01  0.45045682456E+02  0.00000000000E+00 0. -1.
         11    1    3    3    0    0 -0.14794455665E+02  0.23949292781E+02 -0.40143923278E+00  0.28153253753E+02  0.51100000000E-03 0. -1.
        -11    1    3    3    0    0 -0.30885914894E+01  0.61760549193E+01  0.26214085621E+01  0.73861244821E+01  0.51100000000E-03 0.  1.
         12    1    3    3    0    0 -0.19608696631E+01  0.99730949720E+01  0.30190542931E+01  0.10602939309E+02  0.00000000000E+00 0. -1.
</event>
<event>
 7    1  0.3086024E-009  0.4614231E+02  0.7816164E-02  0.1320468E+00
        -11   -1    0    0    0    0  0.00000000000E+00  0.00000000000E+00  0.45593999997E+02  0.45594000000E+02  0.51100000000E-03 0.  1.
         11   -1    0    0    0    0 -0.00000000000E+00 -0.00000000000E+00 -0.45593999997E+02  0.45594000000E+02  0.51100000000E-03 0. -1.
    9900012    2    1    2    0    0  0.31954775136E+02  0.42254982772E+01  0.31466669578E+02  0.46142314480E+02  0.99999700799E+01 0.  0.
         12    1    1    2    0    0 -0.31954775136E+02 -0.42254982772E+01 -0.31466669578E+02  0.45045685520E+02  0.00000000000E+00 0. -1.
         11    1    3    3    0    0  0.93102771173E+01  0.34915331080E+01  0.58959527061E+01  0.11560031229E+02  0.51100000000E-03 0. -1.
        -11    1    3    3    0    0  0.18494728376E+02 -0.14771432163E+01  0.21049097132E+02  0.28058891997E+02  0.51100000000E-03 0.  1.
        -12    1    3    3    0    0  0.41497696426E+01  0.22111083855E+01  0.45216197392E+01  0.65233912534E+01  0.00000000000E+00 0.  1.
</event>
<event>
 7    1  0.3086024E-009  0.4614232E+02  0.7816164E-02  0.1320468E+00
        -11   -1    0    0    0    0  0.00000000000E+00  0.00000000000E+00  0.45593999997E+02  0.45594000000E+02  0.51100000000E-03 0.  1.
         11   -1    0    0    0    0 -0.00000000000E+00 -0.00000000000E+00 -0.45593999997E+02  0.45594000000E+02  0.51100000000E-03 0. -1.
    9900012    2    1    2    0    0  0.20925046143E+02 -0.34689073707E+02 -0.19695793926E+02  0.46142315533E+02  0.99999796849E+01 0.  0.
         12    1    1    2    0    0 -0.20925046143E+02  0.34689073707E+02  0.19695793926E+02  0.45045684467E+02  0.00000000000E+00 0. -1.
         11    1    3    3    0    0 -0.37192155557E+00 -0.36598956755E+01 -0.78859638989E+00  0.37623193015E+01  0.51100000000E-03 0. -1.
        -11    1    3    3    0    0  0.15912738918E+02 -0.19943157363E+02 -0.14106026140E+02  0.29153469077E+02  0.51100000000E-03 0.  1.
         12    1    3    3    0    0  0.53842287810E+01 -0.11086020668E+02 -0.48011713957E+01  0.13226527155E+02  0.00000000000E+00 0. -1.
</event>
<event>
 7    1  0.3086024E-009  0.4614232E+02  0.7816164E-02  0.1320468E+00
        -11   -1    0    0    0    0  0.00000000000E+00  0.00000000000E+00  0.45593999997E+02  0.45594000000E+02  0.51100000000E-03 0.  1.
         11   -1    0    0    0    0 -0.00000000000E+00 -0.00000000000E+00 -0.45593999997E+02  0.45594000000E+02  0.51100000000E-03 0. -1.
    9900012    2    1    2    0    0  0.36897941467E+02  0.70542720525E+01  0.24857446984E+02  0.46142317530E+02  0.99999978919E+01 0.  0.
         12    1    1    2    0    0 -0.36897941467E+02 -0.70542720525E+01 -0.24857446984E+02  0.45045682470E+02  0.00000000000E+00 0. -1.
         11    1    3    3    0    0  0.19863364098E+01  0.46661751813E+00  0.26766771905E+01  0.33656894219E+01  0.51100000000E-03 0. -1.
        -11    1    3    3    0    0  0.14403711894E+02  0.14171286947E+01  0.13889741413E+02  0.20059912433E+02  0.51100000000E-03 0.  1.
        -12    1    3    3    0    0  0.20507893163E+02  0.51705258396E+01  0.82910283799E+01  0.22716715675E+02  0.00000000000E+00 0.  1.
</event>
<event>
 7    1  0.3086024E-009  0.4614232E+02  0.7816164E-02  0.1320468E+00
        -11   -1    0    0    0    0  0.00000000000E+00  0.00000000000E+00  0.45593999997E+02  0.45594000000E+02  0.51100000000E-03 0. -1.
         11   -1    0    0    0    0 -0.00000000000E+00 -0.00000000000E+00 -0.45593999997E+02  0.45594000000E+02  0.51100000000E-03 0.  1.
    9900012    2    1    2    0    0  0.14401782103E+02 -0.42678955698E+02  0.45701052576E+00  0.46142318233E+02  0.10000004305E+02 0.  0.
         12    1    1    2    0    0 -0.14401782103E+02  0.42678955698E+02 -0.45701052576E+00  0.45045681767E+02  0.00000000000E+00 0. -1.
         11    1    3    3    0    0  0.99616399337E+01 -0.31603832712E+02 -0.31730079985E+01  0.33288203501E+02  0.51100000000E-03 0.  1.
        -11    1    3    3    0    0  0.29634700898E+01 -0.35008083888E+01  0.94193437636E+00  0.46824197782E+01  0.51100000000E-03 0. -1.
        -12    1    3    3    0    0  0.14766720798E+01 -0.75743145969E+01  0.26880841479E+01  0.81716949545E+01  0.00000000000E+00 0.  1.
</event>
<event>
 7    1  0.3086024E-009  0.4614232E+02  0.7816164E-02  0.1320468E+00
        -11   -1    0    0    0    0  0.00000000000E+00  0.00000000000E+00  0.45593999997E+02  0.45594000000E+02  0.51100000000E-03 0.  1.
         11   -1    0    0    0    0 -0.00000000000E+00 -0.00000000000E+00 -0.45593999997E+02  0.45594000000E+02  0.51100000000E-03 0. -1.
    9900012    2    1    2    0    0  0.41161779203E+02 -0.14362289140E+02  0.11337815843E+02  0.46142317803E+02  0.10000000383E+02 0.  0.
         12    1    1    2    0    0 -0.41161779203E+02  0.14362289140E+02 -0.11337815843E+02  0.45045682197E+02  0.00000000000E+00 0. -1.
         11    1    3    3    0    0  0.18337113985E+02 -0.87253408675E+01  0.33849513090E+01  0.20587355784E+02  0.51100000000E-03 0. -1.
        -11    1    3    3    0    0  0.18626646307E+02 -0.57292696323E+01  0.42265135517E+01  0.19940910216E+02  0.51100000000E-03 0.  1.
         12    1    3    3    0    0  0.41980189111E+01  0.92321359563E-01  0.37263509821E+01  0.56140518036E+01  0.00000000000E+00 0. -1.
</event>
<event>
 7    1  0.3086024E-009  0.4614232E+02  0.7816164E-02  0.1320468E+00
        -11   -1    0    0    0    0  0.00000000000E+00  0.00000000000E+00  0.45593999997E+02  0.45594000000E+02  0.51100000000E-03 0.  1.
         11   -1    0    0    0    0 -0.00000000000E+00 -0.00000000000E+00 -0.45593999997E+02  0.45594000000E+02  0.51100000000E-03 0. -1.
    9900012    2    1    2    0    0 -0.78545226243E+01  0.40496441486E+02  0.18095804922E+02  0.46142318137E+02  0.10000003428E+02 0.  0.
         12    1    1    2    0    0  0.78545226243E+01 -0.40496441486E+02 -0.18095804922E+02  0.45045681863E+02  0.00000000000E+00 0. -1.
         11    1    3    3    0    0 -0.65819673852E+01  0.27799609585E+02  0.97703279810E+01  0.30192712645E+02  0.51100000000E-03 0. -1.
        -11    1    3    3    0    0 -0.28484337599E+01  0.61026064345E+01  0.50633724431E+01  0.84257415660E+01  0.51100000000E-03 0.  1.
         12    1    3    3    0    0  0.15758785208E+01  0.65942254667E+01  0.32621044983E+01  0.75238639259E+01  0.00000000000E+00 0. -1.
</event>
<event>
 7    1  0.3086024E-009  0.4614232E+02  0.7816164E-02  0.1320468E+00
        -11   -1    0    0    0    0  0.00000000000E+00  0.00000000000E+00  0.45593999997E+02  0.45594000000E+02  0.51100000000E-03 0.  1.
         11   -1    0    0    0    0 -0.00000000000E+00 -0.00000000000E+00 -0.45593999997E+02  0.45594000000E+02  0.51100000000E-03 0. -1.
    9900012    2    1    2    0    0  0.40318341346E+02 -0.87667556936E+01  0.18074532089E+02  0.46142319136E+02  0.10000012534E+02 0.  0.
         12    1    1    2    0    0 -0.40318341346E+02  0.87667556936E+01 -0.18074532089E+02  0.45045680864E+02  0.00000000000E+00 0. -1.
         11    1    3    3    0    0  0.93204275499E+01  0.16568053814E+01  0.58614684630E+01  0.11134279797E+02  0.51100000000E-03 0. -1.
        -11    1    3    3    0    0  0.99614755022E+01 -0.46556787366E+01  0.41047859994E+01  0.11736933460E+02  0.51100000000E-03 0.  1.
         12    1    3    3    0    0  0.21036438294E+02 -0.57678823385E+01  0.81082776267E+01  0.23271105879E+02  0.00000000000E+00 0. -1.
</event>
<event>
 7    1  0.3086024E-009  0.4614232E+02  0.7816164E-02  0.1320468E+00
        -11   -1    0    0    0    0  0.00000000000E+00  0.00000000000E+00  0.45593999997E+02  0.45594000000E+02  0.51100000000E-03 0.  1.
         11   -1    0    0    0    0 -0.00000000000E+00 -0.00000000000E+00 -0.45593999997E+02  0.45594000000E+02  0.51100000000E-03 0. -1.
    9900012    2    1    2    0    0 -0.15594924224E+02 -0.11835993008E+00  0.42259884136E+02  0.46142317879E+02  0.10000001072E+02 0.  0.
         12    1    1    2    0    0  0.15594924224E+02  0.11835993008E+00 -0.42259884136E+02  0.45045682121E+02  0.00000000000E+00 0. -1.
         11    1    3    3    0    0 -0.40796574558E+01  0.34574415940E+01  0.71209889813E+01  0.89053911574E+01  0.51100000000E-03 0. -1.
        -11    1    3    3    0    0 -0.48661744123E+01 -0.21690567972E+01  0.12203612652E+02  0.13315878597E+02  0.51100000000E-03 0.  1.
         12    1    3    3    0    0 -0.66490923556E+01 -0.14067447269E+01  0.22935282502E+02  0.23921048124E+02  0.00000000000E+00 0. -1.
</event>
<event>
 7    1  0.3086024E-009  0.4614232E+02  0.7816164E-02  0.1320468E+00
        -11   -1    0    0    0    0  0.00000000000E+00  0.00000000000E+00  0.45593999997E+02  0.45594000000E+02  0.51100000000E-03 0. -1.
         11   -1    0    0    0    0 -0.00000000000E+00 -0.00000000000E+00 -0.45593999997E+02  0.45594000000E+02  0.51100000000E-03 0.  1.
    9900012    2    1    2    0    0 -0.43273433004E+00  0.36424486157E+02 -0.26498736151E+02  0.46142317983E+02  0.10000002020E+02 0.  0.
         12    1    1    2    0    0  0.43273433004E+00 -0.36424486157E+02  0.26498736151E+02  0.45045682017E+02  0.00000000000E+00 0. -1.
         11    1    3    3    0    0 -0.37646233996E+01  0.12932566283E+02 -0.74548681598E+01  0.15394762731E+02  0.51100000000E-03 0. -1.
        -11    1    3    3    0    0 -0.91669404169E+00  0.72764119154E+01 -0.49621562160E+01  0.88549134893E+01  0.51100000000E-03 0.  1.
         12    1    3    3    0    0  0.42485831112E+01  0.16215507959E+02 -0.14081711775E+02  0.21892641762E+02  0.00000000000E+00 0. -1.
</event>
<event>
 7    1  0.3086024E-009  0.4614232E+02  0.7816164E-02  0.1320468E+00
        -11   -1    0    0    0    0  0.00000000000E+00  0.00000000000E+00  0.45593999997E+02  0.45594000000E+02  0.51100000000E-03 0. -1.
         11   -1    0    0    0    0 -0.00000000000E+00 -0.00000000000E+00 -0.45593999997E+02  0.45594000000E+02  0.51100000000E-03 0.  1.
    9900012    2    1    2    0    0 -0.28313347630E+02  0.20590900416E+02 -0.28345769678E+02  0.46142317714E+02  0.99999995708E+01 0.  0.
         12    1    1    2    0    0  0.28313347630E+02 -0.20590900416E+02  0.28345769678E+02  0.45045682286E+02  0.00000000000E+00 0. -1.
         11    1    3    3    0    0 -0.79470759713E+01  0.99026448878E+01 -0.13974653582E+02  0.18881454798E+02  0.51100000000E-03 0. -1.
        -11    1    3    3    0    0 -0.26607137620E+01  0.11012684171E+01 -0.29052325407E+01  0.40905459570E+01  0.51100000000E-03 0.  1.
         12    1    3    3    0    0 -0.17705557896E+02  0.95869871115E+01 -0.11465883555E+02  0.23170316959E+02  0.00000000000E+00 0. -1.
</event>
<event>
 7    1  0.3086024E-009  0.4614232E+02  0.7816164E-02  0.1320468E+00
        -11   -1    0    0    0    0  0.00000000000E+00  0.00000000000E+00  0.45593999997E+02  0.45594000000E+02  0.51100000000E-03 0. -1.
         11   -1    0    0    0    0 -0.00000000000E+00 -0.00000000000E+00 -0.45593999997E+02  0.45594000000E+02  0.51100000000E-03 0.  1.
    9900012    2    1    2    0    0 -0.11407373799E+02 -0.25087088678E+02 -0.35631774093E+02  0.46142317406E+02  0.99999967590E+01 0.  0.
         12    1    1    2    0    0  0.11407373799E+02  0.25087088678E+02  0.35631774093E+02  0.45045682594E+02  0.00000000000E+00 0. -1.
         11    1    3    3    0    0  0.33770612072E+00 -0.49774723131E+01 -0.30678114577E+01  0.58566836565E+01  0.51100000000E-03 0. -1.
        -11    1    3    3    0    0 -0.77531454738E+01 -0.15065485283E+02 -0.20340831671E+02  0.26473185393E+02  0.51100000000E-03 0.  1.
        -12    1    3    3    0    0 -0.39919344459E+01 -0.50441310820E+01 -0.12223130965E+02  0.13812448356E+02  0.00000000000E+00 0.  1.
</event>
<event>
 7    1  0.3086024E-009  0.4614232E+02  0.7816164E-02  0.1320468E+00
        -11   -1    0    0    0    0  0.00000000000E+00  0.00000000000E+00  0.45593999997E+02  0.45594000000E+02  0.51100000000E-03 0. -1.
         11   -1    0    0    0    0 -0.00000000000E+00 -0.00000000000E+00 -0.45593999997E+02  0.45594000000E+02  0.51100000000E-03 0.  1.
    9900012    2    1    2    0    0  0.36173587971E+02  0.26722955573E+02  0.25433655902E+01  0.46142317302E+02  0.99999958116E+01 0.  0.
         12    1    1    2    0    0 -0.36173587971E+02 -0.26722955573E+02 -0.25433655902E+01  0.45045682698E+02  0.00000000000E+00 0. -1.
         11    1    3    3    0    0  0.18527989091E+02  0.11992853283E+02  0.45584790249E+01  0.22536517941E+02  0.51100000000E-03 0. -1.
        -11    1    3    3    0    0  0.94716755677E+01  0.10958457569E+02 -0.18500118590E+01  0.14602156501E+02  0.51100000000E-03 0.  1.
         12    1    3    3    0    0  0.81739233123E+01  0.37716447213E+01 -0.16510157577E+00  0.90036428599E+01  0.00000000000E+00 0. -1.
</event>
<event>
 7    1  0.3086024E-009  0.4614232E+02  0.7816164E-02  0.1320468E+00
        -11   -1    0    0    0    0  0.00000000000E+00  0.00000000000E+00  0.45593999997E+02  0.45594000000E+02  0.51100000000E-03 0.  1.
         11   -1    0    0    0    0 -0.00000000000E+00 -0.00000000000E+00 -0.45593999997E+02  0.45594000000E+02  0.51100000000E-03 0. -1.
    9900012    2    1    2    0    0 -0.33357986685E+02 -0.22863233735E+02  0.19840123896E+02  0.46142320421E+02  0.10000024257E+02 0.  0.
         12    1    1    2    0    0  0.33357986685E+02  0.22863233735E+02 -0.19840123896E+02  0.45045679579E+02  0.00000000000E+00 0. -1.
         11    1    3    3    0    0 -0.48780885697E+01 -0.42580235453E+01  0.63856022846E+01  0.90940876070E+01  0.51100000000E-03 0. -1.
        -11    1    3    3    0    0 -0.18177958146E+02 -0.10315444861E+02  0.54826963384E+01  0.21608019910E+02  0.51100000000E-03 0.  1.
        -12    1    3    3    0    0 -0.10301939970E+02 -0.82897653292E+01  0.79718252726E+01  0.15440212904E+02  0.00000000000E+00 0.  1.
</event>
<event>
 7    1  0.3086024E-009  0.4614231E+02  0.7816164E-02  0.1320468E+00
        -11   -1    0    0    0    0  0.00000000000E+00  0.00000000000E+00  0.45593999997E+02  0.45594000000E+02  0.51100000000E-03 0. -1.
         11   -1    0    0    0    0 -0.00000000000E+00 -0.00000000000E+00 -0.45593999997E+02  0.45594000000E+02  0.51100000000E-03 0.  1.
    9900012    2    1    2    0    0 -0.36129291602E+02  0.18235437411E+01 -0.26841442794E+02  0.46142311253E+02  0.99999406544E+01 0.  0.
         12    1    1    2    0    0  0.36129291602E+02 -0.18235437411E+01  0.26841442794E+02  0.45045688747E+02  0.00000000000E+00 0. -1.
         11    1    3    3    0    0 -0.44699429938E+01  0.16603711829E+01 -0.89581311560E+00  0.48517733080E+01  0.51100000000E-03 0. -1.
        -11    1    3    3    0    0 -0.31407445003E+02 -0.32675731195E+00 -0.25945790206E+02  0.40739641649E+02  0.51100000000E-03 0.  1.
        -12    1    3    3    0    0 -0.25190360485E+00  0.48992987014E+00  0.16052784317E-03  0.55089629656E+00  0.00000000000E+00 0.  1.
</event>
<event>
 7    1  0.3086024E-009  0.4614232E+02  0.7816164E-02  0.1320468E+00
        -11   -1    0    0    0    0  0.00000000000E+00  0.00000000000E+00  0.45593999997E+02  0.45594000000E+02  0.51100000000E-03 0.  1.
         11   -1    0    0    0    0 -0.00000000000E+00 -0.00000000000E+00 -0.45593999997E+02  0.45594000000E+02  0.51100000000E-03 0. -1.
    9900012    2    1    2    0    0 -0.23485106092E+02 -0.30457807868E+01  0.38318225674E+02  0.46142318658E+02  0.10000008177E+02 0.  0.
         12    1    1    2    0    0  0.23485106092E+02  0.30457807868E+01 -0.38318225674E+02  0.45045681342E+02  0.00000000000E+00 0. -1.
         11    1    3    3    0    0 -0.76328468266E+01 -0.35461802633E+01  0.94526597469E+01  0.12656560421E+02  0.51100000000E-03 0.  1.
        -11    1    3    3    0    0 -0.36671982208E+01  0.10318856499E+01  0.28651644331E+01  0.47667911927E+01  0.51100000000E-03 0. -1.
         12    1    3    3    0    0 -0.12185061045E+02 -0.53148617340E+00  0.26000401494E+02  0.28718967044E+02  0.00000000000E+00 0. -1.
</event>
<event>
 7    1  0.3086024E-009  0.4614233E+02  0.7816164E-02  0.1320468E+00
        -11   -1    0    0    0    0  0.00000000000E+00  0.00000000000E+00  0.45593999997E+02  0.45594000000E+02  0.51100000000E-03 0.  1.
         11   -1    0    0    0    0 -0.00000000000E+00 -0.00000000000E+00 -0.45593999997E+02  0.45594000000E+02  0.51100000000E-03 0. -1.
    9900012    2    1    2    0    0 -0.30244109208E+02 -0.32281705908E+01  0.33226278811E+02  0.46142325061E+02  0.10000066564E+02 0.  0.
         12    1    1    2    0    0  0.30244109208E+02  0.32281705908E+01 -0.33226278811E+02  0.45045674939E+02  0.00000000000E+00 0. -1.
         11    1    3    3    0    0 -0.22152052105E+02  0.13281420492E+01  0.24512598048E+02  0.33065765333E+02  0.51100000000E-03 0.  1.
        -11    1    3    3    0    0 -0.22392538130E+01 -0.27802876656E+01  0.39486642102E+01  0.53231763496E+01  0.51100000000E-03 0. -1.
         12    1    3    3    0    0 -0.58528032896E+01 -0.17760249744E+01  0.47650165530E+01  0.77533833781E+01  0.00000000000E+00 0. -1.
</event>
<event>
 7    1  0.3086024E-009  0.4614232E+02  0.7816164E-02  0.1320468E+00
        -11   -1    0    0    0    0  0.00000000000E+00  0.00000000000E+00  0.45593999997E+02  0.45594000000E+02  0.51100000000E-03 0.  1.
         11   -1    0    0    0    0 -0.00000000000E+00 -0.00000000000E+00 -0.45593999997E+02  0.45594000000E+02  0.51100000000E-03 0. -1.
    9900012    2    1    2    0    0  0.27358910408E+02  0.33532820448E+02 -0.12496138287E+02  0.46142317655E+02  0.99999990285E+01 0.  0.
         12    1    1    2    0    0 -0.27358910408E+02 -0.33532820448E+02  0.12496138287E+02  0.45045682345E+02  0.00000000000E+00 0. -1.
         11    1    3    3    0    0  0.24810322424E+02  0.28384794210E+02 -0.95904157469E+01  0.38900189146E+02  0.51100000000E-03 0. -1.
        -11    1    3    3    0    0 -0.12084399652E+00  0.25304299561E+01 -0.43603737180E-01  0.25336891249E+01  0.51100000000E-03 0.  1.
         12    1    3    3    0    0  0.26694319805E+01  0.26175962819E+01 -0.28621188027E+01  0.47084393842E+01  0.00000000000E+00 0. -1.
</event>
<event>
 7    1  0.3086024E-009  0.4614232E+02  0.7816164E-02  0.1320468E+00
        -11   -1    0    0    0    0  0.00000000000E+00  0.00000000000E+00  0.45593999997E+02  0.45594000000E+02  0.51100000000E-03 0.  1.
         11   -1    0    0    0    0 -0.00000000000E+00 -0.00000000000E+00 -0.45593999997E+02  0.45594000000E+02  0.51100000000E-03 0. -1.
    9900012    2    1    2    0    0  0.23513807713E+02  0.21995290040E+02  0.31502722432E+02  0.46142318101E+02  0.10000003099E+02 0.  0.
         12    1    1    2    0    0 -0.23513807713E+02 -0.21995290040E+02 -0.31502722432E+02  0.45045681899E+02  0.00000000000E+00 0. -1.
         11    1    3    3    0    0  0.17148569013E+02  0.18622160098E+02  0.19045660718E+02  0.31679574782E+02  0.51100000000E-03 0. -1.
        -11    1    3    3    0    0  0.39098054972E+01  0.25077729570E+01  0.67958956673E+01  0.82316281750E+01  0.51100000000E-03 0.  1.
         12    1    3    3    0    0  0.24554332026E+01  0.86535698475E+00  0.56611660471E+01  0.62311151439E+01  0.00000000000E+00 0. -1.
</event>
<event>
 7    1  0.3086024E-009  0.4614232E+02  0.7816164E-02  0.1320468E+00
        -11   -1    0    0    0    0  0.00000000000E+00  0.00000000000E+00  0.45593999997E+02  0.45594000000E+02  0.51100000000E-03 0.  1.
         11   -1    0    0    0    0 -0.00000000000E+00 -0.00000000000E+00 -0.45593999997E+02  0.45594000000E+02  0.51100000000E-03 0. -1.
    9900012    2    1    2    0    0  0.25992303758E+02 -0.72263303474E+01  0.36073449881E+02  0.46142317729E+02  0.99999997065E+01 0.  0.
         12    1    1    2    0    0 -0.25992303758E+02  0.72263303474E+01 -0.36073449881E+02  0.45045682271E+02  0.00000000000E+00 0. -1.
         11    1    3    3    0    0  0.16922805727E+02 -0.32607656966E+01  0.17609914744E+02  0.24639866967E+02  0.51100000000E-03 0. -1.
        -11    1    3    3    0    0  0.60980935141E+01 -0.12878170436E+01  0.14877949174E+02  0.16130672308E+02  0.51100000000E-03 0.  1.
         12    1    3    3    0    0  0.29714045169E+01 -0.26777476073E+01  0.35855859633E+01  0.53717784533E+01  0.00000000000E+00 0. -1.
</event>
<event>
 7    1  0.3086024E-009  0.4614232E+02  0.7816164E-02  0.1320468E+00
        -11   -1    0    0    0    0  0.00000000000E+00  0.00000000000E+00  0.45593999997E+02  0.45594000000E+02  0.51100000000E-03 0.  1.
         11   -1    0    0    0    0 -0.00000000000E+00 -0.00000000000E+00 -0.45593999997E+02  0.45594000000E+02  0.51100000000E-03 0. -1.
    9900012    2    1    2    0    0 -0.42244135722E+02  0.76606192951E+01  0.13633100546E+02  0.46142317395E+02  0.99999966618E+01 0.  0.
         12    1    1    2    0    0  0.42244135722E+02 -0.76606192951E+01 -0.13633100546E+02  0.45045682605E+02  0.00000000000E+00 0. -1.
         11    1    3    3    0    0 -0.76851255917E+00  0.90877557694E+00 -0.25649401703E+00  0.12174867739E+01  0.51100000000E-03 0. -1.
        -11    1    3    3    0    0 -0.16372655862E+02 -0.10800043150E+01  0.46832365204E+01  0.17063498289E+02  0.51100000000E-03 0.  1.
        -12    1    3    3    0    0 -0.25102967300E+02  0.78318480332E+01  0.92063580425E+01  0.27861332332E+02  0.00000000000E+00 0.  1.
</event>
<event>
 7    1  0.3086024E-009  0.4614232E+02  0.7816164E-02  0.1320468E+00
        -11   -1    0    0    0    0  0.00000000000E+00  0.00000000000E+00  0.45593999997E+02  0.45594000000E+02  0.51100000000E-03 0. -1.
         11   -1    0    0    0    0 -0.00000000000E+00 -0.00000000000E+00 -0.45593999997E+02  0.45594000000E+02  0.51100000000E-03 0.  1.
    9900012    2    1    2    0    0 -0.36564290124E+02 -0.13198872573E+02 -0.22758642820E+02  0.46142319047E+02  0.10000011728E+02 0.  0.
         12    1    1    2    0    0  0.36564290124E+02  0.13198872573E+02  0.22758642820E+02  0.45045680953E+02  0.00000000000E+00 0. -1.
         11    1    3    3    0    0 -0.20683382111E+02 -0.34136725733E+01 -0.97699514780E+01  0.23128065378E+02  0.51100000000E-03 0. -1.
        -11    1    3    3    0    0 -0.13841247414E+02 -0.73437823466E+01 -0.11812011125E+02  0.19622305578E+02  0.51100000000E-03 0.  1.
         12    1    3    3    0    0 -0.20396605990E+01 -0.24414176534E+01 -0.11766802171E+01  0.33919480908E+01  0.00000000000E+00 0. -1.
</event>
<event>
 7    1  0.3086024E-009  0.4614232E+02  0.7816164E-02  0.1320468E+00
        -11   -1    0    0    0    0  0.00000000000E+00  0.00000000000E+00  0.45593999997E+02  0.45594000000E+02  0.51100000000E-03 0.  1.
         11   -1    0    0    0    0 -0.00000000000E+00 -0.00000000000E+00 -0.45593999997E+02  0.45594000000E+02  0.51100000000E-03 0. -1.
    9900012    2    1    2    0    0  0.58603033883E+01  0.28179735446E+02  0.34650727132E+02  0.46142317228E+02  0.99999951351E+01 0.  0.
         12    1    1    2    0    0 -0.58603033883E+01 -0.28179735446E+02 -0.34650727132E+02  0.45045682772E+02  0.00000000000E+00 0. -1.
         11    1    3    3    0    0  0.97807421677E+00  0.87261540707E+01  0.15713009241E+02  0.18000029270E+02  0.51100000000E-03 0. -1.
        -11    1    3    3    0    0  0.34012602381E+01  0.56985628264E+01  0.86469096383E+01  0.10900056699E+02  0.51100000000E-03 0.  1.
         12    1    3    3    0    0  0.14809689334E+01  0.13755018549E+02  0.10290808253E+02  0.17242231258E+02  0.00000000000E+00 0. -1.
</event>
<event>
 7    1  0.3086024E-009  0.4614232E+02  0.7816164E-02  0.1320468E+00
        -11   -1    0    0    0    0  0.00000000000E+00  0.00000000000E+00  0.45593999997E+02  0.45594000000E+02  0.51100000000E-03 0.  1.
         11   -1    0    0    0    0 -0.00000000000E+00 -0.00000000000E+00 -0.45593999997E+02  0.45594000000E+02  0.51100000000E-03 0. -1.
    9900012    2    1    2    0    0 -0.16320581430E+01  0.41186556749E+02 -0.18169133103E+02  0.46142317983E+02  0.10000002023E+02 0.  0.
         12    1    1    2    0    0  0.16320581430E+01 -0.41186556749E+02  0.18169133103E+02  0.45045682017E+02  0.00000000000E+00 0. -1.
         11    1    3    3    0    0 -0.37277381591E+01  0.17343478746E+02 -0.56853512784E+01  0.18628352214E+02  0.51100000000E-03 0.  1.
        -11    1    3    3    0    0  0.19259084952E+01  0.36046387805E+01 -0.86681286200E+00  0.41777875806E+01  0.51100000000E-03 0. -1.
        -12    1    3    3    0    0  0.16977152095E+00  0.20238439223E+02 -0.11616968963E+02  0.23336178188E+02  0.00000000000E+00 0.  1.
</event>
<event>
 7    1  0.3086024E-009  0.4614232E+02  0.7816164E-02  0.1320468E+00
        -11   -1    0    0    0    0  0.00000000000E+00  0.00000000000E+00  0.45593999997E+02  0.45594000000E+02  0.51100000000E-03 0.  1.
         11   -1    0    0    0    0 -0.00000000000E+00 -0.00000000000E+00 -0.45593999997E+02  0.45594000000E+02  0.51100000000E-03 0. -1.
    9900012    2    1    2    0    0  0.78235556878E+01 -0.36843284083E+02  0.24707851648E+02  0.46142317203E+02  0.99999949065E+01 0.  0.
         12    1    1    2    0    0 -0.78235556878E+01  0.36843284083E+02 -0.24707851648E+02  0.45045682797E+02  0.00000000000E+00 0. -1.
         11    1    3    3    0    0  0.11363909579E+00 -0.33633897737E+01  0.38734737205E+01  0.51311892909E+01  0.51100000000E-03 0. -1.
        -11    1    3    3    0    0  0.89115500028E+01 -0.25979908729E+02  0.14166878310E+02  0.30904236317E+02  0.51100000000E-03 0.  1.
        -12    1    3    3    0    0 -0.12016334108E+01 -0.74999855806E+01  0.66674996173E+01  0.10106891595E+02  0.00000000000E+00 0.  1.
</event>
<event>
 7    1  0.3086024E-009  0.4614232E+02  0.7816164E-02  0.1320468E+00
        -11   -1    0    0    0    0  0.00000000000E+00  0.00000000000E+00  0.45593999997E+02  0.45594000000E+02  0.51100000000E-03 0.  1.
         11   -1    0    0    0    0 -0.00000000000E+00 -0.00000000000E+00 -0.45593999997E+02  0.45594000000E+02  0.51100000000E-03 0. -1.
    9900012    2    1    2    0    0  0.28558783921E+02  0.13009257327E+01  0.34811161594E+02  0.46142317429E+02  0.99999969676E+01 0.  0.
         12    1    1    2    0    0 -0.28558783921E+02 -0.13009257327E+01 -0.34811161594E+02  0.45045682571E+02  0.00000000000E+00 0. -1.
         11    1    3    3    0    0  0.47285620380E+01 -0.14925720276E+01  0.74676209876E+01  0.89639519008E+01  0.51100000000E-03 0. -1.
        -11    1    3    3    0    0  0.12430114308E+02  0.16860365130E+01  0.19882576664E+02  0.23508877385E+02  0.51100000000E-03 0.  1.
        -12    1    3    3    0    0  0.11400107575E+02  0.11074612473E+01  0.74609639417E+01  0.13669488142E+02  0.00000000000E+00 0.  1.
</event>
<event>
 7    1  0.3086024E-009  0.4614232E+02  0.7816164E-02  0.1320468E+00
        -11   -1    0    0    0    0  0.00000000000E+00  0.00000000000E+00  0.45593999997E+02  0.45594000000E+02  0.51100000000E-03 0.  1.
         11   -1    0    0    0    0 -0.00000000000E+00 -0.00000000000E+00 -0.45593999997E+02  0.45594000000E+02  0.51100000000E-03 0. -1.
    9900012    2    1    2    0    0  0.10886533213E+02  0.31729625075E+02  0.30063727792E+02  0.46142318281E+02  0.10000004737E+02 0.  0.
         12    1    1    2    0    0 -0.10886533213E+02 -0.31729625075E+02 -0.30063727792E+02  0.45045681719E+02  0.00000000000E+00 0. -1.
         11    1    3    3    0    0  0.38483113054E+01  0.28127349852E+01  0.67136086462E+01  0.82336820024E+01  0.51100000000E-03 0. -1.
        -11    1    3    3    0    0  0.26578857966E+01  0.13168729916E+02  0.91314931508E+01  0.16243890296E+02  0.51100000000E-03 0.  1.
         12    1    3    3    0    0  0.43803361114E+01  0.15748160173E+02  0.14218625995E+02  0.21664745983E+02  0.00000000000E+00 0. -1.
</event>
<event>
 7    1  0.3086024E-009  0.4614232E+02  0.7816164E-02  0.1320468E+00
        -11   -1    0    0    0    0  0.00000000000E+00  0.00000000000E+00  0.45593999997E+02  0.45594000000E+02  0.51100000000E-03 0. -1.
         11   -1    0    0    0    0 -0.00000000000E+00 -0.00000000000E+00 -0.45593999997E+02  0.45594000000E+02  0.51100000000E-03 0.  1.
    9900012    2    1    2    0    0  0.21633543858E+02 -0.34580434058E+02 -0.19112740976E+02  0.46142317553E+02  0.99999981034E+01 0.  0.
         12    1    1    2    0    0 -0.21633543858E+02  0.34580434058E+02  0.19112740976E+02  0.45045682447E+02  0.00000000000E+00 0. -1.
         11    1    3    3    0    0  0.45165089508E+01 -0.46242296189E+01 -0.84887975724E+00  0.65194286386E+01  0.51100000000E-03 0. -1.
        -11    1    3    3    0    0  0.11567194974E+02 -0.20331284840E+02 -0.86796808497E+01  0.24949909874E+02  0.51100000000E-03 0.  1.
         12    1    3    3    0    0  0.55498399329E+01 -0.96249195990E+01 -0.95841803693E+01  0.14672979040E+02  0.00000000000E+00 0. -1.
</event>
<event>
 7    1  0.3086024E-009  0.4614231E+02  0.7816164E-02  0.1320468E+00
        -11   -1    0    0    0    0  0.00000000000E+00  0.00000000000E+00  0.45593999997E+02  0.45594000000E+02  0.51100000000E-03 0. -1.
         11   -1    0    0    0    0 -0.00000000000E+00 -0.00000000000E+00 -0.45593999997E+02  0.45594000000E+02  0.51100000000E-03 0.  1.
    9900012    2    1    2    0    0  0.20948104252E+02 -0.16523040190E+02 -0.36294349605E+02  0.46142314944E+02  0.99999743129E+01 0.  0.
         12    1    1    2    0    0 -0.20948104252E+02  0.16523040190E+02  0.36294349605E+02  0.45045685056E+02  0.00000000000E+00 0. -1.
         11    1    3    3    0    0  0.58656309178E+01 -0.28026568983E+01 -0.57459750294E+01  0.86762169782E+01  0.51100000000E-03 0. -1.
        -11    1    3    3    0    0  0.83112121384E+01 -0.43260235043E+01 -0.89409773346E+01  0.12951131322E+02  0.51100000000E-03 0.  1.
         12    1    3    3    0    0  0.67712611962E+01 -0.93943597871E+01 -0.21607397241E+02  0.24514966644E+02  0.00000000000E+00 0. -1.
</event>
<event>
 7    1  0.3086024E-009  0.4614232E+02  0.7816164E-02  0.1320468E+00
        -11   -1    0    0    0    0  0.00000000000E+00  0.00000000000E+00  0.45593999997E+02  0.45594000000E+02  0.51100000000E-03 0.  1.
         11   -1    0    0    0    0 -0.00000000000E+00 -0.00000000000E+00 -0.45593999997E+02  0.45594000000E+02  0.51100000000E-03 0. -1.
    9900012    2    1    2    0    0 -0.28287150669E+02  0.33496912669E+02  0.10339600553E+02  0.46142318843E+02  0.10000009861E+02 0.  0.
         12    1    1    2    0    0  0.28287150669E+02 -0.33496912669E+02 -0.10339600553E+02  0.45045681157E+02  0.00000000000E+00 0. -1.
         11    1    3    3    0    0 -0.14834085293E+02  0.23410690258E+02  0.68933471907E+01  0.28559214635E+02  0.51100000000E-03 0.  1.
        -11    1    3    3    0    0 -0.38267888488E+00 -0.26594290722E+00  0.43988206225E+00  0.64083168511E+00  0.51100000000E-03 0. -1.
         12    1    3    3    0    0 -0.13070386492E+02  0.10352165318E+02  0.30063713001E+01  0.16942272522E+02  0.00000000000E+00 0. -1.
</event>
<event>
 7    1  0.3086024E-009  0.4614232E+02  0.7816164E-02  0.1320468E+00
        -11   -1    0    0    0    0  0.00000000000E+00  0.00000000000E+00  0.45593999997E+02  0.45594000000E+02  0.51100000000E-03 0.  1.
         11   -1    0    0    0    0 -0.00000000000E+00 -0.00000000000E+00 -0.45593999997E+02  0.45594000000E+02  0.51100000000E-03 0. -1.
    9900012    2    1    2    0    0 -0.76605136056E+01 -0.15006936446E+02  0.41775853610E+02  0.46142317021E+02  0.99999932472E+01 0.  0.
         12    1    1    2    0    0  0.76605136056E+01  0.15006936446E+02 -0.41775853610E+02  0.45045682979E+02  0.00000000000E+00 0. -1.
         11    1    3    3    0    0 -0.38330471855E+01 -0.14542474621E+02  0.36978134371E+02  0.39919396797E+02  0.51100000000E-03 0. -1.
        -11    1    3    3    0    0 -0.26502692145E+01 -0.72836965662E+00  0.35147116135E+01  0.44617986567E+01  0.51100000000E-03 0.  1.
         12    1    3    3    0    0 -0.11771972055E+01  0.26390783164E+00  0.12830076263E+01  0.17611215669E+01  0.00000000000E+00 0. -1.
</event>
<event>
 7    1  0.3086024E-009  0.4614232E+02  0.7816164E-02  0.1320468E+00
        -11   -1    0    0    0    0  0.00000000000E+00  0.00000000000E+00  0.45593999997E+02  0.45594000000E+02  0.51100000000E-03 0. -1.
         11   -1    0    0    0    0 -0.00000000000E+00 -0.00000000000E+00 -0.45593999997E+02  0.45594000000E+02  0.51100000000E-03 0.  1.
    9900012    2    1    2    0    0 -0.98129845417E+01  0.31426130980E+02 -0.30744382930E+02  0.46142318123E+02  0.10000003301E+02 0.  0.
         12    1    1    2    0    0  0.98129845417E+01 -0.31426130980E+02  0.30744382930E+02  0.45045681877E+02  0.00000000000E+00 0. -1.
         11    1    3    3    0    0 -0.73523683608E+01  0.96125031315E+01 -0.12742245764E+02  0.17573342435E+02  0.51100000000E-03 0. -1.
        -11    1    3    3    0    0 -0.29834325738E+01  0.16730137148E+02 -0.14823870180E+02  0.22550953113E+02  0.51100000000E-03 0.  1.
         12    1    3    3    0    0  0.52281639286E+00  0.50834907006E+01 -0.31782669864E+01  0.60180225756E+01  0.00000000000E+00 0. -1.
</event>
<event>
 7    1  0.3086024E-009  0.4614232E+02  0.7816164E-02  0.1320468E+00
        -11   -1    0    0    0    0  0.00000000000E+00  0.00000000000E+00  0.45593999997E+02  0.45594000000E+02  0.51100000000E-03 0.  1.
         11   -1    0    0    0    0 -0.00000000000E+00 -0.00000000000E+00 -0.45593999997E+02  0.45594000000E+02  0.51100000000E-03 0. -1.
    9900012    2    1    2    0    0 -0.41020658710E+02  0.13710869479E+02 -0.12586943305E+02  0.46142317358E+02  0.99999963275E+01 0.  0.
         12    1    1    2    0    0  0.41020658710E+02 -0.13710869479E+02  0.12586943305E+02  0.45045682642E+02  0.00000000000E+00 0. -1.
         11    1    3    3    0    0 -0.10849750825E+02  0.15869214546E+01 -0.78707853958E+00  0.10993402820E+02  0.51100000000E-03 0. -1.
        -11    1    3    3    0    0 -0.23766643006E+02  0.93181518473E+01 -0.64095461567E+01  0.26320401893E+02  0.51100000000E-03 0.  1.
         12    1    3    3    0    0 -0.64042648794E+01  0.28057961776E+01 -0.53903186084E+01  0.88285126457E+01  0.00000000000E+00 0. -1.
</event>
<event>
 7    1  0.3086024E-009  0.4614232E+02  0.7816164E-02  0.1320468E+00
        -11   -1    0    0    0    0  0.00000000000E+00  0.00000000000E+00  0.45593999997E+02  0.45594000000E+02  0.51100000000E-03 0.  1.
         11   -1    0    0    0    0 -0.00000000000E+00 -0.00000000000E+00 -0.45593999997E+02  0.45594000000E+02  0.51100000000E-03 0. -1.
    9900012    2    1    2    0    0 -0.44155606002E+02 -0.82902827873E+01 -0.32660595214E+01  0.46142317911E+02  0.10000001363E+02 0.  0.
         12    1    1    2    0    0  0.44155606002E+02  0.82902827873E+01  0.32660595214E+01  0.45045682089E+02  0.00000000000E+00 0. -1.
         11    1    3    3    0    0 -0.16431030506E+02 -0.32227824161E+01 -0.51547013039E+01  0.17519590057E+02  0.51100000000E-03 0. -1.
        -11    1    3    3    0    0 -0.19916690728E+02 -0.15385043521E+01  0.17598552613E+01  0.20053395124E+02  0.51100000000E-03 0.  1.
        -12    1    3    3    0    0 -0.78078847680E+01 -0.35289960190E+01  0.12878652111E+00  0.85693327291E+01  0.00000000000E+00 0.  1.
</event>
<event>
 7    1  0.3086024E-009  0.4614232E+02  0.7816164E-02  0.1320468E+00
        -11   -1    0    0    0    0  0.00000000000E+00  0.00000000000E+00  0.45593999997E+02  0.45594000000E+02  0.51100000000E-03 0. -1.
         11   -1    0    0    0    0 -0.00000000000E+00 -0.00000000000E+00 -0.45593999997E+02  0.45594000000E+02  0.51100000000E-03 0.  1.
    9900012    2    1    2    0    0 -0.18362862473E+02  0.37872724507E+02 -0.16049159293E+02  0.46142317701E+02  0.99999994476E+01 0.  0.
         12    1    1    2    0    0  0.18362862473E+02 -0.37872724507E+02  0.16049159293E+02  0.45045682299E+02  0.00000000000E+00 0. -1.
         11    1    3    3    0    0 -0.17280859250E+00  0.79557298267E+01 -0.17338358242E+01  0.81443039489E+01  0.51100000000E-03 0. -1.
        -11    1    3    3    0    0 -0.11437739230E+02  0.19545727883E+02 -0.11052255355E+02  0.25199398919E+02  0.51100000000E-03 0.  1.
         12    1    3    3    0    0 -0.67523146507E+01  0.10371266797E+02 -0.32630681141E+01  0.12798614833E+02  0.00000000000E+00 0. -1.
</event>
<event>
 7    1  0.3086024E-009  0.4614232E+02  0.7816164E-02  0.1320468E+00
        -11   -1    0    0    0    0  0.00000000000E+00  0.00000000000E+00  0.45593999997E+02  0.45594000000E+02  0.51100000000E-03 0.  1.
         11   -1    0    0    0    0 -0.00000000000E+00 -0.00000000000E+00 -0.45593999997E+02  0.45594000000E+02  0.51100000000E-03 0. -1.
    9900012    2    1    2    0    0  0.38075650809E+02 -0.19168099592E+02  0.14558235557E+02  0.46142318198E+02  0.10000003980E+02 0.  0.
         12    1    1    2    0    0 -0.38075650809E+02  0.19168099592E+02 -0.14558235557E+02  0.45045681802E+02  0.00000000000E+00 0. -1.
         11    1    3    3    0    0  0.61493052859E+01 -0.65220012650E+01  0.35958321053E+01  0.96581812362E+01  0.51100000000E-03 0. -1.
        -11    1    3    3    0    0  0.25148394984E+02 -0.93307781495E+01  0.61021062709E+01  0.27508923868E+02  0.51100000000E-03 0.  1.
        -12    1    3    3    0    0  0.67779505389E+01 -0.33153201771E+01  0.48602971813E+01  0.89752130936E+01  0.00000000000E+00 0.  1.
</event>
<event>
 7    1  0.3086024E-009  0.4614232E+02  0.7816164E-02  0.1320468E+00
        -11   -1    0    0    0    0  0.00000000000E+00  0.00000000000E+00  0.45593999997E+02  0.45594000000E+02  0.51100000000E-03 0. -1.
         11   -1    0    0    0    0 -0.00000000000E+00 -0.00000000000E+00 -0.45593999997E+02  0.45594000000E+02  0.51100000000E-03 0.  1.
    9900012    2    1    2    0    0  0.29571804260E+02 -0.92561280778E+01 -0.32694739738E+02  0.46142317402E+02  0.99999967242E+01 0.  0.
         12    1    1    2    0    0 -0.29571804260E+02  0.92561280778E+01  0.32694739738E+02  0.45045682598E+02  0.00000000000E+00 0. -1.
         11    1    3    3    0    0  0.12449160033E+02  0.56764022065E+00 -0.11302116959E+02  0.16823841682E+02  0.51100000000E-03 0. -1.
        -11    1    3    3    0    0  0.56610393672E+01 -0.24438904681E+01 -0.89051219829E+01  0.10831489516E+02  0.51100000000E-03 0.  1.
         12    1    3    3    0    0  0.11461604860E+02 -0.73798778303E+01 -0.12487500796E+02  0.18486986204E+02  0.00000000000E+00 0. -1.
</event>
<event>
 7    1  0.3086024E-009  0.4614232E+02  0.7816164E-02  0.1320468E+00
        -11   -1    0    0    0    0  0.00000000000E+00  0.00000000000E+00  0.45593999997E+02  0.45594000000E+02  0.51100000000E-03 0. -1.
         11   -1    0    0    0    0 -0.00000000000E+00 -0.00000000000E+00 -0.45593999997E+02  0.45594000000E+02  0.51100000000E-03 0.  1.
    9900012    2    1    2    0    0  0.41924373683E+02  0.75624637550E+01  0.14637951423E+02  0.46142316648E+02  0.99999898510E+01 0.  0.
         12    1    1    2    0    0 -0.41924373683E+02 -0.75624637550E+01 -0.14637951423E+02  0.45045683352E+02  0.00000000000E+00 0. -1.
         11    1    3    3    0    0  0.11316377682E+02 -0.11443091832E+01  0.50537986757E+01  0.12446313858E+02  0.51100000000E-03 0. -1.
        -11    1    3    3    0    0  0.13497533421E+02  0.32910344864E+01  0.13759205387E+01  0.13960926689E+02  0.51100000000E-03 0.  1.
        -12    1    3    3    0    0  0.17110462580E+02  0.54157384517E+01  0.82082322087E+01  0.19735076100E+02  0.00000000000E+00 0.  1.
</event>
<event>
 7    1  0.3086024E-009  0.4614231E+02  0.7816164E-02  0.1320468E+00
        -11   -1    0    0    0    0  0.00000000000E+00  0.00000000000E+00  0.45593999997E+02  0.45594000000E+02  0.51100000000E-03 0.  1.
         11   -1    0    0    0    0 -0.00000000000E+00 -0.00000000000E+00 -0.45593999997E+02  0.45594000000E+02  0.51100000000E-03 0. -1.
    9900012    2    1    2    0    0  0.82535304810E+01  0.11278014059E+02  0.42822884281E+02  0.46142314472E+02  0.99999700112E+01 0.  0.
         12    1    1    2    0    0 -0.82535304810E+01 -0.11278014059E+02 -0.42822884281E+02  0.45045685528E+02  0.00000000000E+00 0. -1.
         11    1    3    3    0    0  0.21754667311E+01  0.40207276991E+01  0.54543138626E+01  0.71167722109E+01  0.51100000000E-03 0. -1.
        -11    1    3    3    0    0  0.42935066227E+00  0.17244680722E+01  0.18251406327E+02  0.18337719741E+02  0.51100000000E-03 0.  1.
        -12    1    3    3    0    0  0.56487130876E+01  0.55328182881E+01  0.19117164091E+02  0.20687822520E+02  0.00000000000E+00 0.  1.
</event>
<event>
 7    1  0.3086024E-009  0.4614232E+02  0.7816164E-02  0.1320468E+00
        -11   -1    0    0    0    0  0.00000000000E+00  0.00000000000E+00  0.45593999997E+02  0.45594000000E+02  0.51100000000E-03 0.  1.
         11   -1    0    0    0    0 -0.00000000000E+00 -0.00000000000E+00 -0.45593999997E+02  0.45594000000E+02  0.51100000000E-03 0. -1.
    9900012    2    1    2    0    0  0.20322095016E+02 -0.82162757377E+01  0.39352492570E+02  0.46142318694E+02  0.10000008504E+02 0.  0.
         12    1    1    2    0    0 -0.20322095016E+02  0.82162757377E+01 -0.39352492570E+02  0.45045681306E+02  0.00000000000E+00 0. -1.
         11    1    3    3    0    0  0.52054361960E+01 -0.34668354822E+01  0.19725702761E+02  0.20693449783E+02  0.51100000000E-03 0. -1.
        -11    1    3    3    0    0  0.70855690999E+01 -0.34567396853E+01  0.11562697715E+02  0.13994653173E+02  0.51100000000E-03 0.  1.
         12    1    3    3    0    0  0.80310897203E+01 -0.12927005702E+01  0.80640920951E+01  0.11454215738E+02  0.00000000000E+00 0. -1.
</event>
<event>
 7    1  0.3086024E-009  0.4614232E+02  0.7816164E-02  0.1320468E+00
        -11   -1    0    0    0    0  0.00000000000E+00  0.00000000000E+00  0.45593999997E+02  0.45594000000E+02  0.51100000000E-03 0.  1.
         11   -1    0    0    0    0 -0.00000000000E+00 -0.00000000000E+00 -0.45593999997E+02  0.45594000000E+02  0.51100000000E-03 0. -1.
    9900012    2    1    2    0    0  0.31163469343E+02 -0.23231340033E+02  0.22765240049E+02  0.46142321676E+02  0.10000035699E+02 0.  0.
         12    1    1    2    0    0 -0.31163469343E+02  0.23231340033E+02 -0.22765240049E+02  0.45045678324E+02  0.00000000000E+00 0. -1.
         11    1    3    3    0    0  0.28289185424E+02 -0.21855741022E+02  0.22959341784E+02  0.42486266051E+02  0.51100000000E-03 0.  1.
        -11    1    3    3    0    0  0.30878954792E+01 -0.14061489205E+01 -0.44129857767E-01  0.33932729013E+01  0.51100000000E-03 0. -1.
        -12    1    3    3    0    0 -0.21361156065E+00  0.30549909214E-01 -0.14997187739E+00  0.26278272357E+00  0.00000000000E+00 0.  1.
</event>
<event>
 7    1  0.3086024E-009  0.4614232E+02  0.7816164E-02  0.1320468E+00
        -11   -1    0    0    0    0  0.00000000000E+00  0.00000000000E+00  0.45593999997E+02  0.45594000000E+02  0.51100000000E-03 0.  1.
         11   -1    0    0    0    0 -0.00000000000E+00 -0.00000000000E+00 -0.45593999997E+02  0.45594000000E+02  0.51100000000E-03 0. -1.
    9900012    2    1    2    0    0  0.11075872394E+02 -0.83258221674E+01  0.42861628821E+02  0.46142317751E+02  0.99999999110E+01 0.  0.
         12    1    1    2    0    0 -0.11075872394E+02  0.83258221674E+01 -0.42861628821E+02  0.45045682249E+02  0.00000000000E+00 0. -1.
         11    1    3    3    0    0  0.10765694358E+02 -0.79523065963E+01  0.41198112077E+02  0.43317707628E+02  0.51100000000E-03 0. -1.
        -11    1    3    3    0    0  0.85605589087E+00  0.11386749104E+00  0.18737742111E+01  0.20632080722E+01  0.51100000000E-03 0.  1.
         12    1    3    3    0    0 -0.54587785453E+00 -0.48738306218E+00 -0.21025746660E+00  0.76140205124E+00  0.00000000000E+00 0. -1.
</event>
<event>
 7    1  0.3086024E-009  0.4614232E+02  0.7816164E-02  0.1320468E+00
        -11   -1    0    0    0    0  0.00000000000E+00  0.00000000000E+00  0.45593999997E+02  0.45594000000E+02  0.51100000000E-03 0.  1.
         11   -1    0    0    0    0 -0.00000000000E+00 -0.00000000000E+00 -0.45593999997E+02  0.45594000000E+02  0.51100000000E-03 0. -1.
    9900012    2    1    2    0    0 -0.28841431461E+02 -0.34537607207E+02  0.21068988878E+01  0.46142317596E+02  0.99999984924E+01 0.  0.
         12    1    1    2    0    0  0.28841431461E+02  0.34537607207E+02 -0.21068988878E+01  0.45045682404E+02  0.00000000000E+00 0. -1.
         11    1    3    3    0    0 -0.43749914803E+01 -0.81933602774E+01 -0.16762488932E+01  0.94383003608E+01  0.51100000000E-03 0. -1.
        -11    1    3    3    0    0 -0.84252617106E+01 -0.13454639467E+02  0.26509567377E+01  0.16094717455E+02  0.51100000000E-03 0.  1.
        -12    1    3    3    0    0 -0.16041178270E+02 -0.12889607463E+02  0.11321910433E+01  0.20609299779E+02  0.00000000000E+00 0.  1.
</event>
<event>
 7    1  0.3086024E-009  0.4614232E+02  0.7816164E-02  0.1320468E+00
        -11   -1    0    0    0    0  0.00000000000E+00  0.00000000000E+00  0.45593999997E+02  0.45594000000E+02  0.51100000000E-03 0. -1.
         11   -1    0    0    0    0 -0.00000000000E+00 -0.00000000000E+00 -0.45593999997E+02  0.45594000000E+02  0.51100000000E-03 0.  1.
    9900012    2    1    2    0    0 -0.40013364806E+02 -0.11578871261E+02  0.17145666538E+02  0.46142317590E+02  0.99999984401E+01 0.  0.
         12    1    1    2    0    0  0.40013364806E+02  0.11578871261E+02 -0.17145666538E+02  0.45045682410E+02  0.00000000000E+00 0. -1.
         11    1    3    3    0    0 -0.12155740885E+02 -0.58965029947E+01  0.59022446977E+01  0.14743380778E+02  0.51100000000E-03 0. -1.
        -11    1    3    3    0    0 -0.15537692195E+02 -0.22036600367E+01  0.98342925309E+01  0.18519970469E+02  0.51100000000E-03 0.  1.
        -12    1    3    3    0    0 -0.12319931726E+02 -0.34787082291E+01  0.14091293091E+01  0.12878966344E+02  0.00000000000E+00 0.  1.
</event>
<event>
 7    1  0.3086024E-009  0.4614232E+02  0.7816164E-02  0.1320468E+00
        -11   -1    0    0    0    0  0.00000000000E+00  0.00000000000E+00  0.45593999997E+02  0.45594000000E+02  0.51100000000E-03 0. -1.
         11   -1    0    0    0    0 -0.00000000000E+00 -0.00000000000E+00 -0.45593999997E+02  0.45594000000E+02  0.51100000000E-03 0.  1.
    9900012    2    1    2    0    0 -0.20509552915E+02 -0.40097444027E+02  0.81653765625E+00  0.46142317498E+02  0.99999976032E+01 0.  0.
         12    1    1    2    0    0  0.20509552915E+02  0.40097444027E+02 -0.81653765625E+00  0.45045682502E+02  0.00000000000E+00 0. -1.
         11    1    3    3    0    0 -0.53686567784E+01 -0.17751061989E+02 -0.55331406748E+00  0.18553404918E+02  0.51100000000E-03 0. -1.
        -11    1    3    3    0    0 -0.92766695113E+01 -0.11006856820E+02 -0.15956615862E+01  0.14482873694E+02  0.51100000000E-03 0.  1.
        -12    1    3    3    0    0 -0.58642266253E+01 -0.11339525219E+02  0.29655133099E+01  0.13106038886E+02  0.00000000000E+00 0.  1.
</event>
<event>
 7    1  0.3086024E-009  0.4614232E+02  0.7816164E-02  0.1320468E+00
        -11   -1    0    0    0    0  0.00000000000E+00  0.00000000000E+00  0.45593999997E+02  0.45594000000E+02  0.51100000000E-03 0.  1.
         11   -1    0    0    0    0 -0.00000000000E+00 -0.00000000000E+00 -0.45593999997E+02  0.45594000000E+02  0.51100000000E-03 0. -1.
    9900012    2    1    2    0    0 -0.25239286525E+02  0.35273309085E+02  0.12160823842E+02  0.46142317026E+02  0.99999932962E+01 0.  0.
         12    1    1    2    0    0  0.25239286525E+02 -0.35273309085E+02 -0.12160823842E+02  0.45045682974E+02  0.00000000000E+00 0. -1.
         11    1    3    3    0    0 -0.75961516606E+00  0.11520262026E+01  0.19886212924E+01  0.24204946762E+01  0.51100000000E-03 0. -1.
        -11    1    3    3    0    0 -0.13334071723E+02  0.19187508684E+02  0.90383141397E+01  0.25052925597E+02  0.51100000000E-03 0.  1.
        -12    1    3    3    0    0 -0.11145599635E+02  0.14933774199E+02  0.11338884102E+01  0.18668896753E+02  0.00000000000E+00 0.  1.
</event>
<event>
 7    1  0.3086024E-009  0.4614232E+02  0.7816164E-02  0.1320468E+00
        -11   -1    0    0    0    0  0.00000000000E+00  0.00000000000E+00  0.45593999997E+02  0.45594000000E+02  0.51100000000E-03 0.  1.
         11   -1    0    0    0    0 -0.00000000000E+00 -0.00000000000E+00 -0.45593999997E+02  0.45594000000E+02  0.51100000000E-03 0. -1.
    9900012    2    1    2    0    0  0.32620482782E+02 -0.74597845754E+01  0.30155748822E+02  0.46142317966E+02  0.10000001870E+02 0.  0.
         12    1    1    2    0    0 -0.32620482782E+02  0.74597845754E+01 -0.30155748822E+02  0.45045682034E+02  0.00000000000E+00 0. -1.
         11    1    3    3    0    0  0.20780024379E+02 -0.41541723938E+01  0.23171925526E+02  0.31400711685E+02  0.51100000000E-03 0. -1.
        -11    1    3    3    0    0  0.51451686707E+01 -0.16052284788E+01  0.75914687084E+00  0.54429608994E+01  0.51100000000E-03 0.  1.
        -12    1    3    3    0    0  0.66952897319E+01 -0.17003837028E+01  0.62246764251E+01  0.92986453814E+01  0.00000000000E+00 0.  1.
</event>
<event>
 7    1  0.3086024E-009  0.4614232E+02  0.7816164E-02  0.1320468E+00
        -11   -1    0    0    0    0  0.00000000000E+00  0.00000000000E+00  0.45593999997E+02  0.45594000000E+02  0.51100000000E-03 0.  1.
         11   -1    0    0    0    0 -0.00000000000E+00 -0.00000000000E+00 -0.45593999997E+02  0.45594000000E+02  0.51100000000E-03 0. -1.
    9900012    2    1    2    0    0  0.21301706013E+02  0.23038649972E+02  0.32319830193E+02  0.46142317684E+02  0.99999992938E+01 0.  0.
         12    1    1    2    0    0 -0.21301706013E+02 -0.23038649972E+02 -0.32319830193E+02  0.45045682316E+02  0.00000000000E+00 0. -1.
         11    1    3    3    0    0  0.32852498939E+01  0.59532872659E+01  0.31280981689E+01  0.74846171947E+01  0.51100000000E-03 0. -1.
        -11    1    3    3    0    0  0.52964639544E+01  0.65934903837E+01  0.13274157307E+02  0.15739437676E+02  0.51100000000E-03 0.  1.
        -12    1    3    3    0    0  0.12719992165E+02  0.10491872323E+02  0.15917574717E+02  0.22918262813E+02  0.00000000000E+00 0.  1.
</event>
<event>
 7    1  0.3086024E-009  0.4614231E+02  0.7816164E-02  0.1320468E+00
        -11   -1    0    0    0    0  0.00000000000E+00  0.00000000000E+00  0.45593999997E+02  0.45594000000E+02  0.51100000000E-03 0.  1.
         11   -1    0    0    0    0 -0.00000000000E+00 -0.00000000000E+00 -0.45593999997E+02  0.45594000000E+02  0.51100000000E-03 0. -1.
    9900012    2    1    2    0    0 -0.37702961132E+02  0.20401460579E+02  0.13834049542E+02  0.46142314318E+02  0.99999685986E+01 0.  0.
         12    1    1    2    0    0  0.37702961132E+02 -0.20401460579E+02 -0.13834049542E+02  0.45045685682E+02  0.00000000000E+00 0. -1.
         11    1    3    3    0    0 -0.65689383556E+01  0.15755935800E+01  0.50006925628E+01  0.84047827228E+01  0.51100000000E-03 0. -1.
        -11    1    3    3    0    0 -0.13961165960E+02  0.95584607823E+01  0.18892282101E+01  0.17024908545E+02  0.51100000000E-03 0.  1.
        -12    1    3    3    0    0 -0.17172856817E+02  0.92674062171E+01  0.69441287687E+01  0.20712623050E+02  0.00000000000E+00 0.  1.
</event>
<event>
 7    1  0.3086024E-009  0.4614232E+02  0.7816164E-02  0.1320468E+00
        -11   -1    0    0    0    0  0.00000000000E+00  0.00000000000E+00  0.45593999997E+02  0.45594000000E+02  0.51100000000E-03 0. -1.
         11   -1    0    0    0    0 -0.00000000000E+00 -0.00000000000E+00 -0.45593999997E+02  0.45594000000E+02  0.51100000000E-03 0.  1.
    9900012    2    1    2    0    0  0.17752013708E+02  0.39691671697E+02 -0.11770752804E+02  0.46142318582E+02  0.10000007489E+02 0.  0.
         12    1    1    2    0    0 -0.17752013708E+02 -0.39691671697E+02  0.11770752804E+02  0.45045681418E+02  0.00000000000E+00 0. -1.
         11    1    3    3    0    0  0.31315628733E+01  0.70353783114E+01  0.96806591946E+00  0.77614680247E+01  0.51100000000E-03 0. -1.
        -11    1    3    3    0    0  0.13442428198E+02  0.25289117630E+02 -0.89024748616E+01  0.29991538895E+02  0.51100000000E-03 0.  1.
        -12    1    3    3    0    0  0.11780226372E+01  0.73671757550E+01 -0.38363438623E+01  0.83893116624E+01  0.00000000000E+00 0.  1.
</event>
<event>
 7    1  0.3086024E-009  0.4614232E+02  0.7816164E-02  0.1320468E+00
        -11   -1    0    0    0    0  0.00000000000E+00  0.00000000000E+00  0.45593999997E+02  0.45594000000E+02  0.51100000000E-03 0.  1.
         11   -1    0    0    0    0 -0.00000000000E+00 -0.00000000000E+00 -0.45593999997E+02  0.45594000000E+02  0.51100000000E-03 0. -1.
    9900012    2    1    2    0    0 -0.37087407458E+02  0.18193715777E+02  0.17961805633E+02  0.46142317107E+02  0.99999940378E+01 0.  0.
         12    1    1    2    0    0  0.37087407458E+02 -0.18193715777E+02 -0.17961805633E+02  0.45045682893E+02  0.00000000000E+00 0. -1.
         11    1    3    3    0    0 -0.22032787357E+02  0.61611727248E+01  0.84933061177E+01  0.24403688597E+02  0.51100000000E-03 0.  1.
        -11    1    3    3    0    0 -0.13521653255E+02  0.92326722324E+01  0.77797957472E+01  0.18127398198E+02  0.51100000000E-03 0. -1.
         12    1    3    3    0    0 -0.15329668461E+01  0.27998708196E+01  0.16887037678E+01  0.36112303129E+01  0.00000000000E+00 0. -1.
</event>
<event>
 7    1  0.3086024E-009  0.4614232E+02  0.7816164E-02  0.1320468E+00
        -11   -1    0    0    0    0  0.00000000000E+00  0.00000000000E+00  0.45593999997E+02  0.45594000000E+02  0.51100000000E-03 0. -1.
         11   -1    0    0    0    0 -0.00000000000E+00 -0.00000000000E+00 -0.45593999997E+02  0.45594000000E+02  0.51100000000E-03 0.  1.
    9900012    2    1    2    0    0  0.32153921638E+02  0.31084439567E+02 -0.53848284266E+01  0.46142318331E+02  0.10000005194E+02 0.  0.
         12    1    1    2    0    0 -0.32153921638E+02 -0.31084439567E+02  0.53848284266E+01  0.45045681669E+02  0.00000000000E+00 0. -1.
         11    1    3    3    0    0  0.22174496992E+02  0.19314580979E+02 -0.29834763807E+01  0.29557782170E+02  0.51100000000E-03 0. -1.
        -11    1    3    3    0    0  0.89810248932E+01  0.66366636485E+01 -0.13238745186E+01  0.11245299308E+02  0.51100000000E-03 0.  1.
         12    1    3    3    0    0  0.99839975253E+00  0.51331949390E+01 -0.10774775272E+01  0.53392368527E+01  0.00000000000E+00 0. -1.
</event>
<event>
 7    1  0.3086024E-009  0.4614232E+02  0.7816164E-02  0.1320468E+00
        -11   -1    0    0    0    0  0.00000000000E+00  0.00000000000E+00  0.45593999997E+02  0.45594000000E+02  0.51100000000E-03 0. -1.
         11   -1    0    0    0    0 -0.00000000000E+00 -0.00000000000E+00 -0.45593999997E+02  0.45594000000E+02  0.51100000000E-03 0.  1.
    9900012    2    1    2    0    0 -0.35231571193E+02 -0.23022779293E+02 -0.16056198521E+02  0.46142317787E+02  0.10000000236E+02 0.  0.
         12    1    1    2    0    0  0.35231571193E+02  0.23022779293E+02  0.16056198521E+02  0.45045682213E+02  0.00000000000E+00 0. -1.
         11    1    3    3    0    0 -0.23212045731E+02 -0.15362435091E+02 -0.76082819787E+01  0.28856358638E+02  0.51100000000E-03 0. -1.
        -11    1    3    3    0    0 -0.11946295012E+02 -0.79702578963E+01 -0.87747857753E+01  0.16829612031E+02  0.51100000000E-03 0.  1.
         12    1    3    3    0    0 -0.73230450011E-01  0.30991369408E+00  0.32686923290E+00  0.45634711788E+00  0.00000000000E+00 0. -1.
</event>
<event>
 7    1  0.3086024E-009  0.4614232E+02  0.7816164E-02  0.1320468E+00
        -11   -1    0    0    0    0  0.00000000000E+00  0.00000000000E+00  0.45593999997E+02  0.45594000000E+02  0.51100000000E-03 0.  1.
         11   -1    0    0    0    0 -0.00000000000E+00 -0.00000000000E+00 -0.45593999997E+02  0.45594000000E+02  0.51100000000E-03 0. -1.
    9900012    2    1    2    0    0 -0.91794082997E+01  0.44099225497E+02 -0.33180875277E+00  0.46142319594E+02  0.10000016713E+02 0.  0.
         12    1    1    2    0    0  0.91794082997E+01 -0.44099225497E+02  0.33180875277E+00  0.45045680406E+02  0.00000000000E+00 0. -1.
         11    1    3    3    0    0 -0.17013145583E+01  0.21217875122E+01 -0.19717039090E+01  0.33591769883E+01  0.51100000000E-03 0. -1.
        -11    1    3    3    0    0 -0.31420485542E+01  0.26128146117E+02  0.12793151008E+01  0.26347469253E+02  0.51100000000E-03 0.  1.
        -12    1    3    3    0    0 -0.43360451873E+01  0.15849291868E+02  0.36058005540E+00  0.16435673353E+02  0.00000000000E+00 0.  1.
</event>
<event>
 7    1  0.3086024E-009  0.4614232E+02  0.7816164E-02  0.1320468E+00
        -11   -1    0    0    0    0  0.00000000000E+00  0.00000000000E+00  0.45593999997E+02  0.45594000000E+02  0.51100000000E-03 0. -1.
         11   -1    0    0    0    0 -0.00000000000E+00 -0.00000000000E+00 -0.45593999997E+02  0.45594000000E+02  0.51100000000E-03 0.  1.
    9900012    2    1    2    0    0  0.21013206999E+02  0.39641732586E+02  0.40114511632E+01  0.46142316841E+02  0.99999916111E+01 0.  0.
         12    1    1    2    0    0 -0.21013206999E+02 -0.39641732586E+02 -0.40114511632E+01  0.45045683159E+02  0.00000000000E+00 0. -1.
         11    1    3    3    0    0  0.15112289029E+02  0.24988878440E+02  0.11832434437E+01  0.29227134493E+02  0.51100000000E-03 0.  1.
        -11    1    3    3    0    0  0.31619875416E+01  0.87467153737E+01  0.42905429031E+01  0.10242653646E+02  0.51100000000E-03 0. -1.
        -12    1    3    3    0    0  0.27389304287E+01  0.59061387724E+01 -0.14623351836E+01  0.66725287022E+01  0.00000000000E+00 0.  1.
</event>
<event>
 7    1  0.3086024E-009  0.4614232E+02  0.7816164E-02  0.1320468E+00
        -11   -1    0    0    0    0  0.00000000000E+00  0.00000000000E+00  0.45593999997E+02  0.45594000000E+02  0.51100000000E-03 0.  1.
         11   -1    0    0    0    0 -0.00000000000E+00 -0.00000000000E+00 -0.45593999997E+02  0.45594000000E+02  0.51100000000E-03 0. -1.
    9900012    2    1    2    0    0  0.73662668250E+01 -0.12181257537E+01  0.44422606614E+02  0.46142315460E+02  0.99999790197E+01 0.  0.
         12    1    1    2    0    0 -0.73662668250E+01  0.12181257537E+01 -0.44422606614E+02  0.45045684540E+02  0.00000000000E+00 0. -1.
         11    1    3    3    0    0  0.23795344757E+01 -0.16218936864E+01  0.27478006481E+01  0.39803432156E+01  0.51100000000E-03 0. -1.
        -11    1    3    3    0    0  0.46520029519E+01  0.17481906674E+00  0.22195534007E+02  0.22678479298E+02  0.51100000000E-03 0.  1.
         12    1    3    3    0    0  0.33472939742E+00  0.22894886594E+00  0.19479271959E+02  0.19483492946E+02  0.00000000000E+00 0. -1.
</event>
<event>
 7    1  0.3086024E-009  0.4614232E+02  0.7816164E-02  0.1320468E+00
        -11   -1    0    0    0    0  0.00000000000E+00  0.00000000000E+00  0.45593999997E+02  0.45594000000E+02  0.51100000000E-03 0.  1.
         11   -1    0    0    0    0 -0.00000000000E+00 -0.00000000000E+00 -0.45593999997E+02  0.45594000000E+02  0.51100000000E-03 0. -1.
    9900012    2    1    2    0    0 -0.14690153440E+02  0.42283182007E+02 -0.50443347517E+01  0.46142318722E+02  0.10000008761E+02 0.  0.
         12    1    1    2    0    0  0.14690153440E+02 -0.42283182007E+02  0.50443347517E+01  0.45045681278E+02  0.00000000000E+00 0. -1.
         11    1    3    3    0    0 -0.11914048639E+01  0.87637549409E+00 -0.33109583743E+00  0.15156200946E+01  0.51100000000E-03 0. -1.
        -11    1    3    3    0    0 -0.89547172183E+01  0.14434907758E+02 -0.90603997342E+00  0.17011009116E+02  0.51100000000E-03 0.  1.
        -12    1    3    3    0    0 -0.45440313580E+01  0.26971898755E+02 -0.38071989409E+01  0.27615689512E+02  0.00000000000E+00 0.  1.
</event>
<event>
 7    1  0.3086024E-009  0.4614233E+02  0.7816164E-02  0.1320468E+00
        -11   -1    0    0    0    0  0.00000000000E+00  0.00000000000E+00  0.45593999997E+02  0.45594000000E+02  0.51100000000E-03 0.  1.
         11   -1    0    0    0    0 -0.00000000000E+00 -0.00000000000E+00 -0.45593999997E+02  0.45594000000E+02  0.51100000000E-03 0. -1.
    9900012    2    1    2    0    0 -0.43089364160E+02 -0.40103083709E+01  0.12503450094E+02  0.46142332715E+02  0.10000136360E+02 0.  0.
         12    1    1    2    0    0  0.43089364160E+02  0.40103083709E+01 -0.12503450094E+02  0.45045667285E+02  0.00000000000E+00 0. -1.
         11    1    3    3    0    0 -0.20689059778E+02 -0.53675611570E-01  0.75617814809E+01  0.22027723781E+02  0.51100000000E-03 0. -1.
        -11    1    3    3    0    0 -0.14639004504E+02 -0.24702296850E+01  0.98670543182E-01  0.14846286529E+02  0.51100000000E-03 0.  1.
        -12    1    3    3    0    0 -0.77612998774E+01 -0.14864030742E+01  0.48429980696E+01  0.92683224042E+01  0.00000000000E+00 0.  1.
</event>
<event>
 7    1  0.3185799E-009  0.4614232E+02  0.7816164E-02  0.1320468E+00
        -11   -1    0    0    0    0  0.00000000000E+00  0.00000000000E+00  0.45593999997E+02  0.45594000000E+02  0.51100000000E-03 0. -1.
         11   -1    0    0    0    0 -0.00000000000E+00 -0.00000000000E+00 -0.45593999997E+02  0.45594000000E+02  0.51100000000E-03 0.  1.
    9900012    2    1    2    0    0 -0.12659116462E+02  0.17519986921E+02 -0.39521011233E+02  0.46142317630E+02  0.99999988079E+01 0.  0.
         12    1    1    2    0    0  0.12659116462E+02 -0.17519986921E+02  0.39521011233E+02  0.45045682370E+02  0.00000000000E+00 0. -1.
         11    1    3    3    0    0  0.83238222036E+00  0.25207190949E+01 -0.85681783370E+01  0.89699813373E+01  0.51100000000E-03 0. -1.
        -11    1    3    3    0    0 -0.69491671702E+01  0.10598789931E+02 -0.19976204248E+02  0.23657430308E+02  0.51100000000E-03 0.  1.
         12    1    3    3    0    0 -0.65423315122E+01  0.44004778950E+01 -0.10976628648E+02  0.13514905985E+02  0.00000000000E+00 0. -1.
</event>
<event>
 7    1  0.3086024E-009  0.4614232E+02  0.7816164E-02  0.1320468E+00
        -11   -1    0    0    0    0  0.00000000000E+00  0.00000000000E+00  0.45593999997E+02  0.45594000000E+02  0.51100000000E-03 0.  1.
         11   -1    0    0    0    0 -0.00000000000E+00 -0.00000000000E+00 -0.45593999997E+02  0.45594000000E+02  0.51100000000E-03 0. -1.
    9900012    2    1    2    0    0  0.20302423062E+02  0.39936576618E+02 -0.46898849997E+01  0.46142317016E+02  0.99999932098E+01 0.  0.
         12    1    1    2    0    0 -0.20302423062E+02 -0.39936576618E+02  0.46898849997E+01  0.45045682984E+02  0.00000000000E+00 0. -1.
         11    1    3    3    0    0  0.30561637442E+01  0.67345469047E+01  0.20128272120E+01  0.76645764716E+01  0.51100000000E-03 0. -1.
        -11    1    3    3    0    0  0.16615089743E+02  0.28665091588E+02 -0.70844324429E+01  0.33881231769E+02  0.51100000000E-03 0.  1.
        -12    1    3    3    0    0  0.63116957383E+00  0.45369381258E+01  0.38172023123E+00  0.45965087755E+01  0.00000000000E+00 0.  1.
</event>
<event>
 7    1  0.3086024E-009  0.4614232E+02  0.7816164E-02  0.1320468E+00
        -11   -1    0    0    0    0  0.00000000000E+00  0.00000000000E+00  0.45593999997E+02  0.45594000000E+02  0.51100000000E-03 0.  1.
         11   -1    0    0    0    0 -0.00000000000E+00 -0.00000000000E+00 -0.45593999997E+02  0.45594000000E+02  0.51100000000E-03 0. -1.
    9900012    2    1    2    0    0 -0.26254543838E+02 -0.29462365450E+02  0.21720529767E+02  0.46142318038E+02  0.10000002526E+02 0.  0.
         12    1    1    2    0    0  0.26254543838E+02  0.29462365450E+02 -0.21720529767E+02  0.45045681962E+02  0.00000000000E+00 0. -1.
         11    1    3    3    0    0 -0.40387460681E+01 -0.25052197830E+01  0.18803633562E+01  0.51111018945E+01  0.51100000000E-03 0. -1.
        -11    1    3    3    0    0 -0.10747777700E+02 -0.10703799028E+02  0.42351076622E+01  0.15748719830E+02  0.51100000000E-03 0.  1.
        -12    1    3    3    0    0 -0.11468020070E+02 -0.16253346638E+02  0.15605058749E+02  0.25282496313E+02  0.00000000000E+00 0.  1.
</event>
<event>
 7    1  0.3086024E-009  0.4614231E+02  0.7816164E-02  0.1320468E+00
        -11   -1    0    0    0    0  0.00000000000E+00  0.00000000000E+00  0.45593999997E+02  0.45594000000E+02  0.51100000000E-03 0.  1.
         11   -1    0    0    0    0 -0.00000000000E+00 -0.00000000000E+00 -0.45593999997E+02  0.45594000000E+02  0.51100000000E-03 0. -1.
    9900012    2    1    2    0    0  0.19495053666E+02  0.31811797104E+01  0.40483792034E+02  0.46142307207E+02  0.99999037558E+01 0.  0.
         12    1    1    2    0    0 -0.19495053666E+02 -0.31811797104E+01 -0.40483792034E+02  0.45045692793E+02  0.00000000000E+00 0. -1.
         11    1    3    3    0    0  0.24731708636E+00 -0.15189605415E+01  0.25996320955E+01  0.30210087985E+01  0.51100000000E-03 0. -1.
        -11    1    3    3    0    0  0.65022451547E+01  0.73637995483E-01  0.80338189062E+01  0.10335708059E+02  0.51100000000E-03 0.  1.
         12    1    3    3    0    0  0.12745491425E+02  0.46265022564E+01  0.29850341032E+02  0.32785590349E+02  0.00000000000E+00 0. -1.
</event>
<event>
 7    1  0.3086024E-009  0.4614232E+02  0.7816164E-02  0.1320468E+00
        -11   -1    0    0    0    0  0.00000000000E+00  0.00000000000E+00  0.45593999997E+02  0.45594000000E+02  0.51100000000E-03 0. -1.
         11   -1    0    0    0    0 -0.00000000000E+00 -0.00000000000E+00 -0.45593999997E+02  0.45594000000E+02  0.51100000000E-03 0.  1.
    9900012    2    1    2    0    0  0.14180804516E+02  0.38937350336E+02 -0.17660719332E+02  0.46142317907E+02  0.10000001331E+02 0.  0.
         12    1    1    2    0    0 -0.14180804516E+02 -0.38937350336E+02  0.17660719332E+02  0.45045682093E+02  0.00000000000E+00 0. -1.
         11    1    3    3    0    0  0.73587400597E+01  0.11062334063E+02 -0.51238085742E+01  0.14240073903E+02  0.51100000000E-03 0. -1.
        -11    1    3    3    0    0  0.29486114069E+01  0.21342055259E+02 -0.10848310002E+02  0.24121846158E+02  0.51100000000E-03 0.  1.
        -12    1    3    3    0    0  0.38734530494E+01  0.65329610141E+01 -0.16886007555E+01  0.77803978465E+01  0.00000000000E+00 0.  1.
</event>
<event>
 7    1  0.3086024E-009  0.4614232E+02  0.7816164E-02  0.1320468E+00
        -11   -1    0    0    0    0  0.00000000000E+00  0.00000000000E+00  0.45593999997E+02  0.45594000000E+02  0.51100000000E-03 0. -1.
         11   -1    0    0    0    0 -0.00000000000E+00 -0.00000000000E+00 -0.45593999997E+02  0.45594000000E+02  0.51100000000E-03 0.  1.
    9900012    2    1    2    0    0  0.22104103508E+01 -0.43995257363E+02 -0.94151408130E+01  0.46142318066E+02  0.10000002779E+02 0.  0.
         12    1    1    2    0    0 -0.22104103508E+01  0.43995257363E+02  0.94151408130E+01  0.45045681934E+02  0.00000000000E+00 0. -1.
         11    1    3    3    0    0  0.22754812472E+01 -0.83199153984E+01 -0.21309130938E+01  0.88847958905E+01  0.51100000000E-03 0. -1.
        -11    1    3    3    0    0 -0.91078366803E+00 -0.16770102061E+02 -0.73513565269E+01  0.18333256477E+02  0.51100000000E-03 0.  1.
        -12    1    3    3    0    0  0.84571277167E+00 -0.18905239904E+02  0.67128807624E-01  0.18924265698E+02  0.00000000000E+00 0.  1.
</event>
<event>
 7    1  0.3086024E-009  0.4614232E+02  0.7816164E-02  0.1320468E+00
        -11   -1    0    0    0    0  0.00000000000E+00  0.00000000000E+00  0.45593999997E+02  0.45594000000E+02  0.51100000000E-03 0.  1.
         11   -1    0    0    0    0 -0.00000000000E+00 -0.00000000000E+00 -0.45593999997E+02  0.45594000000E+02  0.51100000000E-03 0. -1.
    9900012    2    1    2    0    0 -0.41786550759E+02  0.73179048939E+01 -0.15147471122E+02  0.46142318322E+02  0.10000005118E+02 0.  0.
         12    1    1    2    0    0  0.41786550759E+02 -0.73179048939E+01  0.15147471122E+02  0.45045681678E+02  0.00000000000E+00 0. -1.
         11    1    3    3    0    0 -0.51067172306E+01  0.26581460561E+01 -0.48529741215E+01  0.75296520115E+01  0.51100000000E-03 0. -1.
        -11    1    3    3    0    0 -0.17166856726E+02  0.35911657280E+01 -0.32341832880E+01  0.17834163365E+02  0.51100000000E-03 0.  1.
        -12    1    3    3    0    0 -0.19512976803E+02  0.10685931098E+01 -0.70603137130E+01  0.20778502946E+02  0.00000000000E+00 0.  1.
</event>
<event>
 7    1  0.3086024E-009  0.4614232E+02  0.7816164E-02  0.1320468E+00
        -11   -1    0    0    0    0  0.00000000000E+00  0.00000000000E+00  0.45593999997E+02  0.45594000000E+02  0.51100000000E-03 0.  1.
         11   -1    0    0    0    0 -0.00000000000E+00 -0.00000000000E+00 -0.45593999997E+02  0.45594000000E+02  0.51100000000E-03 0. -1.
    9900012    2    1    2    0    0  0.30445961523E+02  0.38804580520E+01  0.32971184490E+02  0.46142317250E+02  0.99999953412E+01 0.  0.
         12    1    1    2    0    0 -0.30445961523E+02 -0.38804580520E+01 -0.32971184490E+02  0.45045682750E+02  0.00000000000E+00 0. -1.
         11    1    3    3    0    0  0.67499017996E+01  0.35310536057E+01  0.54578330948E+01  0.93710968527E+01  0.51100000000E-03 0. -1.
        -11    1    3    3    0    0  0.39764394573E+01 -0.95371263031E+00  0.80730314901E+01  0.90496119387E+01  0.51100000000E-03 0.  1.
        -12    1    3    3    0    0  0.19719620266E+02  0.13031170766E+01  0.19440319905E+02  0.27721608459E+02  0.00000000000E+00 0.  1.
</event>
<event>
 7    1  0.3086024E-009  0.4614232E+02  0.7816164E-02  0.1320468E+00
        -11   -1    0    0    0    0  0.00000000000E+00  0.00000000000E+00  0.45593999997E+02  0.45594000000E+02  0.51100000000E-03 0.  1.
         11   -1    0    0    0    0 -0.00000000000E+00 -0.00000000000E+00 -0.45593999997E+02  0.45594000000E+02  0.51100000000E-03 0. -1.
    9900012    2    1    2    0    0 -0.31789150302E+02 -0.31862835218E+02 -0.18229264516E+01  0.46142318677E+02  0.10000008350E+02 0.  0.
         12    1    1    2    0    0  0.31789150302E+02  0.31862835218E+02  0.18229264516E+01  0.45045681323E+02  0.00000000000E+00 0. -1.
         11    1    3    3    0    0 -0.97429895444E+01 -0.14394964718E+02 -0.17086422872E+01  0.17465975874E+02  0.51100000000E-03 0. -1.
        -11    1    3    3    0    0 -0.18170950673E+02 -0.16753927211E+02 -0.46526084391E+00  0.24720315395E+02  0.51100000000E-03 0.  1.
         12    1    3    3    0    0 -0.38752100848E+01 -0.71394328914E+00  0.35097667954E+00  0.39560274078E+01  0.00000000000E+00 0. -1.
</event>
<event>
 7    1  0.3086024E-009  0.4614232E+02  0.7816164E-02  0.1320468E+00
        -11   -1    0    0    0    0  0.00000000000E+00  0.00000000000E+00  0.45593999997E+02  0.45594000000E+02  0.51100000000E-03 0.  1.
         11   -1    0    0    0    0 -0.00000000000E+00 -0.00000000000E+00 -0.45593999997E+02  0.45594000000E+02  0.51100000000E-03 0. -1.
    9900012    2    1    2    0    0 -0.31265039526E+02  0.32357941596E+02  0.21387745932E+01  0.46142318324E+02  0.10000005136E+02 0.  0.
         12    1    1    2    0    0  0.31265039526E+02 -0.32357941596E+02 -0.21387745932E+01  0.45045681676E+02  0.00000000000E+00 0. -1.
         11    1    3    3    0    0 -0.17820252756E+01  0.49905183301E+01  0.11745598201E+01  0.54277507605E+01  0.51100000000E-03 0. -1.
        -11    1    3    3    0    0 -0.20893532726E+02  0.21828921119E+02  0.27423179886E+01  0.30340761612E+02  0.51100000000E-03 0.  1.
         12    1    3    3    0    0 -0.85894815238E+01  0.55385021471E+01 -0.17781032155E+01  0.10373805952E+02  0.00000000000E+00 0. -1.
</event>
<event>
 7    1  0.3086024E-009  0.4614232E+02  0.7816164E-02  0.1320468E+00
        -11   -1    0    0    0    0  0.00000000000E+00  0.00000000000E+00  0.45593999997E+02  0.45594000000E+02  0.51100000000E-03 0.  1.
         11   -1    0    0    0    0 -0.00000000000E+00 -0.00000000000E+00 -0.45593999997E+02  0.45594000000E+02  0.51100000000E-03 0. -1.
    9900012    2    1    2    0    0 -0.40918238468E+01  0.78607919648E+01  0.44165353996E+02  0.46142316896E+02  0.99999921146E+01 0.  0.
         12    1    1    2    0    0  0.40918238468E+01 -0.78607919648E+01 -0.44165353996E+02  0.45045683104E+02  0.00000000000E+00 0. -1.
         11    1    3    3    0    0 -0.39896773137E+01  0.80889100219E-01  0.62485313868E+01  0.74140550893E+01  0.51100000000E-03 0. -1.
        -11    1    3    3    0    0 -0.33625529815E+00  0.65056236439E+01  0.33397656245E+02  0.34027042915E+02  0.51100000000E-03 0.  1.
         12    1    3    3    0    0  0.23410876512E+00  0.12742792206E+01  0.45191663638E+01  0.47012188919E+01  0.00000000000E+00 0. -1.
</event>
<event>
 7    1  0.3086024E-009  0.4614232E+02  0.7816164E-02  0.1320468E+00
        -11   -1    0    0    0    0  0.00000000000E+00  0.00000000000E+00  0.45593999997E+02  0.45594000000E+02  0.51100000000E-03 0. -1.
         11   -1    0    0    0    0 -0.00000000000E+00 -0.00000000000E+00 -0.45593999997E+02  0.45594000000E+02  0.51100000000E-03 0.  1.
    9900012    2    1    2    0    0  0.28952496988E+02 -0.34264658202E+02  0.40987403676E+01  0.46142317009E+02  0.99999931379E+01 0.  0.
         12    1    1    2    0    0 -0.28952496988E+02  0.34264658202E+02 -0.40987403676E+01  0.45045682991E+02  0.00000000000E+00 0. -1.
         11    1    3    3    0    0  0.40750522707E+01 -0.75417525064E+01  0.36577965429E+01  0.93200621075E+01  0.51100000000E-03 0. -1.
        -11    1    3    3    0    0  0.14209850334E+02 -0.14378653556E+02 -0.20463159391E+01  0.20318782783E+02  0.51100000000E-03 0.  1.
         12    1    3    3    0    0  0.10667594383E+02 -0.12344252140E+02  0.24872597638E+01  0.16503472118E+02  0.00000000000E+00 0. -1.
</event>
<event>
 7    1  0.3086024E-009  0.4614232E+02  0.7816164E-02  0.1320468E+00
        -11   -1    0    0    0    0  0.00000000000E+00  0.00000000000E+00  0.45593999997E+02  0.45594000000E+02  0.51100000000E-03 0. -1.
         11   -1    0    0    0    0 -0.00000000000E+00 -0.00000000000E+00 -0.45593999997E+02  0.45594000000E+02  0.51100000000E-03 0.  1.
    9900012    2    1    2    0    0 -0.71160112390E-02 -0.43137639021E+02 -0.12971415833E+02  0.46142316747E+02  0.99999907559E+01 0.  0.
         12    1    1    2    0    0  0.71160112390E-02  0.43137639021E+02  0.12971415833E+02  0.45045683253E+02  0.00000000000E+00 0. -1.
         11    1    3    3    0    0 -0.38626696444E+01 -0.15421931990E+02 -0.44675104784E+01  0.16514080453E+02  0.51100000000E-03 0. -1.
        -11    1    3    3    0    0  0.18222360112E+01 -0.24165410766E+02 -0.66067870605E+01  0.25118464465E+02  0.51100000000E-03 0.  1.
         12    1    3    3    0    0  0.20333176220E+01 -0.35502962656E+01 -0.18971182945E+01  0.45097718289E+01  0.00000000000E+00 0. -1.
</event>
<event>
 7    1  0.3086024E-009  0.4614232E+02  0.7816164E-02  0.1320468E+00
        -11   -1    0    0    0    0  0.00000000000E+00  0.00000000000E+00  0.45593999997E+02  0.45594000000E+02  0.51100000000E-03 0.  1.
         11   -1    0    0    0    0 -0.00000000000E+00 -0.00000000000E+00 -0.45593999997E+02  0.45594000000E+02  0.51100000000E-03 0. -1.
    9900012    2    1    2    0    0  0.27729464212E+01 -0.25510912289E+02  0.37021851896E+02  0.46142318792E+02  0.10000009397E+02 0.  0.
         12    1    1    2    0    0 -0.27729464212E+01  0.25510912289E+02 -0.37021851896E+02  0.45045681208E+02  0.00000000000E+00 0. -1.
         11    1    3    3    0    0  0.32000217502E+01 -0.16773553635E+02  0.28004938435E+02  0.32800439292E+02  0.51100000000E-03 0. -1.
        -11    1    3    3    0    0  0.61206170636E+00 -0.84696520821E+01  0.67997932744E+01  0.10878732222E+02  0.51100000000E-03 0.  1.
         12    1    3    3    0    0 -0.10391370354E+01 -0.26770657244E+00  0.22171201865E+01  0.24631472771E+01  0.00000000000E+00 0. -1.
</event>
<event>
 7    1  0.3086024E-009  0.4614232E+02  0.7816164E-02  0.1320468E+00
        -11   -1    0    0    0    0  0.00000000000E+00  0.00000000000E+00  0.45593999997E+02  0.45594000000E+02  0.51100000000E-03 0.  1.
         11   -1    0    0    0    0 -0.00000000000E+00 -0.00000000000E+00 -0.45593999997E+02  0.45594000000E+02  0.51100000000E-03 0. -1.
    9900012    2    1    2    0    0 -0.26490008193E+02 -0.34518719355E+02  0.11655512455E+02  0.46142317737E+02  0.99999997825E+01 0.  0.
         12    1    1    2    0    0  0.26490008193E+02  0.34518719355E+02 -0.11655512455E+02  0.45045682263E+02  0.00000000000E+00 0. -1.
         11    1    3    3    0    0 -0.18634866002E+02 -0.21259804540E+02  0.10624552824E+02  0.30201302008E+02  0.51100000000E-03 0. -1.
        -11    1    3    3    0    0 -0.19690540486E+01 -0.36987976783E+01  0.20559932023E+01  0.46674818072E+01  0.51100000000E-03 0.  1.
         12    1    3    3    0    0 -0.58860881415E+01 -0.95601171361E+01 -0.10250335713E+01  0.11273533922E+02  0.00000000000E+00 0. -1.
</event>
<event>
 7    1  0.3086024E-009  0.4614232E+02  0.7816164E-02  0.1320468E+00
        -11   -1    0    0    0    0  0.00000000000E+00  0.00000000000E+00  0.45593999997E+02  0.45594000000E+02  0.51100000000E-03 0.  1.
         11   -1    0    0    0    0 -0.00000000000E+00 -0.00000000000E+00 -0.45593999997E+02  0.45594000000E+02  0.51100000000E-03 0. -1.
    9900012    2    1    2    0    0 -0.36851916852E+02  0.21235075039E+02  0.14836465206E+02  0.46142324432E+02  0.10000060828E+02 0.  0.
         12    1    1    2    0    0  0.36851916852E+02 -0.21235075039E+02 -0.14836465206E+02  0.45045675568E+02  0.00000000000E+00 0. -1.
         11    1    3    3    0    0 -0.68550544882E+01  0.78417424877E+01  0.51673449866E+01  0.11626957975E+02  0.51100000000E-03 0.  1.
        -11    1    3    3    0    0 -0.16956988281E+02  0.91161536257E+01  0.39786870223E+01  0.19658933317E+02  0.51100000000E-03 0. -1.
        -12    1    3    3    0    0 -0.13039874083E+02  0.42771789259E+01  0.56904331971E+01  0.14856433140E+02  0.00000000000E+00 0.  1.
</event>
<event>
 7    1  0.3086024E-009  0.4614232E+02  0.7816164E-02  0.1320468E+00
        -11   -1    0    0    0    0  0.00000000000E+00  0.00000000000E+00  0.45593999997E+02  0.45594000000E+02  0.51100000000E-03 0. -1.
         11   -1    0    0    0    0 -0.00000000000E+00 -0.00000000000E+00 -0.45593999997E+02  0.45594000000E+02  0.51100000000E-03 0.  1.
    9900012    2    1    2    0    0 -0.43613018123E+01  0.10110068573E+02 -0.43679275510E+02  0.46142317087E+02  0.99999938534E+01 0.  0.
         12    1    1    2    0    0  0.43613018123E+01 -0.10110068573E+02  0.43679275510E+02  0.45045682913E+02  0.00000000000E+00 0. -1.
         11    1    3    3    0    0  0.87025323041E+00  0.64902757671E+01 -0.10736861539E+02  0.12576216291E+02  0.51100000000E-03 0. -1.
        -11    1    3    3    0    0 -0.17204672486E+01  0.16040992729E+01 -0.13955201120E+02  0.14152059235E+02  0.51100000000E-03 0.  1.
         12    1    3    3    0    0 -0.35110877941E+01  0.20156935330E+01 -0.18987212851E+02  0.19414041562E+02  0.00000000000E+00 0. -1.
</event>
<event>
 7    1  0.3086024E-009  0.4614232E+02  0.7816164E-02  0.1320468E+00
        -11   -1    0    0    0    0  0.00000000000E+00  0.00000000000E+00  0.45593999997E+02  0.45594000000E+02  0.51100000000E-03 0.  1.
         11   -1    0    0    0    0 -0.00000000000E+00 -0.00000000000E+00 -0.45593999997E+02  0.45594000000E+02  0.51100000000E-03 0. -1.
    9900012    2    1    2    0    0 -0.21186880159E+01 -0.19080958933E+02  0.40749746093E+02  0.46142316085E+02  0.99999847180E+01 0.  0.
         12    1    1    2    0    0  0.21186880159E+01  0.19080958933E+02 -0.40749746093E+02  0.45045683915E+02  0.00000000000E+00 0. -1.
         11    1    3    3    0    0 -0.81788350732E+00 -0.26500399509E+00  0.66066398081E+01  0.66623457103E+01  0.51100000000E-03 0. -1.
        -11    1    3    3    0    0  0.17293973601E+01 -0.46038815915E+01  0.12279110841E+02  0.13227361953E+02  0.51100000000E-03 0.  1.
        -12    1    3    3    0    0 -0.30302018687E+01 -0.14212073346E+02  0.21863995444E+02  0.26252608421E+02  0.00000000000E+00 0.  1.
</event>
<event>
 7    1  0.3086024E-009  0.4614232E+02  0.7816164E-02  0.1320468E+00
        -11   -1    0    0    0    0  0.00000000000E+00  0.00000000000E+00  0.45593999997E+02  0.45594000000E+02  0.51100000000E-03 0.  1.
         11   -1    0    0    0    0 -0.00000000000E+00 -0.00000000000E+00 -0.45593999997E+02  0.45594000000E+02  0.51100000000E-03 0. -1.
    9900012    2    1    2    0    0  0.93204340789E+00 -0.45577200649E+01  0.44804820675E+02  0.46142317934E+02  0.10000001573E+02 0.  0.
         12    1    1    2    0    0 -0.93204340789E+00  0.45577200649E+01 -0.44804820675E+02  0.45045682066E+02  0.00000000000E+00 0. -1.
         11    1    3    3    0    0 -0.99785395371E+00 -0.39838805104E+01  0.11430990761E+02  0.12146380797E+02  0.51100000000E-03 0. -1.
        -11    1    3    3    0    0  0.39849944937E+01  0.50872090131E+00  0.24282103586E+02  0.24612182612E+02  0.51100000000E-03 0.  1.
        -12    1    3    3    0    0 -0.20550971321E+01 -0.10825604558E+01  0.90917263279E+01  0.93837545249E+01  0.00000000000E+00 0.  1.
</event>
<event>
 7    1  0.3086024E-009  0.4614232E+02  0.7816164E-02  0.1320468E+00
        -11   -1    0    0    0    0  0.00000000000E+00  0.00000000000E+00  0.45593999997E+02  0.45594000000E+02  0.51100000000E-03 0.  1.
         11   -1    0    0    0    0 -0.00000000000E+00 -0.00000000000E+00 -0.45593999997E+02  0.45594000000E+02  0.51100000000E-03 0. -1.
    9900012    2    1    2    0    0 -0.43844407553E+01 -0.44757678483E+02  0.25768855914E+01  0.46142318261E+02  0.10000004562E+02 0.  0.
         12    1    1    2    0    0  0.43844407553E+01  0.44757678483E+02 -0.25768855914E+01  0.45045681739E+02  0.00000000000E+00 0. -1.
         11    1    3    3    0    0  0.10332137638E+01 -0.13176098234E+01  0.29703003931E+00  0.17005450402E+01  0.51100000000E-03 0. -1.
        -11    1    3    3    0    0 -0.84606381923E+00 -0.59123971983E+01 -0.22155954599E+01  0.63703318689E+01  0.51100000000E-03 0.  1.
        -12    1    3    3    0    0 -0.45715906999E+01 -0.37527671461E+02  0.44954510119E+01  0.38071441352E+02  0.00000000000E+00 0.  1.
</event>
<event>
 7    1  0.3086024E-009  0.4614232E+02  0.7816164E-02  0.1320468E+00
        -11   -1    0    0    0    0  0.00000000000E+00  0.00000000000E+00  0.45593999997E+02  0.45594000000E+02  0.51100000000E-03 0.  1.
         11   -1    0    0    0    0 -0.00000000000E+00 -0.00000000000E+00 -0.45593999997E+02  0.45594000000E+02  0.51100000000E-03 0. -1.
    9900012    2    1    2    0    0  0.20227075735E+02 -0.21015951334E+02  0.34326501050E+02  0.46142317881E+02  0.10000001090E+02 0.  0.
         12    1    1    2    0    0 -0.20227075735E+02  0.21015951334E+02 -0.34326501050E+02  0.45045682119E+02  0.00000000000E+00 0. -1.
         11    1    3    3    0    0 -0.34172164481E+00 -0.11988391565E+01  0.14730078313E+01  0.19296998051E+01  0.51100000000E-03 0. -1.
        -11    1    3    3    0    0  0.78720295485E+01 -0.12875787536E+02  0.15856421692E+02  0.21890200160E+02  0.51100000000E-03 0.  1.
        -12    1    3    3    0    0  0.12696767831E+02 -0.69413246415E+01  0.16997071527E+02  0.22322417916E+02  0.00000000000E+00 0.  1.
</event>
<event>
 7    1  0.3086024E-009  0.4614232E+02  0.7816164E-02  0.1320468E+00
        -11   -1    0    0    0    0  0.00000000000E+00  0.00000000000E+00  0.45593999997E+02  0.45594000000E+02  0.51100000000E-03 0.  1.
         11   -1    0    0    0    0 -0.00000000000E+00 -0.00000000000E+00 -0.45593999997E+02  0.45594000000E+02  0.51100000000E-03 0. -1.
    9900012    2    1    2    0    0  0.73923725419E+01  0.75611371255E+01  0.43786933664E+02  0.46142317342E+02  0.99999961827E+01 0.  0.
         12    1    1    2    0    0 -0.73923725419E+01 -0.75611371255E+01 -0.43786933664E+02  0.45045682658E+02  0.00000000000E+00 0. -1.
         11    1    3    3    0    0  0.14223644803E+01  0.37758502538E+01  0.21648098652E+02  0.22020906915E+02  0.51100000000E-03 0. -1.
        -11    1    3    3    0    0 -0.48990341313E+00  0.91638111284E+00  0.10157396364E+02  0.10210409436E+02  0.51100000000E-03 0.  1.
         12    1    3    3    0    0  0.64599114747E+01  0.28689057589E+01  0.11981438648E+02  0.13911000991E+02  0.00000000000E+00 0. -1.
</event>
<event>
 7    1  0.3086024E-009  0.4614232E+02  0.7816164E-02  0.1320468E+00
        -11   -1    0    0    0    0  0.00000000000E+00  0.00000000000E+00  0.45593999997E+02  0.45594000000E+02  0.51100000000E-03 0. -1.
         11   -1    0    0    0    0 -0.00000000000E+00 -0.00000000000E+00 -0.45593999997E+02  0.45594000000E+02  0.51100000000E-03 0.  1.
    9900012    2    1    2    0    0  0.38518204444E+02  0.22803104603E+02  0.50477569338E+01  0.46142317597E+02  0.99999985024E+01 0.  0.
         12    1    1    2    0    0 -0.38518204444E+02 -0.22803104603E+02 -0.50477569338E+01  0.45045682403E+02  0.00000000000E+00 0. -1.
         11    1    3    3    0    0  0.16354687882E+02  0.99593440815E+01 -0.10686709561E+01  0.19178279592E+02  0.51100000000E-03 0.  1.
        -11    1    3    3    0    0  0.13795583946E+02  0.10994685482E+02  0.33285117645E+01  0.17952165220E+02  0.51100000000E-03 0. -1.
         12    1    3    3    0    0  0.83679326157E+01  0.18490750397E+01  0.27879161254E+01  0.90118727846E+01  0.00000000000E+00 0. -1.
</event>
<event>
 7    1  0.3086024E-009  0.4614232E+02  0.7816164E-02  0.1320468E+00
        -11   -1    0    0    0    0  0.00000000000E+00  0.00000000000E+00  0.45593999997E+02  0.45594000000E+02  0.51100000000E-03 0.  1.
         11   -1    0    0    0    0 -0.00000000000E+00 -0.00000000000E+00 -0.45593999997E+02  0.45594000000E+02  0.51100000000E-03 0. -1.
    9900012    2    1    2    0    0 -0.14104369221E+01 -0.47384523226E+00  0.45021101788E+02  0.46142317990E+02  0.10000002084E+02 0.  0.
         12    1    1    2    0    0  0.14104369221E+01  0.47384523226E+00 -0.45021101788E+02  0.45045682010E+02  0.00000000000E+00 0. -1.
         11    1    3    3    0    0  0.70724872115E+00  0.11587409357E+01  0.27908567381E+01  0.31035081607E+01  0.51100000000E-03 0. -1.
        -11    1    3    3    0    0 -0.39853886865E+01  0.12940805789E+01  0.14539336916E+02  0.15131103256E+02  0.51100000000E-03 0.  1.
        -12    1    3    3    0    0  0.18677030433E+01 -0.29266667468E+01  0.27690908134E+02  0.27907706573E+02  0.00000000000E+00 0.  1.
</event>
<event>
 7    1  0.3086024E-009  0.4614232E+02  0.7816164E-02  0.1320468E+00
        -11   -1    0    0    0    0  0.00000000000E+00  0.00000000000E+00  0.45593999997E+02  0.45594000000E+02  0.51100000000E-03 0.  1.
         11   -1    0    0    0    0 -0.00000000000E+00 -0.00000000000E+00 -0.45593999997E+02  0.45594000000E+02  0.51100000000E-03 0. -1.
    9900012    2    1    2    0    0  0.25133782940E+02 -0.35447901506E+02  0.11868139721E+02  0.46142317560E+02  0.99999981646E+01 0.  0.
         12    1    1    2    0    0 -0.25133782940E+02  0.35447901506E+02 -0.11868139721E+02  0.45045682440E+02  0.00000000000E+00 0. -1.
         11    1    3    3    0    0  0.45928549632E+01 -0.54974483414E+01 -0.14289950062E+01  0.73046753500E+01  0.51100000000E-03 0. -1.
        -11    1    3    3    0    0  0.14720689809E+01 -0.32848569991E+01  0.44882306238E+00  0.36274943131E+01  0.51100000000E-03 0.  1.
         12    1    3    3    0    0  0.19068858996E+02 -0.26665596166E+02  0.12848311665E+02  0.35210147897E+02  0.00000000000E+00 0. -1.
</event>
<event>
 7    1  0.3086024E-009  0.4614232E+02  0.7816164E-02  0.1320468E+00
        -11   -1    0    0    0    0  0.00000000000E+00  0.00000000000E+00  0.45593999997E+02  0.45594000000E+02  0.51100000000E-03 0.  1.
         11   -1    0    0    0    0 -0.00000000000E+00 -0.00000000000E+00 -0.45593999997E+02  0.45594000000E+02  0.51100000000E-03 0. -1.
    9900012    2    1    2    0    0  0.14870462970E+01 -0.33408924747E+02  0.30178563860E+02  0.46142320117E+02  0.10000021485E+02 0.  0.
         12    1    1    2    0    0 -0.14870462970E+01  0.33408924747E+02 -0.30178563860E+02  0.45045679883E+02  0.00000000000E+00 0. -1.
         11    1    3    3    0    0  0.10124414036E+01 -0.28234348405E+00  0.28132220052E+01  0.30031606268E+01  0.51100000000E-03 0. -1.
        -11    1    3    3    0    0  0.20965008663E+01 -0.18982588049E+02  0.16291348093E+02  0.25102629103E+02  0.51100000000E-03 0.  1.
         12    1    3    3    0    0 -0.16218959728E+01 -0.14143993214E+02  0.11073993761E+02  0.18036530388E+02  0.00000000000E+00 0. -1.
</event>
<event>
 7    1  0.3086024E-009  0.4614232E+02  0.7816164E-02  0.1320468E+00
        -11   -1    0    0    0    0  0.00000000000E+00  0.00000000000E+00  0.45593999997E+02  0.45594000000E+02  0.51100000000E-03 0. -1.
         11   -1    0    0    0    0 -0.00000000000E+00 -0.00000000000E+00 -0.45593999997E+02  0.45594000000E+02  0.51100000000E-03 0.  1.
    9900012    2    1    2    0    0 -0.43763326547E+02  0.23605628292E+01 -0.10407330207E+02  0.46142317306E+02  0.99999958511E+01 0.  0.
         12    1    1    2    0    0  0.43763326547E+02 -0.23605628292E+01  0.10407330207E+02  0.45045682694E+02  0.00000000000E+00 0. -1.
         11    1    3    3    0    0 -0.19756698872E+02  0.30273592800E+01 -0.28090620897E+01  0.20183728214E+02  0.51100000000E-03 0. -1.
        -11    1    3    3    0    0 -0.16690677129E+02  0.74603443745E+00 -0.24127498466E+01  0.16880658532E+02  0.51100000000E-03 0.  1.
         12    1    3    3    0    0 -0.73159505457E+01 -0.14128308883E+01 -0.51855182711E+01  0.90779305596E+01  0.00000000000E+00 0. -1.
</event>
<event>
 7    1  0.3086024E-009  0.4614232E+02  0.7816164E-02  0.1320468E+00
        -11   -1    0    0    0    0  0.00000000000E+00  0.00000000000E+00  0.45593999997E+02  0.45594000000E+02  0.51100000000E-03 0.  1.
         11   -1    0    0    0    0 -0.00000000000E+00 -0.00000000000E+00 -0.45593999997E+02  0.45594000000E+02  0.51100000000E-03 0. -1.
    9900012    2    1    2    0    0 -0.23502399239E+02  0.33432294123E+02  0.18948152088E+02  0.46142317323E+02  0.99999960038E+01 0.  0.
         12    1    1    2    0    0  0.23502399239E+02 -0.33432294123E+02 -0.18948152088E+02  0.45045682677E+02  0.00000000000E+00 0. -1.
         11    1    3    3    0    0 -0.43520847153E+01  0.75646299433E+01  0.14175417211E+01  0.88415887905E+01  0.51100000000E-03 0. -1.
        -11    1    3    3    0    0 -0.48474896657E+01  0.40400505088E+01  0.94704705779E+00  0.63809922868E+01  0.51100000000E-03 0.  1.
        -12    1    3    3    0    0 -0.14302824858E+02  0.21827613670E+02  0.16583563309E+02  0.30919736246E+02  0.00000000000E+00 0.  1.
</event>
<event>
 7    1  0.3086024E-009  0.4614232E+02  0.7816164E-02  0.1320468E+00
        -11   -1    0    0    0    0  0.00000000000E+00  0.00000000000E+00  0.45593999997E+02  0.45594000000E+02  0.51100000000E-03 0.  1.
         11   -1    0    0    0    0 -0.00000000000E+00 -0.00000000000E+00 -0.45593999997E+02  0.45594000000E+02  0.51100000000E-03 0. -1.
    9900012    2    1    2    0    0  0.21169223466E+02 -0.39735467764E+02 -0.14387685548E+01  0.46142317904E+02  0.10000001304E+02 0.  0.
         12    1    1    2    0    0 -0.21169223466E+02  0.39735467764E+02  0.14387685548E+01  0.45045682096E+02  0.00000000000E+00 0. -1.
         11    1    3    3    0    0  0.43406889534E+01 -0.43741877123E+01 -0.16738583547E+01  0.63856793519E+01  0.51100000000E-03 0. -1.
        -11    1    3    3    0    0  0.48489524122E+01 -0.14227115688E+02 -0.27513631718E+01  0.15280482972E+02  0.51100000000E-03 0.  1.
        -12    1    3    3    0    0  0.11979582100E+02 -0.21134164363E+02  0.29864529717E+01  0.24476155580E+02  0.00000000000E+00 0.  1.
</event>
<event>
 7    1  0.3086024E-009  0.4614232E+02  0.7816164E-02  0.1320468E+00
        -11   -1    0    0    0    0  0.00000000000E+00  0.00000000000E+00  0.45593999997E+02  0.45594000000E+02  0.51100000000E-03 0. -1.
         11   -1    0    0    0    0 -0.00000000000E+00 -0.00000000000E+00 -0.45593999997E+02  0.45594000000E+02  0.51100000000E-03 0.  1.
    9900012    2    1    2    0    0  0.43349228076E+02  0.10255833991E+02 -0.66914459785E+01  0.46142321462E+02  0.10000033748E+02 0.  0.
         12    1    1    2    0    0 -0.43349228076E+02 -0.10255833991E+02  0.66914459785E+01  0.45045678538E+02  0.00000000000E+00 0. -1.
         11    1    3    3    0    0  0.22151978514E+02  0.46442126821E+01 -0.30411565454E+01  0.22836976527E+02  0.51100000000E-03 0. -1.
        -11    1    3    3    0    0  0.81879587483E+01  0.53030412390E+01 -0.32634620509E+01  0.10286646668E+02  0.51100000000E-03 0.  1.
         12    1    3    3    0    0  0.13009290814E+02  0.30858006992E+00 -0.38682738217E+00  0.13018698267E+02  0.00000000000E+00 0. -1.
</event>
<event>
 7    1  0.3086024E-009  0.4614232E+02  0.7816164E-02  0.1320468E+00
        -11   -1    0    0    0    0  0.00000000000E+00  0.00000000000E+00  0.45593999997E+02  0.45594000000E+02  0.51100000000E-03 0.  1.
         11   -1    0    0    0    0 -0.00000000000E+00 -0.00000000000E+00 -0.45593999997E+02  0.45594000000E+02  0.51100000000E-03 0. -1.
    9900012    2    1    2    0    0  0.24865927507E+02 -0.21195204358E+02  0.31009073031E+02  0.46142315981E+02  0.99999837654E+01 0.  0.
         12    1    1    2    0    0 -0.24865927507E+02  0.21195204358E+02 -0.31009073031E+02  0.45045684019E+02  0.00000000000E+00 0. -1.
         11    1    3    3    0    0  0.15115121709E+02 -0.13514235607E+02  0.25048637094E+02  0.32226319815E+02  0.51100000000E-03 0. -1.
        -11    1    3    3    0    0  0.65685326733E+01 -0.43646036420E+01  0.45663831742E+01  0.91130259511E+01  0.51100000000E-03 0.  1.
         12    1    3    3    0    0  0.31822731247E+01 -0.33163651088E+01  0.13940527625E+01  0.48029702144E+01  0.00000000000E+00 0. -1.
</event>
<event>
 7    1  0.3086024E-009  0.4614230E+02  0.7816164E-02  0.1320468E+00
        -11   -1    0    0    0    0  0.00000000000E+00  0.00000000000E+00  0.45593999997E+02  0.45594000000E+02  0.51100000000E-03 0. -1.
         11   -1    0    0    0    0 -0.00000000000E+00 -0.00000000000E+00 -0.45593999997E+02  0.45594000000E+02  0.51100000000E-03 0.  1.
    9900012    2    1    2    0    0 -0.24581986705E+02 -0.37136425219E+02 -0.67621365582E+01  0.46142304987E+02  0.99998835105E+01 0.  0.
         12    1    1    2    0    0  0.24581986705E+02  0.37136425219E+02  0.67621365582E+01  0.45045695013E+02  0.00000000000E+00 0. -1.
         11    1    3    3    0    0 -0.65496837995E+00 -0.45855045322E+01  0.12570449829E+01  0.47995830802E+01  0.51100000000E-03 0. -1.
        -11    1    3    3    0    0 -0.15932959700E+02 -0.20103523040E+02 -0.65623689063E+01  0.26477830903E+02  0.51100000000E-03 0.  1.
         12    1    3    3    0    0 -0.79940586256E+01 -0.12447397646E+02 -0.14568126347E+01  0.14864891003E+02  0.00000000000E+00 0. -1.
</event>
<event>
 7    1  0.3086024E-009  0.4614232E+02  0.7816164E-02  0.1320468E+00
        -11   -1    0    0    0    0  0.00000000000E+00  0.00000000000E+00  0.45593999997E+02  0.45594000000E+02  0.51100000000E-03 0.  1.
         11   -1    0    0    0    0 -0.00000000000E+00 -0.00000000000E+00 -0.45593999997E+02  0.45594000000E+02  0.51100000000E-03 0. -1.
    9900012    2    1    2    0    0  0.79836557514E+01 -0.31024596199E+02  0.31667791454E+02  0.46142319363E+02  0.10000014609E+02 0.  0.
         12    1    1    2    0    0 -0.79836557514E+01  0.31024596199E+02 -0.31667791454E+02  0.45045680637E+02  0.00000000000E+00 0. -1.
         11    1    3    3    0    0  0.86481091691E+00 -0.81239244307E+01  0.79500968679E+01  0.11399565191E+02  0.51100000000E-03 0. -1.
        -11    1    3    3    0    0  0.62289258177E+01 -0.15286913568E+02  0.20768045087E+02  0.26529246885E+02  0.51100000000E-03 0.  1.
         12    1    3    3    0    0  0.88991901678E+00 -0.76137582001E+01  0.29496494990E+01  0.82135072869E+01  0.00000000000E+00 0. -1.
</event>
<event>
 7    1  0.3086024E-009  0.4614232E+02  0.7816164E-02  0.1320468E+00
        -11   -1    0    0    0    0  0.00000000000E+00  0.00000000000E+00  0.45593999997E+02  0.45594000000E+02  0.51100000000E-03 0. -1.
         11   -1    0    0    0    0 -0.00000000000E+00 -0.00000000000E+00 -0.45593999997E+02  0.45594000000E+02  0.51100000000E-03 0.  1.
    9900012    2    1    2    0    0  0.27291238843E+02  0.33845346550E+02  0.11781097948E+02  0.46142317970E+02  0.10000001905E+02 0.  0.
         12    1    1    2    0    0 -0.27291238843E+02 -0.33845346550E+02 -0.11781097948E+02  0.45045682030E+02  0.00000000000E+00 0. -1.
         11    1    3    3    0    0  0.20777419051E+02  0.26311239854E+02  0.80320560294E+01  0.34474576276E+02  0.51100000000E-03 0.  1.
        -11    1    3    3    0    0  0.24240517006E+01  0.63018195082E+01  0.26817285688E+01  0.72650274700E+01  0.51100000000E-03 0. -1.
         12    1    3    3    0    0  0.40897680913E+01  0.12322871880E+01  0.10673133501E+01  0.44027142244E+01  0.00000000000E+00 0. -1.
</event>
<event>
 7    1  0.3086024E-009  0.4614232E+02  0.7816164E-02  0.1320468E+00
        -11   -1    0    0    0    0  0.00000000000E+00  0.00000000000E+00  0.45593999997E+02  0.45594000000E+02  0.51100000000E-03 0. -1.
         11   -1    0    0    0    0 -0.00000000000E+00 -0.00000000000E+00 -0.45593999997E+02  0.45594000000E+02  0.51100000000E-03 0.  1.
    9900012    2    1    2    0    0  0.12716958145E+02  0.34783084130E+02 -0.25642338868E+02  0.46142317536E+02  0.99999979446E+01 0.  0.
         12    1    1    2    0    0 -0.12716958145E+02 -0.34783084130E+02  0.25642338868E+02  0.45045682464E+02  0.00000000000E+00 0. -1.
         11    1    3    3    0    0  0.55507838615E+01  0.85611749450E+01 -0.11527558159E+02  0.15394463787E+02  0.51100000000E-03 0. -1.
        -11    1    3    3    0    0  0.50624644356E+01  0.13420185664E+02 -0.73963640235E+01  0.16138033661E+02  0.51100000000E-03 0.  1.
         12    1    3    3    0    0  0.21037098474E+01  0.12801723522E+02 -0.67184166855E+01  0.14609820088E+02  0.00000000000E+00 0. -1.
</event>
<event>
 7    1  0.3086024E-009  0.4614232E+02  0.7816164E-02  0.1320468E+00
        -11   -1    0    0    0    0  0.00000000000E+00  0.00000000000E+00  0.45593999997E+02  0.45594000000E+02  0.51100000000E-03 0. -1.
         11   -1    0    0    0    0 -0.00000000000E+00 -0.00000000000E+00 -0.45593999997E+02  0.45594000000E+02  0.51100000000E-03 0.  1.
    9900012    2    1    2    0    0  0.10800544188E+02  0.41125765391E+02 -0.14870545648E+02  0.46142318058E+02  0.10000002704E+02 0.  0.
         12    1    1    2    0    0 -0.10800544188E+02 -0.41125765391E+02  0.14870545648E+02  0.45045681942E+02  0.00000000000E+00 0. -1.
         11    1    3    3    0    0  0.29801017618E+01  0.66561057467E+01 -0.49050879497E+01  0.87888928926E+01  0.51100000000E-03 0.  1.
        -11    1    3    3    0    0 -0.98028109170E+00  0.79887173400E+01 -0.14518954236E+01  0.81785424337E+01  0.51100000000E-03 0. -1.
        -12    1    3    3    0    0  0.88007235182E+01  0.26480942304E+02 -0.85135622749E+01  0.29174882731E+02  0.00000000000E+00 0.  1.
</event>
<event>
 7    1  0.3086024E-009  0.4614232E+02  0.7816164E-02  0.1320468E+00
        -11   -1    0    0    0    0  0.00000000000E+00  0.00000000000E+00  0.45593999997E+02  0.45594000000E+02  0.51100000000E-03 0. -1.
         11   -1    0    0    0    0 -0.00000000000E+00 -0.00000000000E+00 -0.45593999997E+02  0.45594000000E+02  0.51100000000E-03 0.  1.
    9900012    2    1    2    0    0  0.14033846702E+02  0.30982828167E+02 -0.29533522678E+02  0.46142318118E+02  0.10000003256E+02 0.  0.
         12    1    1    2    0    0 -0.14033846702E+02 -0.30982828167E+02  0.29533522678E+02  0.45045681882E+02  0.00000000000E+00 0. -1.
         11    1    3    3    0    0  0.23431839720E+00  0.48415148297E+01 -0.25669595520E+01  0.54849295858E+01  0.51100000000E-03 0. -1.
        -11    1    3    3    0    0  0.93509106884E+01  0.17482555313E+02 -0.13283598982E+02  0.23864896252E+02  0.51100000000E-03 0.  1.
        -12    1    3    3    0    0  0.44486176164E+01  0.86587580241E+01 -0.13682964144E+02  0.16792492280E+02  0.00000000000E+00 0.  1.
</event>
<event>
 7    1  0.3086024E-009  0.4614232E+02  0.7816164E-02  0.1320468E+00
        -11   -1    0    0    0    0  0.00000000000E+00  0.00000000000E+00  0.45593999997E+02  0.45594000000E+02  0.51100000000E-03 0.  1.
         11   -1    0    0    0    0 -0.00000000000E+00 -0.00000000000E+00 -0.45593999997E+02  0.45594000000E+02  0.51100000000E-03 0. -1.
    9900012    2    1    2    0    0 -0.36911480382E+02  0.25812988486E+02 -0.58800150549E+00  0.46142317584E+02  0.99999983848E+01 0.  0.
         12    1    1    2    0    0  0.36911480382E+02 -0.25812988486E+02  0.58800150549E+00  0.45045682416E+02  0.00000000000E+00 0. -1.
         11    1    3    3    0    0  0.64516956914E-01  0.17308713050E+01 -0.94237080864E+00  0.19718369391E+01  0.51100000000E-03 0. -1.
        -11    1    3    3    0    0 -0.13200306595E+02  0.90778185697E+01 -0.70863351411E+00  0.16036116921E+02  0.51100000000E-03 0.  1.
         12    1    3    3    0    0 -0.23775690744E+02  0.15004298611E+02  0.10630028173E+01  0.28134363724E+02  0.00000000000E+00 0. -1.
</event>
<event>
 7    1  0.3086024E-009  0.4614232E+02  0.7816164E-02  0.1320468E+00
        -11   -1    0    0    0    0  0.00000000000E+00  0.00000000000E+00  0.45593999997E+02  0.45594000000E+02  0.51100000000E-03 0.  1.
         11   -1    0    0    0    0 -0.00000000000E+00 -0.00000000000E+00 -0.45593999997E+02  0.45594000000E+02  0.51100000000E-03 0. -1.
    9900012    2    1    2    0    0 -0.11457972573E+02  0.30782394282E+02  0.30826493140E+02  0.46142316383E+02  0.99999874322E+01 0.  0.
         12    1    1    2    0    0  0.11457972573E+02 -0.30782394282E+02 -0.30826493140E+02  0.45045683617E+02  0.00000000000E+00 0. -1.
         11    1    3    3    0    0 -0.34711733590E+01  0.51220893019E+01  0.86661361995E+01  0.10648321943E+02  0.51100000000E-03 0. -1.
        -11    1    3    3    0    0 -0.48757039622E+00  0.12011641557E+02  0.11379557356E+02  0.16553295251E+02  0.51100000000E-03 0.  1.
         12    1    3    3    0    0 -0.74992288175E+01  0.13648663423E+02  0.10780799585E+02  0.18940699189E+02  0.00000000000E+00 0. -1.
</event>
<event>
 7    1  0.3086024E-009  0.4614232E+02  0.7816164E-02  0.1320468E+00
        -11   -1    0    0    0    0  0.00000000000E+00  0.00000000000E+00  0.45593999997E+02  0.45594000000E+02  0.51100000000E-03 0.  1.
         11   -1    0    0    0    0 -0.00000000000E+00 -0.00000000000E+00 -0.45593999997E+02  0.45594000000E+02  0.51100000000E-03 0. -1.
    9900012    2    1    2    0    0 -0.21676295208E+02 -0.36713610078E+02 -0.14538314716E+02  0.46142317258E+02  0.99999954112E+01 0.  0.
         12    1    1    2    0    0  0.21676295208E+02  0.36713610078E+02  0.14538314716E+02  0.45045682742E+02  0.00000000000E+00 0. -1.
         11    1    3    3    0    0 -0.24585194282E+01 -0.10189746163E+02 -0.18981248875E+01  0.10652611088E+02  0.51100000000E-03 0. -1.
        -11    1    3    3    0    0 -0.91815858682E+01 -0.15711595490E+02 -0.89668918583E+01  0.20286963838E+02  0.51100000000E-03 0.  1.
         12    1    3    3    0    0 -0.10036189911E+02 -0.10812268426E+02 -0.36732979704E+01  0.15202742333E+02  0.00000000000E+00 0. -1.
</event>
<event>
 7    1  0.3086024E-009  0.4614231E+02  0.7816164E-02  0.1320468E+00
        -11   -1    0    0    0    0  0.00000000000E+00  0.00000000000E+00  0.45593999997E+02  0.45594000000E+02  0.51100000000E-03 0. -1.
         11   -1    0    0    0    0 -0.00000000000E+00 -0.00000000000E+00 -0.45593999997E+02  0.45594000000E+02  0.51100000000E-03 0.  1.
    9900012    2    1    2    0    0 -0.27734871859E+02  0.21165243916E+02 -0.28494264023E+02  0.46142314865E+02  0.99999735944E+01 0.  0.
         12    1    1    2    0    0  0.27734871859E+02 -0.21165243916E+02  0.28494264023E+02  0.45045685135E+02  0.00000000000E+00 0. -1.
         11    1    3    3    0    0 -0.19947268236E+01  0.21588753122E+00 -0.33099513994E+00  0.20334946695E+01  0.51100000000E-03 0. -1.
        -11    1    3    3    0    0 -0.13548521815E+02  0.13779082028E+02 -0.19849538110E+02  0.27702521696E+02  0.51100000000E-03 0.  1.
        -12    1    3    3    0    0 -0.12191623220E+02  0.71702743567E+01 -0.83137307735E+01  0.16406298500E+02  0.00000000000E+00 0.  1.
</event>
<event>
 7    1  0.3086024E-009  0.4614232E+02  0.7816164E-02  0.1320468E+00
        -11   -1    0    0    0    0  0.00000000000E+00  0.00000000000E+00  0.45593999997E+02  0.45594000000E+02  0.51100000000E-03 0.  1.
         11   -1    0    0    0    0 -0.00000000000E+00 -0.00000000000E+00 -0.45593999997E+02  0.45594000000E+02  0.51100000000E-03 0. -1.
    9900012    2    1    2    0    0  0.52989541200E+01 -0.36524493413E+02  0.25826265053E+02  0.46142317627E+02  0.99999987780E+01 0.  0.
         12    1    1    2    0    0 -0.52989541200E+01  0.36524493413E+02 -0.25826265053E+02  0.45045682373E+02  0.00000000000E+00 0. -1.
         11    1    3    3    0    0  0.45675067483E+01 -0.25009479401E+02  0.19066589555E+02  0.31778467794E+02  0.51100000000E-03 0.  1.
        -11    1    3    3    0    0  0.43774237585E-01 -0.11880984334E+02  0.64989734853E+01  0.13542391279E+02  0.51100000000E-03 0. -1.
        -12    1    3    3    0    0  0.68767313415E+00  0.36597032238E+00  0.26070201273E+00  0.82145855388E+00  0.00000000000E+00 0.  1.
</event>
<event>
 7    1  0.3086024E-009  0.4614232E+02  0.7816164E-02  0.1320468E+00
        -11   -1    0    0    0    0  0.00000000000E+00  0.00000000000E+00  0.45593999997E+02  0.45594000000E+02  0.51100000000E-03 0. -1.
         11   -1    0    0    0    0 -0.00000000000E+00 -0.00000000000E+00 -0.45593999997E+02  0.45594000000E+02  0.51100000000E-03 0.  1.
    9900012    2    1    2    0    0  0.21038374673E+01  0.24554948656E+02 -0.37705992718E+02  0.46142317384E+02  0.99999965571E+01 0.  0.
         12    1    1    2    0    0 -0.21038374673E+01 -0.24554948656E+02  0.37705992718E+02  0.45045682616E+02  0.00000000000E+00 0. -1.
         11    1    3    3    0    0  0.49261302292E+01  0.10565795046E+02 -0.13840547699E+02  0.18095953826E+02  0.51100000000E-03 0. -1.
        -11    1    3    3    0    0 -0.26594795944E+01  0.81638269708E+01 -0.11269596820E+02  0.14167735009E+02  0.51100000000E-03 0.  1.
         12    1    3    3    0    0 -0.16281316747E+00  0.58253266385E+01 -0.12595848198E+02  0.13878628549E+02  0.00000000000E+00 0. -1.
</event>
<event>
 7    1  0.3086024E-009  0.4614232E+02  0.7816164E-02  0.1320468E+00
        -11   -1    0    0    0    0  0.00000000000E+00  0.00000000000E+00  0.45593999997E+02  0.45594000000E+02  0.51100000000E-03 0. -1.
         11   -1    0    0    0    0 -0.00000000000E+00 -0.00000000000E+00 -0.45593999997E+02  0.45594000000E+02  0.51100000000E-03 0.  1.
    9900012    2    1    2    0    0 -0.35673454815E+02  0.26936397735E+02 -0.55631471614E+01  0.46142317546E+02  0.99999980393E+01 0.  0.
         12    1    1    2    0    0  0.35673454815E+02 -0.26936397735E+02  0.55631471614E+01  0.45045682454E+02  0.00000000000E+00 0. -1.
         11    1    3    3    0    0 -0.10608825274E+01  0.43002127662E+00  0.59483298298E+00  0.12900451829E+01  0.51100000000E-03 0. -1.
        -11    1    3    3    0    0 -0.23853838444E+02  0.22081059525E+02 -0.67711456471E+01  0.33202819337E+02  0.51100000000E-03 0.  1.
        -12    1    3    3    0    0 -0.10758733844E+02  0.44253169333E+01  0.61316550270E+00  0.11649453026E+02  0.00000000000E+00 0.  1.
</event>
<event>
 7    1  0.3086024E-009  0.4614232E+02  0.7816164E-02  0.1320468E+00
        -11   -1    0    0    0    0  0.00000000000E+00  0.00000000000E+00  0.45593999997E+02  0.45594000000E+02  0.51100000000E-03 0.  1.
         11   -1    0    0    0    0 -0.00000000000E+00 -0.00000000000E+00 -0.45593999997E+02  0.45594000000E+02  0.51100000000E-03 0. -1.
    9900012    2    1    2    0    0  0.34945685689E+02  0.25663176186E+02  0.12219409329E+02  0.46142317359E+02  0.99999963338E+01 0.  0.
         12    1    1    2    0    0 -0.34945685689E+02 -0.25663176186E+02 -0.12219409329E+02  0.45045682641E+02  0.00000000000E+00 0. -1.
         11    1    3    3    0    0  0.40982012411E+01  0.16430018799E+01 -0.62995622620E+00  0.44599948091E+01  0.51100000000E-03 0. -1.
        -11    1    3    3    0    0  0.15547646281E+02  0.15828109530E+02  0.87486045895E+01  0.23849453635E+02  0.51100000000E-03 0.  1.
        -12    1    3    3    0    0  0.15299838167E+02  0.81920647765E+01  0.41007609656E+01  0.17832868915E+02  0.00000000000E+00 0.  1.
</event>
<event>
 7    1  0.3086024E-009  0.4614232E+02  0.7816164E-02  0.1320468E+00
        -11   -1    0    0    0    0  0.00000000000E+00  0.00000000000E+00  0.45593999997E+02  0.45594000000E+02  0.51100000000E-03 0.  1.
         11   -1    0    0    0    0 -0.00000000000E+00 -0.00000000000E+00 -0.45593999997E+02  0.45594000000E+02  0.51100000000E-03 0. -1.
    9900012    2    1    2    0    0  0.16620975919E+01  0.32913292141E+02  0.30709381825E+02  0.46142317632E+02  0.99999988211E+01 0.  0.
         12    1    1    2    0    0 -0.16620975919E+01 -0.32913292141E+02 -0.30709381825E+02  0.45045682368E+02  0.00000000000E+00 0. -1.
         11    1    3    3    0    0 -0.23339365797E+01  0.42261527520E+01  0.43570295718E+01  0.65031787606E+01  0.51100000000E-03 0. -1.
        -11    1    3    3    0    0  0.11349636036E+01  0.19256049939E+02  0.13987857532E+02  0.23827374179E+02  0.51100000000E-03 0.  1.
         12    1    3    3    0    0  0.28610705680E+01  0.94310894501E+01  0.12364494720E+02  0.15811764693E+02  0.00000000000E+00 0. -1.
</event>
<event>
 7    1  0.3086024E-009  0.4614232E+02  0.7816164E-02  0.1320468E+00
        -11   -1    0    0    0    0  0.00000000000E+00  0.00000000000E+00  0.45593999997E+02  0.45594000000E+02  0.51100000000E-03 0. -1.
         11   -1    0    0    0    0 -0.00000000000E+00 -0.00000000000E+00 -0.45593999997E+02  0.45594000000E+02  0.51100000000E-03 0.  1.
    9900012    2    1    2    0    0  0.36758924585E+02 -0.12790973036E+02 -0.22677874112E+02  0.46142317609E+02  0.99999986142E+01 0.  0.
         12    1    1    2    0    0 -0.36758924585E+02  0.12790973036E+02  0.22677874112E+02  0.45045682391E+02  0.00000000000E+00 0. -1.
         11    1    3    3    0    0  0.68851774607E+01  0.57663828387E+00 -0.13578043390E+01  0.70414354545E+01  0.51100000000E-03 0. -1.
        -11    1    3    3    0    0  0.11949532628E+02 -0.47004746245E+01 -0.75949675303E+01  0.14918757447E+02  0.51100000000E-03 0.  1.
         12    1    3    3    0    0  0.17924214496E+02 -0.86671366958E+01 -0.13725102242E+02  0.24182124707E+02  0.00000000000E+00 0. -1.
</event>
<event>
 7    1  0.3086024E-009  0.4614232E+02  0.7816164E-02  0.1320468E+00
        -11   -1    0    0    0    0  0.00000000000E+00  0.00000000000E+00  0.45593999997E+02  0.45594000000E+02  0.51100000000E-03 0.  1.
         11   -1    0    0    0    0 -0.00000000000E+00 -0.00000000000E+00 -0.45593999997E+02  0.45594000000E+02  0.51100000000E-03 0. -1.
    9900012    2    1    2    0    0 -0.40878426738E+02 -0.18031907130E+02  0.57374259709E+01  0.46142317587E+02  0.99999984097E+01 0.  0.
         12    1    1    2    0    0  0.40878426738E+02  0.18031907130E+02 -0.57374259709E+01  0.45045682413E+02  0.00000000000E+00 0. -1.
         11    1    3    3    0    0 -0.13699092208E+02 -0.32998607458E+01  0.12276113086E+01  0.14144300550E+02  0.51100000000E-03 0. -1.
        -11    1    3    3    0    0 -0.12871928252E+02 -0.10898953945E+02  0.24701017694E+01  0.17046264607E+02  0.51100000000E-03 0.  1.
        -12    1    3    3    0    0 -0.14307406278E+02 -0.38330924394E+01  0.20397128930E+01  0.14951752430E+02  0.00000000000E+00 0.  1.
</event>
<event>
 7    1  0.3086024E-009  0.4614232E+02  0.7816164E-02  0.1320468E+00
        -11   -1    0    0    0    0  0.00000000000E+00  0.00000000000E+00  0.45593999997E+02  0.45594000000E+02  0.51100000000E-03 0.  1.
         11   -1    0    0    0    0 -0.00000000000E+00 -0.00000000000E+00 -0.45593999997E+02  0.45594000000E+02  0.51100000000E-03 0. -1.
    9900012    2    1    2    0    0 -0.44459882578E+02 -0.70887707015E+01  0.14770733524E+01  0.46142316804E+02  0.99999912766E+01 0.  0.
         12    1    1    2    0    0  0.44459882578E+02  0.70887707015E+01 -0.14770733524E+01  0.45045683196E+02  0.00000000000E+00 0. -1.
         11    1    3    3    0    0 -0.11652730480E+02 -0.68908601683E+00  0.32676026785E+01  0.12121806577E+02  0.51100000000E-03 0. -1.
        -11    1    3    3    0    0 -0.29070998102E+02 -0.76019066047E+01 -0.15650523924E+01  0.30089222389E+02  0.51100000000E-03 0.  1.
        -12    1    3    3    0    0 -0.37361539953E+01  0.12022219201E+01 -0.22547693374E+00  0.39312878386E+01  0.00000000000E+00 0.  1.
</event>
<event>
 7    1  0.3086024E-009  0.4614232E+02  0.7816164E-02  0.1320468E+00
        -11   -1    0    0    0    0  0.00000000000E+00  0.00000000000E+00  0.45593999997E+02  0.45594000000E+02  0.51100000000E-03 0.  1.
         11   -1    0    0    0    0 -0.00000000000E+00 -0.00000000000E+00 -0.45593999997E+02  0.45594000000E+02  0.51100000000E-03 0. -1.
    9900012    2    1    2    0    0  0.27244081114E+02 -0.49562621598E+00  0.35869595193E+02  0.46142318071E+02  0.10000002828E+02 0.  0.
         12    1    1    2    0    0 -0.27244081114E+02  0.49562621598E+00 -0.35869595193E+02  0.45045681929E+02  0.00000000000E+00 0. -1.
         11    1    3    3    0    0  0.25622767549E+02 -0.19929856257E+01  0.32441662459E+02  0.41387916980E+02  0.51100000000E-03 0. -1.
        -11    1    3    3    0    0  0.17710848681E+01  0.79127920961E+00  0.35275922714E+01  0.40257635167E+01  0.51100000000E-03 0.  1.
         12    1    3    3    0    0 -0.14977130229E+00  0.70608020014E+00 -0.99659537412E-01  0.72863757481E+00  0.00000000000E+00 0. -1.
</event>
<event>
 7    1  0.3086024E-009  0.4614232E+02  0.7816164E-02  0.1320468E+00
        -11   -1    0    0    0    0  0.00000000000E+00  0.00000000000E+00  0.45593999997E+02  0.45594000000E+02  0.51100000000E-03 0.  1.
         11   -1    0    0    0    0 -0.00000000000E+00 -0.00000000000E+00 -0.45593999997E+02  0.45594000000E+02  0.51100000000E-03 0. -1.
    9900012    2    1    2    0    0 -0.13538952097E+02  0.42004499602E+02  0.90239842840E+01  0.46142317598E+02  0.99999985110E+01 0.  0.
         12    1    1    2    0    0  0.13538952097E+02 -0.42004499602E+02 -0.90239842840E+01  0.45045682402E+02  0.00000000000E+00 0. -1.
         11    1    3    3    0    0 -0.20194238959E+01  0.61802445578E+00 -0.11443784697E-01  0.21119086913E+01  0.51100000000E-03 0. -1.
        -11    1    3    3    0    0 -0.55241697949E+01  0.23579646035E+02  0.37047146907E+01  0.24499817760E+02  0.51100000000E-03 0.  1.
        -12    1    3    3    0    0 -0.59953584060E+01  0.17806829111E+02  0.53307133780E+01  0.19530591147E+02  0.00000000000E+00 0.  1.
</event>
<event>
 7    1  0.3086024E-009  0.4614232E+02  0.7816164E-02  0.1320468E+00
        -11   -1    0    0    0    0  0.00000000000E+00  0.00000000000E+00  0.45593999997E+02  0.45594000000E+02  0.51100000000E-03 0.  1.
         11   -1    0    0    0    0 -0.00000000000E+00 -0.00000000000E+00 -0.45593999997E+02  0.45594000000E+02  0.51100000000E-03 0. -1.
    9900012    2    1    2    0    0 -0.15954515226E+02 -0.16095991026E+02  0.38929243791E+02  0.46142317572E+02  0.99999982764E+01 0.  0.
         12    1    1    2    0    0  0.15954515226E+02  0.16095991026E+02 -0.38929243791E+02  0.45045682428E+02  0.00000000000E+00 0. -1.
         11    1    3    3    0    0 -0.61901570715E+01 -0.11412139551E+02  0.20641048455E+02  0.24384582327E+02  0.51100000000E-03 0. -1.
        -11    1    3    3    0    0 -0.77820859263E+00 -0.22100160312E+01  0.25204964149E+01  0.34413197919E+01  0.51100000000E-03 0.  1.
         12    1    3    3    0    0 -0.89861495621E+01 -0.24738354443E+01  0.15767698921E+02  0.18316415453E+02  0.00000000000E+00 0. -1.
</event>
<event>
 7    1  0.3086024E-009  0.4614232E+02  0.7816164E-02  0.1320468E+00
        -11   -1    0    0    0    0  0.00000000000E+00  0.00000000000E+00  0.45593999997E+02  0.45594000000E+02  0.51100000000E-03 0. -1.
         11   -1    0    0    0    0 -0.00000000000E+00 -0.00000000000E+00 -0.45593999997E+02  0.45594000000E+02  0.51100000000E-03 0.  1.
    9900012    2    1    2    0    0  0.48608359947E+01  0.17258685237E+02 -0.41323401588E+02  0.46142318059E+02  0.10000002719E+02 0.  0.
         12    1    1    2    0    0 -0.48608359947E+01 -0.17258685237E+02  0.41323401588E+02  0.45045681941E+02  0.00000000000E+00 0. -1.
         11    1    3    3    0    0  0.47979657112E+01  0.26197098213E+01 -0.12797102381E+02  0.13915789022E+02  0.51100000000E-03 0. -1.
        -11    1    3    3    0    0 -0.33180785450E+00  0.99308212082E+01 -0.22274319111E+02  0.24390092219E+02  0.51100000000E-03 0.  1.
         12    1    3    3    0    0  0.39467813795E+00  0.47081542075E+01 -0.62519800966E+01  0.78364368180E+01  0.00000000000E+00 0. -1.
</event>
<event>
 7    1  0.3086024E-009  0.4614232E+02  0.7816164E-02  0.1320468E+00
        -11   -1    0    0    0    0  0.00000000000E+00  0.00000000000E+00  0.45593999997E+02  0.45594000000E+02  0.51100000000E-03 0. -1.
         11   -1    0    0    0    0 -0.00000000000E+00 -0.00000000000E+00 -0.45593999997E+02  0.45594000000E+02  0.51100000000E-03 0.  1.
    9900012    2    1    2    0    0 -0.31225861610E+02  0.18381096868E+02 -0.26761798484E+02  0.46142323032E+02  0.10000048066E+02 0.  0.
         12    1    1    2    0    0  0.31225861610E+02 -0.18381096868E+02  0.26761798484E+02  0.45045676968E+02  0.00000000000E+00 0. -1.
         11    1    3    3    0    0 -0.42852334151E+01  0.19531215000E+00 -0.56723866496E+01  0.71117749417E+01  0.51100000000E-03 0. -1.
        -11    1    3    3    0    0 -0.14473130539E+02  0.95041269702E+01 -0.84438815931E+01  0.19263931937E+02  0.51100000000E-03 0.  1.
         12    1    3    3    0    0 -0.12467497656E+02  0.86816577481E+01 -0.12645530241E+02  0.19766616153E+02  0.00000000000E+00 0. -1.
</event>
<event>
 7    1  0.3086024E-009  0.4614232E+02  0.7816164E-02  0.1320468E+00
        -11   -1    0    0    0    0  0.00000000000E+00  0.00000000000E+00  0.45593999997E+02  0.45594000000E+02  0.51100000000E-03 0.  1.
         11   -1    0    0    0    0 -0.00000000000E+00 -0.00000000000E+00 -0.45593999997E+02  0.45594000000E+02  0.51100000000E-03 0. -1.
    9900012    2    1    2    0    0  0.39551457548E+02  0.20350054743E+02  0.71183553638E+01  0.46142317573E+02  0.99999982865E+01 0.  0.
         12    1    1    2    0    0 -0.39551457548E+02 -0.20350054743E+02 -0.71183553638E+01  0.45045682427E+02  0.00000000000E+00 0. -1.
         11    1    3    3    0    0  0.21490546662E+02  0.67100794507E+01  0.26211562318E+01  0.22665816163E+02  0.51100000000E-03 0. -1.
        -11    1    3    3    0    0  0.85513968660E+01  0.62340866733E+01 -0.81877363458E-01  0.10582860160E+02  0.51100000000E-03 0.  1.
        -12    1    3    3    0    0  0.95095140192E+01  0.74058886195E+01  0.45790764954E+01  0.12893641250E+02  0.00000000000E+00 0.  1.
</event>
<event>
 7    1  0.3086024E-009  0.4614232E+02  0.7816164E-02  0.1320468E+00
        -11   -1    0    0    0    0  0.00000000000E+00  0.00000000000E+00  0.45593999997E+02  0.45594000000E+02  0.51100000000E-03 0. -1.
         11   -1    0    0    0    0 -0.00000000000E+00 -0.00000000000E+00 -0.45593999997E+02  0.45594000000E+02  0.51100000000E-03 0.  1.
    9900012    2    1    2    0    0 -0.22923056805E+02  0.37278027950E+02  0.10676857382E+02  0.46142321132E+02  0.10000030741E+02 0.  0.
         12    1    1    2    0    0  0.22923056805E+02 -0.37278027950E+02 -0.10676857382E+02  0.45045678868E+02  0.00000000000E+00 0. -1.
         11    1    3    3    0    0 -0.13630048923E+02  0.24315527045E+02  0.24044541083E+01  0.27978643443E+02  0.51100000000E-03 0. -1.
        -11    1    3    3    0    0 -0.37109242188E+01  0.73821895371E+01  0.46230711849E+01  0.94678650371E+01  0.51100000000E-03 0.  1.
         12    1    3    3    0    0 -0.55820836633E+01  0.55803113681E+01  0.36493320889E+01  0.86958126522E+01  0.00000000000E+00 0. -1.
</event>
<event>
 7    1  0.3086024E-009  0.4614232E+02  0.7816164E-02  0.1320468E+00
        -11   -1    0    0    0    0  0.00000000000E+00  0.00000000000E+00  0.45593999997E+02  0.45594000000E+02  0.51100000000E-03 0.  1.
         11   -1    0    0    0    0 -0.00000000000E+00 -0.00000000000E+00 -0.45593999997E+02  0.45594000000E+02  0.51100000000E-03 0. -1.
    9900012    2    1    2    0    0  0.23661116440E+02  0.49900542354E-01  0.38330957428E+02  0.46142320756E+02  0.10000027306E+02 0.  0.
         12    1    1    2    0    0 -0.23661116440E+02 -0.49900542354E-01 -0.38330957428E+02  0.45045679244E+02  0.00000000000E+00 0. -1.
         11    1    3    3    0    0  0.55645868570E+01 -0.21698978381E+01  0.10807324559E+02  0.12347928891E+02  0.51100000000E-03 0. -1.
        -11    1    3    3    0    0  0.22972592875E+01  0.24315076602E+01  0.80464786911E+01  0.87140948654E+01  0.51100000000E-03 0.  1.
         12    1    3    3    0    0  0.15799270296E+02 -0.21170927981E+00  0.19477154178E+02  0.25080296999E+02  0.00000000000E+00 0. -1.
</event>
<event>
 7    1  0.3086024E-009  0.4614232E+02  0.7816164E-02  0.1320468E+00
        -11   -1    0    0    0    0  0.00000000000E+00  0.00000000000E+00  0.45593999997E+02  0.45594000000E+02  0.51100000000E-03 0.  1.
         11   -1    0    0    0    0 -0.00000000000E+00 -0.00000000000E+00 -0.45593999997E+02  0.45594000000E+02  0.51100000000E-03 0. -1.
    9900012    2    1    2    0    0  0.28826868008E+02  0.12561391800E+02  0.32254250243E+02  0.46142317167E+02  0.99999945866E+01 0.  0.
         12    1    1    2    0    0 -0.28826868008E+02 -0.12561391800E+02 -0.32254250243E+02  0.45045682833E+02  0.00000000000E+00 0. -1.
         11    1    3    3    0    0 -0.75434583925E-01  0.13117774420E+00  0.84064203372E-01  0.17310409711E+00  0.51100000000E-03 0. -1.
        -11    1    3    3    0    0  0.24031958197E+02  0.13858082661E+02  0.26600767527E+02  0.38434129405E+02  0.51100000000E-03 0.  1.
        -12    1    3    3    0    0  0.48703443951E+01 -0.14278686049E+01  0.55694185124E+01  0.75350836655E+01  0.00000000000E+00 0.  1.
</event>
<event>
 7    1  0.3086024E-009  0.4614232E+02  0.7816164E-02  0.1320468E+00
        -11   -1    0    0    0    0  0.00000000000E+00  0.00000000000E+00  0.45593999997E+02  0.45594000000E+02  0.51100000000E-03 0. -1.
         11   -1    0    0    0    0 -0.00000000000E+00 -0.00000000000E+00 -0.45593999997E+02  0.45594000000E+02  0.51100000000E-03 0.  1.
    9900012    2    1    2    0    0 -0.17811523890E+02 -0.28966208320E+02 -0.29543558854E+02  0.46142317881E+02  0.10000001097E+02 0.  0.
         12    1    1    2    0    0  0.17811523890E+02  0.28966208320E+02  0.29543558854E+02  0.45045682119E+02  0.00000000000E+00 0. -1.
         11    1    3    3    0    0 -0.56610394242E+01 -0.77369725171E+01 -0.97521675874E+01  0.13675265409E+02  0.51100000000E-03 0. -1.
        -11    1    3    3    0    0 -0.62506947318E+01 -0.45026808404E+01 -0.38174370703E+01  0.85975662503E+01  0.51100000000E-03 0.  1.
        -12    1    3    3    0    0 -0.58997897344E+01 -0.16726554963E+02 -0.15973954196E+02  0.23869486222E+02  0.00000000000E+00 0.  1.
</event>
<event>
 7    1  0.3086024E-009  0.4614232E+02  0.7816164E-02  0.1320468E+00
        -11   -1    0    0    0    0  0.00000000000E+00  0.00000000000E+00  0.45593999997E+02  0.45594000000E+02  0.51100000000E-03 0.  1.
         11   -1    0    0    0    0 -0.00000000000E+00 -0.00000000000E+00 -0.45593999997E+02  0.45594000000E+02  0.51100000000E-03 0. -1.
    9900012    2    1    2    0    0 -0.27107389927E+02  0.76093380697E+01  0.35162493271E+02  0.46142317104E+02  0.99999940079E+01 0.  0.
         12    1    1    2    0    0  0.27107389927E+02 -0.76093380697E+01 -0.35162493271E+02  0.45045682896E+02  0.00000000000E+00 0. -1.
         11    1    3    3    0    0 -0.10455773102E+02  0.89298249936E+00  0.13001592360E+02  0.16708142119E+02  0.51100000000E-03 0. -1.
        -11    1    3    3    0    0 -0.13001699002E+02  0.82655769370E+01  0.17650475744E+02  0.23428683985E+02  0.51100000000E-03 0.  1.
        -12    1    3    3    0    0 -0.36499178234E+01 -0.15492213667E+01  0.45104251670E+01  0.60054909997E+01  0.00000000000E+00 0.  1.
</event>
<event>
 7    1  0.3086024E-009  0.4614232E+02  0.7816164E-02  0.1320468E+00
        -11   -1    0    0    0    0  0.00000000000E+00  0.00000000000E+00  0.45593999997E+02  0.45594000000E+02  0.51100000000E-03 0. -1.
         11   -1    0    0    0    0 -0.00000000000E+00 -0.00000000000E+00 -0.45593999997E+02  0.45594000000E+02  0.51100000000E-03 0.  1.
    9900012    2    1    2    0    0 -0.21604898630E+02  0.13521118221E+02 -0.37141901622E+02  0.46142321641E+02  0.10000035380E+02 0.  0.
         12    1    1    2    0    0  0.21604898630E+02 -0.13521118221E+02  0.37141901622E+02  0.45045678359E+02  0.00000000000E+00 0. -1.
         11    1    3    3    0    0 -0.60640262094E+01  0.10528249114E+01 -0.10510699633E+02  0.12180133875E+02  0.51100000000E-03 0. -1.
        -11    1    3    3    0    0 -0.14946462704E+02  0.96259678138E+01 -0.20220110177E+02  0.26924131547E+02  0.51100000000E-03 0.  1.
        -12    1    3    3    0    0 -0.59440971604E+00  0.28423254954E+01 -0.64110918115E+01  0.70380562195E+01  0.00000000000E+00 0.  1.
</event>
<event>
 7    1  0.3086024E-009  0.4614232E+02  0.7816164E-02  0.1320468E+00
        -11   -1    0    0    0    0  0.00000000000E+00  0.00000000000E+00  0.45593999997E+02  0.45594000000E+02  0.51100000000E-03 0. -1.
         11   -1    0    0    0    0 -0.00000000000E+00 -0.00000000000E+00 -0.45593999997E+02  0.45594000000E+02  0.51100000000E-03 0.  1.
    9900012    2    1    2    0    0 -0.13384986694E+02 -0.42857698619E+02  0.36294932353E+01  0.46142318510E+02  0.10000006831E+02 0.  0.
         12    1    1    2    0    0  0.13384986694E+02  0.42857698619E+02 -0.36294932353E+01  0.45045681490E+02  0.00000000000E+00 0. -1.
         11    1    3    3    0    0 -0.37291378133E+01 -0.22802238782E+02  0.26310141376E+00  0.23106661051E+02  0.51100000000E-03 0. -1.
        -11    1    3    3    0    0 -0.67350007014E+01 -0.17941158372E+02  0.31743059874E+01  0.19424768131E+02  0.51100000000E-03 0.  1.
         12    1    3    3    0    0 -0.29208481795E+01 -0.21143014646E+01  0.19208583417E+00  0.36108893279E+01  0.00000000000E+00 0. -1.
</event>
<event>
 7    1  0.3086024E-009  0.4614233E+02  0.7816164E-02  0.1320468E+00
        -11   -1    0    0    0    0  0.00000000000E+00  0.00000000000E+00  0.45593999997E+02  0.45594000000E+02  0.51100000000E-03 0.  1.
         11   -1    0    0    0    0 -0.00000000000E+00 -0.00000000000E+00 -0.45593999997E+02  0.45594000000E+02  0.51100000000E-03 0. -1.
    9900012    2    1    2    0    0  0.24520507990E+02 -0.10868961551E+02  0.36190095090E+02  0.46142327401E+02  0.10000087908E+02 0.  0.
         12    1    1    2    0    0 -0.24520507990E+02  0.10868961551E+02 -0.36190095090E+02  0.45045672599E+02  0.00000000000E+00 0. -1.
         11    1    3    3    0    0  0.11019576189E+02 -0.16983244630E+01  0.20165354274E+02  0.23042501571E+02  0.51100000000E-03 0.  1.
        -11    1    3    3    0    0  0.49045844205E+01 -0.25031488893E+01  0.35682641117E+01  0.65614946263E+01  0.51100000000E-03 0. -1.
         12    1    3    3    0    0  0.85963473806E+01 -0.66674881987E+01  0.12456476703E+02  0.16538331205E+02  0.00000000000E+00 0. -1.
</event>
<event>
 7    1  0.3086024E-009  0.4614232E+02  0.7816164E-02  0.1320468E+00
        -11   -1    0    0    0    0  0.00000000000E+00  0.00000000000E+00  0.45593999997E+02  0.45594000000E+02  0.51100000000E-03 0. -1.
         11   -1    0    0    0    0 -0.00000000000E+00 -0.00000000000E+00 -0.45593999997E+02  0.45594000000E+02  0.51100000000E-03 0.  1.
    9900012    2    1    2    0    0 -0.19903844859E+02  0.16559266365E+02 -0.36861105134E+02  0.46142318582E+02  0.10000007483E+02 0.  0.
         12    1    1    2    0    0  0.19903844859E+02 -0.16559266365E+02  0.36861105134E+02  0.45045681418E+02  0.00000000000E+00 0. -1.
         11    1    3    3    0    0 -0.13585461008E+02  0.11831810771E+02 -0.19103509962E+02  0.26258343247E+02  0.51100000000E-03 0. -1.
        -11    1    3    3    0    0 -0.25221586447E+01  0.42502457197E+01 -0.11923270213E+02  0.12906984378E+02  0.51100000000E-03 0.  1.
        -12    1    3    3    0    0 -0.37962252064E+01  0.47720987369E+00 -0.58343249595E+01  0.69769909570E+01  0.00000000000E+00 0.  1.
</event>
<event>
 7    1  0.3086024E-009  0.4614232E+02  0.7816164E-02  0.1320468E+00
        -11   -1    0    0    0    0  0.00000000000E+00  0.00000000000E+00  0.45593999997E+02  0.45594000000E+02  0.51100000000E-03 0. -1.
         11   -1    0    0    0    0 -0.00000000000E+00 -0.00000000000E+00 -0.45593999997E+02  0.45594000000E+02  0.51100000000E-03 0.  1.
    9900012    2    1    2    0    0  0.25051427291E+02  0.25332969907E+02 -0.27564109595E+02  0.46142317506E+02  0.99999976695E+01 0.  0.
         12    1    1    2    0    0 -0.25051427291E+02 -0.25332969907E+02  0.27564109595E+02  0.45045682494E+02  0.00000000000E+00 0. -1.
         11    1    3    3    0    0  0.17626528586E+01  0.13198909038E+01 -0.42190584946E+01  0.47591503380E+01  0.51100000000E-03 0. -1.
        -11    1    3    3    0    0  0.84909748717E+01  0.11856076182E+02 -0.13395897522E+02  0.19801850100E+02  0.51100000000E-03 0.  1.
         12    1    3    3    0    0  0.14797799561E+02  0.12157002821E+02 -0.99491535779E+01  0.21581317067E+02  0.00000000000E+00 0. -1.
</event>
<event>
 7    1  0.3086024E-009  0.4614231E+02  0.7816164E-02  0.1320468E+00
        -11   -1    0    0    0    0  0.00000000000E+00  0.00000000000E+00  0.45593999997E+02  0.45594000000E+02  0.51100000000E-03 0.  1.
         11   -1    0    0    0    0 -0.00000000000E+00 -0.00000000000E+00 -0.45593999997E+02  0.45594000000E+02  0.51100000000E-03 0. -1.
    9900012    2    1    2    0    0 -0.16684951951E+02 -0.30759051635E+02  0.28365593739E+02  0.46142314443E+02  0.99999697469E+01 0.  0.
         12    1    1    2    0    0  0.16684951951E+02  0.30759051635E+02 -0.28365593739E+02  0.45045685557E+02  0.00000000000E+00 0. -1.
         11    1    3    3    0    0 -0.29660169753E+01 -0.29976021448E+01  0.24786493642E+01  0.48914801694E+01  0.51100000000E-03 0. -1.
        -11    1    3    3    0    0 -0.12681537335E+02 -0.17587088157E+02  0.19716592717E+02  0.29306502480E+02  0.51100000000E-03 0.  1.
        -12    1    3    3    0    0 -0.10373976406E+01 -0.10174361334E+02  0.61703516576E+01  0.11944331794E+02  0.00000000000E+00 0.  1.
</event>
<event>
 7    1  0.3086024E-009  0.4614232E+02  0.7816164E-02  0.1320468E+00
        -11   -1    0    0    0    0  0.00000000000E+00  0.00000000000E+00  0.45593999997E+02  0.45594000000E+02  0.51100000000E-03 0.  1.
         11   -1    0    0    0    0 -0.00000000000E+00 -0.00000000000E+00 -0.45593999997E+02  0.45594000000E+02  0.51100000000E-03 0. -1.
    9900012    2    1    2    0    0  0.17258039298E+02 -0.33971785724E+02  0.24024806974E+02  0.46142317678E+02  0.99999992456E+01 0.  0.
         12    1    1    2    0    0 -0.17258039298E+02  0.33971785724E+02 -0.24024806974E+02  0.45045682322E+02  0.00000000000E+00 0. -1.
         11    1    3    3    0    0  0.40432507451E+01 -0.23758215566E+01  0.34057000449E+01  0.57957913794E+01  0.51100000000E-03 0. -1.
        -11    1    3    3    0    0  0.13464549511E+02 -0.28056291262E+02  0.18818198147E+02  0.36367212633E+02  0.51100000000E-03 0.  1.
         12    1    3    3    0    0 -0.24976095804E+00 -0.35396729053E+01  0.18009087814E+01  0.39793136659E+01  0.00000000000E+00 0. -1.
</event>
<event>
 7    1  0.3086024E-009  0.4614232E+02  0.7816164E-02  0.1320468E+00
        -11   -1    0    0    0    0  0.00000000000E+00  0.00000000000E+00  0.45593999997E+02  0.45594000000E+02  0.51100000000E-03 0. -1.
         11   -1    0    0    0    0 -0.00000000000E+00 -0.00000000000E+00 -0.45593999997E+02  0.45594000000E+02  0.51100000000E-03 0.  1.
    9900012    2    1    2    0    0  0.39468948918E+02  0.62385223874E+01  0.20794142959E+02  0.46142317947E+02  0.10000001694E+02 0.  0.
         12    1    1    2    0    0 -0.39468948918E+02 -0.62385223874E+01 -0.20794142959E+02  0.45045682053E+02  0.00000000000E+00 0. -1.
         11    1    3    3    0    0  0.20410628389E+02  0.33718912419E+01  0.74583353281E+01  0.21990683661E+02  0.51100000000E-03 0.  1.
        -11    1    3    3    0    0  0.18216761585E+02  0.12888350920E+01  0.11460893127E+02  0.21560695027E+02  0.51100000000E-03 0. -1.
        -12    1    3    3    0    0  0.84155894408E+00  0.15777960535E+01  0.18749145036E+01  0.25909392580E+01  0.00000000000E+00 0.  1.
</event>
<event>
 7    1  0.3086024E-009  0.4614232E+02  0.7816164E-02  0.1320468E+00
        -11   -1    0    0    0    0  0.00000000000E+00  0.00000000000E+00  0.45593999997E+02  0.45594000000E+02  0.51100000000E-03 0.  1.
         11   -1    0    0    0    0 -0.00000000000E+00 -0.00000000000E+00 -0.45593999997E+02  0.45594000000E+02  0.51100000000E-03 0. -1.
    9900012    2    1    2    0    0 -0.15441573114E+01  0.44979385971E+02  0.18931328528E+01  0.46142317231E+02  0.99999951700E+01 0.  0.
         12    1    1    2    0    0  0.15441573114E+01 -0.44979385971E+02 -0.18931328528E+01  0.45045682769E+02  0.00000000000E+00 0. -1.
         11    1    3    3    0    0 -0.11521442027E+01  0.23468318913E+02  0.42575081568E+01  0.23879191880E+02  0.51100000000E-03 0. -1.
        -11    1    3    3    0    0  0.33578375715E+00  0.31125285365E+01  0.14646738306E+01  0.34562775226E+01  0.51100000000E-03 0.  1.
         12    1    3    3    0    0 -0.72779686579E+00  0.18398538521E+02 -0.38290491347E+01  0.18806847829E+02  0.00000000000E+00 0. -1.
</event>
<event>
 7    1  0.3086024E-009  0.4614233E+02  0.7816164E-02  0.1320468E+00
        -11   -1    0    0    0    0  0.00000000000E+00  0.00000000000E+00  0.45593999997E+02  0.45594000000E+02  0.51100000000E-03 0.  1.
         11   -1    0    0    0    0 -0.00000000000E+00 -0.00000000000E+00 -0.45593999997E+02  0.45594000000E+02  0.51100000000E-03 0. -1.
    9900012    2    1    2    0    0  0.14365293915E+02 -0.90889169336E+01  0.41715017218E+02  0.46142326048E+02  0.10000075568E+02 0.  0.
         12    1    1    2    0    0 -0.14365293915E+02  0.90889169336E+01 -0.41715017218E+02  0.45045673952E+02  0.00000000000E+00 0. -1.
         11    1    3    3    0    0 -0.27532753827E+00  0.53099705654E+00  0.15041519121E+00  0.61675612543E+00  0.51100000000E-03 0. -1.
        -11    1    3    3    0    0  0.11714600544E+02 -0.86875857879E+01  0.27483500340E+02  0.31113482671E+02  0.51100000000E-03 0.  1.
        -12    1    3    3    0    0  0.29260209090E+01 -0.93232820226E+00  0.14081101687E+02  0.14412087252E+02  0.00000000000E+00 0.  1.
</event>
<event>
 7    1  0.3086024E-009  0.4614232E+02  0.7816164E-02  0.1320468E+00
        -11   -1    0    0    0    0  0.00000000000E+00  0.00000000000E+00  0.45593999997E+02  0.45594000000E+02  0.51100000000E-03 0. -1.
         11   -1    0    0    0    0 -0.00000000000E+00 -0.00000000000E+00 -0.45593999997E+02  0.45594000000E+02  0.51100000000E-03 0.  1.
    9900012    2    1    2    0    0  0.26521995544E+02 -0.22501740423E+02 -0.28624621460E+02  0.46142317372E+02  0.99999964489E+01 0.  0.
         12    1    1    2    0    0 -0.26521995544E+02  0.22501740423E+02  0.28624621460E+02  0.45045682628E+02  0.00000000000E+00 0. -1.
         11    1    3    3    0    0  0.23250121842E+02 -0.18051755198E+02 -0.23622164061E+02  0.37741762897E+02  0.51100000000E-03 0. -1.
        -11    1    3    3    0    0  0.23642608082E+01 -0.44692630455E+01 -0.54105101514E+01  0.74052455528E+01  0.51100000000E-03 0.  1.
         12    1    3    3    0    0  0.90761289408E+00  0.19277820487E-01  0.40805275279E+00  0.99530892135E+00  0.00000000000E+00 0. -1.
</event>
<event>
 7    1  0.3086024E-009  0.4614232E+02  0.7816164E-02  0.1320468E+00
        -11   -1    0    0    0    0  0.00000000000E+00  0.00000000000E+00  0.45593999997E+02  0.45594000000E+02  0.51100000000E-03 0.  1.
         11   -1    0    0    0    0 -0.00000000000E+00 -0.00000000000E+00 -0.45593999997E+02  0.45594000000E+02  0.51100000000E-03 0. -1.
    9900012    2    1    2    0    0  0.30263229974E+02 -0.29944016142E+02  0.14717544888E+02  0.46142319645E+02  0.10000017175E+02 0.  0.
         12    1    1    2    0    0 -0.30263229974E+02  0.29944016142E+02 -0.14717544888E+02  0.45045680355E+02  0.00000000000E+00 0. -1.
         11    1    3    3    0    0  0.22779369598E+02 -0.23208930149E+02  0.14118276201E+02  0.35452501196E+02  0.51100000000E-03 0. -1.
        -11    1    3    3    0    0  0.78290841252E+01 -0.62193394597E+01  0.81712001282E+00  0.10032069923E+02  0.51100000000E-03 0.  1.
         12    1    3    3    0    0 -0.34522374859E+00 -0.51574653337E+00 -0.21785132594E+00  0.65774852603E+00  0.00000000000E+00 0. -1.
</event>
<event>
 7    1  0.3086024E-009  0.4614232E+02  0.7816164E-02  0.1320468E+00
        -11   -1    0    0    0    0  0.00000000000E+00  0.00000000000E+00  0.45593999997E+02  0.45594000000E+02  0.51100000000E-03 0.  1.
         11   -1    0    0    0    0 -0.00000000000E+00 -0.00000000000E+00 -0.45593999997E+02  0.45594000000E+02  0.51100000000E-03 0. -1.
    9900012    2    1    2    0    0  0.19786561347E+02  0.65248719382E+01  0.39937843990E+02  0.46142319338E+02  0.10000014379E+02 0.  0.
         12    1    1    2    0    0 -0.19786561347E+02 -0.65248719382E+01 -0.39937843990E+02  0.45045680662E+02  0.00000000000E+00 0. -1.
         11    1    3    3    0    0  0.65017158566E+01  0.52749899724E+00  0.20461106821E+02  0.21475741125E+02  0.51100000000E-03 0. -1.
        -11    1    3    3    0    0  0.66248348482E+01  0.38806901023E+01  0.13214271440E+02  0.15282838820E+02  0.51100000000E-03 0.  1.
         12    1    3    3    0    0  0.66600106424E+01  0.21166828386E+01  0.62624657287E+01  0.93837393932E+01  0.00000000000E+00 0. -1.
</event>
<event>
 7    1  0.3086024E-009  0.4614232E+02  0.7816164E-02  0.1320468E+00
        -11   -1    0    0    0    0  0.00000000000E+00  0.00000000000E+00  0.45593999997E+02  0.45594000000E+02  0.51100000000E-03 0. -1.
         11   -1    0    0    0    0 -0.00000000000E+00 -0.00000000000E+00 -0.45593999997E+02  0.45594000000E+02  0.51100000000E-03 0.  1.
    9900012    2    1    2    0    0 -0.44680578864E+02  0.47357901115E+01 -0.32142884771E+01  0.46142317787E+02  0.10000000239E+02 0.  0.
         12    1    1    2    0    0  0.44680578864E+02 -0.47357901115E+01  0.32142884771E+01  0.45045682213E+02  0.00000000000E+00 0. -1.
         11    1    3    3    0    0 -0.34802433341E+02  0.36086298418E+01 -0.10997993578E+01  0.35006301357E+02  0.51100000000E-03 0. -1.
        -11    1    3    3    0    0 -0.92936219265E+01  0.23344265751E+01 -0.20081012709E+01  0.97904763379E+01  0.51100000000E-03 0.  1.
         12    1    3    3    0    0 -0.58452359650E+00 -0.12072663054E+01 -0.10638784848E+00  0.13455400928E+01  0.00000000000E+00 0. -1.
</event>
<event>
 7    1  0.3086024E-009  0.4614232E+02  0.7816164E-02  0.1320468E+00
        -11   -1    0    0    0    0  0.00000000000E+00  0.00000000000E+00  0.45593999997E+02  0.45594000000E+02  0.51100000000E-03 0. -1.
         11   -1    0    0    0    0 -0.00000000000E+00 -0.00000000000E+00 -0.45593999997E+02  0.45594000000E+02  0.51100000000E-03 0.  1.
    9900012    2    1    2    0    0 -0.16861967422E+02 -0.48002691092E+01 -0.41493914976E+02  0.46142317533E+02  0.99999979184E+01 0.  0.
         12    1    1    2    0    0  0.16861967422E+02  0.48002691092E+01  0.41493914976E+02  0.45045682467E+02  0.00000000000E+00 0. -1.
         11    1    3    3    0    0 -0.11457773538E+01 -0.20995823409E+01 -0.13026850200E+01  0.27236079514E+01  0.51100000000E-03 0. -1.
        -11    1    3    3    0    0 -0.78514816343E+01 -0.42873964750E+00 -0.24336601196E+02  0.25575373693E+02  0.51100000000E-03 0.  1.
        -12    1    3    3    0    0 -0.78647084341E+01 -0.22719471208E+01 -0.15854628761E+02  0.17843335888E+02  0.00000000000E+00 0.  1.
</event>
<event>
 7    1  0.3086024E-009  0.4614232E+02  0.7816164E-02  0.1320468E+00
        -11   -1    0    0    0    0  0.00000000000E+00  0.00000000000E+00  0.45593999997E+02  0.45594000000E+02  0.51100000000E-03 0.  1.
         11   -1    0    0    0    0 -0.00000000000E+00 -0.00000000000E+00 -0.45593999997E+02  0.45594000000E+02  0.51100000000E-03 0. -1.
    9900012    2    1    2    0    0 -0.83651766039E+01 -0.38313967568E+02  0.22162517823E+02  0.46142317780E+02  0.10000000173E+02 0.  0.
         12    1    1    2    0    0  0.83651766039E+01  0.38313967568E+02 -0.22162517823E+02  0.45045682220E+02  0.00000000000E+00 0. -1.
         11    1    3    3    0    0 -0.53786870368E+01 -0.12400385707E+02  0.44885702359E+01  0.14242440203E+02  0.51100000000E-03 0. -1.
        -11    1    3    3    0    0 -0.85214059775E+00 -0.13956637483E+02  0.12282423543E+02  0.18611066649E+02  0.51100000000E-03 0.  1.
        -12    1    3    3    0    0 -0.21343489693E+01 -0.11956944378E+02  0.53915240433E+01  0.13288810928E+02  0.00000000000E+00 0.  1.
</event>
<event>
 7    1  0.3086024E-009  0.4614232E+02  0.7816164E-02  0.1320468E+00
        -11   -1    0    0    0    0  0.00000000000E+00  0.00000000000E+00  0.45593999997E+02  0.45594000000E+02  0.51100000000E-03 0.  1.
         11   -1    0    0    0    0 -0.00000000000E+00 -0.00000000000E+00 -0.45593999997E+02  0.45594000000E+02  0.51100000000E-03 0. -1.
    9900012    2    1    2    0    0 -0.28952120006E+02 -0.31463942162E+02  0.14174215326E+02  0.46142319971E+02  0.10000020150E+02 0.  0.
         12    1    1    2    0    0  0.28952120006E+02  0.31463942162E+02 -0.14174215326E+02  0.45045680029E+02  0.00000000000E+00 0. -1.
         11    1    3    3    0    0 -0.41567791263E+00 -0.13043554020E+01 -0.56714591694E+00  0.14818184417E+01  0.51100000000E-03 0.  1.
        -11    1    3    3    0    0 -0.30634806297E+00  0.40637699803E+00 -0.26379210690E-01  0.50959545140E+00  0.51100000000E-03 0. -1.
        -12    1    3    3    0    0 -0.28230094030E+02 -0.30565963758E+02  0.14767740453E+02  0.44150906078E+02  0.00000000000E+00 0.  1.
</event>
<event>
 7    1  0.3086024E-009  0.4614232E+02  0.7816164E-02  0.1320468E+00
        -11   -1    0    0    0    0  0.00000000000E+00  0.00000000000E+00  0.45593999997E+02  0.45594000000E+02  0.51100000000E-03 0.  1.
         11   -1    0    0    0    0 -0.00000000000E+00 -0.00000000000E+00 -0.45593999997E+02  0.45594000000E+02  0.51100000000E-03 0. -1.
    9900012    2    1    2    0    0 -0.30686497044E+02  0.32720634496E+02  0.41003231482E+01  0.46142315717E+02  0.99999813562E+01 0.  0.
         12    1    1    2    0    0  0.30686497044E+02 -0.32720634496E+02 -0.41003231482E+01  0.45045684283E+02  0.00000000000E+00 0. -1.
         11    1    3    3    0    0 -0.21900737485E+02  0.17320682438E+02  0.40742538361E+01  0.28217864680E+02  0.51100000000E-03 0. -1.
        -11    1    3    3    0    0 -0.66107606642E+01  0.11455660182E+02  0.11679374916E+01  0.13277740207E+02  0.51100000000E-03 0.  1.
         12    1    3    3    0    0 -0.21749988947E+01  0.39442918766E+01 -0.11418681794E+01  0.46467108302E+01  0.00000000000E+00 0. -1.
</event>
<event>
 7    1  0.3086024E-009  0.4614232E+02  0.7816164E-02  0.1320468E+00
        -11   -1    0    0    0    0  0.00000000000E+00  0.00000000000E+00  0.45593999997E+02  0.45594000000E+02  0.51100000000E-03 0.  1.
         11   -1    0    0    0    0 -0.00000000000E+00 -0.00000000000E+00 -0.45593999997E+02  0.45594000000E+02  0.51100000000E-03 0. -1.
    9900012    2    1    2    0    0  0.33093426668E+02  0.15993696445E+02  0.26041125384E+02  0.46142318455E+02  0.10000006325E+02 0.  0.
         12    1    1    2    0    0 -0.33093426668E+02 -0.15993696445E+02 -0.26041125384E+02  0.45045681545E+02  0.00000000000E+00 0. -1.
         11    1    3    3    0    0  0.15911602926E+02  0.43655059936E+01  0.95484962160E+01  0.19063329470E+02  0.51100000000E-03 0. -1.
        -11    1    3    3    0    0  0.17529826412E+02  0.11425154148E+02  0.16541649660E+02  0.26673116336E+02  0.51100000000E-03 0.  1.
         12    1    3    3    0    0 -0.34800266934E+00  0.20303630339E+00 -0.49020491688E-01  0.40587264870E+00  0.00000000000E+00 0. -1.
</event>
<event>
 7    1  0.3086024E-009  0.4614232E+02  0.7816164E-02  0.1320468E+00
        -11   -1    0    0    0    0  0.00000000000E+00  0.00000000000E+00  0.45593999997E+02  0.45594000000E+02  0.51100000000E-03 0.  1.
         11   -1    0    0    0    0 -0.00000000000E+00 -0.00000000000E+00 -0.45593999997E+02  0.45594000000E+02  0.51100000000E-03 0. -1.
    9900012    2    1    2    0    0 -0.38592929196E+02  0.13200563815E+02  0.19116604568E+02  0.46142316087E+02  0.99999847322E+01 0.  0.
         12    1    1    2    0    0  0.38592929196E+02 -0.13200563815E+02 -0.19116604568E+02  0.45045683913E+02  0.00000000000E+00 0. -1.
         11    1    3    3    0    0 -0.14980961587E+02  0.23622823762E+01  0.52863983111E+01  0.16060996092E+02  0.51100000000E-03 0. -1.
        -11    1    3    3    0    0 -0.16818200557E+02  0.47474764928E+01  0.77505746650E+01  0.19117055499E+02  0.51100000000E-03 0.  1.
         12    1    3    3    0    0 -0.67937670517E+01  0.60908049464E+01  0.60796315917E+01  0.10964264496E+02  0.00000000000E+00 0. -1.
</event>
<event>
 7    1  0.3086024E-009  0.4614232E+02  0.7816164E-02  0.1320468E+00
        -11   -1    0    0    0    0  0.00000000000E+00  0.00000000000E+00  0.45593999997E+02  0.45594000000E+02  0.51100000000E-03 0.  1.
         11   -1    0    0    0    0 -0.00000000000E+00 -0.00000000000E+00 -0.45593999997E+02  0.45594000000E+02  0.51100000000E-03 0. -1.
    9900012    2    1    2    0    0  0.62720880948E+00 -0.40526178247E+02  0.19655762413E+02  0.46142317518E+02  0.99999977853E+01 0.  0.
         12    1    1    2    0    0 -0.62720880948E+00  0.40526178247E+02 -0.19655762413E+02  0.45045682482E+02  0.00000000000E+00 0. -1.
         11    1    3    3    0    0  0.22237302009E+01 -0.30708155814E+01  0.25129997634E+01  0.45486319277E+01  0.51100000000E-03 0. -1.
        -11    1    3    3    0    0 -0.18073636183E+01 -0.29027851009E+02  0.10724560039E+02  0.30998369082E+02  0.51100000000E-03 0.  1.
        -12    1    3    3    0    0  0.21084222684E+00 -0.84275116570E+01  0.64182026100E+01  0.10595316509E+02  0.00000000000E+00 0.  1.
</event>
<event>
 7    1  0.3086024E-009  0.4614232E+02  0.7816164E-02  0.1320468E+00
        -11   -1    0    0    0    0  0.00000000000E+00  0.00000000000E+00  0.45593999997E+02  0.45594000000E+02  0.51100000000E-03 0.  1.
         11   -1    0    0    0    0 -0.00000000000E+00 -0.00000000000E+00 -0.45593999997E+02  0.45594000000E+02  0.51100000000E-03 0. -1.
    9900012    2    1    2    0    0 -0.37609062411E+02 -0.23191992550E+02  0.87637528186E+01  0.46142318106E+02  0.10000003141E+02 0.  0.
         12    1    1    2    0    0  0.37609062411E+02  0.23191992550E+02 -0.87637528186E+01  0.45045681894E+02  0.00000000000E+00 0. -1.
         11    1    3    3    0    0 -0.14189952073E+02 -0.12953666658E+02  0.59416319180E+01  0.20111071822E+02  0.51100000000E-03 0. -1.
        -11    1    3    3    0    0 -0.17803283636E+02 -0.91870399741E+01  0.32753628870E+01  0.20299916601E+02  0.51100000000E-03 0.  1.
        -12    1    3    3    0    0 -0.56158267021E+01 -0.10512859172E+01 -0.45324198640E+00  0.57313296822E+01  0.00000000000E+00 0.  1.
</event>
<event>
 7    1  0.3086024E-009  0.4614232E+02  0.7816164E-02  0.1320468E+00
        -11   -1    0    0    0    0  0.00000000000E+00  0.00000000000E+00  0.45593999997E+02  0.45594000000E+02  0.51100000000E-03 0. -1.
         11   -1    0    0    0    0 -0.00000000000E+00 -0.00000000000E+00 -0.45593999997E+02  0.45594000000E+02  0.51100000000E-03 0.  1.
    9900012    2    1    2    0    0 -0.35746266647E+02  0.31301427873E+01 -0.27230865899E+02  0.46142318401E+02  0.10000005837E+02 0.  0.
         12    1    1    2    0    0  0.35746266647E+02 -0.31301427873E+01  0.27230865899E+02  0.45045681599E+02  0.00000000000E+00 0. -1.
         11    1    3    3    0    0 -0.81412538576E+00  0.11550364457E+01 -0.17301820899E+01  0.22339291976E+01  0.51100000000E-03 0. -1.
        -11    1    3    3    0    0 -0.13694562343E+02 -0.20810960693E+01 -0.73653661227E+01  0.15688231799E+02  0.51100000000E-03 0.  1.
        -12    1    3    3    0    0 -0.21237578919E+02  0.40562024110E+01 -0.18135317686E+02  0.28220157404E+02  0.00000000000E+00 0.  1.
</event>
<event>
 7    1  0.3086024E-009  0.4614232E+02  0.7816164E-02  0.1320468E+00
        -11   -1    0    0    0    0  0.00000000000E+00  0.00000000000E+00  0.45593999997E+02  0.45594000000E+02  0.51100000000E-03 0.  1.
         11   -1    0    0    0    0 -0.00000000000E+00 -0.00000000000E+00 -0.45593999997E+02  0.45594000000E+02  0.51100000000E-03 0. -1.
    9900012    2    1    2    0    0 -0.43984725542E-01  0.26489806675E+02  0.36433525164E+02  0.46142317097E+02  0.99999939430E+01 0.  0.
         12    1    1    2    0    0  0.43984725542E-01 -0.26489806675E+02 -0.36433525164E+02  0.45045682903E+02  0.00000000000E+00 0. -1.
         11    1    3    3    0    0  0.93504790606E+00  0.93847142981E+00  0.57317958678E+01  0.58829012692E+01  0.51100000000E-03 0. -1.
        -11    1    3    3    0    0 -0.11888963959E+01  0.82661354850E+01  0.68440199023E+01  0.10797364455E+02  0.51100000000E-03 0.  1.
         12    1    3    3    0    0  0.20986376425E+00  0.17285199760E+02  0.23857709394E+02  0.29462051372E+02  0.00000000000E+00 0. -1.
</event>
<event>
 7    1  0.3086024E-009  0.4614232E+02  0.7816164E-02  0.1320468E+00
        -11   -1    0    0    0    0  0.00000000000E+00  0.00000000000E+00  0.45593999997E+02  0.45594000000E+02  0.51100000000E-03 0.  1.
         11   -1    0    0    0    0 -0.00000000000E+00 -0.00000000000E+00 -0.45593999997E+02  0.45594000000E+02  0.51100000000E-03 0. -1.
    9900012    2    1    2    0    0  0.23885060417E+02  0.25784602903E+02  0.28173952147E+02  0.46142318325E+02  0.10000005139E+02 0.  0.
         12    1    1    2    0    0 -0.23885060417E+02 -0.25784602903E+02 -0.28173952147E+02  0.45045681675E+02  0.00000000000E+00 0. -1.
         11    1    3    3    0    0  0.17255974999E+02  0.18891389942E+02  0.16795895791E+02  0.30606460147E+02  0.51100000000E-03 0.  1.
        -11    1    3    3    0    0  0.51606265165E+01  0.30556641155E+01  0.44015756258E+01  0.74392887751E+01  0.51100000000E-03 0. -1.
         12    1    3    3    0    0  0.14684589014E+01  0.38375488464E+01  0.69764807311E+01  0.80965694022E+01  0.00000000000E+00 0. -1.
</event>
<event>
 7    1  0.3086024E-009  0.4614232E+02  0.7816164E-02  0.1320468E+00
        -11   -1    0    0    0    0  0.00000000000E+00  0.00000000000E+00  0.45593999997E+02  0.45594000000E+02  0.51100000000E-03 0.  1.
         11   -1    0    0    0    0 -0.00000000000E+00 -0.00000000000E+00 -0.45593999997E+02  0.45594000000E+02  0.51100000000E-03 0. -1.
    9900012    2    1    2    0    0  0.42020966080E+02 -0.15330165546E+02  0.53233361360E+01  0.46142317925E+02  0.10000001495E+02 0.  0.
         12    1    1    2    0    0 -0.42020966080E+02  0.15330165546E+02 -0.53233361360E+01  0.45045682075E+02  0.00000000000E+00 0. -1.
         11    1    3    3    0    0  0.29854807566E+02 -0.87480042008E+01  0.23725874819E+01  0.31200421213E+02  0.51100000000E-03 0.  1.
        -11    1    3    3    0    0  0.46193314367E+01 -0.45215672326E+01 -0.29855134983E+00  0.64708520560E+01  0.51100000000E-03 0. -1.
        -12    1    3    3    0    0  0.75468270780E+01 -0.20605941125E+01  0.32493000039E+01  0.84710446556E+01  0.00000000000E+00 0.  1.
</event>
<event>
 7    1  0.3086024E-009  0.4614232E+02  0.7816164E-02  0.1320468E+00
        -11   -1    0    0    0    0  0.00000000000E+00  0.00000000000E+00  0.45593999997E+02  0.45594000000E+02  0.51100000000E-03 0.  1.
         11   -1    0    0    0    0 -0.00000000000E+00 -0.00000000000E+00 -0.45593999997E+02  0.45594000000E+02  0.51100000000E-03 0. -1.
    9900012    2    1    2    0    0  0.26223405182E+02  0.25978518409E+02  0.25817882045E+02  0.46142318394E+02  0.10000005771E+02 0.  0.
         12    1    1    2    0    0 -0.26223405182E+02 -0.25978518409E+02 -0.25817882045E+02  0.45045681606E+02  0.00000000000E+00 0. -1.
         11    1    3    3    0    0  0.14662883383E+02  0.16784415988E+02  0.10574199548E+02  0.24668410275E+02  0.51100000000E-03 0. -1.
        -11    1    3    3    0    0  0.87294447437E+01  0.55073566148E+01  0.90306776564E+01  0.13714493123E+02  0.51100000000E-03 0.  1.
        -12    1    3    3    0    0  0.28310770557E+01  0.36867458060E+01  0.62130048406E+01  0.77594149961E+01  0.00000000000E+00 0.  1.
</event>
<event>
 7    1  0.3086024E-009  0.4614232E+02  0.7816164E-02  0.1320468E+00
        -11   -1    0    0    0    0  0.00000000000E+00  0.00000000000E+00  0.45593999997E+02  0.45594000000E+02  0.51100000000E-03 0. -1.
         11   -1    0    0    0    0 -0.00000000000E+00 -0.00000000000E+00 -0.45593999997E+02  0.45594000000E+02  0.51100000000E-03 0.  1.
    9900012    2    1    2    0    0 -0.18252212151E+02 -0.25623399649E+02 -0.32239906958E+02  0.46142318091E+02  0.10000003006E+02 0.  0.
         12    1    1    2    0    0  0.18252212151E+02  0.25623399649E+02  0.32239906958E+02  0.45045681909E+02  0.00000000000E+00 0. -1.
         11    1    3    3    0    0 -0.19556236762E+01 -0.47195935601E+00 -0.41625431995E+00  0.20543800809E+01  0.51100000000E-03 0. -1.
        -11    1    3    3    0    0 -0.51136134745E+01 -0.12259452286E+02 -0.11693456154E+02  0.17696896061E+02  0.51100000000E-03 0.  1.
        -12    1    3    3    0    0 -0.11182975000E+02 -0.12891988008E+02 -0.20130196484E+02  0.26391041949E+02  0.00000000000E+00 0.  1.
</event>
<event>
 7    1  0.3086024E-009  0.4614232E+02  0.7816164E-02  0.1320468E+00
        -11   -1    0    0    0    0  0.00000000000E+00  0.00000000000E+00  0.45593999997E+02  0.45594000000E+02  0.51100000000E-03 0. -1.
         11   -1    0    0    0    0 -0.00000000000E+00 -0.00000000000E+00 -0.45593999997E+02  0.45594000000E+02  0.51100000000E-03 0.  1.
    9900012    2    1    2    0    0  0.28724612344E+01  0.27046871110E+02 -0.35907230749E+02  0.46142317738E+02  0.99999997897E+01 0.  0.
         12    1    1    2    0    0 -0.28724612344E+01 -0.27046871110E+02  0.35907230749E+02  0.45045682262E+02  0.00000000000E+00 0. -1.
         11    1    3    3    0    0  0.10007151068E+01  0.16595207695E+02 -0.17322566862E+02  0.24009866142E+02  0.51100000000E-03 0. -1.
        -11    1    3    3    0    0 -0.52830563669E+00  0.90462286780E+01 -0.15685818789E+02  0.18115139289E+02  0.51100000000E-03 0.  1.
         12    1    3    3    0    0  0.24000517643E+01  0.14054347364E+01 -0.28988450981E+01  0.40173123070E+01  0.00000000000E+00 0. -1.
</event>
<event>
 7    1  0.3086024E-009  0.4614232E+02  0.7816164E-02  0.1320468E+00
        -11   -1    0    0    0    0  0.00000000000E+00  0.00000000000E+00  0.45593999997E+02  0.45594000000E+02  0.51100000000E-03 0. -1.
         11   -1    0    0    0    0 -0.00000000000E+00 -0.00000000000E+00 -0.45593999997E+02  0.45594000000E+02  0.51100000000E-03 0.  1.
    9900012    2    1    2    0    0 -0.27685525012E+02  0.21451639160E+02 -0.28327588396E+02  0.46142318940E+02  0.10000010749E+02 0.  0.
         12    1    1    2    0    0  0.27685525012E+02 -0.21451639160E+02  0.28327588396E+02  0.45045681060E+02  0.00000000000E+00 0. -1.
         11    1    3    3    0    0 -0.10043767470E+02  0.36709987106E+01 -0.82372528543E+01  0.13498364026E+02  0.51100000000E-03 0. -1.
        -11    1    3    3    0    0 -0.12701855980E+02  0.11033588215E+02 -0.16427874659E+02  0.23514937386E+02  0.51100000000E-03 0.  1.
         12    1    3    3    0    0 -0.49399015614E+01  0.67470522347E+01 -0.36624608832E+01  0.91290175274E+01  0.00000000000E+00 0. -1.
</event>
<event>
 7    1  0.3086024E-009  0.4614232E+02  0.7816164E-02  0.1320468E+00
        -11   -1    0    0    0    0  0.00000000000E+00  0.00000000000E+00  0.45593999997E+02  0.45594000000E+02  0.51100000000E-03 0. -1.
         11   -1    0    0    0    0 -0.00000000000E+00 -0.00000000000E+00 -0.45593999997E+02  0.45594000000E+02  0.51100000000E-03 0.  1.
    9900012    2    1    2    0    0  0.12154199330E+02  0.42407439124E+02 -0.91103267739E+01  0.46142317540E+02  0.99999979814E+01 0.  0.
         12    1    1    2    0    0 -0.12154199330E+02 -0.42407439124E+02  0.91103267739E+01  0.45045682460E+02  0.00000000000E+00 0. -1.
         11    1    3    3    0    0  0.11485913966E+01  0.21400914165E+00 -0.11066413180E+01  0.16092598848E+01  0.51100000000E-03 0. -1.
        -11    1    3    3    0    0  0.45285669342E+01  0.22814184924E+02 -0.58727366598E+01  0.23989247349E+02  0.51100000000E-03 0.  1.
        -12    1    3    3    0    0  0.64770409988E+01  0.19379245058E+02 -0.21309487961E+01  0.20543810306E+02  0.00000000000E+00 0.  1.
</event>
<event>
 7    1  0.3086024E-009  0.4614232E+02  0.7816164E-02  0.1320468E+00
        -11   -1    0    0    0    0  0.00000000000E+00  0.00000000000E+00  0.45593999997E+02  0.45594000000E+02  0.51100000000E-03 0. -1.
         11   -1    0    0    0    0 -0.00000000000E+00 -0.00000000000E+00 -0.45593999997E+02  0.45594000000E+02  0.51100000000E-03 0.  1.
    9900012    2    1    2    0    0 -0.11927167448E+02  0.19585876251E+02 -0.38771764644E+02  0.46142316461E+02  0.99999881465E+01 0.  0.
         12    1    1    2    0    0  0.11927167448E+02 -0.19585876251E+02  0.38771764644E+02  0.45045683539E+02  0.00000000000E+00 0. -1.
         11    1    3    3    0    0  0.15587718915E+01  0.40396164539E+01 -0.75084118168E+01  0.86674401743E+01  0.51100000000E-03 0. -1.
        -11    1    3    3    0    0 -0.78684532932E+01  0.93274142589E+01 -0.20129950290E+02  0.23539925933E+02  0.51100000000E-03 0.  1.
         12    1    3    3    0    0 -0.56174860465E+01  0.62188455381E+01 -0.11133402537E+02  0.13934950354E+02  0.00000000000E+00 0. -1.
</event>
<event>
 7    1  0.3086024E-009  0.4614232E+02  0.7816164E-02  0.1320468E+00
        -11   -1    0    0    0    0  0.00000000000E+00  0.00000000000E+00  0.45593999997E+02  0.45594000000E+02  0.51100000000E-03 0.  1.
         11   -1    0    0    0    0 -0.00000000000E+00 -0.00000000000E+00 -0.45593999997E+02  0.45594000000E+02  0.51100000000E-03 0. -1.
    9900012    2    1    2    0    0  0.35642747415E+01  0.21299036382E+00  0.44903943233E+02  0.46142317219E+02  0.99999950602E+01 0.  0.
         12    1    1    2    0    0 -0.35642747415E+01 -0.21299036382E+00 -0.44903943233E+02  0.45045682781E+02  0.00000000000E+00 0. -1.
         11    1    3    3    0    0  0.16425219854E+01  0.22119160881E-01  0.25224476885E+01  0.30101678246E+01  0.51100000000E-03 0. -1.
        -11    1    3    3    0    0 -0.19466488992E+01 -0.14777642583E+01  0.29007704496E+02  0.29110481781E+02  0.51100000000E-03 0.  1.
        -12    1    3    3    0    0  0.38684016552E+01  0.16686354613E+01  0.13373791049E+02  0.14021667614E+02  0.00000000000E+00 0.  1.
</event>
<event>
 7    1  0.3086024E-009  0.4614232E+02  0.7816164E-02  0.1320468E+00
        -11   -1    0    0    0    0  0.00000000000E+00  0.00000000000E+00  0.45593999997E+02  0.45594000000E+02  0.51100000000E-03 0.  1.
         11   -1    0    0    0    0 -0.00000000000E+00 -0.00000000000E+00 -0.45593999997E+02  0.45594000000E+02  0.51100000000E-03 0. -1.
    9900012    2    1    2    0    0  0.50002460961E+01 -0.18375884117E+02  0.40822028414E+02  0.46142316723E+02  0.99999905304E+01 0.  0.
         12    1    1    2    0    0 -0.50002460961E+01  0.18375884117E+02 -0.40822028414E+02  0.45045683277E+02  0.00000000000E+00 0. -1.
         11    1    3    3    0    0  0.46012444403E+01 -0.58708298226E+01  0.19150420197E+02  0.20551804962E+02  0.51100000000E-03 0. -1.
        -11    1    3    3    0    0  0.18553854687E+01 -0.11878964826E+02  0.19252390922E+02  0.22698167702E+02  0.51100000000E-03 0.  1.
         12    1    3    3    0    0 -0.14563838129E+01 -0.62608946897E+00  0.24192172952E+01  0.28923440589E+01  0.00000000000E+00 0. -1.
</event>
<event>
 7    1  0.3086024E-009  0.4614232E+02  0.7816164E-02  0.1320468E+00
        -11   -1    0    0    0    0  0.00000000000E+00  0.00000000000E+00  0.45593999997E+02  0.45594000000E+02  0.51100000000E-03 0.  1.
         11   -1    0    0    0    0 -0.00000000000E+00 -0.00000000000E+00 -0.45593999997E+02  0.45594000000E+02  0.51100000000E-03 0. -1.
    9900012    2    1    2    0    0 -0.24260219554E+01  0.38040134273E+02  0.24003669110E+02  0.46142317312E+02  0.99999959067E+01 0.  0.
         12    1    1    2    0    0  0.24260219554E+01 -0.38040134273E+02 -0.24003669110E+02  0.45045682688E+02  0.00000000000E+00 0. -1.
         11    1    3    3    0    0 -0.51508420145E+01  0.23871826567E+02  0.12854002109E+02  0.27597475384E+02  0.51100000000E-03 0. -1.
        -11    1    3    3    0    0  0.24273739907E+01  0.13528963004E+02  0.11334795608E+02  0.17815795693E+02  0.51100000000E-03 0.  1.
        -12    1    3    3    0    0  0.29744606838E+00  0.63934470234E+00 -0.18512860605E+00  0.72904623501E+00  0.00000000000E+00 0.  1.
</event>
<event>
 7    1  0.3086024E-009  0.4614232E+02  0.7816164E-02  0.1320468E+00
        -11   -1    0    0    0    0  0.00000000000E+00  0.00000000000E+00  0.45593999997E+02  0.45594000000E+02  0.51100000000E-03 0.  1.
         11   -1    0    0    0    0 -0.00000000000E+00 -0.00000000000E+00 -0.45593999997E+02  0.45594000000E+02  0.51100000000E-03 0. -1.
    9900012    2    1    2    0    0  0.23875290064E+02  0.28212718787E+02  0.25751242533E+02  0.46142317977E+02  0.10000001966E+02 0.  0.
         12    1    1    2    0    0 -0.23875290064E+02 -0.28212718787E+02 -0.25751242533E+02  0.45045682023E+02  0.00000000000E+00 0. -1.
         11    1    3    3    0    0  0.49240049782E+01  0.51006568041E+01  0.69694787115E+01  0.99416376231E+01  0.51100000000E-03 0. -1.
        -11    1    3    3    0    0  0.10681659431E+01  0.60933469206E+01  0.47940775704E+01  0.78264318300E+01  0.51100000000E-03 0.  1.
        -12    1    3    3    0    0  0.17883119143E+02  0.17018715062E+02  0.13987686251E+02  0.28374248524E+02  0.00000000000E+00 0.  1.
</event>
<event>
 7    1  0.3086024E-009  0.4614232E+02  0.7816164E-02  0.1320468E+00
        -11   -1    0    0    0    0  0.00000000000E+00  0.00000000000E+00  0.45593999997E+02  0.45594000000E+02  0.51100000000E-03 0.  1.
         11   -1    0    0    0    0 -0.00000000000E+00 -0.00000000000E+00 -0.45593999997E+02  0.45594000000E+02  0.51100000000E-03 0. -1.
    9900012    2    1    2    0    0  0.87636708763E+01 -0.44173300154E+02  0.10154427688E+01  0.46142317657E+02  0.99999990523E+01 0.  0.
         12    1    1    2    0    0 -0.87636708763E+01  0.44173300154E+02 -0.10154427688E+01  0.45045682343E+02  0.00000000000E+00 0. -1.
         11    1    3    3    0    0  0.47992657758E+01 -0.88320830830E+01  0.43278965678E+00  0.10061110809E+02  0.51100000000E-03 0. -1.
        -11    1    3    3    0    0  0.53675490091E+01 -0.27343672328E+02  0.15237745756E+01  0.27907147614E+02  0.51100000000E-03 0.  1.
         12    1    3    3    0    0 -0.14031439086E+01 -0.79975447427E+01 -0.94112146362E+00  0.81740592333E+01  0.00000000000E+00 0. -1.
</event>
<event>
 7    1  0.3086024E-009  0.4614232E+02  0.7816164E-02  0.1320468E+00
        -11   -1    0    0    0    0  0.00000000000E+00  0.00000000000E+00  0.45593999997E+02  0.45594000000E+02  0.51100000000E-03 0.  1.
         11   -1    0    0    0    0 -0.00000000000E+00 -0.00000000000E+00 -0.45593999997E+02  0.45594000000E+02  0.51100000000E-03 0. -1.
    9900012    2    1    2    0    0 -0.27803973404E+02  0.20634608773E+02  0.28814327223E+02  0.46142317970E+02  0.10000001903E+02 0.  0.
         12    1    1    2    0    0  0.27803973404E+02 -0.20634608773E+02 -0.28814327223E+02  0.45045682030E+02  0.00000000000E+00 0. -1.
         11    1    3    3    0    0 -0.86183625604E+00  0.12217531682E+00 -0.74409706140E+00  0.11451503125E+01  0.51100000000E-03 0. -1.
        -11    1    3    3    0    0 -0.77944529233E+01  0.67306974464E+01  0.99608003167E+01  0.14327362901E+02  0.51100000000E-03 0.  1.
        -12    1    3    3    0    0 -0.19147684225E+02  0.13781736010E+02  0.19597623967E+02  0.30669804756E+02  0.00000000000E+00 0.  1.
</event>
<event>
 7    1  0.3086024E-009  0.4614232E+02  0.7816164E-02  0.1320468E+00
        -11   -1    0    0    0    0  0.00000000000E+00  0.00000000000E+00  0.45593999997E+02  0.45594000000E+02  0.51100000000E-03 0. -1.
         11   -1    0    0    0    0 -0.00000000000E+00 -0.00000000000E+00 -0.45593999997E+02  0.45594000000E+02  0.51100000000E-03 0.  1.
    9900012    2    1    2    0    0 -0.73255763280E+00 -0.44875615719E+02 -0.38413481404E+01  0.46142317827E+02  0.10000000604E+02 0.  0.
         12    1    1    2    0    0  0.73255763280E+00  0.44875615719E+02  0.38413481404E+01  0.45045682173E+02  0.00000000000E+00 0. -1.
         11    1    3    3    0    0 -0.20569518509E+00 -0.23844709647E+01  0.19562365329E+01  0.30910959099E+01  0.51100000000E-03 0. -1.
        -11    1    3    3    0    0  0.11574287249E+01 -0.28478775563E+02 -0.29601939330E+01  0.28655593646E+02  0.51100000000E-03 0.  1.
        -12    1    3    3    0    0 -0.16842911726E+01 -0.14012369191E+02 -0.28373907403E+01  0.14395628271E+02  0.00000000000E+00 0.  1.
</event>
<event>
 7    1  0.3086024E-009  0.4614232E+02  0.7816164E-02  0.1320468E+00
        -11   -1    0    0    0    0  0.00000000000E+00  0.00000000000E+00  0.45593999997E+02  0.45594000000E+02  0.51100000000E-03 0.  1.
         11   -1    0    0    0    0 -0.00000000000E+00 -0.00000000000E+00 -0.45593999997E+02  0.45594000000E+02  0.51100000000E-03 0. -1.
    9900012    2    1    2    0    0 -0.27974298775E+02  0.19554159434E+02  0.29397056593E+02  0.46142317860E+02  0.10000000904E+02 0.  0.
         12    1    1    2    0    0  0.27974298775E+02 -0.19554159434E+02 -0.29397056593E+02  0.45045682140E+02  0.00000000000E+00 0. -1.
         11    1    3    3    0    0 -0.15371016909E+02  0.48897559941E+01  0.13517707654E+02  0.21045339032E+02  0.51100000000E-03 0. -1.
        -11    1    3    3    0    0 -0.86086657533E+01  0.10708817284E+02  0.10257209795E+02  0.17146377073E+02  0.51100000000E-03 0.  1.
         12    1    3    3    0    0 -0.39946161127E+01  0.39555861560E+01  0.56221391432E+01  0.79506017553E+01  0.00000000000E+00 0. -1.
</event>
<event>
 7    1  0.3086024E-009  0.4614232E+02  0.7816164E-02  0.1320468E+00
        -11   -1    0    0    0    0  0.00000000000E+00  0.00000000000E+00  0.45593999997E+02  0.45594000000E+02  0.51100000000E-03 0. -1.
         11   -1    0    0    0    0 -0.00000000000E+00 -0.00000000000E+00 -0.45593999997E+02  0.45594000000E+02  0.51100000000E-03 0.  1.
    9900012    2    1    2    0    0 -0.17197981765E+02  0.17513894289E+01 -0.41596580652E+02  0.46142318036E+02  0.10000002505E+02 0.  0.
         12    1    1    2    0    0  0.17197981765E+02 -0.17513894289E+01  0.41596580652E+02  0.45045681964E+02  0.00000000000E+00 0. -1.
         11    1    3    3    0    0 -0.64566985825E+01 -0.10889864967E+01 -0.20650209056E+02  0.21663471155E+02  0.51100000000E-03 0. -1.
        -11    1    3    3    0    0 -0.81438737169E+01  0.23209765972E+01 -0.19907227135E+02  0.21633476464E+02  0.51100000000E-03 0.  1.
         12    1    3    3    0    0 -0.25974094656E+01  0.51939932831E+00 -0.10391444607E+01  0.28453704160E+01  0.00000000000E+00 0. -1.
</event>
<event>
 7    1  0.3086024E-009  0.4614232E+02  0.7816164E-02  0.1320468E+00
        -11   -1    0    0    0    0  0.00000000000E+00  0.00000000000E+00  0.45593999997E+02  0.45594000000E+02  0.51100000000E-03 0.  1.
         11   -1    0    0    0    0 -0.00000000000E+00 -0.00000000000E+00 -0.45593999997E+02  0.45594000000E+02  0.51100000000E-03 0. -1.
    9900012    2    1    2    0    0 -0.79901856026E+01  0.35855169897E+02  0.26070619654E+02  0.46142317816E+02  0.10000000499E+02 0.  0.
         12    1    1    2    0    0  0.79901856026E+01 -0.35855169897E+02 -0.26070619654E+02  0.45045682184E+02  0.00000000000E+00 0. -1.
         11    1    3    3    0    0 -0.35394864186E+01  0.83288732432E+01  0.49305986731E+01  0.10305770090E+02  0.51100000000E-03 0. -1.
        -11    1    3    3    0    0  0.16786986047E+01  0.73115840521E+01  0.33335822782E+01  0.82091449873E+01  0.51100000000E-03 0.  1.
        -12    1    3    3    0    0 -0.61293977887E+01  0.20214712602E+02  0.17806438703E+02  0.27627402739E+02  0.00000000000E+00 0.  1.
</event>
<event>
 7    1  0.3086024E-009  0.4614232E+02  0.7816164E-02  0.1320468E+00
        -11   -1    0    0    0    0  0.00000000000E+00  0.00000000000E+00  0.45593999997E+02  0.45594000000E+02  0.51100000000E-03 0.  1.
         11   -1    0    0    0    0 -0.00000000000E+00 -0.00000000000E+00 -0.45593999997E+02  0.45594000000E+02  0.51100000000E-03 0. -1.
    9900012    2    1    2    0    0  0.41663813738E+02  0.76275999526E+01  0.15331663182E+02  0.46142317053E+02  0.99999935442E+01 0.  0.
         12    1    1    2    0    0 -0.41663813738E+02 -0.76275999526E+01 -0.15331663182E+02  0.45045682947E+02  0.00000000000E+00 0. -1.
         11    1    3    3    0    0  0.39933896469E+02  0.64975453639E+01  0.12206161100E+02  0.42260200568E+02  0.51100000000E-03 0. -1.
        -11    1    3    3    0    0  0.11086569326E+01  0.28743465504E+00  0.22196868774E+01  0.24977487803E+01  0.51100000000E-03 0.  1.
         12    1    3    3    0    0  0.62126033604E+00  0.84261993370E+00  0.90581520437E+00  0.13843677049E+01  0.00000000000E+00 0. -1.
</event>
<event>
 7    1  0.3086024E-009  0.4614232E+02  0.7816164E-02  0.1320468E+00
        -11   -1    0    0    0    0  0.00000000000E+00  0.00000000000E+00  0.45593999997E+02  0.45594000000E+02  0.51100000000E-03 0.  1.
         11   -1    0    0    0    0 -0.00000000000E+00 -0.00000000000E+00 -0.45593999997E+02  0.45594000000E+02  0.51100000000E-03 0. -1.
    9900012    2    1    2    0    0 -0.10199455124E+02 -0.20854274819E+02  0.38602899147E+02  0.46142317791E+02  0.10000000277E+02 0.  0.
         12    1    1    2    0    0  0.10199455124E+02  0.20854274819E+02 -0.38602899147E+02  0.45045682209E+02  0.00000000000E+00 0. -1.
         11    1    3    3    0    0 -0.51094701922E+01 -0.93474310965E+01  0.13257382711E+02  0.17007038259E+02  0.51100000000E-03 0. -1.
        -11    1    3    3    0    0 -0.63932397169E+01 -0.82100914001E+01  0.15481411499E+02  0.18653504152E+02  0.51100000000E-03 0.  1.
         12    1    3    3    0    0  0.13032547848E+01 -0.32967523222E+01  0.98641049377E+01  0.10481775381E+02  0.00000000000E+00 0. -1.
</event>
<event>
 7    1  0.3086024E-009  0.4614232E+02  0.7816164E-02  0.1320468E+00
        -11   -1    0    0    0    0  0.00000000000E+00  0.00000000000E+00  0.45593999997E+02  0.45594000000E+02  0.51100000000E-03 0.  1.
         11   -1    0    0    0    0 -0.00000000000E+00 -0.00000000000E+00 -0.45593999997E+02  0.45594000000E+02  0.51100000000E-03 0. -1.
    9900012    2    1    2    0    0 -0.27973367275E+02 -0.27344975005E+02  0.22335096930E+02  0.46142317747E+02  0.99999998747E+01 0.  0.
         12    1    1    2    0    0  0.27973367275E+02  0.27344975005E+02 -0.22335096930E+02  0.45045682253E+02  0.00000000000E+00 0. -1.
         11    1    3    3    0    0 -0.16575511059E+02 -0.18690894678E+02  0.96425702467E+01  0.26778279854E+02  0.51100000000E-03 0.  1.
        -11    1    3    3    0    0 -0.98322355301E+01 -0.85428304423E+01  0.11689505374E+02  0.17501352623E+02  0.51100000000E-03 0. -1.
        -12    1    3    3    0    0 -0.15656206866E+01 -0.11124988518E+00  0.10030213093E+01  0.18626852708E+01  0.00000000000E+00 0.  1.
</event>
<event>
 7    1  0.3086024E-009  0.4614232E+02  0.7816164E-02  0.1320468E+00
        -11   -1    0    0    0    0  0.00000000000E+00  0.00000000000E+00  0.45593999997E+02  0.45594000000E+02  0.51100000000E-03 0. -1.
         11   -1    0    0    0    0 -0.00000000000E+00 -0.00000000000E+00 -0.45593999997E+02  0.45594000000E+02  0.51100000000E-03 0.  1.
    9900012    2    1    2    0    0  0.20578160252E+02 -0.39160560207E+02 -0.84913674852E+01  0.46142317889E+02  0.10000001167E+02 0.  0.
         12    1    1    2    0    0 -0.20578160252E+02  0.39160560207E+02  0.84913674852E+01  0.45045682111E+02  0.00000000000E+00 0. -1.
         11    1    3    3    0    0  0.13284335987E+02 -0.23979605445E+02 -0.49835532649E+01  0.27862714572E+02  0.51100000000E-03 0.  1.
        -11    1    3    3    0    0  0.51786404138E+00 -0.80926151367E+01 -0.11111429924E+01  0.81849399464E+01  0.51100000000E-03 0. -1.
        -12    1    3    3    0    0  0.67759602232E+01 -0.70883396249E+01 -0.23966712279E+01  0.10094663370E+02  0.00000000000E+00 0.  1.
</event>
<event>
 7    1  0.3086024E-009  0.4614232E+02  0.7816164E-02  0.1320468E+00
        -11   -1    0    0    0    0  0.00000000000E+00  0.00000000000E+00  0.45593999997E+02  0.45594000000E+02  0.51100000000E-03 0. -1.
         11   -1    0    0    0    0 -0.00000000000E+00 -0.00000000000E+00 -0.45593999997E+02  0.45594000000E+02  0.51100000000E-03 0.  1.
    9900012    2    1    2    0    0  0.42425269737E+02  0.11403678467E+01 -0.15096671003E+02  0.46142318448E+02  0.10000006263E+02 0.  0.
         12    1    1    2    0    0 -0.42425269737E+02 -0.11403678467E+01  0.15096671003E+02  0.45045681552E+02  0.00000000000E+00 0. -1.
         11    1    3    3    0    0  0.10643098469E+02 -0.80303961076E+00 -0.76894931204E+01  0.13154798453E+02  0.51100000000E-03 0. -1.
        -11    1    3    3    0    0  0.19495306918E+02  0.33383646015E+01 -0.46239431174E+01  0.20312373575E+02  0.51100000000E-03 0.  1.
        -12    1    3    3    0    0  0.12286864350E+02 -0.13949571440E+01 -0.27832347652E+01  0.12675146419E+02  0.00000000000E+00 0.  1.
</event>
<event>
 7    1  0.3086024E-009  0.4614232E+02  0.7816164E-02  0.1320468E+00
        -11   -1    0    0    0    0  0.00000000000E+00  0.00000000000E+00  0.45593999997E+02  0.45594000000E+02  0.51100000000E-03 0.  1.
         11   -1    0    0    0    0 -0.00000000000E+00 -0.00000000000E+00 -0.45593999997E+02  0.45594000000E+02  0.51100000000E-03 0. -1.
    9900012    2    1    2    0    0  0.30311114736E+02 -0.98291680768E+01  0.31839241799E+02  0.46142317189E+02  0.99999947806E+01 0.  0.
         12    1    1    2    0    0 -0.30311114736E+02  0.98291680768E+01 -0.31839241799E+02  0.45045682811E+02  0.00000000000E+00 0. -1.
         11    1    3    3    0    0  0.13172414655E+02 -0.35091514593E+01  0.84075601526E+01  0.16016045698E+02  0.51100000000E-03 0. -1.
        -11    1    3    3    0    0  0.15531356623E+02 -0.48512374865E+01  0.22478052112E+02  0.27749240903E+02  0.51100000000E-03 0.  1.
        -12    1    3    3    0    0  0.16073434581E+01 -0.14687791310E+01  0.95362953442E+00  0.23770305881E+01  0.00000000000E+00 0.  1.
</event>
<event>
 7    1  0.3086024E-009  0.4614232E+02  0.7816164E-02  0.1320468E+00
        -11   -1    0    0    0    0  0.00000000000E+00  0.00000000000E+00  0.45593999997E+02  0.45594000000E+02  0.51100000000E-03 0.  1.
         11   -1    0    0    0    0 -0.00000000000E+00 -0.00000000000E+00 -0.45593999997E+02  0.45594000000E+02  0.51100000000E-03 0. -1.
    9900012    2    1    2    0    0  0.11744474509E+02 -0.30970506925E+02  0.30528814464E+02  0.46142317707E+02  0.99999995047E+01 0.  0.
         12    1    1    2    0    0 -0.11744474509E+02  0.30970506925E+02 -0.30528814464E+02  0.45045682293E+02  0.00000000000E+00 0. -1.
         11    1    3    3    0    0  0.73460390786E+01 -0.11551165432E+02  0.72064892543E+01  0.15470203639E+02  0.51100000000E-03 0. -1.
        -11    1    3    3    0    0  0.24406215008E+01 -0.95173097122E+01  0.11284104561E+02  0.14962180104E+02  0.51100000000E-03 0.  1.
         12    1    3    3    0    0  0.19578139301E+01 -0.99020317806E+01  0.12038220648E+02  0.15709933964E+02  0.00000000000E+00 0. -1.
</event>
<event>
 7    1  0.3086024E-009  0.4614232E+02  0.7816164E-02  0.1320468E+00
        -11   -1    0    0    0    0  0.00000000000E+00  0.00000000000E+00  0.45593999997E+02  0.45594000000E+02  0.51100000000E-03 0.  1.
         11   -1    0    0    0    0 -0.00000000000E+00 -0.00000000000E+00 -0.45593999997E+02  0.45594000000E+02  0.51100000000E-03 0. -1.
    9900012    2    1    2    0    0  0.13657158671E+02  0.65228433876E+01  0.42426972302E+02  0.46142318214E+02  0.10000004132E+02 0.  0.
         12    1    1    2    0    0 -0.13657158671E+02 -0.65228433876E+01 -0.42426972302E+02  0.45045681786E+02  0.00000000000E+00 0. -1.
         11    1    3    3    0    0  0.29813764419E+01  0.39820251131E+01  0.73674860604E+01  0.88895995749E+01  0.51100000000E-03 0. -1.
        -11    1    3    3    0    0  0.48001463893E+01  0.36194320699E+01  0.23297338813E+02  0.24060500616E+02  0.51100000000E-03 0.  1.
        -12    1    3    3    0    0  0.58756358395E+01 -0.10786137954E+01  0.11762147428E+02  0.13192218023E+02  0.00000000000E+00 0.  1.
</event>
<event>
 7    1  0.3086024E-009  0.4614232E+02  0.7816164E-02  0.1320468E+00
        -11   -1    0    0    0    0  0.00000000000E+00  0.00000000000E+00  0.45593999997E+02  0.45594000000E+02  0.51100000000E-03 0.  1.
         11   -1    0    0    0    0 -0.00000000000E+00 -0.00000000000E+00 -0.45593999997E+02  0.45594000000E+02  0.51100000000E-03 0. -1.
    9900012    2    1    2    0    0  0.36090539943E+02  0.24428259628E+02  0.11395010302E+02  0.46142320944E+02  0.10000029027E+02 0.  0.
         12    1    1    2    0    0 -0.36090539943E+02 -0.24428259628E+02 -0.11395010302E+02  0.45045679056E+02  0.00000000000E+00 0. -1.
         11    1    3    3    0    0 -0.18897598541E+00  0.51852974161E+00  0.75313726932E+00  0.93370285613E+00  0.51100000000E-03 0. -1.
        -11    1    3    3    0    0  0.22097339052E+02  0.10848673177E+02  0.69389918647E+01  0.25576076932E+02  0.51100000000E-03 0.  1.
         12    1    3    3    0    0  0.14182176877E+02  0.13061056709E+02  0.37028811683E+01  0.19632541156E+02  0.00000000000E+00 0. -1.
</event>
<event>
 7    1  0.3086024E-009  0.4614232E+02  0.7816164E-02  0.1320468E+00
        -11   -1    0    0    0    0  0.00000000000E+00  0.00000000000E+00  0.45593999997E+02  0.45594000000E+02  0.51100000000E-03 0.  1.
         11   -1    0    0    0    0 -0.00000000000E+00 -0.00000000000E+00 -0.45593999997E+02  0.45594000000E+02  0.51100000000E-03 0. -1.
    9900012    2    1    2    0    0 -0.36108621800E+02 -0.64799941622E+01  0.26139825182E+02  0.46142319262E+02  0.10000013682E+02 0.  0.
         12    1    1    2    0    0  0.36108621800E+02  0.64799941622E+01 -0.26139825182E+02  0.45045680738E+02  0.00000000000E+00 0. -1.
         11    1    3    3    0    0 -0.16231109669E+02 -0.19006515494E+01  0.96818320752E+01  0.18994716897E+02  0.51100000000E-03 0. -1.
        -11    1    3    3    0    0 -0.93528721142E+00 -0.15505942693E+01  0.36717038374E+01  0.40939606846E+01  0.51100000000E-03 0.  1.
        -12    1    3    3    0    0 -0.18942224920E+02 -0.30287483435E+01  0.12786289270E+02  0.23053641680E+02  0.00000000000E+00 0.  1.
</event>
<event>
 7    1  0.3086024E-009  0.4614232E+02  0.7816164E-02  0.1320468E+00
        -11   -1    0    0    0    0  0.00000000000E+00  0.00000000000E+00  0.45593999997E+02  0.45594000000E+02  0.51100000000E-03 0.  1.
         11   -1    0    0    0    0 -0.00000000000E+00 -0.00000000000E+00 -0.45593999997E+02  0.45594000000E+02  0.51100000000E-03 0. -1.
    9900012    2    1    2    0    0  0.15702369403E+01  0.80630075340E+01  0.44290357024E+02  0.46142318077E+02  0.10000002883E+02 0.  0.
         12    1    1    2    0    0 -0.15702369403E+01 -0.80630075340E+01 -0.44290357024E+02  0.45045681923E+02  0.00000000000E+00 0. -1.
         11    1    3    3    0    0 -0.99848065763E-01  0.42812419942E+00 -0.18580327753E+00  0.47726626261E+00  0.51100000000E-03 0. -1.
        -11    1    3    3    0    0 -0.16741966971E+01  0.32337302338E+01  0.29071816838E+02  0.29298984288E+02  0.51100000000E-03 0.  1.
         12    1    3    3    0    0  0.33442817031E+01  0.44011531008E+01  0.15404343464E+02  0.16366067527E+02  0.00000000000E+00 0. -1.
</event>
<event>
 7    1  0.3086024E-009  0.4614232E+02  0.7816164E-02  0.1320468E+00
        -11   -1    0    0    0    0  0.00000000000E+00  0.00000000000E+00  0.45593999997E+02  0.45594000000E+02  0.51100000000E-03 0. -1.
         11   -1    0    0    0    0 -0.00000000000E+00 -0.00000000000E+00 -0.45593999997E+02  0.45594000000E+02  0.51100000000E-03 0.  1.
    9900012    2    1    2    0    0  0.12206147878E+02  0.12444375571E+02 -0.41536260531E+02  0.46142317984E+02  0.10000002032E+02 0.  0.
         12    1    1    2    0    0 -0.12206147878E+02 -0.12444375571E+02  0.41536260531E+02  0.45045682016E+02  0.00000000000E+00 0. -1.
         11    1    3    3    0    0  0.24454999849E+01  0.57972335128E+01 -0.14943706678E+02  0.16214276306E+02  0.51100000000E-03 0. -1.
        -11    1    3    3    0    0  0.71218471020E+01  0.20326099819E+01 -0.96087730881E+01  0.12131806543E+02  0.51100000000E-03 0.  1.
        -12    1    3    3    0    0  0.26388007908E+01  0.46145320764E+01 -0.16983780765E+02  0.17796235135E+02  0.00000000000E+00 0.  1.
</event>
<event>
 7    1  0.3086024E-009  0.4614232E+02  0.7816164E-02  0.1320468E+00
        -11   -1    0    0    0    0  0.00000000000E+00  0.00000000000E+00  0.45593999997E+02  0.45594000000E+02  0.51100000000E-03 0. -1.
         11   -1    0    0    0    0 -0.00000000000E+00 -0.00000000000E+00 -0.45593999997E+02  0.45594000000E+02  0.51100000000E-03 0.  1.
    9900012    2    1    2    0    0 -0.57152645929E+01  0.14262563533E+02 -0.42344167623E+02  0.46142317636E+02  0.99999988622E+01 0.  0.
         12    1    1    2    0    0  0.57152645929E+01 -0.14262563533E+02  0.42344167623E+02  0.45045682364E+02  0.00000000000E+00 0. -1.
         11    1    3    3    0    0 -0.40414264005E+01  0.76437256908E+00 -0.97598574688E+01  0.10591138317E+02  0.51100000000E-03 0. -1.
        -11    1    3    3    0    0 -0.21975073404E+01  0.11874363862E+02 -0.30798293196E+02  0.33081179237E+02  0.51100000000E-03 0.  1.
         12    1    3    3    0    0  0.52366914804E+00  0.16238271015E+01 -0.17860169582E+01  0.24700000824E+01  0.00000000000E+00 0. -1.
</event>
<event>
 7    1  0.3086024E-009  0.4614232E+02  0.7816164E-02  0.1320468E+00
        -11   -1    0    0    0    0  0.00000000000E+00  0.00000000000E+00  0.45593999997E+02  0.45594000000E+02  0.51100000000E-03 0.  1.
         11   -1    0    0    0    0 -0.00000000000E+00 -0.00000000000E+00 -0.45593999997E+02  0.45594000000E+02  0.51100000000E-03 0. -1.
    9900012    2    1    2    0    0 -0.34917926567E+02 -0.25026887051E+02  0.13546469365E+02  0.46142317593E+02  0.99999984701E+01 0.  0.
         12    1    1    2    0    0  0.34917926567E+02  0.25026887051E+02 -0.13546469365E+02  0.45045682407E+02  0.00000000000E+00 0. -1.
         11    1    3    3    0    0 -0.19411512362E+01  0.75815026673E+00  0.62834565733E+00  0.21766208846E+01  0.51100000000E-03 0. -1.
        -11    1    3    3    0    0 -0.24803670265E+02 -0.17769946706E+02  0.82909901708E+01  0.31618563896E+02  0.51100000000E-03 0.  1.
        -12    1    3    3    0    0 -0.81731050658E+01 -0.80150906116E+01  0.46271335373E+01  0.12347132813E+02  0.00000000000E+00 0.  1.
</event>
<event>
 7    1  0.3086024E-009  0.4614232E+02  0.7816164E-02  0.1320468E+00
        -11   -1    0    0    0    0  0.00000000000E+00  0.00000000000E+00  0.45593999997E+02  0.45594000000E+02  0.51100000000E-03 0. -1.
         11   -1    0    0    0    0 -0.00000000000E+00 -0.00000000000E+00 -0.45593999997E+02  0.45594000000E+02  0.51100000000E-03 0.  1.
    9900012    2    1    2    0    0 -0.39843760134E+02  0.18767617840E+02  0.94533035180E+01  0.46142315985E+02  0.99999838048E+01 0.  0.
         12    1    1    2    0    0  0.39843760134E+02 -0.18767617840E+02 -0.94533035180E+01  0.45045684015E+02  0.00000000000E+00 0. -1.
         11    1    3    3    0    0 -0.57446299833E+01  0.52259524608E+01 -0.81183541286E+00  0.78083564062E+01  0.51100000000E-03 0. -1.
        -11    1    3    3    0    0 -0.28513257237E+02  0.97694968018E+01  0.91755970981E+01  0.31506197619E+02  0.51100000000E-03 0.  1.
        -12    1    3    3    0    0 -0.55858729133E+01  0.37721685772E+01  0.10895418327E+01  0.68277619601E+01  0.00000000000E+00 0.  1.
</event>
<event>
 7    1  0.3086024E-009  0.4614232E+02  0.7816164E-02  0.1320468E+00
        -11   -1    0    0    0    0  0.00000000000E+00  0.00000000000E+00  0.45593999997E+02  0.45594000000E+02  0.51100000000E-03 0.  1.
         11   -1    0    0    0    0 -0.00000000000E+00 -0.00000000000E+00 -0.45593999997E+02  0.45594000000E+02  0.51100000000E-03 0. -1.
    9900012    2    1    2    0    0 -0.35647488824E+02  0.26718277146E+02 -0.66711118959E+01  0.46142317332E+02  0.99999960897E+01 0.  0.
         12    1    1    2    0    0  0.35647488824E+02 -0.26718277146E+02  0.66711118959E+01  0.45045682668E+02  0.00000000000E+00 0. -1.
         11    1    3    3    0    0 -0.10998328355E+02  0.50783091357E+01  0.13215582818E+01  0.12186015215E+02  0.51100000000E-03 0. -1.
        -11    1    3    3    0    0 -0.74667453295E+01  0.58427623650E+01 -0.71779271243E+00  0.95081746150E+01  0.51100000000E-03 0.  1.
         12    1    3    3    0    0 -0.17182415139E+02  0.15797205645E+02 -0.72748774653E+01  0.24448127502E+02  0.00000000000E+00 0. -1.
</event>
<event>
 7    1  0.3086024E-009  0.4614232E+02  0.7816164E-02  0.1320468E+00
        -11   -1    0    0    0    0  0.00000000000E+00  0.00000000000E+00  0.45593999997E+02  0.45594000000E+02  0.51100000000E-03 0.  1.
         11   -1    0    0    0    0 -0.00000000000E+00 -0.00000000000E+00 -0.45593999997E+02  0.45594000000E+02  0.51100000000E-03 0. -1.
    9900012    2    1    2    0    0 -0.20701261000E+02  0.12488782322E+02  0.38007916249E+02  0.46142316650E+02  0.99999898653E+01 0.  0.
         12    1    1    2    0    0  0.20701261000E+02 -0.12488782322E+02 -0.38007916249E+02  0.45045683350E+02  0.00000000000E+00 0. -1.
         11    1    3    3    0    0 -0.53590792019E+01  0.19904544274E+01  0.37519887184E+01  0.68380595438E+01  0.51100000000E-03 0. -1.
        -11    1    3    3    0    0 -0.12629462199E+02  0.93297087931E+01  0.31790648049E+02  0.35456904620E+02  0.51100000000E-03 0.  1.
        -12    1    3    3    0    0 -0.27127195985E+01  0.11686191017E+01  0.24652794819E+01  0.38473524857E+01  0.00000000000E+00 0.  1.
</event>
<event>
 7    1  0.3086024E-009  0.4614232E+02  0.7816164E-02  0.1320468E+00
        -11   -1    0    0    0    0  0.00000000000E+00  0.00000000000E+00  0.45593999997E+02  0.45594000000E+02  0.51100000000E-03 0.  1.
         11   -1    0    0    0    0 -0.00000000000E+00 -0.00000000000E+00 -0.45593999997E+02  0.45594000000E+02  0.51100000000E-03 0. -1.
    9900012    2    1    2    0    0  0.31096796736E+01 -0.33459010725E+02  0.29998964687E+02  0.46142318868E+02  0.10000010091E+02 0.  0.
         12    1    1    2    0    0 -0.31096796736E+01  0.33459010725E+02 -0.29998964687E+02  0.45045681132E+02  0.00000000000E+00 0. -1.
         11    1    3    3    0    0 -0.93710082610E+00 -0.12644044876E+02  0.96737119436E+01  0.15947750055E+02  0.51100000000E-03 0. -1.
        -11    1    3    3    0    0  0.35416430923E+01 -0.21267742501E+02  0.19147939421E+02  0.28835805715E+02  0.51100000000E-03 0.  1.
         12    1    3    3    0    0  0.50513740743E+00  0.45277665209E+00  0.11773133225E+01  0.13587630980E+01  0.00000000000E+00 0. -1.
</event>
<event>
 7    1  0.3086024E-009  0.4614232E+02  0.7816164E-02  0.1320468E+00
        -11   -1    0    0    0    0  0.00000000000E+00  0.00000000000E+00  0.45593999997E+02  0.45594000000E+02  0.51100000000E-03 0.  1.
         11   -1    0    0    0    0 -0.00000000000E+00 -0.00000000000E+00 -0.45593999997E+02  0.45594000000E+02  0.51100000000E-03 0. -1.
    9900012    2    1    2    0    0  0.17291799931E+02 -0.24340389821E+01  0.41523276838E+02  0.46142318631E+02  0.10000007935E+02 0.  0.
         12    1    1    2    0    0 -0.17291799931E+02  0.24340389821E+01 -0.41523276838E+02  0.45045681369E+02  0.00000000000E+00 0. -1.
         11    1    3    3    0    0  0.41449192451E+01 -0.12058977856E+01  0.11436643288E+02  0.12224211835E+02  0.51100000000E-03 0. -1.
        -11    1    3    3    0    0  0.18617623982E+01 -0.34803778380E+01  0.10271804269E+02  0.11004051632E+02  0.51100000000E-03 0.  1.
        -12    1    3    3    0    0  0.11285118288E+02  0.22522366415E+01  0.19814829281E+02  0.22914055164E+02  0.00000000000E+00 0.  1.
</event>
<event>
 7    1  0.3086024E-009  0.4614232E+02  0.7816164E-02  0.1320468E+00
        -11   -1    0    0    0    0  0.00000000000E+00  0.00000000000E+00  0.45593999997E+02  0.45594000000E+02  0.51100000000E-03 0.  1.
         11   -1    0    0    0    0 -0.00000000000E+00 -0.00000000000E+00 -0.45593999997E+02  0.45594000000E+02  0.51100000000E-03 0. -1.
    9900012    2    1    2    0    0 -0.21374934505E+02  0.20062532043E+02  0.34201176016E+02  0.46142318099E+02  0.10000003079E+02 0.  0.
         12    1    1    2    0    0  0.21374934505E+02 -0.20062532043E+02 -0.34201176016E+02  0.45045681901E+02  0.00000000000E+00 0. -1.
         11    1    3    3    0    0 -0.16941098053E+01  0.41128154566E+01  0.14175523300E+01  0.46684808966E+01  0.51100000000E-03 0. -1.
        -11    1    3    3    0    0 -0.58707697700E+01  0.56934742570E+01  0.11397468567E+02  0.14027967665E+02  0.51100000000E-03 0.  1.
         12    1    3    3    0    0 -0.13810054930E+02  0.10256242329E+02  0.21386155119E+02  0.27445869538E+02  0.00000000000E+00 0. -1.
</event>
<event>
 7    1  0.3086024E-009  0.4614232E+02  0.7816164E-02  0.1320468E+00
        -11   -1    0    0    0    0  0.00000000000E+00  0.00000000000E+00  0.45593999997E+02  0.45594000000E+02  0.51100000000E-03 0. -1.
         11   -1    0    0    0    0 -0.00000000000E+00 -0.00000000000E+00 -0.45593999997E+02  0.45594000000E+02  0.51100000000E-03 0.  1.
    9900012    2    1    2    0    0 -0.33861492109E+02 -0.36990027795E+00  0.29704814120E+02  0.46142318121E+02  0.10000003280E+02 0.  0.
         12    1    1    2    0    0  0.33861492109E+02  0.36990027795E+00 -0.29704814120E+02  0.45045681879E+02  0.00000000000E+00 0. -1.
         11    1    3    3    0    0 -0.26249953167E+01 -0.12437731415E+01  0.66341905910E+01  0.72422411655E+01  0.51100000000E-03 0. -1.
        -11    1    3    3    0    0 -0.17613773339E+02 -0.53404528475E+00  0.13255674607E+02  0.22050921186E+02  0.51100000000E-03 0.  1.
         12    1    3    3    0    0 -0.13622723453E+02  0.14079181483E+01  0.98149489219E+01  0.16849155769E+02  0.00000000000E+00 0. -1.
</event>
<event>
 7    1  0.3086024E-009  0.4614232E+02  0.7816164E-02  0.1320468E+00
        -11   -1    0    0    0    0  0.00000000000E+00  0.00000000000E+00  0.45593999997E+02  0.45594000000E+02  0.51100000000E-03 0.  1.
         11   -1    0    0    0    0 -0.00000000000E+00 -0.00000000000E+00 -0.45593999997E+02  0.45594000000E+02  0.51100000000E-03 0. -1.
    9900012    2    1    2    0    0  0.37487680880E+01 -0.84218849738E+01  0.44092313784E+02  0.46142317149E+02  0.99999944215E+01 0.  0.
         12    1    1    2    0    0 -0.37487680880E+01  0.84218849738E+01 -0.44092313784E+02  0.45045682851E+02  0.00000000000E+00 0. -1.
         11    1    3    3    0    0  0.48203715107E+01 -0.12712551911E+01  0.24286015920E+02  0.24792390784E+02  0.51100000000E-03 0. -1.
        -11    1    3    3    0    0 -0.22082680109E+01 -0.34470617214E+01  0.10456693450E+02  0.11229475512E+02  0.51100000000E-03 0.  1.
         12    1    3    3    0    0  0.11366645882E+01 -0.37035680613E+01  0.93496044136E+01  0.10120450853E+02  0.00000000000E+00 0. -1.
</event>
<event>
 7    1  0.3086024E-009  0.4614232E+02  0.7816164E-02  0.1320468E+00
        -11   -1    0    0    0    0  0.00000000000E+00  0.00000000000E+00  0.45593999997E+02  0.45594000000E+02  0.51100000000E-03 0.  1.
         11   -1    0    0    0    0 -0.00000000000E+00 -0.00000000000E+00 -0.45593999997E+02  0.45594000000E+02  0.51100000000E-03 0. -1.
    9900012    2    1    2    0    0 -0.20131731476E+01 -0.80445424574E+01  0.44275796142E+02  0.46142315929E+02  0.99999832889E+01 0.  0.
         12    1    1    2    0    0  0.20131731476E+01  0.80445424574E+01 -0.44275796142E+02  0.45045684071E+02  0.00000000000E+00 0. -1.
         11    1    3    3    0    0 -0.29163021447E+01  0.27280225164E+00  0.12140283819E+02  0.12488624053E+02  0.51100000000E-03 0. -1.
        -11    1    3    3    0    0 -0.21249257950E+01 -0.42200890179E+01  0.18610660331E+02  0.19201071303E+02  0.51100000000E-03 0.  1.
         12    1    3    3    0    0  0.30280547921E+01 -0.40972556911E+01  0.13524851992E+02  0.14452620573E+02  0.00000000000E+00 0. -1.
</event>
<event>
 7    1  0.3086024E-009  0.4614232E+02  0.7816164E-02  0.1320468E+00
        -11   -1    0    0    0    0  0.00000000000E+00  0.00000000000E+00  0.45593999997E+02  0.45594000000E+02  0.51100000000E-03 0.  1.
         11   -1    0    0    0    0 -0.00000000000E+00 -0.00000000000E+00 -0.45593999997E+02  0.45594000000E+02  0.51100000000E-03 0. -1.
    9900012    2    1    2    0    0 -0.13136943434E+02  0.67999230230E+01  0.42547564762E+02  0.46142317598E+02  0.99999985117E+01 0.  0.
         12    1    1    2    0    0  0.13136943434E+02 -0.67999230230E+01 -0.42547564762E+02  0.45045682402E+02  0.00000000000E+00 0. -1.
         11    1    3    3    0    0 -0.20204383238E+00  0.18017305065E+00  0.14350414632E+01  0.14603521153E+01  0.51100000000E-03 0. -1.
        -11    1    3    3    0    0 -0.14020769517E+02  0.71448163086E+01  0.40197758250E+02  0.43168161260E+02  0.51100000000E-03 0.  1.
        -12    1    3    3    0    0  0.10858699157E+01 -0.52506633621E+00  0.91476504823E+00  0.15138042227E+01  0.00000000000E+00 0.  1.
</event>
<event>
 7    1  0.3086024E-009  0.4614232E+02  0.7816164E-02  0.1320468E+00
        -11   -1    0    0    0    0  0.00000000000E+00  0.00000000000E+00  0.45593999997E+02  0.45594000000E+02  0.51100000000E-03 0.  1.
         11   -1    0    0    0    0 -0.00000000000E+00 -0.00000000000E+00 -0.45593999997E+02  0.45594000000E+02  0.51100000000E-03 0. -1.
    9900012    2    1    2    0    0 -0.27915040822E+02  0.21807192020E+02  0.27826433660E+02  0.46142317209E+02  0.99999949659E+01 0.  0.
         12    1    1    2    0    0  0.27915040822E+02 -0.21807192020E+02 -0.27826433660E+02  0.45045682791E+02  0.00000000000E+00 0. -1.
         11    1    3    3    0    0 -0.13445572612E+02  0.99270390209E+01  0.87140025997E+01  0.18848431451E+02  0.51100000000E-03 0. -1.
        -11    1    3    3    0    0 -0.13113942553E+02  0.10145161770E+02  0.13901160066E+02  0.21636590491E+02  0.51100000000E-03 0.  1.
         12    1    3    3    0    0 -0.13555256571E+01  0.17349912294E+01  0.52112709942E+01  0.56572952679E+01  0.00000000000E+00 0. -1.
</event>
<event>
 7    1  0.3086024E-009  0.4614232E+02  0.7816164E-02  0.1320468E+00
        -11   -1    0    0    0    0  0.00000000000E+00  0.00000000000E+00  0.45593999997E+02  0.45594000000E+02  0.51100000000E-03 0.  1.
         11   -1    0    0    0    0 -0.00000000000E+00 -0.00000000000E+00 -0.45593999997E+02  0.45594000000E+02  0.51100000000E-03 0. -1.
    9900012    2    1    2    0    0 -0.63562348526E+01 -0.11732908814E+01  0.44579537787E+02  0.46142317384E+02  0.99999965627E+01 0.  0.
         12    1    1    2    0    0  0.63562348526E+01  0.11732908814E+01 -0.44579537787E+02  0.45045682616E+02  0.00000000000E+00 0. -1.
         11    1    3    3    0    0 -0.41086945386E-01 -0.15530283829E+01  0.63171733246E+00  0.16770964028E+01  0.51100000000E-03 0. -1.
        -11    1    3    3    0    0 -0.11016392938E+01  0.69262439201E+00  0.49078758310E+01  0.50774583323E+01  0.51100000000E-03 0.  1.
         12    1    3    3    0    0 -0.52135086135E+01 -0.31288689059E+00  0.39039944624E+02  0.39387762649E+02  0.00000000000E+00 0. -1.
</event>
<event>
 7    1  0.3086024E-009  0.4614232E+02  0.7816164E-02  0.1320468E+00
        -11   -1    0    0    0    0  0.00000000000E+00  0.00000000000E+00  0.45593999997E+02  0.45594000000E+02  0.51100000000E-03 0.  1.
         11   -1    0    0    0    0 -0.00000000000E+00 -0.00000000000E+00 -0.45593999997E+02  0.45594000000E+02  0.51100000000E-03 0. -1.
    9900012    2    1    2    0    0  0.61731471154E+01  0.97237121742E+01  0.43548308562E+02  0.46142317606E+02  0.99999985812E+01 0.  0.
         12    1    1    2    0    0 -0.61731471154E+01 -0.97237121742E+01 -0.43548308562E+02  0.45045682394E+02  0.00000000000E+00 0. -1.
         11    1    3    3    0    0  0.39398014180E+01  0.52566218438E+00  0.21803960217E+02  0.22163281286E+02  0.51100000000E-03 0. -1.
        -11    1    3    3    0    0  0.19516123885E+01  0.65858375974E+01  0.18887338731E+02  0.20097602155E+02  0.51100000000E-03 0.  1.
         12    1    3    3    0    0  0.28173330895E+00  0.26122123925E+01  0.28570096140E+01  0.38814341647E+01  0.00000000000E+00 0. -1.
</event>
<event>
 7    1  0.3086024E-009  0.4614232E+02  0.7816164E-02  0.1320468E+00
        -11   -1    0    0    0    0  0.00000000000E+00  0.00000000000E+00  0.45593999997E+02  0.45594000000E+02  0.51100000000E-03 0.  1.
         11   -1    0    0    0    0 -0.00000000000E+00 -0.00000000000E+00 -0.45593999997E+02  0.45594000000E+02  0.51100000000E-03 0. -1.
    9900012    2    1    2    0    0 -0.21492169543E+02 -0.36091568125E+02 -0.16266490792E+02  0.46142319141E+02  0.10000012586E+02 0.  0.
         12    1    1    2    0    0  0.21492169543E+02  0.36091568125E+02  0.16266490792E+02  0.45045680859E+02  0.00000000000E+00 0. -1.
         11    1    3    3    0    0 -0.95724223032E+01 -0.16295868430E+02 -0.41724891073E+01  0.19354489460E+02  0.51100000000E-03 0. -1.
        -11    1    3    3    0    0 -0.89085732016E+01 -0.11442299005E+02 -0.47337757717E+01  0.15254426123E+02  0.51100000000E-03 0.  1.
         12    1    3    3    0    0 -0.30111740377E+01 -0.83534006895E+01 -0.73602259130E+01  0.11533403559E+02  0.00000000000E+00 0. -1.
</event>
<event>
 7    1  0.3086024E-009  0.4614232E+02  0.7816164E-02  0.1320468E+00
        -11   -1    0    0    0    0  0.00000000000E+00  0.00000000000E+00  0.45593999997E+02  0.45594000000E+02  0.51100000000E-03 0.  1.
         11   -1    0    0    0    0 -0.00000000000E+00 -0.00000000000E+00 -0.45593999997E+02  0.45594000000E+02  0.51100000000E-03 0. -1.
    9900012    2    1    2    0    0 -0.25740761315E+01 -0.23123345725E+02  0.38571990240E+02  0.46142318559E+02  0.10000007273E+02 0.  0.
         12    1    1    2    0    0  0.25740761315E+01  0.23123345725E+02 -0.38571990240E+02  0.45045681441E+02  0.00000000000E+00 0. -1.
         11    1    3    3    0    0 -0.49604353396E+01 -0.10106042688E+02  0.20574298776E+02  0.23452927066E+02  0.51100000000E-03 0. -1.
        -11    1    3    3    0    0  0.51610336359E+00 -0.57979334870E+01  0.11086572858E+02  0.12521760795E+02  0.51100000000E-03 0.  1.
         12    1    3    3    0    0  0.18702558445E+01 -0.72193695505E+01  0.69111186049E+01  0.10167630698E+02  0.00000000000E+00 0. -1.
</event>
<event>
 7    1  0.3086024E-009  0.4614232E+02  0.7816164E-02  0.1320468E+00
        -11   -1    0    0    0    0  0.00000000000E+00  0.00000000000E+00  0.45593999997E+02  0.45594000000E+02  0.51100000000E-03 0.  1.
         11   -1    0    0    0    0 -0.00000000000E+00 -0.00000000000E+00 -0.45593999997E+02  0.45594000000E+02  0.51100000000E-03 0. -1.
    9900012    2    1    2    0    0  0.18519029568E+02  0.25714093901E+02  0.32014754579E+02  0.46142316610E+02  0.99999895074E+01 0.  0.
         12    1    1    2    0    0 -0.18519029568E+02 -0.25714093901E+02 -0.32014754579E+02  0.45045683390E+02  0.00000000000E+00 0. -1.
         11    1    3    3    0    0 -0.52849276187E+00  0.23156224288E+01  0.15614458200E+01  0.28424505523E+01  0.51100000000E-03 0. -1.
        -11    1    3    3    0    0  0.12407621021E+02  0.14752590343E+02  0.15184741995E+02  0.24539037694E+02  0.51100000000E-03 0.  1.
        -12    1    3    3    0    0  0.66399013083E+01  0.86458811294E+01  0.15268566764E+02  0.18760828364E+02  0.00000000000E+00 0.  1.
</event>
<event>
 7    1  0.3086024E-009  0.4614232E+02  0.7816164E-02  0.1320468E+00
        -11   -1    0    0    0    0  0.00000000000E+00  0.00000000000E+00  0.45593999997E+02  0.45594000000E+02  0.51100000000E-03 0.  1.
         11   -1    0    0    0    0 -0.00000000000E+00 -0.00000000000E+00 -0.45593999997E+02  0.45594000000E+02  0.51100000000E-03 0. -1.
    9900012    2    1    2    0    0  0.28140032261E+02  0.77466463414E+01  0.34310952647E+02  0.46142318556E+02  0.10000007249E+02 0.  0.
         12    1    1    2    0    0 -0.28140032261E+02 -0.77466463414E+01 -0.34310952647E+02  0.45045681444E+02  0.00000000000E+00 0. -1.
         11    1    3    3    0    0  0.45335014128E+01  0.17316885107E+01  0.96972572952E+01  0.10843808347E+02  0.51100000000E-03 0. -1.
        -11    1    3    3    0    0  0.61439132565E+01  0.35569528804E+01  0.39185594779E+01  0.81089267193E+01  0.51100000000E-03 0.  1.
        -12    1    3    3    0    0  0.17462617591E+02  0.24580049502E+01  0.20695135874E+02  0.27189583490E+02  0.00000000000E+00 0.  1.
</event>
<event>
 7    1  0.3086024E-009  0.4614232E+02  0.7816164E-02  0.1320468E+00
        -11   -1    0    0    0    0  0.00000000000E+00  0.00000000000E+00  0.45593999997E+02  0.45594000000E+02  0.51100000000E-03 0.  1.
         11   -1    0    0    0    0 -0.00000000000E+00 -0.00000000000E+00 -0.45593999997E+02  0.45594000000E+02  0.51100000000E-03 0. -1.
    9900012    2    1    2    0    0  0.26970557018E+02 -0.31960791921E+02  0.16739482665E+02  0.46142318231E+02  0.10000004289E+02 0.  0.
         12    1    1    2    0    0 -0.26970557018E+02  0.31960791921E+02 -0.16739482665E+02  0.45045681769E+02  0.00000000000E+00 0. -1.
         11    1    3    3    0    0  0.29420227036E+01 -0.87127025463E+00  0.20533722092E-01  0.30683923055E+01  0.51100000000E-03 0. -1.
        -11    1    3    3    0    0  0.24232112330E+02 -0.29882882204E+02  0.16211845191E+02  0.41749321450E+02  0.51100000000E-03 0.  1.
         12    1    3    3    0    0 -0.20357801606E+00 -0.12066394630E+01  0.50710375205E+00  0.13246044759E+01  0.00000000000E+00 0. -1.
</event>
<event>
 7    1  0.3086024E-009  0.4614232E+02  0.7816164E-02  0.1320468E+00
        -11   -1    0    0    0    0  0.00000000000E+00  0.00000000000E+00  0.45593999997E+02  0.45594000000E+02  0.51100000000E-03 0.  1.
         11   -1    0    0    0    0 -0.00000000000E+00 -0.00000000000E+00 -0.45593999997E+02  0.45594000000E+02  0.51100000000E-03 0. -1.
    9900012    2    1    2    0    0 -0.31053939169E+02  0.30168400319E+02  0.12435188956E+02  0.46142318297E+02  0.10000004883E+02 0.  0.
         12    1    1    2    0    0  0.31053939169E+02 -0.30168400319E+02 -0.12435188956E+02  0.45045681703E+02  0.00000000000E+00 0. -1.
         11    1    3    3    0    0 -0.80168838692E+01  0.11202978924E+02  0.38488476992E+01  0.14303523783E+02  0.51100000000E-03 0. -1.
        -11    1    3    3    0    0 -0.96516020375E+01  0.12130582717E+02  0.29065434525E+01  0.15771888094E+02  0.51100000000E-03 0.  1.
        -12    1    3    3    0    0 -0.13385453263E+02  0.68348386791E+01  0.56797978042E+01  0.16066906420E+02  0.00000000000E+00 0.  1.
</event>
<event>
 7    1  0.3086024E-009  0.4614232E+02  0.7816164E-02  0.1320468E+00
        -11   -1    0    0    0    0  0.00000000000E+00  0.00000000000E+00  0.45593999997E+02  0.45594000000E+02  0.51100000000E-03 0. -1.
         11   -1    0    0    0    0 -0.00000000000E+00 -0.00000000000E+00 -0.45593999997E+02  0.45594000000E+02  0.51100000000E-03 0.  1.
    9900012    2    1    2    0    0  0.12330608410E+02  0.42850067078E+02  0.63985508495E+01  0.46142316463E+02  0.99999881603E+01 0.  0.
         12    1    1    2    0    0 -0.12330608410E+02 -0.42850067078E+02 -0.63985508495E+01  0.45045683537E+02  0.00000000000E+00 0. -1.
         11    1    3    3    0    0  0.27407933078E+01  0.33096145620E+01 -0.12421001559E+01  0.44730648960E+01  0.51100000000E-03 0. -1.
        -11    1    3    3    0    0  0.27837224160E+01  0.11360989939E+02  0.29803029312E-01  0.11697097562E+02  0.51100000000E-03 0.  1.
         12    1    3    3    0    0  0.68060926857E+01  0.28179462577E+02  0.76108479761E+01  0.29972154005E+02  0.00000000000E+00 0. -1.
</event>
<event>
 7    1  0.3086024E-009  0.4614231E+02  0.7816164E-02  0.1320468E+00
        -11   -1    0    0    0    0  0.00000000000E+00  0.00000000000E+00  0.45593999997E+02  0.45594000000E+02  0.51100000000E-03 0.  1.
         11   -1    0    0    0    0 -0.00000000000E+00 -0.00000000000E+00 -0.45593999997E+02  0.45594000000E+02  0.51100000000E-03 0. -1.
    9900012    2    1    2    0    0  0.65285781693E+01  0.40671247472E+02  0.18230225299E+02  0.46142314099E+02  0.99999666017E+01 0.  0.
         12    1    1    2    0    0 -0.65285781693E+01 -0.40671247472E+02 -0.18230225299E+02  0.45045685901E+02  0.00000000000E+00 0. -1.
         11    1    3    3    0    0  0.25684830012E+01  0.18884066087E+02  0.85839548411E+01  0.20901897949E+02  0.51100000000E-03 0. -1.
        -11    1    3    3    0    0  0.24043928676E+01  0.14899700777E+02  0.26935495619E+01  0.15330929450E+02  0.51100000000E-03 0.  1.
         12    1    3    3    0    0  0.15557023004E+01  0.68874806087E+01  0.69527208962E+01  0.99094866993E+01  0.00000000000E+00 0. -1.
</event>
<event>
 7    1  0.3086024E-009  0.4614231E+02  0.7816164E-02  0.1320468E+00
        -11   -1    0    0    0    0  0.00000000000E+00  0.00000000000E+00  0.45593999997E+02  0.45594000000E+02  0.51100000000E-03 0.  1.
         11   -1    0    0    0    0 -0.00000000000E+00 -0.00000000000E+00 -0.45593999997E+02  0.45594000000E+02  0.51100000000E-03 0. -1.
    9900012    2    1    2    0    0  0.25813141104E+02  0.25135500063E+02  0.27037057549E+02  0.46142310994E+02  0.99999382964E+01 0.  0.
         12    1    1    2    0    0 -0.25813141104E+02 -0.25135500063E+02 -0.27037057549E+02  0.45045689006E+02  0.00000000000E+00 0. -1.
         11    1    3    3    0    0  0.18886664902E+00  0.97870424517E+00  0.13120240242E+00  0.10053591110E+01  0.51100000000E-03 0. -1.
        -11    1    3    3    0    0  0.10863084149E+02  0.14076605749E+02  0.93777589916E+01  0.20102233473E+02  0.51100000000E-03 0.  1.
        -12    1    3    3    0    0  0.14761190306E+02  0.10080190069E+02  0.17528096155E+02  0.25034718410E+02  0.00000000000E+00 0.  1.
</event>
<event>
 7    1  0.3086024E-009  0.4614232E+02  0.7816164E-02  0.1320468E+00
        -11   -1    0    0    0    0  0.00000000000E+00  0.00000000000E+00  0.45593999997E+02  0.45594000000E+02  0.51100000000E-03 0. -1.
         11   -1    0    0    0    0 -0.00000000000E+00 -0.00000000000E+00 -0.45593999997E+02  0.45594000000E+02  0.51100000000E-03 0.  1.
    9900012    2    1    2    0    0 -0.41180030942E+02  0.12125882685E+02 -0.13648499575E+02  0.46142317411E+02  0.99999968045E+01 0.  0.
         12    1    1    2    0    0  0.41180030942E+02 -0.12125882685E+02  0.13648499575E+02  0.45045682589E+02  0.00000000000E+00 0. -1.
         11    1    3    3    0    0 -0.13184953123E+02  0.47946535075E+01 -0.67844471532E+01  0.15583979419E+02  0.51100000000E-03 0. -1.
        -11    1    3    3    0    0 -0.41180721429E+01  0.35380410859E+01 -0.25571817250E+01  0.60012858235E+01  0.51100000000E-03 0.  1.
        -12    1    3    3    0    0 -0.23877005677E+02  0.37931880920E+01 -0.43068706964E+01  0.24557052168E+02  0.00000000000E+00 0.  1.
</event>
<event>
 7    1  0.3086024E-009  0.4614232E+02  0.7816164E-02  0.1320468E+00
        -11   -1    0    0    0    0  0.00000000000E+00  0.00000000000E+00  0.45593999997E+02  0.45594000000E+02  0.51100000000E-03 0.  1.
         11   -1    0    0    0    0 -0.00000000000E+00 -0.00000000000E+00 -0.45593999997E+02  0.45594000000E+02  0.51100000000E-03 0. -1.
    9900012    2    1    2    0    0  0.32448737255E+02  0.31632285083E+01  0.31083547217E+02  0.46142317947E+02  0.10000001697E+02 0.  0.
         12    1    1    2    0    0 -0.32448737255E+02 -0.31632285083E+01 -0.31083547217E+02  0.45045682053E+02  0.00000000000E+00 0. -1.
         11    1    3    3    0    0  0.22704555112E+02  0.32247189242E+01  0.23774499888E+02  0.33032143136E+02  0.51100000000E-03 0. -1.
        -11    1    3    3    0    0  0.19829276441E+01  0.10623745736E+01  0.40190673969E+01  0.46058164074E+01  0.51100000000E-03 0.  1.
         12    1    3    3    0    0  0.77612544990E+01 -0.11238649896E+01  0.32899799320E+01  0.85043584042E+01  0.00000000000E+00 0. -1.
</event>
<event>
 7    1  0.3086024E-009  0.4614232E+02  0.7816164E-02  0.1320468E+00
        -11   -1    0    0    0    0  0.00000000000E+00  0.00000000000E+00  0.45593999997E+02  0.45594000000E+02  0.51100000000E-03 0.  1.
         11   -1    0    0    0    0 -0.00000000000E+00 -0.00000000000E+00 -0.45593999997E+02  0.45594000000E+02  0.51100000000E-03 0. -1.
    9900012    2    1    2    0    0 -0.21734281860E+02  0.21854393284E+01  0.39394899755E+02  0.46142320077E+02  0.10000021119E+02 0.  0.
         12    1    1    2    0    0  0.21734281860E+02 -0.21854393284E+01 -0.39394899755E+02  0.45045679923E+02  0.00000000000E+00 0. -1.
         11    1    3    3    0    0 -0.29865089376E+01  0.15951854409E+01  0.25292537912E+01  0.42262249380E+01  0.51100000000E-03 0. -1.
        -11    1    3    3    0    0 -0.14377918206E+02  0.43530927630E+00  0.20965748733E+02  0.25425905024E+02  0.51100000000E-03 0.  1.
        -12    1    3    3    0    0 -0.43698547159E+01  0.15494461117E+00  0.15899897231E+02  0.16490190115E+02  0.00000000000E+00 0.  1.
</event>
<event>
 7    1  0.3086024E-009  0.4614232E+02  0.7816164E-02  0.1320468E+00
        -11   -1    0    0    0    0  0.00000000000E+00  0.00000000000E+00  0.45593999997E+02  0.45594000000E+02  0.51100000000E-03 0.  1.
         11   -1    0    0    0    0 -0.00000000000E+00 -0.00000000000E+00 -0.45593999997E+02  0.45594000000E+02  0.51100000000E-03 0. -1.
    9900012    2    1    2    0    0  0.14343629169E+02 -0.41048198511E+02 -0.11765170718E+02  0.46142317179E+02  0.99999946944E+01 0.  0.
         12    1    1    2    0    0 -0.14343629169E+02  0.41048198511E+02  0.11765170718E+02  0.45045682821E+02  0.00000000000E+00 0. -1.
         11    1    3    3    0    0  0.12032702785E+02 -0.22528353766E+02 -0.37269242274E+01  0.25810901266E+02  0.51100000000E-03 0. -1.
        -11    1    3    3    0    0  0.99689936678E+00 -0.57031949481E+01 -0.23760704816E+01  0.62582707003E+01  0.51100000000E-03 0.  1.
         12    1    3    3    0    0  0.13140270176E+01 -0.12816649797E+02 -0.56621760089E+01  0.14073145213E+02  0.00000000000E+00 0. -1.
</event>
<event>
 7    1  0.3086024E-009  0.4614232E+02  0.7816164E-02  0.1320468E+00
        -11   -1    0    0    0    0  0.00000000000E+00  0.00000000000E+00  0.45593999997E+02  0.45594000000E+02  0.51100000000E-03 0. -1.
         11   -1    0    0    0    0 -0.00000000000E+00 -0.00000000000E+00 -0.45593999997E+02  0.45594000000E+02  0.51100000000E-03 0.  1.
    9900012    2    1    2    0    0 -0.10718122540E+02 -0.23354196890E+02  0.36997526931E+02  0.46142315832E+02  0.99999824097E+01 0.  0.
         12    1    1    2    0    0  0.10718122540E+02  0.23354196890E+02 -0.36997526931E+02  0.45045684168E+02  0.00000000000E+00 0. -1.
         11    1    3    3    0    0 -0.74398498370E+01 -0.10265585487E+02  0.16111138402E+02  0.20501277810E+02  0.51100000000E-03 0.  1.
        -11    1    3    3    0    0 -0.17029525983E+01 -0.67929190393E+01  0.53791641846E+01  0.88305834582E+01  0.51100000000E-03 0. -1.
        -12    1    3    3    0    0 -0.15753201046E+01 -0.62956923641E+01  0.15507224344E+02  0.16810454564E+02  0.00000000000E+00 0.  1.
</event>
<event>
 7    1  0.3086024E-009  0.4614232E+02  0.7816164E-02  0.1320468E+00
        -11   -1    0    0    0    0  0.00000000000E+00  0.00000000000E+00  0.45593999997E+02  0.45594000000E+02  0.51100000000E-03 0.  1.
         11   -1    0    0    0    0 -0.00000000000E+00 -0.00000000000E+00 -0.45593999997E+02  0.45594000000E+02  0.51100000000E-03 0. -1.
    9900012    2    1    2    0    0 -0.59250035388E+01 -0.11995216106E+02  0.43013051601E+02  0.46142317805E+02  0.10000000400E+02 0.  0.
         12    1    1    2    0    0  0.59250035388E+01  0.11995216106E+02 -0.43013051601E+02  0.45045682195E+02  0.00000000000E+00 0. -1.
         11    1    3    3    0    0 -0.38891685466E+01 -0.29326549034E+01  0.10206324945E+02  0.11309074494E+02  0.51100000000E-03 0. -1.
        -11    1    3    3    0    0 -0.12796064144E+01 -0.64831908474E+01  0.30740906360E+02  0.31443162695E+02  0.51100000000E-03 0.  1.
         12    1    3    3    0    0 -0.75622857780E+00 -0.25793703551E+01  0.20658202966E+01  0.33900806168E+01  0.00000000000E+00 0. -1.
</event>
<event>
 7    1  0.3086024E-009  0.4614232E+02  0.7816164E-02  0.1320468E+00
        -11   -1    0    0    0    0  0.00000000000E+00  0.00000000000E+00  0.45593999997E+02  0.45594000000E+02  0.51100000000E-03 0. -1.
         11   -1    0    0    0    0 -0.00000000000E+00 -0.00000000000E+00 -0.45593999997E+02  0.45594000000E+02  0.51100000000E-03 0.  1.
    9900012    2    1    2    0    0  0.14545386308E+02 -0.16196164284E+02 -0.39436397992E+02  0.46142317777E+02  0.10000000149E+02 0.  0.
         12    1    1    2    0    0 -0.14545386308E+02  0.16196164284E+02  0.39436397992E+02  0.45045682223E+02  0.00000000000E+00 0. -1.
         11    1    3    3    0    0  0.66131895648E+01 -0.12399636821E+02 -0.28372576006E+02  0.31662096251E+02  0.51100000000E-03 0. -1.
        -11    1    3    3    0    0  0.77410093520E+01 -0.35092165259E+01 -0.11240849503E+02  0.14092356944E+02  0.51100000000E-03 0.  1.
         12    1    3    3    0    0  0.19118739091E+00 -0.28731093700E+00  0.17702751748E+00  0.38786458321E+00  0.00000000000E+00 0. -1.
</event>
<event>
 7    1  0.3086024E-009  0.4614232E+02  0.7816164E-02  0.1320468E+00
        -11   -1    0    0    0    0  0.00000000000E+00  0.00000000000E+00  0.45593999997E+02  0.45594000000E+02  0.51100000000E-03 0.  1.
         11   -1    0    0    0    0 -0.00000000000E+00 -0.00000000000E+00 -0.45593999997E+02  0.45594000000E+02  0.51100000000E-03 0. -1.
    9900012    2    1    2    0    0  0.31961415440E+01  0.44208774269E+00  0.44929975685E+02  0.46142317883E+02  0.10000001115E+02 0.  0.
         12    1    1    2    0    0 -0.31961415440E+01 -0.44208774269E+00 -0.44929975685E+02  0.45045682117E+02  0.00000000000E+00 0. -1.
         11    1    3    3    0    0  0.35862739538E+01 -0.23621914140E+00  0.23912669697E+02  0.24181251677E+02  0.51100000000E-03 0. -1.
        -11    1    3    3    0    0 -0.24182039222E+01  0.23835849703E+01  0.15108388249E+02  0.15485237592E+02  0.51100000000E-03 0.  1.
        -12    1    3    3    0    0  0.20280715124E+01 -0.17052780863E+01  0.59089177377E+01  0.64758286143E+01  0.00000000000E+00 0.  1.
</event>
<event>
 7    1  0.3086024E-009  0.4614232E+02  0.7816164E-02  0.1320468E+00
        -11   -1    0    0    0    0  0.00000000000E+00  0.00000000000E+00  0.45593999997E+02  0.45594000000E+02  0.51100000000E-03 0. -1.
         11   -1    0    0    0    0 -0.00000000000E+00 -0.00000000000E+00 -0.45593999997E+02  0.45594000000E+02  0.51100000000E-03 0.  1.
    9900012    2    1    2    0    0 -0.48217583900E+01  0.44264119086E+02  0.68228980716E+01  0.46142317293E+02  0.99999957324E+01 0.  0.
         12    1    1    2    0    0  0.48217583900E+01 -0.44264119086E+02 -0.68228980716E+01  0.45045682707E+02  0.00000000000E+00 0. -1.
         11    1    3    3    0    0 -0.37945815811E+01  0.11655529536E+02 -0.10366075768E+01  0.12301413483E+02  0.51100000000E-03 0.  1.
        -11    1    3    3    0    0 -0.26649313084E+00 -0.11381722469E-02  0.20497156048E+00  0.33620452994E+00  0.51100000000E-03 0. -1.
         12    1    3    3    0    0 -0.76068367804E+00  0.32609727722E+02  0.76545340879E+01  0.33504699281E+02  0.00000000000E+00 0. -1.
</event>
<event>
 7    1  0.3086024E-009  0.4614232E+02  0.7816164E-02  0.1320468E+00
        -11   -1    0    0    0    0  0.00000000000E+00  0.00000000000E+00  0.45593999997E+02  0.45594000000E+02  0.51100000000E-03 0.  1.
         11   -1    0    0    0    0 -0.00000000000E+00 -0.00000000000E+00 -0.45593999997E+02  0.45594000000E+02  0.51100000000E-03 0. -1.
    9900012    2    1    2    0    0 -0.36480776466E+02  0.36900308542E+00  0.26422155790E+02  0.46142317283E+02  0.99999956425E+01 0.  0.
         12    1    1    2    0    0  0.36480776466E+02 -0.36900308542E+00 -0.26422155790E+02  0.45045682717E+02  0.00000000000E+00 0. -1.
         11    1    3    3    0    0 -0.30132997774E+01 -0.44752717103E+00  0.12528270725E+01  0.32939083248E+01  0.51100000000E-03 0. -1.
        -11    1    3    3    0    0 -0.24923762912E+02 -0.50122774691E-01  0.23172462814E+02  0.34031742581E+02  0.51100000000E-03 0.  1.
        -12    1    3    3    0    0 -0.85437137764E+01  0.86665303114E+00  0.19968659034E+01  0.88166663771E+01  0.00000000000E+00 0.  1.
</event>
<event>
 7    1  0.3086024E-009  0.4614232E+02  0.7816164E-02  0.1320468E+00
        -11   -1    0    0    0    0  0.00000000000E+00  0.00000000000E+00  0.45593999997E+02  0.45594000000E+02  0.51100000000E-03 0.  1.
         11   -1    0    0    0    0 -0.00000000000E+00 -0.00000000000E+00 -0.45593999997E+02  0.45594000000E+02  0.51100000000E-03 0. -1.
    9900012    2    1    2    0    0 -0.36642621826E+02 -0.71659064978E+01  0.25200825103E+02  0.46142317232E+02  0.99999951734E+01 0.  0.
         12    1    1    2    0    0  0.36642621826E+02  0.71659064978E+01 -0.25200825103E+02  0.45045682768E+02  0.00000000000E+00 0. -1.
         11    1    3    3    0    0 -0.76063337432E+01  0.13530581154E+01  0.22021167648E+01  0.80334549096E+01  0.51100000000E-03 0. -1.
        -11    1    3    3    0    0 -0.16830751580E+02 -0.56859940276E+01  0.12020515522E+02  0.21449883927E+02  0.51100000000E-03 0.  1.
         12    1    3    3    0    0 -0.12205536503E+02 -0.28329705856E+01  0.10978192816E+02  0.16658978395E+02  0.00000000000E+00 0. -1.
</event>
<event>
 7    1  0.3086024E-009  0.4614232E+02  0.7816164E-02  0.1320468E+00
        -11   -1    0    0    0    0  0.00000000000E+00  0.00000000000E+00  0.45593999997E+02  0.45594000000E+02  0.51100000000E-03 0.  1.
         11   -1    0    0    0    0 -0.00000000000E+00 -0.00000000000E+00 -0.45593999997E+02  0.45594000000E+02  0.51100000000E-03 0. -1.
    9900012    2    1    2    0    0  0.13830413187E+02  0.42340815900E+02 -0.67147942818E+01  0.46142317829E+02  0.10000000621E+02 0.  0.
         12    1    1    2    0    0 -0.13830413187E+02 -0.42340815900E+02  0.67147942818E+01  0.45045682171E+02  0.00000000000E+00 0. -1.
         11    1    3    3    0    0  0.11156758170E+00  0.79487083933E+01  0.13085478865E+01  0.80564700880E+01  0.51100000000E-03 0. -1.
        -11    1    3    3    0    0  0.25806239292E+01  0.52737359312E+01  0.88149492706E-01  0.58719401505E+01  0.51100000000E-03 0.  1.
         12    1    3    3    0    0  0.11138221676E+02  0.29118371575E+02 -0.81114916610E+01  0.32213907591E+02  0.00000000000E+00 0. -1.
</event>
<event>
 7    1  0.3086024E-009  0.4614232E+02  0.7816164E-02  0.1320468E+00
        -11   -1    0    0    0    0  0.00000000000E+00  0.00000000000E+00  0.45593999997E+02  0.45594000000E+02  0.51100000000E-03 0.  1.
         11   -1    0    0    0    0 -0.00000000000E+00 -0.00000000000E+00 -0.45593999997E+02  0.45594000000E+02  0.51100000000E-03 0. -1.
    9900012    2    1    2    0    0 -0.12973077035E+02 -0.39247222852E+02  0.17901628344E+02  0.46142317335E+02  0.99999961150E+01 0.  0.
         12    1    1    2    0    0  0.12973077035E+02  0.39247222852E+02 -0.17901628344E+02  0.45045682665E+02  0.00000000000E+00 0. -1.
         11    1    3    3    0    0 -0.75902936964E+00 -0.10386392043E+02  0.21345749333E+01  0.10630600908E+02  0.51100000000E-03 0.  1.
        -11    1    3    3    0    0 -0.97113715609E+00 -0.13588581937E+01  0.24194322884E+01  0.29399414664E+01  0.51100000000E-03 0. -1.
        -12    1    3    3    0    0 -0.11242910509E+02 -0.27501972616E+02  0.13347621122E+02  0.32571774961E+02  0.00000000000E+00 0.  1.
</event>
<event>
 7    1  0.3086024E-009  0.4614231E+02  0.7816164E-02  0.1320468E+00
        -11   -1    0    0    0    0  0.00000000000E+00  0.00000000000E+00  0.45593999997E+02  0.45594000000E+02  0.51100000000E-03 0.  1.
         11   -1    0    0    0    0 -0.00000000000E+00 -0.00000000000E+00 -0.45593999997E+02  0.45594000000E+02  0.51100000000E-03 0. -1.
    9900012    2    1    2    0    0 -0.16525202131E+02  0.86830353576E+01  0.40995567125E+02  0.46142312832E+02  0.99999550560E+01 0.  0.
         12    1    1    2    0    0  0.16525202131E+02 -0.86830353576E+01 -0.40995567125E+02  0.45045687168E+02  0.00000000000E+00 0. -1.
         11    1    3    3    0    0 -0.41154194148E+00  0.17781221227E+01  0.22388604652E+01  0.28885258345E+01  0.51100000000E-03 0. -1.
        -11    1    3    3    0    0  0.18937158292E+00 -0.97779963841E+00  0.31988661490E+01  0.33503281376E+01  0.51100000000E-03 0.  1.
        -12    1    3    3    0    0 -0.16303031772E+02  0.78827128734E+01  0.35557840511E+02  0.39903458860E+02  0.00000000000E+00 0.  1.
</event>
<event>
 7    1  0.3086024E-009  0.4614232E+02  0.7816164E-02  0.1320468E+00
        -11   -1    0    0    0    0  0.00000000000E+00  0.00000000000E+00  0.45593999997E+02  0.45594000000E+02  0.51100000000E-03 0.  1.
         11   -1    0    0    0    0 -0.00000000000E+00 -0.00000000000E+00 -0.45593999997E+02  0.45594000000E+02  0.51100000000E-03 0. -1.
    9900012    2    1    2    0    0  0.22064864102E+01  0.37324671363E+02  0.25121979318E+02  0.46142317415E+02  0.99999968474E+01 0.  0.
         12    1    1    2    0    0 -0.22064864102E+01 -0.37324671363E+02 -0.25121979318E+02  0.45045682585E+02  0.00000000000E+00 0. -1.
         11    1    3    3    0    0 -0.14092146619E+01  0.49420888257E+01  0.40152259407E+01  0.65216690763E+01  0.51100000000E-03 0. -1.
        -11    1    3    3    0    0  0.15200752253E+01  0.20980019547E+02  0.90655676166E+01  0.22905378525E+02  0.51100000000E-03 0.  1.
        -12    1    3    3    0    0  0.20956258468E+01  0.11402562990E+02  0.12041185761E+02  0.16715269814E+02  0.00000000000E+00 0.  1.
</event>
<event>
 7    1  0.3086024E-009  0.4614232E+02  0.7816164E-02  0.1320468E+00
        -11   -1    0    0    0    0  0.00000000000E+00  0.00000000000E+00  0.45593999997E+02  0.45594000000E+02  0.51100000000E-03 0. -1.
         11   -1    0    0    0    0 -0.00000000000E+00 -0.00000000000E+00 -0.45593999997E+02  0.45594000000E+02  0.51100000000E-03 0.  1.
    9900012    2    1    2    0    0  0.25918315217E+02 -0.36790071810E+02 -0.19608767879E+01  0.46142317795E+02  0.10000000313E+02 0.  0.
         12    1    1    2    0    0 -0.25918315217E+02  0.36790071810E+02  0.19608767879E+01  0.45045682205E+02  0.00000000000E+00 0. -1.
         11    1    3    3    0    0  0.20395658521E+02 -0.32398627195E+02 -0.49709631177E+00  0.38287087061E+02  0.51100000000E-03 0. -1.
        -11    1    3    3    0    0  0.52391163474E+01 -0.48317327700E+01 -0.16199032452E+01  0.73087665476E+01  0.51100000000E-03 0.  1.
         12    1    3    3    0    0  0.28354034932E+00  0.44028815465E+00  0.15612276905E+00  0.54646418715E+00  0.00000000000E+00 0. -1.
</event>
<event>
 7    1  0.3086024E-009  0.4614232E+02  0.7816164E-02  0.1320468E+00
        -11   -1    0    0    0    0  0.00000000000E+00  0.00000000000E+00  0.45593999997E+02  0.45594000000E+02  0.51100000000E-03 0.  1.
         11   -1    0    0    0    0 -0.00000000000E+00 -0.00000000000E+00 -0.45593999997E+02  0.45594000000E+02  0.51100000000E-03 0. -1.
    9900012    2    1    2    0    0 -0.31154246275E+02 -0.20349017356E+02  0.25385900239E+02  0.46142317640E+02  0.99999988983E+01 0.  0.
         12    1    1    2    0    0  0.31154246275E+02  0.20349017356E+02 -0.25385900239E+02  0.45045682360E+02  0.00000000000E+00 0. -1.
         11    1    3    3    0    0 -0.14084077929E+02 -0.81600135213E+01  0.71594350961E+01  0.17782142248E+02  0.51100000000E-03 0. -1.
        -11    1    3    3    0    0 -0.13166739580E+02 -0.68471561104E+01  0.10453366867E+02  0.18152670798E+02  0.51100000000E-03 0.  1.
         12    1    3    3    0    0 -0.39034287658E+01 -0.53418477241E+01  0.77730982764E+01  0.10207504595E+02  0.00000000000E+00 0. -1.
</event>
<event>
 7    1  0.3086024E-009  0.4614232E+02  0.7816164E-02  0.1320468E+00
        -11   -1    0    0    0    0  0.00000000000E+00  0.00000000000E+00  0.45593999997E+02  0.45594000000E+02  0.51100000000E-03 0. -1.
         11   -1    0    0    0    0 -0.00000000000E+00 -0.00000000000E+00 -0.45593999997E+02  0.45594000000E+02  0.51100000000E-03 0.  1.
    9900012    2    1    2    0    0 -0.78027978047E+01  0.35523594339E+02 -0.26576381733E+02  0.46142317916E+02  0.10000001416E+02 0.  0.
         12    1    1    2    0    0  0.78027978047E+01 -0.35523594339E+02  0.26576381733E+02  0.45045682084E+02  0.00000000000E+00 0. -1.
         11    1    3    3    0    0 -0.29543542791E+00  0.29634800784E+00  0.58167237540E+00  0.71655233392E+00  0.51100000000E-03 0. -1.
        -11    1    3    3    0    0 -0.30951223355E+01  0.14865830810E+02 -0.81997936441E+01  0.17257152836E+02  0.51100000000E-03 0.  1.
         12    1    3    3    0    0 -0.44122400414E+01  0.20361415521E+02 -0.18958260465E+02  0.28168612746E+02  0.00000000000E+00 0. -1.
</event>
<event>
 7    1  0.3086024E-009  0.4614232E+02  0.7816164E-02  0.1320468E+00
        -11   -1    0    0    0    0  0.00000000000E+00  0.00000000000E+00  0.45593999997E+02  0.45594000000E+02  0.51100000000E-03 0.  1.
         11   -1    0    0    0    0 -0.00000000000E+00 -0.00000000000E+00 -0.45593999997E+02  0.45594000000E+02  0.51100000000E-03 0. -1.
    9900012    2    1    2    0    0  0.83584590217E+01  0.32296107266E+02  0.30268975496E+02  0.46142320304E+02  0.10000023185E+02 0.  0.
         12    1    1    2    0    0 -0.83584590217E+01 -0.32296107266E+02 -0.30268975496E+02  0.45045679696E+02  0.00000000000E+00 0. -1.
         11    1    3    3    0    0  0.62522255472E+01  0.16038937340E+02  0.13779168103E+02  0.22050018348E+02  0.51100000000E-03 0. -1.
        -11    1    3    3    0    0  0.30385152392E+01  0.16336724242E+02  0.15803726625E+02  0.22932049828E+02  0.51100000000E-03 0.  1.
         12    1    3    3    0    0 -0.93228176472E+00 -0.79554316683E-01  0.68608076834E+00  0.11602521273E+01  0.00000000000E+00 0. -1.
</event>
<event>
 7    1  0.3086024E-009  0.4614232E+02  0.7816164E-02  0.1320468E+00
        -11   -1    0    0    0    0  0.00000000000E+00  0.00000000000E+00  0.45593999997E+02  0.45594000000E+02  0.51100000000E-03 0.  1.
         11   -1    0    0    0    0 -0.00000000000E+00 -0.00000000000E+00 -0.45593999997E+02  0.45594000000E+02  0.51100000000E-03 0. -1.
    9900012    2    1    2    0    0  0.43151548043E+02 -0.21336702225E+01  0.12747738985E+02  0.46142317673E+02  0.99999991968E+01 0.  0.
         12    1    1    2    0    0 -0.43151548043E+02  0.21336702225E+01 -0.12747738985E+02  0.45045682327E+02  0.00000000000E+00 0. -1.
         11    1    3    3    0    0  0.90187513853E+00  0.48691192592E+00 -0.40480183318E+00  0.11019649606E+01  0.51100000000E-03 0. -1.
        -11    1    3    3    0    0  0.30956433738E+02 -0.45385863979E+01  0.70925521872E+01  0.32081207163E+02  0.51100000000E-03 0.  1.
        -12    1    3    3    0    0  0.11293239166E+02  0.19180042494E+01  0.60599886305E+01  0.12959145549E+02  0.00000000000E+00 0.  1.
</event>
<event>
 7    1  0.3086024E-009  0.4614232E+02  0.7816164E-02  0.1320468E+00
        -11   -1    0    0    0    0  0.00000000000E+00  0.00000000000E+00  0.45593999997E+02  0.45594000000E+02  0.51100000000E-03 0.  1.
         11   -1    0    0    0    0 -0.00000000000E+00 -0.00000000000E+00 -0.45593999997E+02  0.45594000000E+02  0.51100000000E-03 0. -1.
    9900012    2    1    2    0    0  0.74510767029E+01 -0.19192093798E+02  0.40065678627E+02  0.46142316386E+02  0.99999874646E+01 0.  0.
         12    1    1    2    0    0 -0.74510767029E+01  0.19192093798E+02 -0.40065678627E+02  0.45045683614E+02  0.00000000000E+00 0. -1.
         11    1    3    3    0    0 -0.13699004798E+01 -0.62268940064E+01  0.17377671872E+02  0.18510384011E+02  0.51100000000E-03 0.  1.
        -11    1    3    3    0    0  0.57380414796E+01 -0.86170607918E+01  0.16331276173E+02  0.19336220893E+02  0.51100000000E-03 0. -1.
        -12    1    3    3    0    0  0.30829357030E+01 -0.43481389994E+01  0.63567305814E+01  0.82957114819E+01  0.00000000000E+00 0.  1.
</event>
<event>
 7    1  0.3086024E-009  0.4614232E+02  0.7816164E-02  0.1320468E+00
        -11   -1    0    0    0    0  0.00000000000E+00  0.00000000000E+00  0.45593999997E+02  0.45594000000E+02  0.51100000000E-03 0.  1.
         11   -1    0    0    0    0 -0.00000000000E+00 -0.00000000000E+00 -0.45593999997E+02  0.45594000000E+02  0.51100000000E-03 0. -1.
    9900012    2    1    2    0    0 -0.15113334067E+02  0.39900692343E+02 -0.14444215673E+02  0.46142317826E+02  0.10000000590E+02 0.  0.
         12    1    1    2    0    0  0.15113334067E+02 -0.39900692343E+02  0.14444215673E+02  0.45045682174E+02  0.00000000000E+00 0. -1.
         11    1    3    3    0    0 -0.10754413897E+02  0.30773322118E+02 -0.14696299693E+02  0.35758020043E+02  0.51100000000E-03 0.  1.
        -11    1    3    3    0    0 -0.42456551279E+01  0.92289401078E+01  0.85979426083E-01  0.10159050925E+02  0.51100000000E-03 0. -1.
        -12    1    3    3    0    0 -0.11326504223E+00 -0.10156988283E+00  0.16610459342E+00  0.22524685757E+00  0.00000000000E+00 0.  1.
</event>
<event>
 7    1  0.3086024E-009  0.4614231E+02  0.7816164E-02  0.1320468E+00
        -11   -1    0    0    0    0  0.00000000000E+00  0.00000000000E+00  0.45593999997E+02  0.45594000000E+02  0.51100000000E-03 0.  1.
         11   -1    0    0    0    0 -0.00000000000E+00 -0.00000000000E+00 -0.45593999997E+02  0.45594000000E+02  0.51100000000E-03 0. -1.
    9900012    2    1    2    0    0  0.15711698819E+02  0.40107214576E+02  0.13178306445E+02  0.46142313175E+02  0.99999581789E+01 0.  0.
         12    1    1    2    0    0 -0.15711698819E+02 -0.40107214576E+02 -0.13178306445E+02  0.45045686825E+02  0.00000000000E+00 0. -1.
         11    1    3    3    0    0  0.85439421083E+00  0.10417220730E+02  0.31382591968E+01  0.10913163989E+02  0.51100000000E-03 0. -1.
        -11    1    3    3    0    0  0.60465272986E+01  0.82090031468E+01  0.54547364227E+01  0.11562974303E+02  0.51100000000E-03 0.  1.
         12    1    3    3    0    0  0.88107773097E+01  0.21480990699E+02  0.45853108251E+01  0.23666174883E+02  0.00000000000E+00 0. -1.
</event>
<event>
 7    1  0.3086024E-009  0.4614232E+02  0.7816164E-02  0.1320468E+00
        -11   -1    0    0    0    0  0.00000000000E+00  0.00000000000E+00  0.45593999997E+02  0.45594000000E+02  0.51100000000E-03 0.  1.
         11   -1    0    0    0    0 -0.00000000000E+00 -0.00000000000E+00 -0.45593999997E+02  0.45594000000E+02  0.51100000000E-03 0. -1.
    9900012    2    1    2    0    0  0.20799689971E+02 -0.44857969534E+01  0.39703450333E+02  0.46142318237E+02  0.10000004337E+02 0.  0.
         12    1    1    2    0    0 -0.20799689971E+02  0.44857969534E+01 -0.39703450333E+02  0.45045681763E+02  0.00000000000E+00 0. -1.
         11    1    3    3    0    0  0.79811377299E+01 -0.18615699356E+01  0.99552518129E+01  0.12894612868E+02  0.51100000000E-03 0. -1.
        -11    1    3    3    0    0  0.90169733860E+01 -0.26612351074E+00  0.12413602878E+02  0.15345167560E+02  0.51100000000E-03 0.  1.
         12    1    3    3    0    0  0.38015788551E+01 -0.23581035071E+01  0.17334595642E+02  0.17902537809E+02  0.00000000000E+00 0. -1.
</event>
<event>
 7    1  0.3086024E-009  0.4614232E+02  0.7816164E-02  0.1320468E+00
        -11   -1    0    0    0    0  0.00000000000E+00  0.00000000000E+00  0.45593999997E+02  0.45594000000E+02  0.51100000000E-03 0.  1.
         11   -1    0    0    0    0 -0.00000000000E+00 -0.00000000000E+00 -0.45593999997E+02  0.45594000000E+02  0.51100000000E-03 0. -1.
    9900012    2    1    2    0    0  0.36894890801E+02 -0.25177188450E+02 -0.58300884214E+01  0.46142315229E+02  0.99999769110E+01 0.  0.
         12    1    1    2    0    0 -0.36894890801E+02  0.25177188450E+02  0.58300884214E+01  0.45045684771E+02  0.00000000000E+00 0. -1.
         11    1    3    3    0    0  0.14433193833E+01  0.46054304751E+00  0.20231803614E+00  0.15284644548E+01  0.51100000000E-03 0. -1.
        -11    1    3    3    0    0  0.18927061294E+02 -0.98431536755E+01 -0.34248418969E+01  0.21606731955E+02  0.51100000000E-03 0.  1.
         12    1    3    3    0    0  0.16524510124E+02 -0.15794577822E+02 -0.26075645606E+01  0.23007118819E+02  0.00000000000E+00 0. -1.
</event>
<event>
 7    1  0.3086024E-009  0.4614232E+02  0.7816164E-02  0.1320468E+00
        -11   -1    0    0    0    0  0.00000000000E+00  0.00000000000E+00  0.45593999997E+02  0.45594000000E+02  0.51100000000E-03 0. -1.
         11   -1    0    0    0    0 -0.00000000000E+00 -0.00000000000E+00 -0.45593999997E+02  0.45594000000E+02  0.51100000000E-03 0.  1.
    9900012    2    1    2    0    0  0.19144941510E+02 -0.40628068312E+02 -0.34561272874E+01  0.46142317232E+02  0.99999951744E+01 0.  0.
         12    1    1    2    0    0 -0.19144941510E+02  0.40628068312E+02  0.34561272874E+01  0.45045682768E+02  0.00000000000E+00 0. -1.
         11    1    3    3    0    0  0.76735959620E+01 -0.18561800558E+02 -0.11591734837E+01  0.20118851815E+02  0.51100000000E-03 0.  1.
        -11    1    3    3    0    0  0.36366062283E+01 -0.44660113086E+01 -0.34675002165E+01  0.67226274536E+01  0.51100000000E-03 0. -1.
         12    1    3    3    0    0  0.78347393197E+01 -0.17600256446E+02  0.11705464128E+01  0.19300837963E+02  0.00000000000E+00 0. -1.
</event>
<event>
 7    1  0.3086024E-009  0.4614232E+02  0.7816164E-02  0.1320468E+00
        -11   -1    0    0    0    0  0.00000000000E+00  0.00000000000E+00  0.45593999997E+02  0.45594000000E+02  0.51100000000E-03 0. -1.
         11   -1    0    0    0    0 -0.00000000000E+00 -0.00000000000E+00 -0.45593999997E+02  0.45594000000E+02  0.51100000000E-03 0.  1.
    9900012    2    1    2    0    0 -0.53370354971E+01 -0.36067118190E+02 -0.26453585714E+02  0.46142321411E+02  0.10000033285E+02 0.  0.
         12    1    1    2    0    0  0.53370354971E+01  0.36067118190E+02  0.26453585714E+02  0.45045678589E+02  0.00000000000E+00 0. -1.
         11    1    3    3    0    0 -0.44740656547E+01 -0.10101276554E+02 -0.91826279694E+01  0.14365712937E+02  0.51100000000E-03 0. -1.
        -11    1    3    3    0    0  0.79927266407E+00 -0.16649801891E+02 -0.78551209123E+01  0.18427090508E+02  0.51100000000E-03 0.  1.
         12    1    3    3    0    0 -0.16622425065E+01 -0.93160397455E+01 -0.94158368320E+01  0.13349517966E+02  0.00000000000E+00 0. -1.
</event>
<event>
 7    1  0.3086024E-009  0.4614232E+02  0.7816164E-02  0.1320468E+00
        -11   -1    0    0    0    0  0.00000000000E+00  0.00000000000E+00  0.45593999997E+02  0.45594000000E+02  0.51100000000E-03 0.  1.
         11   -1    0    0    0    0 -0.00000000000E+00 -0.00000000000E+00 -0.45593999997E+02  0.45594000000E+02  0.51100000000E-03 0. -1.
    9900012    2    1    2    0    0  0.28503113392E+02  0.31789473373E+02  0.14356715323E+02  0.46142319127E+02  0.10000012459E+02 0.  0.
         12    1    1    2    0    0 -0.28503113392E+02 -0.31789473373E+02 -0.14356715323E+02  0.45045680873E+02  0.00000000000E+00 0. -1.
         11    1    3    3    0    0  0.15253017636E+01  0.46699596601E+01 -0.36444940803E+00  0.49262452567E+01  0.51100000000E-03 0. -1.
        -11    1    3    3    0    0  0.17898155221E+02  0.18764618688E+02  0.12034707618E+02  0.28588267917E+02  0.51100000000E-03 0.  1.
         12    1    3    3    0    0  0.90796564081E+01  0.83548950254E+01  0.26864571134E+01  0.12627805953E+02  0.00000000000E+00 0. -1.
</event>
<event>
 7    1  0.3086024E-009  0.4614232E+02  0.7816164E-02  0.1320468E+00
        -11   -1    0    0    0    0  0.00000000000E+00  0.00000000000E+00  0.45593999997E+02  0.45594000000E+02  0.51100000000E-03 0.  1.
         11   -1    0    0    0    0 -0.00000000000E+00 -0.00000000000E+00 -0.45593999997E+02  0.45594000000E+02  0.51100000000E-03 0. -1.
    9900012    2    1    2    0    0  0.51269249026E+01  0.12465428072E+01  0.44735603866E+02  0.46142317841E+02  0.10000000728E+02 0.  0.
         12    1    1    2    0    0 -0.51269249026E+01 -0.12465428072E+01 -0.44735603866E+02  0.45045682159E+02  0.00000000000E+00 0. -1.
         11    1    3    3    0    0  0.13231229374E+01 -0.17404146631E+00  0.57918902425E+00  0.14547869007E+01  0.51100000000E-03 0. -1.
        -11    1    3    3    0    0  0.20980026393E+01  0.35603186625E+01  0.26765244756E+02  0.27082389318E+02  0.51100000000E-03 0.  1.
        -12    1    3    3    0    0  0.17057993259E+01 -0.21397343889E+01  0.17391170085E+02  0.17605141622E+02  0.00000000000E+00 0.  1.
</event>
<event>
 7    1  0.3086024E-009  0.4614232E+02  0.7816164E-02  0.1320468E+00
        -11   -1    0    0    0    0  0.00000000000E+00  0.00000000000E+00  0.45593999997E+02  0.45594000000E+02  0.51100000000E-03 0.  1.
         11   -1    0    0    0    0 -0.00000000000E+00 -0.00000000000E+00 -0.45593999997E+02  0.45594000000E+02  0.51100000000E-03 0. -1.
    9900012    2    1    2    0    0 -0.25100518252E+02 -0.24303159852E+02  0.28432974831E+02  0.46142315933E+02  0.99999833315E+01 0.  0.
         12    1    1    2    0    0  0.25100518252E+02  0.24303159852E+02 -0.28432974831E+02  0.45045684067E+02  0.00000000000E+00 0. -1.
         11    1    3    3    0    0 -0.98487201276E+01 -0.43942570394E+01  0.98866079173E+01  0.14630509200E+02  0.51100000000E-03 0. -1.
        -11    1    3    3    0    0 -0.37983888091E+01 -0.56761659665E+01  0.27571316876E+01  0.73653508422E+01  0.51100000000E-03 0.  1.
        -12    1    3    3    0    0 -0.11453409315E+02 -0.14232736846E+02  0.15789235226E+02  0.24146455891E+02  0.00000000000E+00 0.  1.
</event>
<event>
 7    1  0.3086024E-009  0.4614232E+02  0.7816164E-02  0.1320468E+00
        -11   -1    0    0    0    0  0.00000000000E+00  0.00000000000E+00  0.45593999997E+02  0.45594000000E+02  0.51100000000E-03 0.  1.
         11   -1    0    0    0    0 -0.00000000000E+00 -0.00000000000E+00 -0.45593999997E+02  0.45594000000E+02  0.51100000000E-03 0. -1.
    9900012    2    1    2    0    0  0.41446420019E+02  0.12804760101E+02  0.12138611574E+02  0.46142317581E+02  0.99999983560E+01 0.  0.
         12    1    1    2    0    0 -0.41446420019E+02 -0.12804760101E+02 -0.12138611574E+02  0.45045682419E+02  0.00000000000E+00 0. -1.
         11    1    3    3    0    0  0.18914328271E+01 -0.73484586838E+00  0.20811854900E+01  0.29066905399E+01  0.51100000000E-03 0. -1.
        -11    1    3    3    0    0  0.19577430133E+02  0.44818993751E+01  0.39828202558E+01  0.20475010381E+02  0.51100000000E-03 0.  1.
        -12    1    3    3    0    0  0.19977557059E+02  0.90577065946E+01  0.60746058279E+01  0.22760616660E+02  0.00000000000E+00 0.  1.
</event>
<event>
 7    1  0.3086024E-009  0.4614232E+02  0.7816164E-02  0.1320468E+00
        -11   -1    0    0    0    0  0.00000000000E+00  0.00000000000E+00  0.45593999997E+02  0.45594000000E+02  0.51100000000E-03 0.  1.
         11   -1    0    0    0    0 -0.00000000000E+00 -0.00000000000E+00 -0.45593999997E+02  0.45594000000E+02  0.51100000000E-03 0. -1.
    9900012    2    1    2    0    0  0.16304007327E+02  0.39900218409E+02 -0.13086839590E+02  0.46142318138E+02  0.10000003437E+02 0.  0.
         12    1    1    2    0    0 -0.16304007327E+02 -0.39900218409E+02  0.13086839590E+02  0.45045681862E+02  0.00000000000E+00 0. -1.
         11    1    3    3    0    0  0.45894337917E+01  0.97547579378E+01 -0.67474236898E+01  0.12717937398E+02  0.51100000000E-03 0. -1.
        -11    1    3    3    0    0  0.94276903324E+01  0.27941006553E+02 -0.66614537766E+01  0.30231707839E+02  0.51100000000E-03 0.  1.
         12    1    3    3    0    0  0.22868832025E+01  0.22044539180E+01  0.32203787618E+00  0.31926729009E+01  0.00000000000E+00 0. -1.
</event>
<event>
 7    1  0.3086024E-009  0.4614232E+02  0.7816164E-02  0.1320468E+00
        -11   -1    0    0    0    0  0.00000000000E+00  0.00000000000E+00  0.45593999997E+02  0.45594000000E+02  0.51100000000E-03 0. -1.
         11   -1    0    0    0    0 -0.00000000000E+00 -0.00000000000E+00 -0.45593999997E+02  0.45594000000E+02  0.51100000000E-03 0.  1.
    9900012    2    1    2    0    0  0.14871886953E+02 -0.35850170455E+02 -0.22862758949E+02  0.46142317744E+02  0.99999998412E+01 0.  0.
         12    1    1    2    0    0 -0.14871886953E+02  0.35850170455E+02  0.22862758949E+02  0.45045682256E+02  0.00000000000E+00 0. -1.
         11    1    3    3    0    0  0.61217340484E+01 -0.85422867143E+01 -0.32586228048E+01  0.11002950191E+02  0.51100000000E-03 0. -1.
        -11    1    3    3    0    0  0.45535647137E+00 -0.83911688651E+01 -0.70413950035E+01  0.10963590119E+02  0.51100000000E-03 0.  1.
        -12    1    3    3    0    0  0.82947964331E+01 -0.18916714875E+02 -0.12562741141E+02  0.24175777433E+02  0.00000000000E+00 0.  1.
</event>
<event>
 7    1  0.3086024E-009  0.4614232E+02  0.7816164E-02  0.1320468E+00
        -11   -1    0    0    0    0  0.00000000000E+00  0.00000000000E+00  0.45593999997E+02  0.45594000000E+02  0.51100000000E-03 0.  1.
         11   -1    0    0    0    0 -0.00000000000E+00 -0.00000000000E+00 -0.45593999997E+02  0.45594000000E+02  0.51100000000E-03 0. -1.
    9900012    2    1    2    0    0 -0.22162214795E+02  0.10743526679E+02  0.37716394667E+02  0.46142317001E+02  0.99999930697E+01 0.  0.
         12    1    1    2    0    0  0.22162214795E+02 -0.10743526679E+02 -0.37716394667E+02  0.45045682999E+02  0.00000000000E+00 0. -1.
         11    1    3    3    0    0 -0.91934671945E+01  0.31014087819E+01  0.17625562282E+02  0.20119617827E+02  0.51100000000E-03 0. -1.
        -11    1    3    3    0    0 -0.34889063184E+01  0.51998004239E+01  0.11030614240E+02  0.12684038888E+02  0.51100000000E-03 0.  1.
        -12    1    3    3    0    0 -0.94798412821E+01  0.24423174738E+01  0.90602181451E+01  0.13338660286E+02  0.00000000000E+00 0.  1.
</event>
<event>
 7    1  0.3086024E-009  0.4614232E+02  0.7816164E-02  0.1320468E+00
        -11   -1    0    0    0    0  0.00000000000E+00  0.00000000000E+00  0.45593999997E+02  0.45594000000E+02  0.51100000000E-03 0.  1.
         11   -1    0    0    0    0 -0.00000000000E+00 -0.00000000000E+00 -0.45593999997E+02  0.45594000000E+02  0.51100000000E-03 0. -1.
    9900012    2    1    2    0    0  0.42080812842E+02  0.15480437012E+02  0.43214338087E+01  0.46142317302E+02  0.99999958164E+01 0.  0.
         12    1    1    2    0    0 -0.42080812842E+02 -0.15480437012E+02 -0.43214338087E+01  0.45045682698E+02  0.00000000000E+00 0. -1.
         11    1    3    3    0    0  0.13210543119E+02  0.79945615634E+01  0.12855667591E+01  0.15494648955E+02  0.51100000000E-03 0. -1.
        -11    1    3    3    0    0  0.22977262096E+02  0.67359780244E+01  0.48617703657E+01  0.24432862803E+02  0.51100000000E-03 0.  1.
         12    1    3    3    0    0  0.58930076271E+01  0.74989742466E+00 -0.18259033160E+01  0.62148055448E+01  0.00000000000E+00 0. -1.
</event>
<event>
 7    1  0.3086024E-009  0.4614232E+02  0.7816164E-02  0.1320468E+00
        -11   -1    0    0    0    0  0.00000000000E+00  0.00000000000E+00  0.45593999997E+02  0.45594000000E+02  0.51100000000E-03 0. -1.
         11   -1    0    0    0    0 -0.00000000000E+00 -0.00000000000E+00 -0.45593999997E+02  0.45594000000E+02  0.51100000000E-03 0.  1.
    9900012    2    1    2    0    0  0.64632837639E+01  0.44187157230E+02  0.59020885897E+01  0.46142317068E+02  0.99999936810E+01 0.  0.
         12    1    1    2    0    0 -0.64632837639E+01 -0.44187157230E+02 -0.59020885897E+01  0.45045682932E+02  0.00000000000E+00 0. -1.
         11    1    3    3    0    0  0.20233308662E+01  0.22386941374E+02  0.70446514621E+00  0.22489225938E+02  0.51100000000E-03 0. -1.
        -11    1    3    3    0    0  0.40289406198E+01  0.22131322308E+02  0.48241453872E+01  0.23006524479E+02  0.51100000000E-03 0.  1.
         12    1    3    3    0    0  0.41101227785E+00 -0.33110645267E+00  0.37347805622E+00  0.64656665087E+00  0.00000000000E+00 0. -1.
</event>
<event>
 7    1  0.3086024E-009  0.4614232E+02  0.7816164E-02  0.1320468E+00
        -11   -1    0    0    0    0  0.00000000000E+00  0.00000000000E+00  0.45593999997E+02  0.45594000000E+02  0.51100000000E-03 0.  1.
         11   -1    0    0    0    0 -0.00000000000E+00 -0.00000000000E+00 -0.45593999997E+02  0.45594000000E+02  0.51100000000E-03 0. -1.
    9900012    2    1    2    0    0  0.35734373105E+02  0.17288870569E+02  0.21289975698E+02  0.46142317277E+02  0.99999955864E+01 0.  0.
         12    1    1    2    0    0 -0.35734373105E+02 -0.17288870569E+02 -0.21289975698E+02  0.45045682723E+02  0.00000000000E+00 0. -1.
         11    1    3    3    0    0  0.14059539999E+02  0.11750153397E+02  0.11196239689E+02  0.21473065763E+02  0.51100000000E-03 0. -1.
        -11    1    3    3    0    0  0.19270435805E+02  0.56589008970E+01  0.93139483606E+01  0.22138710211E+02  0.51100000000E-03 0.  1.
         12    1    3    3    0    0  0.24043973013E+01 -0.12018372531E+00  0.77978764851E+00  0.25305413032E+01  0.00000000000E+00 0. -1.
</event>
<event>
 7    1  0.3086024E-009  0.4614232E+02  0.7816164E-02  0.1320468E+00
        -11   -1    0    0    0    0  0.00000000000E+00  0.00000000000E+00  0.45593999997E+02  0.45594000000E+02  0.51100000000E-03 0.  1.
         11   -1    0    0    0    0 -0.00000000000E+00 -0.00000000000E+00 -0.45593999997E+02  0.45594000000E+02  0.51100000000E-03 0. -1.
    9900012    2    1    2    0    0  0.43676462466E+02 -0.32553895959E+01  0.10530078550E+02  0.46142317752E+02  0.99999999172E+01 0.  0.
         12    1    1    2    0    0 -0.43676462466E+02  0.32553895959E+01 -0.10530078550E+02  0.45045682248E+02  0.00000000000E+00 0. -1.
         11    1    3    3    0    0  0.11376611283E+02 -0.24894436097E+01  0.10229279604E+01  0.11690637093E+02  0.51100000000E-03 0. -1.
        -11    1    3    3    0    0  0.45149805294E+01 -0.26965730014E+01  0.13378601992E+01  0.54264560541E+01  0.51100000000E-03 0.  1.
        -12    1    3    3    0    0  0.27784870653E+02  0.19306270153E+01  0.81692903901E+01  0.29025224605E+02  0.00000000000E+00 0.  1.
</event>
<event>
 7    1  0.3086024E-009  0.4614232E+02  0.7816164E-02  0.1320468E+00
        -11   -1    0    0    0    0  0.00000000000E+00  0.00000000000E+00  0.45593999997E+02  0.45594000000E+02  0.51100000000E-03 0. -1.
         11   -1    0    0    0    0 -0.00000000000E+00 -0.00000000000E+00 -0.45593999997E+02  0.45594000000E+02  0.51100000000E-03 0.  1.
    9900012    2    1    2    0    0 -0.44384382102E+02  0.68630940602E+01  0.34695145773E+01  0.46142323559E+02  0.10000052870E+02 0.  0.
         12    1    1    2    0    0  0.44384382102E+02 -0.68630940602E+01 -0.34695145773E+01  0.45045676441E+02  0.00000000000E+00 0. -1.
         11    1    3    3    0    0 -0.70336417930E+00 -0.74125005837E+00  0.51411291902E+00  0.11438903673E+01  0.51100000000E-03 0. -1.
        -11    1    3    3    0    0 -0.26397829926E+02  0.28546146888E+01 -0.12738571681E+01  0.26582267815E+02  0.51100000000E-03 0.  1.
        -12    1    3    3    0    0 -0.17283187996E+02  0.47497294297E+01  0.42292588264E+01  0.18416165377E+02  0.00000000000E+00 0.  1.
</event>
<event>
 7    1  0.3086024E-009  0.4614232E+02  0.7816164E-02  0.1320468E+00
        -11   -1    0    0    0    0  0.00000000000E+00  0.00000000000E+00  0.45593999997E+02  0.45594000000E+02  0.51100000000E-03 0.  1.
         11   -1    0    0    0    0 -0.00000000000E+00 -0.00000000000E+00 -0.45593999997E+02  0.45594000000E+02  0.51100000000E-03 0. -1.
    9900012    2    1    2    0    0 -0.44926461138E+02 -0.32712661687E+01 -0.15935574630E+00  0.46142317776E+02  0.10000000138E+02 0.  0.
         12    1    1    2    0    0  0.44926461138E+02  0.32712661687E+01  0.15935574630E+00  0.45045682224E+02  0.00000000000E+00 0. -1.
         11    1    3    3    0    0 -0.15055235781E+01 -0.51206642111E+00  0.80347341070E+00  0.17816798384E+01  0.51100000000E-03 0. -1.
        -11    1    3    3    0    0 -0.27397554770E+02  0.24035315303E+01 -0.11152254749E+01  0.27525382819E+02  0.51100000000E-03 0.  1.
        -12    1    3    3    0    0 -0.16023382790E+02 -0.51627312780E+01  0.15239631790E+00  0.16835255119E+02  0.00000000000E+00 0.  1.
</event>
<event>
 7    1  0.3086024E-009  0.4614232E+02  0.7816164E-02  0.1320468E+00
        -11   -1    0    0    0    0  0.00000000000E+00  0.00000000000E+00  0.45593999997E+02  0.45594000000E+02  0.51100000000E-03 0.  1.
         11   -1    0    0    0    0 -0.00000000000E+00 -0.00000000000E+00 -0.45593999997E+02  0.45594000000E+02  0.51100000000E-03 0. -1.
    9900012    2    1    2    0    0 -0.13693576761E+02  0.33768277092E+02  0.26482119743E+02  0.46142320425E+02  0.10000024295E+02 0.  0.
         12    1    1    2    0    0  0.13693576761E+02 -0.33768277092E+02 -0.26482119743E+02  0.45045679575E+02  0.00000000000E+00 0. -1.
         11    1    3    3    0    0 -0.14262371637E+01  0.11176487998E+02  0.64945587890E+01  0.13004896407E+02  0.51100000000E-03 0.  1.
        -11    1    3    3    0    0  0.23444602585E+00  0.36252786872E+00  0.17021408647E+01  0.17560396291E+01  0.51100000000E-03 0. -1.
        -12    1    3    3    0    0 -0.12501785623E+02  0.22229261224E+02  0.18285420090E+02  0.31381384389E+02  0.00000000000E+00 0.  1.
</event>
<event>
 7    1  0.3086024E-009  0.4614232E+02  0.7816164E-02  0.1320468E+00
        -11   -1    0    0    0    0  0.00000000000E+00  0.00000000000E+00  0.45593999997E+02  0.45594000000E+02  0.51100000000E-03 0.  1.
         11   -1    0    0    0    0 -0.00000000000E+00 -0.00000000000E+00 -0.45593999997E+02  0.45594000000E+02  0.51100000000E-03 0. -1.
    9900012    2    1    2    0    0 -0.30861065123E+01 -0.61904551786E+01  0.44511433559E+02  0.46142317563E+02  0.99999981910E+01 0.  0.
         12    1    1    2    0    0  0.30861065123E+01  0.61904551786E+01 -0.44511433559E+02  0.45045682437E+02  0.00000000000E+00 0. -1.
         11    1    3    3    0    0  0.21318494994E+00 -0.26869614242E+01  0.42111080096E+01  0.49998640429E+01  0.51100000000E-03 0. -1.
        -11    1    3    3    0    0  0.29200887761E+00  0.14484722751E+01  0.30032419126E+01  0.33470589124E+01  0.51100000000E-03 0.  1.
        -12    1    3    3    0    0 -0.35913003399E+01 -0.49519660295E+01  0.37297083637E+02  0.37795394607E+02  0.00000000000E+00 0.  1.
</event>
<event>
 7    1  0.3086024E-009  0.4614232E+02  0.7816164E-02  0.1320468E+00
        -11   -1    0    0    0    0  0.00000000000E+00  0.00000000000E+00  0.45593999997E+02  0.45594000000E+02  0.51100000000E-03 0. -1.
         11   -1    0    0    0    0 -0.00000000000E+00 -0.00000000000E+00 -0.45593999997E+02  0.45594000000E+02  0.51100000000E-03 0.  1.
    9900012    2    1    2    0    0  0.20148314548E+02 -0.26281263783E+02 -0.30536108863E+02  0.46142319301E+02  0.10000014039E+02 0.  0.
         12    1    1    2    0    0 -0.20148314548E+02  0.26281263783E+02  0.30536108863E+02  0.45045680699E+02  0.00000000000E+00 0. -1.
         11    1    3    3    0    0  0.30821465288E+01 -0.79610332662E+01 -0.87483048487E+01  0.12223359435E+02  0.51100000000E-03 0. -1.
        -11    1    3    3    0    0  0.82876583978E+01 -0.81648200245E+01 -0.56664211141E+01  0.12940552394E+02  0.51100000000E-03 0.  1.
        -12    1    3    3    0    0  0.87785096216E+01 -0.10155410493E+02 -0.16121382900E+02  0.20978407472E+02  0.00000000000E+00 0.  1.
</event>
<event>
 7    1  0.3086024E-009  0.4614232E+02  0.7816164E-02  0.1320468E+00
        -11   -1    0    0    0    0  0.00000000000E+00  0.00000000000E+00  0.45593999997E+02  0.45594000000E+02  0.51100000000E-03 0.  1.
         11   -1    0    0    0    0 -0.00000000000E+00 -0.00000000000E+00 -0.45593999997E+02  0.45594000000E+02  0.51100000000E-03 0. -1.
    9900012    2    1    2    0    0 -0.31198900635E+02  0.23065498356E+02  0.22885041262E+02  0.46142315092E+02  0.99999756628E+01 0.  0.
         12    1    1    2    0    0  0.31198900635E+02 -0.23065498356E+02 -0.22885041262E+02  0.45045684908E+02  0.00000000000E+00 0. -1.
         11    1    3    3    0    0  0.52756097186E+00  0.99476169706E+00  0.86781969951E+00  0.14216127127E+01  0.51100000000E-03 0. -1.
        -11    1    3    3    0    0 -0.14659470263E+02  0.74902700004E+01  0.99511274205E+01  0.19236141772E+02  0.51100000000E-03 0.  1.
        -12    1    3    3    0    0 -0.17066991344E+02  0.14580466659E+02  0.12066094142E+02  0.25484560607E+02  0.00000000000E+00 0.  1.
</event>
<event>
 7    1  0.3086024E-009  0.4614232E+02  0.7816164E-02  0.1320468E+00
        -11   -1    0    0    0    0  0.00000000000E+00  0.00000000000E+00  0.45593999997E+02  0.45594000000E+02  0.51100000000E-03 0. -1.
         11   -1    0    0    0    0 -0.00000000000E+00 -0.00000000000E+00 -0.45593999997E+02  0.45594000000E+02  0.51100000000E-03 0.  1.
    9900012    2    1    2    0    0  0.65895932401E+01  0.38463543728E+02 -0.22499919289E+02  0.46142319816E+02  0.10000018738E+02 0.  0.
         12    1    1    2    0    0 -0.65895932401E+01 -0.38463543728E+02  0.22499919289E+02  0.45045680184E+02  0.00000000000E+00 0. -1.
         11    1    3    3    0    0 -0.18531913977E+01  0.58437446488E+01 -0.39822400841E+01  0.73103971319E+01  0.51100000000E-03 0. -1.
        -11    1    3    3    0    0  0.61375005451E+00  0.12032397704E+02 -0.76433364211E+01  0.14268001806E+02  0.51100000000E-03 0.  1.
         12    1    3    3    0    0  0.78290345833E+01  0.20587401376E+02 -0.10874342784E+02  0.24563920878E+02  0.00000000000E+00 0. -1.
</event>
<event>
 7    1  0.3086024E-009  0.4614232E+02  0.7816164E-02  0.1320468E+00
        -11   -1    0    0    0    0  0.00000000000E+00  0.00000000000E+00  0.45593999997E+02  0.45594000000E+02  0.51100000000E-03 0.  1.
         11   -1    0    0    0    0 -0.00000000000E+00 -0.00000000000E+00 -0.45593999997E+02  0.45594000000E+02  0.51100000000E-03 0. -1.
    9900012    2    1    2    0    0 -0.23371842359E+02 -0.24578977542E+02  0.29643617291E+02  0.46142320980E+02  0.10000029355E+02 0.  0.
         12    1    1    2    0    0  0.23371842359E+02  0.24578977542E+02 -0.29643617291E+02  0.45045679020E+02  0.00000000000E+00 0. -1.
         11    1    3    3    0    0 -0.32351295041E+01 -0.35163541152E+01  0.33912200458E+00  0.47901788242E+01  0.51100000000E-03 0. -1.
        -11    1    3    3    0    0 -0.47785745376E+01 -0.56937671024E+01  0.80664128258E+01  0.10969082667E+02  0.51100000000E-03 0.  1.
         12    1    3    3    0    0 -0.15358138317E+02 -0.15368856324E+02  0.21238082461E+02  0.30383059489E+02  0.00000000000E+00 0. -1.
</event>
<event>
 7    1  0.3086024E-009  0.4614232E+02  0.7816164E-02  0.1320468E+00
        -11   -1    0    0    0    0  0.00000000000E+00  0.00000000000E+00  0.45593999997E+02  0.45594000000E+02  0.51100000000E-03 0.  1.
         11   -1    0    0    0    0 -0.00000000000E+00 -0.00000000000E+00 -0.45593999997E+02  0.45594000000E+02  0.51100000000E-03 0. -1.
    9900012    2    1    2    0    0 -0.35675828688E+02 -0.52581574346E+01  0.26994453788E+02  0.46142317549E+02  0.99999980640E+01 0.  0.
         12    1    1    2    0    0  0.35675828688E+02  0.52581574346E+01 -0.26994453788E+02  0.45045682451E+02  0.00000000000E+00 0. -1.
         11    1    3    3    0    0 -0.27664927320E+01 -0.33977967001E+01  0.39985942818E+01  0.59318851086E+01  0.51100000000E-03 0. -1.
        -11    1    3    3    0    0 -0.19320349725E+02 -0.16873946996E+01  0.13733973882E+02  0.23764369405E+02  0.51100000000E-03 0.  1.
         12    1    3    3    0    0 -0.13588986232E+02 -0.17296603497E+00  0.92618856241E+01  0.16446063036E+02  0.00000000000E+00 0. -1.
</event>
<event>
 7    1  0.3086024E-009  0.4614232E+02  0.7816164E-02  0.1320468E+00
        -11   -1    0    0    0    0  0.00000000000E+00  0.00000000000E+00  0.45593999997E+02  0.45594000000E+02  0.51100000000E-03 0.  1.
         11   -1    0    0    0    0 -0.00000000000E+00 -0.00000000000E+00 -0.45593999997E+02  0.45594000000E+02  0.51100000000E-03 0. -1.
    9900012    2    1    2    0    0  0.97077829171E+01  0.43342245759E+02 -0.75048091619E+01  0.46142317886E+02  0.10000001135E+02 0.  0.
         12    1    1    2    0    0 -0.97077829171E+01 -0.43342245759E+02  0.75048091619E+01  0.45045682114E+02  0.00000000000E+00 0. -1.
         11    1    3    3    0    0  0.41704127538E+01  0.81933722143E+01  0.20383275281E+00  0.91959359954E+01  0.51100000000E-03 0. -1.
        -11    1    3    3    0    0 -0.46368044864E+00  0.10422025423E+02 -0.26656537925E+00  0.10435740072E+02  0.51100000000E-03 0.  1.
        -12    1    3    3    0    0  0.60010506119E+01  0.24726848121E+02 -0.74420765354E+01  0.26510641818E+02  0.00000000000E+00 0.  1.
</event>
<event>
 7    1  0.3086024E-009  0.4614232E+02  0.7816164E-02  0.1320468E+00
        -11   -1    0    0    0    0  0.00000000000E+00  0.00000000000E+00  0.45593999997E+02  0.45594000000E+02  0.51100000000E-03 0.  1.
         11   -1    0    0    0    0 -0.00000000000E+00 -0.00000000000E+00 -0.45593999997E+02  0.45594000000E+02  0.51100000000E-03 0. -1.
    9900012    2    1    2    0    0  0.10736904032E+02 -0.25767201609E+02  0.35353694693E+02  0.46142317461E+02  0.99999972653E+01 0.  0.
         12    1    1    2    0    0 -0.10736904032E+02  0.25767201609E+02 -0.35353694693E+02  0.45045682539E+02  0.00000000000E+00 0. -1.
         11    1    3    3    0    0  0.97218533041E+01 -0.11715267753E+02  0.21107529504E+02  0.26024790724E+02  0.51100000000E-03 0. -1.
        -11    1    3    3    0    0  0.15114768055E+01 -0.11437997329E+02  0.11340768012E+02  0.16177928310E+02  0.51100000000E-03 0.  1.
         12    1    3    3    0    0 -0.49642607717E+00 -0.26139365272E+01  0.29053971763E+01  0.39395984275E+01  0.00000000000E+00 0. -1.
</event>
<event>
 7    1  0.3086024E-009  0.4614232E+02  0.7816164E-02  0.1320468E+00
        -11   -1    0    0    0    0  0.00000000000E+00  0.00000000000E+00  0.45593999997E+02  0.45594000000E+02  0.51100000000E-03 0. -1.
         11   -1    0    0    0    0 -0.00000000000E+00 -0.00000000000E+00 -0.45593999997E+02  0.45594000000E+02  0.51100000000E-03 0.  1.
    9900012    2    1    2    0    0  0.17715169949E+02 -0.24458908148E+02 -0.33422271369E+02  0.46142315883E+02  0.99999828726E+01 0.  0.
         12    1    1    2    0    0 -0.17715169949E+02  0.24458908148E+02  0.33422271369E+02  0.45045684117E+02  0.00000000000E+00 0. -1.
         11    1    3    3    0    0  0.29537725915E+01 -0.54602543015E+01 -0.25569485198E+01  0.67139508155E+01  0.51100000000E-03 0. -1.
        -11    1    3    3    0    0  0.26070796510E+01 -0.24266363842E+01 -0.23051704246E+01  0.42425510481E+01  0.51100000000E-03 0.  1.
         12    1    3    3    0    0  0.12154317706E+02 -0.16572017463E+02 -0.28560152425E+02  0.35185814019E+02  0.00000000000E+00 0. -1.
</event>
<event>
 7    1  0.3086024E-009  0.4614232E+02  0.7816164E-02  0.1320468E+00
        -11   -1    0    0    0    0  0.00000000000E+00  0.00000000000E+00  0.45593999997E+02  0.45594000000E+02  0.51100000000E-03 0.  1.
         11   -1    0    0    0    0 -0.00000000000E+00 -0.00000000000E+00 -0.45593999997E+02  0.45594000000E+02  0.51100000000E-03 0. -1.
    9900012    2    1    2    0    0 -0.24058434954E+02  0.23057352249E+02  0.30309464653E+02  0.46142318379E+02  0.10000005633E+02 0.  0.
         12    1    1    2    0    0  0.24058434954E+02 -0.23057352249E+02 -0.30309464653E+02  0.45045681621E+02  0.00000000000E+00 0. -1.
         11    1    3    3    0    0 -0.14825730466E+02  0.15057449415E+02  0.19411344548E+02  0.28693716458E+02  0.51100000000E-03 0. -1.
        -11    1    3    3    0    0 -0.15555604734E+01  0.31453577500E+01  0.64316821167E+01  0.73266348942E+01  0.51100000000E-03 0.  1.
         12    1    3    3    0    0 -0.76771440141E+01  0.48545450839E+01  0.44664379881E+01  0.10121967027E+02  0.00000000000E+00 0. -1.
</event>
<event>
 7    1  0.3086024E-009  0.4614232E+02  0.7816164E-02  0.1320468E+00
        -11   -1    0    0    0    0  0.00000000000E+00  0.00000000000E+00  0.45593999997E+02  0.45594000000E+02  0.51100000000E-03 0.  1.
         11   -1    0    0    0    0 -0.00000000000E+00 -0.00000000000E+00 -0.45593999997E+02  0.45594000000E+02  0.51100000000E-03 0. -1.
    9900012    2    1    2    0    0 -0.11189527482E+02  0.15856961704E+02  0.40650519778E+02  0.46142317432E+02  0.99999970034E+01 0.  0.
         12    1    1    2    0    0  0.11189527482E+02 -0.15856961704E+02 -0.40650519778E+02  0.45045682568E+02  0.00000000000E+00 0. -1.
         11    1    3    3    0    0 -0.12741867820E+01  0.97391818480E+01  0.21159605708E+02  0.23328183148E+02  0.51100000000E-03 0. -1.
        -11    1    3    3    0    0 -0.37004873872E+01  0.19673496941E+01  0.90599111245E+01  0.99822873915E+01  0.51100000000E-03 0.  1.
         12    1    3    3    0    0 -0.62148533127E+01  0.41504301621E+01  0.10431002946E+02  0.12831846893E+02  0.00000000000E+00 0. -1.
</event>
<event>
 7    1  0.3086024E-009  0.4614232E+02  0.7816164E-02  0.1320468E+00
        -11   -1    0    0    0    0  0.00000000000E+00  0.00000000000E+00  0.45593999997E+02  0.45594000000E+02  0.51100000000E-03 0. -1.
         11   -1    0    0    0    0 -0.00000000000E+00 -0.00000000000E+00 -0.45593999997E+02  0.45594000000E+02  0.51100000000E-03 0.  1.
    9900012    2    1    2    0    0 -0.17826447209E+02 -0.30567419803E+02 -0.27874076336E+02  0.46142317575E+02  0.99999983046E+01 0.  0.
         12    1    1    2    0    0  0.17826447209E+02  0.30567419803E+02  0.27874076336E+02  0.45045682425E+02  0.00000000000E+00 0. -1.
         11    1    3    3    0    0 -0.41469672501E+01 -0.12945361411E+02 -0.14168971926E+02  0.19635159412E+02  0.51100000000E-03 0. -1.
        -11    1    3    3    0    0 -0.94241369535E+01 -0.14894576815E+02 -0.10334407893E+02  0.20431905505E+02  0.51100000000E-03 0.  1.
         12    1    3    3    0    0 -0.42553430052E+01 -0.27274815773E+01 -0.33706965170E+01  0.60752526578E+01  0.00000000000E+00 0. -1.
</event>
<event>
 7    1  0.3086024E-009  0.4614232E+02  0.7816164E-02  0.1320468E+00
        -11   -1    0    0    0    0  0.00000000000E+00  0.00000000000E+00  0.45593999997E+02  0.45594000000E+02  0.51100000000E-03 0. -1.
         11   -1    0    0    0    0 -0.00000000000E+00 -0.00000000000E+00 -0.45593999997E+02  0.45594000000E+02  0.51100000000E-03 0.  1.
    9900012    2    1    2    0    0  0.27147665791E+02 -0.27795148859E+02 -0.22793581431E+02  0.46142318604E+02  0.10000007688E+02 0.  0.
         12    1    1    2    0    0 -0.27147665791E+02  0.27795148859E+02  0.22793581431E+02  0.45045681396E+02  0.00000000000E+00 0. -1.
         11    1    3    3    0    0  0.34605389620E+01 -0.21780452504E+01 -0.41320440874E+01  0.58131746595E+01  0.51100000000E-03 0. -1.
        -11    1    3    3    0    0  0.11338746678E+01 -0.41458719713E+01 -0.41491261787E+01  0.59740417200E+01  0.51100000000E-03 0.  1.
        -12    1    3    3    0    0  0.22553252161E+02 -0.21471231637E+02 -0.14512411164E+02  0.34355102225E+02  0.00000000000E+00 0.  1.
</event>
<event>
 7    1  0.3086024E-009  0.4614232E+02  0.7816164E-02  0.1320468E+00
        -11   -1    0    0    0    0  0.00000000000E+00  0.00000000000E+00  0.45593999997E+02  0.45594000000E+02  0.51100000000E-03 0.  1.
         11   -1    0    0    0    0 -0.00000000000E+00 -0.00000000000E+00 -0.45593999997E+02  0.45594000000E+02  0.51100000000E-03 0. -1.
    9900012    2    1    2    0    0  0.27309338703E+02  0.29911012154E+02  0.19714080433E+02  0.46142316569E+02  0.99999891306E+01 0.  0.
         12    1    1    2    0    0 -0.27309338703E+02 -0.29911012154E+02 -0.19714080433E+02  0.45045683431E+02  0.00000000000E+00 0. -1.
         11    1    3    3    0    0  0.14743686606E+02  0.19553531627E+02  0.13124358064E+02  0.27784270166E+02  0.51100000000E-03 0. -1.
        -11    1    3    3    0    0  0.13001969159E+02  0.97749210022E+01  0.57645827299E+01  0.17257772073E+02  0.51100000000E-03 0.  1.
         12    1    3    3    0    0 -0.43631706161E+00  0.58255952456E+00  0.82513963913E+00  0.11002743303E+01  0.00000000000E+00 0. -1.
</event>
<event>
 7    1  0.3086024E-009  0.4614232E+02  0.7816164E-02  0.1320468E+00
        -11   -1    0    0    0    0  0.00000000000E+00  0.00000000000E+00  0.45593999997E+02  0.45594000000E+02  0.51100000000E-03 0.  1.
         11   -1    0    0    0    0 -0.00000000000E+00 -0.00000000000E+00 -0.45593999997E+02  0.45594000000E+02  0.51100000000E-03 0. -1.
    9900012    2    1    2    0    0 -0.19227843647E+02  0.38213710646E+02  0.14110840349E+02  0.46142317987E+02  0.10000002063E+02 0.  0.
         12    1    1    2    0    0  0.19227843647E+02 -0.38213710646E+02 -0.14110840349E+02  0.45045682013E+02  0.00000000000E+00 0. -1.
         11    1    3    3    0    0 -0.11737881650E+01  0.10063543739E+02  0.32348357202E+01  0.10635640725E+02  0.51100000000E-03 0. -1.
        -11    1    3    3    0    0 -0.10404645915E+02  0.19070649829E+02  0.88735532718E+01  0.23466705978E+02  0.51100000000E-03 0.  1.
         12    1    3    3    0    0 -0.76494095667E+01  0.90795170775E+01  0.20024513572E+01  0.12039971284E+02  0.00000000000E+00 0. -1.
</event>
<event>
 7    1  0.3086024E-009  0.4614232E+02  0.7816164E-02  0.1320468E+00
        -11   -1    0    0    0    0  0.00000000000E+00  0.00000000000E+00  0.45593999997E+02  0.45594000000E+02  0.51100000000E-03 0. -1.
         11   -1    0    0    0    0 -0.00000000000E+00 -0.00000000000E+00 -0.45593999997E+02  0.45594000000E+02  0.51100000000E-03 0.  1.
    9900012    2    1    2    0    0  0.26200889281E+02 -0.30952197416E+02 -0.19610925690E+02  0.46142317294E+02  0.99999957438E+01 0.  0.
         12    1    1    2    0    0 -0.26200889281E+02  0.30952197416E+02  0.19610925690E+02  0.45045682706E+02  0.00000000000E+00 0. -1.
         11    1    3    3    0    0  0.50779924059E+01 -0.54021746918E+01 -0.97674420419E+00  0.74782035126E+01  0.51100000000E-03 0. -1.
        -11    1    3    3    0    0  0.12594697089E+02 -0.17348176178E+02 -0.15406074029E+02  0.26399483494E+02  0.51100000000E-03 0.  1.
        -12    1    3    3    0    0  0.85281997862E+01 -0.82018465456E+01 -0.32281074569E+01  0.12264630288E+02  0.00000000000E+00 0.  1.
</event>
<event>
 7    1  0.3086024E-009  0.4614232E+02  0.7816164E-02  0.1320468E+00
        -11   -1    0    0    0    0  0.00000000000E+00  0.00000000000E+00  0.45593999997E+02  0.45594000000E+02  0.51100000000E-03 0.  1.
         11   -1    0    0    0    0 -0.00000000000E+00 -0.00000000000E+00 -0.45593999997E+02  0.45594000000E+02  0.51100000000E-03 0. -1.
    9900012    2    1    2    0    0 -0.12330568149E+02  0.43212319011E+02 -0.31250619173E+01  0.46142318329E+02  0.10000005178E+02 0.  0.
         12    1    1    2    0    0  0.12330568149E+02 -0.43212319011E+02  0.31250619173E+01  0.45045681671E+02  0.00000000000E+00 0. -1.
         11    1    3    3    0    0 -0.52615492950E+01  0.92009454974E+01 -0.67723563286E+00  0.10620731961E+02  0.51100000000E-03 0. -1.
        -11    1    3    3    0    0 -0.79678361041E+01  0.23539063311E+02 -0.27763654082E+01  0.25005641741E+02  0.51100000000E-03 0.  1.
         12    1    3    3    0    0  0.89881724982E+00  0.10472310203E+02  0.32853912376E+00  0.10515944626E+02  0.00000000000E+00 0. -1.
</event>
<event>
 7    1  0.3086024E-009  0.4614232E+02  0.7816164E-02  0.1320468E+00
        -11   -1    0    0    0    0  0.00000000000E+00  0.00000000000E+00  0.45593999997E+02  0.45594000000E+02  0.51100000000E-03 0. -1.
         11   -1    0    0    0    0 -0.00000000000E+00 -0.00000000000E+00 -0.45593999997E+02  0.45594000000E+02  0.51100000000E-03 0.  1.
    9900012    2    1    2    0    0  0.29103665215E+02  0.20284985227E+02 -0.27759855701E+02  0.46142317153E+02  0.99999944550E+01 0.  0.
         12    1    1    2    0    0 -0.29103665215E+02 -0.20284985227E+02  0.27759855701E+02  0.45045682847E+02  0.00000000000E+00 0. -1.
         11    1    3    3    0    0  0.19307021180E+02  0.13853252673E+02 -0.16573993912E+02  0.28971899333E+02  0.51100000000E-03 0. -1.
        -11    1    3    3    0    0  0.79119405767E+01  0.74590972665E+01 -0.91338747849E+01  0.14200866332E+02  0.51100000000E-03 0.  1.
         12    1    3    3    0    0  0.18847034585E+01 -0.10273647132E+01 -0.20519870036E+01  0.29695514886E+01  0.00000000000E+00 0. -1.
</event>
<event>
 7    1  0.3086024E-009  0.4614232E+02  0.7816164E-02  0.1320468E+00
        -11   -1    0    0    0    0  0.00000000000E+00  0.00000000000E+00  0.45593999997E+02  0.45594000000E+02  0.51100000000E-03 0.  1.
         11   -1    0    0    0    0 -0.00000000000E+00 -0.00000000000E+00 -0.45593999997E+02  0.45594000000E+02  0.51100000000E-03 0. -1.
    9900012    2    1    2    0    0 -0.23705234307E+02  0.12944408054E+02  0.36050210378E+02  0.46142317613E+02  0.99999986516E+01 0.  0.
         12    1    1    2    0    0  0.23705234307E+02 -0.12944408054E+02 -0.36050210378E+02  0.45045682387E+02  0.00000000000E+00 0. -1.
         11    1    3    3    0    0 -0.10248693591E+02  0.58124188460E+01  0.10227280274E+02  0.15601833072E+02  0.51100000000E-03 0. -1.
        -11    1    3    3    0    0 -0.72029676876E+01  0.58143306888E+01  0.19318310766E+02  0.21421631964E+02  0.51100000000E-03 0.  1.
         12    1    3    3    0    0 -0.62535730285E+01  0.13176585196E+01  0.65046193379E+01  0.91188525774E+01  0.00000000000E+00 0. -1.
</event>
<event>
 7    1  0.3086024E-009  0.4614232E+02  0.7816164E-02  0.1320468E+00
        -11   -1    0    0    0    0  0.00000000000E+00  0.00000000000E+00  0.45593999997E+02  0.45594000000E+02  0.51100000000E-03 0. -1.
         11   -1    0    0    0    0 -0.00000000000E+00 -0.00000000000E+00 -0.45593999997E+02  0.45594000000E+02  0.51100000000E-03 0.  1.
    9900012    2    1    2    0    0 -0.19196483244E+02 -0.39676263910E+02  0.92953016612E+01  0.46142317413E+02  0.99999968275E+01 0.  0.
         12    1    1    2    0    0  0.19196483244E+02  0.39676263910E+02 -0.92953016612E+01  0.45045682587E+02  0.00000000000E+00 0. -1.
         11    1    3    3    0    0 -0.12439261789E+02 -0.15608096724E+02  0.29484582846E+01  0.20175265146E+02  0.51100000000E-03 0. -1.
        -11    1    3    3    0    0 -0.27258129716E+01 -0.11580904874E+02  0.44806215732E+01  0.12713118578E+02  0.51100000000E-03 0.  1.
         12    1    3    3    0    0 -0.40314084833E+01 -0.12487262312E+02  0.18662218035E+01  0.13253933689E+02  0.00000000000E+00 0. -1.
</event>
<event>
 7    1  0.3086024E-009  0.4614232E+02  0.7816164E-02  0.1320468E+00
        -11   -1    0    0    0    0  0.00000000000E+00  0.00000000000E+00  0.45593999997E+02  0.45594000000E+02  0.51100000000E-03 0.  1.
         11   -1    0    0    0    0 -0.00000000000E+00 -0.00000000000E+00 -0.45593999997E+02  0.45594000000E+02  0.51100000000E-03 0. -1.
    9900012    2    1    2    0    0  0.18296669124E+01  0.44788066187E+02 -0.44491480570E+01  0.46142317941E+02  0.10000001636E+02 0.  0.
         12    1    1    2    0    0 -0.18296669124E+01 -0.44788066187E+02  0.44491480570E+01  0.45045682059E+02  0.00000000000E+00 0. -1.
         11    1    3    3    0    0  0.21440472408E+00 -0.14673194293E+00 -0.26168024846E+00  0.36874986419E+00  0.51100000000E-03 0. -1.
        -11    1    3    3    0    0 -0.18151737392E+01  0.35082067355E+02 -0.37944013480E+01  0.35333324036E+02  0.51100000000E-03 0.  1.
        -12    1    3    3    0    0  0.34304359275E+01  0.98527307748E+01 -0.39306646054E+00  0.10440244040E+02  0.00000000000E+00 0.  1.
</event>
<event>
 7    1  0.3086024E-009  0.4614232E+02  0.7816164E-02  0.1320468E+00
        -11   -1    0    0    0    0  0.00000000000E+00  0.00000000000E+00  0.45593999997E+02  0.45594000000E+02  0.51100000000E-03 0.  1.
         11   -1    0    0    0    0 -0.00000000000E+00 -0.00000000000E+00 -0.45593999997E+02  0.45594000000E+02  0.51100000000E-03 0. -1.
    9900012    2    1    2    0    0  0.25488801486E+02 -0.20169695543E+02  0.31186821970E+02  0.46142317809E+02  0.10000000435E+02 0.  0.
         12    1    1    2    0    0 -0.25488801486E+02  0.20169695543E+02 -0.31186821970E+02  0.45045682191E+02  0.00000000000E+00 0. -1.
         11    1    3    3    0    0  0.48161847711E+01 -0.45131673973E+01  0.17264769225E+01  0.68223924345E+01  0.51100000000E-03 0. -1.
        -11    1    3    3    0    0  0.29981248563E+01 -0.21643107568E+01  0.30326458296E+01  0.47822520527E+01  0.51100000000E-03 0.  1.
         12    1    3    3    0    0  0.17674491858E+02 -0.13492217389E+02  0.26427699218E+02  0.34537673322E+02  0.00000000000E+00 0. -1.
</event>
<event>
 7    1  0.3086024E-009  0.4614232E+02  0.7816164E-02  0.1320468E+00
        -11   -1    0    0    0    0  0.00000000000E+00  0.00000000000E+00  0.45593999997E+02  0.45594000000E+02  0.51100000000E-03 0.  1.
         11   -1    0    0    0    0 -0.00000000000E+00 -0.00000000000E+00 -0.45593999997E+02  0.45594000000E+02  0.51100000000E-03 0. -1.
    9900012    2    1    2    0    0  0.17490382847E+02  0.19330064088E+01  0.41466413971E+02  0.46142317704E+02  0.99999994770E+01 0.  0.
         12    1    1    2    0    0 -0.17490382847E+02 -0.19330064088E+01 -0.41466413971E+02  0.45045682296E+02  0.00000000000E+00 0. -1.
         11    1    3    3    0    0  0.98582648159E+00  0.24348553782E+01  0.11624539400E+02  0.11917646206E+02  0.51100000000E-03 0. -1.
        -11    1    3    3    0    0  0.94694823299E+01  0.83254493477E+00  0.15241627142E+02  0.17963057225E+02  0.51100000000E-03 0.  1.
         12    1    3    3    0    0  0.70350740356E+01 -0.13343939042E+01  0.14600247429E+02  0.16261614273E+02  0.00000000000E+00 0. -1.
</event>
<event>
 7    1  0.3086024E-009  0.4614232E+02  0.7816164E-02  0.1320468E+00
        -11   -1    0    0    0    0  0.00000000000E+00  0.00000000000E+00  0.45593999997E+02  0.45594000000E+02  0.51100000000E-03 0.  1.
         11   -1    0    0    0    0 -0.00000000000E+00 -0.00000000000E+00 -0.45593999997E+02  0.45594000000E+02  0.51100000000E-03 0. -1.
    9900012    2    1    2    0    0  0.65172574976E+01 -0.43438416545E+02  0.99871305365E+01  0.46142318147E+02  0.10000003523E+02 0.  0.
         12    1    1    2    0    0 -0.65172574976E+01  0.43438416545E+02 -0.99871305365E+01  0.45045681853E+02  0.00000000000E+00 0. -1.
         11    1    3    3    0    0 -0.24626390238E+00 -0.44644719878E+00 -0.53314617689E+00  0.73770327230E+00  0.51100000000E-03 0. -1.
        -11    1    3    3    0    0  0.34743737419E+01 -0.63657830130E+01  0.39692065597E+00  0.72630580705E+01  0.51100000000E-03 0.  1.
        -12    1    3    3    0    0  0.32891476580E+01 -0.36626186333E+02  0.10123356057E+02  0.38141556805E+02  0.00000000000E+00 0.  1.
</event>
<event>
 7    1  0.3086024E-009  0.4614232E+02  0.7816164E-02  0.1320468E+00
        -11   -1    0    0    0    0  0.00000000000E+00  0.00000000000E+00  0.45593999997E+02  0.45594000000E+02  0.51100000000E-03 0.  1.
         11   -1    0    0    0    0 -0.00000000000E+00 -0.00000000000E+00 -0.45593999997E+02  0.45594000000E+02  0.51100000000E-03 0. -1.
    9900012    2    1    2    0    0 -0.21820636063E+02  0.18058818450E+02  0.35026454270E+02  0.46142316736E+02  0.99999906535E+01 0.  0.
         12    1    1    2    0    0  0.21820636063E+02 -0.18058818450E+02 -0.35026454270E+02  0.45045683264E+02  0.00000000000E+00 0. -1.
         11    1    3    3    0    0 -0.11185842131E+02  0.13794784376E+02  0.18618164401E+02  0.25730433072E+02  0.51100000000E-03 0.  1.
        -11    1    3    3    0    0  0.15079232096E+00  0.10252355899E+00  0.16728363278E+01  0.16827450921E+01  0.51100000000E-03 0. -1.
         12    1    3    3    0    0 -0.10785586253E+02  0.41615105147E+01  0.14735453541E+02  0.18729138572E+02  0.00000000000E+00 0. -1.
</event>
<event>
 7    1  0.3086024E-009  0.4614232E+02  0.7816164E-02  0.1320468E+00
        -11   -1    0    0    0    0  0.00000000000E+00  0.00000000000E+00  0.45593999997E+02  0.45594000000E+02  0.51100000000E-03 0. -1.
         11   -1    0    0    0    0 -0.00000000000E+00 -0.00000000000E+00 -0.45593999997E+02  0.45594000000E+02  0.51100000000E-03 0.  1.
    9900012    2    1    2    0    0 -0.16644002482E+02  0.27869185617E+02 -0.31231381791E+02  0.46142317253E+02  0.99999953630E+01 0.  0.
         12    1    1    2    0    0  0.16644002482E+02 -0.27869185617E+02  0.31231381791E+02  0.45045682747E+02  0.00000000000E+00 0. -1.
         11    1    3    3    0    0 -0.11594727603E+00  0.31467972361E+01 -0.15690882945E+01  0.35182118971E+01  0.51100000000E-03 0. -1.
        -11    1    3    3    0    0 -0.16909372408E+02  0.24842656450E+02 -0.28585511167E+02  0.41475485574E+02  0.51100000000E-03 0.  1.
         12    1    3    3    0    0  0.38131720116E+00 -0.12026806860E+00 -0.10767823296E+01  0.11486197811E+01  0.00000000000E+00 0. -1.
</event>
<event>
 7    1  0.3086024E-009  0.4614232E+02  0.7816164E-02  0.1320468E+00
        -11   -1    0    0    0    0  0.00000000000E+00  0.00000000000E+00  0.45593999997E+02  0.45594000000E+02  0.51100000000E-03 0.  1.
         11   -1    0    0    0    0 -0.00000000000E+00 -0.00000000000E+00 -0.45593999997E+02  0.45594000000E+02  0.51100000000E-03 0. -1.
    9900012    2    1    2    0    0  0.25247905323E+02 -0.67038051880E+01  0.36697624280E+02  0.46142319242E+02  0.10000013501E+02 0.  0.
         12    1    1    2    0    0 -0.25247905323E+02  0.67038051880E+01 -0.36697624280E+02  0.45045680758E+02  0.00000000000E+00 0. -1.
         11    1    3    3    0    0  0.21606261547E+02 -0.32299268261E+01  0.31812250043E+02  0.38591219447E+02  0.51100000000E-03 0. -1.
        -11    1    3    3    0    0  0.28143309620E+01 -0.96527774201E+00  0.17517027607E+01  0.34526341691E+01  0.51100000000E-03 0.  1.
         12    1    3    3    0    0  0.82731281338E+00 -0.25086006200E+01  0.31336714766E+01  0.40984656257E+01  0.00000000000E+00 0. -1.
</event>
<event>
 7    1  0.3086024E-009  0.4614232E+02  0.7816164E-02  0.1320468E+00
        -11   -1    0    0    0    0  0.00000000000E+00  0.00000000000E+00  0.45593999997E+02  0.45594000000E+02  0.51100000000E-03 0.  1.
         11   -1    0    0    0    0 -0.00000000000E+00 -0.00000000000E+00 -0.45593999997E+02  0.45594000000E+02  0.51100000000E-03 0. -1.
    9900012    2    1    2    0    0  0.66520289195E+01 -0.44083309473E+02 -0.64440559397E+01  0.46142317412E+02  0.99999968166E+01 0.  0.
         12    1    1    2    0    0 -0.66520289195E+01  0.44083309473E+02  0.64440559397E+01  0.45045682588E+02  0.00000000000E+00 0. -1.
         11    1    3    3    0    0  0.93215923846E+00 -0.41538466679E+01  0.14711213425E+01  0.45041715389E+01  0.51100000000E-03 0. -1.
        -11    1    3    3    0    0  0.60438390319E+01 -0.24301997212E+02 -0.28336749651E+01  0.25202078740E+02  0.51100000000E-03 0.  1.
        -12    1    3    3    0    0 -0.32396935087E+00 -0.15627465593E+02 -0.50815023172E+01  0.16436067133E+02  0.00000000000E+00 0.  1.
</event>
<event>
 7    1  0.3086024E-009  0.4614232E+02  0.7816164E-02  0.1320468E+00
        -11   -1    0    0    0    0  0.00000000000E+00  0.00000000000E+00  0.45593999997E+02  0.45594000000E+02  0.51100000000E-03 0.  1.
         11   -1    0    0    0    0 -0.00000000000E+00 -0.00000000000E+00 -0.45593999997E+02  0.45594000000E+02  0.51100000000E-03 0. -1.
    9900012    2    1    2    0    0  0.12607079148E+02  0.20458919428E+02  0.38099969308E+02  0.46142317742E+02  0.99999998265E+01 0.  0.
         12    1    1    2    0    0 -0.12607079148E+02 -0.20458919428E+02 -0.38099969308E+02  0.45045682258E+02  0.00000000000E+00 0. -1.
         11    1    3    3    0    0  0.43675397347E+01  0.98348270909E+01  0.22645266148E+02  0.25072042327E+02  0.51100000000E-03 0. -1.
        -11    1    3    3    0    0  0.32342065329E+01  0.59914033580E+01  0.10958452372E+02  0.12901344300E+02  0.51100000000E-03 0.  1.
         12    1    3    3    0    0  0.50053328806E+01  0.46326889790E+01  0.44962507877E+01  0.81689311154E+01  0.00000000000E+00 0. -1.
</event>
<event>
 7    1  0.3086024E-009  0.4614232E+02  0.7816164E-02  0.1320468E+00
        -11   -1    0    0    0    0  0.00000000000E+00  0.00000000000E+00  0.45593999997E+02  0.45594000000E+02  0.51100000000E-03 0.  1.
         11   -1    0    0    0    0 -0.00000000000E+00 -0.00000000000E+00 -0.45593999997E+02  0.45594000000E+02  0.51100000000E-03 0. -1.
    9900012    2    1    2    0    0  0.18884172223E+02  0.18408739958E+02  0.36518759455E+02  0.46142318081E+02  0.10000002920E+02 0.  0.
         12    1    1    2    0    0 -0.18884172223E+02 -0.18408739958E+02 -0.36518759455E+02  0.45045681919E+02  0.00000000000E+00 0. -1.
         11    1    3    3    0    0  0.17775678959E+01  0.33206490150E+01  0.11411804646E+02  0.12017310141E+02  0.51100000000E-03 0. -1.
        -11    1    3    3    0    0  0.10682540071E+02  0.11718327460E+02  0.17363539852E+02  0.23514429129E+02  0.51100000000E-03 0.  1.
         12    1    3    3    0    0  0.64240642555E+01  0.33697634836E+01  0.77434149576E+01  0.10610578811E+02  0.00000000000E+00 0. -1.
</event>
<event>
 7    1  0.3086024E-009  0.4614232E+02  0.7816164E-02  0.1320468E+00
        -11   -1    0    0    0    0  0.00000000000E+00  0.00000000000E+00  0.45593999997E+02  0.45594000000E+02  0.51100000000E-03 0.  1.
         11   -1    0    0    0    0 -0.00000000000E+00 -0.00000000000E+00 -0.45593999997E+02  0.45594000000E+02  0.51100000000E-03 0. -1.
    9900012    2    1    2    0    0 -0.74681650786E+01 -0.21907218851E+02  0.38644703909E+02  0.46142324651E+02  0.10000062827E+02 0.  0.
         12    1    1    2    0    0  0.74681650786E+01  0.21907218851E+02 -0.38644703909E+02  0.45045675349E+02  0.00000000000E+00 0. -1.
         11    1    3    3    0    0 -0.82640696820E+00 -0.41161194562E+01  0.10705957783E+02  0.11499692177E+02  0.51100000000E-03 0.  1.
        -11    1    3    3    0    0 -0.34997425679E+01 -0.10412864257E+02  0.94538603442E+01  0.14493150650E+02  0.51100000000E-03 0. -1.
         12    1    3    3    0    0 -0.31420155426E+01 -0.73782351377E+01  0.18484885782E+02  0.20149481824E+02  0.00000000000E+00 0. -1.
</event>
<event>
 7    1  0.3086024E-009  0.4614232E+02  0.7816164E-02  0.1320468E+00
        -11   -1    0    0    0    0  0.00000000000E+00  0.00000000000E+00  0.45593999997E+02  0.45594000000E+02  0.51100000000E-03 0.  1.
         11   -1    0    0    0    0 -0.00000000000E+00 -0.00000000000E+00 -0.45593999997E+02  0.45594000000E+02  0.51100000000E-03 0. -1.
    9900012    2    1    2    0    0  0.12665277575E+02  0.31469027152E+02  0.29637890473E+02  0.46142317880E+02  0.10000001086E+02 0.  0.
         12    1    1    2    0    0 -0.12665277575E+02 -0.31469027152E+02 -0.29637890473E+02  0.45045682120E+02  0.00000000000E+00 0. -1.
         11    1    3    3    0    0  0.11414991953E+00  0.46549167054E+01  0.72192956025E+01  0.85906640602E+01  0.51100000000E-03 0. -1.
        -11    1    3    3    0    0  0.31784282971E+01  0.64823121811E+01  0.26682270362E+01  0.76968963506E+01  0.51100000000E-03 0.  1.
        -12    1    3    3    0    0  0.93726993584E+01  0.20331798265E+02  0.19750367835E+02  0.29854757469E+02  0.00000000000E+00 0.  1.
</event>
<event>
 7    1  0.3086024E-009  0.4614232E+02  0.7816164E-02  0.1320468E+00
        -11   -1    0    0    0    0  0.00000000000E+00  0.00000000000E+00  0.45593999997E+02  0.45594000000E+02  0.51100000000E-03 0.  1.
         11   -1    0    0    0    0 -0.00000000000E+00 -0.00000000000E+00 -0.45593999997E+02  0.45594000000E+02  0.51100000000E-03 0. -1.
    9900012    2    1    2    0    0 -0.14221293491E+02 -0.35354443329E+02  0.24019402334E+02  0.46142317187E+02  0.99999947626E+01 0.  0.
         12    1    1    2    0    0  0.14221293491E+02  0.35354443329E+02 -0.24019402334E+02  0.45045682813E+02  0.00000000000E+00 0. -1.
         11    1    3    3    0    0 -0.23848233303E+01 -0.94320151088E+01  0.92685014927E+01  0.13437090887E+02  0.51100000000E-03 0. -1.
        -11    1    3    3    0    0 -0.19968323627E+01 -0.10469809054E+02  0.73512200401E+01  0.12947767277E+02  0.51100000000E-03 0.  1.
         12    1    3    3    0    0 -0.98396377983E+01 -0.15452619166E+02  0.73996808008E+01  0.19757459023E+02  0.00000000000E+00 0. -1.
</event>
<event>
 7    1  0.3086024E-009  0.4614232E+02  0.7816164E-02  0.1320468E+00
        -11   -1    0    0    0    0  0.00000000000E+00  0.00000000000E+00  0.45593999997E+02  0.45594000000E+02  0.51100000000E-03 0.  1.
         11   -1    0    0    0    0 -0.00000000000E+00 -0.00000000000E+00 -0.45593999997E+02  0.45594000000E+02  0.51100000000E-03 0. -1.
    9900012    2    1    2    0    0 -0.19436043364E+02 -0.39172936600E+01  0.40447599963E+02  0.46142319697E+02  0.10000017650E+02 0.  0.
         12    1    1    2    0    0  0.19436043364E+02  0.39172936600E+01 -0.40447599963E+02  0.45045680303E+02  0.00000000000E+00 0. -1.
         11    1    3    3    0    0 -0.34703679380E+01  0.13436203334E+00  0.14808249732E+02  0.15210054805E+02  0.51100000000E-03 0. -1.
        -11    1    3    3    0    0 -0.53501908418E+01 -0.35712975430E+01  0.72405331290E+01  0.96852479802E+01  0.51100000000E-03 0.  1.
        -12    1    3    3    0    0 -0.10615484584E+02 -0.48035815041E+00  0.18398817101E+02  0.21247016911E+02  0.00000000000E+00 0.  1.
</event>
<event>
 7    1  0.3086024E-009  0.4614232E+02  0.7816164E-02  0.1320468E+00
        -11   -1    0    0    0    0  0.00000000000E+00  0.00000000000E+00  0.45593999997E+02  0.45594000000E+02  0.51100000000E-03 0.  1.
         11   -1    0    0    0    0 -0.00000000000E+00 -0.00000000000E+00 -0.45593999997E+02  0.45594000000E+02  0.51100000000E-03 0. -1.
    9900012    2    1    2    0    0  0.18528972470E+02  0.78175707788E+01  0.40307272896E+02  0.46142317832E+02  0.10000000646E+02 0.  0.
         12    1    1    2    0    0 -0.18528972470E+02 -0.78175707788E+01 -0.40307272896E+02  0.45045682168E+02  0.00000000000E+00 0. -1.
         11    1    3    3    0    0  0.12021295761E+02  0.29306636923E+01  0.21939821503E+02  0.25188412203E+02  0.51100000000E-03 0.  1.
        -11    1    3    3    0    0  0.21149124981E+01  0.30669875880E+01  0.27551167800E+01  0.46335662801E+01  0.51100000000E-03 0. -1.
         12    1    3    3    0    0  0.43927642101E+01  0.18199194984E+01  0.15612334613E+02  0.16320339349E+02  0.00000000000E+00 0. -1.
</event>
<event>
 7    1  0.3086024E-009  0.4614232E+02  0.7816164E-02  0.1320468E+00
        -11   -1    0    0    0    0  0.00000000000E+00  0.00000000000E+00  0.45593999997E+02  0.45594000000E+02  0.51100000000E-03 0.  1.
         11   -1    0    0    0    0 -0.00000000000E+00 -0.00000000000E+00 -0.45593999997E+02  0.45594000000E+02  0.51100000000E-03 0. -1.
    9900012    2    1    2    0    0 -0.35104024599E+02 -0.81812612914E+01  0.27016427688E+02  0.46142323799E+02  0.10000055059E+02 0.  0.
         12    1    1    2    0    0  0.35104024599E+02  0.81812612914E+01 -0.27016427688E+02  0.45045676201E+02  0.00000000000E+00 0. -1.
         11    1    3    3    0    0 -0.12846941850E+01 -0.18769741075E+01  0.63274682869E-01  0.22754065342E+01  0.51100000000E-03 0. -1.
        -11    1    3    3    0    0 -0.96263545173E+01 -0.17685204746E+01  0.99062267017E+01  0.13925792390E+02  0.51100000000E-03 0.  1.
         12    1    3    3    0    0 -0.24192975897E+02 -0.45357667092E+01  0.17046926304E+02  0.29941124875E+02  0.00000000000E+00 0. -1.
</event>
<event>
 7    1  0.3086024E-009  0.4614232E+02  0.7816164E-02  0.1320468E+00
        -11   -1    0    0    0    0  0.00000000000E+00  0.00000000000E+00  0.45593999997E+02  0.45594000000E+02  0.51100000000E-03 0. -1.
         11   -1    0    0    0    0 -0.00000000000E+00 -0.00000000000E+00 -0.45593999997E+02  0.45594000000E+02  0.51100000000E-03 0.  1.
    9900012    2    1    2    0    0 -0.10015531495E+01  0.35501887243E+02 -0.27707874745E+02  0.46142318416E+02  0.10000005969E+02 0.  0.
         12    1    1    2    0    0  0.10015531495E+01 -0.35501887243E+02  0.27707874745E+02  0.45045681584E+02  0.00000000000E+00 0. -1.
         11    1    3    3    0    0  0.36239427198E+00 -0.16768971413E+00 -0.32207938225E-01  0.40060836361E+00  0.51100000000E-03 0. -1.
        -11    1    3    3    0    0  0.23217767116E+01  0.23801787480E+02 -0.19608934044E+02  0.30926138281E+02  0.51100000000E-03 0.  1.
        -12    1    3    3    0    0 -0.36857241331E+01  0.11867789477E+02 -0.80667327622E+01  0.14815571771E+02  0.00000000000E+00 0.  1.
</event>
<event>
 7    1  0.3086024E-009  0.4614232E+02  0.7816164E-02  0.1320468E+00
        -11   -1    0    0    0    0  0.00000000000E+00  0.00000000000E+00  0.45593999997E+02  0.45594000000E+02  0.51100000000E-03 0.  1.
         11   -1    0    0    0    0 -0.00000000000E+00 -0.00000000000E+00 -0.45593999997E+02  0.45594000000E+02  0.51100000000E-03 0. -1.
    9900012    2    1    2    0    0  0.35620088669E+02  0.83073046738E+01  0.26292806428E+02  0.46142315438E+02  0.99999788204E+01 0.  0.
         12    1    1    2    0    0 -0.35620088669E+02 -0.83073046738E+01 -0.26292806428E+02  0.45045684562E+02  0.00000000000E+00 0. -1.
         11    1    3    3    0    0  0.17997380749E+01 -0.60281970768E+00  0.94508988386E-01  0.19003633726E+01  0.51100000000E-03 0. -1.
        -11    1    3    3    0    0  0.15650840841E+02  0.74611660529E+01  0.14304452106E+02  0.22477436870E+02  0.51100000000E-03 0.  1.
        -12    1    3    3    0    0  0.18169509753E+02  0.14489583286E+01  0.11893845334E+02  0.21764515196E+02  0.00000000000E+00 0.  1.
</event>
<event>
 7    1  0.3086024E-009  0.4614232E+02  0.7816164E-02  0.1320468E+00
        -11   -1    0    0    0    0  0.00000000000E+00  0.00000000000E+00  0.45593999997E+02  0.45594000000E+02  0.51100000000E-03 0.  1.
         11   -1    0    0    0    0 -0.00000000000E+00 -0.00000000000E+00 -0.45593999997E+02  0.45594000000E+02  0.51100000000E-03 0. -1.
    9900012    2    1    2    0    0  0.79927595534E+01 -0.38617377871E+02  0.21769874643E+02  0.46142317401E+02  0.99999967118E+01 0.  0.
         12    1    1    2    0    0 -0.79927595534E+01  0.38617377871E+02 -0.21769874643E+02  0.45045682599E+02  0.00000000000E+00 0. -1.
         11    1    3    3    0    0 -0.17207906446E+01 -0.58088755676E+01  0.15994366762E+01  0.62659679016E+01  0.51100000000E-03 0. -1.
        -11    1    3    3    0    0  0.95764850421E+01 -0.31001743671E+02  0.18214127577E+02  0.37209832303E+02  0.51100000000E-03 0.  1.
        -12    1    3    3    0    0  0.13706515592E+00 -0.18067586324E+01  0.19563103904E+01  0.26665171960E+01  0.00000000000E+00 0.  1.
</event>
<event>
 7    1  0.3387267E-009  0.4614232E+02  0.7816164E-02  0.1320468E+00
        -11   -1    0    0    0    0  0.00000000000E+00  0.00000000000E+00  0.45593999997E+02  0.45594000000E+02  0.51100000000E-03 0. -1.
         11   -1    0    0    0    0 -0.00000000000E+00 -0.00000000000E+00 -0.45593999997E+02  0.45594000000E+02  0.51100000000E-03 0.  1.
    9900012    2    1    2    0    0  0.29542749200E+02  0.19415870831E+02 -0.27917081063E+02  0.46142317793E+02  0.10000000290E+02 0.  0.
         12    1    1    2    0    0 -0.29542749200E+02 -0.19415870831E+02  0.27917081063E+02  0.45045682207E+02  0.00000000000E+00 0. -1.
         11    1    3    3    0    0  0.28998910163E+01 -0.10496140100E+01 -0.26969453468E+01  0.40968978436E+01  0.51100000000E-03 0. -1.
        -11    1    3    3    0    0  0.18017961123E+02  0.12997511188E+02 -0.16041261209E+02  0.27402632748E+02  0.51100000000E-03 0.  1.
         12    1    3    3    0    0  0.86248970605E+01  0.74679736531E+01 -0.91788745074E+01  0.14642787201E+02  0.00000000000E+00 0. -1.
</event>
<event>
 7    1  0.3086024E-009  0.4614232E+02  0.7816164E-02  0.1320468E+00
        -11   -1    0    0    0    0  0.00000000000E+00  0.00000000000E+00  0.45593999997E+02  0.45594000000E+02  0.51100000000E-03 0.  1.
         11   -1    0    0    0    0 -0.00000000000E+00 -0.00000000000E+00 -0.45593999997E+02  0.45594000000E+02  0.51100000000E-03 0. -1.
    9900012    2    1    2    0    0  0.14812425596E+02  0.37549732134E+02  0.19993077536E+02  0.46142317801E+02  0.10000000367E+02 0.  0.
         12    1    1    2    0    0 -0.14812425596E+02 -0.37549732134E+02 -0.19993077536E+02  0.45045682199E+02  0.00000000000E+00 0. -1.
         11    1    3    3    0    0 -0.53284346929E+00  0.67026002013E+01  0.13250486932E+01  0.68530668989E+01  0.51100000000E-03 0. -1.
        -11    1    3    3    0    0  0.10976117116E+02  0.24607629502E+02  0.14174941054E+02  0.30445681645E+02  0.51100000000E-03 0.  1.
         12    1    3    3    0    0  0.43691519491E+01  0.62395024307E+01  0.44930877891E+01  0.88435692578E+01  0.00000000000E+00 0. -1.
</event>
<event>
 7    1  0.3086024E-009  0.4614232E+02  0.7816164E-02  0.1320468E+00
        -11   -1    0    0    0    0  0.00000000000E+00  0.00000000000E+00  0.45593999997E+02  0.45594000000E+02  0.51100000000E-03 0.  1.
         11   -1    0    0    0    0 -0.00000000000E+00 -0.00000000000E+00 -0.45593999997E+02  0.45594000000E+02  0.51100000000E-03 0. -1.
    9900012    2    1    2    0    0  0.30595515703E+01 -0.12832175538E+02  0.43070731304E+02  0.46142317855E+02  0.10000000852E+02 0.  0.
         12    1    1    2    0    0 -0.30595515703E+01  0.12832175538E+02 -0.43070731304E+02  0.45045682145E+02  0.00000000000E+00 0. -1.
         11    1    3    3    0    0 -0.20553867615E+01 -0.84111220780E+01  0.20668094826E+02  0.22408519213E+02  0.51100000000E-03 0. -1.
        -11    1    3    3    0    0  0.75953630734E+00 -0.31541993197E+01  0.10771682982E+02  0.11249667696E+02  0.51100000000E-03 0.  1.
         12    1    3    3    0    0  0.43554020245E+01 -0.12668541402E+01  0.11630953497E+02  0.12484130945E+02  0.00000000000E+00 0. -1.
</event>
<event>
 7    1  0.3086024E-009  0.4614232E+02  0.7816164E-02  0.1320468E+00
        -11   -1    0    0    0    0  0.00000000000E+00  0.00000000000E+00  0.45593999997E+02  0.45594000000E+02  0.51100000000E-03 0.  1.
         11   -1    0    0    0    0 -0.00000000000E+00 -0.00000000000E+00 -0.45593999997E+02  0.45594000000E+02  0.51100000000E-03 0. -1.
    9900012    2    1    2    0    0  0.41882129751E+02  0.11976199608E+02 -0.11470458106E+02  0.46142316980E+02  0.99999928798E+01 0.  0.
         12    1    1    2    0    0 -0.41882129751E+02 -0.11976199608E+02  0.11470458106E+02  0.45045683020E+02  0.00000000000E+00 0. -1.
         11    1    3    3    0    0  0.10778309579E+01 -0.44440150457E+00  0.96563744712E-01  0.11698448995E+01  0.51100000000E-03 0.  1.
        -11    1    3    3    0    0 -0.41525253680E+00  0.13996898879E+00 -0.16848639848E-01  0.43853178326E+00  0.51100000000E-03 0. -1.
        -12    1    3    3    0    0  0.41219551330E+02  0.12280632124E+02 -0.11550173210E+02  0.44533940298E+02  0.00000000000E+00 0.  1.
</event>
<event>
 7    1  0.3086024E-009  0.4614232E+02  0.7816164E-02  0.1320468E+00
        -11   -1    0    0    0    0  0.00000000000E+00  0.00000000000E+00  0.45593999997E+02  0.45594000000E+02  0.51100000000E-03 0. -1.
         11   -1    0    0    0    0 -0.00000000000E+00 -0.00000000000E+00 -0.45593999997E+02  0.45594000000E+02  0.51100000000E-03 0.  1.
    9900012    2    1    2    0    0 -0.39255745313E+02  0.21790791401E+02 -0.36416146499E+01  0.46142317774E+02  0.10000000117E+02 0.  0.
         12    1    1    2    0    0  0.39255745313E+02 -0.21790791401E+02  0.36416146499E+01  0.45045682226E+02  0.00000000000E+00 0. -1.
         11    1    3    3    0    0 -0.13694897333E+02  0.90849536475E+01 -0.54353417089E+01  0.17309810383E+02  0.51100000000E-03 0. -1.
        -11    1    3    3    0    0 -0.10864461781E+02  0.42634973185E+01 -0.74473767773E+00  0.11694809688E+02  0.51100000000E-03 0.  1.
         12    1    3    3    0    0 -0.14696386200E+02  0.84423404347E+01  0.25384647368E+01  0.17137697703E+02  0.00000000000E+00 0. -1.
</event>
<event>
 7    1  0.3086024E-009  0.4614232E+02  0.7816164E-02  0.1320468E+00
        -11   -1    0    0    0    0  0.00000000000E+00  0.00000000000E+00  0.45593999997E+02  0.45594000000E+02  0.51100000000E-03 0.  1.
         11   -1    0    0    0    0 -0.00000000000E+00 -0.00000000000E+00 -0.45593999997E+02  0.45594000000E+02  0.51100000000E-03 0. -1.
    9900012    2    1    2    0    0 -0.18848481476E+02 -0.69315699760E+00  0.40906817964E+02  0.46142317892E+02  0.10000001198E+02 0.  0.
         12    1    1    2    0    0  0.18848481476E+02  0.69315699760E+00 -0.40906817964E+02  0.45045682108E+02  0.00000000000E+00 0. -1.
         11    1    3    3    0    0 -0.62957015179E+01 -0.21142777263E+01  0.81444466617E+01  0.10508950452E+02  0.51100000000E-03 0. -1.
        -11    1    3    3    0    0 -0.10588516499E+02 -0.12470800890E+01  0.23831186199E+02  0.26107418990E+02  0.51100000000E-03 0.  1.
        -12    1    3    3    0    0 -0.19642634591E+01  0.26682008178E+01  0.89311851029E+01  0.95259484506E+01  0.00000000000E+00 0.  1.
</event>
<event>
 7    1  0.3086024E-009  0.4614232E+02  0.7816164E-02  0.1320468E+00
        -11   -1    0    0    0    0  0.00000000000E+00  0.00000000000E+00  0.45593999997E+02  0.45594000000E+02  0.51100000000E-03 0. -1.
         11   -1    0    0    0    0 -0.00000000000E+00 -0.00000000000E+00 -0.45593999997E+02  0.45594000000E+02  0.51100000000E-03 0.  1.
    9900012    2    1    2    0    0 -0.11335967574E+02 -0.23611268945E+02 -0.36648565794E+02  0.46142317002E+02  0.99999930760E+01 0.  0.
         12    1    1    2    0    0  0.11335967574E+02  0.23611268945E+02  0.36648565794E+02  0.45045682998E+02  0.00000000000E+00 0. -1.
         11    1    3    3    0    0 -0.33531054588E+00  0.60528366165E+00 -0.86954643661E+00  0.11112662776E+01  0.51100000000E-03 0. -1.
        -11    1    3    3    0    0 -0.96879238481E+01 -0.20876930260E+02 -0.26595312356E+02  0.35171191694E+02  0.51100000000E-03 0.  1.
         12    1    3    3    0    0 -0.13127331796E+01 -0.33396223466E+01 -0.91837070013E+01  0.98598590307E+01  0.00000000000E+00 0. -1.
</event>
<event>
 7    1  0.3086024E-009  0.4614232E+02  0.7816164E-02  0.1320468E+00
        -11   -1    0    0    0    0  0.00000000000E+00  0.00000000000E+00  0.45593999997E+02  0.45594000000E+02  0.51100000000E-03 0. -1.
         11   -1    0    0    0    0 -0.00000000000E+00 -0.00000000000E+00 -0.45593999997E+02  0.45594000000E+02  0.51100000000E-03 0.  1.
    9900012    2    1    2    0    0  0.43946134969E+02 -0.83154620876E+01 -0.53575913545E+01  0.46142317926E+02  0.10000001501E+02 0.  0.
         12    1    1    2    0    0 -0.43946134969E+02  0.83154620876E+01  0.53575913545E+01  0.45045682074E+02  0.00000000000E+00 0. -1.
         11    1    3    3    0    0  0.13121336094E+02 -0.55300693884E+01 -0.15620737621E+01  0.14324496607E+02  0.51100000000E-03 0. -1.
        -11    1    3    3    0    0  0.11049899812E+02 -0.35205673761E+01 -0.31559388604E+01  0.12018928024E+02  0.51100000000E-03 0.  1.
         12    1    3    3    0    0  0.19774899063E+02  0.73517467684E+00 -0.63957873207E+00  0.19798893295E+02  0.00000000000E+00 0. -1.
</event>
<event>
 7    1  0.3086024E-009  0.4614232E+02  0.7816164E-02  0.1320468E+00
        -11   -1    0    0    0    0  0.00000000000E+00  0.00000000000E+00  0.45593999997E+02  0.45594000000E+02  0.51100000000E-03 0.  1.
         11   -1    0    0    0    0 -0.00000000000E+00 -0.00000000000E+00 -0.45593999997E+02  0.45594000000E+02  0.51100000000E-03 0. -1.
    9900012    2    1    2    0    0  0.11331230454E+02 -0.32328219324E+02  0.29250693140E+02  0.46142316550E+02  0.99999889606E+01 0.  0.
         12    1    1    2    0    0 -0.11331230454E+02  0.32328219324E+02 -0.29250693140E+02  0.45045683450E+02  0.00000000000E+00 0. -1.
         11    1    3    3    0    0  0.64969341420E+01 -0.13868892712E+02  0.87082674689E+01  0.17617896040E+02  0.51100000000E-03 0. -1.
        -11    1    3    3    0    0  0.44046378096E+01 -0.12083790452E+02  0.16661756104E+02  0.21048347742E+02  0.51100000000E-03 0.  1.
        -12    1    3    3    0    0  0.42965850226E+00 -0.63755361602E+01  0.38806695669E+01  0.74760727689E+01  0.00000000000E+00 0.  1.
</event>
<event>
 7    1  0.3086024E-009  0.4614232E+02  0.7816164E-02  0.1320468E+00
        -11   -1    0    0    0    0  0.00000000000E+00  0.00000000000E+00  0.45593999997E+02  0.45594000000E+02  0.51100000000E-03 0.  1.
         11   -1    0    0    0    0 -0.00000000000E+00 -0.00000000000E+00 -0.45593999997E+02  0.45594000000E+02  0.51100000000E-03 0. -1.
    9900012    2    1    2    0    0  0.29156265913E+02  0.60350181612E+01  0.33802429616E+02  0.46142317253E+02  0.99999953673E+01 0.  0.
         12    1    1    2    0    0 -0.29156265913E+02 -0.60350181612E+01 -0.33802429616E+02  0.45045682747E+02  0.00000000000E+00 0. -1.
         11    1    3    3    0    0  0.10458661206E+02 -0.54239603320E+00  0.67750191078E+01  0.12473117969E+02  0.51100000000E-03 0. -1.
        -11    1    3    3    0    0  0.16981779335E+02  0.48933975525E+01  0.23665710332E+02  0.29536283022E+02  0.51100000000E-03 0.  1.
         12    1    3    3    0    0  0.17158253717E+01  0.16840166419E+01  0.33617001762E+01  0.41329162623E+01  0.00000000000E+00 0. -1.
</event>
<event>
 7    1  0.3086024E-009  0.4614232E+02  0.7816164E-02  0.1320468E+00
        -11   -1    0    0    0    0  0.00000000000E+00  0.00000000000E+00  0.45593999997E+02  0.45594000000E+02  0.51100000000E-03 0.  1.
         11   -1    0    0    0    0 -0.00000000000E+00 -0.00000000000E+00 -0.45593999997E+02  0.45594000000E+02  0.51100000000E-03 0. -1.
    9900012    2    1    2    0    0 -0.22395529484E+02  0.37477652167E+02  0.11089606922E+02  0.46142317249E+02  0.99999953326E+01 0.  0.
         12    1    1    2    0    0  0.22395529484E+02 -0.37477652167E+02 -0.11089606922E+02  0.45045682751E+02  0.00000000000E+00 0. -1.
         11    1    3    3    0    0  0.65346372395E+00  0.16983361057E+00  0.19511110895E+00  0.70279933107E+00  0.51100000000E-03 0. -1.
        -11    1    3    3    0    0 -0.19080673666E+02  0.33109519696E+02  0.82915468199E+01  0.39103224304E+02  0.51100000000E-03 0.  1.
        -12    1    3    3    0    0 -0.39683195416E+01  0.41982988607E+01  0.26029489927E+01  0.63362936143E+01  0.00000000000E+00 0.  1.
</event>
<event>
 7    1  0.3086024E-009  0.4614232E+02  0.7816164E-02  0.1320468E+00
        -11   -1    0    0    0    0  0.00000000000E+00  0.00000000000E+00  0.45593999997E+02  0.45594000000E+02  0.51100000000E-03 0. -1.
         11   -1    0    0    0    0 -0.00000000000E+00 -0.00000000000E+00 -0.45593999997E+02  0.45594000000E+02  0.51100000000E-03 0.  1.
    9900012    2    1    2    0    0  0.17214896536E+02 -0.39730095918E+02  0.12420963328E+02  0.46142317472E+02  0.99999973661E+01 0.  0.
         12    1    1    2    0    0 -0.17214896536E+02  0.39730095918E+02 -0.12420963328E+02  0.45045682528E+02  0.00000000000E+00 0. -1.
         11    1    3    3    0    0  0.33807614224E+01 -0.32469195066E+01  0.11863764646E+01  0.48352376834E+01  0.51100000000E-03 0. -1.
        -11    1    3    3    0    0  0.10078199124E+02 -0.16068800197E+02  0.60986293872E+01  0.19924098926E+02  0.51100000000E-03 0.  1.
        -12    1    3    3    0    0  0.37559359894E+01 -0.20414376215E+02  0.51359574763E+01  0.21382980863E+02  0.00000000000E+00 0.  1.
</event>
<event>
 7    1  0.3086024E-009  0.4614232E+02  0.7816164E-02  0.1320468E+00
        -11   -1    0    0    0    0  0.00000000000E+00  0.00000000000E+00  0.45593999997E+02  0.45594000000E+02  0.51100000000E-03 0. -1.
         11   -1    0    0    0    0 -0.00000000000E+00 -0.00000000000E+00 -0.45593999997E+02  0.45594000000E+02  0.51100000000E-03 0.  1.
    9900012    2    1    2    0    0  0.11980586481E+02 -0.33118436700E+02 -0.28084660812E+02  0.46142317912E+02  0.10000001377E+02 0.  0.
         12    1    1    2    0    0 -0.11980586481E+02  0.33118436700E+02  0.28084660812E+02  0.45045682088E+02  0.00000000000E+00 0. -1.
         11    1    3    3    0    0  0.50801878288E+01 -0.97495888059E+01 -0.12203706263E+02  0.16425383925E+02  0.51100000000E-03 0. -1.
        -11    1    3    3    0    0  0.65228540530E+01 -0.15839356288E+02 -0.13502473121E+02  0.21811685246E+02  0.51100000000E-03 0.  1.
        -12    1    3    3    0    0  0.37754459893E+00 -0.75294916056E+01 -0.23784814278E+01  0.79052487415E+01  0.00000000000E+00 0.  1.
</event>
<event>
 7    1  0.3086024E-009  0.4614232E+02  0.7816164E-02  0.1320468E+00
        -11   -1    0    0    0    0  0.00000000000E+00  0.00000000000E+00  0.45593999997E+02  0.45594000000E+02  0.51100000000E-03 0.  1.
         11   -1    0    0    0    0 -0.00000000000E+00 -0.00000000000E+00 -0.45593999997E+02  0.45594000000E+02  0.51100000000E-03 0. -1.
    9900012    2    1    2    0    0  0.22517296922E+00  0.27982684159E+02  0.35299183611E+02  0.46142315643E+02  0.99999806827E+01 0.  0.
         12    1    1    2    0    0 -0.22517296922E+00 -0.27982684159E+02 -0.35299183611E+02  0.45045684357E+02  0.00000000000E+00 0. -1.
         11    1    3    3    0    0 -0.15582819734E+01  0.14809324044E+01  0.13453279186E+01  0.25360029504E+01  0.51100000000E-03 0. -1.
        -11    1    3    3    0    0  0.17770829028E+01  0.20401681428E+02  0.21239232458E+02  0.29504095044E+02  0.51100000000E-03 0.  1.
         12    1    3    3    0    0  0.63720397657E-02  0.61000703272E+01  0.12714623234E+02  0.14102217648E+02  0.00000000000E+00 0. -1.
</event>
<event>
 7    1  0.3086024E-009  0.4614232E+02  0.7816164E-02  0.1320468E+00
        -11   -1    0    0    0    0  0.00000000000E+00  0.00000000000E+00  0.45593999997E+02  0.45594000000E+02  0.51100000000E-03 0.  1.
         11   -1    0    0    0    0 -0.00000000000E+00 -0.00000000000E+00 -0.45593999997E+02  0.45594000000E+02  0.51100000000E-03 0. -1.
    9900012    2    1    2    0    0 -0.17724240173E+02  0.27260599493E+02  0.31174099709E+02  0.46142317997E+02  0.10000002152E+02 0.  0.
         12    1    1    2    0    0  0.17724240173E+02 -0.27260599493E+02 -0.31174099709E+02  0.45045682003E+02  0.00000000000E+00 0. -1.
         11    1    3    3    0    0 -0.84990438836E+01  0.69292097530E+01  0.11147979279E+02  0.15637299543E+02  0.51100000000E-03 0. -1.
        -11    1    3    3    0    0 -0.90403965299E+01  0.13948017927E+02  0.14704538804E+02  0.22192328296E+02  0.51100000000E-03 0.  1.
        -12    1    3    3    0    0 -0.18479976002E+00  0.63833718132E+01  0.53215816259E+01  0.83126901577E+01  0.00000000000E+00 0.  1.
</event>
<event>
 7    1  0.3086024E-009  0.4614232E+02  0.7816164E-02  0.1320468E+00
        -11   -1    0    0    0    0  0.00000000000E+00  0.00000000000E+00  0.45593999997E+02  0.45594000000E+02  0.51100000000E-03 0. -1.
         11   -1    0    0    0    0 -0.00000000000E+00 -0.00000000000E+00 -0.45593999997E+02  0.45594000000E+02  0.51100000000E-03 0.  1.
    9900012    2    1    2    0    0 -0.42701133720E+02  0.14318599342E+02 -0.83925826271E+00  0.46142318049E+02  0.10000002621E+02 0.  0.
         12    1    1    2    0    0  0.42701133720E+02 -0.14318599342E+02  0.83925826271E+00  0.45045681951E+02  0.00000000000E+00 0. -1.
         11    1    3    3    0    0 -0.20731960882E+02  0.92932857520E+01  0.32600933483E+01  0.22952289014E+02  0.51100000000E-03 0. -1.
        -11    1    3    3    0    0 -0.18401064469E+02  0.43113179131E+01 -0.20407657950E+01  0.19009244094E+02  0.51100000000E-03 0.  1.
         12    1    3    3    0    0 -0.35681083682E+01  0.71399567657E+00 -0.20585858160E+01  0.41807849401E+01  0.00000000000E+00 0. -1.
</event>
<event>
 7    1  0.3086024E-009  0.4614232E+02  0.7816164E-02  0.1320468E+00
        -11   -1    0    0    0    0  0.00000000000E+00  0.00000000000E+00  0.45593999997E+02  0.45594000000E+02  0.51100000000E-03 0.  1.
         11   -1    0    0    0    0 -0.00000000000E+00 -0.00000000000E+00 -0.45593999997E+02  0.45594000000E+02  0.51100000000E-03 0. -1.
    9900012    2    1    2    0    0 -0.12517750442E+02  0.42774902326E+02  0.65365908541E+01  0.46142319129E+02  0.10000012472E+02 0.  0.
         12    1    1    2    0    0  0.12517750442E+02 -0.42774902326E+02 -0.65365908541E+01  0.45045680871E+02  0.00000000000E+00 0. -1.
         11    1    3    3    0    0 -0.41078844138E+01  0.25759552577E+02  0.40314495727E+01  0.26394731468E+02  0.51100000000E-03 0. -1.
        -11    1    3    3    0    0 -0.82129128228E+01  0.14913377069E+02  0.81774471761E+00  0.17044924738E+02  0.51100000000E-03 0.  1.
         12    1    3    3    0    0 -0.19695320513E+00  0.21019726805E+01  0.16873965638E+01  0.27026629235E+01  0.00000000000E+00 0. -1.
</event>
<event>
 7    1  0.3086024E-009  0.4614232E+02  0.7816164E-02  0.1320468E+00
        -11   -1    0    0    0    0  0.00000000000E+00  0.00000000000E+00  0.45593999997E+02  0.45594000000E+02  0.51100000000E-03 0.  1.
         11   -1    0    0    0    0 -0.00000000000E+00 -0.00000000000E+00 -0.45593999997E+02  0.45594000000E+02  0.51100000000E-03 0. -1.
    9900012    2    1    2    0    0 -0.31621342853E+02 -0.27494867418E+02  0.16529866637E+02  0.46142317086E+02  0.99999938467E+01 0.  0.
         12    1    1    2    0    0  0.31621342853E+02  0.27494867418E+02 -0.16529866637E+02  0.45045682914E+02  0.00000000000E+00 0. -1.
         11    1    3    3    0    0 -0.11244070815E+02 -0.11668489746E+02  0.15185993216E+01  0.16275408615E+02  0.51100000000E-03 0. -1.
        -11    1    3    3    0    0 -0.90038814959E+01 -0.64851992603E+01  0.67822825760E+01  0.13004885568E+02  0.51100000000E-03 0.  1.
         12    1    3    3    0    0 -0.11373390542E+02 -0.93411784121E+01  0.82289847391E+01  0.16862022903E+02  0.00000000000E+00 0. -1.
</event>
<event>
 7    1  0.3086024E-009  0.4614232E+02  0.7816164E-02  0.1320468E+00
        -11   -1    0    0    0    0  0.00000000000E+00  0.00000000000E+00  0.45593999997E+02  0.45594000000E+02  0.51100000000E-03 0.  1.
         11   -1    0    0    0    0 -0.00000000000E+00 -0.00000000000E+00 -0.45593999997E+02  0.45594000000E+02  0.51100000000E-03 0. -1.
    9900012    2    1    2    0    0  0.18906447486E+02  0.35055545821E+02  0.21042064723E+02  0.46142317220E+02  0.99999950623E+01 0.  0.
         12    1    1    2    0    0 -0.18906447486E+02 -0.35055545821E+02 -0.21042064723E+02  0.45045682780E+02  0.00000000000E+00 0. -1.
         11    1    3    3    0    0  0.19621235069E+01  0.92002449688E-01  0.65996588641E+00  0.20721844367E+01  0.51100000000E-03 0. -1.
        -11    1    3    3    0    0  0.69384747634E+01  0.18176916788E+02  0.88042673730E+01  0.21355511237E+02  0.51100000000E-03 0.  1.
        -12    1    3    3    0    0  0.10005849215E+02  0.16786626583E+02  0.11577831464E+02  0.22714621546E+02  0.00000000000E+00 0.  1.
</event>
<event>
 7    1  0.3086024E-009  0.4614232E+02  0.7816164E-02  0.1320468E+00
        -11   -1    0    0    0    0  0.00000000000E+00  0.00000000000E+00  0.45593999997E+02  0.45594000000E+02  0.51100000000E-03 0.  1.
         11   -1    0    0    0    0 -0.00000000000E+00 -0.00000000000E+00 -0.45593999997E+02  0.45594000000E+02  0.51100000000E-03 0. -1.
    9900012    2    1    2    0    0 -0.38172213461E+02  0.57557547918E+01  0.23213506984E+02  0.46142317630E+02  0.99999988003E+01 0.  0.
         12    1    1    2    0    0  0.38172213461E+02 -0.57557547918E+01 -0.23213506984E+02  0.45045682370E+02  0.00000000000E+00 0. -1.
         11    1    3    3    0    0 -0.25516985648E+02  0.60529286327E+01  0.14024994973E+02  0.29739787925E+02  0.51100000000E-03 0. -1.
        -11    1    3    3    0    0 -0.58444489185E+01 -0.78041995805E+00  0.14296961812E+01  0.60671797322E+01  0.51100000000E-03 0.  1.
         12    1    3    3    0    0 -0.68107788943E+01  0.48324611714E+00  0.77588158305E+01  0.10335349972E+02  0.00000000000E+00 0. -1.
</event>
<event>
 7    1  0.3086024E-009  0.4614232E+02  0.7816164E-02  0.1320468E+00
        -11   -1    0    0    0    0  0.00000000000E+00  0.00000000000E+00  0.45593999997E+02  0.45594000000E+02  0.51100000000E-03 0.  1.
         11   -1    0    0    0    0 -0.00000000000E+00 -0.00000000000E+00 -0.45593999997E+02  0.45594000000E+02  0.51100000000E-03 0. -1.
    9900012    2    1    2    0    0 -0.15117702302E+02 -0.12445087124E+02  0.40567085184E+02  0.46142317446E+02  0.99999971281E+01 0.  0.
         12    1    1    2    0    0  0.15117702302E+02  0.12445087124E+02 -0.40567085184E+02  0.45045682554E+02  0.00000000000E+00 0. -1.
         11    1    3    3    0    0 -0.86701604381E+01 -0.65900126553E+01  0.32169233096E+02  0.33962619261E+02  0.51100000000E-03 0. -1.
        -11    1    3    3    0    0 -0.40360747143E+01 -0.36385138865E+01  0.61520218456E+01  0.82082918718E+01  0.51100000000E-03 0.  1.
         12    1    3    3    0    0 -0.24114671493E+01 -0.22165605825E+01  0.22458302422E+01  0.39714063133E+01  0.00000000000E+00 0. -1.
</event>
<event>
 7    1  0.3086024E-009  0.4614232E+02  0.7816164E-02  0.1320468E+00
        -11   -1    0    0    0    0  0.00000000000E+00  0.00000000000E+00  0.45593999997E+02  0.45594000000E+02  0.51100000000E-03 0.  1.
         11   -1    0    0    0    0 -0.00000000000E+00 -0.00000000000E+00 -0.45593999997E+02  0.45594000000E+02  0.51100000000E-03 0. -1.
    9900012    2    1    2    0    0  0.21196476826E+02  0.24176540789E+02  0.31548656794E+02  0.46142317633E+02  0.99999988359E+01 0.  0.
         12    1    1    2    0    0 -0.21196476826E+02 -0.24176540789E+02 -0.31548656794E+02  0.45045682367E+02  0.00000000000E+00 0. -1.
         11    1    3    3    0    0  0.10933922030E+02  0.15282392056E+02  0.19757021227E+02  0.27266133681E+02  0.51100000000E-03 0. -1.
        -11    1    3    3    0    0  0.10112682640E+02  0.81914889761E+01  0.12369090463E+02  0.17954421209E+02  0.51100000000E-03 0.  1.
         12    1    3    3    0    0  0.14987215564E+00  0.70265975701E+00 -0.57745489563E+00  0.92176274259E+00  0.00000000000E+00 0. -1.
</event>
<event>
 7    1  0.3086024E-009  0.4614232E+02  0.7816164E-02  0.1320468E+00
        -11   -1    0    0    0    0  0.00000000000E+00  0.00000000000E+00  0.45593999997E+02  0.45594000000E+02  0.51100000000E-03 0.  1.
         11   -1    0    0    0    0 -0.00000000000E+00 -0.00000000000E+00 -0.45593999997E+02  0.45594000000E+02  0.51100000000E-03 0. -1.
    9900012    2    1    2    0    0  0.71555844750E+01 -0.18773562792E+02  0.40317048682E+02  0.46142318037E+02  0.10000002519E+02 0.  0.
         12    1    1    2    0    0 -0.71555844750E+01  0.18773562792E+02 -0.40317048682E+02  0.45045681963E+02  0.00000000000E+00 0. -1.
         11    1    3    3    0    0  0.12818025296E+01 -0.12780516385E+01  0.89829308768E+01  0.91634862970E+01  0.51100000000E-03 0. -1.
        -11    1    3    3    0    0  0.61686643036E+01 -0.17851502372E+02  0.31242105458E+02  0.36507502105E+02  0.51100000000E-03 0.  1.
        -12    1    3    3    0    0 -0.29488235825E+00  0.35599121868E+00  0.92012346348E-01  0.47132963503E+00  0.00000000000E+00 0.  1.
</event>
<event>
 7    1  0.3086024E-009  0.4614232E+02  0.7816164E-02  0.1320468E+00
        -11   -1    0    0    0    0  0.00000000000E+00  0.00000000000E+00  0.45593999997E+02  0.45594000000E+02  0.51100000000E-03 0.  1.
         11   -1    0    0    0    0 -0.00000000000E+00 -0.00000000000E+00 -0.45593999997E+02  0.45594000000E+02  0.51100000000E-03 0. -1.
    9900012    2    1    2    0    0 -0.38535040915E+02 -0.21794497711E+02 -0.83164997311E+01  0.46142315672E+02  0.99999809498E+01 0.  0.
         12    1    1    2    0    0  0.38535040915E+02  0.21794497711E+02  0.83164997311E+01  0.45045684328E+02  0.00000000000E+00 0. -1.
         11    1    3    3    0    0 -0.94689248657E+01 -0.24638514854E+01 -0.19858579943E+01  0.99837234782E+01  0.51100000000E-03 0. -1.
        -11    1    3    3    0    0 -0.10699150443E+02 -0.36282597456E+01 -0.35098887291E+01  0.11830275066E+02  0.51100000000E-03 0.  1.
        -12    1    3    3    0    0 -0.18366965607E+02 -0.15702386480E+02 -0.28207530078E+01  0.24328317128E+02  0.00000000000E+00 0.  1.
</event>
<event>
 7    1  0.3086024E-009  0.4614232E+02  0.7816164E-02  0.1320468E+00
        -11   -1    0    0    0    0  0.00000000000E+00  0.00000000000E+00  0.45593999997E+02  0.45594000000E+02  0.51100000000E-03 0. -1.
         11   -1    0    0    0    0 -0.00000000000E+00 -0.00000000000E+00 -0.45593999997E+02  0.45594000000E+02  0.51100000000E-03 0.  1.
    9900012    2    1    2    0    0 -0.33013453022E+02  0.24381903794E+02 -0.18567395272E+02  0.46142317851E+02  0.10000000818E+02 0.  0.
         12    1    1    2    0    0  0.33013453022E+02 -0.24381903794E+02  0.18567395272E+02  0.45045682149E+02  0.00000000000E+00 0. -1.
         11    1    3    3    0    0 -0.53582597630E+01  0.80771953344E+01 -0.42242669115E+01  0.10573384669E+02  0.51100000000E-03 0. -1.
        -11    1    3    3    0    0 -0.16735961884E+02  0.11949350478E+02 -0.11125819936E+02  0.23380831177E+02  0.51100000000E-03 0.  1.
        -12    1    3    3    0    0 -0.10919231375E+02  0.43553579817E+01 -0.32173084253E+01  0.12188102004E+02  0.00000000000E+00 0.  1.
</event>
<event>
 7    1  0.3086024E-009  0.4614232E+02  0.7816164E-02  0.1320468E+00
        -11   -1    0    0    0    0  0.00000000000E+00  0.00000000000E+00  0.45593999997E+02  0.45594000000E+02  0.51100000000E-03 0.  1.
         11   -1    0    0    0    0 -0.00000000000E+00 -0.00000000000E+00 -0.45593999997E+02  0.45594000000E+02  0.51100000000E-03 0. -1.
    9900012    2    1    2    0    0 -0.33971950332E+02  0.28407747410E+02  0.82474194202E+01  0.46142318194E+02  0.10000003949E+02 0.  0.
         12    1    1    2    0    0  0.33971950332E+02 -0.28407747410E+02 -0.82474194202E+01  0.45045681806E+02  0.00000000000E+00 0. -1.
         11    1    3    3    0    0 -0.15845223591E+02  0.16257348586E+02  0.39653773380E+01  0.23045535606E+02  0.51100000000E-03 0. -1.
        -11    1    3    3    0    0 -0.11609901723E+02  0.41876962245E+01  0.32026737533E+01  0.12750832801E+02  0.51100000000E-03 0.  1.
        -12    1    3    3    0    0 -0.65168250185E+01  0.79627025999E+01  0.10793683288E+01  0.10345949788E+02  0.00000000000E+00 0.  1.
</event>
<event>
 7    1  0.3086024E-009  0.4614232E+02  0.7816164E-02  0.1320468E+00
        -11   -1    0    0    0    0  0.00000000000E+00  0.00000000000E+00  0.45593999997E+02  0.45594000000E+02  0.51100000000E-03 0. -1.
         11   -1    0    0    0    0 -0.00000000000E+00 -0.00000000000E+00 -0.45593999997E+02  0.45594000000E+02  0.51100000000E-03 0.  1.
    9900012    2    1    2    0    0 -0.24832035069E+02 -0.11458737893E+02 -0.35793587764E+02  0.46142316913E+02  0.99999922668E+01 0.  0.
         12    1    1    2    0    0  0.24832035069E+02  0.11458737893E+02  0.35793587764E+02  0.45045683087E+02  0.00000000000E+00 0. -1.
         11    1    3    3    0    0 -0.59018870998E+01 -0.50772111065E+00 -0.41858438761E+01  0.72533675821E+01  0.51100000000E-03 0. -1.
        -11    1    3    3    0    0 -0.13070390883E+02 -0.63176415134E+01 -0.16117608100E+02  0.21691588306E+02  0.51100000000E-03 0.  1.
         12    1    3    3    0    0 -0.58597570867E+01 -0.46333752685E+01 -0.15490135788E+02  0.17197361025E+02  0.00000000000E+00 0. -1.
</event>
<event>
 7    1  0.3086024E-009  0.4614232E+02  0.7816164E-02  0.1320468E+00
        -11   -1    0    0    0    0  0.00000000000E+00  0.00000000000E+00  0.45593999997E+02  0.45594000000E+02  0.51100000000E-03 0.  1.
         11   -1    0    0    0    0 -0.00000000000E+00 -0.00000000000E+00 -0.45593999997E+02  0.45594000000E+02  0.51100000000E-03 0. -1.
    9900012    2    1    2    0    0 -0.40461435995E+01  0.13499251025E+02  0.42784488331E+02  0.46142317655E+02  0.99999990280E+01 0.  0.
         12    1    1    2    0    0  0.40461435995E+01 -0.13499251025E+02 -0.42784488331E+02  0.45045682345E+02  0.00000000000E+00 0. -1.
         11    1    3    3    0    0  0.57412701269E+00  0.10357940241E+01  0.23342626996E+01  0.26174937820E+01  0.51100000000E-03 0. -1.
        -11    1    3    3    0    0  0.15723570867E+01  0.38770224758E+01  0.20675964669E+02  0.21095002378E+02  0.51100000000E-03 0.  1.
        -12    1    3    3    0    0 -0.61926276989E+01  0.85864345248E+01  0.19774260962E+02  0.22429821494E+02  0.00000000000E+00 0.  1.
</event>
<event>
 7    1  0.3086024E-009  0.4614232E+02  0.7816164E-02  0.1320468E+00
        -11   -1    0    0    0    0  0.00000000000E+00  0.00000000000E+00  0.45593999997E+02  0.45594000000E+02  0.51100000000E-03 0.  1.
         11   -1    0    0    0    0 -0.00000000000E+00 -0.00000000000E+00 -0.45593999997E+02  0.45594000000E+02  0.51100000000E-03 0. -1.
    9900012    2    1    2    0    0  0.18971722511E+02 -0.30689456864E+02  0.26969324101E+02  0.46142318075E+02  0.10000002864E+02 0.  0.
         12    1    1    2    0    0 -0.18971722511E+02  0.30689456864E+02 -0.26969324101E+02  0.45045681925E+02  0.00000000000E+00 0. -1.
         11    1    3    3    0    0  0.33946283946E+01 -0.27333174770E+01  0.28336959551E+01  0.51984958780E+01  0.51100000000E-03 0. -1.
        -11    1    3    3    0    0  0.13672510745E+02 -0.25002479945E+02  0.24263556366E+02  0.37427018600E+02  0.51100000000E-03 0.  1.
        -12    1    3    3    0    0  0.19045833712E+01 -0.29536594416E+01 -0.12792821972E+00  0.35168035976E+01  0.00000000000E+00 0.  1.
</event>
<event>
 7    1  0.3086024E-009  0.4614232E+02  0.7816164E-02  0.1320468E+00
        -11   -1    0    0    0    0  0.00000000000E+00  0.00000000000E+00  0.45593999997E+02  0.45594000000E+02  0.51100000000E-03 0.  1.
         11   -1    0    0    0    0 -0.00000000000E+00 -0.00000000000E+00 -0.45593999997E+02  0.45594000000E+02  0.51100000000E-03 0. -1.
    9900012    2    1    2    0    0  0.10661476674E+02  0.21840333786E+02  0.37926854139E+02  0.46142317303E+02  0.99999958232E+01 0.  0.
         12    1    1    2    0    0 -0.10661476674E+02 -0.21840333786E+02 -0.37926854139E+02  0.45045682697E+02  0.00000000000E+00 0. -1.
         11    1    3    3    0    0  0.30368387565E+01  0.12616391067E+02  0.19642946075E+02  0.23542324523E+02  0.51100000000E-03 0. -1.
        -11    1    3    3    0    0  0.67432459416E+01  0.86560226803E+01  0.18518856229E+02  0.21525476319E+02  0.51100000000E-03 0.  1.
         12    1    3    3    0    0  0.88139197548E+00  0.56792003887E+00 -0.23494816475E+00  0.10745164611E+01  0.00000000000E+00 0. -1.
</event>
<event>
 7    1  0.3086024E-009  0.4614232E+02  0.7816164E-02  0.1320468E+00
        -11   -1    0    0    0    0  0.00000000000E+00  0.00000000000E+00  0.45593999997E+02  0.45594000000E+02  0.51100000000E-03 0. -1.
         11   -1    0    0    0    0 -0.00000000000E+00 -0.00000000000E+00 -0.45593999997E+02  0.45594000000E+02  0.51100000000E-03 0.  1.
    9900012    2    1    2    0    0 -0.32233810885E+02 -0.17680986753E+02 -0.26028399910E+02  0.46142318091E+02  0.10000003008E+02 0.  0.
         12    1    1    2    0    0  0.32233810885E+02  0.17680986753E+02  0.26028399910E+02  0.45045681909E+02  0.00000000000E+00 0. -1.
         11    1    3    3    0    0 -0.83631838156E+01 -0.17882955168E+01 -0.39304907688E+01  0.94122049666E+01  0.51100000000E-03 0. -1.
        -11    1    3    3    0    0 -0.14172699182E+02 -0.58275155282E+01 -0.12489778867E+02  0.19769165783E+02  0.51100000000E-03 0.  1.
         12    1    3    3    0    0 -0.96979278876E+01 -0.10065175708E+02 -0.96081302748E+01  0.16960947342E+02  0.00000000000E+00 0. -1.
</event>
<event>
 7    1  0.3086024E-009  0.4614232E+02  0.7816164E-02  0.1320468E+00
        -11   -1    0    0    0    0  0.00000000000E+00  0.00000000000E+00  0.45593999997E+02  0.45594000000E+02  0.51100000000E-03 0. -1.
         11   -1    0    0    0    0 -0.00000000000E+00 -0.00000000000E+00 -0.45593999997E+02  0.45594000000E+02  0.51100000000E-03 0.  1.
    9900012    2    1    2    0    0  0.19814179096E+02 -0.93490758949E+01 -0.39358691856E+02  0.46142317211E+02  0.99999949829E+01 0.  0.
         12    1    1    2    0    0 -0.19814179096E+02  0.93490758949E+01  0.39358691856E+02  0.45045682789E+02  0.00000000000E+00 0. -1.
         11    1    3    3    0    0  0.74216671754E+01  0.13366465213E+01 -0.11092768849E+02  0.13413325039E+02  0.51100000000E-03 0. -1.
        -11    1    3    3    0    0  0.27926052516E+01 -0.14485516174E+01 -0.46432933349E+01  0.56086646481E+01  0.51100000000E-03 0.  1.
         12    1    3    3    0    0  0.95999066687E+01 -0.92371707989E+01 -0.23622629672E+02  0.27120327524E+02  0.00000000000E+00 0. -1.
</event>
<event>
 7    1  0.3086024E-009  0.4614232E+02  0.7816164E-02  0.1320468E+00
        -11   -1    0    0    0    0  0.00000000000E+00  0.00000000000E+00  0.45593999997E+02  0.45594000000E+02  0.51100000000E-03 0. -1.
         11   -1    0    0    0    0 -0.00000000000E+00 -0.00000000000E+00 -0.45593999997E+02  0.45594000000E+02  0.51100000000E-03 0.  1.
    9900012    2    1    2    0    0  0.36720116285E+02 -0.26070656245E+02 -0.10332063260E+01  0.46142316829E+02  0.99999914995E+01 0.  0.
         12    1    1    2    0    0 -0.36720116285E+02  0.26070656245E+02  0.10332063260E+01  0.45045683171E+02  0.00000000000E+00 0. -1.
         11    1    3    3    0    0  0.23861780722E+01  0.30604779665E-01  0.15483504375E+00  0.23913921879E+01  0.51100000000E-03 0.  1.
        -11    1    3    3    0    0  0.19414669145E+02 -0.10416710168E+02  0.49961156996E+00  0.22038303944E+02  0.51100000000E-03 0. -1.
        -12    1    3    3    0    0  0.14919269068E+02 -0.15684550857E+02 -0.16876529397E+01  0.21712620697E+02  0.00000000000E+00 0.  1.
</event>
<event>
 7    1  0.3086024E-009  0.4614232E+02  0.7816164E-02  0.1320468E+00
        -11   -1    0    0    0    0  0.00000000000E+00  0.00000000000E+00  0.45593999997E+02  0.45594000000E+02  0.51100000000E-03 0. -1.
         11   -1    0    0    0    0 -0.00000000000E+00 -0.00000000000E+00 -0.45593999997E+02  0.45594000000E+02  0.51100000000E-03 0.  1.
    9900012    2    1    2    0    0  0.53647639874E+01  0.40028734611E+02 -0.19950770267E+02  0.46142317394E+02  0.99999966532E+01 0.  0.
         12    1    1    2    0    0 -0.53647639874E+01 -0.40028734611E+02  0.19950770267E+02  0.45045682606E+02  0.00000000000E+00 0. -1.
         11    1    3    3    0    0  0.19579663200E+01  0.13218127115E+02 -0.10755961378E+02  0.17153519230E+02  0.51100000000E-03 0. -1.
        -11    1    3    3    0    0  0.49097298121E+00  0.12117803275E+02 -0.65309132470E+01  0.13774434245E+02  0.51100000000E-03 0.  1.
         12    1    3    3    0    0  0.29158246861E+01  0.14692804221E+02 -0.26638956423E+01  0.15214363919E+02  0.00000000000E+00 0. -1.
</event>
<event>
 7    1  0.3086024E-009  0.4614232E+02  0.7816164E-02  0.1320468E+00
        -11   -1    0    0    0    0  0.00000000000E+00  0.00000000000E+00  0.45593999997E+02  0.45594000000E+02  0.51100000000E-03 0. -1.
         11   -1    0    0    0    0 -0.00000000000E+00 -0.00000000000E+00 -0.45593999997E+02  0.45594000000E+02  0.51100000000E-03 0.  1.
    9900012    2    1    2    0    0 -0.40529064887E+02  0.11321181447E+02 -0.16072931461E+02  0.46142319012E+02  0.10000011406E+02 0.  0.
         12    1    1    2    0    0  0.40529064887E+02 -0.11321181447E+02  0.16072931461E+02  0.45045680988E+02  0.00000000000E+00 0. -1.
         11    1    3    3    0    0 -0.95179483212E+01  0.21779308763E+01 -0.74954645197E+01  0.12309212476E+02  0.51100000000E-03 0. -1.
        -11    1    3    3    0    0 -0.19971900122E+02  0.38136148706E+01 -0.68385168914E+01  0.21451940854E+02  0.51100000000E-03 0.  1.
        -12    1    3    3    0    0 -0.11039216444E+02  0.53296356996E+01 -0.17389500496E+01  0.12381165682E+02  0.00000000000E+00 0.  1.
</event>
<event>
 7    1  0.3086024E-009  0.4614232E+02  0.7816164E-02  0.1320468E+00
        -11   -1    0    0    0    0  0.00000000000E+00  0.00000000000E+00  0.45593999997E+02  0.45594000000E+02  0.51100000000E-03 0. -1.
         11   -1    0    0    0    0 -0.00000000000E+00 -0.00000000000E+00 -0.45593999997E+02  0.45594000000E+02  0.51100000000E-03 0.  1.
    9900012    2    1    2    0    0  0.16691499675E+02 -0.17073110509E+02 -0.38197071206E+02  0.46142317493E+02  0.99999975539E+01 0.  0.
         12    1    1    2    0    0 -0.16691499675E+02  0.17073110509E+02  0.38197071206E+02  0.45045682507E+02  0.00000000000E+00 0. -1.
         11    1    3    3    0    0 -0.35877804003E+00 -0.15493425257E+01 -0.68182503989E+01  0.70012657932E+01  0.51100000000E-03 0. -1.
        -11    1    3    3    0    0  0.12999731273E+02 -0.12578183932E+02 -0.26935924357E+02  0.32446074423E+02  0.51100000000E-03 0.  1.
        -12    1    3    3    0    0  0.40505464417E+01 -0.29455840506E+01 -0.44428964497E+01  0.66949772769E+01  0.00000000000E+00 0.  1.
</event>
<event>
 7    1  0.3086024E-009  0.4614232E+02  0.7816164E-02  0.1320468E+00
        -11   -1    0    0    0    0  0.00000000000E+00  0.00000000000E+00  0.45593999997E+02  0.45594000000E+02  0.51100000000E-03 0.  1.
         11   -1    0    0    0    0 -0.00000000000E+00 -0.00000000000E+00 -0.45593999997E+02  0.45594000000E+02  0.51100000000E-03 0. -1.
    9900012    2    1    2    0    0 -0.12778744394E+02 -0.50316569859E+01  0.42901044249E+02  0.46142317877E+02  0.10000001055E+02 0.  0.
         12    1    1    2    0    0  0.12778744394E+02  0.50316569859E+01 -0.42901044249E+02  0.45045682123E+02  0.00000000000E+00 0. -1.
         11    1    3    3    0    0 -0.31792502746E+00 -0.10015901943E+01  0.17458179739E+02  0.17489776995E+02  0.51100000000E-03 0. -1.
        -11    1    3    3    0    0 -0.57718983761E+01 -0.21009473556E+01  0.13436928973E+02  0.14774296976E+02  0.51100000000E-03 0.  1.
         12    1    3    3    0    0 -0.66889209908E+01 -0.19291194360E+01  0.12005935536E+02  0.13878243906E+02  0.00000000000E+00 0. -1.
</event>
<event>
 7    1  0.3086024E-009  0.4614232E+02  0.7816164E-02  0.1320468E+00
        -11   -1    0    0    0    0  0.00000000000E+00  0.00000000000E+00  0.45593999997E+02  0.45594000000E+02  0.51100000000E-03 0. -1.
         11   -1    0    0    0    0 -0.00000000000E+00 -0.00000000000E+00 -0.45593999997E+02  0.45594000000E+02  0.51100000000E-03 0.  1.
    9900012    2    1    2    0    0  0.32869119779E+02  0.29940652526E+02 -0.72313022694E+01  0.46142318285E+02  0.10000004776E+02 0.  0.
         12    1    1    2    0    0 -0.32869119779E+02 -0.29940652526E+02  0.72313022694E+01  0.45045681715E+02  0.00000000000E+00 0. -1.
         11    1    3    3    0    0  0.32444937809E+01  0.34636394075E+01  0.18850421337E+00  0.47496391378E+01  0.51100000000E-03 0. -1.
        -11    1    3    3    0    0  0.12217659109E+02  0.16862529076E+02 -0.43199007111E+01  0.21266819776E+02  0.51100000000E-03 0.  1.
        -12    1    3    3    0    0  0.17406966888E+02  0.96144840419E+01 -0.30999057717E+01  0.20125859371E+02  0.00000000000E+00 0.  1.
</event>
<event>
 7    1  0.3086024E-009  0.4614232E+02  0.7816164E-02  0.1320468E+00
        -11   -1    0    0    0    0  0.00000000000E+00  0.00000000000E+00  0.45593999997E+02  0.45594000000E+02  0.51100000000E-03 0.  1.
         11   -1    0    0    0    0 -0.00000000000E+00 -0.00000000000E+00 -0.45593999997E+02  0.45594000000E+02  0.51100000000E-03 0. -1.
    9900012    2    1    2    0    0  0.20497348387E+02 -0.30479635173E+02  0.26076120894E+02  0.46142317276E+02  0.99999955782E+01 0.  0.
         12    1    1    2    0    0 -0.20497348387E+02  0.30479635173E+02 -0.26076120894E+02  0.45045682724E+02  0.00000000000E+00 0. -1.
         11    1    3    3    0    0  0.12704053428E+02 -0.19175370510E+02  0.17275410323E+02  0.28766779621E+02  0.51100000000E-03 0. -1.
        -11    1    3    3    0    0  0.81789231845E+01 -0.90830640111E+01  0.55604275354E+01  0.13428149200E+02  0.51100000000E-03 0.  1.
         12    1    3    3    0    0 -0.38562822571E+00 -0.22212006523E+01  0.32402830362E+01  0.39473884558E+01  0.00000000000E+00 0. -1.
</event>
<event>
 7    1  0.3086024E-009  0.4614232E+02  0.7816164E-02  0.1320468E+00
        -11   -1    0    0    0    0  0.00000000000E+00  0.00000000000E+00  0.45593999997E+02  0.45594000000E+02  0.51100000000E-03 0. -1.
         11   -1    0    0    0    0 -0.00000000000E+00 -0.00000000000E+00 -0.45593999997E+02  0.45594000000E+02  0.51100000000E-03 0.  1.
    9900012    2    1    2    0    0  0.27942617323E+02 -0.35327193461E+02  0.55937605742E+00  0.46142319161E+02  0.10000012764E+02 0.  0.
         12    1    1    2    0    0 -0.27942617323E+02  0.35327193461E+02 -0.55937605742E+00  0.45045680839E+02  0.00000000000E+00 0. -1.
         11    1    3    3    0    0  0.42637883037E+01 -0.18763873649E+01  0.15752239433E+01  0.49175248830E+01  0.51100000000E-03 0. -1.
        -11    1    3    3    0    0  0.34392203668E+01 -0.78921103267E+01 -0.75353793645E-01  0.86092578423E+01  0.51100000000E-03 0.  1.
        -12    1    3    3    0    0  0.20239608652E+02 -0.25558695770E+02 -0.94049409220E+00  0.32615536435E+02  0.00000000000E+00 0.  1.
</event>
<event>
 7    1  0.3086024E-009  0.4614232E+02  0.7816164E-02  0.1320468E+00
        -11   -1    0    0    0    0  0.00000000000E+00  0.00000000000E+00  0.45593999997E+02  0.45594000000E+02  0.51100000000E-03 0.  1.
         11   -1    0    0    0    0 -0.00000000000E+00 -0.00000000000E+00 -0.45593999997E+02  0.45594000000E+02  0.51100000000E-03 0. -1.
    9900012    2    1    2    0    0 -0.10487514277E+02  0.31002329329E+02  0.30951269376E+02  0.46142318126E+02  0.10000003325E+02 0.  0.
         12    1    1    2    0    0  0.10487514277E+02 -0.31002329329E+02 -0.30951269376E+02  0.45045681874E+02  0.00000000000E+00 0. -1.
         11    1    3    3    0    0  0.19641843043E+00  0.68358567217E+00 -0.69916937501E-01  0.71467349908E+00  0.51100000000E-03 0. -1.
        -11    1    3    3    0    0 -0.39265478675E+01  0.21456144236E+02  0.22986267542E+02  0.31688363785E+02  0.51100000000E-03 0.  1.
        -12    1    3    3    0    0 -0.67573848403E+01  0.88625994205E+01  0.80349187721E+01  0.13739280842E+02  0.00000000000E+00 0.  1.
</event>
<event>
 7    1  0.3086024E-009  0.4614232E+02  0.7816164E-02  0.1320468E+00
        -11   -1    0    0    0    0  0.00000000000E+00  0.00000000000E+00  0.45593999997E+02  0.45594000000E+02  0.51100000000E-03 0.  1.
         11   -1    0    0    0    0 -0.00000000000E+00 -0.00000000000E+00 -0.45593999997E+02  0.45594000000E+02  0.51100000000E-03 0. -1.
    9900012    2    1    2    0    0  0.37591887935E+01 -0.44801988892E+02  0.27863162681E+01  0.46142320214E+02  0.10000022369E+02 0.  0.
         12    1    1    2    0    0 -0.37591887935E+01  0.44801988892E+02 -0.27863162681E+01  0.45045679786E+02  0.00000000000E+00 0. -1.
         11    1    3    3    0    0  0.12176907407E+01 -0.24221107325E+02 -0.26975434799E+01  0.24401261276E+02  0.51100000000E-03 0. -1.
        -11    1    3    3    0    0 -0.11447151629E+00 -0.96632489418E+01  0.12983398677E+01  0.97507523049E+01  0.51100000000E-03 0.  1.
         12    1    3    3    0    0  0.26559695691E+01 -0.10917632625E+02  0.41855198802E+01  0.11990306633E+02  0.00000000000E+00 0. -1.
</event>
<event>
 7    1  0.3086024E-009  0.4614232E+02  0.7816164E-02  0.1320468E+00
        -11   -1    0    0    0    0  0.00000000000E+00  0.00000000000E+00  0.45593999997E+02  0.45594000000E+02  0.51100000000E-03 0. -1.
         11   -1    0    0    0    0 -0.00000000000E+00 -0.00000000000E+00 -0.45593999997E+02  0.45594000000E+02  0.51100000000E-03 0.  1.
    9900012    2    1    2    0    0  0.38180446392E+02 -0.14126477302E+02 -0.19282364989E+02  0.46142318218E+02  0.10000004166E+02 0.  0.
         12    1    1    2    0    0 -0.38180446392E+02  0.14126477302E+02  0.19282364989E+02  0.45045681782E+02  0.00000000000E+00 0. -1.
         11    1    3    3    0    0  0.21731933907E+02 -0.10169706100E+02 -0.10073257650E+02  0.26022497833E+02  0.51100000000E-03 0. -1.
        -11    1    3    3    0    0  0.22454146029E+01 -0.19257124813E+01 -0.37324668197E+01  0.47625165743E+01  0.51100000000E-03 0.  1.
        -12    1    3    3    0    0  0.14203097882E+02 -0.20310587205E+01 -0.54766405188E+01  0.15357303811E+02  0.00000000000E+00 0.  1.
</event>
<event>
 7    1  0.3086024E-009  0.4614232E+02  0.7816164E-02  0.1320468E+00
        -11   -1    0    0    0    0  0.00000000000E+00  0.00000000000E+00  0.45593999997E+02  0.45594000000E+02  0.51100000000E-03 0.  1.
         11   -1    0    0    0    0 -0.00000000000E+00 -0.00000000000E+00 -0.45593999997E+02  0.45594000000E+02  0.51100000000E-03 0. -1.
    9900012    2    1    2    0    0 -0.19217926982E+02 -0.29738787185E+02  0.27845811971E+02  0.46142318464E+02  0.10000006411E+02 0.  0.
         12    1    1    2    0    0  0.19217926982E+02  0.29738787185E+02 -0.27845811971E+02  0.45045681536E+02  0.00000000000E+00 0. -1.
         11    1    3    3    0    0 -0.22125980209E+01 -0.19047400834E+01  0.36755840752E+01  0.46939901302E+01  0.51100000000E-03 0. -1.
        -11    1    3    3    0    0 -0.67847860217E+01 -0.87323758732E+01  0.13022555660E+02  0.17084339786E+02  0.51100000000E-03 0.  1.
        -12    1    3    3    0    0 -0.10220542940E+02 -0.19101671228E+02  0.11147672236E+02  0.24363988548E+02  0.00000000000E+00 0.  1.
</event>
<event>
 7    1  0.3086024E-009  0.4614232E+02  0.7816164E-02  0.1320468E+00
        -11   -1    0    0    0    0  0.00000000000E+00  0.00000000000E+00  0.45593999997E+02  0.45594000000E+02  0.51100000000E-03 0. -1.
         11   -1    0    0    0    0 -0.00000000000E+00 -0.00000000000E+00 -0.45593999997E+02  0.45594000000E+02  0.51100000000E-03 0.  1.
    9900012    2    1    2    0    0 -0.44404493519E+02  0.14162541847E+01 -0.74396650552E+01  0.46142318334E+02  0.10000005227E+02 0.  0.
         12    1    1    2    0    0  0.44404493519E+02 -0.14162541847E+01  0.74396650552E+01  0.45045681666E+02  0.00000000000E+00 0. -1.
         11    1    3    3    0    0 -0.80851744813E+00 -0.98544503070E+00  0.53179719027E+00  0.13811628742E+01  0.51100000000E-03 0. -1.
        -11    1    3    3    0    0 -0.32447526056E+02  0.31418371551E+01 -0.80877091494E+01  0.33587559117E+02  0.51100000000E-03 0.  1.
         12    1    3    3    0    0 -0.11148450014E+02 -0.74013793972E+00  0.11624690392E+00  0.11173596343E+02  0.00000000000E+00 0. -1.
</event>
<event>
 7    1  0.3086024E-009  0.4614232E+02  0.7816164E-02  0.1320468E+00
        -11   -1    0    0    0    0  0.00000000000E+00  0.00000000000E+00  0.45593999997E+02  0.45594000000E+02  0.51100000000E-03 0.  1.
         11   -1    0    0    0    0 -0.00000000000E+00 -0.00000000000E+00 -0.45593999997E+02  0.45594000000E+02  0.51100000000E-03 0. -1.
    9900012    2    1    2    0    0  0.24668949264E+02  0.43282086839E+01  0.37440927041E+02  0.46142318011E+02  0.10000002276E+02 0.  0.
         12    1    1    2    0    0 -0.24668949264E+02 -0.43282086839E+01 -0.37440927041E+02  0.45045681989E+02  0.00000000000E+00 0. -1.
         11    1    3    3    0    0  0.51960766291E+00 -0.19404448784E+00 -0.60191256721E+00  0.81850130500E+00  0.51100000000E-03 0. -1.
        -11    1    3    3    0    0  0.91579069478E+00 -0.14153280142E-01  0.20344835598E+01  0.22311424267E+01  0.51100000000E-03 0.  1.
         12    1    3    3    0    0  0.23233550907E+02  0.45364064519E+01  0.36008356048E+02  0.43092674279E+02  0.00000000000E+00 0. -1.
</event>
<event>
 7    1  0.3086024E-009  0.4614232E+02  0.7816164E-02  0.1320468E+00
        -11   -1    0    0    0    0  0.00000000000E+00  0.00000000000E+00  0.45593999997E+02  0.45594000000E+02  0.51100000000E-03 0. -1.
         11   -1    0    0    0    0 -0.00000000000E+00 -0.00000000000E+00 -0.45593999997E+02  0.45594000000E+02  0.51100000000E-03 0.  1.
    9900012    2    1    2    0    0  0.29001830582E+02  0.14454075603E+02 -0.31290366514E+02  0.46142317463E+02  0.99999972784E+01 0.  0.
         12    1    1    2    0    0 -0.29001830582E+02 -0.14454075603E+02  0.31290366514E+02  0.45045682537E+02  0.00000000000E+00 0. -1.
         11    1    3    3    0    0  0.11338092871E+02  0.34813626611E+01 -0.66922382693E+01  0.13618307136E+02  0.51100000000E-03 0. -1.
        -11    1    3    3    0    0  0.14112898748E+02  0.10347761155E+02 -0.18701027864E+02  0.25612077530E+02  0.51100000000E-03 0.  1.
        -12    1    3    3    0    0  0.35508389630E+01  0.62495178669E+00 -0.58971003814E+01  0.69119327966E+01  0.00000000000E+00 0.  1.
</event>
<event>
 7    1  0.3086024E-009  0.4614232E+02  0.7816164E-02  0.1320468E+00
        -11   -1    0    0    0    0  0.00000000000E+00  0.00000000000E+00  0.45593999997E+02  0.45594000000E+02  0.51100000000E-03 0. -1.
         11   -1    0    0    0    0 -0.00000000000E+00 -0.00000000000E+00 -0.45593999997E+02  0.45594000000E+02  0.51100000000E-03 0.  1.
    9900012    2    1    2    0    0  0.19769137939E+02 -0.27143821828E+02 -0.30025116504E+02  0.46142317640E+02  0.99999988921E+01 0.  0.
         12    1    1    2    0    0 -0.19769137939E+02  0.27143821828E+02  0.30025116504E+02  0.45045682360E+02  0.00000000000E+00 0. -1.
         11    1    3    3    0    0 -0.33966490154E+00 -0.42766460202E+01 -0.46422003524E+01  0.63210044930E+01  0.51100000000E-03 0. -1.
        -11    1    3    3    0    0  0.43579628649E+01 -0.63551591485E+01 -0.82254244946E+01  0.11271091186E+02  0.51100000000E-03 0.  1.
         12    1    3    3    0    0  0.15750839976E+02 -0.16512016659E+02 -0.17157491657E+02  0.28550221961E+02  0.00000000000E+00 0. -1.
</event>
<event>
 7    1  0.3086024E-009  0.4614232E+02  0.7816164E-02  0.1320468E+00
        -11   -1    0    0    0    0  0.00000000000E+00  0.00000000000E+00  0.45593999997E+02  0.45594000000E+02  0.51100000000E-03 0.  1.
         11   -1    0    0    0    0 -0.00000000000E+00 -0.00000000000E+00 -0.45593999997E+02  0.45594000000E+02  0.51100000000E-03 0. -1.
    9900012    2    1    2    0    0 -0.23883148542E+02 -0.35954598264E+02  0.12883150715E+02  0.46142317711E+02  0.99999995395E+01 0.  0.
         12    1    1    2    0    0  0.23883148542E+02  0.35954598264E+02 -0.12883150715E+02  0.45045682289E+02  0.00000000000E+00 0. -1.
         11    1    3    3    0    0 -0.57134717323E+01 -0.45457585391E+01  0.51696394979E+01  0.89461082450E+01  0.51100000000E-03 0. -1.
        -11    1    3    3    0    0 -0.54328038389E+01 -0.10245695015E+02  0.36931411129E+01  0.12170822299E+02  0.51100000000E-03 0.  1.
         12    1    3    3    0    0 -0.12736872970E+02 -0.21163144710E+02  0.40203701044E+01  0.25025387167E+02  0.00000000000E+00 0. -1.
</event>
<event>
 7    1  0.3086024E-009  0.4614232E+02  0.7816164E-02  0.1320468E+00
        -11   -1    0    0    0    0  0.00000000000E+00  0.00000000000E+00  0.45593999997E+02  0.45594000000E+02  0.51100000000E-03 0. -1.
         11   -1    0    0    0    0 -0.00000000000E+00 -0.00000000000E+00 -0.45593999997E+02  0.45594000000E+02  0.51100000000E-03 0.  1.
    9900012    2    1    2    0    0  0.42742967593E+02  0.13124748122E+02 -0.54674800185E+01  0.46142316193E+02  0.99999856975E+01 0.  0.
         12    1    1    2    0    0 -0.42742967593E+02 -0.13124748122E+02  0.54674800185E+01  0.45045683807E+02  0.00000000000E+00 0. -1.
         11    1    3    3    0    0  0.27058256353E+02  0.58881483281E+01 -0.36472702888E+01  0.27930666094E+02  0.51100000000E-03 0. -1.
        -11    1    3    3    0    0  0.72909483625E+01  0.42066689766E+01  0.17545485833E+01  0.85983971120E+01  0.51100000000E-03 0.  1.
        -12    1    3    3    0    0  0.83937628772E+01  0.30299308172E+01 -0.35747583130E+01  0.96132529870E+01  0.00000000000E+00 0.  1.
</event>
<event>
 7    1  0.3086024E-009  0.4614232E+02  0.7816164E-02  0.1320468E+00
        -11   -1    0    0    0    0  0.00000000000E+00  0.00000000000E+00  0.45593999997E+02  0.45594000000E+02  0.51100000000E-03 0.  1.
         11   -1    0    0    0    0 -0.00000000000E+00 -0.00000000000E+00 -0.45593999997E+02  0.45594000000E+02  0.51100000000E-03 0. -1.
    9900012    2    1    2    0    0  0.27451655124E+01 -0.74137227871E+01  0.44346525943E+02  0.46142316717E+02  0.99999904757E+01 0.  0.
         12    1    1    2    0    0 -0.27451655124E+01  0.74137227871E+01 -0.44346525943E+02  0.45045683283E+02  0.00000000000E+00 0. -1.
         11    1    3    3    0    0 -0.29419587225E+01 -0.44024019747E+00  0.17706042155E+02  0.17954187857E+02  0.51100000000E-03 0. -1.
        -11    1    3    3    0    0  0.16342598732E+01 -0.12481879644E+01  0.83281197786E+01  0.85782491125E+01  0.51100000000E-03 0.  1.
         12    1    3    3    0    0  0.40528643617E+01 -0.57252946252E+01  0.18312364010E+02  0.19609879747E+02  0.00000000000E+00 0. -1.
</event>
<event>
 7    1  0.3086024E-009  0.4614232E+02  0.7816164E-02  0.1320468E+00
        -11   -1    0    0    0    0  0.00000000000E+00  0.00000000000E+00  0.45593999997E+02  0.45594000000E+02  0.51100000000E-03 0.  1.
         11   -1    0    0    0    0 -0.00000000000E+00 -0.00000000000E+00 -0.45593999997E+02  0.45594000000E+02  0.51100000000E-03 0. -1.
    9900012    2    1    2    0    0  0.17512065037E+01 -0.45178686301E+00  0.45009361910E+02  0.46142317686E+02  0.99999993151E+01 0.  0.
         12    1    1    2    0    0 -0.17512065037E+01  0.45178686301E+00 -0.45009361910E+02  0.45045682314E+02  0.00000000000E+00 0. -1.
         11    1    3    3    0    0  0.66592536902E+00 -0.20148697241E+01  0.38756587320E+01  0.44185843287E+01  0.51100000000E-03 0. -1.
        -11    1    3    3    0    0 -0.43429237515E-01 -0.18019450009E+01  0.36341962708E+01  0.40566334171E+01  0.51100000000E-03 0.  1.
        -12    1    3    3    0    0  0.11287103721E+01  0.33650278620E+01  0.37499506907E+02  0.37667099940E+02  0.00000000000E+00 0.  1.
</event>
<event>
 7    1  0.3086024E-009  0.4614232E+02  0.7816164E-02  0.1320468E+00
        -11   -1    0    0    0    0  0.00000000000E+00  0.00000000000E+00  0.45593999997E+02  0.45594000000E+02  0.51100000000E-03 0.  1.
         11   -1    0    0    0    0 -0.00000000000E+00 -0.00000000000E+00 -0.45593999997E+02  0.45594000000E+02  0.51100000000E-03 0. -1.
    9900012    2    1    2    0    0 -0.32367351247E+02 -0.99832237188E+00  0.31312480361E+02  0.46142317624E+02  0.99999987512E+01 0.  0.
         12    1    1    2    0    0  0.32367351247E+02  0.99832237188E+00 -0.31312480361E+02  0.45045682376E+02  0.00000000000E+00 0. -1.
         11    1    3    3    0    0 -0.95447007174E+01  0.94951423341E+00  0.10346374875E+02  0.14108520914E+02  0.51100000000E-03 0. -1.
        -11    1    3    3    0    0 -0.33661390747E+01 -0.28447064569E+01  0.19716621150E+01  0.48281154557E+01  0.51100000000E-03 0.  1.
        -12    1    3    3    0    0 -0.19456511455E+02  0.89686985165E+00  0.18994443371E+02  0.27205681255E+02  0.00000000000E+00 0.  1.
</event>
<event>
 7    1  0.3086024E-009  0.4614231E+02  0.7816164E-02  0.1320468E+00
        -11   -1    0    0    0    0  0.00000000000E+00  0.00000000000E+00  0.45593999997E+02  0.45594000000E+02  0.51100000000E-03 0.  1.
         11   -1    0    0    0    0 -0.00000000000E+00 -0.00000000000E+00 -0.45593999997E+02  0.45594000000E+02  0.51100000000E-03 0. -1.
    9900012    2    1    2    0    0 -0.43391980637E+01 -0.39367335944E+02  0.21459222552E+02  0.46142311952E+02  0.99999470304E+01 0.  0.
         12    1    1    2    0    0  0.43391980637E+01  0.39367335944E+02 -0.21459222552E+02  0.45045688048E+02  0.00000000000E+00 0. -1.
         11    1    3    3    0    0  0.21064412213E+01 -0.10467493043E+02  0.68846458028E+01  0.12704481623E+02  0.51100000000E-03 0.  1.
        -11    1    3    3    0    0 -0.34279776353E+01 -0.17658092729E+02  0.11668125160E+02  0.21440718610E+02  0.51100000000E-03 0. -1.
        -12    1    3    3    0    0 -0.30176616498E+01 -0.11241750173E+02  0.29064515889E+01  0.11997111720E+02  0.00000000000E+00 0.  1.
</event>
<event>
 7    1  0.3086024E-009  0.4614232E+02  0.7816164E-02  0.1320468E+00
        -11   -1    0    0    0    0  0.00000000000E+00  0.00000000000E+00  0.45593999997E+02  0.45594000000E+02  0.51100000000E-03 0. -1.
         11   -1    0    0    0    0 -0.00000000000E+00 -0.00000000000E+00 -0.45593999997E+02  0.45594000000E+02  0.51100000000E-03 0.  1.
    9900012    2    1    2    0    0  0.41919983875E+02  0.75085244416E+01  0.14678215039E+02  0.46142323359E+02  0.10000051043E+02 0.  0.
         12    1    1    2    0    0 -0.41919983875E+02 -0.75085244416E+01 -0.14678215039E+02  0.45045676641E+02  0.00000000000E+00 0. -1.
         11    1    3    3    0    0  0.12286255837E+01  0.12889093334E+00  0.13493960682E+01  0.18294818140E+01  0.51100000000E-03 0. -1.
        -11    1    3    3    0    0  0.33308613138E+02  0.32706600296E+01  0.12847541760E+02  0.35849968700E+02  0.51100000000E-03 0.  1.
        -12    1    3    3    0    0  0.73827451527E+01  0.41089734786E+01  0.48127721076E+00  0.84628728450E+01  0.00000000000E+00 0.  1.
</event>
<event>
 7    1  0.3086024E-009  0.4614230E+02  0.7816164E-02  0.1320468E+00
        -11   -1    0    0    0    0  0.00000000000E+00  0.00000000000E+00  0.45593999997E+02  0.45594000000E+02  0.51100000000E-03 0.  1.
         11   -1    0    0    0    0 -0.00000000000E+00 -0.00000000000E+00 -0.45593999997E+02  0.45594000000E+02  0.51100000000E-03 0. -1.
    9900012    2    1    2    0    0  0.22762629237E+02 -0.18005503712E+02  0.34449662963E+02  0.46142303958E+02  0.99998741278E+01 0.  0.
         12    1    1    2    0    0 -0.22762629237E+02  0.18005503712E+02 -0.34449662963E+02  0.45045696042E+02  0.00000000000E+00 0. -1.
         11    1    3    3    0    0  0.97092186126E+01 -0.37018765698E+01  0.16050191690E+02  0.19120184877E+02  0.51100000000E-03 0. -1.
        -11    1    3    3    0    0  0.62103787058E+01 -0.74136522309E+01  0.11912219335E+02  0.15343793951E+02  0.51100000000E-03 0.  1.
         12    1    3    3    0    0  0.68430319182E+01 -0.68899749111E+01  0.64872519383E+01  0.11678325129E+02  0.00000000000E+00 0. -1.
</event>
<event>
 7    1  0.3086024E-009  0.4614232E+02  0.7816164E-02  0.1320468E+00
        -11   -1    0    0    0    0  0.00000000000E+00  0.00000000000E+00  0.45593999997E+02  0.45594000000E+02  0.51100000000E-03 0.  1.
         11   -1    0    0    0    0 -0.00000000000E+00 -0.00000000000E+00 -0.45593999997E+02  0.45594000000E+02  0.51100000000E-03 0. -1.
    9900012    2    1    2    0    0  0.19983345083E+02  0.23005803729E+02  0.33173970463E+02  0.46142318718E+02  0.10000008723E+02 0.  0.
         12    1    1    2    0    0 -0.19983345083E+02 -0.23005803729E+02 -0.33173970463E+02  0.45045681282E+02  0.00000000000E+00 0. -1.
         11    1    3    3    0    0  0.39633840912E+01  0.10379822408E+02  0.82977594321E+01  0.13867297449E+02  0.51100000000E-03 0. -1.
        -11    1    3    3    0    0  0.15229742417E+02  0.11765049550E+02  0.22364656835E+02  0.29504903331E+02  0.51100000000E-03 0.  1.
         12    1    3    3    0    0  0.79021857516E+00  0.86093177102E+00  0.25115541958E+01  0.27701179378E+01  0.00000000000E+00 0. -1.
</event>
<event>
 7    1  0.3086024E-009  0.4614232E+02  0.7816164E-02  0.1320468E+00
        -11   -1    0    0    0    0  0.00000000000E+00  0.00000000000E+00  0.45593999997E+02  0.45594000000E+02  0.51100000000E-03 0. -1.
         11   -1    0    0    0    0 -0.00000000000E+00 -0.00000000000E+00 -0.45593999997E+02  0.45594000000E+02  0.51100000000E-03 0.  1.
    9900012    2    1    2    0    0 -0.16446228170E+02 -0.89355262504E+01 -0.40973057381E+02  0.46142317837E+02  0.10000000689E+02 0.  0.
         12    1    1    2    0    0  0.16446228170E+02  0.89355262504E+01  0.40973057381E+02  0.45045682163E+02  0.00000000000E+00 0. -1.
         11    1    3    3    0    0 -0.19951747914E+01  0.10412988645E+01 -0.24707694652E+01  0.33421142687E+01  0.51100000000E-03 0. -1.
        -11    1    3    3    0    0 -0.11656717249E+01 -0.19204937818E+01 -0.10865735713E+02  0.11095553153E+02  0.51100000000E-03 0.  1.
        -12    1    3    3    0    0 -0.13285381654E+02 -0.80563313331E+01 -0.27636552203E+02  0.31704650415E+02  0.00000000000E+00 0.  1.
</event>
<event>
 7    1  0.3086024E-009  0.4614232E+02  0.7816164E-02  0.1320468E+00
        -11   -1    0    0    0    0  0.00000000000E+00  0.00000000000E+00  0.45593999997E+02  0.45594000000E+02  0.51100000000E-03 0.  1.
         11   -1    0    0    0    0 -0.00000000000E+00 -0.00000000000E+00 -0.45593999997E+02  0.45594000000E+02  0.51100000000E-03 0. -1.
    9900012    2    1    2    0    0 -0.68324382034E+01  0.20276795091E+02  0.39639410671E+02  0.46142317528E+02  0.99999978760E+01 0.  0.
         12    1    1    2    0    0  0.68324382034E+01 -0.20276795091E+02 -0.39639410671E+02  0.45045682472E+02  0.00000000000E+00 0. -1.
         11    1    3    3    0    0 -0.26575333680E+01  0.73281844869E+01  0.21379226855E+02  0.22756012671E+02  0.51100000000E-03 0. -1.
        -11    1    3    3    0    0 -0.36288408592E+01  0.92981982746E+01  0.90858650587E+01  0.13497330153E+02  0.51100000000E-03 0.  1.
        -12    1    3    3    0    0 -0.54606397623E+00  0.36504123299E+01  0.91743187573E+01  0.98889747044E+01  0.00000000000E+00 0.  1.
</event>
<event>
 7    1  0.3086024E-009  0.4614232E+02  0.7816164E-02  0.1320468E+00
        -11   -1    0    0    0    0  0.00000000000E+00  0.00000000000E+00  0.45593999997E+02  0.45594000000E+02  0.51100000000E-03 0. -1.
         11   -1    0    0    0    0 -0.00000000000E+00 -0.00000000000E+00 -0.45593999997E+02  0.45594000000E+02  0.51100000000E-03 0.  1.
    9900012    2    1    2    0    0 -0.10326183853E+02  0.29901398587E+02 -0.32068518144E+02  0.46142316895E+02  0.99999921024E+01 0.  0.
         12    1    1    2    0    0  0.10326183853E+02 -0.29901398587E+02  0.32068518144E+02  0.45045683105E+02  0.00000000000E+00 0. -1.
         11    1    3    3    0    0 -0.41656212206E+01  0.13140424074E+02 -0.90338018661E+01  0.16481283973E+02  0.51100000000E-03 0. -1.
        -11    1    3    3    0    0 -0.27019408948E+01  0.13770958013E+02 -0.18512563144E+02  0.23230470585E+02  0.51100000000E-03 0.  1.
         12    1    3    3    0    0 -0.34586217375E+01  0.29900165007E+01 -0.45221531341E+01  0.64305623367E+01  0.00000000000E+00 0. -1.
</event>
<event>
 7    1  0.3086024E-009  0.4614231E+02  0.7816164E-02  0.1320468E+00
        -11   -1    0    0    0    0  0.00000000000E+00  0.00000000000E+00  0.45593999997E+02  0.45594000000E+02  0.51100000000E-03 0.  1.
         11   -1    0    0    0    0 -0.00000000000E+00 -0.00000000000E+00 -0.45593999997E+02  0.45594000000E+02  0.51100000000E-03 0. -1.
    9900012    2    1    2    0    0 -0.33809606338E+01  0.29493625720E+01  0.44821696124E+02  0.46142311219E+02  0.99999403406E+01 0.  0.
         12    1    1    2    0    0  0.33809606338E+01 -0.29493625720E+01 -0.44821696124E+02  0.45045688781E+02  0.00000000000E+00 0. -1.
         11    1    3    3    0    0 -0.38512619937E+01  0.60566902832E+01  0.35269331524E+02  0.35992241699E+02  0.51100000000E-03 0. -1.
        -11    1    3    3    0    0  0.25021605319E+00  0.53382597742E-01  0.55467035041E+00  0.61083322909E+00  0.51100000000E-03 0.  1.
         12    1    3    3    0    0  0.22008530669E+00 -0.31607103090E+01  0.89976942494E+01  0.95392362904E+01  0.00000000000E+00 0. -1.
</event>
<event>
 7    1  0.3086024E-009  0.4614232E+02  0.7816164E-02  0.1320468E+00
        -11   -1    0    0    0    0  0.00000000000E+00  0.00000000000E+00  0.45593999997E+02  0.45594000000E+02  0.51100000000E-03 0.  1.
         11   -1    0    0    0    0 -0.00000000000E+00 -0.00000000000E+00 -0.45593999997E+02  0.45594000000E+02  0.51100000000E-03 0. -1.
    9900012    2    1    2    0    0  0.69776156232E+01  0.38892066658E+02  0.21629460877E+02  0.46142317115E+02  0.99999941102E+01 0.  0.
         12    1    1    2    0    0 -0.69776156232E+01 -0.38892066658E+02 -0.21629460877E+02  0.45045682885E+02  0.00000000000E+00 0. -1.
         11    1    3    3    0    0  0.96847018373E+00  0.27245360618E+01  0.46657763682E+01  0.54891256707E+01  0.51100000000E-03 0. -1.
        -11    1    3    3    0    0  0.18714382165E+01  0.79823452129E+01  0.58633342538E+01  0.10079623253E+02  0.51100000000E-03 0.  1.
         12    1    3    3    0    0  0.41377072229E+01  0.28185185383E+02  0.11100350255E+02  0.30573568191E+02  0.00000000000E+00 0. -1.
</event>
<event>
 7    1  0.3086024E-009  0.4614231E+02  0.7816164E-02  0.1320468E+00
        -11   -1    0    0    0    0  0.00000000000E+00  0.00000000000E+00  0.45593999997E+02  0.45594000000E+02  0.51100000000E-03 0. -1.
         11   -1    0    0    0    0 -0.00000000000E+00 -0.00000000000E+00 -0.45593999997E+02  0.45594000000E+02  0.51100000000E-03 0.  1.
    9900012    2    1    2    0    0 -0.25882826033E+02  0.33068267618E+02 -0.16299800369E+02  0.46142306546E+02  0.99998977286E+01 0.  0.
         12    1    1    2    0    0  0.25882826033E+02 -0.33068267618E+02  0.16299800369E+02  0.45045693454E+02  0.00000000000E+00 0. -1.
         11    1    3    3    0    0  0.38915969244E+00  0.61214260458E+00  0.54298273964E+00  0.90608738609E+00  0.51100000000E-03 0. -1.
        -11    1    3    3    0    0 -0.90688998078E+01  0.11517723578E+02 -0.81733772655E+01  0.16784129299E+02  0.51100000000E-03 0.  1.
         12    1    3    3    0    0 -0.17203085918E+02  0.20938401436E+02 -0.86694058433E+01  0.28452089861E+02  0.00000000000E+00 0. -1.
</event>
<event>
 7    1  0.3086024E-009  0.4614232E+02  0.7816164E-02  0.1320468E+00
        -11   -1    0    0    0    0  0.00000000000E+00  0.00000000000E+00  0.45593999997E+02  0.45594000000E+02  0.51100000000E-03 0.  1.
         11   -1    0    0    0    0 -0.00000000000E+00 -0.00000000000E+00 -0.45593999997E+02  0.45594000000E+02  0.51100000000E-03 0. -1.
    9900012    2    1    2    0    0  0.27894084118E+02 -0.23856804324E+02  0.26112956498E+02  0.46142317205E+02  0.99999949331E+01 0.  0.
         12    1    1    2    0    0 -0.27894084118E+02  0.23856804324E+02 -0.26112956498E+02  0.45045682795E+02  0.00000000000E+00 0. -1.
         11    1    3    3    0    0  0.19408675680E+01  0.89737522776E+00  0.17468233848E+01  0.27610942423E+01  0.51100000000E-03 0. -1.
        -11    1    3    3    0    0  0.27468016293E+01 -0.32231590670E+01  0.29611299407E+01  0.51673943480E+01  0.51100000000E-03 0.  1.
         12    1    3    3    0    0  0.23206414921E+02 -0.21531020485E+02  0.21405003173E+02  0.38213828615E+02  0.00000000000E+00 0. -1.
</event>
<event>
 7    1  0.3086024E-009  0.4614232E+02  0.7816164E-02  0.1320468E+00
        -11   -1    0    0    0    0  0.00000000000E+00  0.00000000000E+00  0.45593999997E+02  0.45594000000E+02  0.51100000000E-03 0.  1.
         11   -1    0    0    0    0 -0.00000000000E+00 -0.00000000000E+00 -0.45593999997E+02  0.45594000000E+02  0.51100000000E-03 0. -1.
    9900012    2    1    2    0    0  0.56354174213E+01  0.30064107900E+02  0.33068185784E+02  0.46142318471E+02  0.10000006477E+02 0.  0.
         12    1    1    2    0    0 -0.56354174213E+01 -0.30064107900E+02 -0.33068185784E+02  0.45045681529E+02  0.00000000000E+00 0. -1.
         11    1    3    3    0    0  0.37174847767E+01  0.55574615703E+01  0.49756384380E+01  0.83343896176E+01  0.51100000000E-03 0. -1.
        -11    1    3    3    0    0  0.29918848800E+01  0.10340074062E+02  0.15182478850E+02  0.18611184031E+02  0.51100000000E-03 0.  1.
         12    1    3    3    0    0 -0.10739522355E+01  0.14166572267E+02  0.12910068496E+02  0.19196744822E+02  0.00000000000E+00 0. -1.
</event>
<event>
 7    1  0.3086024E-009  0.4614232E+02  0.7816164E-02  0.1320468E+00
        -11   -1    0    0    0    0  0.00000000000E+00  0.00000000000E+00  0.45593999997E+02  0.45594000000E+02  0.51100000000E-03 0. -1.
         11   -1    0    0    0    0 -0.00000000000E+00 -0.00000000000E+00 -0.45593999997E+02  0.45594000000E+02  0.51100000000E-03 0.  1.
    9900012    2    1    2    0    0 -0.15887120696E+01  0.40720046417E+02 -0.19195501199E+02  0.46142318159E+02  0.10000003632E+02 0.  0.
         12    1    1    2    0    0  0.15887120696E+01 -0.40720046417E+02  0.19195501199E+02  0.45045681841E+02  0.00000000000E+00 0. -1.
         11    1    3    3    0    0 -0.11453691059E+01  0.12880118238E+02 -0.96987813378E+01  0.16164024125E+02  0.51100000000E-03 0. -1.
        -11    1    3    3    0    0  0.78875114761E+00  0.19677459880E+02 -0.91524948414E+01  0.21716185618E+02  0.51100000000E-03 0.  1.
         12    1    3    3    0    0 -0.12320941113E+01  0.81624682987E+01 -0.34422501978E+00  0.82621084167E+01  0.00000000000E+00 0. -1.
</event>
<event>
 7    1  0.3086024E-009  0.4614232E+02  0.7816164E-02  0.1320468E+00
        -11   -1    0    0    0    0  0.00000000000E+00  0.00000000000E+00  0.45593999997E+02  0.45594000000E+02  0.51100000000E-03 0.  1.
         11   -1    0    0    0    0 -0.00000000000E+00 -0.00000000000E+00 -0.45593999997E+02  0.45594000000E+02  0.51100000000E-03 0. -1.
    9900012    2    1    2    0    0  0.76060921108E+01  0.36251495150E+02  0.25633766060E+02  0.46142317629E+02  0.99999987950E+01 0.  0.
         12    1    1    2    0    0 -0.76060921108E+01 -0.36251495150E+02 -0.25633766060E+02  0.45045682371E+02  0.00000000000E+00 0. -1.
         11    1    3    3    0    0  0.35802508451E+00  0.14857715497E+02  0.90609473577E+01  0.17406339622E+02  0.51100000000E-03 0. -1.
        -11    1    3    3    0    0  0.32426399624E+01  0.17053764578E+02  0.10618000457E+02  0.20349140870E+02  0.51100000000E-03 0.  1.
         12    1    3    3    0    0  0.40054270639E+01  0.43400150762E+01  0.59548182458E+01  0.83868371373E+01  0.00000000000E+00 0. -1.
</event>
<event>
 7    1  0.3086024E-009  0.4614233E+02  0.7816164E-02  0.1320468E+00
        -11   -1    0    0    0    0  0.00000000000E+00  0.00000000000E+00  0.45593999997E+02  0.45594000000E+02  0.51100000000E-03 0.  1.
         11   -1    0    0    0    0 -0.00000000000E+00 -0.00000000000E+00 -0.45593999997E+02  0.45594000000E+02  0.51100000000E-03 0. -1.
    9900012    2    1    2    0    0 -0.34282198823E+02 -0.15561021744E+02  0.24732534556E+02  0.46142325186E+02  0.10000067707E+02 0.  0.
         12    1    1    2    0    0  0.34282198823E+02  0.15561021744E+02 -0.24732534556E+02  0.45045674814E+02  0.00000000000E+00 0. -1.
         11    1    3    3    0    0 -0.12161538724E+02 -0.25538617152E+01  0.63716845825E+01  0.13965084979E+02  0.51100000000E-03 0. -1.
        -11    1    3    3    0    0  0.38749184206E+00  0.55909802637E-01  0.17739805292E+00  0.42982108370E+00  0.51100000000E-03 0.  1.
        -12    1    3    3    0    0 -0.22508151941E+02 -0.13063069831E+02  0.18183451921E+02  0.31747419123E+02  0.00000000000E+00 0.  1.
</event>
<event>
 7    1  0.3086024E-009  0.4614232E+02  0.7816164E-02  0.1320468E+00
        -11   -1    0    0    0    0  0.00000000000E+00  0.00000000000E+00  0.45593999997E+02  0.45594000000E+02  0.51100000000E-03 0.  1.
         11   -1    0    0    0    0 -0.00000000000E+00 -0.00000000000E+00 -0.45593999997E+02  0.45594000000E+02  0.51100000000E-03 0. -1.
    9900012    2    1    2    0    0  0.13242190989E+02 -0.18067818932E+02  0.39080836132E+02  0.46142318121E+02  0.10000003284E+02 0.  0.
         12    1    1    2    0    0 -0.13242190989E+02  0.18067818932E+02 -0.39080836132E+02  0.45045681879E+02  0.00000000000E+00 0. -1.
         11    1    3    3    0    0 -0.12024333556E+01 -0.30600352364E+01  0.53836092457E+01  0.63081622042E+01  0.51100000000E-03 0. -1.
        -11    1    3    3    0    0  0.11157891281E+02 -0.13655216167E+02  0.29054960604E+02  0.33987559523E+02  0.51100000000E-03 0.  1.
         12    1    3    3    0    0  0.32867330641E+01 -0.13525675285E+01  0.46422662825E+01  0.58465963937E+01  0.00000000000E+00 0. -1.
</event>
<event>
 7    1  0.3086024E-009  0.4614232E+02  0.7816164E-02  0.1320468E+00
        -11   -1    0    0    0    0  0.00000000000E+00  0.00000000000E+00  0.45593999997E+02  0.45594000000E+02  0.51100000000E-03 0.  1.
         11   -1    0    0    0    0 -0.00000000000E+00 -0.00000000000E+00 -0.45593999997E+02  0.45594000000E+02  0.51100000000E-03 0. -1.
    9900012    2    1    2    0    0 -0.44056362878E+02 -0.92839049937E+01 -0.13997649438E+01  0.46142319365E+02  0.10000014622E+02 0.  0.
         12    1    1    2    0    0  0.44056362878E+02  0.92839049937E+01  0.13997649438E+01  0.45045680635E+02  0.00000000000E+00 0. -1.
         11    1    3    3    0    0 -0.14387708369E+02  0.40604980948E+00 -0.16859069803E-01  0.14393446879E+02  0.51100000000E-03 0. -1.
        -11    1    3    3    0    0 -0.19204526096E+02 -0.59324021074E+01  0.18097386884E+01  0.20181238112E+02  0.51100000000E-03 0.  1.
         12    1    3    3    0    0 -0.10464128413E+02 -0.37575526957E+01 -0.31926445624E+01  0.11567634373E+02  0.00000000000E+00 0. -1.
</event>
<event>
 7    1  0.3086024E-009  0.4614232E+02  0.7816164E-02  0.1320468E+00
        -11   -1    0    0    0    0  0.00000000000E+00  0.00000000000E+00  0.45593999997E+02  0.45594000000E+02  0.51100000000E-03 0.  1.
         11   -1    0    0    0    0 -0.00000000000E+00 -0.00000000000E+00 -0.45593999997E+02  0.45594000000E+02  0.51100000000E-03 0. -1.
    9900012    2    1    2    0    0 -0.21671223726E+02  0.33746019736E+01  0.39345693331E+02  0.46142318076E+02  0.10000002871E+02 0.  0.
         12    1    1    2    0    0  0.21671223726E+02 -0.33746019736E+01 -0.39345693331E+02  0.45045681924E+02  0.00000000000E+00 0. -1.
         11    1    3    3    0    0 -0.93243438760E+00  0.34053792484E+00  0.47808018998E-01  0.99382384417E+00  0.51100000000E-03 0. -1.
        -11    1    3    3    0    0 -0.22277701617E+01  0.24944592834E+00  0.10954128197E+02  0.11181149672E+02  0.51100000000E-03 0.  1.
        -12    1    3    3    0    0 -0.18511019177E+02  0.27846181205E+01  0.28343757115E+02  0.33967344560E+02  0.00000000000E+00 0.  1.
</event>
<event>
 7    1  0.3086024E-009  0.4614232E+02  0.7816164E-02  0.1320468E+00
        -11   -1    0    0    0    0  0.00000000000E+00  0.00000000000E+00  0.45593999997E+02  0.45594000000E+02  0.51100000000E-03 0. -1.
         11   -1    0    0    0    0 -0.00000000000E+00 -0.00000000000E+00 -0.45593999997E+02  0.45594000000E+02  0.51100000000E-03 0.  1.
    9900012    2    1    2    0    0 -0.11643583959E+02  0.10113409799E+02 -0.42323271711E+02  0.46142318370E+02  0.10000005554E+02 0.  0.
         12    1    1    2    0    0  0.11643583959E+02 -0.10113409799E+02  0.42323271711E+02  0.45045681630E+02  0.00000000000E+00 0. -1.
         11    1    3    3    0    0 -0.29531915921E+01  0.10132527675E+01 -0.65046028963E+01  0.72151147496E+01  0.51100000000E-03 0. -1.
        -11    1    3    3    0    0 -0.70202781121E+01  0.45821371104E+01 -0.12074929628E+02  0.14699803095E+02  0.51100000000E-03 0.  1.
        -12    1    3    3    0    0 -0.16701142551E+01  0.45180199216E+01 -0.23743739187E+02  0.24227400525E+02  0.00000000000E+00 0.  1.
</event>
<event>
 7    1  0.3086024E-009  0.4614232E+02  0.7816164E-02  0.1320468E+00
        -11   -1    0    0    0    0  0.00000000000E+00  0.00000000000E+00  0.45593999997E+02  0.45594000000E+02  0.51100000000E-03 0.  1.
         11   -1    0    0    0    0 -0.00000000000E+00 -0.00000000000E+00 -0.45593999997E+02  0.45594000000E+02  0.51100000000E-03 0. -1.
    9900012    2    1    2    0    0 -0.19125748293E+02  0.23872324544E+02  0.33067067780E+02  0.46142322089E+02  0.10000039464E+02 0.  0.
         12    1    1    2    0    0  0.19125748293E+02 -0.23872324544E+02 -0.33067067780E+02  0.45045677911E+02  0.00000000000E+00 0. -1.
         11    1    3    3    0    0 -0.26927200363E+01  0.65854770874E+00  0.31398767104E+01  0.41884665806E+01  0.51100000000E-03 0. -1.
        -11    1    3    3    0    0 -0.79628719831E+01  0.17098973204E+02  0.20832528524E+02  0.28102961762E+02  0.51100000000E-03 0.  1.
        -12    1    3    3    0    0 -0.84701562735E+01  0.61148036322E+01  0.90946625451E+01  0.13850893746E+02  0.00000000000E+00 0.  1.
</event>
<event>
 7    1  0.3086024E-009  0.4614232E+02  0.7816164E-02  0.1320468E+00
        -11   -1    0    0    0    0  0.00000000000E+00  0.00000000000E+00  0.45593999997E+02  0.45594000000E+02  0.51100000000E-03 0.  1.
         11   -1    0    0    0    0 -0.00000000000E+00 -0.00000000000E+00 -0.45593999997E+02  0.45594000000E+02  0.51100000000E-03 0. -1.
    9900012    2    1    2    0    0  0.32472539836E+02 -0.84852717230E+01  0.30044098008E+02  0.46142317580E+02  0.99999983470E+01 0.  0.
         12    1    1    2    0    0 -0.32472539836E+02  0.84852717230E+01 -0.30044098008E+02  0.45045682420E+02  0.00000000000E+00 0. -1.
         11    1    3    3    0    0  0.13879082539E+02 -0.24526850346E+01  0.11295900044E+02  0.18062169141E+02  0.51100000000E-03 0. -1.
        -11    1    3    3    0    0  0.17807239879E+02 -0.62323950232E+01  0.19383911800E+02  0.27049520823E+02  0.51100000000E-03 0.  1.
        -12    1    3    3    0    0  0.78621741814E+00  0.19980833483E+00 -0.63571383712E+00  0.10306276156E+01  0.00000000000E+00 0.  1.
</event>
<event>
 7    1  0.3086024E-009  0.4614232E+02  0.7816164E-02  0.1320468E+00
        -11   -1    0    0    0    0  0.00000000000E+00  0.00000000000E+00  0.45593999997E+02  0.45594000000E+02  0.51100000000E-03 0. -1.
         11   -1    0    0    0    0 -0.00000000000E+00 -0.00000000000E+00 -0.45593999997E+02  0.45594000000E+02  0.51100000000E-03 0.  1.
    9900012    2    1    2    0    0  0.11658033846E+02 -0.27108540752E+02 -0.34034257607E+02  0.46142318456E+02  0.10000006338E+02 0.  0.
         12    1    1    2    0    0 -0.11658033846E+02  0.27108540752E+02  0.34034257607E+02  0.45045681544E+02  0.00000000000E+00 0. -1.
         11    1    3    3    0    0  0.80918687154E+01 -0.10765302909E+02 -0.14251880084E+02  0.19608318954E+02  0.51100000000E-03 0. -1.
        -11    1    3    3    0    0  0.47010362623E+01 -0.11543553176E+02 -0.16191395257E+02  0.20433175047E+02  0.51100000000E-03 0.  1.
         12    1    3    3    0    0 -0.11348711316E+01 -0.47996846680E+01 -0.35909822662E+01  0.61008244552E+01  0.00000000000E+00 0. -1.
</event>
<event>
 7    1  0.3086024E-009  0.4614231E+02  0.7816164E-02  0.1320468E+00
        -11   -1    0    0    0    0  0.00000000000E+00  0.00000000000E+00  0.45593999997E+02  0.45594000000E+02  0.51100000000E-03 0.  1.
         11   -1    0    0    0    0 -0.00000000000E+00 -0.00000000000E+00 -0.45593999997E+02  0.45594000000E+02  0.51100000000E-03 0. -1.
    9900012    2    1    2    0    0  0.22451074253E+02 -0.31219573649E+02  0.23460634633E+02  0.46142313288E+02  0.99999592111E+01 0.  0.
         12    1    1    2    0    0 -0.22451074253E+02  0.31219573649E+02 -0.23460634633E+02  0.45045686712E+02  0.00000000000E+00 0. -1.
         11    1    3    3    0    0  0.88279161150E+01 -0.10343765234E+02  0.12118082774E+02  0.18214651041E+02  0.51100000000E-03 0. -1.
        -11    1    3    3    0    0  0.85654518715E+01 -0.16842333556E+02  0.97632355343E+01  0.21268566800E+02  0.51100000000E-03 0.  1.
         12    1    3    3    0    0  0.50577062670E+01 -0.40334748591E+01  0.15793163246E+01  0.66590954472E+01  0.00000000000E+00 0. -1.
</event>
<event>
 7    1  0.3086024E-009  0.4614232E+02  0.7816164E-02  0.1320468E+00
        -11   -1    0    0    0    0  0.00000000000E+00  0.00000000000E+00  0.45593999997E+02  0.45594000000E+02  0.51100000000E-03 0.  1.
         11   -1    0    0    0    0 -0.00000000000E+00 -0.00000000000E+00 -0.45593999997E+02  0.45594000000E+02  0.51100000000E-03 0. -1.
    9900012    2    1    2    0    0  0.59646877015E+01 -0.41606835318E+02  0.16198989539E+02  0.46142317559E+02  0.99999981529E+01 0.  0.
         12    1    1    2    0    0 -0.59646877015E+01  0.41606835318E+02 -0.16198989539E+02  0.45045682441E+02  0.00000000000E+00 0. -1.
         11    1    3    3    0    0  0.16762384659E+01 -0.18282582197E+02  0.75805455661E+01  0.19862710252E+02  0.51100000000E-03 0. -1.
        -11    1    3    3    0    0  0.62856239888E+01 -0.16750612952E+02  0.53673523400E+01  0.18678880443E+02  0.51100000000E-03 0.  1.
         12    1    3    3    0    0 -0.19971747532E+01 -0.65736401687E+01  0.32510916327E+01  0.76007268644E+01  0.00000000000E+00 0. -1.
</event>
<event>
 7    1  0.3086024E-009  0.4614232E+02  0.7816164E-02  0.1320468E+00
        -11   -1    0    0    0    0  0.00000000000E+00  0.00000000000E+00  0.45593999997E+02  0.45594000000E+02  0.51100000000E-03 0.  1.
         11   -1    0    0    0    0 -0.00000000000E+00 -0.00000000000E+00 -0.45593999997E+02  0.45594000000E+02  0.51100000000E-03 0. -1.
    9900012    2    1    2    0    0 -0.81472061139E+01  0.18556328318E+02  0.40229332571E+02  0.46142317774E+02  0.10000000114E+02 0.  0.
         12    1    1    2    0    0  0.81472061139E+01 -0.18556328318E+02 -0.40229332571E+02  0.45045682226E+02  0.00000000000E+00 0. -1.
         11    1    3    3    0    0  0.19537153121E+00  0.51726788240E-01  0.22879376386E+01  0.22968466634E+01  0.51100000000E-03 0. -1.
        -11    1    3    3    0    0 -0.79516683844E+01  0.19280938957E+02  0.37397724371E+02  0.42820245510E+02  0.51100000000E-03 0.  1.
        -12    1    3    3    0    0 -0.39090926064E+00 -0.77633742735E+00  0.54367056148E+00  0.10252255998E+01  0.00000000000E+00 0.  1.
</event>
<event>
 7    1  0.3086024E-009  0.4614232E+02  0.7816164E-02  0.1320468E+00
        -11   -1    0    0    0    0  0.00000000000E+00  0.00000000000E+00  0.45593999997E+02  0.45594000000E+02  0.51100000000E-03 0. -1.
         11   -1    0    0    0    0 -0.00000000000E+00 -0.00000000000E+00 -0.45593999997E+02  0.45594000000E+02  0.51100000000E-03 0.  1.
    9900012    2    1    2    0    0 -0.33696030569E+02  0.27356648848E+02 -0.12054246843E+02  0.46142316752E+02  0.99999908020E+01 0.  0.
         12    1    1    2    0    0  0.33696030569E+02 -0.27356648848E+02  0.12054246843E+02  0.45045683248E+02  0.00000000000E+00 0. -1.
         11    1    3    3    0    0 -0.84460908474E+01  0.50809174914E+01 -0.69964685322E+00  0.98813804267E+01  0.51100000000E-03 0.  1.
        -11    1    3    3    0    0 -0.10529984014E+01  0.88265076395E+00  0.98017791174E+00  0.16877876064E+01  0.51100000000E-03 0. -1.
        -12    1    3    3    0    0 -0.24196941320E+02  0.21393080592E+02 -0.12334777902E+02  0.34573148719E+02  0.00000000000E+00 0.  1.
</event>
<event>
 7    1  0.3086024E-009  0.4614232E+02  0.7816164E-02  0.1320468E+00
        -11   -1    0    0    0    0  0.00000000000E+00  0.00000000000E+00  0.45593999997E+02  0.45594000000E+02  0.51100000000E-03 0.  1.
         11   -1    0    0    0    0 -0.00000000000E+00 -0.00000000000E+00 -0.45593999997E+02  0.45594000000E+02  0.51100000000E-03 0. -1.
    9900012    2    1    2    0    0 -0.18471281408E+02 -0.14466844615E+02  0.38453031997E+02  0.46142317635E+02  0.99999988537E+01 0.  0.
         12    1    1    2    0    0  0.18471281408E+02  0.14466844615E+02 -0.38453031997E+02  0.45045682365E+02  0.00000000000E+00 0. -1.
         11    1    3    3    0    0 -0.45970852531E+01 -0.15508382239E+00  0.10374708014E+02  0.11348647957E+02  0.51100000000E-03 0. -1.
        -11    1    3    3    0    0 -0.11944710002E+02 -0.11496809385E+02  0.25877962895E+02  0.30733071550E+02  0.51100000000E-03 0.  1.
         12    1    3    3    0    0 -0.19294861530E+01 -0.28149514073E+01  0.22003610873E+01  0.40605981277E+01  0.00000000000E+00 0. -1.
</event>
<event>
 7    1  0.3086024E-009  0.4614232E+02  0.7816164E-02  0.1320468E+00
        -11   -1    0    0    0    0  0.00000000000E+00  0.00000000000E+00  0.45593999997E+02  0.45594000000E+02  0.51100000000E-03 0. -1.
         11   -1    0    0    0    0 -0.00000000000E+00 -0.00000000000E+00 -0.45593999997E+02  0.45594000000E+02  0.51100000000E-03 0.  1.
    9900012    2    1    2    0    0 -0.41243592059E+02 -0.52945666768E+00  0.18105228110E+02  0.46142317686E+02  0.99999993117E+01 0.  0.
         12    1    1    2    0    0  0.41243592059E+02  0.52945666768E+00 -0.18105228110E+02  0.45045682314E+02  0.00000000000E+00 0. -1.
         11    1    3    3    0    0 -0.25567532807E+02 -0.12424884542E+00  0.13620350996E+02  0.28969434463E+02  0.51100000000E-03 0.  1.
        -11    1    3    3    0    0 -0.46049020436E+01 -0.19427658405E+01 -0.31628441443E+00  0.50079434935E+01  0.51100000000E-03 0. -1.
         12    1    3    3    0    0 -0.11071157208E+02  0.15375580182E+01  0.48011615281E+01  0.12164939729E+02  0.00000000000E+00 0. -1.
</event>
<event>
 7    1  0.3086024E-009  0.4614232E+02  0.7816164E-02  0.1320468E+00
        -11   -1    0    0    0    0  0.00000000000E+00  0.00000000000E+00  0.45593999997E+02  0.45594000000E+02  0.51100000000E-03 0. -1.
         11   -1    0    0    0    0 -0.00000000000E+00 -0.00000000000E+00 -0.45593999997E+02  0.45594000000E+02  0.51100000000E-03 0.  1.
    9900012    2    1    2    0    0 -0.19274264952E+02  0.27244244608E+02 -0.30255038641E+02  0.46142317444E+02  0.99999971127E+01 0.  0.
         12    1    1    2    0    0  0.19274264952E+02 -0.27244244608E+02  0.30255038641E+02  0.45045682556E+02  0.00000000000E+00 0. -1.
         11    1    3    3    0    0 -0.20916566609E+01  0.23846505115E+01 -0.73093096325E+00  0.32551261086E+01  0.51100000000E-03 0. -1.
        -11    1    3    3    0    0  0.54898872363E+00  0.70546557242E+00 -0.11312935671E+00  0.90103762686E+00  0.51100000000E-03 0.  1.
        -12    1    3    3    0    0 -0.17731597015E+02  0.24154128524E+02 -0.29410978321E+02  0.41986153709E+02  0.00000000000E+00 0.  1.
</event>
<event>
 7    1  0.3086024E-009  0.4614232E+02  0.7816164E-02  0.1320468E+00
        -11   -1    0    0    0    0  0.00000000000E+00  0.00000000000E+00  0.45593999997E+02  0.45594000000E+02  0.51100000000E-03 0.  1.
         11   -1    0    0    0    0 -0.00000000000E+00 -0.00000000000E+00 -0.45593999997E+02  0.45594000000E+02  0.51100000000E-03 0. -1.
    9900012    2    1    2    0    0 -0.20354484737E+02  0.18170710325E+02  0.35841787395E+02  0.46142317784E+02  0.10000000205E+02 0.  0.
         12    1    1    2    0    0  0.20354484737E+02 -0.18170710325E+02 -0.35841787395E+02  0.45045682216E+02  0.00000000000E+00 0. -1.
         11    1    3    3    0    0 -0.52313740551E+01  0.55931324499E+00  0.51058907662E+01  0.73314546024E+01  0.51100000000E-03 0. -1.
        -11    1    3    3    0    0 -0.61624192426E+01  0.10529703478E+02  0.17425773603E+02  0.21272227250E+02  0.51100000000E-03 0.  1.
        -12    1    3    3    0    0 -0.89606914399E+01  0.70816936022E+01  0.13310123026E+02  0.17538635931E+02  0.00000000000E+00 0.  1.
</event>
<event>
 7    1  0.3086024E-009  0.4614232E+02  0.7816164E-02  0.1320468E+00
        -11   -1    0    0    0    0  0.00000000000E+00  0.00000000000E+00  0.45593999997E+02  0.45594000000E+02  0.51100000000E-03 0.  1.
         11   -1    0    0    0    0 -0.00000000000E+00 -0.00000000000E+00 -0.45593999997E+02  0.45594000000E+02  0.51100000000E-03 0. -1.
    9900012    2    1    2    0    0  0.17732141745E+02 -0.69997076534E+01  0.40812850216E+02  0.46142317623E+02  0.99999987372E+01 0.  0.
         12    1    1    2    0    0 -0.17732141745E+02  0.69997076534E+01 -0.40812850216E+02  0.45045682377E+02  0.00000000000E+00 0. -1.
         11    1    3    3    0    0  0.22985700944E+00 -0.75924433358E+00 -0.19124604086E+00  0.81600337753E+00  0.51100000000E-03 0. -1.
        -11    1    3    3    0    0  0.11646836732E+02 -0.16765710297E+01  0.27598921719E+02  0.30002669491E+02  0.51100000000E-03 0.  1.
        -12    1    3    3    0    0  0.58554480034E+01 -0.45638922901E+01  0.13405174537E+02  0.15323644754E+02  0.00000000000E+00 0.  1.
</event>
<event>
 7    1  0.3086024E-009  0.4614231E+02  0.7816164E-02  0.1320468E+00
        -11   -1    0    0    0    0  0.00000000000E+00  0.00000000000E+00  0.45593999997E+02  0.45594000000E+02  0.51100000000E-03 0.  1.
         11   -1    0    0    0    0 -0.00000000000E+00 -0.00000000000E+00 -0.45593999997E+02  0.45594000000E+02  0.51100000000E-03 0. -1.
    9900012    2    1    2    0    0 -0.13785424332E+02  0.31671082089E+02  0.28913983636E+02  0.46142314142E+02  0.99999669968E+01 0.  0.
         12    1    1    2    0    0  0.13785424332E+02 -0.31671082089E+02 -0.28913983636E+02  0.45045685858E+02  0.00000000000E+00 0. -1.
         11    1    3    3    0    0 -0.50292672652E+01  0.15093202926E+02  0.11487155251E+02  0.19622768403E+02  0.51100000000E-03 0.  1.
        -11    1    3    3    0    0 -0.37668586223E+00  0.36536035669E+01  0.70433267149E+01  0.79434981423E+01  0.51100000000E-03 0. -1.
        -12    1    3    3    0    0 -0.83794712049E+01  0.12924275596E+02  0.10383501671E+02  0.18576047596E+02  0.00000000000E+00 0.  1.
</event>
<event>
 7    1  0.3086024E-009  0.4614232E+02  0.7816164E-02  0.1320468E+00
        -11   -1    0    0    0    0  0.00000000000E+00  0.00000000000E+00  0.45593999997E+02  0.45594000000E+02  0.51100000000E-03 0.  1.
         11   -1    0    0    0    0 -0.00000000000E+00 -0.00000000000E+00 -0.45593999997E+02  0.45594000000E+02  0.51100000000E-03 0. -1.
    9900012    2    1    2    0    0  0.16213427753E+01  0.93755254531E+01  0.44029357336E+02  0.46142317218E+02  0.99999950473E+01 0.  0.
         12    1    1    2    0    0 -0.16213427753E+01 -0.93755254531E+01 -0.44029357336E+02  0.45045682782E+02  0.00000000000E+00 0. -1.
         11    1    3    3    0    0  0.66921765388E+00  0.40882707238E+01  0.45777914834E+01  0.61739764257E+01  0.51100000000E-03 0. -1.
        -11    1    3    3    0    0  0.21127294422E+01  0.44182222981E+01  0.27959401695E+02  0.28385074553E+02  0.51100000000E-03 0.  1.
         12    1    3    3    0    0 -0.11606043207E+01  0.86903243121E+00  0.11492164157E+02  0.11583266239E+02  0.00000000000E+00 0. -1.
</event>
<event>
 7    1  0.3086024E-009  0.4614232E+02  0.7816164E-02  0.1320468E+00
        -11   -1    0    0    0    0  0.00000000000E+00  0.00000000000E+00  0.45593999997E+02  0.45594000000E+02  0.51100000000E-03 0.  1.
         11   -1    0    0    0    0 -0.00000000000E+00 -0.00000000000E+00 -0.45593999997E+02  0.45594000000E+02  0.51100000000E-03 0. -1.
    9900012    2    1    2    0    0 -0.10786250881E+02 -0.14836151114E+02  0.41141936123E+02  0.46142317677E+02  0.99999992332E+01 0.  0.
         12    1    1    2    0    0  0.10786250881E+02  0.14836151114E+02 -0.41141936123E+02  0.45045682323E+02  0.00000000000E+00 0. -1.
         11    1    3    3    0    0 -0.29522203438E+01 -0.15266488900E+01  0.17344504611E+02  0.17660070845E+02  0.51100000000E-03 0. -1.
        -11    1    3    3    0    0 -0.40192083159E+01 -0.90793974148E+01  0.15879234543E+02  0.18728042686E+02  0.51100000000E-03 0.  1.
         12    1    3    3    0    0 -0.38148222217E+01 -0.42301048095E+01  0.79181969694E+01  0.97542041464E+01  0.00000000000E+00 0. -1.
</event>
<event>
 7    1  0.3086024E-009  0.4614232E+02  0.7816164E-02  0.1320468E+00
        -11   -1    0    0    0    0  0.00000000000E+00  0.00000000000E+00  0.45593999997E+02  0.45594000000E+02  0.51100000000E-03 0.  1.
         11   -1    0    0    0    0 -0.00000000000E+00 -0.00000000000E+00 -0.45593999997E+02  0.45594000000E+02  0.51100000000E-03 0. -1.
    9900012    2    1    2    0    0 -0.25283478056E+02 -0.37279210873E+02  0.34582017487E+00  0.46142318547E+02  0.10000007170E+02 0.  0.
         12    1    1    2    0    0  0.25283478056E+02  0.37279210873E+02 -0.34582017487E+00  0.45045681453E+02  0.00000000000E+00 0. -1.
         11    1    3    3    0    0  0.19931069793E+00  0.45761160213E+00 -0.15114573728E-01  0.49936143641E+00  0.51100000000E-03 0. -1.
        -11    1    3    3    0    0 -0.23160608407E+02 -0.32952235679E+02  0.97605034896E+00  0.40289158499E+02  0.51100000000E-03 0.  1.
         12    1    3    3    0    0 -0.23221803472E+01 -0.47845867964E+01 -0.61511560037E+00  0.53537986121E+01  0.00000000000E+00 0. -1.
</event>
<event>
 7    1  0.3086024E-009  0.4614232E+02  0.7816164E-02  0.1320468E+00
        -11   -1    0    0    0    0  0.00000000000E+00  0.00000000000E+00  0.45593999997E+02  0.45594000000E+02  0.51100000000E-03 0.  1.
         11   -1    0    0    0    0 -0.00000000000E+00 -0.00000000000E+00 -0.45593999997E+02  0.45594000000E+02  0.51100000000E-03 0. -1.
    9900012    2    1    2    0    0  0.33998219818E+02 -0.29481750146E+02 -0.20152240315E+01  0.46142315741E+02  0.99999815803E+01 0.  0.
         12    1    1    2    0    0 -0.33998219818E+02  0.29481750146E+02  0.20152240315E+01  0.45045684259E+02  0.00000000000E+00 0. -1.
         11    1    3    3    0    0  0.18230546785E+02 -0.21174629142E+02 -0.70931810122E+00  0.27950328940E+02  0.51100000000E-03 0. -1.
        -11    1    3    3    0    0  0.10799210056E+02 -0.70937478373E+01 -0.18344702580E+01  0.13050267339E+02  0.51100000000E-03 0.  1.
         12    1    3    3    0    0  0.49684629762E+01 -0.12133731665E+01  0.52856432767E+00  0.51417194629E+01  0.00000000000E+00 0. -1.
</event>
<event>
 7    1  0.3086024E-009  0.4614232E+02  0.7816164E-02  0.1320468E+00
        -11   -1    0    0    0    0  0.00000000000E+00  0.00000000000E+00  0.45593999997E+02  0.45594000000E+02  0.51100000000E-03 0.  1.
         11   -1    0    0    0    0 -0.00000000000E+00 -0.00000000000E+00 -0.45593999997E+02  0.45594000000E+02  0.51100000000E-03 0. -1.
    9900012    2    1    2    0    0  0.28321859881E+02 -0.14466412596E+02  0.31901545942E+02  0.46142317921E+02  0.10000001457E+02 0.  0.
         12    1    1    2    0    0 -0.28321859881E+02  0.14466412596E+02 -0.31901545942E+02  0.45045682079E+02  0.00000000000E+00 0. -1.
         11    1    3    3    0    0  0.10803109591E+02 -0.33391038939E+01  0.14161375626E+02  0.18121847354E+02  0.51100000000E-03 0. -1.
        -11    1    3    3    0    0  0.13299106735E+01 -0.35127616838E+01  0.24311614530E+01  0.44742265609E+01  0.51100000000E-03 0.  1.
        -12    1    3    3    0    0  0.16188839616E+02 -0.76145470186E+01  0.15309008863E+02  0.23546244006E+02  0.00000000000E+00 0.  1.
</event>
<event>
 7    1  0.3086024E-009  0.4614232E+02  0.7816164E-02  0.1320468E+00
        -11   -1    0    0    0    0  0.00000000000E+00  0.00000000000E+00  0.45593999997E+02  0.45594000000E+02  0.51100000000E-03 0.  1.
         11   -1    0    0    0    0 -0.00000000000E+00 -0.00000000000E+00 -0.45593999997E+02  0.45594000000E+02  0.51100000000E-03 0. -1.
    9900012    2    1    2    0    0  0.12673159068E+02 -0.21138364554E+02  0.37705092821E+02  0.46142318282E+02  0.10000004753E+02 0.  0.
         12    1    1    2    0    0 -0.12673159068E+02  0.21138364554E+02 -0.37705092821E+02  0.45045681718E+02  0.00000000000E+00 0. -1.
         11    1    3    3    0    0  0.18846744223E+01 -0.10278438371E+02  0.11950000968E+02  0.15874533581E+02  0.51100000000E-03 0. -1.
        -11    1    3    3    0    0  0.74333749946E+01 -0.74666329237E+01  0.13558159975E+02  0.17170596180E+02  0.51100000000E-03 0.  1.
         12    1    3    3    0    0  0.33551096512E+01 -0.33932932599E+01  0.12196931878E+02  0.13097188521E+02  0.00000000000E+00 0. -1.
</event>
<event>
 7    1  0.3086024E-009  0.4614232E+02  0.7816164E-02  0.1320468E+00
        -11   -1    0    0    0    0  0.00000000000E+00  0.00000000000E+00  0.45593999997E+02  0.45594000000E+02  0.51100000000E-03 0.  1.
         11   -1    0    0    0    0 -0.00000000000E+00 -0.00000000000E+00 -0.45593999997E+02  0.45594000000E+02  0.51100000000E-03 0. -1.
    9900012    2    1    2    0    0 -0.39628238207E+02 -0.14604645280E+02  0.15665905532E+02  0.46142317374E+02  0.99999964660E+01 0.  0.
         12    1    1    2    0    0  0.39628238207E+02  0.14604645280E+02 -0.15665905532E+02  0.45045682626E+02  0.00000000000E+00 0. -1.
         11    1    3    3    0    0 -0.25245984082E+02 -0.96810819038E+01  0.13470433043E+02  0.30208204609E+02  0.51100000000E-03 0.  1.
        -11    1    3    3    0    0 -0.10250595864E+02 -0.54248756804E+01  0.19900574256E+01  0.11767086323E+02  0.51100000000E-03 0. -1.
         12    1    3    3    0    0 -0.41316582613E+01  0.50131230435E+00  0.20541506331E+00  0.41670264414E+01  0.00000000000E+00 0. -1.
</event>
<event>
 7    1  0.3086024E-009  0.4614232E+02  0.7816164E-02  0.1320468E+00
        -11   -1    0    0    0    0  0.00000000000E+00  0.00000000000E+00  0.45593999997E+02  0.45594000000E+02  0.51100000000E-03 0.  1.
         11   -1    0    0    0    0 -0.00000000000E+00 -0.00000000000E+00 -0.45593999997E+02  0.45594000000E+02  0.51100000000E-03 0. -1.
    9900012    2    1    2    0    0  0.87541033067E+01  0.54038138949E+01  0.43855192845E+02  0.46142317978E+02  0.10000001980E+02 0.  0.
         12    1    1    2    0    0 -0.87541033067E+01 -0.54038138949E+01 -0.43855192845E+02  0.45045682022E+02  0.00000000000E+00 0. -1.
         11    1    3    3    0    0 -0.58625773023E-01 -0.20466101922E+01  0.51039463838E+01  0.54993017021E+01  0.51100000000E-03 0. -1.
        -11    1    3    3    0    0  0.46163177094E+01  0.62838923105E+01  0.22252810939E+02  0.23579340252E+02  0.51100000000E-03 0.  1.
        -12    1    3    3    0    0  0.41964113703E+01  0.11665317767E+01  0.16498435522E+02  0.17063676024E+02  0.00000000000E+00 0.  1.
</event>
<event>
 7    1  0.3086024E-009  0.4614232E+02  0.7816164E-02  0.1320468E+00
        -11   -1    0    0    0    0  0.00000000000E+00  0.00000000000E+00  0.45593999997E+02  0.45594000000E+02  0.51100000000E-03 0.  1.
         11   -1    0    0    0    0 -0.00000000000E+00 -0.00000000000E+00 -0.45593999997E+02  0.45594000000E+02  0.51100000000E-03 0. -1.
    9900012    2    1    2    0    0 -0.43185543521E+02  0.10559240611E+02 -0.72543020365E+01  0.46142316194E+02  0.99999857113E+01 0.  0.
         12    1    1    2    0    0  0.43185543521E+02 -0.10559240611E+02  0.72543020365E+01  0.45045683806E+02  0.00000000000E+00 0. -1.
         11    1    3    3    0    0 -0.76842126196E+01 -0.55903382570E+00 -0.22194194049E+00  0.77077169698E+01  0.51100000000E-03 0. -1.
        -11    1    3    3    0    0 -0.33131012819E+02  0.88914608247E+01 -0.51813197091E+01  0.34692479879E+02  0.51100000000E-03 0.  1.
         12    1    3    3    0    0 -0.23703180829E+01  0.22268136124E+01 -0.18510403870E+01  0.37421193451E+01  0.00000000000E+00 0. -1.
</event>
<event>
 7    1  0.3086024E-009  0.4614232E+02  0.7816164E-02  0.1320468E+00
        -11   -1    0    0    0    0  0.00000000000E+00  0.00000000000E+00  0.45593999997E+02  0.45594000000E+02  0.51100000000E-03 0.  1.
         11   -1    0    0    0    0 -0.00000000000E+00 -0.00000000000E+00 -0.45593999997E+02  0.45594000000E+02  0.51100000000E-03 0. -1.
    9900012    2    1    2    0    0 -0.18455856015E+02  0.25400385683E+02  0.32300390557E+02  0.46142318250E+02  0.10000004462E+02 0.  0.
         12    1    1    2    0    0  0.18455856015E+02 -0.25400385683E+02 -0.32300390557E+02  0.45045681750E+02  0.00000000000E+00 0. -1.
         11    1    3    3    0    0 -0.13057209699E+01  0.52286269976E-01  0.21561665099E+01  0.25212487749E+01  0.51100000000E-03 0. -1.
        -11    1    3    3    0    0 -0.16898430704E+02  0.20558441346E+02  0.26840580850E+02  0.37797132847E+02  0.51100000000E-03 0.  1.
        -12    1    3    3    0    0 -0.25170434188E+00  0.47896580670E+01  0.33036431974E+01  0.58239366283E+01  0.00000000000E+00 0.  1.
</event>
<event>
 7    1  0.3086024E-009  0.4614232E+02  0.7816164E-02  0.1320468E+00
        -11   -1    0    0    0    0  0.00000000000E+00  0.00000000000E+00  0.45593999997E+02  0.45594000000E+02  0.51100000000E-03 0. -1.
         11   -1    0    0    0    0 -0.00000000000E+00 -0.00000000000E+00 -0.45593999997E+02  0.45594000000E+02  0.51100000000E-03 0.  1.
    9900012    2    1    2    0    0 -0.88774811380E+01 -0.32604096377E+02 -0.29787190686E+02  0.46142317622E+02  0.99999987346E+01 0.  0.
         12    1    1    2    0    0  0.88774811380E+01  0.32604096377E+02  0.29787190686E+02  0.45045682378E+02  0.00000000000E+00 0. -1.
         11    1    3    3    0    0 -0.68809392020E+01 -0.19074553828E+02 -0.23437712408E+02  0.30992132731E+02  0.51100000000E-03 0. -1.
        -11    1    3    3    0    0 -0.78460222325E+00 -0.75522300945E+01 -0.42413917425E+01  0.86971940431E+01  0.51100000000E-03 0.  1.
         12    1    3    3    0    0 -0.12119397127E+01 -0.59773124545E+01 -0.21080865352E+01  0.64529908481E+01  0.00000000000E+00 0. -1.
</event>
<event>
 7    1  0.3086024E-009  0.4614232E+02  0.7816164E-02  0.1320468E+00
        -11   -1    0    0    0    0  0.00000000000E+00  0.00000000000E+00  0.45593999997E+02  0.45594000000E+02  0.51100000000E-03 0.  1.
         11   -1    0    0    0    0 -0.00000000000E+00 -0.00000000000E+00 -0.45593999997E+02  0.45594000000E+02  0.51100000000E-03 0. -1.
    9900012    2    1    2    0    0  0.31201391036E+01 -0.32782103736E+02  0.30736165460E+02  0.46142318070E+02  0.10000002814E+02 0.  0.
         12    1    1    2    0    0 -0.31201391036E+01  0.32782103736E+02 -0.30736165460E+02  0.45045681930E+02  0.00000000000E+00 0. -1.
         11    1    3    3    0    0 -0.20569337869E+01 -0.16440859446E+02  0.14425876908E+02  0.21969040961E+02  0.51100000000E-03 0. -1.
        -11    1    3    3    0    0  0.14990600822E+01 -0.11123399416E+02  0.84615166899E+01  0.14056118264E+02  0.51100000000E-03 0.  1.
         12    1    3    3    0    0  0.36780128084E+01 -0.52178448746E+01  0.78487718618E+01  0.10117158845E+02  0.00000000000E+00 0. -1.
</event>
<event>
 7    1  0.3086024E-009  0.4614233E+02  0.7816164E-02  0.1320468E+00
        -11   -1    0    0    0    0  0.00000000000E+00  0.00000000000E+00  0.45593999997E+02  0.45594000000E+02  0.51100000000E-03 0. -1.
         11   -1    0    0    0    0 -0.00000000000E+00 -0.00000000000E+00 -0.45593999997E+02  0.45594000000E+02  0.51100000000E-03 0.  1.
    9900012    2    1    2    0    0 -0.27531783387E+02  0.27191015597E+02 -0.23059962037E+02  0.46142331231E+02  0.10000122831E+02 0.  0.
         12    1    1    2    0    0  0.27531783387E+02 -0.27191015597E+02  0.23059962037E+02  0.45045668769E+02  0.00000000000E+00 0. -1.
         11    1    3    3    0    0 -0.97133182749E+00  0.39005106279E+01 -0.70911872039E+00  0.40817053174E+01  0.51100000000E-03 0. -1.
        -11    1    3    3    0    0 -0.14436485614E+02  0.11207393596E+02 -0.91143060417E+01  0.20422741319E+02  0.51100000000E-03 0.  1.
        -12    1    3    3    0    0 -0.12123965946E+02  0.12083111373E+02 -0.13236537275E+02  0.21637884595E+02  0.00000000000E+00 0.  1.
</event>
<event>
 7    1  0.3086024E-009  0.4614232E+02  0.7816164E-02  0.1320468E+00
        -11   -1    0    0    0    0  0.00000000000E+00  0.00000000000E+00  0.45593999997E+02  0.45594000000E+02  0.51100000000E-03 0.  1.
         11   -1    0    0    0    0 -0.00000000000E+00 -0.00000000000E+00 -0.45593999997E+02  0.45594000000E+02  0.51100000000E-03 0. -1.
    9900012    2    1    2    0    0  0.27004148497E+02 -0.64718775743E+01  0.35468355427E+02  0.46142317942E+02  0.10000001651E+02 0.  0.
         12    1    1    2    0    0 -0.27004148497E+02  0.64718775743E+01 -0.35468355427E+02  0.45045682058E+02  0.00000000000E+00 0. -1.
         11    1    3    3    0    0  0.30602306441E+01 -0.14714237199E+01  0.64481047783E+00  0.34562812635E+01  0.51100000000E-03 0. -1.
        -11    1    3    3    0    0  0.10691446520E+02 -0.60401901265E+00  0.14375148657E+02  0.17925310788E+02  0.51100000000E-03 0.  1.
         12    1    3    3    0    0  0.13252471332E+02 -0.43964348418E+01  0.20448396292E+02  0.24760725891E+02  0.00000000000E+00 0. -1.
</event>
<event>
 7    1  0.3086024E-009  0.4614232E+02  0.7816164E-02  0.1320468E+00
        -11   -1    0    0    0    0  0.00000000000E+00  0.00000000000E+00  0.45593999997E+02  0.45594000000E+02  0.51100000000E-03 0.  1.
         11   -1    0    0    0    0 -0.00000000000E+00 -0.00000000000E+00 -0.45593999997E+02  0.45594000000E+02  0.51100000000E-03 0. -1.
    9900012    2    1    2    0    0  0.27438640604E+02  0.21687641668E+02  0.28388039585E+02  0.46142316625E+02  0.99999896355E+01 0.  0.
         12    1    1    2    0    0 -0.27438640604E+02 -0.21687641668E+02 -0.28388039585E+02  0.45045683375E+02  0.00000000000E+00 0. -1.
         11    1    3    3    0    0  0.21047865591E+02  0.16662721049E+02  0.19909402594E+02  0.33422196675E+02  0.51100000000E-03 0. -1.
        -11    1    3    3    0    0  0.22723375423E+01 -0.63882996616E+00  0.30658886240E+01  0.38692757653E+01  0.51100000000E-03 0.  1.
         12    1    3    3    0    0  0.41184374708E+01  0.56637505845E+01  0.54127483676E+01  0.88508441843E+01  0.00000000000E+00 0. -1.
</event>
<event>
 7    1  0.3086024E-009  0.4614232E+02  0.7816164E-02  0.1320468E+00
        -11   -1    0    0    0    0  0.00000000000E+00  0.00000000000E+00  0.45593999997E+02  0.45594000000E+02  0.51100000000E-03 0.  1.
         11   -1    0    0    0    0 -0.00000000000E+00 -0.00000000000E+00 -0.45593999997E+02  0.45594000000E+02  0.51100000000E-03 0. -1.
    9900012    2    1    2    0    0  0.22199278397E+02  0.27415738805E+02  0.28012189350E+02  0.46142318212E+02  0.10000004113E+02 0.  0.
         12    1    1    2    0    0 -0.22199278397E+02 -0.27415738805E+02 -0.28012189350E+02  0.45045681788E+02  0.00000000000E+00 0. -1.
         11    1    3    3    0    0  0.73031739257E+00  0.37816593575E+01  0.50532192392E+01  0.63536867982E+01  0.51100000000E-03 0. -1.
        -11    1    3    3    0    0  0.76648153483E+01  0.77244988216E+01  0.44793699856E+01  0.11767838888E+02  0.51100000000E-03 0.  1.
        -12    1    3    3    0    0  0.13804145656E+02  0.15909580625E+02  0.18479600125E+02  0.28020792526E+02  0.00000000000E+00 0.  1.
</event>
<event>
 7    1  0.3086024E-009  0.4614232E+02  0.7816164E-02  0.1320468E+00
        -11   -1    0    0    0    0  0.00000000000E+00  0.00000000000E+00  0.45593999997E+02  0.45594000000E+02  0.51100000000E-03 0. -1.
         11   -1    0    0    0    0 -0.00000000000E+00 -0.00000000000E+00 -0.45593999997E+02  0.45594000000E+02  0.51100000000E-03 0.  1.
    9900012    2    1    2    0    0 -0.13540148092E+02  0.22552445096E+02 -0.36567267880E+02  0.46142317961E+02  0.10000001820E+02 0.  0.
         12    1    1    2    0    0  0.13540148092E+02 -0.22552445096E+02  0.36567267880E+02  0.45045682039E+02  0.00000000000E+00 0. -1.
         11    1    3    3    0    0  0.13663062213E+01  0.29384628414E+01 -0.46538977431E+01  0.56709894220E+01  0.51100000000E-03 0. -1.
        -11    1    3    3    0    0 -0.49745510366E+01  0.92948240440E+01 -0.12648689437E+02  0.16466003060E+02  0.51100000000E-03 0.  1.
         12    1    3    3    0    0 -0.99319032772E+01  0.10319158210E+02 -0.19264680700E+02  0.24005325479E+02  0.00000000000E+00 0. -1.
</event>
<event>
 7    1  0.3086024E-009  0.4614232E+02  0.7816164E-02  0.1320468E+00
        -11   -1    0    0    0    0  0.00000000000E+00  0.00000000000E+00  0.45593999997E+02  0.45594000000E+02  0.51100000000E-03 0.  1.
         11   -1    0    0    0    0 -0.00000000000E+00 -0.00000000000E+00 -0.45593999997E+02  0.45594000000E+02  0.51100000000E-03 0. -1.
    9900012    2    1    2    0    0 -0.41240649658E+01 -0.27387144688E+02  0.35525341983E+02  0.46142317310E+02  0.99999958870E+01 0.  0.
         12    1    1    2    0    0  0.41240649658E+01  0.27387144688E+02 -0.35525341983E+02  0.45045682690E+02  0.00000000000E+00 0. -1.
         11    1    3    3    0    0  0.19975568458E+01 -0.11212400353E+01  0.38584446108E+01  0.44872048811E+01  0.51100000000E-03 0. -1.
        -11    1    3    3    0    0 -0.55987723821E+00 -0.70937691181E+00  0.11848012210E+01  0.14901115124E+01  0.51100000000E-03 0.  1.
         12    1    3    3    0    0 -0.55617445735E+01 -0.25556527741E+02  0.30482096151E+02  0.40165000917E+02  0.00000000000E+00 0. -1.
</event>
<event>
 7    1  0.3086024E-009  0.4614232E+02  0.7816164E-02  0.1320468E+00
        -11   -1    0    0    0    0  0.00000000000E+00  0.00000000000E+00  0.45593999997E+02  0.45594000000E+02  0.51100000000E-03 0.  1.
         11   -1    0    0    0    0 -0.00000000000E+00 -0.00000000000E+00 -0.45593999997E+02  0.45594000000E+02  0.51100000000E-03 0. -1.
    9900012    2    1    2    0    0 -0.77480863399E+01  0.44363257339E+02  0.99094684667E+00  0.46142318528E+02  0.10000006989E+02 0.  0.
         12    1    1    2    0    0  0.77480863399E+01 -0.44363257339E+02 -0.99094684667E+00  0.45045681472E+02  0.00000000000E+00 0. -1.
         11    1    3    3    0    0  0.10048984521E+01  0.11217084139E+02 -0.12909519844E+01  0.11335755589E+02  0.51100000000E-03 0. -1.
        -11    1    3    3    0    0 -0.45280294616E+01  0.25564826101E+02  0.27922743733E+01  0.26112452601E+02  0.51100000000E-03 0.  1.
        -12    1    3    3    0    0 -0.42249553304E+01  0.75813470988E+01 -0.51037554228E+00  0.86941103380E+01  0.00000000000E+00 0.  1.
</event>
<event>
 7    1  0.3086024E-009  0.4614232E+02  0.7816164E-02  0.1320468E+00
        -11   -1    0    0    0    0  0.00000000000E+00  0.00000000000E+00  0.45593999997E+02  0.45594000000E+02  0.51100000000E-03 0.  1.
         11   -1    0    0    0    0 -0.00000000000E+00 -0.00000000000E+00 -0.45593999997E+02  0.45594000000E+02  0.51100000000E-03 0. -1.
    9900012    2    1    2    0    0 -0.33230030605E+02 -0.25307697590E+02  0.16864132901E+02  0.46142317967E+02  0.10000001878E+02 0.  0.
         12    1    1    2    0    0  0.33230030605E+02  0.25307697590E+02 -0.16864132901E+02  0.45045682033E+02  0.00000000000E+00 0. -1.
         11    1    3    3    0    0 -0.19750264681E+02 -0.12166687541E+02  0.10940896391E+02  0.25647698820E+02  0.51100000000E-03 0. -1.
        -11    1    3    3    0    0 -0.15409211867E+01 -0.42659592875E+01  0.26820990798E+01  0.52693929899E+01  0.51100000000E-03 0.  1.
         12    1    3    3    0    0 -0.11938844737E+02 -0.88750507619E+01  0.32411374298E+01  0.15225226157E+02  0.00000000000E+00 0. -1.
</event>
<event>
 7    1  0.3086024E-009  0.4614232E+02  0.7816164E-02  0.1320468E+00
        -11   -1    0    0    0    0  0.00000000000E+00  0.00000000000E+00  0.45593999997E+02  0.45594000000E+02  0.51100000000E-03 0.  1.
         11   -1    0    0    0    0 -0.00000000000E+00 -0.00000000000E+00 -0.45593999997E+02  0.45594000000E+02  0.51100000000E-03 0. -1.
    9900012    2    1    2    0    0  0.36702562509E+02 -0.24296585203E+02  0.95766035992E+01  0.46142317812E+02  0.10000000466E+02 0.  0.
         12    1    1    2    0    0 -0.36702562509E+02  0.24296585203E+02 -0.95766035992E+01  0.45045682188E+02  0.00000000000E+00 0. -1.
         11    1    3    3    0    0  0.45741980081E+01 -0.30016145413E+01  0.27848124687E+01  0.61390681718E+01  0.51100000000E-03 0. -1.
        -11    1    3    3    0    0  0.27602817827E+02 -0.21194572854E+02  0.51105964753E+01  0.35174474653E+02  0.51100000000E-03 0.  1.
        -12    1    3    3    0    0  0.45255466736E+01 -0.10039780763E+00  0.16811946552E+01  0.48287749879E+01  0.00000000000E+00 0.  1.
</event>
<event>
 7    1  0.3086024E-009  0.4614232E+02  0.7816164E-02  0.1320468E+00
        -11   -1    0    0    0    0  0.00000000000E+00  0.00000000000E+00  0.45593999997E+02  0.45594000000E+02  0.51100000000E-03 0.  1.
         11   -1    0    0    0    0 -0.00000000000E+00 -0.00000000000E+00 -0.45593999997E+02  0.45594000000E+02  0.51100000000E-03 0. -1.
    9900012    2    1    2    0    0  0.22143159202E+02  0.97219517805E+01  0.38003652653E+02  0.46142318067E+02  0.10000002792E+02 0.  0.
         12    1    1    2    0    0 -0.22143159202E+02 -0.97219517805E+01 -0.38003652653E+02  0.45045681933E+02  0.00000000000E+00 0. -1.
         11    1    3    3    0    0  0.65891113400E+00  0.24791976390E+01  0.23345155607E+01  0.34685080337E+01  0.51100000000E-03 0. -1.
        -11    1    3    3    0    0  0.12347123235E+02  0.11075284729E+01  0.19841258397E+02  0.23395589467E+02  0.51100000000E-03 0.  1.
        -12    1    3    3    0    0  0.91371248331E+01  0.61352256686E+01  0.15827878695E+02  0.19278220566E+02  0.00000000000E+00 0.  1.
</event>
<event>
 7    1  0.3086024E-009  0.4614232E+02  0.7816164E-02  0.1320468E+00
        -11   -1    0    0    0    0  0.00000000000E+00  0.00000000000E+00  0.45593999997E+02  0.45594000000E+02  0.51100000000E-03 0.  1.
         11   -1    0    0    0    0 -0.00000000000E+00 -0.00000000000E+00 -0.45593999997E+02  0.45594000000E+02  0.51100000000E-03 0. -1.
    9900012    2    1    2    0    0  0.22858889103E+01  0.20581887519E+02  0.40003425862E+02  0.46142318047E+02  0.10000002604E+02 0.  0.
         12    1    1    2    0    0 -0.22858889103E+01 -0.20581887519E+02 -0.40003425862E+02  0.45045681953E+02  0.00000000000E+00 0. -1.
         11    1    3    3    0    0  0.75810639660E+00  0.14742773869E+01  0.13580921667E+01  0.21430430972E+01  0.51100000000E-03 0. -1.
        -11    1    3    3    0    0  0.28124812281E+01  0.12758933592E+02  0.32674388615E+02  0.35189715950E+02  0.51100000000E-03 0.  1.
        -12    1    3    3    0    0 -0.12846987143E+01  0.63486765409E+01  0.59709450802E+01  0.88095589991E+01  0.00000000000E+00 0.  1.
</event>
<event>
 7    1  0.3086024E-009  0.4614232E+02  0.7816164E-02  0.1320468E+00
        -11   -1    0    0    0    0  0.00000000000E+00  0.00000000000E+00  0.45593999997E+02  0.45594000000E+02  0.51100000000E-03 0.  1.
         11   -1    0    0    0    0 -0.00000000000E+00 -0.00000000000E+00 -0.45593999997E+02  0.45594000000E+02  0.51100000000E-03 0. -1.
    9900012    2    1    2    0    0 -0.36604222339E+02 -0.19629140115E+01  0.26179981069E+02  0.46142317263E+02  0.99999954587E+01 0.  0.
         12    1    1    2    0    0  0.36604222339E+02  0.19629140115E+01 -0.26179981069E+02  0.45045682737E+02  0.00000000000E+00 0. -1.
         11    1    3    3    0    0 -0.10288743440E+01  0.86101108977E+00  0.27575788806E+01  0.30666209509E+01  0.51100000000E-03 0. -1.
        -11    1    3    3    0    0 -0.19595556947E+02  0.49482401331E-01  0.15634534330E+02  0.25068445595E+02  0.51100000000E-03 0.  1.
        -12    1    3    3    0    0 -0.15979791048E+02 -0.28734075026E+01  0.77878678584E+01  0.18007250717E+02  0.00000000000E+00 0.  1.
</event>
<event>
 7    1  0.3086024E-009  0.4614232E+02  0.7816164E-02  0.1320468E+00
        -11   -1    0    0    0    0  0.00000000000E+00  0.00000000000E+00  0.45593999997E+02  0.45594000000E+02  0.51100000000E-03 0.  1.
         11   -1    0    0    0    0 -0.00000000000E+00 -0.00000000000E+00 -0.45593999997E+02  0.45594000000E+02  0.51100000000E-03 0. -1.
    9900012    2    1    2    0    0 -0.43420962678E+00  0.17215923407E+02  0.41623753968E+02  0.46142318175E+02  0.10000003771E+02 0.  0.
         12    1    1    2    0    0  0.43420962678E+00 -0.17215923407E+02 -0.41623753968E+02  0.45045681825E+02  0.00000000000E+00 0. -1.
         11    1    3    3    0    0  0.12097168123E+01  0.40389106070E+01  0.86592772189E+01  0.96311627477E+01  0.51100000000E-03 0. -1.
        -11    1    3    3    0    0  0.27983809265E+01  0.58159496883E+01  0.19457183889E+02  0.20499712479E+02  0.51100000000E-03 0.  1.
        -12    1    3    3    0    0 -0.44423073656E+01  0.73610631115E+01  0.13507292860E+02  0.16011442948E+02  0.00000000000E+00 0.  1.
</event>
<event>
 7    1  0.3086024E-009  0.4614232E+02  0.7816164E-02  0.1320468E+00
        -11   -1    0    0    0    0  0.00000000000E+00  0.00000000000E+00  0.45593999997E+02  0.45594000000E+02  0.51100000000E-03 0.  1.
         11   -1    0    0    0    0 -0.00000000000E+00 -0.00000000000E+00 -0.45593999997E+02  0.45594000000E+02  0.51100000000E-03 0. -1.
    9900012    2    1    2    0    0  0.22020387235E+01  0.23520757886E+02  0.38354116854E+02  0.46142319788E+02  0.10000018486E+02 0.  0.
         12    1    1    2    0    0 -0.22020387235E+01 -0.23520757886E+02 -0.38354116854E+02  0.45045680212E+02  0.00000000000E+00 0. -1.
         11    1    3    3    0    0  0.19318284266E+01  0.60938910816E+01  0.13318529119E+02  0.14773309979E+02  0.51100000000E-03 0. -1.
        -11    1    3    3    0    0  0.46781297220E+00  0.41047579233E+01  0.16387224274E+01  0.44444682517E+01  0.51100000000E-03 0.  1.
        -12    1    3    3    0    0 -0.19760267532E+00  0.13322108881E+02  0.23396865308E+02  0.26924541558E+02  0.00000000000E+00 0.  1.
</event>
<event>
 7    1  0.3086024E-009  0.4614232E+02  0.7816164E-02  0.1320468E+00
        -11   -1    0    0    0    0  0.00000000000E+00  0.00000000000E+00  0.45593999997E+02  0.45594000000E+02  0.51100000000E-03 0.  1.
         11   -1    0    0    0    0 -0.00000000000E+00 -0.00000000000E+00 -0.45593999997E+02  0.45594000000E+02  0.51100000000E-03 0. -1.
    9900012    2    1    2    0    0  0.89761179809E+01  0.32918855174E+02  0.29409042953E+02  0.46142317328E+02  0.99999960508E+01 0.  0.
         12    1    1    2    0    0 -0.89761179809E+01 -0.32918855174E+02 -0.29409042953E+02  0.45045682672E+02  0.00000000000E+00 0. -1.
         11    1    3    3    0    0  0.21709205179E+01  0.19901749293E+01  0.63424435362E+00  0.30126331183E+01  0.51100000000E-03 0. -1.
        -11    1    3    3    0    0  0.29070657652E+01  0.58077404676E+01  0.39720415932E+01  0.76130148681E+01  0.51100000000E-03 0.  1.
         12    1    3    3    0    0  0.38981316977E+01  0.25120939778E+02  0.24802757006E+02  0.35516669342E+02  0.00000000000E+00 0. -1.
</event>
<event>
 7    1  0.3086024E-009  0.4614232E+02  0.7816164E-02  0.1320468E+00
        -11   -1    0    0    0    0  0.00000000000E+00  0.00000000000E+00  0.45593999997E+02  0.45594000000E+02  0.51100000000E-03 0.  1.
         11   -1    0    0    0    0 -0.00000000000E+00 -0.00000000000E+00 -0.45593999997E+02  0.45594000000E+02  0.51100000000E-03 0. -1.
    9900012    2    1    2    0    0 -0.19160173901E+02  0.15561479934E+02  0.37680784128E+02  0.46142318584E+02  0.10000007507E+02 0.  0.
         12    1    1    2    0    0  0.19160173901E+02 -0.15561479934E+02 -0.37680784128E+02  0.45045681416E+02  0.00000000000E+00 0. -1.
         11    1    3    3    0    0 -0.56807155701E+01  0.49262814738E+00  0.84251114929E+01  0.10173284416E+02  0.51100000000E-03 0. -1.
        -11    1    3    3    0    0 -0.67250807214E+01  0.45049672942E+01  0.86372196607E+01  0.11837356325E+02  0.51100000000E-03 0.  1.
        -12    1    3    3    0    0 -0.67543776097E+01  0.10563884493E+02  0.20618452975E+02  0.24131677844E+02  0.00000000000E+00 0.  1.
</event>
<event>
 7    1  0.3086024E-009  0.4614232E+02  0.7816164E-02  0.1320468E+00
        -11   -1    0    0    0    0  0.00000000000E+00  0.00000000000E+00  0.45593999997E+02  0.45594000000E+02  0.51100000000E-03 0.  1.
         11   -1    0    0    0    0 -0.00000000000E+00 -0.00000000000E+00 -0.45593999997E+02  0.45594000000E+02  0.51100000000E-03 0. -1.
    9900012    2    1    2    0    0 -0.78380900548E+01 -0.13406520998E+02  0.42284074936E+02  0.46142318141E+02  0.10000003463E+02 0.  0.
         12    1    1    2    0    0  0.78380900548E+01  0.13406520998E+02 -0.42284074936E+02  0.45045681859E+02  0.00000000000E+00 0. -1.
         11    1    3    3    0    0 -0.14812073907E+01  0.33402700967E+00  0.49942087691E+01  0.52199301593E+01  0.51100000000E-03 0. -1.
        -11    1    3    3    0    0 -0.31370415081E+01 -0.58204156114E+00  0.91781220861E+01  0.97168784643E+01  0.51100000000E-03 0.  1.
         12    1    3    3    0    0 -0.32198411560E+01 -0.13158506447E+02  0.28111744081E+02  0.31205509517E+02  0.00000000000E+00 0. -1.
</event>
<event>
 7    1  0.3086024E-009  0.4614232E+02  0.7816164E-02  0.1320468E+00
        -11   -1    0    0    0    0  0.00000000000E+00  0.00000000000E+00  0.45593999997E+02  0.45594000000E+02  0.51100000000E-03 0.  1.
         11   -1    0    0    0    0 -0.00000000000E+00 -0.00000000000E+00 -0.45593999997E+02  0.45594000000E+02  0.51100000000E-03 0. -1.
    9900012    2    1    2    0    0  0.30593553339E+01  0.96573385418E+01  0.43891792087E+02  0.46142320347E+02  0.10000023583E+02 0.  0.
         12    1    1    2    0    0 -0.30593553339E+01 -0.96573385418E+01 -0.43891792087E+02  0.45045679653E+02  0.00000000000E+00 0. -1.
         11    1    3    3    0    0  0.33588442447E+00 -0.10105982341E+01  0.40558416641E+01  0.41933255303E+01  0.51100000000E-03 0. -1.
        -11    1    3    3    0    0 -0.24575208428E+01  0.37240581973E+01  0.12455814206E+02  0.13230847514E+02  0.51100000000E-03 0.  1.
        -12    1    3    3    0    0  0.51809917522E+01  0.69438785786E+01  0.27380136217E+02  0.28718147303E+02  0.00000000000E+00 0.  1.
</event>
<event>
 7    1  0.3086024E-009  0.4614232E+02  0.7816164E-02  0.1320468E+00
        -11   -1    0    0    0    0  0.00000000000E+00  0.00000000000E+00  0.45593999997E+02  0.45594000000E+02  0.51100000000E-03 0.  1.
         11   -1    0    0    0    0 -0.00000000000E+00 -0.00000000000E+00 -0.45593999997E+02  0.45594000000E+02  0.51100000000E-03 0. -1.
    9900012    2    1    2    0    0 -0.12090522772E+02 -0.38632315506E+02  0.19760489481E+02  0.46142317779E+02  0.10000000161E+02 0.  0.
         12    1    1    2    0    0  0.12090522772E+02  0.38632315506E+02 -0.19760489481E+02  0.45045682221E+02  0.00000000000E+00 0. -1.
         11    1    3    3    0    0  0.48985870085E+00  0.26044733046E+00  0.13773376628E-01  0.55496335534E+00  0.51100000000E-03 0. -1.
        -11    1    3    3    0    0 -0.86617283073E+01 -0.24548618275E+02  0.10453275367E+02  0.28052293358E+02  0.51100000000E-03 0.  1.
         12    1    3    3    0    0 -0.39186531658E+01 -0.14344144561E+02  0.92934407375E+01  0.17535061065E+02  0.00000000000E+00 0. -1.
</event>
<event>
 7    1  0.3086024E-009  0.4614232E+02  0.7816164E-02  0.1320468E+00
        -11   -1    0    0    0    0  0.00000000000E+00  0.00000000000E+00  0.45593999997E+02  0.45594000000E+02  0.51100000000E-03 0. -1.
         11   -1    0    0    0    0 -0.00000000000E+00 -0.00000000000E+00 -0.45593999997E+02  0.45594000000E+02  0.51100000000E-03 0.  1.
    9900012    2    1    2    0    0 -0.17584734325E-01 -0.25586080617E+02 -0.37073787058E+02  0.46142317439E+02  0.99999970628E+01 0.  0.
         12    1    1    2    0    0  0.17584734325E-01  0.25586080617E+02  0.37073787058E+02  0.45045682561E+02  0.00000000000E+00 0. -1.
         11    1    3    3    0    0 -0.85815671056E+00 -0.91701475957E+01 -0.16143422003E+02  0.18585965514E+02  0.51100000000E-03 0. -1.
        -11    1    3    3    0    0 -0.51498204467E+00 -0.26659223712E+01 -0.86668124285E+01  0.90821796133E+01  0.51100000000E-03 0.  1.
        -12    1    3    3    0    0  0.13555540209E+01 -0.13750010650E+02 -0.12263552627E+02  0.18474172312E+02  0.00000000000E+00 0.  1.
</event>
<event>
 7    1  0.3086024E-009  0.4614231E+02  0.7816164E-02  0.1320468E+00
        -11   -1    0    0    0    0  0.00000000000E+00  0.00000000000E+00  0.45593999997E+02  0.45594000000E+02  0.51100000000E-03 0. -1.
         11   -1    0    0    0    0 -0.00000000000E+00 -0.00000000000E+00 -0.45593999997E+02  0.45594000000E+02  0.51100000000E-03 0.  1.
    9900012    2    1    2    0    0 -0.11777422908E+02  0.31931662549E+02 -0.29508908244E+02  0.46142307318E+02  0.99999047667E+01 0.  0.
         12    1    1    2    0    0  0.11777422908E+02 -0.31931662549E+02  0.29508908244E+02  0.45045692682E+02  0.00000000000E+00 0. -1.
         11    1    3    3    0    0 -0.22783802386E+01  0.73765544680E+01 -0.89057572540E+01  0.11786309213E+02  0.51100000000E-03 0. -1.
        -11    1    3    3    0    0 -0.67715809510E+01  0.22087927962E+02 -0.20140658558E+02  0.30649257702E+02  0.51100000000E-03 0.  1.
         12    1    3    3    0    0 -0.27274617188E+01  0.24671801190E+01 -0.46249243121E+00  0.37067404031E+01  0.00000000000E+00 0. -1.
</event>
<event>
 7    1  0.3086024E-009  0.4614232E+02  0.7816164E-02  0.1320468E+00
        -11   -1    0    0    0    0  0.00000000000E+00  0.00000000000E+00  0.45593999997E+02  0.45594000000E+02  0.51100000000E-03 0.  1.
         11   -1    0    0    0    0 -0.00000000000E+00 -0.00000000000E+00 -0.45593999997E+02  0.45594000000E+02  0.51100000000E-03 0. -1.
    9900012    2    1    2    0    0 -0.40273539088E+02 -0.84837904819E+01  0.18307944636E+02  0.46142317760E+02  0.99999999928E+01 0.  0.
         12    1    1    2    0    0  0.40273539088E+02  0.84837904819E+01 -0.18307944636E+02  0.45045682240E+02  0.00000000000E+00 0. -1.
         11    1    3    3    0    0 -0.38040859588E+01 -0.37801179876E+01  0.10263804798E+01  0.54602032135E+01  0.51100000000E-03 0. -1.
        -11    1    3    3    0    0 -0.15494344183E+02 -0.11579767171E+01  0.66531059549E+01  0.16902054042E+02  0.51100000000E-03 0.  1.
         12    1    3    3    0    0 -0.20975108947E+02 -0.35456957772E+01  0.10628458201E+02  0.23780060505E+02  0.00000000000E+00 0. -1.
</event>
<event>
 7    1  0.3086024E-009  0.4614232E+02  0.7816164E-02  0.1320468E+00
        -11   -1    0    0    0    0  0.00000000000E+00  0.00000000000E+00  0.45593999997E+02  0.45594000000E+02  0.51100000000E-03 0.  1.
         11   -1    0    0    0    0 -0.00000000000E+00 -0.00000000000E+00 -0.45593999997E+02  0.45594000000E+02  0.51100000000E-03 0. -1.
    9900012    2    1    2    0    0  0.40833088056E+02  0.18347875696E+02 -0.50127829543E+01  0.46142316348E+02  0.99999871104E+01 0.  0.
         12    1    1    2    0    0 -0.40833088056E+02 -0.18347875696E+02  0.50127829543E+01  0.45045683652E+02  0.00000000000E+00 0. -1.
         11    1    3    3    0    0  0.93624311460E+01  0.58129179079E+01  0.24700093481E+00  0.11022982414E+02  0.51100000000E-03 0. -1.
        -11    1    3    3    0    0  0.18020074442E+02  0.97304580442E+01 -0.20866346725E+00  0.20480440360E+02  0.51100000000E-03 0.  1.
        -12    1    3    3    0    0  0.13450582468E+02  0.28044997441E+01 -0.50511204219E+01  0.14638893574E+02  0.00000000000E+00 0.  1.
</event>
<event>
 7    1  0.3086024E-009  0.4614232E+02  0.7816164E-02  0.1320468E+00
        -11   -1    0    0    0    0  0.00000000000E+00  0.00000000000E+00  0.45593999997E+02  0.45594000000E+02  0.51100000000E-03 0. -1.
         11   -1    0    0    0    0 -0.00000000000E+00 -0.00000000000E+00 -0.45593999997E+02  0.45594000000E+02  0.51100000000E-03 0.  1.
    9900012    2    1    2    0    0  0.40070310417E+02  0.23787242047E+01 -0.20440776237E+02  0.46142318309E+02  0.10000005000E+02 0.  0.
         12    1    1    2    0    0 -0.40070310417E+02 -0.23787242047E+01  0.20440776237E+02  0.45045681691E+02  0.00000000000E+00 0. -1.
         11    1    3    3    0    0  0.12983910082E+02 -0.93128701786E+00 -0.50799826489E+01  0.13973383288E+02  0.51100000000E-03 0. -1.
        -11    1    3    3    0    0  0.21605812683E+02  0.48626555310E+01 -0.14335526397E+02  0.26381127304E+02  0.51100000000E-03 0.  1.
        -12    1    3    3    0    0  0.54805876520E+01 -0.15526443084E+01 -0.10252671918E+01  0.57878077174E+01  0.00000000000E+00 0.  1.
</event>
<event>
 7    1  0.3086024E-009  0.4614232E+02  0.7816164E-02  0.1320468E+00
        -11   -1    0    0    0    0  0.00000000000E+00  0.00000000000E+00  0.45593999997E+02  0.45594000000E+02  0.51100000000E-03 0. -1.
         11   -1    0    0    0    0 -0.00000000000E+00 -0.00000000000E+00 -0.45593999997E+02  0.45594000000E+02  0.51100000000E-03 0.  1.
    9900012    2    1    2    0    0  0.49915970234E+01  0.14511689550E+02 -0.42351012886E+02  0.46142317999E+02  0.10000002169E+02 0.  0.
         12    1    1    2    0    0 -0.49915970234E+01 -0.14511689550E+02  0.42351012886E+02  0.45045682001E+02  0.00000000000E+00 0. -1.
         11    1    3    3    0    0  0.16166458891E+01  0.11232367842E+02 -0.24767654585E+02  0.27243647795E+02  0.51100000000E-03 0. -1.
        -11    1    3    3    0    0  0.18258168836E+00  0.34473121706E+01 -0.11752009954E+02  0.12248552384E+02  0.51100000000E-03 0.  1.
         12    1    3    3    0    0  0.31923694460E+01 -0.16799046310E+00 -0.58313483472E+01  0.66501178201E+01  0.00000000000E+00 0. -1.
</event>
<event>
 7    1  0.3086024E-009  0.4614232E+02  0.7816164E-02  0.1320468E+00
        -11   -1    0    0    0    0  0.00000000000E+00  0.00000000000E+00  0.45593999997E+02  0.45594000000E+02  0.51100000000E-03 0. -1.
         11   -1    0    0    0    0 -0.00000000000E+00 -0.00000000000E+00 -0.45593999997E+02  0.45594000000E+02  0.51100000000E-03 0.  1.
    9900012    2    1    2    0    0  0.34357223019E+02  0.26013032976E+02 -0.13115506387E+02  0.46142321339E+02  0.10000032629E+02 0.  0.
         12    1    1    2    0    0 -0.34357223019E+02 -0.26013032976E+02  0.13115506387E+02  0.45045678661E+02  0.00000000000E+00 0. -1.
         11    1    3    3    0    0  0.17308070270E+02  0.95814793250E+01 -0.22548901229E+01  0.19911267470E+02  0.51100000000E-03 0. -1.
        -11    1    3    3    0    0  0.17274418585E+01  0.31712855792E+01 -0.14989986143E+01  0.39100006019E+01  0.51100000000E-03 0.  1.
         12    1    3    3    0    0  0.15321710891E+02  0.13260268072E+02 -0.93616176494E+01  0.22321053267E+02  0.00000000000E+00 0. -1.
</event>
<event>
 7    1  0.3086024E-009  0.4614232E+02  0.7816164E-02  0.1320468E+00
        -11   -1    0    0    0    0  0.00000000000E+00  0.00000000000E+00  0.45593999997E+02  0.45594000000E+02  0.51100000000E-03 0.  1.
         11   -1    0    0    0    0 -0.00000000000E+00 -0.00000000000E+00 -0.45593999997E+02  0.45594000000E+02  0.51100000000E-03 0. -1.
    9900012    2    1    2    0    0 -0.23037328530E+02  0.17369000127E+02  0.34593537303E+02  0.46142317694E+02  0.99999993904E+01 0.  0.
         12    1    1    2    0    0  0.23037328530E+02 -0.17369000127E+02 -0.34593537303E+02  0.45045682306E+02  0.00000000000E+00 0. -1.
         11    1    3    3    0    0 -0.61142267058E+00  0.13279898093E+01 -0.22745872608E+00  0.14795716775E+01  0.51100000000E-03 0. -1.
        -11    1    3    3    0    0 -0.15873256954E+02  0.13585221704E+02  0.24588326317E+02  0.32266148304E+02  0.51100000000E-03 0.  1.
        -12    1    3    3    0    0 -0.65526489059E+01  0.24557886142E+01  0.10232669712E+02  0.12396597712E+02  0.00000000000E+00 0.  1.
</event>
<event>
 7    1  0.3086024E-009  0.4614232E+02  0.7816164E-02  0.1320468E+00
        -11   -1    0    0    0    0  0.00000000000E+00  0.00000000000E+00  0.45593999997E+02  0.45594000000E+02  0.51100000000E-03 0. -1.
         11   -1    0    0    0    0 -0.00000000000E+00 -0.00000000000E+00 -0.45593999997E+02  0.45594000000E+02  0.51100000000E-03 0.  1.
    9900012    2    1    2    0    0  0.10164484165E+02  0.37374884030E+01 -0.43724453399E+02  0.46142318932E+02  0.10000010675E+02 0.  0.
         12    1    1    2    0    0 -0.10164484165E+02 -0.37374884030E+01  0.43724453399E+02  0.45045681068E+02  0.00000000000E+00 0. -1.
         11    1    3    3    0    0  0.34975027423E+01  0.47959104201E+01 -0.14536967120E+02  0.15702123917E+02  0.51100000000E-03 0. -1.
        -11    1    3    3    0    0  0.17448373104E+01 -0.53248285656E+00 -0.19267853196E+02  0.19354021863E+02  0.51100000000E-03 0.  1.
         12    1    3    3    0    0  0.49221441121E+01 -0.52593916059E+00 -0.99196330823E+01  0.11086173152E+02  0.00000000000E+00 0. -1.
</event>
<event>
 7    1  0.3086024E-009  0.4614232E+02  0.7816164E-02  0.1320468E+00
        -11   -1    0    0    0    0  0.00000000000E+00  0.00000000000E+00  0.45593999997E+02  0.45594000000E+02  0.51100000000E-03 0.  1.
         11   -1    0    0    0    0 -0.00000000000E+00 -0.00000000000E+00 -0.45593999997E+02  0.45594000000E+02  0.51100000000E-03 0. -1.
    9900012    2    1    2    0    0 -0.14189851544E+02  0.34874374249E+02  0.24729330013E+02  0.46142316200E+02  0.99999857673E+01 0.  0.
         12    1    1    2    0    0  0.14189851544E+02 -0.34874374249E+02 -0.24729330013E+02  0.45045683800E+02  0.00000000000E+00 0. -1.
         11    1    3    3    0    0 -0.20671296742E+01  0.17011151196E+01 -0.97832440055E-01  0.26788783450E+01  0.51100000000E-03 0. -1.
        -11    1    3    3    0    0 -0.44379556833E+01  0.10118565252E+02  0.51311988543E+01  0.12182364932E+02  0.51100000000E-03 0.  1.
        -12    1    3    3    0    0 -0.76847661868E+01  0.23054693877E+02  0.19695963599E+02  0.31281072923E+02  0.00000000000E+00 0.  1.
</event>
<event>
 7    1  0.3086024E-009  0.4614232E+02  0.7816164E-02  0.1320468E+00
        -11   -1    0    0    0    0  0.00000000000E+00  0.00000000000E+00  0.45593999997E+02  0.45594000000E+02  0.51100000000E-03 0.  1.
         11   -1    0    0    0    0 -0.00000000000E+00 -0.00000000000E+00 -0.45593999997E+02  0.45594000000E+02  0.51100000000E-03 0. -1.
    9900012    2    1    2    0    0 -0.36346616776E+02  0.20300055853E+02  0.17203043086E+02  0.46142317520E+02  0.99999978000E+01 0.  0.
         12    1    1    2    0    0  0.36346616776E+02 -0.20300055853E+02 -0.17203043086E+02  0.45045682480E+02  0.00000000000E+00 0. -1.
         11    1    3    3    0    0 -0.19373668217E+01 -0.61683977505E+00  0.53072024999E-02  0.20332018930E+01  0.51100000000E-03 0. -1.
        -11    1    3    3    0    0 -0.84902899442E+01  0.28560770147E+01  0.48877447600E+01  0.10204520976E+02  0.51100000000E-03 0.  1.
         12    1    3    3    0    0 -0.25918960010E+02  0.18060818613E+02  0.12309991123E+02  0.33904594651E+02  0.00000000000E+00 0. -1.
</event>
<event>
 7    1  0.3086024E-009  0.4614232E+02  0.7816164E-02  0.1320468E+00
        -11   -1    0    0    0    0  0.00000000000E+00  0.00000000000E+00  0.45593999997E+02  0.45594000000E+02  0.51100000000E-03 0.  1.
         11   -1    0    0    0    0 -0.00000000000E+00 -0.00000000000E+00 -0.45593999997E+02  0.45594000000E+02  0.51100000000E-03 0. -1.
    9900012    2    1    2    0    0 -0.43480663218E+02  0.11158795258E+02 -0.37451769377E+01  0.46142321675E+02  0.10000035687E+02 0.  0.
         12    1    1    2    0    0  0.43480663218E+02 -0.11158795258E+02  0.37451769377E+01  0.45045678325E+02  0.00000000000E+00 0. -1.
         11    1    3    3    0    0 -0.19230660214E+01 -0.41868366201E+00 -0.26294022555E+00  0.19856023657E+01  0.51100000000E-03 0. -1.
        -11    1    3    3    0    0 -0.75885977759E+01  0.82131893913E+00 -0.37945293394E+01  0.85240738014E+01  0.51100000000E-03 0.  1.
        -12    1    3    3    0    0 -0.33968999421E+02  0.10756159981E+02  0.31229262723E+00  0.35632645508E+02  0.00000000000E+00 0.  1.
</event>
<event>
 7    1  0.3086024E-009  0.4614232E+02  0.7816164E-02  0.1320468E+00
        -11   -1    0    0    0    0  0.00000000000E+00  0.00000000000E+00  0.45593999997E+02  0.45594000000E+02  0.51100000000E-03 0. -1.
         11   -1    0    0    0    0 -0.00000000000E+00 -0.00000000000E+00 -0.45593999997E+02  0.45594000000E+02  0.51100000000E-03 0.  1.
    9900012    2    1    2    0    0 -0.18404381874E+02 -0.25377944021E+02 -0.32347367257E+02  0.46142317817E+02  0.10000000507E+02 0.  0.
         12    1    1    2    0    0  0.18404381874E+02  0.25377944021E+02  0.32347367257E+02  0.45045682183E+02  0.00000000000E+00 0. -1.
         11    1    3    3    0    0  0.47917674702E+00 -0.38137397060E+00 -0.26781527005E+01  0.27472820402E+01  0.51100000000E-03 0. -1.
        -11    1    3    3    0    0 -0.14655669689E+02 -0.18873609652E+02 -0.25137824234E+02  0.34683021823E+02  0.51100000000E-03 0.  1.
        -12    1    3    3    0    0 -0.42278889328E+01 -0.61229603983E+01 -0.45313903230E+01  0.87120139535E+01  0.00000000000E+00 0.  1.
</event>
<event>
 7    1  0.3086024E-009  0.4614232E+02  0.7816164E-02  0.1320468E+00
        -11   -1    0    0    0    0  0.00000000000E+00  0.00000000000E+00  0.45593999997E+02  0.45594000000E+02  0.51100000000E-03 0. -1.
         11   -1    0    0    0    0 -0.00000000000E+00 -0.00000000000E+00 -0.45593999997E+02  0.45594000000E+02  0.51100000000E-03 0.  1.
    9900012    2    1    2    0    0  0.11447236475E+02 -0.90133001432E+00 -0.43557568972E+02  0.46142318370E+02  0.10000005556E+02 0.  0.
         12    1    1    2    0    0 -0.11447236475E+02  0.90133001432E+00  0.43557568972E+02  0.45045681630E+02  0.00000000000E+00 0. -1.
         11    1    3    3    0    0  0.18211827283E+01 -0.22461237435E+01 -0.75225307215E+01  0.80591716148E+01  0.51100000000E-03 0. -1.
        -11    1    3    3    0    0  0.72414759821E+01 -0.13150796130E+01 -0.14575467207E+02  0.16328277722E+02  0.51100000000E-03 0.  1.
        -12    1    3    3    0    0  0.23845777644E+01  0.26598733422E+01 -0.21459571043E+02  0.21754869034E+02  0.00000000000E+00 0.  1.
</event>
<event>
 7    1  0.3086024E-009  0.4614232E+02  0.7816164E-02  0.1320468E+00
        -11   -1    0    0    0    0  0.00000000000E+00  0.00000000000E+00  0.45593999997E+02  0.45594000000E+02  0.51100000000E-03 0.  1.
         11   -1    0    0    0    0 -0.00000000000E+00 -0.00000000000E+00 -0.45593999997E+02  0.45594000000E+02  0.51100000000E-03 0. -1.
    9900012    2    1    2    0    0  0.18697932304E+02 -0.74789772835E+01  0.40293494784E+02  0.46142317681E+02  0.99999992740E+01 0.  0.
         12    1    1    2    0    0 -0.18697932304E+02  0.74789772835E+01 -0.40293494784E+02  0.45045682319E+02  0.00000000000E+00 0. -1.
         11    1    3    3    0    0  0.83008229825E+00  0.59628254305E+00  0.62254975774E+01  0.63088358546E+01  0.51100000000E-03 0. -1.
        -11    1    3    3    0    0  0.82680276572E+01 -0.72670551297E+01  0.18097794859E+02  0.21182552977E+02  0.51100000000E-03 0.  1.
        -12    1    3    3    0    0  0.95998223482E+01 -0.80820469690E+00  0.15970202347E+02  0.18650928850E+02  0.00000000000E+00 0.  1.
</event>
<event>
 7    1  0.3086024E-009  0.4614232E+02  0.7816164E-02  0.1320468E+00
        -11   -1    0    0    0    0  0.00000000000E+00  0.00000000000E+00  0.45593999997E+02  0.45594000000E+02  0.51100000000E-03 0.  1.
         11   -1    0    0    0    0 -0.00000000000E+00 -0.00000000000E+00 -0.45593999997E+02  0.45594000000E+02  0.51100000000E-03 0. -1.
    9900012    2    1    2    0    0 -0.40382708442E+02  0.15124320879E+02 -0.13023263329E+02  0.46142316401E+02  0.99999875962E+01 0.  0.
         12    1    1    2    0    0  0.40382708442E+02 -0.15124320879E+02  0.13023263329E+02  0.45045683599E+02  0.00000000000E+00 0. -1.
         11    1    3    3    0    0 -0.30264639103E+01  0.32692495019E+00 -0.16465533918E+01  0.34608527933E+01  0.51100000000E-03 0. -1.
        -11    1    3    3    0    0 -0.15891865045E+02  0.28112802240E+01 -0.15750819063E+01  0.16215287675E+02  0.51100000000E-03 0.  1.
        -12    1    3    3    0    0 -0.21464379487E+02  0.11986115704E+02 -0.98016280314E+01  0.26466175933E+02  0.00000000000E+00 0.  1.
</event>
<event>
 7    1  0.3086024E-009  0.4614232E+02  0.7816164E-02  0.1320468E+00
        -11   -1    0    0    0    0  0.00000000000E+00  0.00000000000E+00  0.45593999997E+02  0.45594000000E+02  0.51100000000E-03 0.  1.
         11   -1    0    0    0    0 -0.00000000000E+00 -0.00000000000E+00 -0.45593999997E+02  0.45594000000E+02  0.51100000000E-03 0. -1.
    9900012    2    1    2    0    0  0.17447029253E+02 -0.15593408679E+02  0.38491042139E+02  0.46142317089E+02  0.99999938727E+01 0.  0.
         12    1    1    2    0    0 -0.17447029253E+02  0.15593408679E+02 -0.38491042139E+02  0.45045682911E+02  0.00000000000E+00 0. -1.
         11    1    3    3    0    0  0.77190949721E+01 -0.10002487631E+02  0.21367216967E+02  0.24823217905E+02  0.51100000000E-03 0. -1.
        -11    1    3    3    0    0  0.31695200522E+01 -0.12935149635E+01  0.10535404526E+02  0.11077625518E+02  0.51100000000E-03 0.  1.
         12    1    3    3    0    0  0.65584142286E+01 -0.42974060851E+01  0.65884206453E+01  0.10241473666E+02  0.00000000000E+00 0. -1.
</event>
<event>
 7    1  0.3086024E-009  0.4614232E+02  0.7816164E-02  0.1320468E+00
        -11   -1    0    0    0    0  0.00000000000E+00  0.00000000000E+00  0.45593999997E+02  0.45594000000E+02  0.51100000000E-03 0.  1.
         11   -1    0    0    0    0 -0.00000000000E+00 -0.00000000000E+00 -0.45593999997E+02  0.45594000000E+02  0.51100000000E-03 0. -1.
    9900012    2    1    2    0    0 -0.34941814814E+02 -0.21072619590E+02  0.19082131882E+02  0.46142317898E+02  0.10000001246E+02 0.  0.
         12    1    1    2    0    0  0.34941814814E+02  0.21072619590E+02 -0.19082131882E+02  0.45045682102E+02  0.00000000000E+00 0. -1.
         11    1    3    3    0    0 -0.54567022773E+00 -0.14840367512E+01 -0.78036789573E+00  0.17632627116E+01  0.51100000000E-03 0. -1.
        -11    1    3    3    0    0 -0.91933763187E+01 -0.65433744583E+01  0.49743148622E+01  0.12331979810E+02  0.51100000000E-03 0.  1.
         12    1    3    3    0    0 -0.25202768268E+02 -0.13045208381E+02  0.14888184915E+02  0.32047075376E+02  0.00000000000E+00 0. -1.
</event>
<event>
 7    1  0.3086024E-009  0.4614232E+02  0.7816164E-02  0.1320468E+00
        -11   -1    0    0    0    0  0.00000000000E+00  0.00000000000E+00  0.45593999997E+02  0.45594000000E+02  0.51100000000E-03 0.  1.
         11   -1    0    0    0    0 -0.00000000000E+00 -0.00000000000E+00 -0.45593999997E+02  0.45594000000E+02  0.51100000000E-03 0. -1.
    9900012    2    1    2    0    0 -0.19059889312E+02  0.41354993107E+01  0.40604574218E+02  0.46142321156E+02  0.10000030953E+02 0.  0.
         12    1    1    2    0    0  0.19059889312E+02 -0.41354993107E+01 -0.40604574218E+02  0.45045678844E+02  0.00000000000E+00 0. -1.
         11    1    3    3    0    0 -0.42700329884E+01 -0.12297840779E+01  0.46627749203E+01  0.64410419048E+01  0.51100000000E-03 0. -1.
        -11    1    3    3    0    0 -0.12704214300E+02  0.55486107739E+01  0.25239593725E+02  0.28796201731E+02  0.51100000000E-03 0.  1.
        -12    1    3    3    0    0 -0.20856420237E+01 -0.18332738541E+00  0.10702205573E+02  0.10905077520E+02  0.00000000000E+00 0.  1.
</event>
<event>
 7    1  0.3086024E-009  0.4614232E+02  0.7816164E-02  0.1320468E+00
        -11   -1    0    0    0    0  0.00000000000E+00  0.00000000000E+00  0.45593999997E+02  0.45594000000E+02  0.51100000000E-03 0.  1.
         11   -1    0    0    0    0 -0.00000000000E+00 -0.00000000000E+00 -0.45593999997E+02  0.45594000000E+02  0.51100000000E-03 0. -1.
    9900012    2    1    2    0    0 -0.57910374271E+01 -0.30564080134E+02  0.32579350810E+02  0.46142320872E+02  0.10000028367E+02 0.  0.
         12    1    1    2    0    0  0.57910374271E+01  0.30564080134E+02 -0.32579350810E+02  0.45045679128E+02  0.00000000000E+00 0. -1.
         11    1    3    3    0    0 -0.51123692592E+01 -0.15958849542E+02  0.18062052504E+02  0.24638566092E+02  0.51100000000E-03 0.  1.
        -11    1    3    3    0    0 -0.15788962521E+01 -0.10675942301E+01  0.36609785495E+01  0.41274005156E+01  0.51100000000E-03 0. -1.
         12    1    3    3    0    0  0.90022808414E+00 -0.13537636362E+02  0.10856319756E+02  0.17376354264E+02  0.00000000000E+00 0. -1.
</event>
<event>
 7    1  0.3086024E-009  0.4614232E+02  0.7816164E-02  0.1320468E+00
        -11   -1    0    0    0    0  0.00000000000E+00  0.00000000000E+00  0.45593999997E+02  0.45594000000E+02  0.51100000000E-03 0. -1.
         11   -1    0    0    0    0 -0.00000000000E+00 -0.00000000000E+00 -0.45593999997E+02  0.45594000000E+02  0.51100000000E-03 0.  1.
    9900012    2    1    2    0    0 -0.23664612606E+02  0.34319111485E+02  0.17067444339E+02  0.46142323635E+02  0.10000053563E+02 0.  0.
         12    1    1    2    0    0  0.23664612606E+02 -0.34319111485E+02 -0.17067444339E+02  0.45045676365E+02  0.00000000000E+00 0. -1.
         11    1    3    3    0    0 -0.68262782904E+01  0.14530568070E+02  0.95908782378E+01  0.18700813601E+02  0.51100000000E-03 0. -1.
        -11    1    3    3    0    0 -0.19966307896E+01  0.17437311337E+01 -0.60491114463E+00  0.27190164639E+01  0.51100000000E-03 0.  1.
         12    1    3    3    0    0 -0.14841703525E+02  0.18044812282E+02  0.80814772458E+01  0.24722493570E+02  0.00000000000E+00 0. -1.
</event>
<event>
 7    1  0.3086024E-009  0.4614232E+02  0.7816164E-02  0.1320468E+00
        -11   -1    0    0    0    0  0.00000000000E+00  0.00000000000E+00  0.45593999997E+02  0.45594000000E+02  0.51100000000E-03 0.  1.
         11   -1    0    0    0    0 -0.00000000000E+00 -0.00000000000E+00 -0.45593999997E+02  0.45594000000E+02  0.51100000000E-03 0. -1.
    9900012    2    1    2    0    0  0.81235814583E+01  0.40489469964E+02 -0.17992328662E+02  0.46142316030E+02  0.99999842135E+01 0.  0.
         12    1    1    2    0    0 -0.81235814583E+01 -0.40489469964E+02  0.17992328662E+02  0.45045683970E+02  0.00000000000E+00 0. -1.
         11    1    3    3    0    0 -0.14482150734E+00  0.47606091732E+01 -0.56844196239E+01  0.74159962036E+01  0.51100000000E-03 0. -1.
        -11    1    3    3    0    0  0.30509274829E+01  0.16376003125E+02 -0.50031799634E+01  0.17392913697E+02  0.51100000000E-03 0.  1.
         12    1    3    3    0    0  0.52174754827E+01  0.19352857666E+02 -0.73047290742E+01  0.21333406130E+02  0.00000000000E+00 0. -1.
</event>
<event>
 7    1  0.3086024E-009  0.4614232E+02  0.7816164E-02  0.1320468E+00
        -11   -1    0    0    0    0  0.00000000000E+00  0.00000000000E+00  0.45593999997E+02  0.45594000000E+02  0.51100000000E-03 0.  1.
         11   -1    0    0    0    0 -0.00000000000E+00 -0.00000000000E+00 -0.45593999997E+02  0.45594000000E+02  0.51100000000E-03 0. -1.
    9900012    2    1    2    0    0 -0.13519555438E+02 -0.13289096051E+02  0.40862391681E+02  0.46142317554E+02  0.99999981159E+01 0.  0.
         12    1    1    2    0    0  0.13519555438E+02  0.13289096051E+02 -0.40862391681E+02  0.45045682446E+02  0.00000000000E+00 0. -1.
         11    1    3    3    0    0 -0.69262390838E+01 -0.73785059072E+01  0.24598623990E+02  0.26599012007E+02  0.51100000000E-03 0.  1.
        -11    1    3    3    0    0 -0.87687177074E+00 -0.84650099484E+00  0.87337638487E+01  0.88183955039E+01  0.51100000000E-03 0. -1.
        -12    1    3    3    0    0 -0.57164445836E+01 -0.50640891490E+01  0.75300038420E+01  0.10724910044E+02  0.00000000000E+00 0.  1.
</event>
<event>
 7    1  0.3086024E-009  0.4614232E+02  0.7816164E-02  0.1320468E+00
        -11   -1    0    0    0    0  0.00000000000E+00  0.00000000000E+00  0.45593999997E+02  0.45594000000E+02  0.51100000000E-03 0. -1.
         11   -1    0    0    0    0 -0.00000000000E+00 -0.00000000000E+00 -0.45593999997E+02  0.45594000000E+02  0.51100000000E-03 0.  1.
    9900012    2    1    2    0    0  0.20020107792E+02  0.12736407992E+02 -0.38289589616E+02  0.46142317882E+02  0.10000001100E+02 0.  0.
         12    1    1    2    0    0 -0.20020107792E+02 -0.12736407992E+02  0.38289589616E+02  0.45045682118E+02  0.00000000000E+00 0. -1.
         11    1    3    3    0    0  0.34849205278E+01  0.43143134063E+01 -0.16080033371E+02  0.17009569210E+02  0.51100000000E-03 0. -1.
        -11    1    3    3    0    0  0.77515561574E+01  0.25217032137E+01 -0.80514372193E+01  0.11457366692E+02  0.51100000000E-03 0.  1.
         12    1    3    3    0    0  0.87836311072E+01  0.59003913720E+01 -0.14158119025E+02  0.17675381979E+02  0.00000000000E+00 0. -1.
</event>
<event>
 7    1  0.3086024E-009  0.4614232E+02  0.7816164E-02  0.1320468E+00
        -11   -1    0    0    0    0  0.00000000000E+00  0.00000000000E+00  0.45593999997E+02  0.45594000000E+02  0.51100000000E-03 0. -1.
         11   -1    0    0    0    0 -0.00000000000E+00 -0.00000000000E+00 -0.45593999997E+02  0.45594000000E+02  0.51100000000E-03 0.  1.
    9900012    2    1    2    0    0  0.71417833421E+01  0.38275331976E+02 -0.22651873760E+02  0.46142317721E+02  0.99999996331E+01 0.  0.
         12    1    1    2    0    0 -0.71417833421E+01 -0.38275331976E+02  0.22651873760E+02  0.45045682279E+02  0.00000000000E+00 0. -1.
         11    1    3    3    0    0 -0.27894085972E+00  0.81585449476E+01 -0.86849832470E+01  0.11919253245E+02  0.51100000000E-03 0. -1.
        -11    1    3    3    0    0  0.32354825077E+01  0.13324388445E+02 -0.82249030477E+01  0.15989268429E+02  0.51100000000E-03 0.  1.
         12    1    3    3    0    0  0.41852416941E+01  0.16792398583E+02 -0.57419874652E+01  0.18233796047E+02  0.00000000000E+00 0. -1.
</event>
<event>
 7    1  0.3086024E-009  0.4614232E+02  0.7816164E-02  0.1320468E+00
        -11   -1    0    0    0    0  0.00000000000E+00  0.00000000000E+00  0.45593999997E+02  0.45594000000E+02  0.51100000000E-03 0. -1.
         11   -1    0    0    0    0 -0.00000000000E+00 -0.00000000000E+00 -0.45593999997E+02  0.45594000000E+02  0.51100000000E-03 0.  1.
    9900012    2    1    2    0    0  0.35779568362E+01 -0.28336187360E+02 -0.34833486864E+02  0.46142322112E+02  0.10000039676E+02 0.  0.
         12    1    1    2    0    0 -0.35779568362E+01  0.28336187360E+02  0.34833486864E+02  0.45045677888E+02  0.00000000000E+00 0. -1.
         11    1    3    3    0    0  0.38361061317E+00 -0.45660313818E+01 -0.41690405063E+01  0.61948929520E+01  0.51100000000E-03 0.  1.
        -11    1    3    3    0    0  0.29069730026E+01 -0.17403018635E+02 -0.15452129251E+02  0.23453866382E+02  0.51100000000E-03 0. -1.
        -12    1    3    3    0    0  0.28737322040E+00 -0.63671373437E+01 -0.15212317108E+02  0.16493562778E+02  0.00000000000E+00 0.  1.
</event>
<event>
 7    1  0.3086024E-009  0.4614232E+02  0.7816164E-02  0.1320468E+00
        -11   -1    0    0    0    0  0.00000000000E+00  0.00000000000E+00  0.45593999997E+02  0.45594000000E+02  0.51100000000E-03 0.  1.
         11   -1    0    0    0    0 -0.00000000000E+00 -0.00000000000E+00 -0.45593999997E+02  0.45594000000E+02  0.51100000000E-03 0. -1.
    9900012    2    1    2    0    0 -0.64866201821E+01 -0.45441892655E-01  0.44576172720E+02  0.46142317846E+02  0.10000000770E+02 0.  0.
         12    1    1    2    0    0  0.64866201821E+01  0.45441892655E-01 -0.44576172720E+02  0.45045682154E+02  0.00000000000E+00 0. -1.
         11    1    3    3    0    0 -0.64205676949E+01  0.61423981855E+00  0.14275241529E+02  0.15664721544E+02  0.51100000000E-03 0. -1.
        -11    1    3    3    0    0 -0.28254467099E+00  0.50355984370E+00  0.26276221861E+02  0.26282565315E+02  0.51100000000E-03 0.  1.
        -12    1    3    3    0    0  0.21649218377E+00 -0.11632415549E+01  0.40247093302E+01  0.41950309859E+01  0.00000000000E+00 0.  1.
</event>
<event>
 7    1  0.3086024E-009  0.4614233E+02  0.7816164E-02  0.1320468E+00
        -11   -1    0    0    0    0  0.00000000000E+00  0.00000000000E+00  0.45593999997E+02  0.45594000000E+02  0.51100000000E-03 0.  1.
         11   -1    0    0    0    0 -0.00000000000E+00 -0.00000000000E+00 -0.45593999997E+02  0.45594000000E+02  0.51100000000E-03 0. -1.
    9900012    2    1    2    0    0 -0.24885984714E+01  0.41522606028E+02  0.17285624284E+02  0.46142326061E+02  0.10000075686E+02 0.  0.
         12    1    1    2    0    0  0.24885984714E+01 -0.41522606028E+02 -0.17285624284E+02  0.45045673939E+02  0.00000000000E+00 0. -1.
         11    1    3    3    0    0  0.27603656606E+01  0.15260061460E+02  0.90387747890E+01  0.17949611258E+02  0.51100000000E-03 0. -1.
        -11    1    3    3    0    0 -0.19481223629E+01  0.10776268397E+02  0.49560613217E+01  0.12020219856E+02  0.51100000000E-03 0.  1.
         12    1    3    3    0    0 -0.33008417690E+01  0.15486276171E+02  0.32907881735E+01  0.16172494948E+02  0.00000000000E+00 0. -1.
</event>
<event>
 7    1  0.3086024E-009  0.4614231E+02  0.7816164E-02  0.1320468E+00
        -11   -1    0    0    0    0  0.00000000000E+00  0.00000000000E+00  0.45593999997E+02  0.45594000000E+02  0.51100000000E-03 0.  1.
         11   -1    0    0    0    0 -0.00000000000E+00 -0.00000000000E+00 -0.45593999997E+02  0.45594000000E+02  0.51100000000E-03 0. -1.
    9900012    2    1    2    0    0  0.35097276038E+02 -0.22207459012E+02  0.17439147533E+02  0.46142313328E+02  0.99999595750E+01 0.  0.
         12    1    1    2    0    0 -0.35097276038E+02  0.22207459012E+02 -0.17439147533E+02  0.45045686672E+02  0.00000000000E+00 0. -1.
         11    1    3    3    0    0  0.65792770569E+01 -0.35928875696E+01  0.91044182898E+00  0.75514655706E+01  0.51100000000E-03 0. -1.
        -11    1    3    3    0    0  0.11539668964E+02 -0.67840372067E+01  0.10570818715E+02  0.17056650585E+02  0.51100000000E-03 0.  1.
        -12    1    3    3    0    0  0.16978330018E+02 -0.11830534235E+02  0.59578869898E+01  0.21534197172E+02  0.00000000000E+00 0.  1.
</event>
<event>
 7    1  0.3086024E-009  0.4614232E+02  0.7816164E-02  0.1320468E+00
        -11   -1    0    0    0    0  0.00000000000E+00  0.00000000000E+00  0.45593999997E+02  0.45594000000E+02  0.51100000000E-03 0.  1.
         11   -1    0    0    0    0 -0.00000000000E+00 -0.00000000000E+00 -0.45593999997E+02  0.45594000000E+02  0.51100000000E-03 0. -1.
    9900012    2    1    2    0    0 -0.31781825083E+01  0.38753821941E+02  0.22741019043E+02  0.46142317563E+02  0.99999981936E+01 0.  0.
         12    1    1    2    0    0  0.31781825083E+01 -0.38753821941E+02 -0.22741019043E+02  0.45045682437E+02  0.00000000000E+00 0. -1.
         11    1    3    3    0    0 -0.25752267975E+01  0.33547342797E+01  0.22613549520E+01  0.47958066710E+01  0.51100000000E-03 0. -1.
        -11    1    3    3    0    0  0.15523939406E+01  0.30694848446E+02  0.17860888003E+02  0.35547081014E+02  0.51100000000E-03 0.  1.
        -12    1    3    3    0    0 -0.21553496513E+01  0.47042392152E+01  0.26187760884E+01  0.57994298784E+01  0.00000000000E+00 0.  1.
</event>
<event>
 7    1  0.3086024E-009  0.4614230E+02  0.7816164E-02  0.1320468E+00
        -11   -1    0    0    0    0  0.00000000000E+00  0.00000000000E+00  0.45593999997E+02  0.45594000000E+02  0.51100000000E-03 0.  1.
         11   -1    0    0    0    0 -0.00000000000E+00 -0.00000000000E+00 -0.45593999997E+02  0.45594000000E+02  0.51100000000E-03 0. -1.
    9900012    2    1    2    0    0  0.24212478232E+02 -0.69188142612E+01  0.37349706176E+02  0.46142304930E+02  0.99998829919E+01 0.  0.
         12    1    1    2    0    0 -0.24212478232E+02  0.69188142612E+01 -0.37349706176E+02  0.45045695070E+02  0.00000000000E+00 0. -1.
         11    1    3    3    0    0  0.78512309849E+01  0.67243122845E+00  0.12272745180E+02  0.14584727157E+02  0.51100000000E-03 0. -1.
        -11    1    3    3    0    0  0.12538440777E+02 -0.35587879827E+01  0.20797602488E+02  0.24544199693E+02  0.51100000000E-03 0.  1.
         12    1    3    3    0    0  0.38228064694E+01 -0.40324575069E+01  0.42793585081E+01  0.70133780797E+01  0.00000000000E+00 0. -1.
</event>
<event>
 7    1  0.3224223E-009  0.4614232E+02  0.7816164E-02  0.1320468E+00
        -11   -1    0    0    0    0  0.00000000000E+00  0.00000000000E+00  0.45593999997E+02  0.45594000000E+02  0.51100000000E-03 0. -1.
         11   -1    0    0    0    0 -0.00000000000E+00 -0.00000000000E+00 -0.45593999997E+02  0.45594000000E+02  0.51100000000E-03 0.  1.
    9900012    2    1    2    0    0  0.14840959565E+02 -0.16294637827E+02 -0.39285419948E+02  0.46142317374E+02  0.99999964738E+01 0.  0.
         12    1    1    2    0    0 -0.14840959565E+02  0.16294637827E+02  0.39285419948E+02  0.45045682626E+02  0.00000000000E+00 0. -1.
         11    1    3    3    0    0 -0.46622818778E+00 -0.89353002802E+00  0.23790208477E+00  0.10355492731E+01  0.51100000000E-03 0. -1.
        -11    1    3    3    0    0  0.64905029231E+01 -0.61580673553E+01 -0.17163574249E+02  0.19355534170E+02  0.51100000000E-03 0.  1.
         12    1    3    3    0    0  0.88166848298E+01 -0.92430404441E+01 -0.22359747783E+02  0.25751233931E+02  0.00000000000E+00 0. -1.
</event>
<event>
 7    1  0.3086024E-009  0.4614232E+02  0.7816164E-02  0.1320468E+00
        -11   -1    0    0    0    0  0.00000000000E+00  0.00000000000E+00  0.45593999997E+02  0.45594000000E+02  0.51100000000E-03 0. -1.
         11   -1    0    0    0    0 -0.00000000000E+00 -0.00000000000E+00 -0.45593999997E+02  0.45594000000E+02  0.51100000000E-03 0.  1.
    9900012    2    1    2    0    0 -0.26989336984E+02 -0.29857686059E+02 -0.20228883990E+02  0.46142317908E+02  0.10000001343E+02 0.  0.
         12    1    1    2    0    0  0.26989336984E+02  0.29857686059E+02  0.20228883990E+02  0.45045682092E+02  0.00000000000E+00 0. -1.
         11    1    3    3    0    0 -0.76349552827E+01 -0.61372956112E+01 -0.17671061115E+01  0.99539742746E+01  0.51100000000E-03 0. -1.
        -11    1    3    3    0    0 -0.90405802478E+01 -0.13352036561E+02 -0.68713598492E+01  0.17527822397E+02  0.51100000000E-03 0.  1.
         12    1    3    3    0    0 -0.10313801453E+02 -0.10368353888E+02 -0.11590418029E+02  0.18660521237E+02  0.00000000000E+00 0. -1.
</event>
<event>
 7    1  0.3086024E-009  0.4614232E+02  0.7816164E-02  0.1320468E+00
        -11   -1    0    0    0    0  0.00000000000E+00  0.00000000000E+00  0.45593999997E+02  0.45594000000E+02  0.51100000000E-03 0. -1.
         11   -1    0    0    0    0 -0.00000000000E+00 -0.00000000000E+00 -0.45593999997E+02  0.45594000000E+02  0.51100000000E-03 0.  1.
    9900012    2    1    2    0    0  0.89543044460E+01  0.44095113785E+02 -0.21342057182E+01  0.46142318055E+02  0.10000002684E+02 0.  0.
         12    1    1    2    0    0 -0.89543044460E+01 -0.44095113785E+02  0.21342057182E+01  0.45045681945E+02  0.00000000000E+00 0. -1.
         11    1    3    3    0    0 -0.52581733796E+00  0.54735649486E+01  0.22337670201E+01  0.59351590105E+01  0.51100000000E-03 0. -1.
        -11    1    3    3    0    0  0.24291342965E+01  0.16858522015E+02 -0.77753338667E+00  0.17050367045E+02  0.51100000000E-03 0.  1.
         12    1    3    3    0    0  0.70509874874E+01  0.21763026821E+02 -0.35904393516E+01  0.23156792000E+02  0.00000000000E+00 0. -1.
</event>
<event>
 7    1  0.3086024E-009  0.4614233E+02  0.7816164E-02  0.1320468E+00
        -11   -1    0    0    0    0  0.00000000000E+00  0.00000000000E+00  0.45593999997E+02  0.45594000000E+02  0.51100000000E-03 0. -1.
         11   -1    0    0    0    0 -0.00000000000E+00 -0.00000000000E+00 -0.45593999997E+02  0.45594000000E+02  0.51100000000E-03 0.  1.
    9900012    2    1    2    0    0 -0.25583481988E+02  0.23420816686E+01 -0.37001523670E+02  0.46142327055E+02  0.10000084747E+02 0.  0.
         12    1    1    2    0    0  0.25583481988E+02 -0.23420816686E+01  0.37001523670E+02  0.45045672945E+02  0.00000000000E+00 0. -1.
         11    1    3    3    0    0 -0.22876231131E+02  0.13398630093E+01 -0.29449952676E+02  0.37315102794E+02  0.51100000000E-03 0. -1.
        -11    1    3    3    0    0 -0.32313388099E+01  0.83889732427E+00 -0.38961611566E+01  0.51308255909E+01  0.51100000000E-03 0.  1.
         12    1    3    3    0    0  0.52408795383E+00  0.16332133504E+00 -0.36554098383E+01  0.36963986701E+01  0.00000000000E+00 0. -1.
</event>
<event>
 7    1  0.3086024E-009  0.4614232E+02  0.7816164E-02  0.1320468E+00
        -11   -1    0    0    0    0  0.00000000000E+00  0.00000000000E+00  0.45593999997E+02  0.45594000000E+02  0.51100000000E-03 0.  1.
         11   -1    0    0    0    0 -0.00000000000E+00 -0.00000000000E+00 -0.45593999997E+02  0.45594000000E+02  0.51100000000E-03 0. -1.
    9900012    2    1    2    0    0  0.15592724190E+02  0.13057728035E+02  0.40192986101E+02  0.46142318289E+02  0.10000004809E+02 0.  0.
         12    1    1    2    0    0 -0.15592724190E+02 -0.13057728035E+02 -0.40192986101E+02  0.45045681711E+02  0.00000000000E+00 0. -1.
         11    1    3    3    0    0  0.65039449995E+01  0.37071463279E+01  0.98230078289E+01  0.12350535111E+02  0.51100000000E-03 0.  1.
        -11    1    3    3    0    0  0.27351389491E+01 -0.19400493022E+00  0.27362625388E+01  0.38737263618E+01  0.51100000000E-03 0. -1.
         12    1    3    3    0    0  0.63536402414E+01  0.95445866372E+01  0.27633715734E+02  0.29918056816E+02  0.00000000000E+00 0. -1.
</event>
<event>
 7    1  0.3086024E-009  0.4614231E+02  0.7816164E-02  0.1320468E+00
        -11   -1    0    0    0    0  0.00000000000E+00  0.00000000000E+00  0.45593999997E+02  0.45594000000E+02  0.51100000000E-03 0. -1.
         11   -1    0    0    0    0 -0.00000000000E+00 -0.00000000000E+00 -0.45593999997E+02  0.45594000000E+02  0.51100000000E-03 0.  1.
    9900012    2    1    2    0    0 -0.44981593262E+02 -0.22028674190E+01 -0.95802015452E+00  0.46142310307E+02  0.99999320309E+01 0.  0.
         12    1    1    2    0    0  0.44981593262E+02  0.22028674190E+01  0.95802015452E+00  0.45045689693E+02  0.00000000000E+00 0. -1.
         11    1    3    3    0    0 -0.27433872760E+02 -0.77338632308E+00  0.29897849810E+01  0.27607142472E+02  0.51100000000E-03 0.  1.
        -11    1    3    3    0    0 -0.79771768416E+00 -0.54942274248E+00 -0.11940352896E+01  0.15375107764E+01  0.51100000000E-03 0. -1.
        -12    1    3    3    0    0 -0.16750002818E+02 -0.88005835345E+00 -0.27537698459E+01  0.16997657059E+02  0.00000000000E+00 0.  1.
</event>
<event>
 7    1  0.3086024E-009  0.4614232E+02  0.7816164E-02  0.1320468E+00
        -11   -1    0    0    0    0  0.00000000000E+00  0.00000000000E+00  0.45593999997E+02  0.45594000000E+02  0.51100000000E-03 0.  1.
         11   -1    0    0    0    0 -0.00000000000E+00 -0.00000000000E+00 -0.45593999997E+02  0.45594000000E+02  0.51100000000E-03 0. -1.
    9900012    2    1    2    0    0 -0.37561936160E+02 -0.61136839231E+01  0.24100567040E+02  0.46142317511E+02  0.99999977224E+01 0.  0.
         12    1    1    2    0    0  0.37561936160E+02  0.61136839231E+01 -0.24100567040E+02  0.45045682489E+02  0.00000000000E+00 0. -1.
         11    1    3    3    0    0 -0.21295849979E+02 -0.25172347954E+01  0.78072885444E+01  0.22821118554E+02  0.51100000000E-03 0. -1.
        -11    1    3    3    0    0 -0.73347883543E+01 -0.13248131050E+01  0.78012560455E+01  0.10789524833E+02  0.51100000000E-03 0.  1.
         12    1    3    3    0    0 -0.89312978267E+01 -0.22716360227E+01  0.84920224499E+01  0.12531674125E+02  0.00000000000E+00 0. -1.
</event>
<event>
 7    1  0.3086024E-009  0.4614232E+02  0.7816164E-02  0.1320468E+00
        -11   -1    0    0    0    0  0.00000000000E+00  0.00000000000E+00  0.45593999997E+02  0.45594000000E+02  0.51100000000E-03 0. -1.
         11   -1    0    0    0    0 -0.00000000000E+00 -0.00000000000E+00 -0.45593999997E+02  0.45594000000E+02  0.51100000000E-03 0.  1.
    9900012    2    1    2    0    0 -0.60596607012E+01 -0.44453101921E+02  0.40392935788E+01  0.46142315958E+02  0.99999835604E+01 0.  0.
         12    1    1    2    0    0  0.60596607012E+01  0.44453101921E+02 -0.40392935788E+01  0.45045684042E+02  0.00000000000E+00 0. -1.
         11    1    3    3    0    0  0.86482610605E+00 -0.16116888146E+02  0.31658453459E+01  0.16447631584E+02  0.51100000000E-03 0. -1.
        -11    1    3    3    0    0 -0.58658174605E+01 -0.21395032407E+02 -0.16199939253E+01  0.22243641940E+02  0.51100000000E-03 0.  1.
         12    1    3    3    0    0 -0.10586693467E+01 -0.69411813677E+01  0.24934421582E+01  0.74510424345E+01  0.00000000000E+00 0. -1.
</event>
<event>
 7    1  0.3086024E-009  0.4614232E+02  0.7816164E-02  0.1320468E+00
        -11   -1    0    0    0    0  0.00000000000E+00  0.00000000000E+00  0.45593999997E+02  0.45594000000E+02  0.51100000000E-03 0.  1.
         11   -1    0    0    0    0 -0.00000000000E+00 -0.00000000000E+00 -0.45593999997E+02  0.45594000000E+02  0.51100000000E-03 0. -1.
    9900012    2    1    2    0    0 -0.26874725009E+01 -0.14456927224E+02  0.42578025950E+02  0.46142317110E+02  0.99999940609E+01 0.  0.
         12    1    1    2    0    0  0.26874725009E+01  0.14456927224E+02 -0.42578025950E+02  0.45045682890E+02  0.00000000000E+00 0. -1.
         11    1    3    3    0    0 -0.29442971737E+00  0.31753673035E+00 -0.77241250235E-01  0.43986919129E+00  0.51100000000E-03 0. -1.
        -11    1    3    3    0    0  0.77555065095E+00 -0.42929619760E+01  0.20858459458E+02  0.21309770823E+02  0.51100000000E-03 0.  1.
        -12    1    3    3    0    0 -0.31685934344E+01 -0.10481501978E+02  0.21796807743E+02  0.24392677095E+02  0.00000000000E+00 0.  1.
</event>
<event>
 7    1  0.3086024E-009  0.4614232E+02  0.7816164E-02  0.1320468E+00
        -11   -1    0    0    0    0  0.00000000000E+00  0.00000000000E+00  0.45593999997E+02  0.45594000000E+02  0.51100000000E-03 0.  1.
         11   -1    0    0    0    0 -0.00000000000E+00 -0.00000000000E+00 -0.45593999997E+02  0.45594000000E+02  0.51100000000E-03 0. -1.
    9900012    2    1    2    0    0 -0.28550210356E+02  0.23916943275E+02  0.25337304477E+02  0.46142315577E+02  0.99999800814E+01 0.  0.
         12    1    1    2    0    0  0.28550210356E+02 -0.23916943275E+02 -0.25337304477E+02  0.45045684423E+02  0.00000000000E+00 0. -1.
         11    1    3    3    0    0 -0.70366484033E+01  0.67192380192E+01  0.64296015409E+01  0.11662004825E+02  0.51100000000E-03 0.  1.
        -11    1    3    3    0    0 -0.16316064861E+02  0.16420587068E+02  0.12906587980E+02  0.26503389703E+02  0.51100000000E-03 0. -1.
        -12    1    3    3    0    0 -0.51974970913E+01  0.77711818800E+00  0.60011149560E+01  0.79769210480E+01  0.00000000000E+00 0.  1.
</event>
<event>
 7    1  0.3086024E-009  0.4614232E+02  0.7816164E-02  0.1320468E+00
        -11   -1    0    0    0    0  0.00000000000E+00  0.00000000000E+00  0.45593999997E+02  0.45594000000E+02  0.51100000000E-03 0.  1.
         11   -1    0    0    0    0 -0.00000000000E+00 -0.00000000000E+00 -0.45593999997E+02  0.45594000000E+02  0.51100000000E-03 0. -1.
    9900012    2    1    2    0    0 -0.38915592158E+02  0.16874282204E+02  0.15164060130E+02  0.46142318381E+02  0.10000005650E+02 0.  0.
         12    1    1    2    0    0  0.38915592158E+02 -0.16874282204E+02 -0.15164060130E+02  0.45045681619E+02  0.00000000000E+00 0. -1.
         11    1    3    3    0    0 -0.20327964102E+02  0.11103925780E+02  0.50911354124E+01  0.23715879750E+02  0.51100000000E-03 0. -1.
        -11    1    3    3    0    0 -0.18503574248E+02  0.48870009221E+01  0.94637989594E+01  0.21350141193E+02  0.51100000000E-03 0.  1.
         12    1    3    3    0    0 -0.84053808027E-01  0.88335550138E+00  0.60912575830E+00  0.10762974375E+01  0.00000000000E+00 0. -1.
</event>
<event>
 7    1  0.3086024E-009  0.4614232E+02  0.7816164E-02  0.1320468E+00
        -11   -1    0    0    0    0  0.00000000000E+00  0.00000000000E+00  0.45593999997E+02  0.45594000000E+02  0.51100000000E-03 0.  1.
         11   -1    0    0    0    0 -0.00000000000E+00 -0.00000000000E+00 -0.45593999997E+02  0.45594000000E+02  0.51100000000E-03 0. -1.
    9900012    2    1    2    0    0  0.21908109875E+02  0.20103804276E+02  0.33837630548E+02  0.46142318012E+02  0.10000002286E+02 0.  0.
         12    1    1    2    0    0 -0.21908109875E+02 -0.20103804276E+02 -0.33837630548E+02  0.45045681988E+02  0.00000000000E+00 0. -1.
         11    1    3    3    0    0  0.23576029994E+00  0.27135915205E+00  0.24848219388E+01  0.25106889567E+01  0.51100000000E-03 0. -1.
        -11    1    3    3    0    0  0.16462400019E+02  0.10340514338E+02  0.18645023325E+02  0.26936476128E+02  0.51100000000E-03 0.  1.
        -12    1    3    3    0    0  0.52099495567E+01  0.94919307861E+01  0.12707785284E+02  0.16695152927E+02  0.00000000000E+00 0.  1.
</event>
<event>
 7    1  0.3086024E-009  0.4614232E+02  0.7816164E-02  0.1320468E+00
        -11   -1    0    0    0    0  0.00000000000E+00  0.00000000000E+00  0.45593999997E+02  0.45594000000E+02  0.51100000000E-03 0. -1.
         11   -1    0    0    0    0 -0.00000000000E+00 -0.00000000000E+00 -0.45593999997E+02  0.45594000000E+02  0.51100000000E-03 0.  1.
    9900012    2    1    2    0    0  0.18723299291E+02 -0.86693770467E+01 -0.40042395894E+02  0.46142317591E+02  0.99999984521E+01 0.  0.
         12    1    1    2    0    0 -0.18723299291E+02  0.86693770467E+01  0.40042395894E+02  0.45045682409E+02  0.00000000000E+00 0. -1.
         11    1    3    3    0    0  0.43384490894E+01 -0.24687692002E+01 -0.16910709548E+02  0.17632046380E+02  0.51100000000E-03 0. -1.
        -11    1    3    3    0    0  0.12401847231E+02 -0.64932067263E+01 -0.16795053273E+02  0.21864157039E+02  0.51100000000E-03 0.  1.
         12    1    3    3    0    0  0.19830029701E+01  0.29259887980E+00 -0.63366330727E+01  0.66461141716E+01  0.00000000000E+00 0. -1.
</event>
<event>
 7    1  0.3086024E-009  0.4614232E+02  0.7816164E-02  0.1320468E+00
        -11   -1    0    0    0    0  0.00000000000E+00  0.00000000000E+00  0.45593999997E+02  0.45594000000E+02  0.51100000000E-03 0.  1.
         11   -1    0    0    0    0 -0.00000000000E+00 -0.00000000000E+00 -0.45593999997E+02  0.45594000000E+02  0.51100000000E-03 0. -1.
    9900012    2    1    2    0    0  0.28642707598E+02  0.20737722844E+02  0.27904404859E+02  0.46142315880E+02  0.99999828495E+01 0.  0.
         12    1    1    2    0    0 -0.28642707598E+02 -0.20737722844E+02 -0.27904404859E+02  0.45045684120E+02  0.00000000000E+00 0. -1.
         11    1    3    3    0    0  0.32966082217E+01  0.28663019076E+01  0.66621982550E+01  0.79666930556E+01  0.51100000000E-03 0.  1.
        -11    1    3    3    0    0  0.16163192439E+02  0.89118924660E+01  0.93866933169E+01  0.20707018830E+02  0.51100000000E-03 0. -1.
         12    1    3    3    0    0  0.91829069378E+01  0.89595284702E+01  0.11855513287E+02  0.17468603995E+02  0.00000000000E+00 0. -1.
</event>
<event>
 7    1  0.3086024E-009  0.4614232E+02  0.7816164E-02  0.1320468E+00
        -11   -1    0    0    0    0  0.00000000000E+00  0.00000000000E+00  0.45593999997E+02  0.45594000000E+02  0.51100000000E-03 0.  1.
         11   -1    0    0    0    0 -0.00000000000E+00 -0.00000000000E+00 -0.45593999997E+02  0.45594000000E+02  0.51100000000E-03 0. -1.
    9900012    2    1    2    0    0  0.24922820170E+02 -0.33845349987E+02  0.16200580992E+02  0.46142317572E+02  0.99999982729E+01 0.  0.
         12    1    1    2    0    0 -0.24922820170E+02  0.33845349987E+02 -0.16200580992E+02  0.45045682428E+02  0.00000000000E+00 0. -1.
         11    1    3    3    0    0  0.13593115254E+02 -0.16970737146E+02  0.74446804742E+01  0.22982644957E+02  0.51100000000E-03 0.  1.
        -11    1    3    3    0    0  0.59527051990E+01 -0.11730155169E+02  0.86009006322E+01  0.15716447799E+02  0.51100000000E-03 0. -1.
         12    1    3    3    0    0  0.53769997172E+01 -0.51444576715E+01  0.15499988544E+00  0.74432248157E+01  0.00000000000E+00 0. -1.
</event>
<event>
 7    1  0.3086024E-009  0.4614232E+02  0.7816164E-02  0.1320468E+00
        -11   -1    0    0    0    0  0.00000000000E+00  0.00000000000E+00  0.45593999997E+02  0.45594000000E+02  0.51100000000E-03 0.  1.
         11   -1    0    0    0    0 -0.00000000000E+00 -0.00000000000E+00 -0.45593999997E+02  0.45594000000E+02  0.51100000000E-03 0. -1.
    9900012    2    1    2    0    0 -0.29119892404E+01  0.25904514052E+01  0.44876757715E+02  0.46142317601E+02  0.99999985392E+01 0.  0.
         12    1    1    2    0    0  0.29119892404E+01 -0.25904514052E+01 -0.44876757715E+02  0.45045682399E+02  0.00000000000E+00 0. -1.
         11    1    3    3    0    0 -0.85532503309E+00  0.32333585489E+01  0.13783757807E+02  0.14183728986E+02  0.51100000000E-03 0. -1.
        -11    1    3    3    0    0 -0.37876775043E+01 -0.48261727083E+00  0.28942643575E+02  0.29193424562E+02  0.51100000000E-03 0.  1.
         12    1    3    3    0    0  0.17310132970E+01 -0.16028987287E+00  0.21503563327E+01  0.27651640521E+01  0.00000000000E+00 0. -1.
</event>
<event>
 7    1  0.3086024E-009  0.4614232E+02  0.7816164E-02  0.1320468E+00
        -11   -1    0    0    0    0  0.00000000000E+00  0.00000000000E+00  0.45593999997E+02  0.45594000000E+02  0.51100000000E-03 0.  1.
         11   -1    0    0    0    0 -0.00000000000E+00 -0.00000000000E+00 -0.45593999997E+02  0.45594000000E+02  0.51100000000E-03 0. -1.
    9900012    2    1    2    0    0 -0.24506436691E+02 -0.81975316347E+01  0.36896456288E+02  0.46142318178E+02  0.10000003806E+02 0.  0.
         12    1    1    2    0    0  0.24506436691E+02  0.81975316347E+01 -0.36896456288E+02  0.45045681822E+02  0.00000000000E+00 0. -1.
         11    1    3    3    0    0 -0.40276801361E+01  0.13511890832E+01  0.33092246820E+01  0.53850615107E+01  0.51100000000E-03 0. -1.
        -11    1    3    3    0    0 -0.14390610064E+02 -0.77445914884E+01  0.20549906161E+02  0.26255799337E+02  0.51100000000E-03 0.  1.
         12    1    3    3    0    0 -0.60881464908E+01 -0.18041292294E+01  0.13037325445E+02  0.14501457331E+02  0.00000000000E+00 0. -1.
</event>
<event>
 7    1  0.3086024E-009  0.4614232E+02  0.7816164E-02  0.1320468E+00
        -11   -1    0    0    0    0  0.00000000000E+00  0.00000000000E+00  0.45593999997E+02  0.45594000000E+02  0.51100000000E-03 0. -1.
         11   -1    0    0    0    0 -0.00000000000E+00 -0.00000000000E+00 -0.45593999997E+02  0.45594000000E+02  0.51100000000E-03 0.  1.
    9900012    2    1    2    0    0 -0.32086666765E+02  0.80385134514E+01 -0.30576815532E+02  0.46142317291E+02  0.99999957145E+01 0.  0.
         12    1    1    2    0    0  0.32086666765E+02 -0.80385134514E+01  0.30576815532E+02  0.45045682709E+02  0.00000000000E+00 0. -1.
         11    1    3    3    0    0 -0.54231401564E+01  0.25161380820E+01 -0.25619964806E+01  0.65042467844E+01  0.51100000000E-03 0. -1.
        -11    1    3    3    0    0 -0.14219731699E+02  0.52176240847E+01 -0.18844713283E+02  0.24177419003E+02  0.51100000000E-03 0.  1.
        -12    1    3    3    0    0 -0.12443794910E+02  0.30475128471E+00 -0.91701057685E+01  0.15460651504E+02  0.00000000000E+00 0.  1.
</event>
<event>
 7    1  0.3086024E-009  0.4614232E+02  0.7816164E-02  0.1320468E+00
        -11   -1    0    0    0    0  0.00000000000E+00  0.00000000000E+00  0.45593999997E+02  0.45594000000E+02  0.51100000000E-03 0.  1.
         11   -1    0    0    0    0 -0.00000000000E+00 -0.00000000000E+00 -0.45593999997E+02  0.45594000000E+02  0.51100000000E-03 0. -1.
    9900012    2    1    2    0    0  0.10687556055E+02  0.35495916524E+02  0.25591591412E+02  0.46142317684E+02  0.99999993012E+01 0.  0.
         12    1    1    2    0    0 -0.10687556055E+02 -0.35495916524E+02 -0.25591591412E+02  0.45045682316E+02  0.00000000000E+00 0. -1.
         11    1    3    3    0    0  0.19148770789E+01  0.57748400336E+01  0.27328679071E+01  0.66696400877E+01  0.51100000000E-03 0. -1.
        -11    1    3    3    0    0  0.71454187865E+01  0.12266465796E+02  0.69756888137E+01  0.15817187722E+02  0.51100000000E-03 0.  1.
        -12    1    3    3    0    0  0.16272601901E+01  0.17454610694E+02  0.15883034691E+02  0.23655489874E+02  0.00000000000E+00 0.  1.
</event>
<event>
 7    1  0.3086024E-009  0.4614232E+02  0.7816164E-02  0.1320468E+00
        -11   -1    0    0    0    0  0.00000000000E+00  0.00000000000E+00  0.45593999997E+02  0.45594000000E+02  0.51100000000E-03 0.  1.
         11   -1    0    0    0    0 -0.00000000000E+00 -0.00000000000E+00 -0.45593999997E+02  0.45594000000E+02  0.51100000000E-03 0. -1.
    9900012    2    1    2    0    0  0.36628041874E+02  0.26220221058E+02 -0.60530727836E-02  0.46142317848E+02  0.10000000791E+02 0.  0.
         12    1    1    2    0    0 -0.36628041874E+02 -0.26220221058E+02  0.60530727836E-02  0.45045682152E+02  0.00000000000E+00 0. -1.
         11    1    3    3    0    0  0.11277431004E+02  0.59522263197E+01 -0.23625011960E+01  0.12968841905E+02  0.51100000000E-03 0. -1.
        -11    1    3    3    0    0  0.87844970098E+01  0.38321734583E+01 -0.83446705178E+00  0.96202534608E+01  0.51100000000E-03 0.  1.
         12    1    3    3    0    0  0.16566113861E+02  0.16435821280E+02  0.31909151750E+01  0.23553222482E+02  0.00000000000E+00 0. -1.
</event>
<event>
 7    1  0.3086024E-009  0.4614232E+02  0.7816164E-02  0.1320468E+00
        -11   -1    0    0    0    0  0.00000000000E+00  0.00000000000E+00  0.45593999997E+02  0.45594000000E+02  0.51100000000E-03 0.  1.
         11   -1    0    0    0    0 -0.00000000000E+00 -0.00000000000E+00 -0.45593999997E+02  0.45594000000E+02  0.51100000000E-03 0. -1.
    9900012    2    1    2    0    0 -0.13079829853E+02 -0.34781046135E+02  0.25461941608E+02  0.46142316637E+02  0.99999897500E+01 0.  0.
         12    1    1    2    0    0  0.13079829853E+02  0.34781046135E+02 -0.25461941608E+02  0.45045683363E+02  0.00000000000E+00 0. -1.
         11    1    3    3    0    0  0.13301071836E+00 -0.98057633065E+01  0.43138448314E+01  0.10713540188E+02  0.51100000000E-03 0. -1.
        -11    1    3    3    0    0 -0.51669344270E+01 -0.79619388222E+01  0.56266570352E+01  0.11033990703E+02  0.51100000000E-03 0.  1.
         12    1    3    3    0    0 -0.80459061439E+01 -0.17013344006E+02  0.15521439741E+02  0.24394785746E+02  0.00000000000E+00 0. -1.
</event>
<event>
 7    1  0.3086024E-009  0.4614232E+02  0.7816164E-02  0.1320468E+00
        -11   -1    0    0    0    0  0.00000000000E+00  0.00000000000E+00  0.45593999997E+02  0.45594000000E+02  0.51100000000E-03 0. -1.
         11   -1    0    0    0    0 -0.00000000000E+00 -0.00000000000E+00 -0.45593999997E+02  0.45594000000E+02  0.51100000000E-03 0.  1.
    9900012    2    1    2    0    0 -0.33419652959E+02 -0.10882387985E+02 -0.28174703984E+02  0.46142317446E+02  0.99999971277E+01 0.  0.
         12    1    1    2    0    0  0.33419652959E+02  0.10882387985E+02  0.28174703984E+02  0.45045682554E+02  0.00000000000E+00 0. -1.
         11    1    3    3    0    0 -0.28089359781E+01 -0.84327213470E+00 -0.28152906928E+00  0.29462668074E+01  0.51100000000E-03 0. -1.
        -11    1    3    3    0    0 -0.28886040777E+02 -0.81657270601E+01 -0.23517527282E+02  0.38133404515E+02  0.51100000000E-03 0.  1.
        -12    1    3    3    0    0 -0.17246762040E+01 -0.18733887898E+01 -0.43756476331E+01  0.50626461239E+01  0.00000000000E+00 0.  1.
</event>
<event>
 7    1  0.3086024E-009  0.4614232E+02  0.7816164E-02  0.1320468E+00
        -11   -1    0    0    0    0  0.00000000000E+00  0.00000000000E+00  0.45593999997E+02  0.45594000000E+02  0.51100000000E-03 0.  1.
         11   -1    0    0    0    0 -0.00000000000E+00 -0.00000000000E+00 -0.45593999997E+02  0.45594000000E+02  0.51100000000E-03 0. -1.
    9900012    2    1    2    0    0 -0.42351383318E+02 -0.13957371612E+02 -0.63769635087E+01  0.46142317023E+02  0.99999932669E+01 0.  0.
         12    1    1    2    0    0  0.42351383318E+02  0.13957371612E+02  0.63769635087E+01  0.45045682977E+02  0.00000000000E+00 0. -1.
         11    1    3    3    0    0 -0.16517522845E+01 -0.28020979021E+01  0.39103827771E-01  0.32529321593E+01  0.51100000000E-03 0. -1.
        -11    1    3    3    0    0 -0.11346428760E+02 -0.45563085760E+01 -0.31534067584E+01  0.12627167849E+02  0.51100000000E-03 0.  1.
        -12    1    3    3    0    0 -0.29353202274E+02 -0.65989651337E+01 -0.32626605781E+01  0.30262217015E+02  0.00000000000E+00 0.  1.
</event>
<event>
 7    1  0.3086024E-009  0.4614232E+02  0.7816164E-02  0.1320468E+00
        -11   -1    0    0    0    0  0.00000000000E+00  0.00000000000E+00  0.45593999997E+02  0.45594000000E+02  0.51100000000E-03 0.  1.
         11   -1    0    0    0    0 -0.00000000000E+00 -0.00000000000E+00 -0.45593999997E+02  0.45594000000E+02  0.51100000000E-03 0. -1.
    9900012    2    1    2    0    0  0.53834178768E+01  0.10502102305E+02  0.43472269065E+02  0.46142317426E+02  0.99999969467E+01 0.  0.
         12    1    1    2    0    0 -0.53834178768E+01 -0.10502102305E+02 -0.43472269065E+02  0.45045682574E+02  0.00000000000E+00 0. -1.
         11    1    3    3    0    0  0.16665024155E+01  0.58498205881E+01  0.10615136744E+02  0.12234327099E+02  0.51100000000E-03 0. -1.
        -11    1    3    3    0    0  0.16916140320E+01  0.54931124248E+01  0.18151925330E+02  0.19040174253E+02  0.51100000000E-03 0.  1.
         12    1    3    3    0    0  0.20253014292E+01 -0.84083070777E+00  0.14705206991E+02  0.14867816074E+02  0.00000000000E+00 0. -1.
</event>
<event>
 7    1  0.3086024E-009  0.4614232E+02  0.7816164E-02  0.1320468E+00
        -11   -1    0    0    0    0  0.00000000000E+00  0.00000000000E+00  0.45593999997E+02  0.45594000000E+02  0.51100000000E-03 0.  1.
         11   -1    0    0    0    0 -0.00000000000E+00 -0.00000000000E+00 -0.45593999997E+02  0.45594000000E+02  0.51100000000E-03 0. -1.
    9900012    2    1    2    0    0 -0.17805654143E+01 -0.44961358532E+02  0.21021585587E+01  0.46142320464E+02  0.10000024650E+02 0.  0.
         12    1    1    2    0    0  0.17805654143E+01  0.44961358532E+02 -0.21021585587E+01  0.45045679536E+02  0.00000000000E+00 0. -1.
         11    1    3    3    0    0  0.74441175354E+00 -0.77425183904E+01 -0.12626974943E+01  0.78800472782E+01  0.51100000000E-03 0. -1.
        -11    1    3    3    0    0 -0.38232794574E+01 -0.35382090165E+02  0.20281913277E+01  0.35645803829E+02  0.51100000000E-03 0.  1.
        -12    1    3    3    0    0  0.12983022896E+01 -0.18367499762E+01  0.13366647253E+01  0.26164693574E+01  0.00000000000E+00 0.  1.
</event>
<event>
 7    1  0.3086024E-009  0.4614232E+02  0.7816164E-02  0.1320468E+00
        -11   -1    0    0    0    0  0.00000000000E+00  0.00000000000E+00  0.45593999997E+02  0.45594000000E+02  0.51100000000E-03 0.  1.
         11   -1    0    0    0    0 -0.00000000000E+00 -0.00000000000E+00 -0.45593999997E+02  0.45594000000E+02  0.51100000000E-03 0. -1.
    9900012    2    1    2    0    0  0.14882364441E+02  0.14996678633E+02  0.39783517918E+02  0.46142318306E+02  0.10000004966E+02 0.  0.
         12    1    1    2    0    0 -0.14882364441E+02 -0.14996678633E+02 -0.39783517918E+02  0.45045681694E+02  0.00000000000E+00 0. -1.
         11    1    3    3    0    0  0.48262717753E+01  0.14785695465E+01  0.54176462480E+01  0.74047254022E+01  0.51100000000E-03 0. -1.
        -11    1    3    3    0    0  0.88061227195E+01  0.70257651432E+01  0.21699830023E+02  0.24449781113E+02  0.51100000000E-03 0.  1.
         12    1    3    3    0    0  0.12499699458E+01  0.64923439436E+01  0.12666041647E+02  0.14287811791E+02  0.00000000000E+00 0. -1.
</event>
<event>
 7    1  0.3086024E-009  0.4614232E+02  0.7816164E-02  0.1320468E+00
        -11   -1    0    0    0    0  0.00000000000E+00  0.00000000000E+00  0.45593999997E+02  0.45594000000E+02  0.51100000000E-03 0.  1.
         11   -1    0    0    0    0 -0.00000000000E+00 -0.00000000000E+00 -0.45593999997E+02  0.45594000000E+02  0.51100000000E-03 0. -1.
    9900012    2    1    2    0    0 -0.38704692912E+02  0.16603245446E+01  0.22984854274E+02  0.46142318109E+02  0.10000003175E+02 0.  0.
         12    1    1    2    0    0  0.38704692912E+02 -0.16603245446E+01 -0.22984854274E+02  0.45045681891E+02  0.00000000000E+00 0. -1.
         11    1    3    3    0    0 -0.16150256421E+01  0.56129474773E+00  0.23340816004E+01  0.28933193389E+01  0.51100000000E-03 0. -1.
        -11    1    3    3    0    0 -0.45797048916E+01  0.29313922245E+01  0.28356499178E+01  0.61325091101E+01  0.51100000000E-03 0.  1.
        -12    1    3    3    0    0 -0.32509962378E+02 -0.18323624276E+01  0.17815122756E+02  0.37116489660E+02  0.00000000000E+00 0.  1.
</event>
<event>
 7    1  0.3086024E-009  0.4614232E+02  0.7816164E-02  0.1320468E+00
        -11   -1    0    0    0    0  0.00000000000E+00  0.00000000000E+00  0.45593999997E+02  0.45594000000E+02  0.51100000000E-03 0.  1.
         11   -1    0    0    0    0 -0.00000000000E+00 -0.00000000000E+00 -0.45593999997E+02  0.45594000000E+02  0.51100000000E-03 0. -1.
    9900012    2    1    2    0    0  0.73052048787E+01  0.18966769434E+02  0.40199614577E+02  0.46142319039E+02  0.10000011654E+02 0.  0.
         12    1    1    2    0    0 -0.73052048787E+01 -0.18966769434E+02 -0.40199614577E+02  0.45045680961E+02  0.00000000000E+00 0. -1.
         11    1    3    3    0    0  0.59881001018E+01  0.61182673746E+01  0.10307494968E+02  0.13399066806E+02  0.51100000000E-03 0. -1.
        -11    1    3    3    0    0 -0.11730817274E+01  0.45208540030E+01  0.10269212471E+02  0.11281443467E+02  0.51100000000E-03 0.  1.
         12    1    3    3    0    0  0.24901865043E+01  0.83276480562E+01  0.19622907138E+02  0.21461808767E+02  0.00000000000E+00 0. -1.
</event>
<event>
 7    1  0.3086024E-009  0.4614232E+02  0.7816164E-02  0.1320468E+00
        -11   -1    0    0    0    0  0.00000000000E+00  0.00000000000E+00  0.45593999997E+02  0.45594000000E+02  0.51100000000E-03 0.  1.
         11   -1    0    0    0    0 -0.00000000000E+00 -0.00000000000E+00 -0.45593999997E+02  0.45594000000E+02  0.51100000000E-03 0. -1.
    9900012    2    1    2    0    0 -0.44724627877E+02  0.38442889268E+01  0.37473502990E+01  0.46142317295E+02  0.99999957530E+01 0.  0.
         12    1    1    2    0    0  0.44724627877E+02 -0.38442889268E+01 -0.37473502990E+01  0.45045682705E+02  0.00000000000E+00 0. -1.
         11    1    3    3    0    0 -0.81831584150E+01  0.28416291415E+01  0.45440952456E+00  0.86744121472E+01  0.51100000000E-03 0. -1.
        -11    1    3    3    0    0 -0.55320031022E+01 -0.25770838315E+01  0.75860161976E+00  0.61497882952E+01  0.51100000000E-03 0.  1.
        -12    1    3    3    0    0 -0.31009466360E+02  0.35797436168E+01  0.25343391547E+01  0.31318116853E+02  0.00000000000E+00 0.  1.
</event>
<event>
 7    1  0.3086024E-009  0.4614231E+02  0.7816164E-02  0.1320468E+00
        -11   -1    0    0    0    0  0.00000000000E+00  0.00000000000E+00  0.45593999997E+02  0.45594000000E+02  0.51100000000E-03 0.  1.
         11   -1    0    0    0    0 -0.00000000000E+00 -0.00000000000E+00 -0.45593999997E+02  0.45594000000E+02  0.51100000000E-03 0. -1.
    9900012    2    1    2    0    0 -0.43827666356E+00 -0.13074588775E+02  0.43104255512E+02  0.46142314287E+02  0.99999683237E+01 0.  0.
         12    1    1    2    0    0  0.43827666356E+00  0.13074588775E+02 -0.43104255512E+02  0.45045685713E+02  0.00000000000E+00 0. -1.
         11    1    3    3    0    0 -0.45091715135E+01 -0.80305880878E+01  0.28371683350E+02  0.29829103056E+02  0.51100000000E-03 0. -1.
        -11    1    3    3    0    0  0.28646478702E+01 -0.49950527789E+01  0.12784137015E+02  0.14021088373E+02  0.51100000000E-03 0.  1.
        -12    1    3    3    0    0  0.12062469797E+01 -0.48947908430E-01  0.19484351465E+01  0.22921228575E+01  0.00000000000E+00 0.  1.
</event>
<event>
 7    1  0.3086024E-009  0.4614232E+02  0.7816164E-02  0.1320468E+00
        -11   -1    0    0    0    0  0.00000000000E+00  0.00000000000E+00  0.45593999997E+02  0.45594000000E+02  0.51100000000E-03 0.  1.
         11   -1    0    0    0    0 -0.00000000000E+00 -0.00000000000E+00 -0.45593999997E+02  0.45594000000E+02  0.51100000000E-03 0. -1.
    9900012    2    1    2    0    0 -0.21223208787E+02 -0.34387226281E+02  0.19904961239E+02  0.46142318693E+02  0.10000008497E+02 0.  0.
         12    1    1    2    0    0  0.21223208787E+02  0.34387226281E+02 -0.19904961239E+02  0.45045681307E+02  0.00000000000E+00 0. -1.
         11    1    3    3    0    0 -0.71098607469E+01 -0.92096103503E+01  0.33828602066E+01  0.12116550090E+02  0.51100000000E-03 0.  1.
        -11    1    3    3    0    0 -0.66506372018E+01 -0.52930062985E+01  0.50438461972E+01  0.98836873478E+01  0.51100000000E-03 0. -1.
         12    1    3    3    0    0 -0.74627108382E+01 -0.19884609632E+02  0.11478254835E+02  0.24142081255E+02  0.00000000000E+00 0. -1.
</event>
<event>
 7    1  0.3086024E-009  0.4614232E+02  0.7816164E-02  0.1320468E+00
        -11   -1    0    0    0    0  0.00000000000E+00  0.00000000000E+00  0.45593999997E+02  0.45594000000E+02  0.51100000000E-03 0.  1.
         11   -1    0    0    0    0 -0.00000000000E+00 -0.00000000000E+00 -0.45593999997E+02  0.45594000000E+02  0.51100000000E-03 0. -1.
    9900012    2    1    2    0    0  0.83625006908E+01  0.42947297538E+02  0.10710356692E+02  0.46142317364E+02  0.99999963828E+01 0.  0.
         12    1    1    2    0    0 -0.83625006908E+01 -0.42947297538E+02 -0.10710356692E+02  0.45045682636E+02  0.00000000000E+00 0. -1.
         11    1    3    3    0    0  0.27204738771E+01  0.88469768778E+01  0.61533261058E+00  0.92762391342E+01  0.51100000000E-03 0. -1.
        -11    1    3    3    0    0  0.40726014905E+01  0.31684820804E+02  0.11094268232E+02  0.33817107211E+02  0.51100000000E-03 0.  1.
         12    1    3    3    0    0  0.15694253232E+01  0.24154998566E+01 -0.99924415066E+00  0.30489710191E+01  0.00000000000E+00 0. -1.
</event>
<event>
 7    1  0.3086024E-009  0.4614232E+02  0.7816164E-02  0.1320468E+00
        -11   -1    0    0    0    0  0.00000000000E+00  0.00000000000E+00  0.45593999997E+02  0.45594000000E+02  0.51100000000E-03 0.  1.
         11   -1    0    0    0    0 -0.00000000000E+00 -0.00000000000E+00 -0.45593999997E+02  0.45594000000E+02  0.51100000000E-03 0. -1.
    9900012    2    1    2    0    0 -0.52879850929E+01 -0.41495947126E+02  0.16710386470E+02  0.46142318407E+02  0.10000005889E+02 0.  0.
         12    1    1    2    0    0  0.52879850929E+01  0.41495947126E+02 -0.16710386470E+02  0.45045681593E+02  0.00000000000E+00 0. -1.
         11    1    3    3    0    0  0.63035105397E+00 -0.86332440662E+01  0.26696846594E+01  0.90585573906E+01  0.51100000000E-03 0. -1.
        -11    1    3    3    0    0  0.27599752064E+00 -0.19244543915E+02  0.63849687312E+01  0.20277979956E+02  0.51100000000E-03 0.  1.
        -12    1    3    3    0    0 -0.61943336675E+01 -0.13618159145E+02  0.76557330791E+01  0.16805781061E+02  0.00000000000E+00 0.  1.
</event>
<event>
 7    1  0.3086024E-009  0.4614232E+02  0.7816164E-02  0.1320468E+00
        -11   -1    0    0    0    0  0.00000000000E+00  0.00000000000E+00  0.45593999997E+02  0.45594000000E+02  0.51100000000E-03 0.  1.
         11   -1    0    0    0    0 -0.00000000000E+00 -0.00000000000E+00 -0.45593999997E+02  0.45594000000E+02  0.51100000000E-03 0. -1.
    9900012    2    1    2    0    0 -0.10623846071E+02 -0.35816894901E+01  0.43628188562E+02  0.46142318274E+02  0.10000004681E+02 0.  0.
         12    1    1    2    0    0  0.10623846071E+02  0.35816894901E+01 -0.43628188562E+02  0.45045681726E+02  0.00000000000E+00 0. -1.
         11    1    3    3    0    0 -0.33080196583E+01  0.30161242284E+01  0.10093779632E+02  0.11041937644E+02  0.51100000000E-03 0. -1.
        -11    1    3    3    0    0 -0.56001136653E+01 -0.35599612331E+01  0.18141938540E+02  0.19317467000E+02  0.51100000000E-03 0.  1.
        -12    1    3    3    0    0 -0.17157127477E+01 -0.30378524855E+01  0.15392470390E+02  0.15782913630E+02  0.00000000000E+00 0.  1.
</event>
<event>
 7    1  0.3086024E-009  0.4614232E+02  0.7816164E-02  0.1320468E+00
        -11   -1    0    0    0    0  0.00000000000E+00  0.00000000000E+00  0.45593999997E+02  0.45594000000E+02  0.51100000000E-03 0.  1.
         11   -1    0    0    0    0 -0.00000000000E+00 -0.00000000000E+00 -0.45593999997E+02  0.45594000000E+02  0.51100000000E-03 0. -1.
    9900012    2    1    2    0    0  0.15017253044E+02 -0.13671999909E+02  0.40207859852E+02  0.46142318027E+02  0.10000002427E+02 0.  0.
         12    1    1    2    0    0 -0.15017253044E+02  0.13671999909E+02 -0.40207859852E+02  0.45045681973E+02  0.00000000000E+00 0. -1.
         11    1    3    3    0    0  0.84014859698E+01 -0.39735807258E+01  0.22824334205E+02  0.24643955496E+02  0.51100000000E-03 0. -1.
        -11    1    3    3    0    0  0.60079668546E+01 -0.72697005561E+01  0.10203911709E+02  0.13894748156E+02  0.51100000000E-03 0.  1.
        -12    1    3    3    0    0  0.60780021991E+00 -0.24287186268E+01  0.71796139377E+01  0.76036143754E+01  0.00000000000E+00 0.  1.
</event>
<event>
 7    1  0.3086024E-009  0.4614232E+02  0.7816164E-02  0.1320468E+00
        -11   -1    0    0    0    0  0.00000000000E+00  0.00000000000E+00  0.45593999997E+02  0.45594000000E+02  0.51100000000E-03 0. -1.
         11   -1    0    0    0    0 -0.00000000000E+00 -0.00000000000E+00 -0.45593999997E+02  0.45594000000E+02  0.51100000000E-03 0.  1.
    9900012    2    1    2    0    0  0.28207006036E+02 -0.63665640058E+01 -0.34539038320E+02  0.46142317690E+02  0.99999993487E+01 0.  0.
         12    1    1    2    0    0 -0.28207006036E+02  0.63665640058E+01  0.34539038320E+02  0.45045682310E+02  0.00000000000E+00 0. -1.
         11    1    3    3    0    0  0.10212170141E+02 -0.31764513836E+01 -0.18735228508E+02  0.21572831290E+02  0.51100000000E-03 0. -1.
        -11    1    3    3    0    0  0.68494428886E+01 -0.90280517490E+00 -0.32755192429E+01  0.76458453843E+01  0.51100000000E-03 0.  1.
        -12    1    3    3    0    0  0.11145393006E+02 -0.22873074473E+01 -0.12528290569E+02  0.16923641015E+02  0.00000000000E+00 0.  1.
</event>
<event>
 7    1  0.3086024E-009  0.4614232E+02  0.7816164E-02  0.1320468E+00
        -11   -1    0    0    0    0  0.00000000000E+00  0.00000000000E+00  0.45593999997E+02  0.45594000000E+02  0.51100000000E-03 0.  1.
         11   -1    0    0    0    0 -0.00000000000E+00 -0.00000000000E+00 -0.45593999997E+02  0.45594000000E+02  0.51100000000E-03 0. -1.
    9900012    2    1    2    0    0 -0.21116384292E+02 -0.84769561687E+01  0.38876124837E+02  0.46142317035E+02  0.99999933787E+01 0.  0.
         12    1    1    2    0    0  0.21116384292E+02  0.84769561687E+01 -0.38876124837E+02  0.45045682965E+02  0.00000000000E+00 0. -1.
         11    1    3    3    0    0 -0.22680674324E+01  0.14012594508E-01  0.76964241737E+00  0.23951358923E+01  0.51100000000E-03 0. -1.
        -11    1    3    3    0    0 -0.52667489523E+01 -0.63133034681E+00  0.14124046214E+02  0.15087276237E+02  0.51100000000E-03 0.  1.
        -12    1    3    3    0    0 -0.13581567907E+02 -0.78596384164E+01  0.23982436205E+02  0.28659904906E+02  0.00000000000E+00 0.  1.
</event>
<event>
 7    1  0.3086024E-009  0.4614232E+02  0.7816164E-02  0.1320468E+00
        -11   -1    0    0    0    0  0.00000000000E+00  0.00000000000E+00  0.45593999997E+02  0.45594000000E+02  0.51100000000E-03 0. -1.
         11   -1    0    0    0    0 -0.00000000000E+00 -0.00000000000E+00 -0.45593999997E+02  0.45594000000E+02  0.51100000000E-03 0.  1.
    9900012    2    1    2    0    0  0.22186355900E+02  0.38764693372E+02 -0.58461609459E+01  0.46142318319E+02  0.10000005083E+02 0.  0.
         12    1    1    2    0    0 -0.22186355900E+02 -0.38764693372E+02  0.58461609459E+01  0.45045681681E+02  0.00000000000E+00 0. -1.
         11    1    3    3    0    0  0.40308741427E+01  0.13686482564E+02 -0.32524479648E+01  0.14633733952E+02  0.51100000000E-03 0. -1.
        -11    1    3    3    0    0  0.13925677346E+02  0.18839985245E+02  0.31415142775E+00  0.23430070955E+02  0.51100000000E-03 0.  1.
         12    1    3    3    0    0  0.42298044117E+01  0.62382255627E+01 -0.29078644089E+01  0.80785134123E+01  0.00000000000E+00 0. -1.
</event>
<event>
 7    1  0.3086024E-009  0.4614232E+02  0.7816164E-02  0.1320468E+00
        -11   -1    0    0    0    0  0.00000000000E+00  0.00000000000E+00  0.45593999997E+02  0.45594000000E+02  0.51100000000E-03 0.  1.
         11   -1    0    0    0    0 -0.00000000000E+00 -0.00000000000E+00 -0.45593999997E+02  0.45594000000E+02  0.51100000000E-03 0. -1.
    9900012    2    1    2    0    0 -0.85981657525E+01  0.20677208963E+02  0.39085011413E+02  0.46142317166E+02  0.99999945777E+01 0.  0.
         12    1    1    2    0    0  0.85981657525E+01 -0.20677208963E+02 -0.39085011413E+02  0.45045682834E+02  0.00000000000E+00 0. -1.
         11    1    3    3    0    0 -0.33648037605E+00  0.69956699097E+01  0.13196895484E+02  0.14940236518E+02  0.51100000000E-03 0. -1.
        -11    1    3    3    0    0 -0.69138969939E+01  0.11330585383E+02  0.15218609000E+02  0.20193815809E+02  0.51100000000E-03 0.  1.
        -12    1    3    3    0    0 -0.13477883825E+01  0.23509536700E+01  0.10669506928E+02  0.11008264839E+02  0.00000000000E+00 0.  1.
</event>
<event>
 7    1  0.3086024E-009  0.4614232E+02  0.7816164E-02  0.1320468E+00
        -11   -1    0    0    0    0  0.00000000000E+00  0.00000000000E+00  0.45593999997E+02  0.45594000000E+02  0.51100000000E-03 0.  1.
         11   -1    0    0    0    0 -0.00000000000E+00 -0.00000000000E+00 -0.45593999997E+02  0.45594000000E+02  0.51100000000E-03 0. -1.
    9900012    2    1    2    0    0 -0.30579608468E+02 -0.27827461164E+02  0.17878294391E+02  0.46142318085E+02  0.10000002954E+02 0.  0.
         12    1    1    2    0    0  0.30579608468E+02  0.27827461164E+02 -0.17878294391E+02  0.45045681915E+02  0.00000000000E+00 0. -1.
         11    1    3    3    0    0 -0.21480849300E+02 -0.21043459984E+02  0.14056422771E+02  0.33193931917E+02  0.51100000000E-03 0.  1.
        -11    1    3    3    0    0 -0.84569540725E+01 -0.64910433905E+01  0.18061486215E+01  0.10812765122E+02  0.51100000000E-03 0. -1.
        -12    1    3    3    0    0 -0.64180509538E+00 -0.29295778962E+00  0.20157229980E+01  0.21356210459E+01  0.00000000000E+00 0.  1.
</event>
<event>
 7    1  0.3086024E-009  0.4614232E+02  0.7816164E-02  0.1320468E+00
        -11   -1    0    0    0    0  0.00000000000E+00  0.00000000000E+00  0.45593999997E+02  0.45594000000E+02  0.51100000000E-03 0.  1.
         11   -1    0    0    0    0 -0.00000000000E+00 -0.00000000000E+00 -0.45593999997E+02  0.45594000000E+02  0.51100000000E-03 0. -1.
    9900012    2    1    2    0    0  0.31554899989E+02 -0.90973132730E+01  0.30832461823E+02  0.46142317364E+02  0.99999963819E+01 0.  0.
         12    1    1    2    0    0 -0.31554899989E+02  0.90973132730E+01 -0.30832461823E+02  0.45045682636E+02  0.00000000000E+00 0. -1.
         11    1    3    3    0    0  0.64570416353E+01 -0.44208211436E+01  0.35463800338E+01  0.85914991631E+01  0.51100000000E-03 0. -1.
        -11    1    3    3    0    0  0.19370215891E+01  0.62897389617E+00  0.20840121562E+01  0.29138921955E+01  0.51100000000E-03 0.  1.
         12    1    3    3    0    0  0.23160836764E+02 -0.53054660255E+01  0.25202069633E+02  0.34636926006E+02  0.00000000000E+00 0. -1.
</event>
<event>
 7    1  0.3086024E-009  0.4614232E+02  0.7816164E-02  0.1320468E+00
        -11   -1    0    0    0    0  0.00000000000E+00  0.00000000000E+00  0.45593999997E+02  0.45594000000E+02  0.51100000000E-03 0. -1.
         11   -1    0    0    0    0 -0.00000000000E+00 -0.00000000000E+00 -0.45593999997E+02  0.45594000000E+02  0.51100000000E-03 0.  1.
    9900012    2    1    2    0    0 -0.42854653294E+02 -0.63053886308E+01 -0.12362615288E+02  0.46142317726E+02  0.99999996832E+01 0.  0.
         12    1    1    2    0    0  0.42854653294E+02  0.63053886308E+01  0.12362615288E+02  0.45045682274E+02  0.00000000000E+00 0. -1.
         11    1    3    3    0    0 -0.14898058396E+01 -0.18069544087E+01 -0.14497530549E+01  0.27543401853E+01  0.51100000000E-03 0. -1.
        -11    1    3    3    0    0 -0.21752293302E+02 -0.49170962369E+01 -0.45110482222E+01  0.22752794457E+02  0.51100000000E-03 0.  1.
         12    1    3    3    0    0 -0.19612554153E+02  0.41866201477E+00 -0.64018140104E+01  0.20635183084E+02  0.00000000000E+00 0. -1.
</event>
<event>
 7    1  0.3086024E-009  0.4614232E+02  0.7816164E-02  0.1320468E+00
        -11   -1    0    0    0    0  0.00000000000E+00  0.00000000000E+00  0.45593999997E+02  0.45594000000E+02  0.51100000000E-03 0.  1.
         11   -1    0    0    0    0 -0.00000000000E+00 -0.00000000000E+00 -0.45593999997E+02  0.45594000000E+02  0.51100000000E-03 0. -1.
    9900012    2    1    2    0    0 -0.41419351710E+02 -0.16879686889E+02 -0.53504140400E+01  0.46142318121E+02  0.10000003280E+02 0.  0.
         12    1    1    2    0    0  0.41419351710E+02  0.16879686889E+02  0.53504140400E+01  0.45045681879E+02  0.00000000000E+00 0. -1.
         11    1    3    3    0    0 -0.17852421639E+02 -0.10054060877E+02 -0.61976187699E+01  0.21405690299E+02  0.51100000000E-03 0. -1.
        -11    1    3    3    0    0 -0.89821605346E+01 -0.11760957898E+01 -0.19812486177E+00  0.90609967939E+01  0.51100000000E-03 0.  1.
         12    1    3    3    0    0 -0.14584769537E+02 -0.56495302219E+01  0.10453295917E+01  0.15675631028E+02  0.00000000000E+00 0. -1.
</event>
<event>
 7    1  0.3086024E-009  0.4614231E+02  0.7816164E-02  0.1320468E+00
        -11   -1    0    0    0    0  0.00000000000E+00  0.00000000000E+00  0.45593999997E+02  0.45594000000E+02  0.51100000000E-03 0. -1.
         11   -1    0    0    0    0 -0.00000000000E+00 -0.00000000000E+00 -0.45593999997E+02  0.45594000000E+02  0.51100000000E-03 0.  1.
    9900012    2    1    2    0    0 -0.11989488457E+02  0.15844943450E+02 -0.40426527014E+02  0.46142310386E+02  0.99999327435E+01 0.  0.
         12    1    1    2    0    0  0.11989488457E+02 -0.15844943450E+02  0.40426527014E+02  0.45045689614E+02  0.00000000000E+00 0. -1.
         11    1    3    3    0    0 -0.30348229865E+01  0.29431965328E+01 -0.65043779945E+01  0.77575440538E+01  0.51100000000E-03 0. -1.
        -11    1    3    3    0    0 -0.55651281478E+01  0.12678122878E+02 -0.30808497576E+02  0.33776751978E+02  0.51100000000E-03 0.  1.
        -12    1    3    3    0    0 -0.33895373226E+01  0.22362403899E+00 -0.31136514439E+01  0.46080143539E+01  0.00000000000E+00 0.  1.
</event>
<event>
 7    1  0.3086024E-009  0.4614232E+02  0.7816164E-02  0.1320468E+00
        -11   -1    0    0    0    0  0.00000000000E+00  0.00000000000E+00  0.45593999997E+02  0.45594000000E+02  0.51100000000E-03 0.  1.
         11   -1    0    0    0    0 -0.00000000000E+00 -0.00000000000E+00 -0.45593999997E+02  0.45594000000E+02  0.51100000000E-03 0. -1.
    9900012    2    1    2    0    0 -0.20445478265E+02  0.38857974338E+02  0.10057523800E+02  0.46142317231E+02  0.99999951689E+01 0.  0.
         12    1    1    2    0    0  0.20445478265E+02 -0.38857974338E+02 -0.10057523800E+02  0.45045682769E+02  0.00000000000E+00 0. -1.
         11    1    3    3    0    0 -0.51370041444E+01  0.14853743059E+02  0.30468354412E+01  0.16009550303E+02  0.51100000000E-03 0. -1.
        -11    1    3    3    0    0 -0.13228049523E+02  0.16327618538E+02  0.70941493887E+01  0.22178804682E+02  0.51100000000E-03 0.  1.
        -12    1    3    3    0    0 -0.20804245982E+01  0.76766127401E+01 -0.83461030027E-01  0.79539622461E+01  0.00000000000E+00 0.  1.
</event>
<event>
 7    1  0.3086024E-009  0.4614232E+02  0.7816164E-02  0.1320468E+00
        -11   -1    0    0    0    0  0.00000000000E+00  0.00000000000E+00  0.45593999997E+02  0.45594000000E+02  0.51100000000E-03 0.  1.
         11   -1    0    0    0    0 -0.00000000000E+00 -0.00000000000E+00 -0.45593999997E+02  0.45594000000E+02  0.51100000000E-03 0. -1.
    9900012    2    1    2    0    0  0.20353147408E+02 -0.11827888202E+02  0.38405262012E+02  0.46142315424E+02  0.99999786870E+01 0.  0.
         12    1    1    2    0    0 -0.20353147408E+02  0.11827888202E+02 -0.38405262012E+02  0.45045684576E+02  0.00000000000E+00 0. -1.
         11    1    3    3    0    0  0.65075773363E+00  0.25191105501E-03 -0.37762982596E-01  0.65185274051E+00  0.51100000000E-03 0. -1.
        -11    1    3    3    0    0  0.14966910593E+02 -0.56294382700E+01  0.21106728694E+02  0.26480048799E+02  0.51100000000E-03 0.  1.
        -12    1    3    3    0    0  0.47354790818E+01 -0.61987018432E+01  0.17336296300E+02  0.19010413885E+02  0.00000000000E+00 0.  1.
</event>
<event>
 7    1  0.3086024E-009  0.4614232E+02  0.7816164E-02  0.1320468E+00
        -11   -1    0    0    0    0  0.00000000000E+00  0.00000000000E+00  0.45593999997E+02  0.45594000000E+02  0.51100000000E-03 0.  1.
         11   -1    0    0    0    0 -0.00000000000E+00 -0.00000000000E+00 -0.45593999997E+02  0.45594000000E+02  0.51100000000E-03 0. -1.
    9900012    2    1    2    0    0  0.24648371677E+02 -0.33356291388E+02  0.17576378822E+02  0.46142317699E+02  0.99999994338E+01 0.  0.
         12    1    1    2    0    0 -0.24648371677E+02  0.33356291388E+02 -0.17576378822E+02  0.45045682301E+02  0.00000000000E+00 0. -1.
         11    1    3    3    0    0 -0.32806085222E+00  0.26168123047E+00 -0.16510228639E+00  0.45095456005E+00  0.51100000000E-03 0. -1.
        -11    1    3    3    0    0  0.10724452907E+02 -0.11323394662E+02  0.76565555839E+01  0.17374003583E+02  0.51100000000E-03 0.  1.
         12    1    3    3    0    0  0.14251979622E+02 -0.22294577956E+02  0.10084925524E+02  0.28317359556E+02  0.00000000000E+00 0. -1.
</event>
<event>
 7    1  0.3086024E-009  0.4614232E+02  0.7816164E-02  0.1320468E+00
        -11   -1    0    0    0    0  0.00000000000E+00  0.00000000000E+00  0.45593999997E+02  0.45594000000E+02  0.51100000000E-03 0.  1.
         11   -1    0    0    0    0 -0.00000000000E+00 -0.00000000000E+00 -0.45593999997E+02  0.45594000000E+02  0.51100000000E-03 0. -1.
    9900012    2    1    2    0    0  0.18204683058E+02  0.39339518080E+02  0.12251746702E+02  0.46142318018E+02  0.10000002338E+02 0.  0.
         12    1    1    2    0    0 -0.18204683058E+02 -0.39339518080E+02 -0.12251746702E+02  0.45045681982E+02  0.00000000000E+00 0. -1.
         11    1    3    3    0    0 -0.79204068322E+00  0.13803462518E+01  0.10438948351E+01  0.19032605987E+01  0.51100000000E-03 0. -1.
        -11    1    3    3    0    0  0.12343332279E+02  0.29329764298E+02  0.95032338183E+01  0.33210004198E+02  0.51100000000E-03 0.  1.
         12    1    3    3    0    0  0.66533914614E+01  0.86294075301E+01  0.17046180486E+01  0.11029053221E+02  0.00000000000E+00 0. -1.
</event>
<event>
 7    1  0.3086024E-009  0.4614232E+02  0.7816164E-02  0.1320468E+00
        -11   -1    0    0    0    0  0.00000000000E+00  0.00000000000E+00  0.45593999997E+02  0.45594000000E+02  0.51100000000E-03 0.  1.
         11   -1    0    0    0    0 -0.00000000000E+00 -0.00000000000E+00 -0.45593999997E+02  0.45594000000E+02  0.51100000000E-03 0. -1.
    9900012    2    1    2    0    0 -0.31205077970E+02  0.12240207371E+02  0.30092090442E+02  0.46142317912E+02  0.10000001380E+02 0.  0.
         12    1    1    2    0    0  0.31205077970E+02 -0.12240207371E+02 -0.30092090442E+02  0.45045682088E+02  0.00000000000E+00 0. -1.
         11    1    3    3    0    0 -0.15399426182E+02  0.61145099661E+01  0.20754829315E+02  0.26557343599E+02  0.51100000000E-03 0. -1.
        -11    1    3    3    0    0 -0.14094702875E+02  0.53246023181E+01  0.92788023581E+01  0.17694864013E+02  0.51100000000E-03 0.  1.
         12    1    3    3    0    0 -0.17109489128E+01  0.80109508697E+00  0.58458768210E-01  0.18901103005E+01  0.00000000000E+00 0. -1.
</event>
<event>
 7    1  0.3086024E-009  0.4614232E+02  0.7816164E-02  0.1320468E+00
        -11   -1    0    0    0    0  0.00000000000E+00  0.00000000000E+00  0.45593999997E+02  0.45594000000E+02  0.51100000000E-03 0.  1.
         11   -1    0    0    0    0 -0.00000000000E+00 -0.00000000000E+00 -0.45593999997E+02  0.45594000000E+02  0.51100000000E-03 0. -1.
    9900012    2    1    2    0    0 -0.29902178424E+01 -0.24312361965E+02  0.37803188935E+02  0.46142318290E+02  0.10000004821E+02 0.  0.
         12    1    1    2    0    0  0.29902178424E+01  0.24312361965E+02 -0.37803188935E+02  0.45045681710E+02  0.00000000000E+00 0. -1.
         11    1    3    3    0    0 -0.17922359891E+01 -0.30526659296E+01  0.35314811991E+01  0.50002238789E+01  0.51100000000E-03 0. -1.
        -11    1    3    3    0    0  0.15760122132E+01 -0.17700929871E+01  0.12043836051E+01  0.26584927700E+01  0.51100000000E-03 0.  1.
        -12    1    3    3    0    0 -0.27739940664E+01 -0.19489603048E+02  0.33067324131E+02  0.38483601641E+02  0.00000000000E+00 0.  1.
</event>
<event>
 7    1  0.3086024E-009  0.4614232E+02  0.7816164E-02  0.1320468E+00
        -11   -1    0    0    0    0  0.00000000000E+00  0.00000000000E+00  0.45593999997E+02  0.45594000000E+02  0.51100000000E-03 0. -1.
         11   -1    0    0    0    0 -0.00000000000E+00 -0.00000000000E+00 -0.45593999997E+02  0.45594000000E+02  0.51100000000E-03 0.  1.
    9900012    2    1    2    0    0  0.18194374041E+02 -0.40206395178E+02 -0.90290747483E+01  0.46142315959E+02  0.99999835631E+01 0.  0.
         12    1    1    2    0    0 -0.18194374041E+02  0.40206395178E+02  0.90290747483E+01  0.45045684041E+02  0.00000000000E+00 0. -1.
         11    1    3    3    0    0  0.30979842495E+01 -0.13962739866E+01 -0.14265660496E+01  0.36854007123E+01  0.51100000000E-03 0. -1.
        -11    1    3    3    0    0  0.79969327275E+01 -0.16580090455E+02 -0.26001652144E+01  0.18590621075E+02  0.51100000000E-03 0.  1.
        -12    1    3    3    0    0  0.70994570644E+01 -0.22230030736E+02 -0.50023434843E+01  0.23866294172E+02  0.00000000000E+00 0.  1.
</event>
<event>
 7    1  0.3086024E-009  0.4614232E+02  0.7816164E-02  0.1320468E+00
        -11   -1    0    0    0    0  0.00000000000E+00  0.00000000000E+00  0.45593999997E+02  0.45594000000E+02  0.51100000000E-03 0.  1.
         11   -1    0    0    0    0 -0.00000000000E+00 -0.00000000000E+00 -0.45593999997E+02  0.45594000000E+02  0.51100000000E-03 0. -1.
    9900012    2    1    2    0    0  0.17542979817E+02 -0.18241447165E+02  0.37264014309E+02  0.46142319875E+02  0.10000019278E+02 0.  0.
         12    1    1    2    0    0 -0.17542979817E+02  0.18241447165E+02 -0.37264014309E+02  0.45045680125E+02  0.00000000000E+00 0. -1.
         11    1    3    3    0    0  0.56822121081E+01 -0.90758368744E+01  0.22567172582E+02  0.24978703489E+02  0.51100000000E-03 0. -1.
        -11    1    3    3    0    0  0.82692045104E+01 -0.78443861856E+01  0.10805585045E+02  0.15705884448E+02  0.51100000000E-03 0.  1.
         12    1    3    3    0    0  0.35915631984E+01 -0.13212241046E+01  0.38912566816E+01  0.54577319378E+01  0.00000000000E+00 0. -1.
</event>
<event>
 7    1  0.3086024E-009  0.4614232E+02  0.7816164E-02  0.1320468E+00
        -11   -1    0    0    0    0  0.00000000000E+00  0.00000000000E+00  0.45593999997E+02  0.45594000000E+02  0.51100000000E-03 0. -1.
         11   -1    0    0    0    0 -0.00000000000E+00 -0.00000000000E+00 -0.45593999997E+02  0.45594000000E+02  0.51100000000E-03 0.  1.
    9900012    2    1    2    0    0 -0.30074650685E+02  0.23872208953E+02 -0.23553058125E+02  0.46142317397E+02  0.99999966809E+01 0.  0.
         12    1    1    2    0    0  0.30074650685E+02 -0.23872208953E+02  0.23553058125E+02  0.45045682603E+02  0.00000000000E+00 0. -1.
         11    1    3    3    0    0 -0.36879032440E+01  0.53596008963E+01 -0.18733082397E+01  0.67701725330E+01  0.51100000000E-03 0. -1.
        -11    1    3    3    0    0 -0.13693712992E+02  0.10570574056E+02 -0.15308996205E+02  0.23100220268E+02  0.51100000000E-03 0.  1.
         12    1    3    3    0    0 -0.12693034449E+02  0.79420340006E+01 -0.63707536804E+01  0.16271924596E+02  0.00000000000E+00 0. -1.
</event>
<event>
 7    1  0.3086024E-009  0.4614232E+02  0.7816164E-02  0.1320468E+00
        -11   -1    0    0    0    0  0.00000000000E+00  0.00000000000E+00  0.45593999997E+02  0.45594000000E+02  0.51100000000E-03 0.  1.
         11   -1    0    0    0    0 -0.00000000000E+00 -0.00000000000E+00 -0.45593999997E+02  0.45594000000E+02  0.51100000000E-03 0. -1.
    9900012    2    1    2    0    0 -0.21647694456E+02  0.92910774819E+01  0.38394878480E+02  0.46142317748E+02  0.99999998843E+01 0.  0.
         12    1    1    2    0    0  0.21647694456E+02 -0.92910774819E+01 -0.38394878480E+02  0.45045682252E+02  0.00000000000E+00 0. -1.
         11    1    3    3    0    0  0.18070515531E+00  0.18773187086E+01  0.32016735164E+01  0.37158704840E+01  0.51100000000E-03 0. -1.
        -11    1    3    3    0    0 -0.19466682254E+02  0.81515130914E+01  0.32659868800E+02  0.38885291743E+02  0.51100000000E-03 0.  1.
        -12    1    3    3    0    0 -0.23617173574E+01 -0.73775431815E+00  0.25333361640E+01  0.35411555219E+01  0.00000000000E+00 0.  1.
</event>
<event>
 7    1  0.3086024E-009  0.4614232E+02  0.7816164E-02  0.1320468E+00
        -11   -1    0    0    0    0  0.00000000000E+00  0.00000000000E+00  0.45593999997E+02  0.45594000000E+02  0.51100000000E-03 0. -1.
         11   -1    0    0    0    0 -0.00000000000E+00 -0.00000000000E+00 -0.45593999997E+02  0.45594000000E+02  0.51100000000E-03 0.  1.
    9900012    2    1    2    0    0 -0.29157971436E+02  0.13710368476E+02 -0.31479388995E+02  0.46142318370E+02  0.10000005555E+02 0.  0.
         12    1    1    2    0    0  0.29157971436E+02 -0.13710368476E+02  0.31479388995E+02  0.45045681630E+02  0.00000000000E+00 0. -1.
         11    1    3    3    0    0 -0.64589557684E+01  0.16503283662E+01 -0.44101025378E+01  0.79931657051E+01  0.51100000000E-03 0. -1.
        -11    1    3    3    0    0 -0.46298779869E+01  0.41247322016E+01 -0.26267129218E+01  0.67341522810E+01  0.51100000000E-03 0.  1.
        -12    1    3    3    0    0 -0.18069137681E+02  0.79353079081E+01 -0.24442573535E+02  0.31415000384E+02  0.00000000000E+00 0.  1.
</event>
<event>
 7    1  0.3086024E-009  0.4614232E+02  0.7816164E-02  0.1320468E+00
        -11   -1    0    0    0    0  0.00000000000E+00  0.00000000000E+00  0.45593999997E+02  0.45594000000E+02  0.51100000000E-03 0. -1.
         11   -1    0    0    0    0 -0.00000000000E+00 -0.00000000000E+00 -0.45593999997E+02  0.45594000000E+02  0.51100000000E-03 0.  1.
    9900012    2    1    2    0    0 -0.32741373949E+02 -0.29739979627E+02 -0.85234665525E+01  0.46142318316E+02  0.10000005063E+02 0.  0.
         12    1    1    2    0    0  0.32741373949E+02  0.29739979627E+02  0.85234665525E+01  0.45045681684E+02  0.00000000000E+00 0. -1.
         11    1    3    3    0    0 -0.98646435737E+01 -0.13908044849E+02 -0.46972461336E+01  0.17686407941E+02  0.51100000000E-03 0. -1.
        -11    1    3    3    0    0 -0.86950518068E+01 -0.52594730886E+01 -0.35520296781E+01  0.10764891926E+02  0.51100000000E-03 0.  1.
         12    1    3    3    0    0 -0.14181678568E+02 -0.10572461689E+02 -0.27419074075E+00  0.17691018448E+02  0.00000000000E+00 0. -1.
</event>
<event>
 7    1  0.3086024E-009  0.4614232E+02  0.7816164E-02  0.1320468E+00
        -11   -1    0    0    0    0  0.00000000000E+00  0.00000000000E+00  0.45593999997E+02  0.45594000000E+02  0.51100000000E-03 0. -1.
         11   -1    0    0    0    0 -0.00000000000E+00 -0.00000000000E+00 -0.45593999997E+02  0.45594000000E+02  0.51100000000E-03 0.  1.
    9900012    2    1    2    0    0 -0.44952147714E+02  0.12325046750E+01 -0.26265641099E+01  0.46142317733E+02  0.99999997412E+01 0.  0.
         12    1    1    2    0    0  0.44952147714E+02 -0.12325046750E+01  0.26265641099E+01  0.45045682267E+02  0.00000000000E+00 0. -1.
         11    1    3    3    0    0 -0.16764105850E+01  0.14151321719E+01  0.12945559794E+01  0.25473176006E+01  0.51100000000E-03 0. -1.
        -11    1    3    3    0    0 -0.13073919206E+02  0.80843723265E+00  0.17845822613E+00  0.13100106174E+02  0.51100000000E-03 0.  1.
         12    1    3    3    0    0 -0.30201817923E+02 -0.99106472949E+00 -0.40995783153E+01  0.30494893958E+02  0.00000000000E+00 0. -1.
</event>
<event>
 7    1  0.3086024E-009  0.4614232E+02  0.7816164E-02  0.1320468E+00
        -11   -1    0    0    0    0  0.00000000000E+00  0.00000000000E+00  0.45593999997E+02  0.45594000000E+02  0.51100000000E-03 0.  1.
         11   -1    0    0    0    0 -0.00000000000E+00 -0.00000000000E+00 -0.45593999997E+02  0.45594000000E+02  0.51100000000E-03 0. -1.
    9900012    2    1    2    0    0 -0.26700366805E+02 -0.30799881338E+02  0.19172143955E+02  0.46142318944E+02  0.10000010786E+02 0.  0.
         12    1    1    2    0    0  0.26700366805E+02  0.30799881338E+02 -0.19172143955E+02  0.45045681056E+02  0.00000000000E+00 0. -1.
         11    1    3    3    0    0 -0.54005678475E+01 -0.60546190139E+01  0.24291623584E+01  0.84690834512E+01  0.51100000000E-03 0. -1.
        -11    1    3    3    0    0 -0.13087996003E+02 -0.99097331059E+01  0.11039786384E+02  0.19783208366E+02  0.51100000000E-03 0.  1.
        -12    1    3    3    0    0 -0.82118029551E+01 -0.14835529218E+02  0.57031952127E+01  0.17890027126E+02  0.00000000000E+00 0.  1.
</event>
<event>
 7    1  0.3086024E-009  0.4614232E+02  0.7816164E-02  0.1320468E+00
        -11   -1    0    0    0    0  0.00000000000E+00  0.00000000000E+00  0.45593999997E+02  0.45594000000E+02  0.51100000000E-03 0. -1.
         11   -1    0    0    0    0 -0.00000000000E+00 -0.00000000000E+00 -0.45593999997E+02  0.45594000000E+02  0.51100000000E-03 0.  1.
    9900012    2    1    2    0    0  0.44933958661E+02 -0.25570282851E+01 -0.18746868065E+01  0.46142317796E+02  0.10000000317E+02 0.  0.
         12    1    1    2    0    0 -0.44933958661E+02  0.25570282851E+01  0.18746868065E+01  0.45045682204E+02  0.00000000000E+00 0. -1.
         11    1    3    3    0    0  0.15202306123E+02  0.17908888061E+01  0.15012570068E+01  0.15380870165E+02  0.51100000000E-03 0. -1.
        -11    1    3    3    0    0  0.10691045595E+02 -0.13263105443E+01  0.14963540813E+01  0.10876425487E+02  0.51100000000E-03 0.  1.
        -12    1    3    3    0    0  0.19040606943E+02 -0.30216065469E+01 -0.48722978946E+01  0.19885022143E+02  0.00000000000E+00 0.  1.
</event>
<event>
 7    1  0.3086024E-009  0.4614232E+02  0.7816164E-02  0.1320468E+00
        -11   -1    0    0    0    0  0.00000000000E+00  0.00000000000E+00  0.45593999997E+02  0.45594000000E+02  0.51100000000E-03 0. -1.
         11   -1    0    0    0    0 -0.00000000000E+00 -0.00000000000E+00 -0.45593999997E+02  0.45594000000E+02  0.51100000000E-03 0.  1.
    9900012    2    1    2    0    0  0.10585607681E+02 -0.27590376773E+02 -0.33997492557E+02  0.46142317847E+02  0.10000000785E+02 0.  0.
         12    1    1    2    0    0 -0.10585607681E+02  0.27590376773E+02  0.33997492557E+02  0.45045682153E+02  0.00000000000E+00 0. -1.
         11    1    3    3    0    0 -0.51462300442E+00 -0.55537202957E+00 -0.52135143258E+00  0.91928369140E+00  0.51100000000E-03 0.  1.
        -11    1    3    3    0    0  0.39876713328E+00  0.56332745669E+00 -0.27581851457E+00  0.74325578649E+00  0.51100000000E-03 0. -1.
        -12    1    3    3    0    0  0.10701463552E+02 -0.27598332200E+02 -0.33200322610E+02  0.44479778369E+02  0.00000000000E+00 0.  1.
</event>
<event>
 7    1  0.3086024E-009  0.4614232E+02  0.7816164E-02  0.1320468E+00
        -11   -1    0    0    0    0  0.00000000000E+00  0.00000000000E+00  0.45593999997E+02  0.45594000000E+02  0.51100000000E-03 0.  1.
         11   -1    0    0    0    0 -0.00000000000E+00 -0.00000000000E+00 -0.45593999997E+02  0.45594000000E+02  0.51100000000E-03 0. -1.
    9900012    2    1    2    0    0  0.20448398592E+02  0.74475471173E+01  0.39439961707E+02  0.46142317161E+02  0.99999945243E+01 0.  0.
         12    1    1    2    0    0 -0.20448398592E+02 -0.74475471173E+01 -0.39439961707E+02  0.45045682839E+02  0.00000000000E+00 0. -1.
         11    1    3    3    0    0  0.62075739062E+01  0.16020667858E+01  0.64087991583E+01  0.90649489077E+01  0.51100000000E-03 0.  1.
        -11    1    3    3    0    0  0.58216875814E+01 -0.63910601398E+00  0.82862324838E+01  0.10147026748E+02  0.51100000000E-03 0. -1.
        -12    1    3    3    0    0  0.84191371041E+01  0.64845863454E+01  0.24744930065E+02  0.26930341505E+02  0.00000000000E+00 0.  1.
</event>
<event>
 7    1  0.3086024E-009  0.4614232E+02  0.7816164E-02  0.1320468E+00
        -11   -1    0    0    0    0  0.00000000000E+00  0.00000000000E+00  0.45593999997E+02  0.45594000000E+02  0.51100000000E-03 0.  1.
         11   -1    0    0    0    0 -0.00000000000E+00 -0.00000000000E+00 -0.45593999997E+02  0.45594000000E+02  0.51100000000E-03 0. -1.
    9900012    2    1    2    0    0 -0.16361054256E+01  0.33697839311E+02  0.29847819259E+02  0.46142317302E+02  0.99999958150E+01 0.  0.
         12    1    1    2    0    0  0.16361054256E+01 -0.33697839311E+02 -0.29847819259E+02  0.45045682698E+02  0.00000000000E+00 0. -1.
         11    1    3    3    0    0  0.99629208905E+00  0.12861951829E+01  0.31492750554E+01  0.35446903407E+01  0.51100000000E-03 0. -1.
        -11    1    3    3    0    0 -0.15879950513E+01  0.19593835336E+02  0.20208066518E+02  0.28192305052E+02  0.51100000000E-03 0.  1.
         12    1    3    3    0    0 -0.10444024633E+01  0.12817808793E+02  0.64904776847E+01  0.14405321910E+02  0.00000000000E+00 0. -1.
</event>
<event>
 7    1  0.3086024E-009  0.4614232E+02  0.7816164E-02  0.1320468E+00
        -11   -1    0    0    0    0  0.00000000000E+00  0.00000000000E+00  0.45593999997E+02  0.45594000000E+02  0.51100000000E-03 0.  1.
         11   -1    0    0    0    0 -0.00000000000E+00 -0.00000000000E+00 -0.45593999997E+02  0.45594000000E+02  0.51100000000E-03 0. -1.
    9900012    2    1    2    0    0  0.18831282693E+02 -0.25363009319E+02  0.32112518949E+02  0.46142319598E+02  0.10000016753E+02 0.  0.
         12    1    1    2    0    0 -0.18831282693E+02  0.25363009319E+02 -0.32112518949E+02  0.45045680402E+02  0.00000000000E+00 0. -1.
         11    1    3    3    0    0  0.11506729553E+01 -0.88913002043E+00 -0.53692111901E+00  0.15501241862E+01  0.51100000000E-03 0. -1.
        -11    1    3    3    0    0  0.14079616384E+02 -0.21509781064E+02  0.27695358297E+02  0.37788082122E+02  0.51100000000E-03 0.  1.
         12    1    3    3    0    0  0.36009933534E+01 -0.29640982342E+01  0.49540817710E+01  0.68041132903E+01  0.00000000000E+00 0. -1.
</event>
<event>
 7    1  0.3086024E-009  0.4614232E+02  0.7816164E-02  0.1320468E+00
        -11   -1    0    0    0    0  0.00000000000E+00  0.00000000000E+00  0.45593999997E+02  0.45594000000E+02  0.51100000000E-03 0. -1.
         11   -1    0    0    0    0 -0.00000000000E+00 -0.00000000000E+00 -0.45593999997E+02  0.45594000000E+02  0.51100000000E-03 0.  1.
    9900012    2    1    2    0    0 -0.44406047632E+02  0.75386471063E+01 -0.62071608663E+00  0.46142317022E+02  0.99999932609E+01 0.  0.
         12    1    1    2    0    0  0.44406047632E+02 -0.75386471063E+01  0.62071608663E+00  0.45045682978E+02  0.00000000000E+00 0. -1.
         11    1    3    3    0    0 -0.40787204429E+01  0.24314914228E+01 -0.24432690873E+01  0.53401942927E+01  0.51100000000E-03 0. -1.
        -11    1    3    3    0    0 -0.11223828393E+02  0.90696011558E+00 -0.74622699386E+00  0.11285112114E+02  0.51100000000E-03 0.  1.
         12    1    3    3    0    0 -0.29103498796E+02  0.42001955679E+01  0.25687799945E+01  0.29517010615E+02  0.00000000000E+00 0. -1.
</event>
<event>
 7    1  0.3086024E-009  0.4614232E+02  0.7816164E-02  0.1320468E+00
        -11   -1    0    0    0    0  0.00000000000E+00  0.00000000000E+00  0.45593999997E+02  0.45594000000E+02  0.51100000000E-03 0. -1.
         11   -1    0    0    0    0 -0.00000000000E+00 -0.00000000000E+00 -0.45593999997E+02  0.45594000000E+02  0.51100000000E-03 0.  1.
    9900012    2    1    2    0    0  0.64230286723E+01  0.38159927278E+02 -0.23058147392E+02  0.46142317540E+02  0.99999979800E+01 0.  0.
         12    1    1    2    0    0 -0.64230286723E+01 -0.38159927278E+02  0.23058147392E+02  0.45045682460E+02  0.00000000000E+00 0. -1.
         11    1    3    3    0    0  0.58410691993E+00  0.35941433018E+01 -0.46804121282E+00  0.36712545275E+01  0.51100000000E-03 0. -1.
        -11    1    3    3    0    0  0.39062469883E+01  0.17480212806E+02 -0.69020710149E+01  0.19195186632E+02  0.51100000000E-03 0.  1.
        -12    1    3    3    0    0  0.19326747641E+01  0.17085571170E+02 -0.15688035164E+02  0.23275876380E+02  0.00000000000E+00 0.  1.
</event>
<event>
 7    1  0.3086024E-009  0.4614232E+02  0.7816164E-02  0.1320468E+00
        -11   -1    0    0    0    0  0.00000000000E+00  0.00000000000E+00  0.45593999997E+02  0.45594000000E+02  0.51100000000E-03 0.  1.
         11   -1    0    0    0    0 -0.00000000000E+00 -0.00000000000E+00 -0.45593999997E+02  0.45594000000E+02  0.51100000000E-03 0. -1.
    9900012    2    1    2    0    0 -0.18811450500E+02 -0.37141809602E+00  0.40928045273E+02  0.46142317507E+02  0.99999976868E+01 0.  0.
         12    1    1    2    0    0  0.18811450500E+02  0.37141809602E+00 -0.40928045273E+02  0.45045682493E+02  0.00000000000E+00 0. -1.
         11    1    3    3    0    0 -0.15609655175E+01  0.51486746711E+00  0.46733252152E+00  0.17088305364E+01  0.51100000000E-03 0. -1.
        -11    1    3    3    0    0 -0.53888962075E+01 -0.31390075238E+01  0.15444145528E+02  0.16655785839E+02  0.51100000000E-03 0.  1.
        -12    1    3    3    0    0 -0.11861588775E+02  0.22527219607E+01  0.25016567224E+02  0.27777701132E+02  0.00000000000E+00 0.  1.
</event>
<event>
 7    1  0.3086024E-009  0.4614232E+02  0.7816164E-02  0.1320468E+00
        -11   -1    0    0    0    0  0.00000000000E+00  0.00000000000E+00  0.45593999997E+02  0.45594000000E+02  0.51100000000E-03 0.  1.
         11   -1    0    0    0    0 -0.00000000000E+00 -0.00000000000E+00 -0.45593999997E+02  0.45594000000E+02  0.51100000000E-03 0. -1.
    9900012    2    1    2    0    0  0.18084456904E+02 -0.35430599182E+02  0.21136189093E+02  0.46142318416E+02  0.10000005976E+02 0.  0.
         12    1    1    2    0    0 -0.18084456904E+02  0.35430599182E+02 -0.21136189093E+02  0.45045681584E+02  0.00000000000E+00 0. -1.
         11    1    3    3    0    0  0.10675662926E+01 -0.60500947539E-02  0.62739063896E-01  0.10694254738E+01  0.51100000000E-03 0. -1.
        -11    1    3    3    0    0  0.99524388285E+01 -0.27402548335E+02  0.15398908983E+02  0.32970852158E+02  0.51100000000E-03 0.  1.
        -12    1    3    3    0    0  0.70644517829E+01 -0.80220007523E+01  0.56745410463E+01  0.12102040784E+02  0.00000000000E+00 0.  1.
</event>
<event>
 7    1  0.3086024E-009  0.4614232E+02  0.7816164E-02  0.1320468E+00
        -11   -1    0    0    0    0  0.00000000000E+00  0.00000000000E+00  0.45593999997E+02  0.45594000000E+02  0.51100000000E-03 0. -1.
         11   -1    0    0    0    0 -0.00000000000E+00 -0.00000000000E+00 -0.45593999997E+02  0.45594000000E+02  0.51100000000E-03 0.  1.
    9900012    2    1    2    0    0  0.11766854172E+02 -0.28743350735E+02 -0.32626284111E+02  0.46142317815E+02  0.10000000494E+02 0.  0.
         12    1    1    2    0    0 -0.11766854172E+02  0.28743350735E+02  0.32626284111E+02  0.45045682185E+02  0.00000000000E+00 0. -1.
         11    1    3    3    0    0  0.32267653636E+01 -0.23611074180E+01 -0.17282078549E+01  0.43558633590E+01  0.51100000000E-03 0. -1.
        -11    1    3    3    0    0  0.27353818222E+01 -0.15185081626E+02 -0.18655468887E+02  0.24209410100E+02  0.51100000000E-03 0.  1.
         12    1    3    3    0    0  0.58047069864E+01 -0.11197161690E+02 -0.12242607369E+02  0.17577044357E+02  0.00000000000E+00 0. -1.
</event>
<event>
 7    1  0.3086024E-009  0.4614232E+02  0.7816164E-02  0.1320468E+00
        -11   -1    0    0    0    0  0.00000000000E+00  0.00000000000E+00  0.45593999997E+02  0.45594000000E+02  0.51100000000E-03 0.  1.
         11   -1    0    0    0    0 -0.00000000000E+00 -0.00000000000E+00 -0.45593999997E+02  0.45594000000E+02  0.51100000000E-03 0. -1.
    9900012    2    1    2    0    0 -0.18243911022E+02  0.40983963653E+02  0.40727691644E+01  0.46142323018E+02  0.10000047936E+02 0.  0.
         12    1    1    2    0    0  0.18243911022E+02 -0.40983963653E+02 -0.40727691644E+01  0.45045676982E+02  0.00000000000E+00 0. -1.
         11    1    3    3    0    0 -0.17130043676E+01  0.10604175741E+02 -0.18148113557E+01  0.10893872940E+02  0.51100000000E-03 0. -1.
        -11    1    3    3    0    0 -0.83295345123E+01  0.11798704645E+02  0.24220847736E+01  0.14644352884E+02  0.51100000000E-03 0.  1.
         12    1    3    3    0    0 -0.82013721420E+01  0.18581083267E+02  0.34654957465E+01  0.20604097194E+02  0.00000000000E+00 0. -1.
</event>
<event>
 7    1  0.3086024E-009  0.4614232E+02  0.7816164E-02  0.1320468E+00
        -11   -1    0    0    0    0  0.00000000000E+00  0.00000000000E+00  0.45593999997E+02  0.45594000000E+02  0.51100000000E-03 0. -1.
         11   -1    0    0    0    0 -0.00000000000E+00 -0.00000000000E+00 -0.45593999997E+02  0.45594000000E+02  0.51100000000E-03 0.  1.
    9900012    2    1    2    0    0 -0.39444162223E+02  0.13381178382E+02 -0.17152712980E+02  0.46142318399E+02  0.10000005813E+02 0.  0.
         12    1    1    2    0    0  0.39444162223E+02 -0.13381178382E+02  0.17152712980E+02  0.45045681601E+02  0.00000000000E+00 0. -1.
         11    1    3    3    0    0 -0.21146463590E+01 -0.67831955157E+00 -0.11759464280E+01  0.25129060667E+01  0.51100000000E-03 0. -1.
        -11    1    3    3    0    0 -0.30985820963E+02  0.98608602426E+01 -0.15458482613E+02  0.36004476811E+02  0.51100000000E-03 0.  1.
        -12    1    3    3    0    0 -0.63436949010E+01  0.41986376906E+01 -0.51828393886E+00  0.76249355207E+01  0.00000000000E+00 0.  1.
</event>
<event>
 7    1  0.3086024E-009  0.4614232E+02  0.7816164E-02  0.1320468E+00
        -11   -1    0    0    0    0  0.00000000000E+00  0.00000000000E+00  0.45593999997E+02  0.45594000000E+02  0.51100000000E-03 0.  1.
         11   -1    0    0    0    0 -0.00000000000E+00 -0.00000000000E+00 -0.45593999997E+02  0.45594000000E+02  0.51100000000E-03 0. -1.
    9900012    2    1    2    0    0  0.97544508458E+01 -0.24162252519E+01  0.43910432021E+02  0.46142317676E+02  0.99999992206E+01 0.  0.
         12    1    1    2    0    0 -0.97544508458E+01  0.24162252519E+01 -0.43910432021E+02  0.45045682324E+02  0.00000000000E+00 0. -1.
         11    1    3    3    0    0  0.25274459114E+01 -0.22514005075E+01  0.50998546697E+01  0.61208908660E+01  0.51100000000E-03 0. -1.
        -11    1    3    3    0    0  0.68202297315E+01  0.22570466905E+01  0.31521108618E+02  0.32329399656E+02  0.51100000000E-03 0.  1.
         12    1    3    3    0    0  0.40677520293E+00 -0.24218714349E+01  0.72894687334E+01  0.76920271533E+01  0.00000000000E+00 0. -1.
</event>
<event>
 7    1  0.3086024E-009  0.4614232E+02  0.7816164E-02  0.1320468E+00
        -11   -1    0    0    0    0  0.00000000000E+00  0.00000000000E+00  0.45593999997E+02  0.45594000000E+02  0.51100000000E-03 0.  1.
         11   -1    0    0    0    0 -0.00000000000E+00 -0.00000000000E+00 -0.45593999997E+02  0.45594000000E+02  0.51100000000E-03 0. -1.
    9900012    2    1    2    0    0 -0.50442111834E+00 -0.26221268482E+02  0.36623820273E+02  0.46142316824E+02  0.99999914503E+01 0.  0.
         12    1    1    2    0    0  0.50442111834E+00  0.26221268482E+02 -0.36623820273E+02  0.45045683176E+02  0.00000000000E+00 0. -1.
         11    1    3    3    0    0 -0.13059305267E+01 -0.77030123943E+01  0.11017210157E+02  0.13506323496E+02  0.51100000000E-03 0. -1.
        -11    1    3    3    0    0 -0.34080886158E+01 -0.48502974349E+01  0.78157824517E+01  0.98095315288E+01  0.51100000000E-03 0.  1.
        -12    1    3    3    0    0  0.42095980241E+01 -0.13667958653E+02  0.17790827664E+02  0.22826461798E+02  0.00000000000E+00 0.  1.
</event>
<event>
 7    1  0.3086024E-009  0.4614232E+02  0.7816164E-02  0.1320468E+00
        -11   -1    0    0    0    0  0.00000000000E+00  0.00000000000E+00  0.45593999997E+02  0.45594000000E+02  0.51100000000E-03 0.  1.
         11   -1    0    0    0    0 -0.00000000000E+00 -0.00000000000E+00 -0.45593999997E+02  0.45594000000E+02  0.51100000000E-03 0. -1.
    9900012    2    1    2    0    0  0.54638520155E+01  0.12726506089E+02  0.42863689061E+02  0.46142317898E+02  0.10000001248E+02 0.  0.
         12    1    1    2    0    0 -0.54638520155E+01 -0.12726506089E+02 -0.42863689061E+02  0.45045682102E+02  0.00000000000E+00 0. -1.
         11    1    3    3    0    0  0.65096638277E+00  0.13492783469E+01  0.41477854086E+00  0.15544615749E+01  0.51100000000E-03 0. -1.
        -11    1    3    3    0    0  0.61847320046E+00  0.85573389094E+01  0.25861669706E+02  0.27247688316E+02  0.51100000000E-03 0.  1.
         12    1    3    3    0    0  0.41944124323E+01  0.28198888327E+01  0.16587240815E+02  0.17340168007E+02  0.00000000000E+00 0. -1.
</event>
<event>
 7    1  0.3086024E-009  0.4614232E+02  0.7816164E-02  0.1320468E+00
        -11   -1    0    0    0    0  0.00000000000E+00  0.00000000000E+00  0.45593999997E+02  0.45594000000E+02  0.51100000000E-03 0. -1.
         11   -1    0    0    0    0 -0.00000000000E+00 -0.00000000000E+00 -0.45593999997E+02  0.45594000000E+02  0.51100000000E-03 0.  1.
    9900012    2    1    2    0    0  0.30142013557E+02 -0.10212754331E+02 -0.31879026408E+02  0.46142315889E+02  0.99999829259E+01 0.  0.
         12    1    1    2    0    0 -0.30142013557E+02  0.10212754331E+02  0.31879026408E+02  0.45045684111E+02  0.00000000000E+00 0. -1.
         11    1    3    3    0    0  0.14948845953E+02 -0.56515102653E+01 -0.93506577536E+01  0.18516002924E+02  0.51100000000E-03 0. -1.
        -11    1    3    3    0    0  0.93149462859E+01 -0.37982062996E+01 -0.13912223979E+02  0.17168126622E+02  0.51100000000E-03 0.  1.
         12    1    3    3    0    0  0.58782213183E+01 -0.76303776574E+00 -0.86161446760E+01  0.10458186343E+02  0.00000000000E+00 0. -1.
</event>
<event>
 7    1  0.3086024E-009  0.4614232E+02  0.7816164E-02  0.1320468E+00
        -11   -1    0    0    0    0  0.00000000000E+00  0.00000000000E+00  0.45593999997E+02  0.45594000000E+02  0.51100000000E-03 0.  1.
         11   -1    0    0    0    0 -0.00000000000E+00 -0.00000000000E+00 -0.45593999997E+02  0.45594000000E+02  0.51100000000E-03 0. -1.
    9900012    2    1    2    0    0  0.43635409075E+01  0.18943034223E+02  0.40635384293E+02  0.46142317727E+02  0.99999996909E+01 0.  0.
         12    1    1    2    0    0 -0.43635409075E+01 -0.18943034223E+02 -0.40635384293E+02  0.45045682273E+02  0.00000000000E+00 0. -1.
         11    1    3    3    0    0 -0.23567756929E+01  0.59514957308E+01  0.16574793809E+02  0.17767905987E+02  0.51100000000E-03 0. -1.
        -11    1    3    3    0    0  0.19325277995E+01  0.45561087354E+01  0.11379924647E+02  0.12409491357E+02  0.51100000000E-03 0.  1.
         12    1    3    3    0    0  0.47877888008E+01  0.84354297565E+01  0.12680665837E+02  0.15964920383E+02  0.00000000000E+00 0. -1.
</event>
<event>
 7    1  0.3086024E-009  0.4614232E+02  0.7816164E-02  0.1320468E+00
        -11   -1    0    0    0    0  0.00000000000E+00  0.00000000000E+00  0.45593999997E+02  0.45594000000E+02  0.51100000000E-03 0.  1.
         11   -1    0    0    0    0 -0.00000000000E+00 -0.00000000000E+00 -0.45593999997E+02  0.45594000000E+02  0.51100000000E-03 0. -1.
    9900012    2    1    2    0    0 -0.29241709208E+02  0.27406886259E+02  0.20564495755E+02  0.46142318104E+02  0.10000003125E+02 0.  0.
         12    1    1    2    0    0  0.29241709208E+02 -0.27406886259E+02 -0.20564495755E+02  0.45045681896E+02  0.00000000000E+00 0. -1.
         11    1    3    3    0    0 -0.10556170435E+02  0.10714663605E+02  0.54319668442E+01  0.15991967186E+02  0.51100000000E-03 0. -1.
        -11    1    3    3    0    0 -0.18156474707E+02  0.17337959093E+02  0.14004344938E+02  0.28746896819E+02  0.51100000000E-03 0.  1.
        -12    1    3    3    0    0 -0.52906406623E+00 -0.64573643817E+00  0.11281839726E+01  0.14034540996E+01  0.00000000000E+00 0.  1.
</event>
<event>
 7    1  0.3086024E-009  0.4614232E+02  0.7816164E-02  0.1320468E+00
        -11   -1    0    0    0    0  0.00000000000E+00  0.00000000000E+00  0.45593999997E+02  0.45594000000E+02  0.51100000000E-03 0. -1.
         11   -1    0    0    0    0 -0.00000000000E+00 -0.00000000000E+00 -0.45593999997E+02  0.45594000000E+02  0.51100000000E-03 0.  1.
    9900012    2    1    2    0    0 -0.16646082861E+02  0.37863008017E+00 -0.41855436037E+02  0.46142323612E+02  0.10000053356E+02 0.  0.
         12    1    1    2    0    0  0.16646082861E+02 -0.37863008017E+00  0.41855436037E+02  0.45045676388E+02  0.00000000000E+00 0. -1.
         11    1    3    3    0    0  0.52473257237E+00 -0.94370332977E+00 -0.11193781072E+01  0.15552902800E+01  0.51100000000E-03 0. -1.
        -11    1    3    3    0    0 -0.11367989675E+02  0.23573744071E+00 -0.19779721906E+02  0.22814998582E+02  0.51100000000E-03 0.  1.
        -12    1    3    3    0    0 -0.58028257587E+01  0.10865959692E+01 -0.20956336024E+02  0.21772034750E+02  0.00000000000E+00 0.  1.
</event>
<event>
 7    1  0.3086024E-009  0.4614232E+02  0.7816164E-02  0.1320468E+00
        -11   -1    0    0    0    0  0.00000000000E+00  0.00000000000E+00  0.45593999997E+02  0.45594000000E+02  0.51100000000E-03 0.  1.
         11   -1    0    0    0    0 -0.00000000000E+00 -0.00000000000E+00 -0.45593999997E+02  0.45594000000E+02  0.51100000000E-03 0. -1.
    9900012    2    1    2    0    0  0.33070528546E+02 -0.21767895943E+02  0.21485167212E+02  0.46142316941E+02  0.99999925189E+01 0.  0.
         12    1    1    2    0    0 -0.33070528546E+02  0.21767895943E+02 -0.21485167212E+02  0.45045683059E+02  0.00000000000E+00 0. -1.
         11    1    3    3    0    0  0.12909651999E+02 -0.68099108715E+01  0.73592435892E+01  0.16346022980E+02  0.51100000000E-03 0. -1.
        -11    1    3    3    0    0  0.15272786254E+02 -0.67884285105E+01  0.88564935349E+01  0.18915026820E+02  0.51100000000E-03 0.  1.
         12    1    3    3    0    0  0.48880902936E+01 -0.81695565613E+01  0.52694300882E+01  0.10881267140E+02  0.00000000000E+00 0. -1.
</event>
<event>
 7    1  0.3086024E-009  0.4614233E+02  0.7816164E-02  0.1320468E+00
        -11   -1    0    0    0    0  0.00000000000E+00  0.00000000000E+00  0.45593999997E+02  0.45594000000E+02  0.51100000000E-03 0.  1.
         11   -1    0    0    0    0 -0.00000000000E+00 -0.00000000000E+00 -0.45593999997E+02  0.45594000000E+02  0.51100000000E-03 0. -1.
    9900012    2    1    2    0    0  0.21361505835E+02 -0.14722076907E+02 -0.36824704086E+02  0.46142330829E+02  0.10000119167E+02 0.  0.
         12    1    1    2    0    0 -0.21361505835E+02  0.14722076907E+02  0.36824704086E+02  0.45045669171E+02  0.00000000000E+00 0. -1.
         11    1    3    3    0    0  0.11045630247E+02 -0.61999191346E+01 -0.14764345639E+02  0.19453299135E+02  0.51100000000E-03 0. -1.
        -11    1    3    3    0    0  0.28747560710E+01 -0.57259369601E+01 -0.13854523066E+02  0.15264284660E+02  0.51100000000E-03 0.  1.
        -12    1    3    3    0    0  0.74411195165E+01 -0.27962208128E+01 -0.82058353812E+01  0.11424747034E+02  0.00000000000E+00 0.  1.
</event>
<event>
 7    1  0.3086024E-009  0.4614232E+02  0.7816164E-02  0.1320468E+00
        -11   -1    0    0    0    0  0.00000000000E+00  0.00000000000E+00  0.45593999997E+02  0.45594000000E+02  0.51100000000E-03 0.  1.
         11   -1    0    0    0    0 -0.00000000000E+00 -0.00000000000E+00 -0.45593999997E+02  0.45594000000E+02  0.51100000000E-03 0. -1.
    9900012    2    1    2    0    0  0.28852063062E+02  0.10105878264E+02  0.33083877434E+02  0.46142320246E+02  0.10000022661E+02 0.  0.
         12    1    1    2    0    0 -0.28852063062E+02 -0.10105878264E+02 -0.33083877434E+02  0.45045679754E+02  0.00000000000E+00 0. -1.
         11    1    3    3    0    0  0.12435397730E+02  0.22693864773E+01  0.13877117535E+02  0.18771351124E+02  0.51100000000E-03 0. -1.
        -11    1    3    3    0    0  0.92829107667E+01  0.59827413209E+01  0.15734346891E+02  0.19223300923E+02  0.51100000000E-03 0.  1.
         12    1    3    3    0    0  0.71337545652E+01  0.18537504660E+01  0.34724130076E+01  0.81476681991E+01  0.00000000000E+00 0. -1.
</event>
<event>
 7    1  0.3086024E-009  0.4614232E+02  0.7816164E-02  0.1320468E+00
        -11   -1    0    0    0    0  0.00000000000E+00  0.00000000000E+00  0.45593999997E+02  0.45594000000E+02  0.51100000000E-03 0.  1.
         11   -1    0    0    0    0 -0.00000000000E+00 -0.00000000000E+00 -0.45593999997E+02  0.45594000000E+02  0.51100000000E-03 0. -1.
    9900012    2    1    2    0    0 -0.14927508642E+02  0.18555645504E+02  0.38235729480E+02  0.46142317597E+02  0.99999985007E+01 0.  0.
         12    1    1    2    0    0  0.14927508642E+02 -0.18555645504E+02 -0.38235729480E+02  0.45045682403E+02  0.00000000000E+00 0. -1.
         11    1    3    3    0    0 -0.34827479231E+01  0.66586053591E+01  0.64804102905E+01  0.99228159419E+01  0.51100000000E-03 0. -1.
        -11    1    3    3    0    0 -0.50925870854E+01  0.16888876316E+01  0.10824174138E+02  0.12080957358E+02  0.51100000000E-03 0.  1.
        -12    1    3    3    0    0 -0.63521736330E+01  0.10208152513E+02  0.20931145051E+02  0.24138544297E+02  0.00000000000E+00 0.  1.
</event>
<event>
 7    1  0.3086024E-009  0.4614232E+02  0.7816164E-02  0.1320468E+00
        -11   -1    0    0    0    0  0.00000000000E+00  0.00000000000E+00  0.45593999997E+02  0.45594000000E+02  0.51100000000E-03 0.  1.
         11   -1    0    0    0    0 -0.00000000000E+00 -0.00000000000E+00 -0.45593999997E+02  0.45594000000E+02  0.51100000000E-03 0. -1.
    9900012    2    1    2    0    0 -0.28663761018E+01 -0.43885085732E+01  0.44739673703E+02  0.46142317382E+02  0.99999965459E+01 0.  0.
         12    1    1    2    0    0  0.28663761018E+01  0.43885085732E+01 -0.44739673703E+02  0.45045682618E+02  0.00000000000E+00 0. -1.
         11    1    3    3    0    0 -0.34573665326E+01 -0.17795451013E+01  0.23802041728E+02  0.24117573568E+02  0.51100000000E-03 0. -1.
        -11    1    3    3    0    0  0.12856191338E+01 -0.32409972108E+01  0.20782417979E+02  0.21072868262E+02  0.51100000000E-03 0.  1.
         12    1    3    3    0    0 -0.69462870301E+00  0.63203373889E+00  0.15521399530E+00  0.95187555199E+00  0.00000000000E+00 0. -1.
</event>
<event>
 7    1  0.3086024E-009  0.4614232E+02  0.7816164E-02  0.1320468E+00
        -11   -1    0    0    0    0  0.00000000000E+00  0.00000000000E+00  0.45593999997E+02  0.45594000000E+02  0.51100000000E-03 0.  1.
         11   -1    0    0    0    0 -0.00000000000E+00 -0.00000000000E+00 -0.45593999997E+02  0.45594000000E+02  0.51100000000E-03 0. -1.
    9900012    2    1    2    0    0  0.19644319379E+02 -0.38716711195E+02  0.12009594889E+02  0.46142318975E+02  0.10000011069E+02 0.  0.
         12    1    1    2    0    0 -0.19644319379E+02  0.38716711195E+02 -0.12009594889E+02  0.45045681025E+02  0.00000000000E+00 0. -1.
         11    1    3    3    0    0  0.16102469392E+02 -0.27994973414E+02  0.12202286686E+02  0.34523960630E+02  0.51100000000E-03 0.  1.
        -11    1    3    3    0    0  0.49665943653E+00 -0.33390089579E+01 -0.11698326922E+01  0.35726964894E+01  0.51100000000E-03 0. -1.
        -12    1    3    3    0    0  0.30451905511E+01 -0.73827288232E+01  0.97714089565E+00  0.80456618559E+01  0.00000000000E+00 0.  1.
</event>
<event>
 7    1  0.3086024E-009  0.4614232E+02  0.7816164E-02  0.1320468E+00
        -11   -1    0    0    0    0  0.00000000000E+00  0.00000000000E+00  0.45593999997E+02  0.45594000000E+02  0.51100000000E-03 0.  1.
         11   -1    0    0    0    0 -0.00000000000E+00 -0.00000000000E+00 -0.45593999997E+02  0.45594000000E+02  0.51100000000E-03 0. -1.
    9900012    2    1    2    0    0 -0.59310610789E+01  0.15328537916E+02  0.41940100360E+02  0.46142316762E+02  0.99999908887E+01 0.  0.
         12    1    1    2    0    0  0.59310610789E+01 -0.15328537916E+02 -0.41940100360E+02  0.45045683238E+02  0.00000000000E+00 0. -1.
         11    1    3    3    0    0 -0.73925934902E+00  0.13165666260E+01  0.14015040803E+02  0.14096142062E+02  0.51100000000E-03 0. -1.
        -11    1    3    3    0    0 -0.48294630726E+01  0.79967997002E+01  0.13541417462E+02  0.16451215947E+02  0.51100000000E-03 0.  1.
        -12    1    3    3    0    0 -0.36233865727E+00  0.60151715902E+01  0.14383642096E+02  0.15594958753E+02  0.00000000000E+00 0.  1.
</event>
<event>
 7    1  0.3086024E-009  0.4614232E+02  0.7816164E-02  0.1320468E+00
        -11   -1    0    0    0    0  0.00000000000E+00  0.00000000000E+00  0.45593999997E+02  0.45594000000E+02  0.51100000000E-03 0.  1.
         11   -1    0    0    0    0 -0.00000000000E+00 -0.00000000000E+00 -0.45593999997E+02  0.45594000000E+02  0.51100000000E-03 0. -1.
    9900012    2    1    2    0    0 -0.38872649882E+02  0.13964931836E+02  0.17972511476E+02  0.46142318755E+02  0.10000009065E+02 0.  0.
         12    1    1    2    0    0  0.38872649882E+02 -0.13964931836E+02 -0.17972511476E+02  0.45045681245E+02  0.00000000000E+00 0. -1.
         11    1    3    3    0    0 -0.24695402451E+02  0.67697716121E+01  0.10994807408E+02  0.27867158091E+02  0.51100000000E-03 0. -1.
        -11    1    3    3    0    0 -0.12427670197E+02  0.50135671343E+01  0.76060851676E+01  0.15408938113E+02  0.51100000000E-03 0.  1.
         12    1    3    3    0    0 -0.17495772345E+01  0.21815930892E+01 -0.62838109891E+00  0.28662225510E+01  0.00000000000E+00 0. -1.
</event>
<event>
 7    1  0.3086024E-009  0.4614232E+02  0.7816164E-02  0.1320468E+00
        -11   -1    0    0    0    0  0.00000000000E+00  0.00000000000E+00  0.45593999997E+02  0.45594000000E+02  0.51100000000E-03 0. -1.
         11   -1    0    0    0    0 -0.00000000000E+00 -0.00000000000E+00 -0.45593999997E+02  0.45594000000E+02  0.51100000000E-03 0.  1.
    9900012    2    1    2    0    0  0.16817256486E+02  0.40188435459E+02 -0.11453523169E+02  0.46142315929E+02  0.99999832962E+01 0.  0.
         12    1    1    2    0    0 -0.16817256486E+02 -0.40188435459E+02  0.11453523169E+02  0.45045684071E+02  0.00000000000E+00 0. -1.
         11    1    3    3    0    0  0.30639209658E+01  0.13979895019E+02 -0.19364152008E+01  0.14442118284E+02  0.51100000000E-03 0. -1.
        -11    1    3    3    0    0  0.14898199332E+01  0.27005765680E+01 -0.31982921831E+01  0.44431689572E+01  0.51100000000E-03 0.  1.
        -12    1    3    3    0    0  0.12263515588E+02  0.23507963872E+02 -0.63188157853E+01  0.27257028688E+02  0.00000000000E+00 0.  1.
</event>
<event>
 7    1  0.3086024E-009  0.4614231E+02  0.7816164E-02  0.1320468E+00
        -11   -1    0    0    0    0  0.00000000000E+00  0.00000000000E+00  0.45593999997E+02  0.45594000000E+02  0.51100000000E-03 0.  1.
         11   -1    0    0    0    0 -0.00000000000E+00 -0.00000000000E+00 -0.45593999997E+02  0.45594000000E+02  0.51100000000E-03 0. -1.
    9900012    2    1    2    0    0 -0.13096852985E+02 -0.10335132966E+02  0.41842218106E+02  0.46142314884E+02  0.99999737665E+01 0.  0.
         12    1    1    2    0    0  0.13096852985E+02  0.10335132966E+02 -0.41842218106E+02  0.45045685116E+02  0.00000000000E+00 0. -1.
         11    1    3    3    0    0 -0.31482275264E+01 -0.53443110886E+01  0.67654775548E+01  0.91784903102E+01  0.51100000000E-03 0. -1.
        -11    1    3    3    0    0 -0.36366616435E+01 -0.37557642476E+01  0.15679062341E+02  0.16527675854E+02  0.51100000000E-03 0.  1.
         12    1    3    3    0    0 -0.63119638156E+01 -0.12350576297E+01  0.19397678210E+02  0.20436148720E+02  0.00000000000E+00 0. -1.
</event>
<event>
 7    1  0.3598480E-009  0.4614232E+02  0.7816164E-02  0.1320468E+00
        -11   -1    0    0    0    0  0.00000000000E+00  0.00000000000E+00  0.45593999997E+02  0.45594000000E+02  0.51100000000E-03 0. -1.
         11   -1    0    0    0    0 -0.00000000000E+00 -0.00000000000E+00 -0.45593999997E+02  0.45594000000E+02  0.51100000000E-03 0.  1.
    9900012    2    1    2    0    0  0.96140572396E+01 -0.43989808581E+02 -0.12570248065E+01  0.46142317999E+02  0.10000002165E+02 0.  0.
         12    1    1    2    0    0 -0.96140572396E+01  0.43989808581E+02  0.12570248065E+01  0.45045682001E+02  0.00000000000E+00 0. -1.
         11    1    3    3    0    0  0.24628409922E+00  0.51268245012E+00  0.15893978595E+00  0.59056013146E+00  0.51100000000E-03 0. -1.
        -11    1    3    3    0    0  0.53290317213E+01 -0.21196154717E+02 -0.13590843312E+01  0.21898005945E+02  0.51100000000E-03 0.  1.
         12    1    3    3    0    0  0.40387414190E+01 -0.23306336314E+02 -0.56880261254E-01  0.23653751923E+02  0.00000000000E+00 0. -1.
</event>
<event>
 7    1  0.3086024E-009  0.4614232E+02  0.7816164E-02  0.1320468E+00
        -11   -1    0    0    0    0  0.00000000000E+00  0.00000000000E+00  0.45593999997E+02  0.45594000000E+02  0.51100000000E-03 0.  1.
         11   -1    0    0    0    0 -0.00000000000E+00 -0.00000000000E+00 -0.45593999997E+02  0.45594000000E+02  0.51100000000E-03 0. -1.
    9900012    2    1    2    0    0 -0.76369463998E+01  0.31056470858E+01  0.44284823074E+02  0.46142317090E+02  0.99999938803E+01 0.  0.
         12    1    1    2    0    0  0.76369463998E+01 -0.31056470858E+01 -0.44284823074E+02  0.45045682910E+02  0.00000000000E+00 0. -1.
         11    1    3    3    0    0  0.16899302315E+01  0.23693197162E+01  0.71694523747E+01  0.77376086564E+01  0.51100000000E-03 0. -1.
        -11    1    3    3    0    0 -0.55596345081E+01  0.18516706998E+01  0.19783531307E+02  0.20633136733E+02  0.51100000000E-03 0.  1.
         12    1    3    3    0    0 -0.37672421232E+01 -0.11153433301E+01  0.17331839393E+02  0.17771571700E+02  0.00000000000E+00 0. -1.
</event>
<event>
 7    1  0.3086024E-009  0.4614232E+02  0.7816164E-02  0.1320468E+00
        -11   -1    0    0    0    0  0.00000000000E+00  0.00000000000E+00  0.45593999997E+02  0.45594000000E+02  0.51100000000E-03 0. -1.
         11   -1    0    0    0    0 -0.00000000000E+00 -0.00000000000E+00 -0.45593999997E+02  0.45594000000E+02  0.51100000000E-03 0.  1.
    9900012    2    1    2    0    0 -0.23530910615E+02 -0.38262792107E+02 -0.33717186890E+01  0.46142317620E+02  0.99999987102E+01 0.  0.
         12    1    1    2    0    0  0.23530910615E+02  0.38262792107E+02  0.33717186890E+01  0.45045682380E+02  0.00000000000E+00 0. -1.
         11    1    3    3    0    0 -0.61444840063E+01 -0.52687964180E+01 -0.23366892832E+01  0.84246671427E+01  0.51100000000E-03 0. -1.
        -11    1    3    3    0    0 -0.11568581854E+02 -0.26599696592E+02 -0.16304215251E+01  0.29052267029E+02  0.51100000000E-03 0.  1.
        -12    1    3    3    0    0 -0.58178447541E+01 -0.63942990972E+01  0.59539211928E+00  0.86653834482E+01  0.00000000000E+00 0.  1.
</event>
<event>
 7    1  0.3086024E-009  0.4614232E+02  0.7816164E-02  0.1320468E+00
        -11   -1    0    0    0    0  0.00000000000E+00  0.00000000000E+00  0.45593999997E+02  0.45594000000E+02  0.51100000000E-03 0.  1.
         11   -1    0    0    0    0 -0.00000000000E+00 -0.00000000000E+00 -0.45593999997E+02  0.45594000000E+02  0.51100000000E-03 0. -1.
    9900012    2    1    2    0    0  0.36758976071E+02  0.23622962297E+02  0.10947467897E+02  0.46142315159E+02  0.99999762675E+01 0.  0.
         12    1    1    2    0    0 -0.36758976071E+02 -0.23622962297E+02 -0.10947467897E+02  0.45045684841E+02  0.00000000000E+00 0. -1.
         11    1    3    3    0    0  0.22544916137E+02  0.10987492418E+02  0.64852089663E+01  0.25904751859E+02  0.51100000000E-03 0.  1.
        -11    1    3    3    0    0  0.18364707565E+01  0.23752883109E+00  0.16776057712E+01  0.24986808859E+01  0.51100000000E-03 0. -1.
         12    1    3    3    0    0  0.12377589178E+02  0.12397941048E+02  0.27846531596E+01  0.17738882414E+02  0.00000000000E+00 0. -1.
</event>
<event>
 7    1  0.3086024E-009  0.4614232E+02  0.7816164E-02  0.1320468E+00
        -11   -1    0    0    0    0  0.00000000000E+00  0.00000000000E+00  0.45593999997E+02  0.45594000000E+02  0.51100000000E-03 0.  1.
         11   -1    0    0    0    0 -0.00000000000E+00 -0.00000000000E+00 -0.45593999997E+02  0.45594000000E+02  0.51100000000E-03 0. -1.
    9900012    2    1    2    0    0  0.35701448143E+02  0.27053779510E+02 -0.47553194282E+01  0.46142318208E+02  0.10000004071E+02 0.  0.
         12    1    1    2    0    0 -0.35701448143E+02 -0.27053779510E+02  0.47553194282E+01  0.45045681792E+02  0.00000000000E+00 0. -1.
         11    1    3    3    0    0  0.56324153597E+01  0.46426706737E+01  0.81170689663E+00  0.73442060235E+01  0.51100000000E-03 0. -1.
        -11    1    3    3    0    0  0.73581738929E+01  0.14870920413E+01 -0.75040966104E+00  0.75443542267E+01  0.51100000000E-03 0.  1.
        -12    1    3    3    0    0  0.22710858891E+02  0.20924016795E+02 -0.48166166638E+01  0.31253757957E+02  0.00000000000E+00 0.  1.
</event>
<event>
 7    1  0.3086024E-009  0.4614231E+02  0.7816164E-02  0.1320468E+00
        -11   -1    0    0    0    0  0.00000000000E+00  0.00000000000E+00  0.45593999997E+02  0.45594000000E+02  0.51100000000E-03 0.  1.
         11   -1    0    0    0    0 -0.00000000000E+00 -0.00000000000E+00 -0.45593999997E+02  0.45594000000E+02  0.51100000000E-03 0. -1.
    9900012    2    1    2    0    0  0.39611998155E+02 -0.12447889670E+02  0.17465777795E+02  0.46142314868E+02  0.99999736149E+01 0.  0.
         12    1    1    2    0    0 -0.39611998155E+02  0.12447889670E+02 -0.17465777795E+02  0.45045685132E+02  0.00000000000E+00 0. -1.
         11    1    3    3    0    0  0.22090324188E+02 -0.85309498352E+01  0.66376108229E+01  0.24593035712E+02  0.51100000000E-03 0. -1.
        -11    1    3    3    0    0  0.39647175213E+01  0.10995474141E+01  0.16911746935E+01  0.44483774170E+01  0.51100000000E-03 0.  1.
         12    1    3    3    0    0  0.13556956446E+02 -0.50164872483E+01  0.91369922782E+01  0.17100901739E+02  0.00000000000E+00 0. -1.
</event>
<event>
 7    1  0.3086024E-009  0.4614232E+02  0.7816164E-02  0.1320468E+00
        -11   -1    0    0    0    0  0.00000000000E+00  0.00000000000E+00  0.45593999997E+02  0.45594000000E+02  0.51100000000E-03 0. -1.
         11   -1    0    0    0    0 -0.00000000000E+00 -0.00000000000E+00 -0.45593999997E+02  0.45594000000E+02  0.51100000000E-03 0.  1.
    9900012    2    1    2    0    0  0.11825820311E+02 -0.24772615416E+02 -0.35715277524E+02  0.46142317086E+02  0.99999938439E+01 0.  0.
         12    1    1    2    0    0 -0.11825820311E+02  0.24772615416E+02  0.35715277524E+02  0.45045682914E+02  0.00000000000E+00 0. -1.
         11    1    3    3    0    0  0.18162628967E+01 -0.12469964946E+01 -0.71900821420E+01  0.75200460529E+01  0.51100000000E-03 0. -1.
        -11    1    3    3    0    0  0.37908458263E+01 -0.15073298242E+02 -0.17268404295E+02  0.23233007105E+02  0.51100000000E-03 0.  1.
         12    1    3    3    0    0  0.62187115884E+01 -0.84523206797E+01 -0.11256791086E+02  0.15389263928E+02  0.00000000000E+00 0. -1.
</event>
<event>
 7    1  0.3086024E-009  0.4614232E+02  0.7816164E-02  0.1320468E+00
        -11   -1    0    0    0    0  0.00000000000E+00  0.00000000000E+00  0.45593999997E+02  0.45594000000E+02  0.51100000000E-03 0.  1.
         11   -1    0    0    0    0 -0.00000000000E+00 -0.00000000000E+00 -0.45593999997E+02  0.45594000000E+02  0.51100000000E-03 0. -1.
    9900012    2    1    2    0    0 -0.18994765371E+02 -0.17926422192E+02  0.36700896007E+02  0.46142317723E+02  0.99999996482E+01 0.  0.
         12    1    1    2    0    0  0.18994765371E+02  0.17926422192E+02 -0.36700896007E+02  0.45045682277E+02  0.00000000000E+00 0. -1.
         11    1    3    3    0    0 -0.93847895933E+01 -0.49652500222E+01  0.19439468438E+02  0.22149964264E+02  0.51100000000E-03 0. -1.
        -11    1    3    3    0    0 -0.45396287400E+01 -0.80018420847E+01  0.71999878537E+01  0.11682359830E+02  0.51100000000E-03 0.  1.
         12    1    3    3    0    0 -0.50703470377E+01 -0.49593300849E+01  0.10061439715E+02  0.12309993628E+02  0.00000000000E+00 0. -1.
</event>
<event>
 7    1  0.3391238E-009  0.4614232E+02  0.7816164E-02  0.1320468E+00
        -11   -1    0    0    0    0  0.00000000000E+00  0.00000000000E+00  0.45593999997E+02  0.45594000000E+02  0.51100000000E-03 0. -1.
         11   -1    0    0    0    0 -0.00000000000E+00 -0.00000000000E+00 -0.45593999997E+02  0.45594000000E+02  0.51100000000E-03 0.  1.
    9900012    2    1    2    0    0 -0.21441001084E+02  0.15501654512E+02 -0.36456764382E+02  0.46142317751E+02  0.99999999072E+01 0.  0.
         12    1    1    2    0    0  0.21441001084E+02 -0.15501654512E+02  0.36456764382E+02  0.45045682249E+02  0.00000000000E+00 0. -1.
         11    1    3    3    0    0 -0.52981469728E+01  0.93630422952E+01 -0.11946609674E+02  0.16076641606E+02  0.51100000000E-03 0. -1.
        -11    1    3    3    0    0 -0.88074616277E+01  0.45229397811E+01 -0.14039637928E+02  0.17179633233E+02  0.51100000000E-03 0.  1.
         12    1    3    3    0    0 -0.73353924832E+01  0.16156724357E+01 -0.10470516780E+02  0.12886042912E+02  0.00000000000E+00 0. -1.
</event>
<event>
 7    1  0.3086024E-009  0.4614232E+02  0.7816164E-02  0.1320468E+00
        -11   -1    0    0    0    0  0.00000000000E+00  0.00000000000E+00  0.45593999997E+02  0.45594000000E+02  0.51100000000E-03 0. -1.
         11   -1    0    0    0    0 -0.00000000000E+00 -0.00000000000E+00 -0.45593999997E+02  0.45594000000E+02  0.51100000000E-03 0.  1.
    9900012    2    1    2    0    0 -0.96319476991E+01 -0.25961884984E+02 -0.35529137423E+02  0.46142317694E+02  0.99999993855E+01 0.  0.
         12    1    1    2    0    0  0.96319476991E+01  0.25961884984E+02  0.35529137423E+02  0.45045682306E+02  0.00000000000E+00 0. -1.
         11    1    3    3    0    0 -0.74950561120E+01 -0.16429688011E+02 -0.20544235540E+02  0.27352808420E+02  0.51100000000E-03 0. -1.
        -11    1    3    3    0    0 -0.16230740135E+01 -0.92153946364E+01 -0.15425814450E+02  0.18041995989E+02  0.51100000000E-03 0.  1.
         12    1    3    3    0    0 -0.51381757357E+00 -0.31680233730E+00  0.44091256710E+00  0.74751328527E+00  0.00000000000E+00 0. -1.
</event>
<event>
 7    1  0.3086024E-009  0.4614232E+02  0.7816164E-02  0.1320468E+00
        -11   -1    0    0    0    0  0.00000000000E+00  0.00000000000E+00  0.45593999997E+02  0.45594000000E+02  0.51100000000E-03 0. -1.
         11   -1    0    0    0    0 -0.00000000000E+00 -0.00000000000E+00 -0.45593999997E+02  0.45594000000E+02  0.51100000000E-03 0.  1.
    9900012    2    1    2    0    0  0.46383512927E+01 -0.44367054683E+02 -0.62580880601E+01  0.46142317519E+02  0.99999977956E+01 0.  0.
         12    1    1    2    0    0 -0.46383512927E+01  0.44367054683E+02  0.62580880601E+01  0.45045682481E+02  0.00000000000E+00 0. -1.
         11    1    3    3    0    0  0.27017913739E+01 -0.96746176378E+01 -0.14393069818E+01  0.10147389217E+02  0.51100000000E-03 0. -1.
        -11    1    3    3    0    0  0.36948924538E+01 -0.15739227589E+02  0.68182931605E+00  0.16181483456E+02  0.51100000000E-03 0.  1.
        -12    1    3    3    0    0 -0.17583325350E+01 -0.18953209456E+02 -0.55006103943E+01  0.19813444847E+02  0.00000000000E+00 0.  1.
</event>
<event>
 7    1  0.3086024E-009  0.4614232E+02  0.7816164E-02  0.1320468E+00
        -11   -1    0    0    0    0  0.00000000000E+00  0.00000000000E+00  0.45593999997E+02  0.45594000000E+02  0.51100000000E-03 0. -1.
         11   -1    0    0    0    0 -0.00000000000E+00 -0.00000000000E+00 -0.45593999997E+02  0.45594000000E+02  0.51100000000E-03 0.  1.
    9900012    2    1    2    0    0 -0.29293698833E+02 -0.32707074017E+02 -0.10061808131E+02  0.46142318021E+02  0.10000002369E+02 0.  0.
         12    1    1    2    0    0  0.29293698833E+02  0.32707074017E+02  0.10061808131E+02  0.45045681979E+02  0.00000000000E+00 0. -1.
         11    1    3    3    0    0 -0.52671856156E+01 -0.56894617077E+01 -0.54441595313E+01  0.94737580767E+01  0.51100000000E-03 0. -1.
        -11    1    3    3    0    0 -0.59529682619E+01 -0.43681814900E+01 -0.49793468846E+00  0.74004580853E+01  0.51100000000E-03 0.  1.
         12    1    3    3    0    0 -0.18073544956E+02 -0.22649430820E+02 -0.41197139110E+01  0.29268101859E+02  0.00000000000E+00 0. -1.
</event>
<event>
 7    1  0.3086024E-009  0.4614232E+02  0.7816164E-02  0.1320468E+00
        -11   -1    0    0    0    0  0.00000000000E+00  0.00000000000E+00  0.45593999997E+02  0.45594000000E+02  0.51100000000E-03 0.  1.
         11   -1    0    0    0    0 -0.00000000000E+00 -0.00000000000E+00 -0.45593999997E+02  0.45594000000E+02  0.51100000000E-03 0. -1.
    9900012    2    1    2    0    0 -0.12988160004E+02 -0.77955426257E+01  0.42422290354E+02  0.46142317587E+02  0.99999984152E+01 0.  0.
         12    1    1    2    0    0  0.12988160004E+02  0.77955426257E+01 -0.42422290354E+02  0.45045682413E+02  0.00000000000E+00 0. -1.
         11    1    3    3    0    0 -0.15560863009E+01 -0.91857030891E+00  0.13076179528E+01  0.22304799841E+01  0.51100000000E-03 0. -1.
        -11    1    3    3    0    0 -0.11502240175E+02 -0.50018958262E+01  0.39475757522E+02  0.41420477099E+02  0.51100000000E-03 0.  1.
        -12    1    3    3    0    0  0.70166472465E-01 -0.18750764905E+01  0.16389148796E+01  0.24913605042E+01  0.00000000000E+00 0.  1.
</event>
<event>
 7    1  0.3086024E-009  0.4614232E+02  0.7816164E-02  0.1320468E+00
        -11   -1    0    0    0    0  0.00000000000E+00  0.00000000000E+00  0.45593999997E+02  0.45594000000E+02  0.51100000000E-03 0.  1.
         11   -1    0    0    0    0 -0.00000000000E+00 -0.00000000000E+00 -0.45593999997E+02  0.45594000000E+02  0.51100000000E-03 0. -1.
    9900012    2    1    2    0    0 -0.13602462544E+02  0.15717764405E+02  0.39962961583E+02  0.46142318702E+02  0.10000008578E+02 0.  0.
         12    1    1    2    0    0  0.13602462544E+02 -0.15717764405E+02 -0.39962961583E+02  0.45045681298E+02  0.00000000000E+00 0. -1.
         11    1    3    3    0    0 -0.71254988595E+00  0.60037057155E+01  0.68277355538E+01  0.91197687861E+01  0.51100000000E-03 0. -1.
        -11    1    3    3    0    0 -0.10025306398E+02  0.82313195332E+01  0.29072297269E+02  0.31834884300E+02  0.51100000000E-03 0.  1.
         12    1    3    3    0    0 -0.28646062602E+01  0.14827391564E+01  0.40629287597E+01  0.51876656155E+01  0.00000000000E+00 0. -1.
</event>
<event>
 7    1  0.3086024E-009  0.4614232E+02  0.7816164E-02  0.1320468E+00
        -11   -1    0    0    0    0  0.00000000000E+00  0.00000000000E+00  0.45593999997E+02  0.45594000000E+02  0.51100000000E-03 0.  1.
         11   -1    0    0    0    0 -0.00000000000E+00 -0.00000000000E+00 -0.45593999997E+02  0.45594000000E+02  0.51100000000E-03 0. -1.
    9900012    2    1    2    0    0 -0.92403944710E+00 -0.20260098377E+01  0.44990607636E+02  0.46142319406E+02  0.10000014999E+02 0.  0.
         12    1    1    2    0    0  0.92403944710E+00  0.20260098377E+01 -0.44990607636E+02  0.45045680594E+02  0.00000000000E+00 0. -1.
         11    1    3    3    0    0 -0.10073705918E+01  0.79914637893E+00  0.68108257560E+00  0.14550959350E+01  0.51100000000E-03 0. -1.
        -11    1    3    3    0    0 -0.29421037762E+00 -0.18193891557E+01  0.44944210539E+01  0.48576287957E+01  0.51100000000E-03 0.  1.
         12    1    3    3    0    0  0.37754152237E+00 -0.10057670608E+01  0.39815104006E+02  0.39829594675E+02  0.00000000000E+00 0. -1.
</event>
<event>
 7    1  0.3086024E-009  0.4614232E+02  0.7816164E-02  0.1320468E+00
        -11   -1    0    0    0    0  0.00000000000E+00  0.00000000000E+00  0.45593999997E+02  0.45594000000E+02  0.51100000000E-03 0.  1.
         11   -1    0    0    0    0 -0.00000000000E+00 -0.00000000000E+00 -0.45593999997E+02  0.45594000000E+02  0.51100000000E-03 0. -1.
    9900012    2    1    2    0    0 -0.15271740552E+02  0.36516134303E+02  0.21504868704E+02  0.46142317611E+02  0.99999986345E+01 0.  0.
         12    1    1    2    0    0  0.15271740552E+02 -0.36516134303E+02 -0.21504868704E+02  0.45045682389E+02  0.00000000000E+00 0. -1.
         11    1    3    3    0    0 -0.83201615988E+00  0.20025189203E-01 -0.31632693106E-01  0.83285820336E+00  0.51100000000E-03 0. -1.
        -11    1    3    3    0    0 -0.45783120499E+01  0.19813690718E+02  0.12981757849E+02  0.24126112787E+02  0.51100000000E-03 0.  1.
        -12    1    3    3    0    0 -0.98614123421E+01  0.16682418396E+02  0.85547435479E+01  0.21183346621E+02  0.00000000000E+00 0.  1.
</event>
<event>
 7    1  0.3086024E-009  0.4614232E+02  0.7816164E-02  0.1320468E+00
        -11   -1    0    0    0    0  0.00000000000E+00  0.00000000000E+00  0.45593999997E+02  0.45594000000E+02  0.51100000000E-03 0.  1.
         11   -1    0    0    0    0 -0.00000000000E+00 -0.00000000000E+00 -0.45593999997E+02  0.45594000000E+02  0.51100000000E-03 0. -1.
    9900012    2    1    2    0    0 -0.36314288279E+02 -0.24599940941E+02 -0.10258111695E+02  0.46142317820E+02  0.10000000535E+02 0.  0.
         12    1    1    2    0    0  0.36314288279E+02  0.24599940941E+02  0.10258111695E+02  0.45045682180E+02  0.00000000000E+00 0. -1.
         11    1    3    3    0    0 -0.30539472490E+01 -0.22528835424E+00  0.92623210972E-01  0.30636461876E+01  0.51100000000E-03 0. -1.
        -11    1    3    3    0    0 -0.26186912197E+02 -0.21211672025E+02 -0.10595515027E+02  0.35326397205E+02  0.51100000000E-03 0.  1.
        -12    1    3    3    0    0 -0.70734288333E+01 -0.31629805615E+01  0.24478012088E+00  0.77522744275E+01  0.00000000000E+00 0.  1.
</event>
<event>
 7    1  0.3086024E-009  0.4614232E+02  0.7816164E-02  0.1320468E+00
        -11   -1    0    0    0    0  0.00000000000E+00  0.00000000000E+00  0.45593999997E+02  0.45594000000E+02  0.51100000000E-03 0.  1.
         11   -1    0    0    0    0 -0.00000000000E+00 -0.00000000000E+00 -0.45593999997E+02  0.45594000000E+02  0.51100000000E-03 0. -1.
    9900012    2    1    2    0    0 -0.16127881433E+02  0.39455056795E+02  0.14570613945E+02  0.46142324770E+02  0.10000063910E+02 0.  0.
         12    1    1    2    0    0  0.16127881433E+02 -0.39455056795E+02 -0.14570613945E+02  0.45045675230E+02  0.00000000000E+00 0. -1.
         11    1    3    3    0    0 -0.68923337355E+01  0.18932661526E+02  0.21456412339E+01  0.20262125095E+02  0.51100000000E-03 0. -1.
        -11    1    3    3    0    0 -0.19339830336E+01  0.46684317612E+01  0.14311039515E+01  0.52519143428E+01  0.51100000000E-03 0.  1.
         12    1    3    3    0    0 -0.73015646639E+01  0.15853963508E+02  0.10993868760E+02  0.20628285332E+02  0.00000000000E+00 0. -1.
</event>
<event>
 7    1  0.3086024E-009  0.4614231E+02  0.7816164E-02  0.1320468E+00
        -11   -1    0    0    0    0  0.00000000000E+00  0.00000000000E+00  0.45593999997E+02  0.45594000000E+02  0.51100000000E-03 0.  1.
         11   -1    0    0    0    0 -0.00000000000E+00 -0.00000000000E+00 -0.45593999997E+02  0.45594000000E+02  0.51100000000E-03 0. -1.
    9900012    2    1    2    0    0  0.27870047368E+02 -0.34535914652E+02 -0.77230054341E+01  0.46142314812E+02  0.99999731033E+01 0.  0.
         12    1    1    2    0    0 -0.27870047368E+02  0.34535914652E+02  0.77230054341E+01  0.45045685188E+02  0.00000000000E+00 0. -1.
         11    1    3    3    0    0  0.31040376776E+00 -0.45108036691E+01 -0.11764159426E+01  0.46720075954E+01  0.51100000000E-03 0. -1.
        -11    1    3    3    0    0  0.15275063204E+02 -0.13953999574E+02 -0.24820821101E+01  0.20837523650E+02  0.51100000000E-03 0.  1.
         12    1    3    3    0    0  0.12284580396E+02 -0.16071111409E+02 -0.40645073814E+01  0.20632783566E+02  0.00000000000E+00 0. -1.
</event>
<event>
 7    1  0.3086024E-009  0.4614232E+02  0.7816164E-02  0.1320468E+00
        -11   -1    0    0    0    0  0.00000000000E+00  0.00000000000E+00  0.45593999997E+02  0.45594000000E+02  0.51100000000E-03 0.  1.
         11   -1    0    0    0    0 -0.00000000000E+00 -0.00000000000E+00 -0.45593999997E+02  0.45594000000E+02  0.51100000000E-03 0. -1.
    9900012    2    1    2    0    0  0.15074996180E+01  0.42005733163E+02 -0.16197506155E+02  0.46142318971E+02  0.10000011036E+02 0.  0.
         12    1    1    2    0    0 -0.15074996180E+01 -0.42005733163E+02  0.16197506155E+02  0.45045681029E+02  0.00000000000E+00 0. -1.
         11    1    3    3    0    0 -0.22792750481E+01  0.11565069052E+02 -0.36257465351E+01  0.12332556715E+02  0.51100000000E-03 0.  1.
        -11    1    3    3    0    0  0.55166585754E-01  0.22988955622E+01  0.79373909893E+00  0.24326911387E+01  0.51100000000E-03 0. -1.
         12    1    3    3    0    0  0.37316080804E+01  0.28141768549E+02 -0.13365498719E+02  0.31377071118E+02  0.00000000000E+00 0. -1.
</event>
<event>
 7    1  0.3086024E-009  0.4614231E+02  0.7816164E-02  0.1320468E+00
        -11   -1    0    0    0    0  0.00000000000E+00  0.00000000000E+00  0.45593999997E+02  0.45594000000E+02  0.51100000000E-03 0. -1.
         11   -1    0    0    0    0 -0.00000000000E+00 -0.00000000000E+00 -0.45593999997E+02  0.45594000000E+02  0.51100000000E-03 0.  1.
    9900012    2    1    2    0    0 -0.59846490915E+00 -0.29943585968E+02 -0.33647247892E+02  0.46142314396E+02  0.99999693124E+01 0.  0.
         12    1    1    2    0    0  0.59846490915E+00  0.29943585968E+02  0.33647247892E+02  0.45045685604E+02  0.00000000000E+00 0. -1.
         11    1    3    3    0    0 -0.15434258192E+01 -0.37511937499E+01 -0.21724126188E+01  0.46014122458E+01  0.51100000000E-03 0. -1.
        -11    1    3    3    0    0 -0.10325801090E+01 -0.69611882561E+01 -0.44978974566E+01  0.83519725461E+01  0.51100000000E-03 0.  1.
         12    1    3    3    0    0  0.19775410190E+01 -0.19231203962E+02 -0.26976937817E+02  0.33188929604E+02  0.00000000000E+00 0. -1.
</event>
<event>
 7    1  0.3086024E-009  0.4614232E+02  0.7816164E-02  0.1320468E+00
        -11   -1    0    0    0    0  0.00000000000E+00  0.00000000000E+00  0.45593999997E+02  0.45594000000E+02  0.51100000000E-03 0.  1.
         11   -1    0    0    0    0 -0.00000000000E+00 -0.00000000000E+00 -0.45593999997E+02  0.45594000000E+02  0.51100000000E-03 0. -1.
    9900012    2    1    2    0    0 -0.66721749322E+01 -0.94113735136E+01  0.43543330490E+02  0.46142317634E+02  0.99999988366E+01 0.  0.
         12    1    1    2    0    0  0.66721749322E+01  0.94113735136E+01 -0.43543330490E+02  0.45045682366E+02  0.00000000000E+00 0. -1.
         11    1    3    3    0    0  0.74569561269E+00 -0.53066820986E+01  0.10122963628E+02  0.11453878370E+02  0.51100000000E-03 0. -1.
        -11    1    3    3    0    0 -0.12298054744E+01 -0.11638288510E+01  0.13856715244E+02  0.13959780683E+02  0.51100000000E-03 0.  1.
         12    1    3    3    0    0 -0.61880650705E+01 -0.29408625640E+01  0.19563651617E+02  0.20728658580E+02  0.00000000000E+00 0. -1.
</event>
<event>
 7    1  0.3086024E-009  0.4614232E+02  0.7816164E-02  0.1320468E+00
        -11   -1    0    0    0    0  0.00000000000E+00  0.00000000000E+00  0.45593999997E+02  0.45594000000E+02  0.51100000000E-03 0.  1.
         11   -1    0    0    0    0 -0.00000000000E+00 -0.00000000000E+00 -0.45593999997E+02  0.45594000000E+02  0.51100000000E-03 0. -1.
    9900012    2    1    2    0    0 -0.13468138776E+02 -0.19114160803E+02  0.38501576959E+02  0.46142319478E+02  0.10000015660E+02 0.  0.
         12    1    1    2    0    0  0.13468138776E+02  0.19114160803E+02 -0.38501576959E+02  0.45045680522E+02  0.00000000000E+00 0. -1.
         11    1    3    3    0    0 -0.23718904759E+00 -0.11159603133E+01  0.73474119976E+01  0.74354616124E+01  0.51100000000E-03 0. -1.
        -11    1    3    3    0    0 -0.10264362069E+02 -0.13589187207E+02  0.27165925583E+02  0.32062605176E+02  0.51100000000E-03 0.  1.
        -12    1    3    3    0    0 -0.29665876593E+01 -0.44090132830E+01  0.39882393790E+01  0.66442526904E+01  0.00000000000E+00 0.  1.
</event>
<event>
 7    1  0.3086024E-009  0.4614232E+02  0.7816164E-02  0.1320468E+00
        -11   -1    0    0    0    0  0.00000000000E+00  0.00000000000E+00  0.45593999997E+02  0.45594000000E+02  0.51100000000E-03 0.  1.
         11   -1    0    0    0    0 -0.00000000000E+00 -0.00000000000E+00 -0.45593999997E+02  0.45594000000E+02  0.51100000000E-03 0. -1.
    9900012    2    1    2    0    0  0.48125401433E+01  0.15425470064E+02  0.42047685234E+02  0.46142317600E+02  0.99999985311E+01 0.  0.
         12    1    1    2    0    0 -0.48125401433E+01 -0.15425470064E+02 -0.42047685234E+02  0.45045682400E+02  0.00000000000E+00 0. -1.
         11    1    3    3    0    0 -0.21712620177E+01  0.35812583804E+01  0.12950983714E+02  0.13611310362E+02  0.51100000000E-03 0. -1.
        -11    1    3    3    0    0  0.16663079594E+00  0.14290479011E+01  0.72096276980E+01  0.73517804327E+01  0.51100000000E-03 0.  1.
         12    1    3    3    0    0  0.68171713651E+01  0.10415163783E+02  0.21887073822E+02  0.25179226806E+02  0.00000000000E+00 0. -1.
</event>
<event>
 7    1  0.3086024E-009  0.4614232E+02  0.7816164E-02  0.1320468E+00
        -11   -1    0    0    0    0  0.00000000000E+00  0.00000000000E+00  0.45593999997E+02  0.45594000000E+02  0.51100000000E-03 0. -1.
         11   -1    0    0    0    0 -0.00000000000E+00 -0.00000000000E+00 -0.45593999997E+02  0.45594000000E+02  0.51100000000E-03 0.  1.
    9900012    2    1    2    0    0  0.30899056581E+02  0.13366733272E+02 -0.29928116641E+02  0.46142318502E+02  0.10000006752E+02 0.  0.
         12    1    1    2    0    0 -0.30899056581E+02 -0.13366733272E+02  0.29928116641E+02  0.45045681498E+02  0.00000000000E+00 0. -1.
         11    1    3    3    0    0  0.43354416529E+01  0.52540843979E+01 -0.75825738923E+01  0.10192982109E+02  0.51100000000E-03 0. -1.
        -11    1    3    3    0    0  0.25166106870E+02  0.83544923635E+01 -0.22081130967E+02  0.34506619983E+02  0.51100000000E-03 0.  1.
        -12    1    3    3    0    0  0.13975080585E+01 -0.24184348957E+00 -0.26441178239E+00  0.14427164093E+01  0.00000000000E+00 0.  1.
</event>
<event>
 7    1  0.3086024E-009  0.4614232E+02  0.7816164E-02  0.1320468E+00
        -11   -1    0    0    0    0  0.00000000000E+00  0.00000000000E+00  0.45593999997E+02  0.45594000000E+02  0.51100000000E-03 0.  1.
         11   -1    0    0    0    0 -0.00000000000E+00 -0.00000000000E+00 -0.45593999997E+02  0.45594000000E+02  0.51100000000E-03 0. -1.
    9900012    2    1    2    0    0 -0.20385414841E+02 -0.12419512249E+02  0.38200839077E+02  0.46142317311E+02  0.99999958977E+01 0.  0.
         12    1    1    2    0    0  0.20385414841E+02  0.12419512249E+02 -0.38200839077E+02  0.45045682689E+02  0.00000000000E+00 0. -1.
         11    1    3    3    0    0 -0.66494762993E+01 -0.82221808729E+00  0.12532960629E+02  0.14211498162E+02  0.51100000000E-03 0. -1.
        -11    1    3    3    0    0 -0.18130507564E+01 -0.45884749529E+01  0.90787935812E+01  0.10332751259E+02  0.51100000000E-03 0.  1.
         12    1    3    3    0    0 -0.11922887785E+02 -0.70088192091E+01  0.16589084867E+02  0.21598067889E+02  0.00000000000E+00 0. -1.
</event>
<event>
 7    1  0.3086024E-009  0.4614232E+02  0.7816164E-02  0.1320468E+00
        -11   -1    0    0    0    0  0.00000000000E+00  0.00000000000E+00  0.45593999997E+02  0.45594000000E+02  0.51100000000E-03 0.  1.
         11   -1    0    0    0    0 -0.00000000000E+00 -0.00000000000E+00 -0.45593999997E+02  0.45594000000E+02  0.51100000000E-03 0. -1.
    9900012    2    1    2    0    0  0.19486612864E+02  0.20910761448E+02  0.34815591025E+02  0.46142318701E+02  0.10000008571E+02 0.  0.
         12    1    1    2    0    0 -0.19486612864E+02 -0.20910761448E+02 -0.34815591025E+02  0.45045681299E+02  0.00000000000E+00 0. -1.
         11    1    3    3    0    0  0.63327700030E+01  0.73567909731E+01  0.77552847837E+01  0.12424604286E+02  0.51100000000E-03 0. -1.
        -11    1    3    3    0    0 -0.76555495323E-01 -0.59417413698E+00  0.17235231182E+01  0.18246741761E+01  0.51100000000E-03 0.  1.
        -12    1    3    3    0    0  0.13230398357E+02  0.14148144612E+02  0.25336783123E+02  0.31893040239E+02  0.00000000000E+00 0.  1.
</event>
<event>
 7    1  0.3086024E-009  0.4614232E+02  0.7816164E-02  0.1320468E+00
        -11   -1    0    0    0    0  0.00000000000E+00  0.00000000000E+00  0.45593999997E+02  0.45594000000E+02  0.51100000000E-03 0.  1.
         11   -1    0    0    0    0 -0.00000000000E+00 -0.00000000000E+00 -0.45593999997E+02  0.45594000000E+02  0.51100000000E-03 0. -1.
    9900012    2    1    2    0    0  0.44244997579E+02 -0.71736736235E+01 -0.44757205268E+01  0.46142317873E+02  0.10000001020E+02 0.  0.
         12    1    1    2    0    0 -0.44244997579E+02  0.71736736235E+01  0.44757205268E+01  0.45045682127E+02  0.00000000000E+00 0. -1.
         11    1    3    3    0    0  0.75439607972E+01  0.57469936970E+00  0.78396946700E+00  0.76063284350E+01  0.51100000000E-03 0. -1.
        -11    1    3    3    0    0  0.21370124112E+02 -0.54638711998E+01  0.32629013781E+00  0.22059976396E+02  0.51100000000E-03 0.  1.
         12    1    3    3    0    0  0.15330912670E+02 -0.22845017934E+01 -0.55859801316E+01  0.16476013042E+02  0.00000000000E+00 0. -1.
</event>
<event>
 7    1  0.3086024E-009  0.4614232E+02  0.7816164E-02  0.1320468E+00
        -11   -1    0    0    0    0  0.00000000000E+00  0.00000000000E+00  0.45593999997E+02  0.45594000000E+02  0.51100000000E-03 0. -1.
         11   -1    0    0    0    0 -0.00000000000E+00 -0.00000000000E+00 -0.45593999997E+02  0.45594000000E+02  0.51100000000E-03 0.  1.
    9900012    2    1    2    0    0 -0.72236177244E+01 -0.34494854870E+02 -0.28054192582E+02  0.46142318886E+02  0.10000010259E+02 0.  0.
         12    1    1    2    0    0  0.72236177244E+01  0.34494854870E+02  0.28054192582E+02  0.45045681114E+02  0.00000000000E+00 0. -1.
         11    1    3    3    0    0  0.47323353869E+00 -0.20896977880E+01 -0.69636958935E+00  0.22529353505E+01  0.51100000000E-03 0. -1.
        -11    1    3    3    0    0 -0.24214561183E+01 -0.23872050497E+02 -0.21809566792E+02  0.32425228582E+02  0.51100000000E-03 0.  1.
        -12    1    3    3    0    0 -0.52753951448E+01 -0.85331065859E+01 -0.55482562008E+01  0.11464154954E+02  0.00000000000E+00 0.  1.
</event>
<event>
 7    1  0.3086024E-009  0.4614232E+02  0.7816164E-02  0.1320468E+00
        -11   -1    0    0    0    0  0.00000000000E+00  0.00000000000E+00  0.45593999997E+02  0.45594000000E+02  0.51100000000E-03 0.  1.
         11   -1    0    0    0    0 -0.00000000000E+00 -0.00000000000E+00 -0.45593999997E+02  0.45594000000E+02  0.51100000000E-03 0. -1.
    9900012    2    1    2    0    0 -0.14525385299E+02  0.36963777186E+02  0.21255723758E+02  0.46142318360E+02  0.10000005460E+02 0.  0.
         12    1    1    2    0    0  0.14525385299E+02 -0.36963777186E+02 -0.21255723758E+02  0.45045681640E+02  0.00000000000E+00 0. -1.
         11    1    3    3    0    0 -0.81832597003E+00  0.87618714517E+01  0.66880118426E+01  0.11053033583E+02  0.51100000000E-03 0. -1.
        -11    1    3    3    0    0 -0.10418927746E+02  0.14889653304E+02  0.91381577888E+01  0.20341134652E+02  0.51100000000E-03 0.  1.
        -12    1    3    3    0    0 -0.32881315824E+01  0.13312252431E+02  0.54295541262E+01  0.14748150125E+02  0.00000000000E+00 0.  1.
</event>
<event>
 7    1  0.3086024E-009  0.4614232E+02  0.7816164E-02  0.1320468E+00
        -11   -1    0    0    0    0  0.00000000000E+00  0.00000000000E+00  0.45593999997E+02  0.45594000000E+02  0.51100000000E-03 0.  1.
         11   -1    0    0    0    0 -0.00000000000E+00 -0.00000000000E+00 -0.45593999997E+02  0.45594000000E+02  0.51100000000E-03 0. -1.
    9900012    2    1    2    0    0  0.51679664019E+01  0.38067826172E+02  0.23521186652E+02  0.46142317769E+02  0.10000000070E+02 0.  0.
         12    1    1    2    0    0 -0.51679664019E+01 -0.38067826172E+02 -0.23521186652E+02  0.45045682231E+02  0.00000000000E+00 0. -1.
         11    1    3    3    0    0  0.36225200011E+00  0.83799142876E+01  0.93561215988E+01  0.12565476577E+02  0.51100000000E-03 0. -1.
        -11    1    3    3    0    0  0.41019921181E+01  0.11090400742E+02  0.51496094393E+01  0.12897356535E+02  0.51100000000E-03 0.  1.
         12    1    3    3    0    0  0.70372228372E+00  0.18597511142E+02  0.90154556137E+01  0.20679484656E+02  0.00000000000E+00 0. -1.
</event>
<event>
 7    1  0.3086024E-009  0.4614231E+02  0.7816164E-02  0.1320468E+00
        -11   -1    0    0    0    0  0.00000000000E+00  0.00000000000E+00  0.45593999997E+02  0.45594000000E+02  0.51100000000E-03 0.  1.
         11   -1    0    0    0    0 -0.00000000000E+00 -0.00000000000E+00 -0.45593999997E+02  0.45594000000E+02  0.51100000000E-03 0. -1.
    9900012    2    1    2    0    0 -0.38540189029E+02  0.22277648120E+02  0.68901559177E+01  0.46142311808E+02  0.99999457124E+01 0.  0.
         12    1    1    2    0    0  0.38540189029E+02 -0.22277648120E+02 -0.68901559177E+01  0.45045688192E+02  0.00000000000E+00 0. -1.
         11    1    3    3    0    0 -0.92546258699E+01  0.32861894147E+01  0.48549776242E+01  0.10955270369E+02  0.51100000000E-03 0. -1.
        -11    1    3    3    0    0 -0.13866978022E+02  0.85963352297E+01  0.29018735573E+01  0.16571388875E+02  0.51100000000E-03 0.  1.
         12    1    3    3    0    0 -0.15418585137E+02  0.10395123476E+02 -0.86669526380E+00  0.18615652564E+02  0.00000000000E+00 0. -1.
</event>
<event>
 7    1  0.3086024E-009  0.4614232E+02  0.7816164E-02  0.1320468E+00
        -11   -1    0    0    0    0  0.00000000000E+00  0.00000000000E+00  0.45593999997E+02  0.45594000000E+02  0.51100000000E-03 0.  1.
         11   -1    0    0    0    0 -0.00000000000E+00 -0.00000000000E+00 -0.45593999997E+02  0.45594000000E+02  0.51100000000E-03 0. -1.
    9900012    2    1    2    0    0 -0.62990957625E+01 -0.11714147307E+02  0.43037351928E+02  0.46142317460E+02  0.99999972511E+01 0.  0.
         12    1    1    2    0    0  0.62990957625E+01  0.11714147307E+02 -0.43037351928E+02  0.45045682540E+02  0.00000000000E+00 0. -1.
         11    1    3    3    0    0 -0.23382453895E+01 -0.59334197452E+01  0.30663432703E+02  0.31319625904E+02  0.51100000000E-03 0. -1.
        -11    1    3    3    0    0 -0.33144478590E+01 -0.12098880941E+01  0.58247736396E+01  0.68100941274E+01  0.51100000000E-03 0.  1.
         12    1    3    3    0    0 -0.64640251397E+00 -0.45708394677E+01  0.65491455856E+01  0.80125974285E+01  0.00000000000E+00 0. -1.
</event>
<event>
 7    1  0.3086024E-009  0.4614232E+02  0.7816164E-02  0.1320468E+00
        -11   -1    0    0    0    0  0.00000000000E+00  0.00000000000E+00  0.45593999997E+02  0.45594000000E+02  0.51100000000E-03 0.  1.
         11   -1    0    0    0    0 -0.00000000000E+00 -0.00000000000E+00 -0.45593999997E+02  0.45594000000E+02  0.51100000000E-03 0. -1.
    9900012    2    1    2    0    0  0.14175683286E+02  0.25003071785E+02  0.34684432603E+02  0.46142318073E+02  0.10000002841E+02 0.  0.
         12    1    1    2    0    0 -0.14175683286E+02 -0.25003071785E+02 -0.34684432603E+02  0.45045681927E+02  0.00000000000E+00 0. -1.
         11    1    3    3    0    0  0.47209287753E+01  0.18859437923E+01  0.73180721927E+01  0.89105630219E+01  0.51100000000E-03 0. -1.
        -11    1    3    3    0    0  0.30648488401E+01  0.92799536082E+01  0.82973722125E+01  0.12820188114E+02  0.51100000000E-03 0.  1.
         12    1    3    3    0    0  0.63899056704E+01  0.13837174385E+02  0.19068988197E+02  0.24411566937E+02  0.00000000000E+00 0. -1.
</event>
<event>
 7    1  0.3086024E-009  0.4614232E+02  0.7816164E-02  0.1320468E+00
        -11   -1    0    0    0    0  0.00000000000E+00  0.00000000000E+00  0.45593999997E+02  0.45594000000E+02  0.51100000000E-03 0.  1.
         11   -1    0    0    0    0 -0.00000000000E+00 -0.00000000000E+00 -0.45593999997E+02  0.45594000000E+02  0.51100000000E-03 0. -1.
    9900012    2    1    2    0    0  0.76432842092E+00  0.32195831736E+01  0.44923977193E+02  0.46142316071E+02  0.99999845902E+01 0.  0.
         12    1    1    2    0    0 -0.76432842092E+00 -0.32195831736E+01 -0.44923977193E+02  0.45045683929E+02  0.00000000000E+00 0. -1.
         11    1    3    3    0    0 -0.25557168688E+01 -0.47494804456E+00  0.82764004223E+01  0.86750255660E+01  0.51100000000E-03 0. -1.
        -11    1    3    3    0    0  0.80520082735E-01  0.21623704042E+00  0.23256527157E+02  0.23257671801E+02  0.51100000000E-03 0.  1.
        -12    1    3    3    0    0  0.32395252069E+01  0.34782941778E+01  0.13391049614E+02  0.14209618704E+02  0.00000000000E+00 0.  1.
</event>
<event>
 7    1  0.3086024E-009  0.4614232E+02  0.7816164E-02  0.1320468E+00
        -11   -1    0    0    0    0  0.00000000000E+00  0.00000000000E+00  0.45593999997E+02  0.45594000000E+02  0.51100000000E-03 0.  1.
         11   -1    0    0    0    0 -0.00000000000E+00 -0.00000000000E+00 -0.45593999997E+02  0.45594000000E+02  0.51100000000E-03 0. -1.
    9900012    2    1    2    0    0 -0.89268457032E+00 -0.24679357482E+02  0.37672880072E+02  0.46142318027E+02  0.10000002428E+02 0.  0.
         12    1    1    2    0    0  0.89268457032E+00  0.24679357482E+02 -0.37672880072E+02  0.45045681973E+02  0.00000000000E+00 0. -1.
         11    1    3    3    0    0 -0.27123725819E+00 -0.21119889424E+01  0.17805088615E+00  0.21367660898E+01  0.51100000000E-03 0.  1.
        -11    1    3    3    0    0  0.13813047711E+00 -0.17719104672E+02  0.32417332121E+02  0.36944135834E+02  0.51100000000E-03 0. -1.
        -12    1    3    3    0    0 -0.75957778923E+00 -0.48482638676E+01  0.50774970643E+01  0.70614161035E+01  0.00000000000E+00 0.  1.
</event>
<event>
 7    1  0.3086024E-009  0.4614232E+02  0.7816164E-02  0.1320468E+00
        -11   -1    0    0    0    0  0.00000000000E+00  0.00000000000E+00  0.45593999997E+02  0.45594000000E+02  0.51100000000E-03 0. -1.
         11   -1    0    0    0    0 -0.00000000000E+00 -0.00000000000E+00 -0.45593999997E+02  0.45594000000E+02  0.51100000000E-03 0.  1.
    9900012    2    1    2    0    0 -0.29259998998E+01  0.29973191170E+02 -0.33498652998E+02  0.46142318553E+02  0.10000007222E+02 0.  0.
         12    1    1    2    0    0  0.29259998998E+01 -0.29973191170E+02  0.33498652998E+02  0.45045681447E+02  0.00000000000E+00 0. -1.
         11    1    3    3    0    0 -0.24452580758E+01  0.83209251721E+01 -0.59432728172E+01  0.10513780234E+02  0.51100000000E-03 0. -1.
        -11    1    3    3    0    0  0.13104782825E+01  0.58409449931E+00 -0.15519016742E+01  0.21135086422E+01  0.51100000000E-03 0.  1.
        -12    1    3    3    0    0 -0.17912201065E+01  0.21068171498E+02 -0.26003478507E+02  0.33515029676E+02  0.00000000000E+00 0.  1.
</event>
<event>
 7    1  0.3086024E-009  0.4614232E+02  0.7816164E-02  0.1320468E+00
        -11   -1    0    0    0    0  0.00000000000E+00  0.00000000000E+00  0.45593999997E+02  0.45594000000E+02  0.51100000000E-03 0.  1.
         11   -1    0    0    0    0 -0.00000000000E+00 -0.00000000000E+00 -0.45593999997E+02  0.45594000000E+02  0.51100000000E-03 0. -1.
    9900012    2    1    2    0    0 -0.14475978813E+02 -0.78308377129E+01  0.41931343074E+02  0.46142317478E+02  0.99999974166E+01 0.  0.
         12    1    1    2    0    0  0.14475978813E+02  0.78308377129E+01 -0.41931343074E+02  0.45045682522E+02  0.00000000000E+00 0. -1.
         11    1    3    3    0    0 -0.77497259438E+01 -0.25142102567E+01  0.10957637343E+02  0.13654644697E+02  0.51100000000E-03 0. -1.
        -11    1    3    3    0    0 -0.37384242628E+01 -0.50187035664E+01  0.15325253267E+02  0.16553748501E+02  0.51100000000E-03 0.  1.
         12    1    3    3    0    0 -0.29878286066E+01 -0.29792388991E+00  0.15648452464E+02  0.15933924280E+02  0.00000000000E+00 0. -1.
</event>
<event>
 7    1  0.3086024E-009  0.4614232E+02  0.7816164E-02  0.1320468E+00
        -11   -1    0    0    0    0  0.00000000000E+00  0.00000000000E+00  0.45593999997E+02  0.45594000000E+02  0.51100000000E-03 0.  1.
         11   -1    0    0    0    0 -0.00000000000E+00 -0.00000000000E+00 -0.45593999997E+02  0.45594000000E+02  0.51100000000E-03 0. -1.
    9900012    2    1    2    0    0  0.43880663687E+02 -0.79131920445E+01  0.64017405871E+01  0.46142317227E+02  0.99999951267E+01 0.  0.
         12    1    1    2    0    0 -0.43880663687E+02  0.79131920445E+01 -0.64017405871E+01  0.45045682773E+02  0.00000000000E+00 0. -1.
         11    1    3    3    0    0  0.25096614938E+01 -0.15773854843E+01  0.16940932720E+01  0.34141613985E+01  0.51100000000E-03 0. -1.
        -11    1    3    3    0    0  0.25083091763E+02 -0.51113420052E+01 -0.43992851313E+00  0.25602360182E+02  0.51100000000E-03 0.  1.
        -12    1    3    3    0    0  0.16287910430E+02 -0.12244645550E+01  0.51475758283E+01  0.17125795647E+02  0.00000000000E+00 0.  1.
</event>
<event>
 7    1  0.3086024E-009  0.4614232E+02  0.7816164E-02  0.1320468E+00
        -11   -1    0    0    0    0  0.00000000000E+00  0.00000000000E+00  0.45593999997E+02  0.45594000000E+02  0.51100000000E-03 0. -1.
         11   -1    0    0    0    0 -0.00000000000E+00 -0.00000000000E+00 -0.45593999997E+02  0.45594000000E+02  0.51100000000E-03 0.  1.
    9900012    2    1    2    0    0 -0.42418613662E+02 -0.12129118772E+02  0.90917089205E+01  0.46142317873E+02  0.10000001023E+02 0.  0.
         12    1    1    2    0    0  0.42418613662E+02  0.12129118772E+02 -0.90917089205E+01  0.45045682127E+02  0.00000000000E+00 0. -1.
         11    1    3    3    0    0 -0.80069538282E+01 -0.22955007610E+01  0.28188944985E+01  0.87935658186E+01  0.51100000000E-03 0. -1.
        -11    1    3    3    0    0 -0.87903638662E+00 -0.12340979608E+01 -0.12009902460E+01  0.19334116422E+01  0.51100000000E-03 0.  1.
        -12    1    3    3    0    0 -0.33532623447E+02 -0.85995200498E+01  0.74738046680E+01  0.35415340413E+02  0.00000000000E+00 0.  1.
</event>
<event>
 7    1  0.3086024E-009  0.4614232E+02  0.7816164E-02  0.1320468E+00
        -11   -1    0    0    0    0  0.00000000000E+00  0.00000000000E+00  0.45593999997E+02  0.45594000000E+02  0.51100000000E-03 0.  1.
         11   -1    0    0    0    0 -0.00000000000E+00 -0.00000000000E+00 -0.45593999997E+02  0.45594000000E+02  0.51100000000E-03 0. -1.
    9900012    2    1    2    0    0 -0.57763384130E+01 -0.37211918286E+02  0.24718829437E+02  0.46142317890E+02  0.10000001177E+02 0.  0.
         12    1    1    2    0    0  0.57763384130E+01  0.37211918286E+02 -0.24718829437E+02  0.45045682110E+02  0.00000000000E+00 0. -1.
         11    1    3    3    0    0 -0.55997755485E+01 -0.15098811969E+02  0.12173058525E+02  0.20186999856E+02  0.51100000000E-03 0. -1.
        -11    1    3    3    0    0  0.19182523203E+01 -0.45835656737E+01  0.37889612374E+01  0.62485993446E+01  0.51100000000E-03 0.  1.
         12    1    3    3    0    0 -0.20948151847E+01 -0.17529540644E+02  0.87568096743E+01  0.19706718690E+02  0.00000000000E+00 0. -1.
</event>
<event>
 7    1  0.3086024E-009  0.4614233E+02  0.7816164E-02  0.1320468E+00
        -11   -1    0    0    0    0  0.00000000000E+00  0.00000000000E+00  0.45593999997E+02  0.45594000000E+02  0.51100000000E-03 0.  1.
         11   -1    0    0    0    0 -0.00000000000E+00 -0.00000000000E+00 -0.45593999997E+02  0.45594000000E+02  0.51100000000E-03 0. -1.
    9900012    2    1    2    0    0 -0.83067558367E+01  0.43238736775E+02  0.95143157967E+01  0.46142325896E+02  0.10000074180E+02 0.  0.
         12    1    1    2    0    0  0.83067558367E+01 -0.43238736775E+02 -0.95143157967E+01  0.45045674104E+02  0.00000000000E+00 0. -1.
         11    1    3    3    0    0  0.32455181096E+00  0.41555179358E+00  0.13576362727E+01  0.14564318320E+01  0.51100000000E-03 0. -1.
        -11    1    3    3    0    0 -0.31197136087E+01  0.26135406053E+02  0.39576537977E+01  0.26616819615E+02  0.51100000000E-03 0.  1.
         12    1    3    3    0    0 -0.55115940389E+01  0.16687778928E+02  0.41990257263E+01  0.18069074449E+02  0.00000000000E+00 0. -1.
</event>
<event>
 7    1  0.3086024E-009  0.4614232E+02  0.7816164E-02  0.1320468E+00
        -11   -1    0    0    0    0  0.00000000000E+00  0.00000000000E+00  0.45593999997E+02  0.45594000000E+02  0.51100000000E-03 0. -1.
         11   -1    0    0    0    0 -0.00000000000E+00 -0.00000000000E+00 -0.45593999997E+02  0.45594000000E+02  0.51100000000E-03 0.  1.
    9900012    2    1    2    0    0 -0.28563555965E+01 -0.43203100814E+02 -0.12427661671E+02  0.46142318055E+02  0.10000002684E+02 0.  0.
         12    1    1    2    0    0  0.28563555965E+01  0.43203100814E+02  0.12427661671E+02  0.45045681945E+02  0.00000000000E+00 0. -1.
         11    1    3    3    0    0 -0.99174765403E+00 -0.94490073651E+01 -0.49095758080E+01  0.10694448956E+02  0.51100000000E-03 0. -1.
        -11    1    3    3    0    0 -0.33296563832E+01 -0.62699004717E+01 -0.10691625552E+01  0.71792320193E+01  0.51100000000E-03 0.  1.
        -12    1    3    3    0    0  0.14650484407E+01 -0.27484192977E+02 -0.64489233075E+01  0.28268637080E+02  0.00000000000E+00 0.  1.
</event>
<event>
 7    1  0.3086024E-009  0.4614232E+02  0.7816164E-02  0.1320468E+00
        -11   -1    0    0    0    0  0.00000000000E+00  0.00000000000E+00  0.45593999997E+02  0.45594000000E+02  0.51100000000E-03 0.  1.
         11   -1    0    0    0    0 -0.00000000000E+00 -0.00000000000E+00 -0.45593999997E+02  0.45594000000E+02  0.51100000000E-03 0. -1.
    9900012    2    1    2    0    0  0.14863326313E+02  0.16643144928E+02  0.39130559850E+02  0.46142318117E+02  0.10000003241E+02 0.  0.
         12    1    1    2    0    0 -0.14863326313E+02 -0.16643144928E+02 -0.39130559850E+02  0.45045681883E+02  0.00000000000E+00 0. -1.
         11    1    3    3    0    0  0.13691213073E+01  0.35254491106E+01  0.22600685312E+01  0.44058137287E+01  0.51100000000E-03 0. -1.
        -11    1    3    3    0    0  0.12802180699E+02  0.11049910407E+02  0.29012269346E+02  0.33581365718E+02  0.51100000000E-03 0.  1.
         12    1    3    3    0    0  0.69202430699E+00  0.20677854100E+01  0.78582219730E+01  0.81551386695E+01  0.00000000000E+00 0. -1.
</event>
<event>
 7    1  0.3086024E-009  0.4614232E+02  0.7816164E-02  0.1320468E+00
        -11   -1    0    0    0    0  0.00000000000E+00  0.00000000000E+00  0.45593999997E+02  0.45594000000E+02  0.51100000000E-03 0.  1.
         11   -1    0    0    0    0 -0.00000000000E+00 -0.00000000000E+00 -0.45593999997E+02  0.45594000000E+02  0.51100000000E-03 0. -1.
    9900012    2    1    2    0    0  0.24435040789E+02 -0.37794074568E+02  0.19105420954E+01  0.46142318055E+02  0.10000002681E+02 0.  0.
         12    1    1    2    0    0 -0.24435040789E+02  0.37794074568E+02 -0.19105420954E+01  0.45045681945E+02  0.00000000000E+00 0. -1.
         11    1    3    3    0    0  0.10129995373E+02 -0.79050611487E+01  0.46619302835E+00  0.12857843296E+02  0.51100000000E-03 0. -1.
        -11    1    3    3    0    0  0.11573564982E+02 -0.21324092306E+02  0.11554528858E+01  0.24289903061E+02  0.51100000000E-03 0.  1.
        -12    1    3    3    0    0  0.27314804337E+01 -0.85649211132E+01  0.28889618116E+00  0.89945716984E+01  0.00000000000E+00 0.  1.
</event>
<event>
 7    1  0.3086024E-009  0.4614232E+02  0.7816164E-02  0.1320468E+00
        -11   -1    0    0    0    0  0.00000000000E+00  0.00000000000E+00  0.45593999997E+02  0.45594000000E+02  0.51100000000E-03 0.  1.
         11   -1    0    0    0    0 -0.00000000000E+00 -0.00000000000E+00 -0.45593999997E+02  0.45594000000E+02  0.51100000000E-03 0. -1.
    9900012    2    1    2    0    0 -0.57022317257E+01  0.25814546787E+02  0.36472007966E+02  0.46142316105E+02  0.99999848982E+01 0.  0.
         12    1    1    2    0    0  0.57022317257E+01 -0.25814546787E+02 -0.36472007966E+02  0.45045683895E+02  0.00000000000E+00 0. -1.
         11    1    3    3    0    0 -0.53025750864E+01  0.19731206938E+02  0.29403534118E+02  0.35805106461E+02  0.51100000000E-03 0.  1.
        -11    1    3    3    0    0 -0.81301710584E+00  0.19169850437E+00 -0.30563429556E+00  0.88947046871E+00  0.51100000000E-03 0. -1.
        -12    1    3    3    0    0  0.41336046662E+00  0.58916413453E+01  0.73741081433E+01  0.94477391754E+01  0.00000000000E+00 0.  1.
</event>
<event>
 7    1  0.3086024E-009  0.4614232E+02  0.7816164E-02  0.1320468E+00
        -11   -1    0    0    0    0  0.00000000000E+00  0.00000000000E+00  0.45593999997E+02  0.45594000000E+02  0.51100000000E-03 0. -1.
         11   -1    0    0    0    0 -0.00000000000E+00 -0.00000000000E+00 -0.45593999997E+02  0.45594000000E+02  0.51100000000E-03 0.  1.
    9900012    2    1    2    0    0 -0.97063518337E+01 -0.13682729803E+02 -0.41805299687E+02  0.46142318268E+02  0.10000004625E+02 0.  0.
         12    1    1    2    0    0  0.97063518337E+01  0.13682729803E+02  0.41805299687E+02  0.45045681732E+02  0.00000000000E+00 0. -1.
         11    1    3    3    0    0  0.15753956321E+00  0.54853013648E+00 -0.76778733205E+01  0.76990546830E+01  0.51100000000E-03 0. -1.
        -11    1    3    3    0    0 -0.20653088102E+01 -0.40003905696E+01 -0.58896804313E+01  0.74132962327E+01  0.51100000000E-03 0.  1.
         12    1    3    3    0    0 -0.77985825868E+01 -0.10230869370E+02 -0.28237745935E+02  0.31029967353E+02  0.00000000000E+00 0. -1.
</event>
<event>
 7    1  0.3086024E-009  0.4614232E+02  0.7816164E-02  0.1320468E+00
        -11   -1    0    0    0    0  0.00000000000E+00  0.00000000000E+00  0.45593999997E+02  0.45594000000E+02  0.51100000000E-03 0. -1.
         11   -1    0    0    0    0 -0.00000000000E+00 -0.00000000000E+00 -0.45593999997E+02  0.45594000000E+02  0.51100000000E-03 0.  1.
    9900012    2    1    2    0    0  0.29772219365E+01  0.38993137891E+02 -0.22355868123E+02  0.46142317714E+02  0.99999995743E+01 0.  0.
         12    1    1    2    0    0 -0.29772219365E+01 -0.38993137891E+02  0.22355868123E+02  0.45045682286E+02  0.00000000000E+00 0. -1.
         11    1    3    3    0    0  0.33978883475E+01  0.11724739300E+02 -0.82078406658E+01  0.14709989991E+02  0.51100000000E-03 0. -1.
        -11    1    3    3    0    0 -0.37735952942E+00  0.16145384182E+02 -0.11959660301E+02  0.20096002224E+02  0.51100000000E-03 0.  1.
        -12    1    3    3    0    0 -0.43306881540E-01  0.11123014409E+02 -0.21883671563E+01  0.11336325500E+02  0.00000000000E+00 0.  1.
</event>
<event>
 7    1  0.3086024E-009  0.4614232E+02  0.7816164E-02  0.1320468E+00
        -11   -1    0    0    0    0  0.00000000000E+00  0.00000000000E+00  0.45593999997E+02  0.45594000000E+02  0.51100000000E-03 0. -1.
         11   -1    0    0    0    0 -0.00000000000E+00 -0.00000000000E+00 -0.45593999997E+02  0.45594000000E+02  0.51100000000E-03 0.  1.
    9900012    2    1    2    0    0 -0.27138512241E+02  0.22062065093E+02 -0.28388024037E+02  0.46142317948E+02  0.10000001706E+02 0.  0.
         12    1    1    2    0    0  0.27138512241E+02 -0.22062065093E+02  0.28388024037E+02  0.45045682052E+02  0.00000000000E+00 0. -1.
         11    1    3    3    0    0 -0.33526893367E+01  0.81617758120E+00 -0.15851652072E+01  0.37972912224E+01  0.51100000000E-03 0. -1.
        -11    1    3    3    0    0 -0.22237131939E+02  0.18441959622E+02 -0.26366017083E+02  0.39112181845E+02  0.51100000000E-03 0.  1.
        -12    1    3    3    0    0 -0.15486909651E+01  0.28039278892E+01 -0.43684174659E+00  0.32328448810E+01  0.00000000000E+00 0.  1.
</event>
<event>
 7    1  0.3086024E-009  0.4614232E+02  0.7816164E-02  0.1320468E+00
        -11   -1    0    0    0    0  0.00000000000E+00  0.00000000000E+00  0.45593999997E+02  0.45594000000E+02  0.51100000000E-03 0. -1.
         11   -1    0    0    0    0 -0.00000000000E+00 -0.00000000000E+00 -0.45593999997E+02  0.45594000000E+02  0.51100000000E-03 0.  1.
    9900012    2    1    2    0    0 -0.28323546860E+02  0.20433244680E+02 -0.28449474758E+02  0.46142318644E+02  0.10000008047E+02 0.  0.
         12    1    1    2    0    0  0.28323546860E+02 -0.20433244680E+02  0.28449474758E+02  0.45045681356E+02  0.00000000000E+00 0. -1.
         11    1    3    3    0    0 -0.52476964442E+01  0.64260074848E+01 -0.58922009300E+01  0.10175948222E+02  0.51100000000E-03 0. -1.
        -11    1    3    3    0    0 -0.22241725571E+02  0.10849850076E+02 -0.19847059515E+02  0.31722537331E+02  0.51100000000E-03 0.  1.
        -12    1    3    3    0    0 -0.83412484452E+00  0.31573871193E+01 -0.27102143128E+01  0.42438330903E+01  0.00000000000E+00 0.  1.
</event>
<event>
 7    1  0.3086024E-009  0.4614232E+02  0.7816164E-02  0.1320468E+00
        -11   -1    0    0    0    0  0.00000000000E+00  0.00000000000E+00  0.45593999997E+02  0.45594000000E+02  0.51100000000E-03 0. -1.
         11   -1    0    0    0    0 -0.00000000000E+00 -0.00000000000E+00 -0.45593999997E+02  0.45594000000E+02  0.51100000000E-03 0.  1.
    9900012    2    1    2    0    0 -0.17424900805E+02 -0.34903964032E+02 -0.22521093295E+02  0.46142317449E+02  0.99999971585E+01 0.  0.
         12    1    1    2    0    0  0.17424900805E+02  0.34903964032E+02  0.22521093295E+02  0.45045682551E+02  0.00000000000E+00 0. -1.
         11    1    3    3    0    0 -0.49769675258E+01 -0.17494203630E+02 -0.76836349628E+01  0.19744761657E+02  0.51100000000E-03 0. -1.
        -11    1    3    3    0    0 -0.11340667273E+01 -0.35075560535E+01 -0.12050868736E+01  0.38783103853E+01  0.51100000000E-03 0.  1.
         12    1    3    3    0    0 -0.11313866552E+02 -0.13902204349E+02 -0.13632371459E+02  0.22519245407E+02  0.00000000000E+00 0. -1.
</event>
<event>
 7    1  0.3086024E-009  0.4614232E+02  0.7816164E-02  0.1320468E+00
        -11   -1    0    0    0    0  0.00000000000E+00  0.00000000000E+00  0.45593999997E+02  0.45594000000E+02  0.51100000000E-03 0.  1.
         11   -1    0    0    0    0 -0.00000000000E+00 -0.00000000000E+00 -0.45593999997E+02  0.45594000000E+02  0.51100000000E-03 0. -1.
    9900012    2    1    2    0    0 -0.12007681195E+02 -0.38599306591E+02  0.19875173721E+02  0.46142318659E+02  0.10000008192E+02 0.  0.
         12    1    1    2    0    0  0.12007681195E+02  0.38599306591E+02 -0.19875173721E+02  0.45045681341E+02  0.00000000000E+00 0. -1.
         11    1    3    3    0    0 -0.32366592836E+01 -0.13054487316E+02  0.86734575897E+01  0.16003889190E+02  0.51100000000E-03 0. -1.
        -11    1    3    3    0    0 -0.88122078350E+01 -0.19499480489E+02  0.61619604812E+01  0.22267790719E+02  0.51100000000E-03 0.  1.
        -12    1    3    3    0    0  0.41185924060E-01 -0.60453387865E+01  0.50397556506E+01  0.78706387505E+01  0.00000000000E+00 0.  1.
</event>
<event>
 7    1  0.3086024E-009  0.4614232E+02  0.7816164E-02  0.1320468E+00
        -11   -1    0    0    0    0  0.00000000000E+00  0.00000000000E+00  0.45593999997E+02  0.45594000000E+02  0.51100000000E-03 0.  1.
         11   -1    0    0    0    0 -0.00000000000E+00 -0.00000000000E+00 -0.45593999997E+02  0.45594000000E+02  0.51100000000E-03 0. -1.
    9900012    2    1    2    0    0 -0.30575110086E+01  0.16599020778E+02  0.41764070314E+02  0.46142318369E+02  0.10000005546E+02 0.  0.
         12    1    1    2    0    0  0.30575110086E+01 -0.16599020778E+02 -0.41764070314E+02  0.45045681631E+02  0.00000000000E+00 0. -1.
         11    1    3    3    0    0 -0.10645104982E+01  0.59598786675E+01  0.22900665459E+02  0.23687418919E+02  0.51100000000E-03 0. -1.
        -11    1    3    3    0    0 -0.36809640644E+01  0.89767739785E+01  0.13853282956E+02  0.16912877237E+02  0.51100000000E-03 0.  1.
        -12    1    3    3    0    0  0.16879635540E+01  0.16623681316E+01  0.50101218989E+01  0.55420222127E+01  0.00000000000E+00 0.  1.
</event>
<event>
 7    1  0.3086024E-009  0.4614232E+02  0.7816164E-02  0.1320468E+00
        -11   -1    0    0    0    0  0.00000000000E+00  0.00000000000E+00  0.45593999997E+02  0.45594000000E+02  0.51100000000E-03 0.  1.
         11   -1    0    0    0    0 -0.00000000000E+00 -0.00000000000E+00 -0.45593999997E+02  0.45594000000E+02  0.51100000000E-03 0. -1.
    9900012    2    1    2    0    0 -0.21955341632E+02  0.15157719002E+02  0.36294901775E+02  0.46142319115E+02  0.10000012345E+02 0.  0.
         12    1    1    2    0    0  0.21955341632E+02 -0.15157719002E+02 -0.36294901775E+02  0.45045680885E+02  0.00000000000E+00 0. -1.
         11    1    3    3    0    0 -0.15858889611E+02  0.11523432513E+02  0.30695502120E+02  0.36421253784E+02  0.51100000000E-03 0.  1.
        -11    1    3    3    0    0 -0.51614825926E+01  0.16699147161E+01  0.26000454719E+01  0.60157920866E+01  0.51100000000E-03 0. -1.
         12    1    3    3    0    0 -0.93496942917E+00  0.19643717726E+01  0.29993541835E+01  0.37052732440E+01  0.00000000000E+00 0. -1.
</event>
<event>
 7    1  0.3086024E-009  0.4614232E+02  0.7816164E-02  0.1320468E+00
        -11   -1    0    0    0    0  0.00000000000E+00  0.00000000000E+00  0.45593999997E+02  0.45594000000E+02  0.51100000000E-03 0.  1.
         11   -1    0    0    0    0 -0.00000000000E+00 -0.00000000000E+00 -0.45593999997E+02  0.45594000000E+02  0.51100000000E-03 0. -1.
    9900012    2    1    2    0    0 -0.14458590628E+02 -0.38199101541E+02 -0.18997139805E+02  0.46142317386E+02  0.99999965750E+01 0.  0.
         12    1    1    2    0    0  0.14458590628E+02  0.38199101541E+02  0.18997139805E+02  0.45045682614E+02  0.00000000000E+00 0. -1.
         11    1    3    3    0    0  0.41107352371E+00 -0.62560313846E+01 -0.61900998633E+00  0.63000066469E+01  0.51100000000E-03 0. -1.
        -11    1    3    3    0    0 -0.97023300387E+01 -0.20159085206E+02 -0.10133457235E+02  0.24560351796E+02  0.51100000000E-03 0.  1.
         12    1    3    3    0    0 -0.51673341127E+01 -0.11783984950E+02 -0.82446725830E+01  0.15281958943E+02  0.00000000000E+00 0. -1.
</event>
<event>
 7    1  0.3086024E-009  0.4614232E+02  0.7816164E-02  0.1320468E+00
        -11   -1    0    0    0    0  0.00000000000E+00  0.00000000000E+00  0.45593999997E+02  0.45594000000E+02  0.51100000000E-03 0.  1.
         11   -1    0    0    0    0 -0.00000000000E+00 -0.00000000000E+00 -0.45593999997E+02  0.45594000000E+02  0.51100000000E-03 0. -1.
    9900012    2    1    2    0    0 -0.30657474369E+02  0.27347963275E+02  0.18474896152E+02  0.46142316325E+02  0.99999869007E+01 0.  0.
         12    1    1    2    0    0  0.30657474369E+02 -0.27347963275E+02 -0.18474896152E+02  0.45045683675E+02  0.00000000000E+00 0. -1.
         11    1    3    3    0    0 -0.23205919463E+02  0.19861134022E+02  0.17979454416E+02  0.35443477879E+02  0.51100000000E-03 0. -1.
        -11    1    3    3    0    0 -0.83723419453E+00  0.13535912585E+01 -0.37947004801E+00  0.16362054180E+01  0.51100000000E-03 0.  1.
         12    1    3    3    0    0 -0.66143207109E+01  0.61332379952E+01  0.87491178341E+00  0.90626330280E+01  0.00000000000E+00 0. -1.
</event>
<event>
 7    1  0.3086024E-009  0.4614232E+02  0.7816164E-02  0.1320468E+00
        -11   -1    0    0    0    0  0.00000000000E+00  0.00000000000E+00  0.45593999997E+02  0.45594000000E+02  0.51100000000E-03 0. -1.
         11   -1    0    0    0    0 -0.00000000000E+00 -0.00000000000E+00 -0.45593999997E+02  0.45594000000E+02  0.51100000000E-03 0.  1.
    9900012    2    1    2    0    0  0.51695220927E+01  0.44732720805E+02 -0.11718463406E+01  0.46142317708E+02  0.99999995186E+01 0.  0.
         12    1    1    2    0    0 -0.51695220927E+01 -0.44732720805E+02  0.11718463406E+01  0.45045682292E+02  0.00000000000E+00 0. -1.
         11    1    3    3    0    0  0.27139386832E+00  0.75503254998E+01 -0.27608836154E+01  0.80438515888E+01  0.51100000000E-03 0. -1.
        -11    1    3    3    0    0  0.37092158520E+01  0.29812201309E+02 -0.13570860318E+01  0.30072700442E+02  0.51100000000E-03 0.  1.
         12    1    3    3    0    0  0.11889123723E+01  0.73701939959E+01  0.29461233065E+01  0.80257656770E+01  0.00000000000E+00 0. -1.
</event>
<event>
 7    1  0.3086024E-009  0.4614232E+02  0.7816164E-02  0.1320468E+00
        -11   -1    0    0    0    0  0.00000000000E+00  0.00000000000E+00  0.45593999997E+02  0.45594000000E+02  0.51100000000E-03 0.  1.
         11   -1    0    0    0    0 -0.00000000000E+00 -0.00000000000E+00 -0.45593999997E+02  0.45594000000E+02  0.51100000000E-03 0. -1.
    9900012    2    1    2    0    0 -0.33198437635E+02  0.28205518086E+02  0.11464115497E+02  0.46142318120E+02  0.10000003275E+02 0.  0.
         12    1    1    2    0    0  0.33198437635E+02 -0.28205518086E+02 -0.11464115497E+02  0.45045681880E+02  0.00000000000E+00 0. -1.
         11    1    3    3    0    0 -0.29835600010E+01  0.11534189167E+01 -0.86494047237E+00  0.33136275830E+01  0.51100000000E-03 0. -1.
        -11    1    3    3    0    0 -0.83586268145E+01  0.10907643147E+02  0.55722920738E+01  0.14828815208E+02  0.51100000000E-03 0.  1.
         12    1    3    3    0    0 -0.21856250819E+02  0.16144456022E+02  0.67567638953E+01  0.27999875329E+02  0.00000000000E+00 0. -1.
</event>
<event>
 7    1  0.3086024E-009  0.4614232E+02  0.7816164E-02  0.1320468E+00
        -11   -1    0    0    0    0  0.00000000000E+00  0.00000000000E+00  0.45593999997E+02  0.45594000000E+02  0.51100000000E-03 0. -1.
         11   -1    0    0    0    0 -0.00000000000E+00 -0.00000000000E+00 -0.45593999997E+02  0.45594000000E+02  0.51100000000E-03 0.  1.
    9900012    2    1    2    0    0  0.33774332624E+02  0.12349363231E+02 -0.27127497367E+02  0.46142318411E+02  0.10000005929E+02 0.  0.
         12    1    1    2    0    0 -0.33774332624E+02 -0.12349363231E+02  0.27127497367E+02  0.45045681589E+02  0.00000000000E+00 0. -1.
         11    1    3    3    0    0 -0.17583779478E+00 -0.24251411865E+00 -0.22721905100E+00  0.37597976817E+00  0.51100000000E-03 0. -1.
        -11    1    3    3    0    0  0.10085284649E+02  0.74072457209E+00 -0.50280272777E+01  0.11293480328E+02  0.51100000000E-03 0.  1.
        -12    1    3    3    0    0  0.23864885769E+02  0.11851152778E+02 -0.21872251038E+02  0.34472858315E+02  0.00000000000E+00 0.  1.
</event>
<event>
 7    1  0.3086024E-009  0.4614232E+02  0.7816164E-02  0.1320468E+00
        -11   -1    0    0    0    0  0.00000000000E+00  0.00000000000E+00  0.45593999997E+02  0.45594000000E+02  0.51100000000E-03 0.  1.
         11   -1    0    0    0    0 -0.00000000000E+00 -0.00000000000E+00 -0.45593999997E+02  0.45594000000E+02  0.51100000000E-03 0. -1.
    9900012    2    1    2    0    0 -0.21580339061E+02  0.60082854457E+01  0.39080725642E+02  0.46142316026E+02  0.99999841761E+01 0.  0.
         12    1    1    2    0    0  0.21580339061E+02 -0.60082854457E+01 -0.39080725642E+02  0.45045683974E+02  0.00000000000E+00 0. -1.
         11    1    3    3    0    0 -0.11224761823E+02  0.36282191134E+01  0.14553500297E+02  0.18734023142E+02  0.51100000000E-03 0. -1.
        -11    1    3    3    0    0 -0.26061150446E+01 -0.20243257988E+01  0.73177762412E+01  0.80274267323E+01  0.51100000000E-03 0.  1.
        -12    1    3    3    0    0 -0.77494621932E+01  0.44043921312E+01  0.17209449104E+02  0.19380866151E+02  0.00000000000E+00 0.  1.
</event>
<event>
 7    1  0.3086024E-009  0.4614232E+02  0.7816164E-02  0.1320468E+00
        -11   -1    0    0    0    0  0.00000000000E+00  0.00000000000E+00  0.45593999997E+02  0.45594000000E+02  0.51100000000E-03 0.  1.
         11   -1    0    0    0    0 -0.00000000000E+00 -0.00000000000E+00 -0.45593999997E+02  0.45594000000E+02  0.51100000000E-03 0. -1.
    9900012    2    1    2    0    0  0.89936908333E+01 -0.38317632541E+02  0.21908583925E+02  0.46142317766E+02  0.10000000044E+02 0.  0.
         12    1    1    2    0    0 -0.89936908333E+01  0.38317632541E+02 -0.21908583925E+02  0.45045682234E+02  0.00000000000E+00 0. -1.
         11    1    3    3    0    0  0.19822880278E+01 -0.12017104042E+02  0.11285866738E+02  0.16604548885E+02  0.51100000000E-03 0. -1.
        -11    1    3    3    0    0  0.16023742220E+01 -0.47201155961E+01  0.25102945183E+00  0.49910029487E+01  0.51100000000E-03 0.  1.
        -12    1    3    3    0    0  0.54090285836E+01 -0.21580412902E+02  0.10371687735E+02  0.24546765932E+02  0.00000000000E+00 0.  1.
</event>
<event>
 7    1  0.3086024E-009  0.4614232E+02  0.7816164E-02  0.1320468E+00
        -11   -1    0    0    0    0  0.00000000000E+00  0.00000000000E+00  0.45593999997E+02  0.45594000000E+02  0.51100000000E-03 0.  1.
         11   -1    0    0    0    0 -0.00000000000E+00 -0.00000000000E+00 -0.45593999997E+02  0.45594000000E+02  0.51100000000E-03 0. -1.
    9900012    2    1    2    0    0 -0.50979861725E+01  0.14503757951E+02  0.42341055688E+02  0.46142318137E+02  0.10000003429E+02 0.  0.
         12    1    1    2    0    0  0.50979861725E+01 -0.14503757951E+02 -0.42341055688E+02  0.45045681863E+02  0.00000000000E+00 0. -1.
         11    1    3    3    0    0  0.21042178366E+01  0.23775422017E+01  0.94151644373E+01  0.99360837994E+01  0.51100000000E-03 0.  1.
        -11    1    3    3    0    0 -0.43354492016E+01  0.10995401704E+02  0.23783584048E+02  0.26558498618E+02  0.51100000000E-03 0. -1.
         12    1    3    3    0    0 -0.28667548075E+01  0.11308140453E+01  0.91423072030E+01  0.96477357201E+01  0.00000000000E+00 0. -1.
</event>
<event>
 7    1  0.3086024E-009  0.4614232E+02  0.7816164E-02  0.1320468E+00
        -11   -1    0    0    0    0  0.00000000000E+00  0.00000000000E+00  0.45593999997E+02  0.45594000000E+02  0.51100000000E-03 0. -1.
         11   -1    0    0    0    0 -0.00000000000E+00 -0.00000000000E+00 -0.45593999997E+02  0.45594000000E+02  0.51100000000E-03 0.  1.
    9900012    2    1    2    0    0 -0.30844956553E+01 -0.43352603209E+02 -0.11838547644E+02  0.46142317312E+02  0.99999959060E+01 0.  0.
         12    1    1    2    0    0  0.30844956553E+01  0.43352603209E+02  0.11838547644E+02  0.45045682688E+02  0.00000000000E+00 0. -1.
         11    1    3    3    0    0 -0.74006911812E+00 -0.31855107311E+01  0.61766946057E+00  0.33281671744E+01  0.51100000000E-03 0. -1.
        -11    1    3    3    0    0  0.94148563187E+00 -0.37426317499E+01  0.74812607626E+00  0.39310787956E+01  0.51100000000E-03 0.  1.
        -12    1    3    3    0    0 -0.32859121691E+01 -0.36424460728E+02 -0.13204343181E+02  0.38883071342E+02  0.00000000000E+00 0.  1.
</event>
<event>
 7    1  0.3086024E-009  0.4614232E+02  0.7816164E-02  0.1320468E+00
        -11   -1    0    0    0    0  0.00000000000E+00  0.00000000000E+00  0.45593999997E+02  0.45594000000E+02  0.51100000000E-03 0.  1.
         11   -1    0    0    0    0 -0.00000000000E+00 -0.00000000000E+00 -0.45593999997E+02  0.45594000000E+02  0.51100000000E-03 0. -1.
    9900012    2    1    2    0    0 -0.18892160271E+02  0.33526372442E+02  0.23413289205E+02  0.46142317851E+02  0.10000000821E+02 0.  0.
         12    1    1    2    0    0  0.18892160271E+02 -0.33526372442E+02 -0.23413289205E+02  0.45045682149E+02  0.00000000000E+00 0. -1.
         11    1    3    3    0    0 -0.30520529814E+01  0.35872260536E+01  0.17550583498E+00  0.47131752270E+01  0.51100000000E-03 0. -1.
        -11    1    3    3    0    0 -0.29680274255E+01  0.26903594820E+01  0.15276616297E+01  0.42873034949E+01  0.51100000000E-03 0.  1.
         12    1    3    3    0    0 -0.12872079864E+02  0.27248786907E+02  0.21710121741E+02  0.37141839129E+02  0.00000000000E+00 0. -1.
</event>
<event>
 7    1  0.3086024E-009  0.4614232E+02  0.7816164E-02  0.1320468E+00
        -11   -1    0    0    0    0  0.00000000000E+00  0.00000000000E+00  0.45593999997E+02  0.45594000000E+02  0.51100000000E-03 0.  1.
         11   -1    0    0    0    0 -0.00000000000E+00 -0.00000000000E+00 -0.45593999997E+02  0.45594000000E+02  0.51100000000E-03 0. -1.
    9900012    2    1    2    0    0 -0.43696716604E+02 -0.10688019596E+02  0.23402303237E+01  0.46142317823E+02  0.10000000565E+02 0.  0.
         12    1    1    2    0    0  0.43696716604E+02  0.10688019596E+02 -0.23402303237E+01  0.45045682177E+02  0.00000000000E+00 0. -1.
         11    1    3    3    0    0 -0.18407857996E+01  0.54747418929E+00  0.74981920822E-01  0.19219372772E+01  0.51100000000E-03 0. -1.
        -11    1    3    3    0    0 -0.35382987686E+02 -0.10527828705E+02 -0.10136440213E+01  0.36929912933E+02  0.51100000000E-03 0.  1.
        -12    1    3    3    0    0 -0.64729431184E+01 -0.70766508036E+00  0.32788924243E+01  0.72904676126E+01  0.00000000000E+00 0.  1.
</event>
<event>
 7    1  0.3086024E-009  0.4614232E+02  0.7816164E-02  0.1320468E+00
        -11   -1    0    0    0    0  0.00000000000E+00  0.00000000000E+00  0.45593999997E+02  0.45594000000E+02  0.51100000000E-03 0.  1.
         11   -1    0    0    0    0 -0.00000000000E+00 -0.00000000000E+00 -0.45593999997E+02  0.45594000000E+02  0.51100000000E-03 0. -1.
    9900012    2    1    2    0    0  0.18514777179E+02 -0.38179761881E+02  0.15120261221E+02  0.46142317735E+02  0.99999997663E+01 0.  0.
         12    1    1    2    0    0 -0.18514777179E+02  0.38179761881E+02 -0.15120261221E+02  0.45045682265E+02  0.00000000000E+00 0. -1.
         11    1    3    3    0    0  0.44420141527E+01 -0.65844019036E+01  0.22967539701E+01  0.82680661113E+01  0.51100000000E-03 0. -1.
        -11    1    3    3    0    0  0.15205684087E+02 -0.30209536918E+02  0.12492006985E+02  0.36053837356E+02  0.51100000000E-03 0.  1.
        -12    1    3    3    0    0 -0.11329210601E+01 -0.13858230597E+01  0.33150026613E+00  0.18204142681E+01  0.00000000000E+00 0.  1.
</event>
<event>
 7    1  0.3086024E-009  0.4614232E+02  0.7816164E-02  0.1320468E+00
        -11   -1    0    0    0    0  0.00000000000E+00  0.00000000000E+00  0.45593999997E+02  0.45594000000E+02  0.51100000000E-03 0.  1.
         11   -1    0    0    0    0 -0.00000000000E+00 -0.00000000000E+00 -0.45593999997E+02  0.45594000000E+02  0.51100000000E-03 0. -1.
    9900012    2    1    2    0    0 -0.38603160262E+02  0.20252107623E+02  0.11347318376E+02  0.46142317857E+02  0.10000000877E+02 0.  0.
         12    1    1    2    0    0  0.38603160262E+02 -0.20252107623E+02 -0.11347318376E+02  0.45045682143E+02  0.00000000000E+00 0. -1.
         11    1    3    3    0    0 -0.80565928015E+01  0.36627946581E+01  0.11910180915E+01  0.89299091054E+01  0.51100000000E-03 0.  1.
        -11    1    3    3    0    0 -0.16927916905E+02  0.44386493545E+01  0.59372539357E+01  0.18479907018E+02  0.51100000000E-03 0. -1.
         12    1    3    3    0    0 -0.13618650556E+02  0.12150663610E+02  0.42190463485E+01  0.18732501734E+02  0.00000000000E+00 0. -1.
</event>
<event>
 7    1  0.3086024E-009  0.4614232E+02  0.7816164E-02  0.1320468E+00
        -11   -1    0    0    0    0  0.00000000000E+00  0.00000000000E+00  0.45593999997E+02  0.45594000000E+02  0.51100000000E-03 0.  1.
         11   -1    0    0    0    0 -0.00000000000E+00 -0.00000000000E+00 -0.45593999997E+02  0.45594000000E+02  0.51100000000E-03 0. -1.
    9900012    2    1    2    0    0 -0.25341558288E+02 -0.36415075994E+02  0.78013574821E+01  0.46142317469E+02  0.99999973320E+01 0.  0.
         12    1    1    2    0    0  0.25341558288E+02  0.36415075994E+02 -0.78013574821E+01  0.45045682531E+02  0.00000000000E+00 0. -1.
         11    1    3    3    0    0 -0.13027040850E+02 -0.13800342888E+02  0.11756314910E+01  0.19014083380E+02  0.51100000000E-03 0. -1.
        -11    1    3    3    0    0 -0.79231364832E+01 -0.13361799112E+02  0.13115670158E+01  0.15589546996E+02  0.51100000000E-03 0.  1.
         12    1    3    3    0    0 -0.43913809555E+01 -0.92529339946E+01  0.53141589754E+01  0.11538687093E+02  0.00000000000E+00 0. -1.
</event>
<event>
 7    1  0.3086024E-009  0.4614232E+02  0.7816164E-02  0.1320468E+00
        -11   -1    0    0    0    0  0.00000000000E+00  0.00000000000E+00  0.45593999997E+02  0.45594000000E+02  0.51100000000E-03 0.  1.
         11   -1    0    0    0    0 -0.00000000000E+00 -0.00000000000E+00 -0.45593999997E+02  0.45594000000E+02  0.51100000000E-03 0. -1.
    9900012    2    1    2    0    0 -0.12944575226E+02 -0.45286209217E+01  0.42907377627E+02  0.46142317742E+02  0.99999998268E+01 0.  0.
         12    1    1    2    0    0  0.12944575226E+02  0.45286209217E+01 -0.42907377627E+02  0.45045682258E+02  0.00000000000E+00 0. -1.
         11    1    3    3    0    0 -0.15882416710E+01  0.59751094669E+00  0.25239469106E+01  0.30413548306E+01  0.51100000000E-03 0. -1.
        -11    1    3    3    0    0  0.67049139096E-01 -0.30172699760E+01  0.48053111355E+01  0.56744540764E+01  0.51100000000E-03 0.  1.
        -12    1    3    3    0    0 -0.11423382694E+02 -0.21088618924E+01  0.35578119581E+02  0.37426508835E+02  0.00000000000E+00 0.  1.
</event>
<event>
 7    1  0.3086024E-009  0.4614232E+02  0.7816164E-02  0.1320468E+00
        -11   -1    0    0    0    0  0.00000000000E+00  0.00000000000E+00  0.45593999997E+02  0.45594000000E+02  0.51100000000E-03 0.  1.
         11   -1    0    0    0    0 -0.00000000000E+00 -0.00000000000E+00 -0.45593999997E+02  0.45594000000E+02  0.51100000000E-03 0. -1.
    9900012    2    1    2    0    0  0.59021281351E+00 -0.49028729427E+01  0.44774177632E+02  0.46142317667E+02  0.99999991413E+01 0.  0.
         12    1    1    2    0    0 -0.59021281351E+00  0.49028729427E+01 -0.44774177632E+02  0.45045682333E+02  0.00000000000E+00 0. -1.
         11    1    3    3    0    0  0.79935119249E+00 -0.25055669008E+01  0.97745981885E+01  0.10122232848E+02  0.51100000000E-03 0. -1.
        -11    1    3    3    0    0 -0.35778105658E+01  0.97164782918E+00  0.17103770567E+02  0.17500965568E+02  0.51100000000E-03 0.  1.
        -12    1    3    3    0    0  0.33686721868E+01 -0.33689538711E+01  0.17895808876E+02  0.18519119250E+02  0.00000000000E+00 0.  1.
</event>
<event>
 7    1  0.3086024E-009  0.4614232E+02  0.7816164E-02  0.1320468E+00
        -11   -1    0    0    0    0  0.00000000000E+00  0.00000000000E+00  0.45593999997E+02  0.45594000000E+02  0.51100000000E-03 0. -1.
         11   -1    0    0    0    0 -0.00000000000E+00 -0.00000000000E+00 -0.45593999997E+02  0.45594000000E+02  0.51100000000E-03 0.  1.
    9900012    2    1    2    0    0 -0.11376336528E+02  0.14236953403E+02 -0.41194679325E+02  0.46142317857E+02  0.10000000877E+02 0.  0.
         12    1    1    2    0    0  0.11376336528E+02 -0.14236953403E+02  0.41194679325E+02  0.45045682143E+02  0.00000000000E+00 0. -1.
         11    1    3    3    0    0 -0.11353676450E+00  0.25885560176E+00 -0.21887384416E+01  0.22069148254E+01  0.51100000000E-03 0. -1.
        -11    1    3    3    0    0 -0.28886335487E+01 -0.52043662035E+00 -0.28513225994E+01  0.40920775753E+01  0.51100000000E-03 0.  1.
        -12    1    3    3    0    0 -0.83741662147E+01  0.14498534422E+02 -0.36154618284E+02  0.39843325457E+02  0.00000000000E+00 0.  1.
</event>
<event>
 7    1  0.3086024E-009  0.4614232E+02  0.7816164E-02  0.1320468E+00
        -11   -1    0    0    0    0  0.00000000000E+00  0.00000000000E+00  0.45593999997E+02  0.45594000000E+02  0.51100000000E-03 0.  1.
         11   -1    0    0    0    0 -0.00000000000E+00 -0.00000000000E+00 -0.45593999997E+02  0.45594000000E+02  0.51100000000E-03 0. -1.
    9900012    2    1    2    0    0  0.12952238729E+02  0.40240696621E+02  0.15557613270E+02  0.46142317817E+02  0.10000000513E+02 0.  0.
         12    1    1    2    0    0 -0.12952238729E+02 -0.40240696621E+02 -0.15557613270E+02  0.45045682183E+02  0.00000000000E+00 0. -1.
         11    1    3    3    0    0 -0.22484975582E+00  0.30899887897E+01 -0.72904980019E+00  0.31827821172E+01  0.51100000000E-03 0. -1.
        -11    1    3    3    0    0  0.91213446112E+01  0.21805005048E+02  0.12054499501E+02  0.26532397765E+02  0.51100000000E-03 0.  1.
         12    1    3    3    0    0  0.40557438741E+01  0.15345702783E+02  0.42321635694E+01  0.16427137935E+02  0.00000000000E+00 0. -1.
</event>
<event>
 7    1  0.3086024E-009  0.4614232E+02  0.7816164E-02  0.1320468E+00
        -11   -1    0    0    0    0  0.00000000000E+00  0.00000000000E+00  0.45593999997E+02  0.45594000000E+02  0.51100000000E-03 0. -1.
         11   -1    0    0    0    0 -0.00000000000E+00 -0.00000000000E+00 -0.45593999997E+02  0.45594000000E+02  0.51100000000E-03 0.  1.
    9900012    2    1    2    0    0 -0.38366604279E+02  0.23438173971E+02  0.27873282184E+01  0.46142317393E+02  0.99999966403E+01 0.  0.
         12    1    1    2    0    0  0.38366604279E+02 -0.23438173971E+02 -0.27873282184E+01  0.45045682607E+02  0.00000000000E+00 0. -1.
         11    1    3    3    0    0 -0.12569127716E+02  0.51380699812E+01 -0.12168648260E+00  0.13579305672E+02  0.51100000000E-03 0. -1.
        -11    1    3    3    0    0 -0.54307847851E+01  0.49034923279E+01 -0.22306541398E+01  0.76494103396E+01  0.51100000000E-03 0.  1.
        -12    1    3    3    0    0 -0.20366691777E+02  0.13396611662E+02  0.51396688408E+01  0.24913601381E+02  0.00000000000E+00 0.  1.
</event>
<event>
 7    1  0.3086024E-009  0.4614232E+02  0.7816164E-02  0.1320468E+00
        -11   -1    0    0    0    0  0.00000000000E+00  0.00000000000E+00  0.45593999997E+02  0.45594000000E+02  0.51100000000E-03 0.  1.
         11   -1    0    0    0    0 -0.00000000000E+00 -0.00000000000E+00 -0.45593999997E+02  0.45594000000E+02  0.51100000000E-03 0. -1.
    9900012    2    1    2    0    0  0.42772825357E+02 -0.12224797888E+02 -0.70818901580E+01  0.46142318291E+02  0.10000004834E+02 0.  0.
         12    1    1    2    0    0 -0.42772825357E+02  0.12224797888E+02  0.70818901580E+01  0.45045681709E+02  0.00000000000E+00 0. -1.
         11    1    3    3    0    0  0.37075207862E+01 -0.50016699378E-01 -0.43174375924E+00  0.37329097210E+01  0.51100000000E-03 0. -1.
        -11    1    3    3    0    0  0.16371040974E+01  0.25553692390E-01 -0.22716372272E+01  0.28001962020E+01  0.51100000000E-03 0.  1.
        -12    1    3    3    0    0  0.37428200473E+02 -0.12200334881E+02 -0.43785091717E+01  0.39609212368E+02  0.00000000000E+00 0.  1.
</event>
<event>
 7    1  0.3086024E-009  0.4614232E+02  0.7816164E-02  0.1320468E+00
        -11   -1    0    0    0    0  0.00000000000E+00  0.00000000000E+00  0.45593999997E+02  0.45594000000E+02  0.51100000000E-03 0.  1.
         11   -1    0    0    0    0 -0.00000000000E+00 -0.00000000000E+00 -0.45593999997E+02  0.45594000000E+02  0.51100000000E-03 0. -1.
    9900012    2    1    2    0    0 -0.40052042482E+02 -0.18081168026E+02 -0.99004428126E+01  0.46142317498E+02  0.99999976006E+01 0.  0.
         12    1    1    2    0    0  0.40052042482E+02  0.18081168026E+02  0.99004428126E+01  0.45045682502E+02  0.00000000000E+00 0. -1.
         11    1    3    3    0    0 -0.25407407481E+02 -0.12004954931E+02 -0.83832121412E+01  0.29324623507E+02  0.51100000000E-03 0. -1.
        -11    1    3    3    0    0 -0.14726688616E+02 -0.50539099076E+01 -0.84752221427E+00  0.15592807865E+02  0.51100000000E-03 0.  1.
         12    1    3    3    0    0  0.82053614637E-01 -0.10223031877E+01 -0.66970845706E+00  0.12248861256E+01  0.00000000000E+00 0. -1.
</event>
<event>
 7    1  0.3086024E-009  0.4614232E+02  0.7816164E-02  0.1320468E+00
        -11   -1    0    0    0    0  0.00000000000E+00  0.00000000000E+00  0.45593999997E+02  0.45594000000E+02  0.51100000000E-03 0. -1.
         11   -1    0    0    0    0 -0.00000000000E+00 -0.00000000000E+00 -0.45593999997E+02  0.45594000000E+02  0.51100000000E-03 0.  1.
    9900012    2    1    2    0    0 -0.34788437976E+02 -0.13640308508E+02 -0.25155915031E+02  0.46142317698E+02  0.99999994231E+01 0.  0.
         12    1    1    2    0    0  0.34788437976E+02  0.13640308508E+02  0.25155915031E+02  0.45045682302E+02  0.00000000000E+00 0. -1.
         11    1    3    3    0    0 -0.23520587914E+01  0.50836102917E-01 -0.88921264606E+00  0.25150475659E+01  0.51100000000E-03 0. -1.
        -11    1    3    3    0    0 -0.12832714967E+02 -0.25670631021E+01 -0.12929360958E+02  0.18396650821E+02  0.51100000000E-03 0.  1.
        -12    1    3    3    0    0 -0.19603664217E+02 -0.11124081509E+02 -0.11337341427E+02  0.25230619311E+02  0.00000000000E+00 0.  1.
</event>
<event>
 7    1  0.3086024E-009  0.4614232E+02  0.7816164E-02  0.1320468E+00
        -11   -1    0    0    0    0  0.00000000000E+00  0.00000000000E+00  0.45593999997E+02  0.45594000000E+02  0.51100000000E-03 0. -1.
         11   -1    0    0    0    0 -0.00000000000E+00 -0.00000000000E+00 -0.45593999997E+02  0.45594000000E+02  0.51100000000E-03 0.  1.
    9900012    2    1    2    0    0 -0.39937252500E+01 -0.21428540868E+02 -0.39420568899E+02  0.46142318104E+02  0.10000003131E+02 0.  0.
         12    1    1    2    0    0  0.39937252500E+01  0.21428540868E+02  0.39420568899E+02  0.45045681896E+02  0.00000000000E+00 0. -1.
         11    1    3    3    0    0 -0.22776820580E+01 -0.23552103050E+01 -0.70865382283E+01  0.78072962965E+01  0.51100000000E-03 0. -1.
        -11    1    3    3    0    0  0.76327116678E+00 -0.17734958988E+02 -0.27234255189E+02  0.32508706666E+02  0.51100000000E-03 0.  1.
        -12    1    3    3    0    0 -0.24793143588E+01 -0.13383715752E+01 -0.50997754822E+01  0.58263151418E+01  0.00000000000E+00 0.  1.
</event>
<event>
 7    1  0.3086024E-009  0.4614232E+02  0.7816164E-02  0.1320468E+00
        -11   -1    0    0    0    0  0.00000000000E+00  0.00000000000E+00  0.45593999997E+02  0.45594000000E+02  0.51100000000E-03 0.  1.
         11   -1    0    0    0    0 -0.00000000000E+00 -0.00000000000E+00 -0.45593999997E+02  0.45594000000E+02  0.51100000000E-03 0. -1.
    9900012    2    1    2    0    0  0.28991033017E+02 -0.10006216229E+02  0.32992559484E+02  0.46142319409E+02  0.10000015025E+02 0.  0.
         12    1    1    2    0    0 -0.28991033017E+02  0.10006216229E+02 -0.32992559484E+02  0.45045680591E+02  0.00000000000E+00 0. -1.
         11    1    3    3    0    0  0.16929801316E+01  0.37897808372E-01  0.55113453885E+01  0.57656349366E+01  0.51100000000E-03 0. -1.
        -11    1    3    3    0    0  0.12386996328E+02 -0.58247062230E+01  0.96227501674E+01  0.16732071051E+02  0.51100000000E-03 0.  1.
        -12    1    3    3    0    0  0.14911056557E+02 -0.42194078141E+01  0.17858463929E+02  0.23644613421E+02  0.00000000000E+00 0.  1.
</event>
<event>
 7    1  0.3086024E-009  0.4614232E+02  0.7816164E-02  0.1320468E+00
        -11   -1    0    0    0    0  0.00000000000E+00  0.00000000000E+00  0.45593999997E+02  0.45594000000E+02  0.51100000000E-03 0.  1.
         11   -1    0    0    0    0 -0.00000000000E+00 -0.00000000000E+00 -0.45593999997E+02  0.45594000000E+02  0.51100000000E-03 0. -1.
    9900012    2    1    2    0    0 -0.19018910904E+02  0.24203309518E+02  0.32887601465E+02  0.46142317701E+02  0.99999994559E+01 0.  0.
         12    1    1    2    0    0  0.19018910904E+02 -0.24203309518E+02 -0.32887601465E+02  0.45045682299E+02  0.00000000000E+00 0. -1.
         11    1    3    3    0    0 -0.32242450873E+01  0.93325187793E+01  0.86519388701E+01  0.13128126661E+02  0.51100000000E-03 0. -1.
        -11    1    3    3    0    0 -0.14659164815E+02  0.14912922061E+02  0.21222837943E+02  0.29794214339E+02  0.51100000000E-03 0.  1.
        -12    1    3    3    0    0 -0.11355010019E+01 -0.42131322237E-01  0.30128246525E+01  0.32199767018E+01  0.00000000000E+00 0.  1.
</event>
<event>
 7    1  0.3086024E-009  0.4614232E+02  0.7816164E-02  0.1320468E+00
        -11   -1    0    0    0    0  0.00000000000E+00  0.00000000000E+00  0.45593999997E+02  0.45594000000E+02  0.51100000000E-03 0. -1.
         11   -1    0    0    0    0 -0.00000000000E+00 -0.00000000000E+00 -0.45593999997E+02  0.45594000000E+02  0.51100000000E-03 0.  1.
    9900012    2    1    2    0    0  0.36757525884E+02  0.66509436177E+01 -0.25174643619E+02  0.46142318282E+02  0.10000004749E+02 0.  0.
         12    1    1    2    0    0 -0.36757525884E+02 -0.66509436177E+01  0.25174643619E+02  0.45045681718E+02  0.00000000000E+00 0. -1.
         11    1    3    3    0    0  0.28956471826E+02  0.58678196318E+01 -0.19425651023E+02  0.35359079255E+02  0.51100000000E-03 0. -1.
        -11    1    3    3    0    0  0.83576370300E+01  0.10752214376E+01 -0.56538066598E+01  0.10147498602E+02  0.51100000000E-03 0.  1.
         12    1    3    3    0    0 -0.55658297203E+00 -0.29209745176E+00 -0.95185936870E-01  0.63574042553E+00  0.00000000000E+00 0. -1.
</event>
<event>
 7    1  0.3086024E-009  0.4614231E+02  0.7816164E-02  0.1320468E+00
        -11   -1    0    0    0    0  0.00000000000E+00  0.00000000000E+00  0.45593999997E+02  0.45594000000E+02  0.51100000000E-03 0.  1.
         11   -1    0    0    0    0 -0.00000000000E+00 -0.00000000000E+00 -0.45593999997E+02  0.45594000000E+02  0.51100000000E-03 0. -1.
    9900012    2    1    2    0    0 -0.94508758732E+01 -0.38312166414E+02  0.21724934130E+02  0.46142313047E+02  0.99999570102E+01 0.  0.
         12    1    1    2    0    0  0.94508758732E+01  0.38312166414E+02 -0.21724934130E+02  0.45045686953E+02  0.00000000000E+00 0. -1.
         11    1    3    3    0    0 -0.23744433326E+01 -0.28266893822E+01  0.32257059548E+01  0.49023803576E+01  0.51100000000E-03 0. -1.
        -11    1    3    3    0    0  0.55982468690E+00 -0.13068071349E+02  0.80172683668E+01  0.15341593294E+02  0.51100000000E-03 0.  1.
        -12    1    3    3    0    0 -0.76362572276E+01 -0.22417405683E+02  0.10481959808E+02  0.25898339395E+02  0.00000000000E+00 0.  1.
</event>
<event>
 7    1  0.3086024E-009  0.4614231E+02  0.7816164E-02  0.1320468E+00
        -11   -1    0    0    0    0  0.00000000000E+00  0.00000000000E+00  0.45593999997E+02  0.45594000000E+02  0.51100000000E-03 0. -1.
         11   -1    0    0    0    0 -0.00000000000E+00 -0.00000000000E+00 -0.45593999997E+02  0.45594000000E+02  0.51100000000E-03 0.  1.
    9900012    2    1    2    0    0  0.12618770973E+02  0.34878556058E+02 -0.25561041170E+02  0.46142313422E+02  0.99999604333E+01 0.  0.
         12    1    1    2    0    0 -0.12618770973E+02 -0.34878556058E+02  0.25561041170E+02  0.45045686578E+02  0.00000000000E+00 0. -1.
         11    1    3    3    0    0  0.69088642588E-01  0.26827784400E+01 -0.33154006838E+01  0.42654372993E+01  0.51100000000E-03 0. -1.
        -11    1    3    3    0    0  0.97388092389E+01  0.30851130897E+02 -0.19977568029E+02  0.38022886630E+02  0.51100000000E-03 0.  1.
        -12    1    3    3    0    0  0.28108730919E+01  0.13446467208E+01 -0.22680724571E+01  0.38539894931E+01  0.00000000000E+00 0.  1.
</event>
<event>
 7    1  0.3086024E-009  0.4614232E+02  0.7816164E-02  0.1320468E+00
        -11   -1    0    0    0    0  0.00000000000E+00  0.00000000000E+00  0.45593999997E+02  0.45594000000E+02  0.51100000000E-03 0.  1.
         11   -1    0    0    0    0 -0.00000000000E+00 -0.00000000000E+00 -0.45593999997E+02  0.45594000000E+02  0.51100000000E-03 0. -1.
    9900012    2    1    2    0    0 -0.15614870308E+01 -0.10246760390E+02  0.43836960772E+02  0.46142317966E+02  0.10000001865E+02 0.  0.
         12    1    1    2    0    0  0.15614870308E+01  0.10246760390E+02 -0.43836960772E+02  0.45045682034E+02  0.00000000000E+00 0. -1.
         11    1    3    3    0    0  0.21227564015E+01 -0.68472662782E+01  0.17891210659E+02  0.19273986856E+02  0.51100000000E-03 0. -1.
        -11    1    3    3    0    0 -0.24049673552E+01 -0.44057203399E+01  0.15390155344E+02  0.16187993127E+02  0.51100000000E-03 0.  1.
         12    1    3    3    0    0 -0.12792760771E+01  0.10062262287E+01  0.10555594769E+02  0.10680337983E+02  0.00000000000E+00 0. -1.
</event>
<event>
 7    1  0.3086024E-009  0.4614232E+02  0.7816164E-02  0.1320468E+00
        -11   -1    0    0    0    0  0.00000000000E+00  0.00000000000E+00  0.45593999997E+02  0.45594000000E+02  0.51100000000E-03 0.  1.
         11   -1    0    0    0    0 -0.00000000000E+00 -0.00000000000E+00 -0.45593999997E+02  0.45594000000E+02  0.51100000000E-03 0. -1.
    9900012    2    1    2    0    0 -0.12585691611E+02 -0.29062204515E+02  0.32032832213E+02  0.46142315366E+02  0.99999781569E+01 0.  0.
         12    1    1    2    0    0  0.12585691611E+02  0.29062204515E+02 -0.32032832213E+02  0.45045684634E+02  0.00000000000E+00 0. -1.
         11    1    3    3    0    0 -0.12905151753E+01 -0.46950481278E+01  0.24759195002E+01  0.54625162675E+01  0.51100000000E-03 0. -1.
        -11    1    3    3    0    0 -0.12374826047E+02 -0.22123544122E+02  0.25772934916E+02  0.36150127229E+02  0.51100000000E-03 0.  1.
        -12    1    3    3    0    0  0.10796496111E+01 -0.22436122647E+01  0.37839777973E+01  0.45296718697E+01  0.00000000000E+00 0.  1.
</event>
<event>
 7    1  0.3086024E-009  0.4614232E+02  0.7816164E-02  0.1320468E+00
        -11   -1    0    0    0    0  0.00000000000E+00  0.00000000000E+00  0.45593999997E+02  0.45594000000E+02  0.51100000000E-03 0.  1.
         11   -1    0    0    0    0 -0.00000000000E+00 -0.00000000000E+00 -0.45593999997E+02  0.45594000000E+02  0.51100000000E-03 0. -1.
    9900012    2    1    2    0    0 -0.13424620055E+02 -0.13961896067E+02  0.40668888511E+02  0.46142318096E+02  0.10000003058E+02 0.  0.
         12    1    1    2    0    0  0.13424620055E+02  0.13961896067E+02 -0.40668888511E+02  0.45045681904E+02  0.00000000000E+00 0. -1.
         11    1    3    3    0    0 -0.45667781740E+01 -0.66004168036E+01  0.12794325269E+02  0.15103500396E+02  0.51100000000E-03 0. -1.
        -11    1    3    3    0    0 -0.49424741014E+00 -0.33544251577E+01  0.13599335804E+02  0.14015647799E+02  0.51100000000E-03 0.  1.
         12    1    3    3    0    0 -0.83635944712E+01 -0.40070541060E+01  0.14275227438E+02  0.17023169901E+02  0.00000000000E+00 0. -1.
</event>
<event>
 7    1  0.3086024E-009  0.4614232E+02  0.7816164E-02  0.1320468E+00
        -11   -1    0    0    0    0  0.00000000000E+00  0.00000000000E+00  0.45593999997E+02  0.45594000000E+02  0.51100000000E-03 0.  1.
         11   -1    0    0    0    0 -0.00000000000E+00 -0.00000000000E+00 -0.45593999997E+02  0.45594000000E+02  0.51100000000E-03 0. -1.
    9900012    2    1    2    0    0 -0.44814847689E+02  0.45532112565E+01 -0.10582252281E+00  0.46142317581E+02  0.99999983618E+01 0.  0.
         12    1    1    2    0    0  0.44814847689E+02 -0.45532112565E+01  0.10582252281E+00  0.45045682419E+02  0.00000000000E+00 0. -1.
         11    1    3    3    0    0 -0.18947042297E+02  0.10315406275E+01  0.45190743724E+01  0.19505807374E+02  0.51100000000E-03 0. -1.
        -11    1    3    3    0    0 -0.10181804986E+02  0.19266914727E+00 -0.13891680982E+01  0.10277940574E+02  0.51100000000E-03 0.  1.
         12    1    3    3    0    0 -0.15686000406E+02  0.33290014818E+01 -0.32357287970E+01  0.16358569633E+02  0.00000000000E+00 0. -1.
</event>
<event>
 7    1  0.3086024E-009  0.4614232E+02  0.7816164E-02  0.1320468E+00
        -11   -1    0    0    0    0  0.00000000000E+00  0.00000000000E+00  0.45593999997E+02  0.45594000000E+02  0.51100000000E-03 0.  1.
         11   -1    0    0    0    0 -0.00000000000E+00 -0.00000000000E+00 -0.45593999997E+02  0.45594000000E+02  0.51100000000E-03 0. -1.
    9900012    2    1    2    0    0 -0.41337564515E+02 -0.17365842538E+02 -0.43297743851E+01  0.46142315709E+02  0.99999812828E+01 0.  0.
         12    1    1    2    0    0  0.41337564515E+02  0.17365842538E+02  0.43297743851E+01  0.45045684291E+02  0.00000000000E+00 0. -1.
         11    1    3    3    0    0 -0.84453637970E+01 -0.19423019774E+01  0.18204279277E+01  0.88549796576E+01  0.51100000000E-03 0. -1.
        -11    1    3    3    0    0 -0.23746581703E+02 -0.11390252805E+02 -0.70128631503E+01  0.27254692282E+02  0.51100000000E-03 0.  1.
        -12    1    3    3    0    0 -0.91456190143E+01 -0.40332877553E+01  0.86266083749E+00  0.10032643769E+02  0.00000000000E+00 0.  1.
</event>
<event>
 7    1  0.3086024E-009  0.4614232E+02  0.7816164E-02  0.1320468E+00
        -11   -1    0    0    0    0  0.00000000000E+00  0.00000000000E+00  0.45593999997E+02  0.45594000000E+02  0.51100000000E-03 0. -1.
         11   -1    0    0    0    0 -0.00000000000E+00 -0.00000000000E+00 -0.45593999997E+02  0.45594000000E+02  0.51100000000E-03 0.  1.
    9900012    2    1    2    0    0 -0.32228354181E+02 -0.31386618984E+02  0.23080028665E+01  0.46142317169E+02  0.99999946049E+01 0.  0.
         12    1    1    2    0    0  0.32228354181E+02  0.31386618984E+02 -0.23080028665E+01  0.45045682831E+02  0.00000000000E+00 0. -1.
         11    1    3    3    0    0  0.44180391503E+00 -0.11050363311E+01  0.15595393924E+00  0.12002574243E+01  0.51100000000E-03 0. -1.
        -11    1    3    3    0    0 -0.27231585546E+02 -0.26492377733E+02  0.35835629648E+01  0.38160807815E+02  0.51100000000E-03 0.  1.
        -12    1    3    3    0    0 -0.54385725492E+01 -0.37892049196E+01 -0.14315140375E+01  0.67812519298E+01  0.00000000000E+00 0.  1.
</event>
<event>
 7    1  0.3086024E-009  0.4614232E+02  0.7816164E-02  0.1320468E+00
        -11   -1    0    0    0    0  0.00000000000E+00  0.00000000000E+00  0.45593999997E+02  0.45594000000E+02  0.51100000000E-03 0.  1.
         11   -1    0    0    0    0 -0.00000000000E+00 -0.00000000000E+00 -0.45593999997E+02  0.45594000000E+02  0.51100000000E-03 0. -1.
    9900012    2    1    2    0    0 -0.32357789482E+02 -0.18924854053E+02  0.24978727781E+02  0.46142317825E+02  0.10000000582E+02 0.  0.
         12    1    1    2    0    0  0.32357789482E+02  0.18924854053E+02 -0.24978727781E+02  0.45045682175E+02  0.00000000000E+00 0. -1.
         11    1    3    3    0    0 -0.82849612876E+01 -0.18779652366E+01  0.87976389385E+01  0.12229709241E+02  0.51100000000E-03 0. -1.
        -11    1    3    3    0    0 -0.15437093538E+02 -0.11919046616E+02  0.12742870806E+02  0.23296958724E+02  0.51100000000E-03 0.  1.
         12    1    3    3    0    0 -0.86357346568E+01 -0.51278422000E+01  0.34382180360E+01  0.10615649860E+02  0.00000000000E+00 0. -1.
</event>
<event>
 7    1  0.3086024E-009  0.4614232E+02  0.7816164E-02  0.1320468E+00
        -11   -1    0    0    0    0  0.00000000000E+00  0.00000000000E+00  0.45593999997E+02  0.45594000000E+02  0.51100000000E-03 0.  1.
         11   -1    0    0    0    0 -0.00000000000E+00 -0.00000000000E+00 -0.45593999997E+02  0.45594000000E+02  0.51100000000E-03 0. -1.
    9900012    2    1    2    0    0 -0.21835865076E+01  0.10294151104E+02  0.43799268737E+02  0.46142317200E+02  0.99999948843E+01 0.  0.
         12    1    1    2    0    0  0.21835865076E+01 -0.10294151104E+02 -0.43799268737E+02  0.45045682800E+02  0.00000000000E+00 0. -1.
         11    1    3    3    0    0  0.21353954214E+01  0.14158827335E+01  0.46659178057E+01  0.53231031129E+01  0.51100000000E-03 0. -1.
        -11    1    3    3    0    0 -0.25787943775E+01  0.74544136356E+01  0.36563164688E+02  0.37404324287E+02  0.51100000000E-03 0.  1.
        -12    1    3    3    0    0 -0.17401875516E+01  0.14238547350E+01  0.25701862434E+01  0.34148898001E+01  0.00000000000E+00 0.  1.
</event>
<event>
 7    1  0.3086024E-009  0.4614232E+02  0.7816164E-02  0.1320468E+00
        -11   -1    0    0    0    0  0.00000000000E+00  0.00000000000E+00  0.45593999997E+02  0.45594000000E+02  0.51100000000E-03 0. -1.
         11   -1    0    0    0    0 -0.00000000000E+00 -0.00000000000E+00 -0.45593999997E+02  0.45594000000E+02  0.51100000000E-03 0.  1.
    9900012    2    1    2    0    0 -0.80658167787E+01 -0.28194150941E+02 -0.34192776196E+02  0.46142317725E+02  0.99999996749E+01 0.  0.
         12    1    1    2    0    0  0.80658167787E+01  0.28194150941E+02  0.34192776196E+02  0.45045682275E+02  0.00000000000E+00 0. -1.
         11    1    3    3    0    0 -0.28792427133E+01 -0.15879625243E+02 -0.23532397709E+02  0.28534650491E+02  0.51100000000E-03 0.  1.
        -11    1    3    3    0    0 -0.28047158205E+01 -0.20442382416E+01 -0.25921239781E+01  0.43317949861E+01  0.51100000000E-03 0. -1.
         12    1    3    3    0    0 -0.23818582450E+01 -0.10270287456E+02 -0.80682545093E+01  0.13275872248E+02  0.00000000000E+00 0. -1.
</event>
<event>
 7    1  0.3086024E-009  0.4614232E+02  0.7816164E-02  0.1320468E+00
        -11   -1    0    0    0    0  0.00000000000E+00  0.00000000000E+00  0.45593999997E+02  0.45594000000E+02  0.51100000000E-03 0.  1.
         11   -1    0    0    0    0 -0.00000000000E+00 -0.00000000000E+00 -0.45593999997E+02  0.45594000000E+02  0.51100000000E-03 0. -1.
    9900012    2    1    2    0    0  0.39721624985E+01  0.34397608823E+02  0.28812148388E+02  0.46142318049E+02  0.10000002625E+02 0.  0.
         12    1    1    2    0    0 -0.39721624985E+01 -0.34397608823E+02 -0.28812148388E+02  0.45045681951E+02  0.00000000000E+00 0. -1.
         11    1    3    3    0    0  0.60200943270E+01  0.20300493183E+02  0.20922226132E+02  0.29767282472E+02  0.51100000000E-03 0. -1.
        -11    1    3    3    0    0 -0.12928425006E+01  0.62896645649E+01  0.44356223645E+01  0.78042339849E+01  0.51100000000E-03 0.  1.
         12    1    3    3    0    0 -0.75508932788E+00  0.78074510756E+01  0.34542998919E+01  0.85708015923E+01  0.00000000000E+00 0. -1.
</event>
