<event>
 7    1  0.7444241E-013  0.5930195E+02  0.7816164E-02  0.1266605E+00
        -11   -1    0    0    0    0  0.00000000000E+00  0.00000000000E+00  0.45593999997E+02  0.45594000000E+02  0.51100000000E-03 0.  1.
         11   -1    0    0    0    0 -0.00000000000E+00 -0.00000000000E+00 -0.45593999997E+02  0.45594000000E+02  0.51100000000E-03 0. -1.
    9900012    2    1    2    0    0 -0.66288734464E+01 -0.99914036269E+01 -0.29545733681E+02  0.59301945237E+02  0.50000002205E+02 0.  0.
        -12    1    1    2    0    0  0.66288734464E+01  0.99914036269E+01  0.29545733681E+02  0.31886054763E+02  0.00000000000E+00 0.  1.
         11    1    3    3    0    0 -0.46929693208E+01 -0.19548405687E+02  0.67895143071E+01  0.21219369235E+02  0.51100000000E-03 0. -1.
        -11    1    3    3    0    0  0.18429672823E+01  0.13902646864E+01 -0.56020445449E+01  0.60590649152E+01  0.51100000000E-03 0.  1.
        -12    1    3    3    0    0 -0.37788714079E+01  0.81667373734E+01 -0.30733203443E+02  0.32023511087E+02  0.00000000000E+00 0.  1.
</event>
<event>
 7    1  0.7444241E-013  0.5930195E+02  0.7816164E-02  0.1266605E+00
        -11   -1    0    0    0    0  0.00000000000E+00  0.00000000000E+00  0.45593999997E+02  0.45594000000E+02  0.51100000000E-03 0.  1.
         11   -1    0    0    0    0 -0.00000000000E+00 -0.00000000000E+00 -0.45593999997E+02  0.45594000000E+02  0.51100000000E-03 0. -1.
    9900012    2    1    2    0    0  0.10412914417E+02  0.54582572760E+01 -0.29639477310E+02  0.59301953297E+02  0.50000016905E+02 0.  0.
        -12    1    1    2    0    0 -0.10412914417E+02 -0.54582572760E+01  0.29639477310E+02  0.31886046703E+02  0.00000000000E+00 0.  1.
         11    1    3    3    0    0  0.61412265238E+01  0.13660918883E+02 -0.19824145910E+02  0.24846169308E+02  0.51100000000E-03 0. -1.
        -11    1    3    3    0    0  0.17831916366E+02 -0.66185117214E+01 -0.81829226562E+01  0.20706089978E+02  0.51100000000E-03 0.  1.
        -12    1    3    3    0    0 -0.13560228473E+02 -0.15841498860E+01 -0.16324087442E+01  0.13749694012E+02  0.00000000000E+00 0.  1.
</event>
<event>
 7    1  0.7444241E-013  0.5930195E+02  0.7816164E-02  0.1266605E+00
        -11   -1    0    0    0    0  0.00000000000E+00  0.00000000000E+00  0.45593999997E+02  0.45594000000E+02  0.51100000000E-03 0.  1.
         11   -1    0    0    0    0 -0.00000000000E+00 -0.00000000000E+00 -0.45593999997E+02  0.45594000000E+02  0.51100000000E-03 0. -1.
    9900012    2    1    2    0    0  0.26599907448E+02 -0.70688447339E+01 -0.16099575875E+02  0.59301953122E+02  0.50000016586E+02 0.  0.
        -12    1    1    2    0    0 -0.26599907448E+02  0.70688447339E+01  0.16099575875E+02  0.31886046878E+02  0.00000000000E+00 0.  1.
         11    1    3    3    0    0  0.55607348720E+01  0.11698430026E+01 -0.49226802439E+01  0.75181836910E+01  0.51100000000E-03 0. -1.
        -11    1    3    3    0    0  0.11558731767E+02  0.42346303005E+01 -0.26902803752E+02  0.29585422488E+02  0.51100000000E-03 0.  1.
         12    1    3    3    0    0  0.94804408091E+01 -0.12473318037E+02  0.15725908120E+02  0.22198346943E+02  0.00000000000E+00 0. -1.
</event>
<event>
 7    1  0.7444241E-013  0.5930194E+02  0.7816164E-02  0.1266605E+00
        -11   -1    0    0    0    0  0.00000000000E+00  0.00000000000E+00  0.45593999997E+02  0.45594000000E+02  0.51100000000E-03 0.  1.
         11   -1    0    0    0    0 -0.00000000000E+00 -0.00000000000E+00 -0.45593999997E+02  0.45594000000E+02  0.51100000000E-03 0. -1.
    9900012    2    1    2    0    0  0.90005543936E+01 -0.27710155933E+02 -0.12956004713E+02  0.59301940674E+02  0.49999993884E+02 0.  0.
        -12    1    1    2    0    0 -0.90005543936E+01  0.27710155933E+02  0.12956004713E+02  0.31886059326E+02  0.00000000000E+00 0.  1.
         11    1    3    3    0    0  0.29823423225E+01 -0.24316147112E+02 -0.26970266716E+02  0.36435760773E+02  0.51100000000E-03 0. -1.
        -11    1    3    3    0    0 -0.10540946584E+01 -0.77574079917E+01  0.17014112890E+01  0.80114477427E+01  0.51100000000E-03 0.  1.
        -12    1    3    3    0    0  0.70723067295E+01  0.43633991712E+01  0.12312850714E+02  0.14854732158E+02  0.00000000000E+00 0.  1.
</event>
<event>
 7    1  0.7444241E-013  0.5930191E+02  0.7816164E-02  0.1266605E+00
        -11   -1    0    0    0    0  0.00000000000E+00  0.00000000000E+00  0.45593999997E+02  0.45594000000E+02  0.51100000000E-03 0. -1.
         11   -1    0    0    0    0 -0.00000000000E+00 -0.00000000000E+00 -0.45593999997E+02  0.45594000000E+02  0.51100000000E-03 0.  1.
    9900012    2    1    2    0    0  0.15053248488E+02 -0.25927990297E+02  0.10856425425E+02  0.59301906732E+02  0.49999931981E+02 0.  0.
        -12    1    1    2    0    0 -0.15053248488E+02  0.25927990297E+02 -0.10856425425E+02  0.31886093268E+02  0.00000000000E+00 0.  1.
         11    1    3    3    0    0 -0.43120398658E+01 -0.26044803297E+02 -0.78218575461E+00  0.26410931096E+02  0.51100000000E-03 0. -1.
        -11    1    3    3    0    0 -0.49421194667E+01 -0.27760518178E+01  0.49223878864E+01  0.75073904443E+01  0.51100000000E-03 0.  1.
        -12    1    3    3    0    0  0.24307407821E+02  0.28928648173E+01  0.67162232933E+01  0.25383585191E+02  0.00000000000E+00 0.  1.
</event>
<event>
 7    1  0.7444241E-013  0.5930195E+02  0.7816164E-02  0.1266605E+00
        -11   -1    0    0    0    0  0.00000000000E+00  0.00000000000E+00  0.45593999997E+02  0.45594000000E+02  0.51100000000E-03 0.  1.
         11   -1    0    0    0    0 -0.00000000000E+00 -0.00000000000E+00 -0.45593999997E+02  0.45594000000E+02  0.51100000000E-03 0. -1.
    9900012    2    1    2    0    0 -0.84408563351E+01  0.14381150602E+02 -0.27178206671E+02  0.59301945585E+02  0.50000002840E+02 0.  0.
        -12    1    1    2    0    0  0.84408563351E+01 -0.14381150602E+02  0.27178206671E+02  0.31886054415E+02  0.00000000000E+00 0.  1.
         11    1    3    3    0    0 -0.58334711448E+01  0.12777481654E+02 -0.18850034928E+02  0.23507812320E+02  0.51100000000E-03 0. -1.
        -11    1    3    3    0    0 -0.88891824115E+01  0.15567580958E+02 -0.97672177173E+01  0.20414839774E+02  0.51100000000E-03 0.  1.
        -12    1    3    3    0    0  0.62817972212E+01 -0.13963912010E+02  0.14390459742E+01  0.15379293490E+02  0.00000000000E+00 0.  1.
</event>
<event>
 7    1  0.7444241E-013  0.5930193E+02  0.7816164E-02  0.1266605E+00
        -11   -1    0    0    0    0  0.00000000000E+00  0.00000000000E+00  0.45593999997E+02  0.45594000000E+02  0.51100000000E-03 0.  1.
         11   -1    0    0    0    0 -0.00000000000E+00 -0.00000000000E+00 -0.45593999997E+02  0.45594000000E+02  0.51100000000E-03 0. -1.
    9900012    2    1    2    0    0 -0.13434548298E+02 -0.23721943518E+02 -0.16537951593E+02  0.59301928823E+02  0.49999972270E+02 0.  0.
        -12    1    1    2    0    0  0.13434548298E+02  0.23721943518E+02  0.16537951593E+02  0.31886071177E+02  0.00000000000E+00 0.  1.
         11    1    3    3    0    0 -0.14747593432E+02 -0.18100060804E+02 -0.72557778671E+01  0.24448926886E+02  0.51100000000E-03 0. -1.
        -11    1    3    3    0    0 -0.96290077517E+01 -0.13983332477E+02  0.19399966131E+01  0.17088445352E+02  0.51100000000E-03 0.  1.
        -12    1    3    3    0    0  0.10942052886E+02  0.83614497633E+01 -0.11222170339E+02  0.17764556584E+02  0.00000000000E+00 0.  1.
</event>
<event>
 7    1  0.7444241E-013  0.5930196E+02  0.7816164E-02  0.1266605E+00
        -11   -1    0    0    0    0  0.00000000000E+00  0.00000000000E+00  0.45593999997E+02  0.45594000000E+02  0.51100000000E-03 0. -1.
         11   -1    0    0    0    0 -0.00000000000E+00 -0.00000000000E+00 -0.45593999997E+02  0.45594000000E+02  0.51100000000E-03 0.  1.
    9900012    2    1    2    0    0 -0.25777058877E+01 -0.11594095606E+02  0.29591416111E+02  0.59301960296E+02  0.50000029669E+02 0.  0.
        -12    1    1    2    0    0  0.25777058877E+01  0.11594095606E+02 -0.29591416111E+02  0.31886039704E+02  0.00000000000E+00 0.  1.
         11    1    3    3    0    0 -0.23524201867E+02 -0.63081599763E+01  0.27175612883E+01  0.24506450077E+02  0.51100000000E-03 0. -1.
        -11    1    3    3    0    0  0.28058942664E+01 -0.11490336208E+01  0.16508899779E+01  0.34523555547E+01  0.51100000000E-03 0.  1.
        -12    1    3    3    0    0  0.18140601713E+02 -0.41369020087E+01  0.25222964845E+02  0.31343154664E+02  0.00000000000E+00 0.  1.
</event>
<event>
 7    1  0.7444241E-013  0.5930193E+02  0.7816164E-02  0.1266605E+00
        -11   -1    0    0    0    0  0.00000000000E+00  0.00000000000E+00  0.45593999997E+02  0.45594000000E+02  0.51100000000E-03 0.  1.
         11   -1    0    0    0    0 -0.00000000000E+00 -0.00000000000E+00 -0.45593999997E+02  0.45594000000E+02  0.51100000000E-03 0. -1.
    9900012    2    1    2    0    0  0.28655151896E+02 -0.26131681304E+01 -0.13739556051E+02  0.59301925009E+02  0.49999965314E+02 0.  0.
        -12    1    1    2    0    0 -0.28655151896E+02  0.26131681304E+01  0.13739556051E+02  0.31886074991E+02  0.00000000000E+00 0.  1.
         11    1    3    3    0    0  0.37716353582E+02  0.36232903526E+01 -0.14775849502E+02  0.40669119603E+02  0.51100000000E-03 0. -1.
        -11    1    3    3    0    0  0.18740746289E+01 -0.73033513011E+01 -0.40847928166E+00  0.75510232106E+01  0.51100000000E-03 0.  1.
        -12    1    3    3    0    0 -0.10935276315E+02  0.10668928182E+01  0.14447727326E+01  0.11081782195E+02  0.00000000000E+00 0.  1.
</event>
<event>
 7    1  0.7444241E-013  0.5930199E+02  0.7816164E-02  0.1266605E+00
        -11   -1    0    0    0    0  0.00000000000E+00  0.00000000000E+00  0.45593999997E+02  0.45594000000E+02  0.51100000000E-03 0. -1.
         11   -1    0    0    0    0 -0.00000000000E+00 -0.00000000000E+00 -0.45593999997E+02  0.45594000000E+02  0.51100000000E-03 0.  1.
    9900012    2    1    2    0    0  0.21922232654E+02 -0.10236132239E+02  0.20769092984E+02  0.59301985650E+02  0.50000075908E+02 0.  0.
        -12    1    1    2    0    0 -0.21922232654E+02  0.10236132239E+02 -0.20769092984E+02  0.31886014350E+02  0.00000000000E+00 0.  1.
         11    1    3    3    0    0  0.25520021317E+01 -0.19015496769E+02  0.17317933044E+02  0.25845940444E+02  0.51100000000E-03 0. -1.
        -11    1    3    3    0    0  0.19956435432E+01 -0.61739924587E+01  0.77768098728E+01  0.10128156204E+02  0.51100000000E-03 0.  1.
        -12    1    3    3    0    0  0.17374586979E+02  0.14953356988E+02 -0.43256499328E+01  0.23327889002E+02  0.00000000000E+00 0.  1.
</event>
<event>
 7    1  0.7444241E-013  0.5930195E+02  0.7816164E-02  0.1266605E+00
        -11   -1    0    0    0    0  0.00000000000E+00  0.00000000000E+00  0.45593999997E+02  0.45594000000E+02  0.51100000000E-03 0.  1.
         11   -1    0    0    0    0 -0.00000000000E+00 -0.00000000000E+00 -0.45593999997E+02  0.45594000000E+02  0.51100000000E-03 0. -1.
    9900012    2    1    2    0    0 -0.18092352123E+02  0.82472073402E+00 -0.26243229109E+02  0.59301945937E+02  0.50000003482E+02 0.  0.
        -12    1    1    2    0    0  0.18092352123E+02 -0.82472073402E+00  0.26243229109E+02  0.31886054063E+02  0.00000000000E+00 0.  1.
         11    1    3    3    0    0 -0.75124565675E+01 -0.58398307504E+01 -0.13273096916E+02  0.16331433766E+02  0.51100000000E-03 0. -1.
        -11    1    3    3    0    0 -0.49982795681E+01 -0.15948714197E+02 -0.90223565446E+00  0.16737930356E+02  0.51100000000E-03 0.  1.
        -12    1    3    3    0    0 -0.55816159875E+01  0.22613265681E+02 -0.12067896539E+02  0.26232581815E+02  0.00000000000E+00 0.  1.
</event>
<event>
 7    1  0.7444241E-013  0.5930196E+02  0.7816164E-02  0.1266605E+00
        -11   -1    0    0    0    0  0.00000000000E+00  0.00000000000E+00  0.45593999997E+02  0.45594000000E+02  0.51100000000E-03 0.  1.
         11   -1    0    0    0    0 -0.00000000000E+00 -0.00000000000E+00 -0.45593999997E+02  0.45594000000E+02  0.51100000000E-03 0. -1.
    9900012    2    1    2    0    0  0.20799807359E+02 -0.94030955062E+01 -0.22263636685E+02  0.59301957447E+02  0.50000024474E+02 0.  0.
        -12    1    1    2    0    0 -0.20799807359E+02  0.94030955062E+01  0.22263636685E+02  0.31886042553E+02  0.00000000000E+00 0.  1.
         11    1    3    3    0    0  0.23509611631E+02 -0.28845410216E+01 -0.26237089089E+02  0.35346955457E+02  0.51100000000E-03 0. -1.
        -11    1    3    3    0    0  0.81739271943E+01 -0.67362634420E+01 -0.30226160544E+01  0.11014832682E+02  0.51100000000E-03 0.  1.
        -12    1    3    3    0    0 -0.10883731467E+02  0.21770895748E+00  0.69960684591E+01  0.12940169308E+02  0.00000000000E+00 0.  1.
</event>
<event>
 7    1  0.7444241E-013  0.5930185E+02  0.7816164E-02  0.1266605E+00
        -11   -1    0    0    0    0  0.00000000000E+00  0.00000000000E+00  0.45593999997E+02  0.45594000000E+02  0.51100000000E-03 0. -1.
         11   -1    0    0    0    0 -0.00000000000E+00 -0.00000000000E+00 -0.45593999997E+02  0.45594000000E+02  0.51100000000E-03 0.  1.
    9900012    2    1    2    0    0 -0.81954928464E+00  0.30187533032E+02 -0.10235613913E+02  0.59301849343E+02  0.49999827317E+02 0.  0.
        -12    1    1    2    0    0  0.81954928464E+00 -0.30187533032E+02  0.10235613913E+02  0.31886150657E+02  0.00000000000E+00 0.  1.
         11    1    3    3    0    0 -0.11226165314E+02  0.28058294545E+02 -0.67433884223E+01  0.30963978558E+02  0.51100000000E-03 0. -1.
        -11    1    3    3    0    0 -0.70028439024E+01 -0.34478728725E+01 -0.60541366882E+01  0.98782701606E+01  0.51100000000E-03 0.  1.
        -12    1    3    3    0    0  0.17409459932E+02  0.55771113590E+01  0.25619111980E+01  0.18459600625E+02  0.00000000000E+00 0.  1.
</event>
<event>
 7    1  0.7444241E-013  0.5930192E+02  0.7816164E-02  0.1266605E+00
        -11   -1    0    0    0    0  0.00000000000E+00  0.00000000000E+00  0.45593999997E+02  0.45594000000E+02  0.51100000000E-03 0.  1.
         11   -1    0    0    0    0 -0.00000000000E+00 -0.00000000000E+00 -0.45593999997E+02  0.45594000000E+02  0.51100000000E-03 0. -1.
    9900012    2    1    2    0    0 -0.27884798533E+02  0.15348290144E+02 -0.18947053505E+01  0.59301922977E+02  0.49999961608E+02 0.  0.
        -12    1    1    2    0    0  0.27884798533E+02 -0.15348290144E+02  0.18947053505E+01  0.31886077023E+02  0.00000000000E+00 0.  1.
         11    1    3    3    0    0 -0.17463236646E+02  0.12683207249E+02  0.34224904190E+01  0.21852730291E+02  0.51100000000E-03 0. -1.
        -11    1    3    3    0    0  0.24290583460E+01  0.15642772008E+02 -0.98330344272E+01  0.18635589791E+02  0.51100000000E-03 0.  1.
        -12    1    3    3    0    0 -0.12850620233E+02 -0.12977689113E+02  0.45158386578E+01  0.18813602894E+02  0.00000000000E+00 0.  1.
</event>
<event>
 7    1  0.1219889E-012  0.5930195E+02  0.7816164E-02  0.1266605E+00
        -11   -1    0    0    0    0  0.00000000000E+00  0.00000000000E+00  0.45593999997E+02  0.45594000000E+02  0.51100000000E-03 0. -1.
         11   -1    0    0    0    0 -0.00000000000E+00 -0.00000000000E+00 -0.45593999997E+02  0.45594000000E+02  0.51100000000E-03 0.  1.
    9900012    2    1    2    0    0 -0.32095492062E+01  0.25839481089E+02  0.18404891630E+02  0.59301952503E+02  0.50000015457E+02 0.  0.
        -12    1    1    2    0    0  0.32095492062E+01 -0.25839481089E+02 -0.18404891630E+02  0.31886047497E+02  0.00000000000E+00 0.  1.
         11    1    3    3    0    0 -0.20014678908E+01  0.64732431733E+01  0.26059710848E+02  0.26926144927E+02  0.51100000000E-03 0. -1.
        -11    1    3    3    0    0 -0.53183238311E+01  0.21642236477E+02  0.12355241649E+01  0.22320337998E+02  0.51100000000E-03 0.  1.
        -12    1    3    3    0    0  0.41102425157E+01 -0.22759985612E+01 -0.88903433823E+01  0.10055469578E+02  0.00000000000E+00 0.  1.
</event>
<event>
 7    1  0.7444241E-013  0.5930198E+02  0.7816164E-02  0.1266605E+00
        -11   -1    0    0    0    0  0.00000000000E+00  0.00000000000E+00  0.45593999997E+02  0.45594000000E+02  0.51100000000E-03 0. -1.
         11   -1    0    0    0    0 -0.00000000000E+00 -0.00000000000E+00 -0.45593999997E+02  0.45594000000E+02  0.51100000000E-03 0.  1.
    9900012    2    1    2    0    0  0.10137630746E+02 -0.79210479643E+01  0.29175393473E+02  0.59301982025E+02  0.50000069299E+02 0.  0.
        -12    1    1    2    0    0 -0.10137630746E+02  0.79210479643E+01 -0.29175393473E+02  0.31886017975E+02  0.00000000000E+00 0.  1.
         11    1    3    3    0    0  0.13805430570E+02 -0.10477839048E+02 -0.14540438082E+01  0.17392218605E+02  0.51100000000E-03 0. -1.
        -11    1    3    3    0    0  0.19989357266E+01  0.67996434071E+01 -0.28877845652E+01  0.76531166500E+01  0.51100000000E-03 0.  1.
         12    1    3    3    0    0 -0.56667355512E+01 -0.42428523230E+01  0.33517221846E+02  0.34256646770E+02  0.00000000000E+00 0. -1.
</event>
<event>
 7    1  0.7444241E-013  0.5930199E+02  0.7816164E-02  0.1266605E+00
        -11   -1    0    0    0    0  0.00000000000E+00  0.00000000000E+00  0.45593999997E+02  0.45594000000E+02  0.51100000000E-03 0. -1.
         11   -1    0    0    0    0 -0.00000000000E+00 -0.00000000000E+00 -0.45593999997E+02  0.45594000000E+02  0.51100000000E-03 0.  1.
    9900012    2    1    2    0    0 -0.18184839374E+02  0.26112313174E+01 -0.26061676250E+02  0.59301986122E+02  0.50000076770E+02 0.  0.
        -12    1    1    2    0    0  0.18184839374E+02 -0.26112313174E+01  0.26061676250E+02  0.31886013878E+02  0.00000000000E+00 0.  1.
         11    1    3    3    0    0 -0.27501307770E+02  0.36154150776E+01 -0.19824382092E+02  0.34093977193E+02  0.51100000000E-03 0. -1.
        -11    1    3    3    0    0 -0.63962673993E+01  0.26016586863E+01 -0.59013697734E+01  0.90833380443E+01  0.51100000000E-03 0.  1.
         12    1    3    3    0    0  0.15712735796E+02 -0.36058424465E+01 -0.33592438459E+00  0.16124670884E+02  0.00000000000E+00 0. -1.
</event>
<event>
 7    1  0.7444241E-013  0.5930194E+02  0.7816164E-02  0.1266605E+00
        -11   -1    0    0    0    0  0.00000000000E+00  0.00000000000E+00  0.45593999997E+02  0.45594000000E+02  0.51100000000E-03 0.  1.
         11   -1    0    0    0    0 -0.00000000000E+00 -0.00000000000E+00 -0.45593999997E+02  0.45594000000E+02  0.51100000000E-03 0. -1.
    9900012    2    1    2    0    0  0.97307398354E+01  0.27517585072E+02 -0.12838061210E+02  0.59301943461E+02  0.49999998967E+02 0.  0.
        -12    1    1    2    0    0 -0.97307398354E+01 -0.27517585072E+02  0.12838061210E+02  0.31886056539E+02  0.00000000000E+00 0.  1.
         11    1    3    3    0    0 -0.11356797213E+01  0.42828859571E+01  0.36402047428E+01  0.57344547588E+01  0.51100000000E-03 0. -1.
        -11    1    3    3    0    0 -0.26891464209E+01  0.11621005094E+02  0.13910250453E+02  0.18324146250E+02  0.51100000000E-03 0.  1.
         12    1    3    3    0    0  0.13555565978E+02  0.11613694021E+02 -0.30388516406E+02  0.35243342452E+02  0.00000000000E+00 0. -1.
</event>
<event>
 7    1  0.7444241E-013  0.5930194E+02  0.7816164E-02  0.1266605E+00
        -11   -1    0    0    0    0  0.00000000000E+00  0.00000000000E+00  0.45593999997E+02  0.45594000000E+02  0.51100000000E-03 0. -1.
         11   -1    0    0    0    0 -0.00000000000E+00 -0.00000000000E+00 -0.45593999997E+02  0.45594000000E+02  0.51100000000E-03 0.  1.
    9900012    2    1    2    0    0 -0.44672684933E+01  0.13225708700E+01  0.31543856773E+02  0.59301943774E+02  0.49999999538E+02 0.  0.
        -12    1    1    2    0    0  0.44672684933E+01 -0.13225708700E+01 -0.31543856773E+02  0.31886056226E+02  0.00000000000E+00 0.  1.
         11    1    3    3    0    0  0.31756121960E+01 -0.92283741573E+01  0.18894228729E+02  0.21265918318E+02  0.51100000000E-03 0. -1.
        -11    1    3    3    0    0 -0.13336226769E+02  0.49537604490E+01 -0.76996967464E+01  0.16176526737E+02  0.51100000000E-03 0.  1.
         12    1    3    3    0    0  0.56933460798E+01  0.55971845783E+01  0.20349324791E+02  0.21859498719E+02  0.00000000000E+00 0. -1.
</event>
<event>
 7    1  0.7444241E-013  0.5930196E+02  0.7816164E-02  0.1266605E+00
        -11   -1    0    0    0    0  0.00000000000E+00  0.00000000000E+00  0.45593999997E+02  0.45594000000E+02  0.51100000000E-03 0. -1.
         11   -1    0    0    0    0 -0.00000000000E+00 -0.00000000000E+00 -0.45593999997E+02  0.45594000000E+02  0.51100000000E-03 0.  1.
    9900012    2    1    2    0    0 -0.26668870707E+02 -0.97663027324E+01  0.14495176453E+02  0.59301961139E+02  0.50000031207E+02 0.  0.
        -12    1    1    2    0    0  0.26668870707E+02  0.97663027324E+01 -0.14495176453E+02  0.31886038861E+02  0.00000000000E+00 0.  1.
         11    1    3    3    0    0 -0.19302237722E+02 -0.16999383241E+02  0.63194997971E+01  0.26485684616E+02  0.51100000000E-03 0. -1.
        -11    1    3    3    0    0  0.40259765774E+01  0.22324422314E+01 -0.98737294609E+01  0.10894164468E+02  0.51100000000E-03 0.  1.
        -12    1    3    3    0    0 -0.11392609562E+02  0.50006382770E+01  0.18049406117E+02  0.21922112055E+02  0.00000000000E+00 0.  1.
</event>
<event>
 7    1  0.7444241E-013  0.5930185E+02  0.7816164E-02  0.1266605E+00
        -11   -1    0    0    0    0  0.00000000000E+00  0.00000000000E+00  0.45593999997E+02  0.45594000000E+02  0.51100000000E-03 0. -1.
         11   -1    0    0    0    0 -0.00000000000E+00 -0.00000000000E+00 -0.45593999997E+02  0.45594000000E+02  0.51100000000E-03 0.  1.
    9900012    2    1    2    0    0  0.31116009959E+02  0.41871135599E+01  0.55667406524E+01  0.59301849445E+02  0.49999827504E+02 0.  0.
        -12    1    1    2    0    0 -0.31116009959E+02 -0.41871135599E+01 -0.55667406524E+01  0.31886150555E+02  0.00000000000E+00 0.  1.
         11    1    3    3    0    0  0.13916887360E+02  0.34092912749E+01  0.62240849918E+01  0.15621851844E+02  0.51100000000E-03 0. -1.
        -11    1    3    3    0    0  0.20147123750E+02 -0.24413395517E+01  0.16387686468E+02  0.26084919058E+02  0.51100000000E-03 0.  1.
        -12    1    3    3    0    0 -0.29480011514E+01  0.32191618367E+01 -0.17045030808E+02  0.17595078543E+02  0.00000000000E+00 0.  1.
</event>
<event>
 7    1  0.7444241E-013  0.5930195E+02  0.7816164E-02  0.1266605E+00
        -11   -1    0    0    0    0  0.00000000000E+00  0.00000000000E+00  0.45593999997E+02  0.45594000000E+02  0.51100000000E-03 0. -1.
         11   -1    0    0    0    0 -0.00000000000E+00 -0.00000000000E+00 -0.45593999997E+02  0.45594000000E+02  0.51100000000E-03 0.  1.
    9900012    2    1    2    0    0 -0.22355471120E+02  0.29952169204E+01  0.22538445745E+02  0.59301953679E+02  0.50000017602E+02 0.  0.
        -12    1    1    2    0    0  0.22355471120E+02 -0.29952169204E+01 -0.22538445745E+02  0.31886046321E+02  0.00000000000E+00 0.  1.
         11    1    3    3    0    0 -0.10158846564E+02  0.91668369605E+01  0.40619246988E+01  0.14273482262E+02  0.51100000000E-03 0. -1.
        -11    1    3    3    0    0 -0.83659236158E+00  0.13470732438E+02 -0.29552097116E+01  0.13816431663E+02  0.51100000000E-03 0.  1.
         12    1    3    3    0    0 -0.11360032194E+02 -0.19642352478E+02  0.21431730758E+02  0.31212039754E+02  0.00000000000E+00 0. -1.
</event>
<event>
 7    1  0.7444241E-013  0.5930193E+02  0.7816164E-02  0.1266605E+00
        -11   -1    0    0    0    0  0.00000000000E+00  0.00000000000E+00  0.45593999997E+02  0.45594000000E+02  0.51100000000E-03 0.  1.
         11   -1    0    0    0    0 -0.00000000000E+00 -0.00000000000E+00 -0.45593999997E+02  0.45594000000E+02  0.51100000000E-03 0. -1.
    9900012    2    1    2    0    0  0.16508645148E+02  0.23452144417E+02 -0.13934952892E+02  0.59301931656E+02  0.49999977436E+02 0.  0.
        -12    1    1    2    0    0 -0.16508645148E+02 -0.23452144417E+02  0.13934952892E+02  0.31886068344E+02  0.00000000000E+00 0.  1.
         11    1    3    3    0    0  0.22838845478E+02  0.33216218618E+02 -0.54780521227E+01  0.40680942680E+02  0.51100000000E-03 0. -1.
        -11    1    3    3    0    0 -0.39161933280E+01  0.21263848127E+01 -0.23387941162E+01  0.50326971628E+01  0.51100000000E-03 0.  1.
        -12    1    3    3    0    0 -0.24140070028E+01 -0.11890459014E+02 -0.61181066532E+01  0.13588291813E+02  0.00000000000E+00 0.  1.
</event>
<event>
 7    1  0.7444241E-013  0.5930195E+02  0.7816164E-02  0.1266605E+00
        -11   -1    0    0    0    0  0.00000000000E+00  0.00000000000E+00  0.45593999997E+02  0.45594000000E+02  0.51100000000E-03 0.  1.
         11   -1    0    0    0    0 -0.00000000000E+00 -0.00000000000E+00 -0.45593999997E+02  0.45594000000E+02  0.51100000000E-03 0. -1.
    9900012    2    1    2    0    0  0.57046807946E+01  0.30618143427E+02 -0.68342028270E+01  0.59301946337E+02  0.50000004212E+02 0.  0.
        -12    1    1    2    0    0 -0.57046807946E+01 -0.30618143427E+02  0.68342028270E+01  0.31886053663E+02  0.00000000000E+00 0.  1.
         11    1    3    3    0    0  0.40682921561E+01  0.38310267101E+01 -0.10716414221E+02  0.12085913318E+02  0.51100000000E-03 0. -1.
        -11    1    3    3    0    0  0.48489565256E+01 -0.86600604854E+01  0.59352086171E+01  0.11564416483E+02  0.51100000000E-03 0.  1.
        -12    1    3    3    0    0 -0.32125678871E+01  0.35447177202E+02 -0.20529972231E+01  0.35651616536E+02  0.00000000000E+00 0.  1.
</event>
<event>
 7    1  0.7444241E-013  0.5930194E+02  0.7816164E-02  0.1266605E+00
        -11   -1    0    0    0    0  0.00000000000E+00  0.00000000000E+00  0.45593999997E+02  0.45594000000E+02  0.51100000000E-03 0.  1.
         11   -1    0    0    0    0 -0.00000000000E+00 -0.00000000000E+00 -0.45593999997E+02  0.45594000000E+02  0.51100000000E-03 0. -1.
    9900012    2    1    2    0    0 -0.21650317863E+02  0.32241928964E+00 -0.23406852524E+02  0.59301937797E+02  0.49999988637E+02 0.  0.
        -12    1    1    2    0    0  0.21650317863E+02 -0.32241928964E+00  0.23406852524E+02  0.31886062203E+02  0.00000000000E+00 0.  1.
         11    1    3    3    0    0 -0.16894045981E+02  0.13356616209E+02 -0.18926237549E+02  0.28670724689E+02  0.51100000000E-03 0. -1.
        -11    1    3    3    0    0  0.99789173503E+00  0.12831445113E+01 -0.12934852399E+02  0.13036589071E+02  0.51100000000E-03 0.  1.
        -12    1    3    3    0    0 -0.57541636163E+01 -0.14317341431E+02  0.84542374244E+01  0.17594624037E+02  0.00000000000E+00 0.  1.
</event>
<event>
 7    1  0.7444241E-013  0.5930192E+02  0.7816164E-02  0.1266605E+00
        -11   -1    0    0    0    0  0.00000000000E+00  0.00000000000E+00  0.45593999997E+02  0.45594000000E+02  0.51100000000E-03 0.  1.
         11   -1    0    0    0    0 -0.00000000000E+00 -0.00000000000E+00 -0.45593999997E+02  0.45594000000E+02  0.51100000000E-03 0. -1.
    9900012    2    1    2    0    0 -0.24276064019E+02  0.20498809198E+02 -0.26820913526E+01  0.59301920328E+02  0.49999956778E+02 0.  0.
        -12    1    1    2    0    0  0.24276064019E+02 -0.20498809198E+02  0.26820913526E+01  0.31886079672E+02  0.00000000000E+00 0.  1.
         11    1    3    3    0    0 -0.54460613477E+01  0.15629482611E+02  0.74923596176E+01  0.18167987334E+02  0.51100000000E-03 0.  1.
        -11    1    3    3    0    0  0.71856103637E+01  0.84689535523E+01 -0.98857240658E+01  0.14868883991E+02  0.51100000000E-03 0. -1.
         12    1    3    3    0    0 -0.26015613035E+02 -0.35996269649E+01 -0.28872690434E+00  0.26265049003E+02  0.00000000000E+00 0. -1.
</event>
<event>
 7    1  0.7444241E-013  0.5930191E+02  0.7816164E-02  0.1266605E+00
        -11   -1    0    0    0    0  0.00000000000E+00  0.00000000000E+00  0.45593999997E+02  0.45594000000E+02  0.51100000000E-03 0.  1.
         11   -1    0    0    0    0 -0.00000000000E+00 -0.00000000000E+00 -0.45593999997E+02  0.45594000000E+02  0.51100000000E-03 0. -1.
    9900012    2    1    2    0    0  0.18379668915E+00 -0.30283842000E+02 -0.99788748566E+01  0.59301908817E+02  0.49999935784E+02 0.  0.
        -12    1    1    2    0    0 -0.18379668915E+00  0.30283842000E+02  0.99788748566E+01  0.31886091183E+02  0.00000000000E+00 0.  1.
         11    1    3    3    0    0  0.44201718750E-01  0.15501083744E+01  0.70370876308E+01  0.72059275842E+01  0.51100000000E-03 0.  1.
        -11    1    3    3    0    0 -0.13015744545E+02 -0.24807176248E+02 -0.22779263940E+02  0.36106792510E+02  0.51100000000E-03 0. -1.
         12    1    3    3    0    0  0.13155339515E+02 -0.70267741262E+01  0.57633014528E+01  0.15989188723E+02  0.00000000000E+00 0. -1.
</event>
<event>
 7    1  0.7444241E-013  0.5930177E+02  0.7816164E-02  0.1266605E+00
        -11   -1    0    0    0    0  0.00000000000E+00  0.00000000000E+00  0.45593999997E+02  0.45594000000E+02  0.51100000000E-03 0.  1.
         11   -1    0    0    0    0 -0.00000000000E+00 -0.00000000000E+00 -0.45593999997E+02  0.45594000000E+02  0.51100000000E-03 0. -1.
    9900012    2    1    2    0    0  0.27204015454E+02  0.16600301765E+02  0.10502215335E+01  0.59301773494E+02  0.49999688986E+02 0.  0.
        -12    1    1    2    0    0 -0.27204015454E+02 -0.16600301765E+02 -0.10502215335E+01  0.31886226506E+02  0.00000000000E+00 0.  1.
         11    1    3    3    0    0  0.23071315712E+02 -0.40359319654E+01 -0.12651704487E+02  0.26620292677E+02  0.51100000000E-03 0. -1.
        -11    1    3    3    0    0  0.54408786037E+01  0.22381754143E+00 -0.30511777476E+01  0.62420301330E+01  0.51100000000E-03 0.  1.
        -12    1    3    3    0    0 -0.13081788613E+01  0.20412416189E+02  0.16753103768E+02  0.26439450684E+02  0.00000000000E+00 0.  1.
</event>
<event>
 7    1  0.7444241E-013  0.5930195E+02  0.7816164E-02  0.1266605E+00
        -11   -1    0    0    0    0  0.00000000000E+00  0.00000000000E+00  0.45593999997E+02  0.45594000000E+02  0.51100000000E-03 0. -1.
         11   -1    0    0    0    0 -0.00000000000E+00 -0.00000000000E+00 -0.45593999997E+02  0.45594000000E+02  0.51100000000E-03 0.  1.
    9900012    2    1    2    0    0 -0.17206787239E+02 -0.26005346306E+01  0.26718610819E+02  0.59301945501E+02  0.50000002686E+02 0.  0.
        -12    1    1    2    0    0  0.17206787239E+02  0.26005346306E+01 -0.26718610819E+02  0.31886054499E+02  0.00000000000E+00 0.  1.
         11    1    3    3    0    0 -0.16947325947E+00  0.74398682594E+01  0.61130283475E+01  0.96306529759E+01  0.51100000000E-03 0. -1.
        -11    1    3    3    0    0  0.59962457545E+01 -0.18561429924E+02  0.36941015063E+01  0.19852658013E+02  0.51100000000E-03 0.  1.
         12    1    3    3    0    0 -0.23033559734E+02  0.85210270340E+01  0.16911480965E+02  0.29818634512E+02  0.00000000000E+00 0. -1.
</event>
<event>
 7    1  0.7444241E-013  0.5930191E+02  0.7816164E-02  0.1266605E+00
        -11   -1    0    0    0    0  0.00000000000E+00  0.00000000000E+00  0.45593999997E+02  0.45594000000E+02  0.51100000000E-03 0.  1.
         11   -1    0    0    0    0 -0.00000000000E+00 -0.00000000000E+00 -0.45593999997E+02  0.45594000000E+02  0.51100000000E-03 0. -1.
    9900012    2    1    2    0    0 -0.13228817964E+02 -0.17256646854E+02 -0.23322293150E+02  0.59301908312E+02  0.49999934862E+02 0.  0.
        -12    1    1    2    0    0  0.13228817964E+02  0.17256646854E+02  0.23322293150E+02  0.31886091688E+02  0.00000000000E+00 0.  1.
         11    1    3    3    0    0 -0.16969005385E+02  0.97888836006E+01 -0.19489211357E+02  0.27633290530E+02  0.51100000000E-03 0. -1.
        -11    1    3    3    0    0  0.36923917948E+01 -0.82678962649E+01  0.56082165736E+01  0.10651007427E+02  0.51100000000E-03 0.  1.
        -12    1    3    3    0    0  0.47795625885E-01 -0.18777634190E+02 -0.94412983664E+01  0.21017610355E+02  0.00000000000E+00 0.  1.
</event>
<event>
 7    1  0.7444241E-013  0.5930198E+02  0.7816164E-02  0.1266605E+00
        -11   -1    0    0    0    0  0.00000000000E+00  0.00000000000E+00  0.45593999997E+02  0.45594000000E+02  0.51100000000E-03 0.  1.
         11   -1    0    0    0    0 -0.00000000000E+00 -0.00000000000E+00 -0.45593999997E+02  0.45594000000E+02  0.51100000000E-03 0. -1.
    9900012    2    1    2    0    0  0.10407117237E+02  0.29560408806E+02 -0.58815136876E+01  0.59301983297E+02  0.50000071617E+02 0.  0.
        -12    1    1    2    0    0 -0.10407117237E+02 -0.29560408806E+02  0.58815136876E+01  0.31886016703E+02  0.00000000000E+00 0.  1.
         11    1    3    3    0    0 -0.89179422574E+01 -0.84334044233E+01 -0.15427104365E+01  0.12370608717E+02  0.51100000000E-03 0. -1.
        -11    1    3    3    0    0 -0.15126475630E+01 -0.13508954702E+01 -0.10609041080E+01  0.22887854877E+01  0.51100000000E-03 0.  1.
         12    1    3    3    0    0  0.20837707058E+02  0.39344708699E+02 -0.32778991431E+01  0.44642589092E+02  0.00000000000E+00 0. -1.
</event>
<event>
 7    1  0.7444241E-013  0.5930192E+02  0.7816164E-02  0.1266605E+00
        -11   -1    0    0    0    0  0.00000000000E+00  0.00000000000E+00  0.45593999997E+02  0.45594000000E+02  0.51100000000E-03 0.  1.
         11   -1    0    0    0    0 -0.00000000000E+00 -0.00000000000E+00 -0.45593999997E+02  0.45594000000E+02  0.51100000000E-03 0. -1.
    9900012    2    1    2    0    0 -0.17559840881E+02 -0.10274365452E+02 -0.24552218173E+02  0.59301921307E+02  0.49999958562E+02 0.  0.
        -12    1    1    2    0    0  0.17559840881E+02  0.10274365452E+02  0.24552218173E+02  0.31886078693E+02  0.00000000000E+00 0.  1.
         11    1    3    3    0    0  0.66545002173E+01  0.21876231628E+01 -0.17392449871E+02  0.18750076827E+02  0.51100000000E-03 0. -1.
        -11    1    3    3    0    0 -0.79044847245E+01 -0.18360686082E+01  0.11175111028E+02  0.13810689101E+02  0.51100000000E-03 0.  1.
         12    1    3    3    0    0 -0.16309856374E+02 -0.10625920006E+02 -0.18334879331E+02  0.26741155379E+02  0.00000000000E+00 0. -1.
</event>
<event>
 7    1  0.7444241E-013  0.5930196E+02  0.7816164E-02  0.1266605E+00
        -11   -1    0    0    0    0  0.00000000000E+00  0.00000000000E+00  0.45593999997E+02  0.45594000000E+02  0.51100000000E-03 0. -1.
         11   -1    0    0    0    0 -0.00000000000E+00 -0.00000000000E+00 -0.45593999997E+02  0.45594000000E+02  0.51100000000E-03 0.  1.
    9900012    2    1    2    0    0  0.17922167797E+02  0.25102878378E+02  0.80846139029E+01  0.59301959428E+02  0.50000028086E+02 0.  0.
        -12    1    1    2    0    0 -0.17922167797E+02 -0.25102878378E+02 -0.80846139029E+01  0.31886040572E+02  0.00000000000E+00 0.  1.
         11    1    3    3    0    0 -0.14692140826E+02  0.13622073239E+02  0.57445804396E+01  0.20842746606E+02  0.51100000000E-03 0. -1.
        -11    1    3    3    0    0  0.11711690772E+02  0.40662071218E+01  0.89797241965E+01  0.15307945258E+02  0.51100000000E-03 0.  1.
        -12    1    3    3    0    0  0.20902617852E+02  0.74145980170E+01 -0.66396907332E+01  0.23151267564E+02  0.00000000000E+00 0.  1.
</event>
<event>
 7    1  0.7444241E-013  0.5930197E+02  0.7816164E-02  0.1266605E+00
        -11   -1    0    0    0    0  0.00000000000E+00  0.00000000000E+00  0.45593999997E+02  0.45594000000E+02  0.51100000000E-03 0.  1.
         11   -1    0    0    0    0 -0.00000000000E+00 -0.00000000000E+00 -0.45593999997E+02  0.45594000000E+02  0.51100000000E-03 0. -1.
    9900012    2    1    2    0    0  0.11233058669E+02  0.27468752915E+02 -0.11662107364E+02  0.59301972623E+02  0.50000052150E+02 0.  0.
        -12    1    1    2    0    0 -0.11233058669E+02 -0.27468752915E+02  0.11662107364E+02  0.31886027377E+02  0.00000000000E+00 0.  1.
         11    1    3    3    0    0  0.27087444872E+02  0.52056090483E+01 -0.27165987042E+00  0.27584449145E+02  0.51100000000E-03 0. -1.
        -11    1    3    3    0    0 -0.82047561493E-01  0.89193217186E+01 -0.28738742739E+01  0.93712424644E+01  0.51100000000E-03 0.  1.
        -12    1    3    3    0    0 -0.15772338642E+02  0.13343822148E+02 -0.85165732197E+01  0.22346281014E+02  0.00000000000E+00 0.  1.
</event>
<event>
 7    1  0.7444241E-013  0.5930185E+02  0.7816164E-02  0.1266605E+00
        -11   -1    0    0    0    0  0.00000000000E+00  0.00000000000E+00  0.45593999997E+02  0.45594000000E+02  0.51100000000E-03 0. -1.
         11   -1    0    0    0    0 -0.00000000000E+00 -0.00000000000E+00 -0.45593999997E+02  0.45594000000E+02  0.51100000000E-03 0.  1.
    9900012    2    1    2    0    0  0.45895127755E+01 -0.31188571147E+02  0.47891517769E+01  0.59301849834E+02  0.49999828212E+02 0.  0.
        -12    1    1    2    0    0 -0.45895127755E+01  0.31188571147E+02 -0.47891517769E+01  0.31886150166E+02  0.00000000000E+00 0.  1.
         11    1    3    3    0    0 -0.50646066636E+01 -0.32150098619E+01  0.17893998911E+02  0.18872777388E+02  0.51100000000E-03 0. -1.
        -11    1    3    3    0    0  0.75474398615E+01  0.23063584232E+01 -0.25785915823E+01  0.83025461425E+01  0.51100000000E-03 0.  1.
         12    1    3    3    0    0  0.21066795776E+01 -0.30279919708E+02 -0.10526255551E+02  0.32126526303E+02  0.00000000000E+00 0. -1.
</event>
<event>
 7    1  0.7444241E-013  0.5930187E+02  0.7816164E-02  0.1266605E+00
        -11   -1    0    0    0    0  0.00000000000E+00  0.00000000000E+00  0.45593999997E+02  0.45594000000E+02  0.51100000000E-03 0.  1.
         11   -1    0    0    0    0 -0.00000000000E+00 -0.00000000000E+00 -0.45593999997E+02  0.45594000000E+02  0.51100000000E-03 0. -1.
    9900012    2    1    2    0    0  0.14607372630E+02  0.21614307322E+02 -0.18334984143E+02  0.59301870418E+02  0.49999865753E+02 0.  0.
        -12    1    1    2    0    0 -0.14607372630E+02 -0.21614307322E+02  0.18334984143E+02  0.31886129582E+02  0.00000000000E+00 0.  1.
         11    1    3    3    0    0  0.97671042452E+01 -0.68206185287E+01 -0.28860093015E+01  0.12257496172E+02  0.51100000000E-03 0. -1.
        -11    1    3    3    0    0  0.20887788671E+01  0.16343916418E+02  0.96176011901E+01  0.19078387090E+02  0.51100000000E-03 0.  1.
         12    1    3    3    0    0  0.27514895177E+01  0.12091009433E+02 -0.25066576032E+02  0.27965987157E+02  0.00000000000E+00 0. -1.
</event>
<event>
 7    1  0.7444241E-013  0.5930193E+02  0.7816164E-02  0.1266605E+00
        -11   -1    0    0    0    0  0.00000000000E+00  0.00000000000E+00  0.45593999997E+02  0.45594000000E+02  0.51100000000E-03 0. -1.
         11   -1    0    0    0    0 -0.00000000000E+00 -0.00000000000E+00 -0.45593999997E+02  0.45594000000E+02  0.51100000000E-03 0.  1.
    9900012    2    1    2    0    0 -0.51251590530E+01 -0.15175181563E+02  0.27571143623E+02  0.59301931703E+02  0.49999977522E+02 0.  0.
        -12    1    1    2    0    0  0.51251590530E+01  0.15175181563E+02 -0.27571143623E+02  0.31886068297E+02  0.00000000000E+00 0.  1.
         11    1    3    3    0    0  0.11902309146E+01 -0.16650602655E+02  0.32623272695E+02  0.36646106751E+02  0.51100000000E-03 0. -1.
        -11    1    3    3    0    0 -0.18118067377E+01 -0.32593194945E+01  0.75721687490E+01  0.84405892594E+01  0.51100000000E-03 0.  1.
        -12    1    3    3    0    0 -0.45035832299E+01  0.47347405867E+01 -0.12624297821E+02  0.14215235693E+02  0.00000000000E+00 0.  1.
</event>
<event>
 7    1  0.7444241E-013  0.5930198E+02  0.7816164E-02  0.1266605E+00
        -11   -1    0    0    0    0  0.00000000000E+00  0.00000000000E+00  0.45593999997E+02  0.45594000000E+02  0.51100000000E-03 0.  1.
         11   -1    0    0    0    0 -0.00000000000E+00 -0.00000000000E+00 -0.45593999997E+02  0.45594000000E+02  0.51100000000E-03 0. -1.
    9900012    2    1    2    0    0 -0.10662066182E+02 -0.26238228293E+02 -0.14649037688E+02  0.59301975092E+02  0.50000056655E+02 0.  0.
        -12    1    1    2    0    0  0.10662066182E+02  0.26238228293E+02  0.14649037688E+02  0.31886024908E+02  0.00000000000E+00 0.  1.
         11    1    3    3    0    0  0.60829817128E+01  0.71452295398E+01  0.37817269067E+00  0.93914847889E+01  0.51100000000E-03 0. -1.
        -11    1    3    3    0    0 -0.81335379941E+01 -0.62314060585E+01  0.82258550693E+01  0.13139617713E+02  0.51100000000E-03 0.  1.
         12    1    3    3    0    0 -0.86115099003E+01 -0.27152051774E+02 -0.23253065448E+02  0.36770872590E+02  0.00000000000E+00 0. -1.
</event>
<event>
 7    1  0.7444241E-013  0.5930194E+02  0.7816164E-02  0.1266605E+00
        -11   -1    0    0    0    0  0.00000000000E+00  0.00000000000E+00  0.45593999997E+02  0.45594000000E+02  0.51100000000E-03 0.  1.
         11   -1    0    0    0    0 -0.00000000000E+00 -0.00000000000E+00 -0.45593999997E+02  0.45594000000E+02  0.51100000000E-03 0. -1.
    9900012    2    1    2    0    0 -0.22776877336E+02 -0.13896009033E+02 -0.17459541844E+02  0.59301940199E+02  0.49999993017E+02 0.  0.
        -12    1    1    2    0    0  0.22776877336E+02  0.13896009033E+02  0.17459541844E+02  0.31886059801E+02  0.00000000000E+00 0.  1.
         11    1    3    3    0    0 -0.39030810102E+01  0.71784330586E+01  0.13365765383E+01  0.82795156654E+01  0.51100000000E-03 0. -1.
        -11    1    3    3    0    0  0.71827336991E-02 -0.67540535269E+01  0.11026756247E+02  0.12930840817E+02  0.51100000000E-03 0.  1.
         12    1    3    3    0    0 -0.18880979060E+02 -0.14320388565E+02 -0.29822874630E+02  0.38091583717E+02  0.00000000000E+00 0. -1.
</event>
<event>
 7    1  0.7444241E-013  0.5930190E+02  0.7816164E-02  0.1266605E+00
        -11   -1    0    0    0    0  0.00000000000E+00  0.00000000000E+00  0.45593999997E+02  0.45594000000E+02  0.51100000000E-03 0.  1.
         11   -1    0    0    0    0 -0.00000000000E+00 -0.00000000000E+00 -0.45593999997E+02  0.45594000000E+02  0.51100000000E-03 0. -1.
    9900012    2    1    2    0    0  0.27101721321E+02 -0.42187469457E+01  0.16261062911E+02  0.59301901284E+02  0.49999922046E+02 0.  0.
        -12    1    1    2    0    0 -0.27101721321E+02  0.42187469457E+01 -0.16261062911E+02  0.31886098716E+02  0.00000000000E+00 0.  1.
         11    1    3    3    0    0  0.10290548616E+02 -0.69161478587E+01 -0.10254316954E+02  0.16089733014E+02  0.51100000000E-03 0. -1.
        -11    1    3    3    0    0  0.14364394662E+02  0.14599407380E+02  0.10231855579E+02  0.22894746093E+02  0.51100000000E-03 0.  1.
         12    1    3    3    0    0  0.24467780427E+01 -0.11902006467E+02  0.16283524286E+02  0.20317422176E+02  0.00000000000E+00 0. -1.
</event>
<event>
 7    1  0.7444241E-013  0.5930186E+02  0.7816164E-02  0.1266605E+00
        -11   -1    0    0    0    0  0.00000000000E+00  0.00000000000E+00  0.45593999997E+02  0.45594000000E+02  0.51100000000E-03 0. -1.
         11   -1    0    0    0    0 -0.00000000000E+00 -0.00000000000E+00 -0.45593999997E+02  0.45594000000E+02  0.51100000000E-03 0.  1.
    9900012    2    1    2    0    0 -0.10236926079E+02 -0.35771315877E+01  0.29985584630E+02  0.59301861765E+02  0.49999849972E+02 0.  0.
        -12    1    1    2    0    0  0.10236926079E+02  0.35771315877E+01 -0.29985584630E+02  0.31886138235E+02  0.00000000000E+00 0.  1.
         11    1    3    3    0    0  0.43763199030E+01 -0.74033791246E+01 -0.51247276195E+01  0.10011245267E+02  0.51100000000E-03 0. -1.
        -11    1    3    3    0    0  0.62688229890E+01  0.98747956776E+00 -0.19658923926E+01  0.66436428805E+01  0.51100000000E-03 0.  1.
         12    1    3    3    0    0 -0.20882068971E+02  0.28387679692E+01  0.37076204642E+02  0.42646973618E+02  0.00000000000E+00 0. -1.
</event>
<event>
 7    1  0.7444241E-013  0.5930195E+02  0.7816164E-02  0.1266605E+00
        -11   -1    0    0    0    0  0.00000000000E+00  0.00000000000E+00  0.45593999997E+02  0.45594000000E+02  0.51100000000E-03 0.  1.
         11   -1    0    0    0    0 -0.00000000000E+00 -0.00000000000E+00 -0.45593999997E+02  0.45594000000E+02  0.51100000000E-03 0. -1.
    9900012    2    1    2    0    0 -0.10252488966E+02 -0.29600596453E+02  0.59507366569E+01  0.59301951215E+02  0.50000013108E+02 0.  0.
        -12    1    1    2    0    0  0.10252488966E+02  0.29600596453E+02 -0.59507366569E+01  0.31886048785E+02  0.00000000000E+00 0.  1.
         11    1    3    3    0    0 -0.15397309829E+02 -0.48910087859E+01 -0.10376666075E+02  0.19200893625E+02  0.51100000000E-03 0. -1.
        -11    1    3    3    0    0 -0.50958316666E+01  0.57162813547E+00 -0.36474379689E+01  0.62926991901E+01  0.51100000000E-03 0.  1.
        -12    1    3    3    0    0  0.10240652529E+02 -0.25281215802E+02  0.19974840701E+02  0.33808358400E+02  0.00000000000E+00 0.  1.
</event>
<event>
 7    1  0.7444241E-013  0.5930193E+02  0.7816164E-02  0.1266605E+00
        -11   -1    0    0    0    0  0.00000000000E+00  0.00000000000E+00  0.45593999997E+02  0.45594000000E+02  0.51100000000E-03 0.  1.
         11   -1    0    0    0    0 -0.00000000000E+00 -0.00000000000E+00 -0.45593999997E+02  0.45594000000E+02  0.51100000000E-03 0. -1.
    9900012    2    1    2    0    0 -0.28223966833E+01 -0.29173734328E+02 -0.12555813426E+02  0.59301934886E+02  0.49999983328E+02 0.  0.
        -12    1    1    2    0    0  0.28223966833E+01  0.29173734328E+02  0.12555813426E+02  0.31886065114E+02  0.00000000000E+00 0.  1.
         11    1    3    3    0    0 -0.53333062443E+01 -0.27418632458E+02 -0.19357255846E+02  0.33984245108E+02  0.51100000000E-03 0. -1.
        -11    1    3    3    0    0  0.33741388908E+01 -0.85807969534E+00 -0.89053110575E+01  0.95616776410E+01  0.51100000000E-03 0.  1.
        -12    1    3    3    0    0 -0.86322932976E+00 -0.89702217451E+00  0.15706753478E+02  0.15756012138E+02  0.00000000000E+00 0.  1.
</event>
<event>
 7    1  0.7444241E-013  0.5930183E+02  0.7816164E-02  0.1266605E+00
        -11   -1    0    0    0    0  0.00000000000E+00  0.00000000000E+00  0.45593999997E+02  0.45594000000E+02  0.51100000000E-03 0. -1.
         11   -1    0    0    0    0 -0.00000000000E+00 -0.00000000000E+00 -0.45593999997E+02  0.45594000000E+02  0.51100000000E-03 0.  1.
    9900012    2    1    2    0    0 -0.16799384190E+02 -0.68193807970E+01  0.26229842601E+02  0.59301828914E+02  0.49999790060E+02 0.  0.
        -12    1    1    2    0    0  0.16799384190E+02  0.68193807970E+01 -0.26229842601E+02  0.31886171086E+02  0.00000000000E+00 0.  1.
         11    1    3    3    0    0 -0.53728754883E+01  0.63298885178E+01 -0.31821028917E+01  0.88916285761E+01  0.51100000000E-03 0. -1.
        -11    1    3    3    0    0 -0.56634100446E+01  0.85997253295E+01 -0.32062765198E+01  0.10784697421E+02  0.51100000000E-03 0.  1.
         12    1    3    3    0    0 -0.57630986574E+01 -0.21748994644E+02  0.32618222013E+02  0.39625502917E+02  0.00000000000E+00 0. -1.
</event>
<event>
 7    1  0.7444241E-013  0.5930192E+02  0.7816164E-02  0.1266605E+00
        -11   -1    0    0    0    0  0.00000000000E+00  0.00000000000E+00  0.45593999997E+02  0.45594000000E+02  0.51100000000E-03 0.  1.
         11   -1    0    0    0    0 -0.00000000000E+00 -0.00000000000E+00 -0.45593999997E+02  0.45594000000E+02  0.51100000000E-03 0. -1.
    9900012    2    1    2    0    0 -0.12738834527E+02  0.25604559214E+02 -0.14101442948E+02  0.59301920736E+02  0.49999957521E+02 0.  0.
        -12    1    1    2    0    0  0.12738834527E+02 -0.25604559214E+02  0.14101442948E+02  0.31886079264E+02  0.00000000000E+00 0.  1.
         11    1    3    3    0    0 -0.44173962967E+01  0.80845083586E+01 -0.24113311659E+02  0.25813261414E+02  0.51100000000E-03 0. -1.
        -11    1    3    3    0    0 -0.63068266024E+01  0.17179661677E+02 -0.44900667499E+01  0.18843501182E+02  0.51100000000E-03 0.  1.
        -12    1    3    3    0    0 -0.20146116275E+01  0.34038917844E+00  0.14501935461E+02  0.14645158139E+02  0.00000000000E+00 0.  1.
</event>
<event>
 7    1  0.7444241E-013  0.5930190E+02  0.7816164E-02  0.1266605E+00
        -11   -1    0    0    0    0  0.00000000000E+00  0.00000000000E+00  0.45593999997E+02  0.45594000000E+02  0.51100000000E-03 0.  1.
         11   -1    0    0    0    0 -0.00000000000E+00 -0.00000000000E+00 -0.45593999997E+02  0.45594000000E+02  0.51100000000E-03 0. -1.
    9900012    2    1    2    0    0  0.62406433314E+01  0.14283342208E+02 -0.27816614386E+02  0.59301897546E+02  0.49999915228E+02 0.  0.
        -12    1    1    2    0    0 -0.62406433314E+01 -0.14283342208E+02  0.27816614386E+02  0.31886102454E+02  0.00000000000E+00 0.  1.
         11    1    3    3    0    0 -0.70626405870E+01  0.94073840097E+01 -0.23867945190E+02  0.26609370038E+02  0.51100000000E-03 0. -1.
        -11    1    3    3    0    0  0.12095032602E+02 -0.11300573365E+01 -0.15454536834E+02  0.19657302771E+02  0.51100000000E-03 0.  1.
         12    1    3    3    0    0  0.12082513168E+01  0.60060155350E+01  0.11505867637E+02  0.13035224737E+02  0.00000000000E+00 0. -1.
</event>
<event>
 7    1  0.7444241E-013  0.5930194E+02  0.7816164E-02  0.1266605E+00
        -11   -1    0    0    0    0  0.00000000000E+00  0.00000000000E+00  0.45593999997E+02  0.45594000000E+02  0.51100000000E-03 0.  1.
         11   -1    0    0    0    0 -0.00000000000E+00 -0.00000000000E+00 -0.45593999997E+02  0.45594000000E+02  0.51100000000E-03 0. -1.
    9900012    2    1    2    0    0  0.27825584633E+02 -0.14290566532E+02 -0.61836501619E+01  0.59301937507E+02  0.49999988108E+02 0.  0.
        -12    1    1    2    0    0 -0.27825584633E+02  0.14290566532E+02  0.61836501619E+01  0.31886062493E+02  0.00000000000E+00 0.  1.
         11    1    3    3    0    0  0.22212648387E+02 -0.78968857137E+01 -0.11240292845E+02  0.26117173198E+02  0.51100000000E-03 0. -1.
        -11    1    3    3    0    0 -0.61799003237E+00  0.12646479263E+02  0.68830639734E+00  0.12680264800E+02  0.51100000000E-03 0.  1.
        -12    1    3    3    0    0  0.62309262789E+01 -0.19040160082E+02  0.43683362862E+01  0.20504499510E+02  0.00000000000E+00 0.  1.
</event>
<event>
 7    1  0.7444241E-013  0.5930195E+02  0.7816164E-02  0.1266605E+00
        -11   -1    0    0    0    0  0.00000000000E+00  0.00000000000E+00  0.45593999997E+02  0.45594000000E+02  0.51100000000E-03 0. -1.
         11   -1    0    0    0    0 -0.00000000000E+00 -0.00000000000E+00 -0.45593999997E+02  0.45594000000E+02  0.51100000000E-03 0.  1.
    9900012    2    1    2    0    0  0.73433781037E+01 -0.20910757071E+02  0.22924552774E+02  0.59301951591E+02  0.50000013794E+02 0.  0.
        -12    1    1    2    0    0 -0.73433781037E+01  0.20910757071E+02 -0.22924552774E+02  0.31886048409E+02  0.00000000000E+00 0.  1.
         11    1    3    3    0    0  0.16025784111E+02  0.40156898334E+01  0.23537163441E+02  0.28756731114E+02  0.51100000000E-03 0. -1.
        -11    1    3    3    0    0  0.12339730082E+01 -0.26593469779E+01  0.47547496383E+01  0.55859162290E+01  0.51100000000E-03 0.  1.
        -12    1    3    3    0    0 -0.99163790155E+01 -0.22267099927E+02 -0.53673603059E+01  0.24959304249E+02  0.00000000000E+00 0.  1.
</event>
<event>
 7    1  0.7444241E-013  0.5930194E+02  0.7816164E-02  0.1266605E+00
        -11   -1    0    0    0    0  0.00000000000E+00  0.00000000000E+00  0.45593999997E+02  0.45594000000E+02  0.51100000000E-03 0. -1.
         11   -1    0    0    0    0 -0.00000000000E+00 -0.00000000000E+00 -0.45593999997E+02  0.45594000000E+02  0.51100000000E-03 0.  1.
    9900012    2    1    2    0    0 -0.13678701511E+02  0.25685190273E+02  0.13033997557E+02  0.59301937736E+02  0.49999988525E+02 0.  0.
        -12    1    1    2    0    0  0.13678701511E+02 -0.25685190273E+02 -0.13033997557E+02  0.31886062264E+02  0.00000000000E+00 0.  1.
         11    1    3    3    0    0 -0.15195495783E+01  0.17500482990E+01  0.27050292796E+01  0.35621459311E+01  0.51100000000E-03 0. -1.
        -11    1    3    3    0    0 -0.26697494526E+02  0.20801267140E+02  0.18706631161E+02  0.38670233749E+02  0.51100000000E-03 0.  1.
         12    1    3    3    0    0  0.14538342593E+02  0.31338748339E+01 -0.83776628833E+01  0.17069558055E+02  0.00000000000E+00 0. -1.
</event>
<event>
 7    1  0.7444241E-013  0.5930193E+02  0.7816164E-02  0.1266605E+00
        -11   -1    0    0    0    0  0.00000000000E+00  0.00000000000E+00  0.45593999997E+02  0.45594000000E+02  0.51100000000E-03 0.  1.
         11   -1    0    0    0    0 -0.00000000000E+00 -0.00000000000E+00 -0.45593999997E+02  0.45594000000E+02  0.51100000000E-03 0. -1.
    9900012    2    1    2    0    0 -0.13762220416E+02  0.28736245420E+02 -0.12452700914E+01  0.59301933934E+02  0.49999981591E+02 0.  0.
        -12    1    1    2    0    0  0.13762220416E+02 -0.28736245420E+02  0.12452700914E+01  0.31886066066E+02  0.00000000000E+00 0.  1.
         11    1    3    3    0    0  0.68973916676E+00  0.24889484808E+02  0.73919690634E+01  0.25973128441E+02  0.51100000000E-03 0.  1.
        -11    1    3    3    0    0 -0.35140701659E+01  0.11829629905E+02  0.57125661634E+01  0.13598611887E+02  0.51100000000E-03 0. -1.
        -12    1    3    3    0    0 -0.10937889416E+02 -0.79828692934E+01 -0.14349805318E+02  0.19730193605E+02  0.00000000000E+00 0.  1.
</event>
<event>
 7    1  0.7444241E-013  0.5930189E+02  0.7816164E-02  0.1266605E+00
        -11   -1    0    0    0    0  0.00000000000E+00  0.00000000000E+00  0.45593999997E+02  0.45594000000E+02  0.51100000000E-03 0.  1.
         11   -1    0    0    0    0 -0.00000000000E+00 -0.00000000000E+00 -0.45593999997E+02  0.45594000000E+02  0.51100000000E-03 0. -1.
    9900012    2    1    2    0    0 -0.11583727618E+02  0.22705147399E+02 -0.19157704958E+02  0.59301888240E+02  0.49999898256E+02 0.  0.
        -12    1    1    2    0    0  0.11583727618E+02 -0.22705147399E+02  0.19157704958E+02  0.31886111760E+02  0.00000000000E+00 0.  1.
         11    1    3    3    0    0  0.11840772819E+02  0.16297243708E+02 -0.11238397307E+01  0.20175903187E+02  0.51100000000E-03 0. -1.
        -11    1    3    3    0    0 -0.39821769992E+01  0.57710782121E+01  0.52691133283E+01  0.87707829132E+01  0.51100000000E-03 0.  1.
        -12    1    3    3    0    0 -0.19442323438E+02  0.63682547905E+00 -0.23302978556E+02  0.30355202139E+02  0.00000000000E+00 0.  1.
</event>
<event>
 7    1  0.7444241E-013  0.5930201E+02  0.7816164E-02  0.1266605E+00
        -11   -1    0    0    0    0  0.00000000000E+00  0.00000000000E+00  0.45593999997E+02  0.45594000000E+02  0.51100000000E-03 0. -1.
         11   -1    0    0    0    0 -0.00000000000E+00 -0.00000000000E+00 -0.45593999997E+02  0.45594000000E+02  0.51100000000E-03 0.  1.
    9900012    2    1    2    0    0  0.48597984519E+01  0.26546323085E+02  0.16982086042E+02  0.59302013162E+02  0.50000126084E+02 0.  0.
        -12    1    1    2    0    0 -0.48597984519E+01 -0.26546323085E+02 -0.16982086042E+02  0.31885986838E+02  0.00000000000E+00 0.  1.
         11    1    3    3    0    0 -0.81806630856E+00  0.32527724326E+02 -0.19267593787E+01  0.32595007046E+02  0.51100000000E-03 0.  1.
        -11    1    3    3    0    0  0.31497708883E+01  0.33617507126E+01  0.15925661638E+02  0.16578574226E+02  0.51100000000E-03 0. -1.
        -12    1    3    3    0    0  0.25280938722E+01 -0.93431519544E+01  0.29831837834E+01  0.10128431890E+02  0.00000000000E+00 0.  1.
</event>
<event>
 7    1  0.7444241E-013  0.5930197E+02  0.7816164E-02  0.1266605E+00
        -11   -1    0    0    0    0  0.00000000000E+00  0.00000000000E+00  0.45593999997E+02  0.45594000000E+02  0.51100000000E-03 0.  1.
         11   -1    0    0    0    0 -0.00000000000E+00 -0.00000000000E+00 -0.45593999997E+02  0.45594000000E+02  0.51100000000E-03 0. -1.
    9900012    2    1    2    0    0 -0.16159381074E+02  0.27314797787E+02  0.30814347662E+01  0.59301968340E+02  0.50000044340E+02 0.  0.
        -12    1    1    2    0    0  0.16159381074E+02 -0.27314797787E+02 -0.30814347662E+01  0.31886031660E+02  0.00000000000E+00 0.  1.
         11    1    3    3    0    0 -0.90375424382E+01  0.11212926011E+02  0.19025956822E+02  0.23861976371E+02  0.51100000000E-03 0. -1.
        -11    1    3    3    0    0  0.41717592207E+00 -0.72723464738E+00  0.64079772016E+01  0.64625906616E+01  0.51100000000E-03 0.  1.
        -12    1    3    3    0    0 -0.75390145574E+01  0.16829106422E+02 -0.22352499258E+02  0.28977401308E+02  0.00000000000E+00 0.  1.
</event>
<event>
 7    1  0.7444241E-013  0.5930196E+02  0.7816164E-02  0.1266605E+00
        -11   -1    0    0    0    0  0.00000000000E+00  0.00000000000E+00  0.45593999997E+02  0.45594000000E+02  0.51100000000E-03 0.  1.
         11   -1    0    0    0    0 -0.00000000000E+00 -0.00000000000E+00 -0.45593999997E+02  0.45594000000E+02  0.51100000000E-03 0. -1.
    9900012    2    1    2    0    0 -0.11605609037E+02 -0.75816215793E+01 -0.28714946514E+02  0.59301963868E+02  0.50000036185E+02 0.  0.
        -12    1    1    2    0    0  0.11605609037E+02  0.75816215793E+01  0.28714946514E+02  0.31886036132E+02  0.00000000000E+00 0.  1.
         11    1    3    3    0    0  0.65239389574E+01  0.24802920465E+01 -0.14795604193E+02  0.16359203277E+02  0.51100000000E-03 0. -1.
        -11    1    3    3    0    0  0.31608911254E+01 -0.15035715603E+02  0.25442328169E+01  0.15573602579E+02  0.51100000000E-03 0.  1.
         12    1    3    3    0    0 -0.21290439120E+02  0.49738019768E+01 -0.16463575138E+02  0.27369158013E+02  0.00000000000E+00 0. -1.
</event>
<event>
 7    1  0.7444241E-013  0.5930193E+02  0.7816164E-02  0.1266605E+00
        -11   -1    0    0    0    0  0.00000000000E+00  0.00000000000E+00  0.45593999997E+02  0.45594000000E+02  0.51100000000E-03 0.  1.
         11   -1    0    0    0    0 -0.00000000000E+00 -0.00000000000E+00 -0.45593999997E+02  0.45594000000E+02  0.51100000000E-03 0. -1.
    9900012    2    1    2    0    0 -0.24302773953E+02  0.18214450849E+02 -0.97123937309E+01  0.59301927280E+02  0.49999969456E+02 0.  0.
        -12    1    1    2    0    0  0.24302773953E+02 -0.18214450849E+02  0.97123937309E+01  0.31886072720E+02  0.00000000000E+00 0.  1.
         11    1    3    3    0    0 -0.13820691507E+02 -0.73463459685E+01 -0.75392412384E+01  0.17372981078E+02  0.51100000000E-03 0. -1.
        -11    1    3    3    0    0 -0.15574085793E+02  0.15582271506E+02 -0.13629156737E+02  0.25905853531E+02  0.51100000000E-03 0.  1.
        -12    1    3    3    0    0  0.50920033467E+01  0.99785253116E+01  0.11456004245E+02  0.16023092671E+02  0.00000000000E+00 0.  1.
</event>
<event>
 7    1  0.7444241E-013  0.5930187E+02  0.7816164E-02  0.1266605E+00
        -11   -1    0    0    0    0  0.00000000000E+00  0.00000000000E+00  0.45593999997E+02  0.45594000000E+02  0.51100000000E-03 0. -1.
         11   -1    0    0    0    0 -0.00000000000E+00 -0.00000000000E+00 -0.45593999997E+02  0.45594000000E+02  0.51100000000E-03 0.  1.
    9900012    2    1    2    0    0 -0.85939561756E+01 -0.21691921879E+02  0.21733145831E+02  0.59301871585E+02  0.49999867882E+02 0.  0.
        -12    1    1    2    0    0  0.85939561756E+01  0.21691921879E+02 -0.21733145831E+02  0.31886128415E+02  0.00000000000E+00 0.  1.
         11    1    3    3    0    0 -0.23497661606E+02 -0.13682748296E+02  0.20756404795E+02  0.34207982141E+02  0.51100000000E-03 0. -1.
        -11    1    3    3    0    0 -0.10886436998E+00  0.44860630705E+01 -0.26735986715E+01  0.52234800125E+01  0.51100000000E-03 0.  1.
        -12    1    3    3    0    0  0.15012569800E+02 -0.12495236653E+02  0.36503397081E+01  0.19870409432E+02  0.00000000000E+00 0.  1.
</event>
<event>
 7    1  0.7444241E-013  0.5930195E+02  0.7816164E-02  0.1266605E+00
        -11   -1    0    0    0    0  0.00000000000E+00  0.00000000000E+00  0.45593999997E+02  0.45594000000E+02  0.51100000000E-03 0.  1.
         11   -1    0    0    0    0 -0.00000000000E+00 -0.00000000000E+00 -0.45593999997E+02  0.45594000000E+02  0.51100000000E-03 0. -1.
    9900012    2    1    2    0    0  0.16884541357E+02 -0.19712566991E+02 -0.18521526500E+02  0.59301953238E+02  0.50000016798E+02 0.  0.
        -12    1    1    2    0    0 -0.16884541357E+02  0.19712566991E+02  0.18521526500E+02  0.31886046762E+02  0.00000000000E+00 0.  1.
         11    1    3    3    0    0  0.18652884645E+01 -0.14815617980E+02 -0.16027657696E+02  0.21905881599E+02  0.51100000000E-03 0. -1.
        -11    1    3    3    0    0  0.27712044319E+01 -0.16292988051E+02  0.72371240670E+01  0.18042089642E+02  0.51100000000E-03 0.  1.
         12    1    3    3    0    0  0.12248048461E+02  0.11396039039E+02 -0.97309928710E+01  0.19353981997E+02  0.00000000000E+00 0. -1.
</event>
<event>
 7    1  0.7444241E-013  0.5930194E+02  0.7816164E-02  0.1266605E+00
        -11   -1    0    0    0    0  0.00000000000E+00  0.00000000000E+00  0.45593999997E+02  0.45594000000E+02  0.51100000000E-03 0. -1.
         11   -1    0    0    0    0 -0.00000000000E+00 -0.00000000000E+00 -0.45593999997E+02  0.45594000000E+02  0.51100000000E-03 0.  1.
    9900012    2    1    2    0    0  0.14145312782E+02  0.18917991723E+02  0.21418221967E+02  0.59301944791E+02  0.50000001393E+02 0.  0.
        -12    1    1    2    0    0 -0.14145312782E+02 -0.18917991723E+02 -0.21418221967E+02  0.31886055209E+02  0.00000000000E+00 0.  1.
         11    1    3    3    0    0 -0.67862689516E+01 -0.99410298467E+01  0.57566865885E+01  0.13342299706E+02  0.51100000000E-03 0. -1.
        -11    1    3    3    0    0  0.27589377317E+01 -0.43582417147E+01  0.33265553607E+01  0.61377503273E+01  0.51100000000E-03 0.  1.
        -12    1    3    3    0    0  0.18172644002E+02  0.33217263284E+02  0.12334980018E+02  0.39821894759E+02  0.00000000000E+00 0.  1.
</event>
<event>
 7    1  0.7444241E-013  0.5930195E+02  0.7816164E-02  0.1266605E+00
        -11   -1    0    0    0    0  0.00000000000E+00  0.00000000000E+00  0.45593999997E+02  0.45594000000E+02  0.51100000000E-03 0.  1.
         11   -1    0    0    0    0 -0.00000000000E+00 -0.00000000000E+00 -0.45593999997E+02  0.45594000000E+02  0.51100000000E-03 0. -1.
    9900012    2    1    2    0    0  0.64669080962E+01  0.30746079394E+02 -0.54385696276E+01  0.59301947595E+02  0.50000006505E+02 0.  0.
        -12    1    1    2    0    0 -0.64669080962E+01 -0.30746079394E+02  0.54385696276E+01  0.31886052405E+02  0.00000000000E+00 0.  1.
         11    1    3    3    0    0  0.66939308755E+01 -0.76217831582E+01  0.31073940142E+01  0.10609250063E+02  0.51100000000E-03 0.  1.
        -11    1    3    3    0    0  0.38779548514E+01 -0.29775579722E+01 -0.49996639155E+01  0.69929267719E+01  0.51100000000E-03 0. -1.
        -12    1    3    3    0    0 -0.41049776308E+01  0.41345420524E+02 -0.35462997263E+01  0.41699770760E+02  0.00000000000E+00 0.  1.
</event>
<event>
 7    1  0.7444241E-013  0.5930196E+02  0.7816164E-02  0.1266605E+00
        -11   -1    0    0    0    0  0.00000000000E+00  0.00000000000E+00  0.45593999997E+02  0.45594000000E+02  0.51100000000E-03 0.  1.
         11   -1    0    0    0    0 -0.00000000000E+00 -0.00000000000E+00 -0.45593999997E+02  0.45594000000E+02  0.51100000000E-03 0. -1.
    9900012    2    1    2    0    0  0.17144434325E+02  0.53384580328E+01 -0.26349363603E+02  0.59301957210E+02  0.50000024042E+02 0.  0.
        -12    1    1    2    0    0 -0.17144434325E+02 -0.53384580328E+01  0.26349363603E+02  0.31886042790E+02  0.00000000000E+00 0.  1.
         11    1    3    3    0    0 -0.15568700593E+01  0.11764155289E+02 -0.24478873070E+02  0.27203573682E+02  0.51100000000E-03 0. -1.
        -11    1    3    3    0    0 -0.62196382985E+01 -0.26950471458E+01 -0.12460674955E+01  0.68920145202E+01  0.51100000000E-03 0.  1.
        -12    1    3    3    0    0  0.24920942683E+02 -0.37306501108E+01 -0.62442303809E+00  0.25206369008E+02  0.00000000000E+00 0.  1.
</event>
<event>
 7    1  0.7444241E-013  0.5930196E+02  0.7816164E-02  0.1266605E+00
        -11   -1    0    0    0    0  0.00000000000E+00  0.00000000000E+00  0.45593999997E+02  0.45594000000E+02  0.51100000000E-03 0.  1.
         11   -1    0    0    0    0 -0.00000000000E+00 -0.00000000000E+00 -0.45593999997E+02  0.45594000000E+02  0.51100000000E-03 0. -1.
    9900012    2    1    2    0    0  0.13407874080E+01  0.11006313009E+02 -0.29896199824E+02  0.59301962290E+02  0.50000033307E+02 0.  0.
        -12    1    1    2    0    0 -0.13407874080E+01 -0.11006313009E+02  0.29896199824E+02  0.31886037710E+02  0.00000000000E+00 0.  1.
         11    1    3    3    0    0  0.13341462623E+01 -0.36543199306E+01 -0.21658393647E+02  0.22004999797E+02  0.51100000000E-03 0.  1.
        -11    1    3    3    0    0 -0.12761507514E+02 -0.21551542794E+01  0.31328217066E+01  0.13315980478E+02  0.51100000000E-03 0. -1.
         12    1    3    3    0    0  0.12768148659E+02  0.16815787219E+02 -0.11370627883E+02  0.23980982016E+02  0.00000000000E+00 0. -1.
</event>
<event>
 7    1  0.7444241E-013  0.5930194E+02  0.7816164E-02  0.1266605E+00
        -11   -1    0    0    0    0  0.00000000000E+00  0.00000000000E+00  0.45593999997E+02  0.45594000000E+02  0.51100000000E-03 0.  1.
         11   -1    0    0    0    0 -0.00000000000E+00 -0.00000000000E+00 -0.45593999997E+02  0.45594000000E+02  0.51100000000E-03 0. -1.
    9900012    2    1    2    0    0  0.50674717686E+01  0.24063272570E+02 -0.20297795440E+02  0.59301939462E+02  0.49999991673E+02 0.  0.
        -12    1    1    2    0    0 -0.50674717686E+01 -0.24063272570E+02  0.20297795440E+02  0.31886060538E+02  0.00000000000E+00 0.  1.
         11    1    3    3    0    0  0.15718493454E+02  0.73744003379E+01 -0.60443686141E+01  0.18384428438E+02  0.51100000000E-03 0. -1.
        -11    1    3    3    0    0 -0.64415225983E+01  0.22011733411E+02  0.22776571969E+01  0.23047718840E+02  0.51100000000E-03 0.  1.
        -12    1    3    3    0    0 -0.42094990869E+01 -0.53228611790E+01 -0.16531084023E+02  0.17869792183E+02  0.00000000000E+00 0.  1.
</event>
<event>
 7    1  0.7444241E-013  0.5930192E+02  0.7816164E-02  0.1266605E+00
        -11   -1    0    0    0    0  0.00000000000E+00  0.00000000000E+00  0.45593999997E+02  0.45594000000E+02  0.51100000000E-03 0. -1.
         11   -1    0    0    0    0 -0.00000000000E+00 -0.00000000000E+00 -0.45593999997E+02  0.45594000000E+02  0.51100000000E-03 0.  1.
    9900012    2    1    2    0    0 -0.72619700369E+01 -0.19512896189E+02  0.24150207067E+02  0.59301924232E+02  0.49999963897E+02 0.  0.
        -12    1    1    2    0    0  0.72619700369E+01  0.19512896189E+02 -0.24150207067E+02  0.31886075768E+02  0.00000000000E+00 0.  1.
         11    1    3    3    0    0 -0.96722869232E+01  0.16595491108E+01  0.18967474770E+02  0.21355850182E+02  0.51100000000E-03 0. -1.
        -11    1    3    3    0    0  0.13387334671E+02 -0.86972878180E+01  0.12013708435E+02  0.19979808198E+02  0.51100000000E-03 0.  1.
        -12    1    3    3    0    0 -0.10977017785E+02 -0.12475157482E+02 -0.68309761383E+01  0.17966265852E+02  0.00000000000E+00 0.  1.
</event>
<event>
 7    1  0.7444241E-013  0.5930194E+02  0.7816164E-02  0.1266605E+00
        -11   -1    0    0    0    0  0.00000000000E+00  0.00000000000E+00  0.45593999997E+02  0.45594000000E+02  0.51100000000E-03 0.  1.
         11   -1    0    0    0    0 -0.00000000000E+00 -0.00000000000E+00 -0.45593999997E+02  0.45594000000E+02  0.51100000000E-03 0. -1.
    9900012    2    1    2    0    0  0.25961061677E+02 -0.16771411552E+02  0.78398777017E+01  0.59301942683E+02  0.49999997548E+02 0.  0.
        -12    1    1    2    0    0 -0.25961061677E+02  0.16771411552E+02 -0.78398777017E+01  0.31886057317E+02  0.00000000000E+00 0.  1.
         11    1    3    3    0    0  0.10173820530E+02  0.70852471051E+01  0.17012090677E+01  0.12514050634E+02  0.51100000000E-03 0. -1.
        -11    1    3    3    0    0 -0.23207580878E+01 -0.21071464685E+00  0.15417728403E+02  0.15592840285E+02  0.51100000000E-03 0.  1.
         12    1    3    3    0    0  0.18107999235E+02 -0.23645944010E+02 -0.92790597692E+01  0.31195051765E+02  0.00000000000E+00 0. -1.
</event>
<event>
 7    1  0.7444241E-013  0.5930194E+02  0.7816164E-02  0.1266605E+00
        -11   -1    0    0    0    0  0.00000000000E+00  0.00000000000E+00  0.45593999997E+02  0.45594000000E+02  0.51100000000E-03 0.  1.
         11   -1    0    0    0    0 -0.00000000000E+00 -0.00000000000E+00 -0.45593999997E+02  0.45594000000E+02  0.51100000000E-03 0. -1.
    9900012    2    1    2    0    0  0.44682395745E+01  0.22744106002E+02 -0.21896598537E+02  0.59301944267E+02  0.50000000436E+02 0.  0.
        -12    1    1    2    0    0 -0.44682395745E+01 -0.22744106002E+02  0.21896598537E+02  0.31886055733E+02  0.00000000000E+00 0.  1.
         11    1    3    3    0    0 -0.15645641388E+02  0.11232876477E+00 -0.12676501192E+02  0.20136841731E+02  0.51100000000E-03 0. -1.
        -11    1    3    3    0    0  0.10819314661E+02 -0.22048580534E+01 -0.56616898749E+01  0.12408613995E+02  0.51100000000E-03 0.  1.
        -12    1    3    3    0    0  0.92945663008E+01  0.24836635291E+02 -0.35584074707E+01  0.26756488540E+02  0.00000000000E+00 0.  1.
</event>
<event>
 7    1  0.7444241E-013  0.5930197E+02  0.7816164E-02  0.1266605E+00
        -11   -1    0    0    0    0  0.00000000000E+00  0.00000000000E+00  0.45593999997E+02  0.45594000000E+02  0.51100000000E-03 0.  1.
         11   -1    0    0    0    0 -0.00000000000E+00 -0.00000000000E+00 -0.45593999997E+02  0.45594000000E+02  0.51100000000E-03 0. -1.
    9900012    2    1    2    0    0 -0.23513749688E+01  0.22002566030E+02 -0.22958164454E+02  0.59301965577E+02  0.50000039301E+02 0.  0.
        -12    1    1    2    0    0  0.23513749688E+01 -0.22002566030E+02  0.22958164454E+02  0.31886034423E+02  0.00000000000E+00 0.  1.
         11    1    3    3    0    0  0.25917952149E+00  0.19012410836E+01 -0.51140136008E+01  0.54621449132E+01  0.51100000000E-03 0. -1.
        -11    1    3    3    0    0  0.14501324335E+02  0.23641870791E+02 -0.22547318152E+02  0.35743643044E+02  0.51100000000E-03 0.  1.
        -12    1    3    3    0    0 -0.17111878825E+02 -0.35405458450E+01  0.47031672986E+01  0.18096177620E+02  0.00000000000E+00 0.  1.
</event>
<event>
 7    1  0.7444241E-013  0.5930194E+02  0.7816164E-02  0.1266605E+00
        -11   -1    0    0    0    0  0.00000000000E+00  0.00000000000E+00  0.45593999997E+02  0.45594000000E+02  0.51100000000E-03 0. -1.
         11   -1    0    0    0    0 -0.00000000000E+00 -0.00000000000E+00 -0.45593999997E+02  0.45594000000E+02  0.51100000000E-03 0.  1.
    9900012    2    1    2    0    0  0.46325192572E+01  0.27673875035E+02  0.15146515614E+02  0.59301944593E+02  0.50000001032E+02 0.  0.
        -12    1    1    2    0    0 -0.46325192572E+01 -0.27673875035E+02 -0.15146515614E+02  0.31886055407E+02  0.00000000000E+00 0.  1.
         11    1    3    3    0    0  0.52663191343E+01  0.97558282167E+01  0.10976438999E+02  0.15601042106E+02  0.51100000000E-03 0. -1.
        -11    1    3    3    0    0  0.13027735950E+02  0.17973204434E+02  0.14551407324E+02  0.26542445949E+02  0.51100000000E-03 0.  1.
        -12    1    3    3    0    0 -0.13661535827E+02 -0.55157615059E-01 -0.10381330708E+02  0.17158456539E+02  0.00000000000E+00 0.  1.
</event>
<event>
 7    1  0.7444241E-013  0.5930195E+02  0.7816164E-02  0.1266605E+00
        -11   -1    0    0    0    0  0.00000000000E+00  0.00000000000E+00  0.45593999997E+02  0.45594000000E+02  0.51100000000E-03 0.  1.
         11   -1    0    0    0    0 -0.00000000000E+00 -0.00000000000E+00 -0.45593999997E+02  0.45594000000E+02  0.51100000000E-03 0. -1.
    9900012    2    1    2    0    0  0.19882168278E+02 -0.14946320868E+02 -0.19950615079E+02  0.59301950308E+02  0.50000011454E+02 0.  0.
        -12    1    1    2    0    0 -0.19882168278E+02  0.14946320868E+02  0.19950615079E+02  0.31886049692E+02  0.00000000000E+00 0.  1.
         11    1    3    3    0    0  0.15515712815E+02 -0.99296361826E+01 -0.18950802986E+02  0.26428544284E+02  0.51100000000E-03 0. -1.
        -11    1    3    3    0    0 -0.93572900629E+01 -0.57256991446E+01 -0.11262466204E+02  0.15722138953E+02  0.51100000000E-03 0.  1.
        -12    1    3    3    0    0  0.13723745526E+02  0.70901445915E+00  0.10262654111E+02  0.17151267071E+02  0.00000000000E+00 0.  1.
</event>
<event>
 7    1  0.7444241E-013  0.5930194E+02  0.7816164E-02  0.1266605E+00
        -11   -1    0    0    0    0  0.00000000000E+00  0.00000000000E+00  0.45593999997E+02  0.45594000000E+02  0.51100000000E-03 0.  1.
         11   -1    0    0    0    0 -0.00000000000E+00 -0.00000000000E+00 -0.45593999997E+02  0.45594000000E+02  0.51100000000E-03 0. -1.
    9900012    2    1    2    0    0  0.30148434081E+02  0.37762480971E+00 -0.10375451386E+02  0.59301942397E+02  0.49999997025E+02 0.  0.
        -12    1    1    2    0    0 -0.30148434081E+02 -0.37762480971E+00  0.10375451386E+02  0.31886057603E+02  0.00000000000E+00 0.  1.
         11    1    3    3    0    0  0.43842946216E+01  0.71582308719E+01 -0.19913891219E+02  0.21610769821E+02  0.51100000000E-03 0. -1.
        -11    1    3    3    0    0  0.84031541072E+01  0.91078850255E+01  0.26213115471E+00  0.12394970012E+02  0.51100000000E-03 0.  1.
        -12    1    3    3    0    0  0.17360985352E+02 -0.15888491088E+02  0.92763086783E+01  0.25296202564E+02  0.00000000000E+00 0.  1.
</event>
<event>
 7    1  0.7444241E-013  0.5930195E+02  0.7816164E-02  0.1266605E+00
        -11   -1    0    0    0    0  0.00000000000E+00  0.00000000000E+00  0.45593999997E+02  0.45594000000E+02  0.51100000000E-03 0.  1.
         11   -1    0    0    0    0 -0.00000000000E+00 -0.00000000000E+00 -0.45593999997E+02  0.45594000000E+02  0.51100000000E-03 0. -1.
    9900012    2    1    2    0    0  0.31735423724E+02  0.82476899155E+00 -0.29838038428E+01  0.59301945866E+02  0.50000003353E+02 0.  0.
        -12    1    1    2    0    0 -0.31735423724E+02 -0.82476899155E+00  0.29838038428E+01  0.31886054134E+02  0.00000000000E+00 0.  1.
         11    1    3    3    0    0  0.99064481535E+01  0.12315110513E+02 -0.34961724571E+01  0.16187120932E+02  0.51100000000E-03 0.  1.
        -11    1    3    3    0    0 -0.45402377547E+01 -0.11319068402E+02  0.92808238271E+01  0.15325428527E+02  0.51100000000E-03 0. -1.
         12    1    3    3    0    0  0.26369213325E+02 -0.17127311973E+00 -0.87684552128E+01  0.27789396407E+02  0.00000000000E+00 0. -1.
</event>
<event>
 7    1  0.7444241E-013  0.5930197E+02  0.7816164E-02  0.1266605E+00
        -11   -1    0    0    0    0  0.00000000000E+00  0.00000000000E+00  0.45593999997E+02  0.45594000000E+02  0.51100000000E-03 0.  1.
         11   -1    0    0    0    0 -0.00000000000E+00 -0.00000000000E+00 -0.45593999997E+02  0.45594000000E+02  0.51100000000E-03 0. -1.
    9900012    2    1    2    0    0 -0.11814074284E+02  0.28132260732E+02 -0.92586597205E+01  0.59301965049E+02  0.50000038337E+02 0.  0.
        -12    1    1    2    0    0  0.11814074284E+02 -0.28132260732E+02  0.92586597205E+01  0.31886034951E+02  0.00000000000E+00 0.  1.
         11    1    3    3    0    0  0.64041454574E+01 -0.14720164369E+01 -0.63824208620E+01  0.91605244256E+01  0.51100000000E-03 0. -1.
        -11    1    3    3    0    0  0.38357386371E+01  0.18611148164E+02 -0.13497268691E+02  0.23308024139E+02  0.51100000000E-03 0.  1.
         12    1    3    3    0    0 -0.22053958379E+02  0.10993129005E+02  0.10621029833E+02  0.26833416484E+02  0.00000000000E+00 0. -1.
</event>
<event>
 7    1  0.7444241E-013  0.5930193E+02  0.7816164E-02  0.1266605E+00
        -11   -1    0    0    0    0  0.00000000000E+00  0.00000000000E+00  0.45593999997E+02  0.45594000000E+02  0.51100000000E-03 0.  1.
         11   -1    0    0    0    0 -0.00000000000E+00 -0.00000000000E+00 -0.45593999997E+02  0.45594000000E+02  0.51100000000E-03 0. -1.
    9900012    2    1    2    0    0  0.37543656656E+00 -0.28695508199E+02  0.13897776252E+02  0.59301932068E+02  0.49999978188E+02 0.  0.
        -12    1    1    2    0    0 -0.37543656656E+00  0.28695508199E+02 -0.13897776252E+02  0.31886067932E+02  0.00000000000E+00 0.  1.
         11    1    3    3    0    0 -0.85480556766E+01 -0.30112672127E+02  0.15730054029E+02  0.35032511736E+02  0.51100000000E-03 0. -1.
        -11    1    3    3    0    0 -0.43633679416E+01 -0.22545522234E+01  0.65114764546E+01  0.81560597964E+01  0.51100000000E-03 0.  1.
         12    1    3    3    0    0  0.13286860185E+02  0.36717161516E+01 -0.83437542318E+01  0.16113360536E+02  0.00000000000E+00 0. -1.
</event>
<event>
 7    1  0.7444241E-013  0.5930194E+02  0.7816164E-02  0.1266605E+00
        -11   -1    0    0    0    0  0.00000000000E+00  0.00000000000E+00  0.45593999997E+02  0.45594000000E+02  0.51100000000E-03 0.  1.
         11   -1    0    0    0    0 -0.00000000000E+00 -0.00000000000E+00 -0.45593999997E+02  0.45594000000E+02  0.51100000000E-03 0. -1.
    9900012    2    1    2    0    0  0.74270174850E+01  0.73298443641E+01 -0.30130277074E+02  0.59301940292E+02  0.49999993188E+02 0.  0.
        -12    1    1    2    0    0 -0.74270174850E+01 -0.73298443641E+01  0.30130277074E+02  0.31886059708E+02  0.00000000000E+00 0.  1.
         11    1    3    3    0    0  0.27257039911E+01  0.11107660173E+02 -0.21905622193E+02  0.24711654350E+02  0.51100000000E-03 0. -1.
        -11    1    3    3    0    0 -0.57838500680E+01  0.39878688094E+01 -0.17316438954E+02  0.18687297225E+02  0.51100000000E-03 0.  1.
        -12    1    3    3    0    0  0.10485163562E+02 -0.77656846182E+01  0.90917840739E+01  0.15902988718E+02  0.00000000000E+00 0.  1.
</event>
<event>
 7    1  0.7444241E-013  0.5930171E+02  0.7816164E-02  0.1266606E+00
        -11   -1    0    0    0    0  0.00000000000E+00  0.00000000000E+00  0.45593999997E+02  0.45594000000E+02  0.51100000000E-03 0.  1.
         11   -1    0    0    0    0 -0.00000000000E+00 -0.00000000000E+00 -0.45593999997E+02  0.45594000000E+02  0.51100000000E-03 0. -1.
    9900012    2    1    2    0    0 -0.71444049431E+01 -0.23353542880E+02 -0.20501344156E+02  0.59301708286E+02  0.49999570062E+02 0.  0.
        -12    1    1    2    0    0  0.71444049431E+01  0.23353542880E+02  0.20501344156E+02  0.31886291714E+02  0.00000000000E+00 0.  1.
         11    1    3    3    0    0  0.13324778863E+02  0.11804716359E+01 -0.85193189916E+01  0.15859446440E+02  0.51100000000E-03 0. -1.
        -11    1    3    3    0    0 -0.75704659482E+01 -0.80031197659E+01  0.86645693429E+01  0.14015585711E+02  0.51100000000E-03 0.  1.
         12    1    3    3    0    0 -0.12898717858E+02 -0.16530894750E+02 -0.20646594507E+02  0.29426676135E+02  0.00000000000E+00 0. -1.
</event>
<event>
 7    1  0.7444241E-013  0.5930195E+02  0.7816164E-02  0.1266605E+00
        -11   -1    0    0    0    0  0.00000000000E+00  0.00000000000E+00  0.45593999997E+02  0.45594000000E+02  0.51100000000E-03 0.  1.
         11   -1    0    0    0    0 -0.00000000000E+00 -0.00000000000E+00 -0.45593999997E+02  0.45594000000E+02  0.51100000000E-03 0. -1.
    9900012    2    1    2    0    0  0.21078772784E+02  0.68745815853E+01 -0.22916058344E+02  0.59301948754E+02  0.50000008619E+02 0.  0.
        -12    1    1    2    0    0 -0.21078772784E+02 -0.68745815853E+01  0.22916058344E+02  0.31886051246E+02  0.00000000000E+00 0.  1.
         11    1    3    3    0    0  0.57812452707E+01  0.26823569467E+01 -0.71309500562E+01  0.95639053025E+01  0.51100000000E-03 0. -1.
        -11    1    3    3    0    0 -0.38579887561E+01  0.13863067220E+02 -0.22973144584E+02  0.27107823267E+02  0.51100000000E-03 0.  1.
        -12    1    3    3    0    0  0.19155516270E+02 -0.96708425811E+01  0.71880362959E+01  0.22630220184E+02  0.00000000000E+00 0.  1.
</event>
<event>
 7    1  0.7444241E-013  0.5930193E+02  0.7816164E-02  0.1266605E+00
        -11   -1    0    0    0    0  0.00000000000E+00  0.00000000000E+00  0.45593999997E+02  0.45594000000E+02  0.51100000000E-03 0.  1.
         11   -1    0    0    0    0 -0.00000000000E+00 -0.00000000000E+00 -0.45593999997E+02  0.45594000000E+02  0.51100000000E-03 0. -1.
    9900012    2    1    2    0    0 -0.12229986707E+02 -0.10103031192E+02 -0.27660033250E+02  0.59301933238E+02  0.49999980322E+02 0.  0.
        -12    1    1    2    0    0  0.12229986707E+02  0.10103031192E+02  0.27660033250E+02  0.31886066762E+02  0.00000000000E+00 0.  1.
         11    1    3    3    0    0  0.25080014217E+01 -0.98973713207E+01 -0.12772820036E+02  0.16352154663E+02  0.51100000000E-03 0. -1.
        -11    1    3    3    0    0  0.16430505082E+01 -0.83547902988E+01 -0.21790212747E+02  0.23394775223E+02  0.51100000000E-03 0.  1.
        -12    1    3    3    0    0 -0.16381038637E+02  0.81491304270E+01  0.69029995323E+01  0.19555003352E+02  0.00000000000E+00 0.  1.
</event>
<event>
 7    1  0.7444241E-013  0.5930195E+02  0.7816164E-02  0.1266605E+00
        -11   -1    0    0    0    0  0.00000000000E+00  0.00000000000E+00  0.45593999997E+02  0.45594000000E+02  0.51100000000E-03 0.  1.
         11   -1    0    0    0    0 -0.00000000000E+00 -0.00000000000E+00 -0.45593999997E+02  0.45594000000E+02  0.51100000000E-03 0. -1.
    9900012    2    1    2    0    0  0.17478480095E+02  0.17810073684E+02 -0.19850038265E+02  0.59301952735E+02  0.50000015880E+02 0.  0.
        -12    1    1    2    0    0 -0.17478480095E+02 -0.17810073684E+02  0.19850038265E+02  0.31886047265E+02  0.00000000000E+00 0.  1.
         11    1    3    3    0    0  0.24135588193E+00  0.40356165193E+01  0.37012738386E+01  0.54812299388E+01  0.51100000000E-03 0. -1.
        -11    1    3    3    0    0  0.78232708858E+01 -0.30182838278E+01  0.11260895264E+02  0.14039991703E+02  0.51100000000E-03 0.  1.
         12    1    3    3    0    0  0.94138533272E+01  0.16792740993E+02 -0.34812207368E+02  0.39780731093E+02  0.00000000000E+00 0. -1.
</event>
<event>
 7    1  0.7444241E-013  0.5930194E+02  0.7816164E-02  0.1266605E+00
        -11   -1    0    0    0    0  0.00000000000E+00  0.00000000000E+00  0.45593999997E+02  0.45594000000E+02  0.51100000000E-03 0.  1.
         11   -1    0    0    0    0 -0.00000000000E+00 -0.00000000000E+00 -0.45593999997E+02  0.45594000000E+02  0.51100000000E-03 0. -1.
    9900012    2    1    2    0    0 -0.10125530776E+02 -0.29604245198E+02  0.61467907615E+01  0.59301941230E+02  0.49999994897E+02 0.  0.
        -12    1    1    2    0    0  0.10125530776E+02  0.29604245198E+02 -0.61467907615E+01  0.31886058770E+02  0.00000000000E+00 0.  1.
         11    1    3    3    0    0 -0.58489109141E+01 -0.32262527715E+02  0.43433936589E+00  0.32791296168E+02  0.51100000000E-03 0. -1.
        -11    1    3    3    0    0  0.10711945561E+02  0.38565932313E+00  0.27128979906E+01  0.11056867846E+02  0.51100000000E-03 0.  1.
        -12    1    3    3    0    0 -0.14988565422E+02  0.22726231938E+01  0.29995534050E+01  0.15453777215E+02  0.00000000000E+00 0.  1.
</event>
<event>
 7    1  0.7444241E-013  0.5930195E+02  0.7816164E-02  0.1266605E+00
        -11   -1    0    0    0    0  0.00000000000E+00  0.00000000000E+00  0.45593999997E+02  0.45594000000E+02  0.51100000000E-03 0.  1.
         11   -1    0    0    0    0 -0.00000000000E+00 -0.00000000000E+00 -0.45593999997E+02  0.45594000000E+02  0.51100000000E-03 0. -1.
    9900012    2    1    2    0    0 -0.27988977280E+02 -0.13271556707E+02  0.75632772407E+01  0.59301949301E+02  0.50000009616E+02 0.  0.
        -12    1    1    2    0    0  0.27988977280E+02  0.13271556707E+02 -0.75632772407E+01  0.31886050699E+02  0.00000000000E+00 0.  1.
         11    1    3    3    0    0 -0.13976653433E+02 -0.16693554068E+01  0.89418826755E+01  0.16676056329E+02  0.51100000000E-03 0. -1.
        -11    1    3    3    0    0 -0.21360384099E+01 -0.66619100361E+01  0.18031209333E+02  0.19340843200E+02  0.51100000000E-03 0.  1.
         12    1    3    3    0    0 -0.11876285437E+02 -0.49402912644E+01 -0.19409814768E+02  0.23285049772E+02  0.00000000000E+00 0. -1.
</event>
<event>
 7    1  0.7444241E-013  0.5930195E+02  0.7816164E-02  0.1266605E+00
        -11   -1    0    0    0    0  0.00000000000E+00  0.00000000000E+00  0.45593999997E+02  0.45594000000E+02  0.51100000000E-03 0. -1.
         11   -1    0    0    0    0 -0.00000000000E+00 -0.00000000000E+00 -0.45593999997E+02  0.45594000000E+02  0.51100000000E-03 0.  1.
    9900012    2    1    2    0    0  0.22065281041E+02 -0.22922323263E+02 -0.21001341042E+01  0.59301951414E+02  0.50000013471E+02 0.  0.
        -12    1    1    2    0    0 -0.22065281041E+02  0.22922323263E+02  0.21001341042E+01  0.31886048586E+02  0.00000000000E+00 0.  1.
         11    1    3    3    0    0  0.72978088267E+01  0.26394984038E+01  0.10074623779E+02  0.12717036213E+02  0.51100000000E-03 0. -1.
        -11    1    3    3    0    0 -0.94476884259E+01 -0.23725660767E+01  0.23903738220E+01  0.10030043552E+02  0.51100000000E-03 0.  1.
        -12    1    3    3    0    0  0.24215160640E+02 -0.23189255590E+02 -0.14565131706E+02  0.36554871649E+02  0.00000000000E+00 0.  1.
</event>
<event>
 7    1  0.7444241E-013  0.5930195E+02  0.7816164E-02  0.1266605E+00
        -11   -1    0    0    0    0  0.00000000000E+00  0.00000000000E+00  0.45593999997E+02  0.45594000000E+02  0.51100000000E-03 0.  1.
         11   -1    0    0    0    0 -0.00000000000E+00 -0.00000000000E+00 -0.45593999997E+02  0.45594000000E+02  0.51100000000E-03 0. -1.
    9900012    2    1    2    0    0  0.10327336933E+02  0.47548333388E+01 -0.29790236091E+02  0.59301945140E+02  0.50000002028E+02 0.  0.
        -12    1    1    2    0    0 -0.10327336933E+02 -0.47548333388E+01  0.29790236091E+02  0.31886054860E+02  0.00000000000E+00 0.  1.
         11    1    3    3    0    0  0.28481866065E+01 -0.10891277401E+02  0.41668481118E+00  0.11265243755E+02  0.51100000000E-03 0. -1.
        -11    1    3    3    0    0  0.16813899746E+02  0.15839163995E+02 -0.88656473766E+01  0.24742393668E+02  0.51100000000E-03 0.  1.
         12    1    3    3    0    0 -0.93347494195E+01 -0.19305325527E+00 -0.21341273525E+02  0.23294307716E+02  0.00000000000E+00 0. -1.
</event>
<event>
 7    1  0.7444241E-013  0.5930192E+02  0.7816164E-02  0.1266605E+00
        -11   -1    0    0    0    0  0.00000000000E+00  0.00000000000E+00  0.45593999997E+02  0.45594000000E+02  0.51100000000E-03 0.  1.
         11   -1    0    0    0    0 -0.00000000000E+00 -0.00000000000E+00 -0.45593999997E+02  0.45594000000E+02  0.51100000000E-03 0. -1.
    9900012    2    1    2    0    0  0.41836058975E+01 -0.33974373865E+01 -0.31427331822E+02  0.59301916444E+02  0.49999949694E+02 0.  0.
        -12    1    1    2    0    0 -0.41836058975E+01  0.33974373865E+01  0.31427331822E+02  0.31886083556E+02  0.00000000000E+00 0.  1.
         11    1    3    3    0    0 -0.75030370472E-01 -0.86936233085E+01 -0.18010535198E+02  0.19999102334E+02  0.51100000000E-03 0. -1.
        -11    1    3    3    0    0 -0.11046067758E+01 -0.11265999047E+02 -0.18033613084E+02  0.21292113371E+02  0.51100000000E-03 0.  1.
        -12    1    3    3    0    0  0.53632430437E+01  0.16562184969E+02  0.46168164603E+01  0.18010700739E+02  0.00000000000E+00 0.  1.
</event>
<event>
 7    1  0.7444241E-013  0.5930197E+02  0.7816164E-02  0.1266605E+00
        -11   -1    0    0    0    0  0.00000000000E+00  0.00000000000E+00  0.45593999997E+02  0.45594000000E+02  0.51100000000E-03 0.  1.
         11   -1    0    0    0    0 -0.00000000000E+00 -0.00000000000E+00 -0.45593999997E+02  0.45594000000E+02  0.51100000000E-03 0. -1.
    9900012    2    1    2    0    0 -0.17617958782E+02  0.25940549000E+02  0.57805118957E+01  0.59301970585E+02  0.50000048434E+02 0.  0.
        -12    1    1    2    0    0  0.17617958782E+02 -0.25940549000E+02 -0.57805118957E+01  0.31886029415E+02  0.00000000000E+00 0.  1.
         11    1    3    3    0    0 -0.21659923669E+02  0.16115154857E+02  0.13500042043E+02  0.30184460321E+02  0.51100000000E-03 0. -1.
        -11    1    3    3    0    0  0.67670934764E+01 -0.69126074228E-01  0.79160953161E+01  0.10414552215E+02  0.51100000000E-03 0.  1.
         12    1    3    3    0    0 -0.27251285892E+01  0.98945202169E+01 -0.15635625463E+02  0.18702958049E+02  0.00000000000E+00 0. -1.
</event>
<event>
 7    1  0.7444241E-013  0.5930214E+02  0.7816164E-02  0.1266604E+00
        -11   -1    0    0    0    0  0.00000000000E+00  0.00000000000E+00  0.45593999997E+02  0.45594000000E+02  0.51100000000E-03 0. -1.
         11   -1    0    0    0    0 -0.00000000000E+00 -0.00000000000E+00 -0.45593999997E+02  0.45594000000E+02  0.51100000000E-03 0.  1.
    9900012    2    1    2    0    0 -0.22759397288E+02  0.18757581901E+02  0.12119031922E+02  0.59302141404E+02  0.50000359965E+02 0.  0.
        -12    1    1    2    0    0  0.22759397288E+02 -0.18757581901E+02 -0.12119031922E+02  0.31885858596E+02  0.00000000000E+00 0.  1.
         11    1    3    3    0    0 -0.86459519588E+01  0.25899951181E+02  0.15069112378E+02  0.31187146464E+02  0.51100000000E-03 0. -1.
        -11    1    3    3    0    0  0.41940994102E+01  0.40201756832E+00 -0.67456821266E+01  0.79533839089E+01  0.51100000000E-03 0.  1.
         12    1    3    3    0    0 -0.18307544739E+02 -0.75443868484E+01  0.37956016710E+01  0.20161611031E+02  0.00000000000E+00 0. -1.
</event>
<event>
 7    1  0.7444241E-013  0.5930193E+02  0.7816164E-02  0.1266605E+00
        -11   -1    0    0    0    0  0.00000000000E+00  0.00000000000E+00  0.45593999997E+02  0.45594000000E+02  0.51100000000E-03 0. -1.
         11   -1    0    0    0    0 -0.00000000000E+00 -0.00000000000E+00 -0.45593999997E+02  0.45594000000E+02  0.51100000000E-03 0.  1.
    9900012    2    1    2    0    0  0.19231488598E+02  0.12403506322E+02  0.22204148151E+02  0.59301932229E+02  0.49999978483E+02 0.  0.
        -12    1    1    2    0    0 -0.19231488598E+02 -0.12403506322E+02 -0.22204148151E+02  0.31886067771E+02  0.00000000000E+00 0.  1.
         11    1    3    3    0    0  0.17107901699E+02  0.31447043368E+01  0.16135452129E+01  0.17469201308E+02  0.51100000000E-03 0. -1.
        -11    1    3    3    0    0  0.15829259464E+02  0.81307116997E-01  0.49857420416E+00  0.15837318034E+02  0.51100000000E-03 0.  1.
         12    1    3    3    0    0 -0.13705672565E+02  0.91774948681E+01  0.20092028734E+02  0.25995412887E+02  0.00000000000E+00 0. -1.
</event>
<event>
 7    1  0.7444241E-013  0.5930192E+02  0.7816164E-02  0.1266605E+00
        -11   -1    0    0    0    0  0.00000000000E+00  0.00000000000E+00  0.45593999997E+02  0.45594000000E+02  0.51100000000E-03 0.  1.
         11   -1    0    0    0    0 -0.00000000000E+00 -0.00000000000E+00 -0.45593999997E+02  0.45594000000E+02  0.51100000000E-03 0. -1.
    9900012    2    1    2    0    0  0.13951835356E+02 -0.26666320239E+02  0.10534510134E+02  0.59301917634E+02  0.49999951864E+02 0.  0.
        -12    1    1    2    0    0 -0.13951835356E+02  0.26666320239E+02 -0.10534510134E+02  0.31886082366E+02  0.00000000000E+00 0.  1.
         11    1    3    3    0    0 -0.89024901782E+01 -0.21261851979E+01 -0.48813704637E+00  0.91658754577E+01  0.51100000000E-03 0. -1.
        -11    1    3    3    0    0 -0.67147058532E+01 -0.11991970322E+02  0.11637061569E+02  0.18008770894E+02  0.51100000000E-03 0.  1.
        -12    1    3    3    0    0  0.29569031387E+02 -0.12548164719E+02 -0.61441438764E+00  0.32127271282E+02  0.00000000000E+00 0.  1.
</event>
<event>
 7    1  0.7444241E-013  0.5930193E+02  0.7816164E-02  0.1266605E+00
        -11   -1    0    0    0    0  0.00000000000E+00  0.00000000000E+00  0.45593999997E+02  0.45594000000E+02  0.51100000000E-03 0. -1.
         11   -1    0    0    0    0 -0.00000000000E+00 -0.00000000000E+00 -0.45593999997E+02  0.45594000000E+02  0.51100000000E-03 0.  1.
    9900012    2    1    2    0    0 -0.26997510717E+02 -0.31534061031E+01  0.16670681224E+02  0.59301934588E+02  0.49999982784E+02 0.  0.
        -12    1    1    2    0    0  0.26997510717E+02  0.31534061031E+01 -0.16670681224E+02  0.31886065412E+02  0.00000000000E+00 0.  1.
         11    1    3    3    0    0 -0.12152056200E+02 -0.14139319894E+02  0.13495212844E+02  0.23015507966E+02  0.51100000000E-03 0. -1.
        -11    1    3    3    0    0 -0.12361018155E+02 -0.94393775020E+01  0.19397297032E+01  0.15673518081E+02  0.51100000000E-03 0.  1.
         12    1    3    3    0    0 -0.24844363621E+01  0.20425291293E+02  0.12357386767E+01  0.20612908541E+02  0.00000000000E+00 0. -1.
</event>
<event>
 7    1  0.7444241E-013  0.5930192E+02  0.7816164E-02  0.1266605E+00
        -11   -1    0    0    0    0  0.00000000000E+00  0.00000000000E+00  0.45593999997E+02  0.45594000000E+02  0.51100000000E-03 0. -1.
         11   -1    0    0    0    0 -0.00000000000E+00 -0.00000000000E+00 -0.45593999997E+02  0.45594000000E+02  0.51100000000E-03 0.  1.
    9900012    2    1    2    0    0  0.16431919463E+02  0.34240715207E+01  0.27110700702E+02  0.59301916271E+02  0.49999949378E+02 0.  0.
        -12    1    1    2    0    0 -0.16431919463E+02 -0.34240715207E+01 -0.27110700702E+02  0.31886083729E+02  0.00000000000E+00 0.  1.
         11    1    3    3    0    0 -0.84854408700E+00 -0.53143516236E+00  0.32199552096E+02  0.32215114556E+02  0.51100000000E-03 0. -1.
        -11    1    3    3    0    0  0.12963031734E+01 -0.65261836019E+01  0.15867195397E+01  0.68402597525E+01  0.51100000000E-03 0.  1.
        -12    1    3    3    0    0  0.15984160376E+02  0.10481690285E+02 -0.66755709333E+01  0.20246541963E+02  0.00000000000E+00 0.  1.
</event>
<event>
 7    1  0.7444241E-013  0.5930195E+02  0.7816164E-02  0.1266605E+00
        -11   -1    0    0    0    0  0.00000000000E+00  0.00000000000E+00  0.45593999997E+02  0.45594000000E+02  0.51100000000E-03 0.  1.
         11   -1    0    0    0    0 -0.00000000000E+00 -0.00000000000E+00 -0.45593999997E+02  0.45594000000E+02  0.51100000000E-03 0. -1.
    9900012    2    1    2    0    0  0.30503266945E+01 -0.12225033962E+02 -0.29291027621E+02  0.59301949015E+02  0.50000009095E+02 0.  0.
        -12    1    1    2    0    0 -0.30503266945E+01  0.12225033962E+02  0.29291027621E+02  0.31886050985E+02  0.00000000000E+00 0.  1.
         11    1    3    3    0    0  0.66321274357E+01 -0.17883415150E+02 -0.26898424860E+02  0.32974640437E+02  0.51100000000E-03 0. -1.
        -11    1    3    3    0    0  0.10551018214E+02 -0.87319490714E+00 -0.18587624499E+01  0.10749021016E+02  0.51100000000E-03 0.  1.
         12    1    3    3    0    0 -0.14132818955E+02  0.65315760944E+01 -0.53384031136E+00  0.15578287562E+02  0.00000000000E+00 0. -1.
</event>
<event>
 7    1  0.7444241E-013  0.5930195E+02  0.7816164E-02  0.1266605E+00
        -11   -1    0    0    0    0  0.00000000000E+00  0.00000000000E+00  0.45593999997E+02  0.45594000000E+02  0.51100000000E-03 0.  1.
         11   -1    0    0    0    0 -0.00000000000E+00 -0.00000000000E+00 -0.45593999997E+02  0.45594000000E+02  0.51100000000E-03 0. -1.
    9900012    2    1    2    0    0  0.66025012983E+01  0.31194780165E+02 -0.11404076569E+00  0.59301947591E+02  0.50000006498E+02 0.  0.
        -12    1    1    2    0    0 -0.66025012983E+01 -0.31194780165E+02  0.11404076569E+00  0.31886052409E+02  0.00000000000E+00 0.  1.
         11    1    3    3    0    0  0.17271261298E+01  0.21099471414E+02 -0.83613191508E+01  0.22761421679E+02  0.51100000000E-03 0. -1.
        -11    1    3    3    0    0  0.98083753480E+01  0.87809794535E+01 -0.10670472564E+02  0.16946055946E+02  0.51100000000E-03 0.  1.
        -12    1    3    3    0    0 -0.49330001794E+01  0.13143292973E+01  0.18917750949E+02  0.19594469966E+02  0.00000000000E+00 0.  1.
</event>
<event>
 7    1  0.7444241E-013  0.5930195E+02  0.7816164E-02  0.1266605E+00
        -11   -1    0    0    0    0  0.00000000000E+00  0.00000000000E+00  0.45593999997E+02  0.45594000000E+02  0.51100000000E-03 0.  1.
         11   -1    0    0    0    0 -0.00000000000E+00 -0.00000000000E+00 -0.45593999997E+02  0.45594000000E+02  0.51100000000E-03 0. -1.
    9900012    2    1    2    0    0 -0.31879650588E+02  0.55822402093E+00 -0.31006119529E+00  0.59301954876E+02  0.50000019785E+02 0.  0.
        -12    1    1    2    0    0  0.31879650588E+02 -0.55822402093E+00  0.31006119529E+00  0.31886045124E+02  0.00000000000E+00 0.  1.
         11    1    3    3    0    0 -0.12831603032E+02  0.87406578151E+01  0.49791154097E+01  0.16304622840E+02  0.51100000000E-03 0. -1.
        -11    1    3    3    0    0 -0.15947066139E+02  0.63121798936E+01  0.11462998536E+02  0.20628932817E+02  0.51100000000E-03 0.  1.
        -12    1    3    3    0    0 -0.31009814165E+01 -0.14494613688E+02 -0.16752175141E+02  0.22368399220E+02  0.00000000000E+00 0.  1.
</event>
<event>
 7    1  0.7444241E-013  0.5930196E+02  0.7816164E-02  0.1266605E+00
        -11   -1    0    0    0    0  0.00000000000E+00  0.00000000000E+00  0.45593999997E+02  0.45594000000E+02  0.51100000000E-03 0.  1.
         11   -1    0    0    0    0 -0.00000000000E+00 -0.00000000000E+00 -0.45593999997E+02  0.45594000000E+02  0.51100000000E-03 0. -1.
    9900012    2    1    2    0    0 -0.14433811783E+02  0.27827101894E+02 -0.58341419718E+01  0.59301957051E+02  0.50000023752E+02 0.  0.
        -12    1    1    2    0    0  0.14433811783E+02 -0.27827101894E+02  0.58341419718E+01  0.31886042949E+02  0.00000000000E+00 0.  1.
         11    1    3    3    0    0 -0.15345946477E+01 -0.24731553283E-01 -0.16090364663E+02  0.16163397775E+02  0.51100000000E-03 0. -1.
        -11    1    3    3    0    0 -0.21337106629E+02  0.13543506086E+02  0.55674993215E+01  0.25878479966E+02  0.51100000000E-03 0.  1.
        -12    1    3    3    0    0  0.84378894933E+01  0.14308327361E+02  0.46887233698E+01  0.17260079310E+02  0.00000000000E+00 0.  1.
</event>
<event>
 7    1  0.7444241E-013  0.5930191E+02  0.7816164E-02  0.1266605E+00
        -11   -1    0    0    0    0  0.00000000000E+00  0.00000000000E+00  0.45593999997E+02  0.45594000000E+02  0.51100000000E-03 0.  1.
         11   -1    0    0    0    0 -0.00000000000E+00 -0.00000000000E+00 -0.45593999997E+02  0.45594000000E+02  0.51100000000E-03 0. -1.
    9900012    2    1    2    0    0 -0.30463693511E+02  0.40235750519E+01 -0.85144993151E+01  0.59301914051E+02  0.49999945330E+02 0.  0.
        -12    1    1    2    0    0  0.30463693511E+02 -0.40235750519E+01  0.85144993151E+01  0.31886085949E+02  0.00000000000E+00 0.  1.
         11    1    3    3    0    0 -0.13585629699E+02 -0.15177430231E+02 -0.73854519743E+01  0.21667224646E+02  0.51100000000E-03 0. -1.
        -11    1    3    3    0    0 -0.64726435300E+00 -0.65749117926E+01 -0.26922607855E+01  0.71341912381E+01  0.51100000000E-03 0.  1.
         12    1    3    3    0    0 -0.16230799459E+02  0.25775917076E+02  0.15632134448E+01  0.30500498167E+02  0.00000000000E+00 0. -1.
</event>
<event>
 7    1  0.7444241E-013  0.5930195E+02  0.7816164E-02  0.1266605E+00
        -11   -1    0    0    0    0  0.00000000000E+00  0.00000000000E+00  0.45593999997E+02  0.45594000000E+02  0.51100000000E-03 0.  1.
         11   -1    0    0    0    0 -0.00000000000E+00 -0.00000000000E+00 -0.45593999997E+02  0.45594000000E+02  0.51100000000E-03 0. -1.
    9900012    2    1    2    0    0 -0.52377322048E+01 -0.27736391935E+02 -0.14831678099E+02  0.59301953656E+02  0.50000017560E+02 0.  0.
        -12    1    1    2    0    0  0.52377322048E+01  0.27736391935E+02  0.14831678099E+02  0.31886046344E+02  0.00000000000E+00 0.  1.
         11    1    3    3    0    0  0.55143814411E+01 -0.19780464841E+02 -0.14507182901E+02  0.25142266166E+02  0.51100000000E-03 0. -1.
        -11    1    3    3    0    0 -0.89043897397E+01 -0.94001120038E+01 -0.14702797393E+02  0.19591388766E+02  0.51100000000E-03 0.  1.
        -12    1    3    3    0    0 -0.18477239062E+01  0.14441849094E+01  0.14378302196E+02  0.14568298724E+02  0.00000000000E+00 0.  1.
</event>
<event>
 7    1  0.7444241E-013  0.5930194E+02  0.7816164E-02  0.1266605E+00
        -11   -1    0    0    0    0  0.00000000000E+00  0.00000000000E+00  0.45593999997E+02  0.45594000000E+02  0.51100000000E-03 0. -1.
         11   -1    0    0    0    0 -0.00000000000E+00 -0.00000000000E+00 -0.45593999997E+02  0.45594000000E+02  0.51100000000E-03 0.  1.
    9900012    2    1    2    0    0  0.30705850782E+02 -0.40388880378E+01 -0.75867583480E+01  0.59301940491E+02  0.49999993549E+02 0.  0.
        -12    1    1    2    0    0 -0.30705850782E+02  0.40388880378E+01  0.75867583480E+01  0.31886059509E+02  0.00000000000E+00 0.  1.
         11    1    3    3    0    0 -0.55965855649E+01 -0.30780912500E+01 -0.17877157008E+02  0.18983918422E+02  0.51100000000E-03 0. -1.
        -11    1    3    3    0    0 -0.13596718651E-01  0.31283744480E+00 -0.19488521502E+01  0.19738482976E+01  0.51100000000E-03 0.  1.
         12    1    3    3    0    0  0.36316033065E+02 -0.12736342326E+01  0.12239250810E+02  0.38344173771E+02  0.00000000000E+00 0. -1.
</event>
<event>
 7    1  0.7444241E-013  0.5930195E+02  0.7816164E-02  0.1266605E+00
        -11   -1    0    0    0    0  0.00000000000E+00  0.00000000000E+00  0.45593999997E+02  0.45594000000E+02  0.51100000000E-03 0. -1.
         11   -1    0    0    0    0 -0.00000000000E+00 -0.00000000000E+00 -0.45593999997E+02  0.45594000000E+02  0.51100000000E-03 0.  1.
    9900012    2    1    2    0    0 -0.12421321881E+02 -0.17150322493E+02  0.23838994843E+02  0.59301945462E+02  0.50000002616E+02 0.  0.
        -12    1    1    2    0    0  0.12421321881E+02  0.17150322493E+02 -0.23838994843E+02  0.31886054538E+02  0.00000000000E+00 0.  1.
         11    1    3    3    0    0  0.14369650435E+02 -0.12330102703E+02  0.42944604767E+01  0.19415475203E+02  0.51100000000E-03 0.  1.
        -11    1    3    3    0    0 -0.10847881661E+02 -0.63291376204E+01  0.20281409093E+02  0.23855189679E+02  0.51100000000E-03 0. -1.
        -12    1    3    3    0    0 -0.15943090656E+02  0.15089178311E+01 -0.73687472687E+00  0.16031280580E+02  0.00000000000E+00 0.  1.
</event>
<event>
 7    1  0.7444241E-013  0.5930194E+02  0.7816164E-02  0.1266605E+00
        -11   -1    0    0    0    0  0.00000000000E+00  0.00000000000E+00  0.45593999997E+02  0.45594000000E+02  0.51100000000E-03 0.  1.
         11   -1    0    0    0    0 -0.00000000000E+00 -0.00000000000E+00 -0.45593999997E+02  0.45594000000E+02  0.51100000000E-03 0. -1.
    9900012    2    1    2    0    0  0.24064576980E+01 -0.21831406749E+02  0.23115350537E+02  0.59301940511E+02  0.49999993586E+02 0.  0.
        -12    1    1    2    0    0 -0.24064576980E+01  0.21831406749E+02 -0.23115350537E+02  0.31886059489E+02  0.00000000000E+00 0.  1.
         11    1    3    3    0    0 -0.85063343737E+01 -0.12330967209E+02 -0.43281709183E+00  0.14986587593E+02  0.51100000000E-03 0. -1.
        -11    1    3    3    0    0  0.48155923314E+01 -0.71723422054E+01  0.32278819854E+02  0.33414886408E+02  0.51100000000E-03 0.  1.
         12    1    3    3    0    0  0.60971997403E+01 -0.23280973342E+01 -0.87306522248E+01  0.10900466510E+02  0.00000000000E+00 0. -1.
</event>
<event>
 7    1  0.7444241E-013  0.5930199E+02  0.7816164E-02  0.1266605E+00
        -11   -1    0    0    0    0  0.00000000000E+00  0.00000000000E+00  0.45593999997E+02  0.45594000000E+02  0.51100000000E-03 0. -1.
         11   -1    0    0    0    0 -0.00000000000E+00 -0.00000000000E+00 -0.45593999997E+02  0.45594000000E+02  0.51100000000E-03 0.  1.
    9900012    2    1    2    0    0  0.31192190154E+02 -0.64435922126E+01  0.14982788056E+01  0.59301992934E+02  0.50000089194E+02 0.  0.
        -12    1    1    2    0    0 -0.31192190154E+02  0.64435922126E+01 -0.14982788056E+01  0.31886007066E+02  0.00000000000E+00 0.  1.
         11    1    3    3    0    0  0.14486651118E+02  0.21250119751E+01 -0.40576611392E+00  0.14647299509E+02  0.51100000000E-03 0. -1.
        -11    1    3    3    0    0  0.25893197299E+02  0.45902210012E+01  0.80002654797E+01  0.27486943141E+02  0.51100000000E-03 0.  1.
        -12    1    3    3    0    0 -0.91876582630E+01 -0.13158825189E+02 -0.60962205602E+01  0.17167750284E+02  0.00000000000E+00 0.  1.
</event>
<event>
 7    1  0.7444241E-013  0.5930194E+02  0.7816164E-02  0.1266605E+00
        -11   -1    0    0    0    0  0.00000000000E+00  0.00000000000E+00  0.45593999997E+02  0.45594000000E+02  0.51100000000E-03 0. -1.
         11   -1    0    0    0    0 -0.00000000000E+00 -0.00000000000E+00 -0.45593999997E+02  0.45594000000E+02  0.51100000000E-03 0.  1.
    9900012    2    1    2    0    0 -0.17877905754E+02 -0.13362942982E+02  0.22771323844E+02  0.59301938015E+02  0.49999989035E+02 0.  0.
        -12    1    1    2    0    0  0.17877905754E+02  0.13362942982E+02 -0.22771323844E+02  0.31886061985E+02  0.00000000000E+00 0.  1.
         11    1    3    3    0    0 -0.21432173925E+02 -0.23243421666E+02  0.11494104056E+02  0.33640885217E+02  0.51100000000E-03 0. -1.
        -11    1    3    3    0    0 -0.60337982420E+01  0.31214359040E+01 -0.27902961505E+01  0.73441021368E+01  0.51100000000E-03 0.  1.
        -12    1    3    3    0    0  0.95880664129E+01  0.67590427805E+01  0.14067515939E+02  0.18316950661E+02  0.00000000000E+00 0.  1.
</event>
<event>
 7    1  0.7444241E-013  0.5930194E+02  0.7816164E-02  0.1266605E+00
        -11   -1    0    0    0    0  0.00000000000E+00  0.00000000000E+00  0.45593999997E+02  0.45594000000E+02  0.51100000000E-03 0. -1.
         11   -1    0    0    0    0 -0.00000000000E+00 -0.00000000000E+00 -0.45593999997E+02  0.45594000000E+02  0.51100000000E-03 0.  1.
    9900012    2    1    2    0    0  0.30396481051E+02 -0.11091967740E+00 -0.96313141265E+01  0.59301943874E+02  0.49999999720E+02 0.  0.
        -12    1    1    2    0    0 -0.30396481051E+02  0.11091967740E+00  0.96313141265E+01  0.31886056126E+02  0.00000000000E+00 0.  1.
         11    1    3    3    0    0  0.20222927745E+02  0.12678940300E+02 -0.30988476251E+01  0.24069175112E+02  0.51100000000E-03 0.  1.
        -11    1    3    3    0    0  0.11152750610E+02 -0.22653071493E+01  0.10304798122E+02  0.15352665151E+02  0.51100000000E-03 0. -1.
         12    1    3    3    0    0 -0.97919730517E+00 -0.10524552828E+02 -0.16837264623E+02  0.19880103611E+02  0.00000000000E+00 0. -1.
</event>
<event>
 7    1  0.7444241E-013  0.5930196E+02  0.7816164E-02  0.1266605E+00
        -11   -1    0    0    0    0  0.00000000000E+00  0.00000000000E+00  0.45593999997E+02  0.45594000000E+02  0.51100000000E-03 0.  1.
         11   -1    0    0    0    0 -0.00000000000E+00 -0.00000000000E+00 -0.45593999997E+02  0.45594000000E+02  0.51100000000E-03 0. -1.
    9900012    2    1    2    0    0  0.23772587348E+02 -0.76382747659E+01 -0.19830286237E+02  0.59301962258E+02  0.50000033248E+02 0.  0.
        -12    1    1    2    0    0 -0.23772587348E+02  0.76382747659E+01  0.19830286237E+02  0.31886037742E+02  0.00000000000E+00 0.  1.
         11    1    3    3    0    0  0.18701676273E+02 -0.63103672137E+01 -0.22357911216E+01  0.19863841320E+02  0.51100000000E-03 0. -1.
        -11    1    3    3    0    0 -0.12505590168E+02 -0.63905344086E+01  0.21021674065E-01  0.14043829878E+02  0.51100000000E-03 0.  1.
         12    1    3    3    0    0  0.17576501244E+02  0.50626268564E+01 -0.17615516790E+02  0.25394291060E+02  0.00000000000E+00 0. -1.
</event>
<event>
 7    1  0.7444241E-013  0.5930194E+02  0.7816164E-02  0.1266605E+00
        -11   -1    0    0    0    0  0.00000000000E+00  0.00000000000E+00  0.45593999997E+02  0.45594000000E+02  0.51100000000E-03 0. -1.
         11   -1    0    0    0    0 -0.00000000000E+00 -0.00000000000E+00 -0.45593999997E+02  0.45594000000E+02  0.51100000000E-03 0.  1.
    9900012    2    1    2    0    0 -0.22182912148E+02 -0.22902841324E+02  0.31434670120E+00  0.59301944334E+02  0.50000000559E+02 0.  0.
        -12    1    1    2    0    0  0.22182912148E+02  0.22902841324E+02 -0.31434670120E+00  0.31886055666E+02  0.00000000000E+00 0.  1.
         11    1    3    3    0    0 -0.74543927117E+01 -0.12430700534E+02  0.89502163522E-01  0.14494767930E+02  0.51100000000E-03 0. -1.
        -11    1    3    3    0    0 -0.28183265716E+02 -0.56011422287E+01 -0.57438418093E+01  0.29302917597E+02  0.51100000000E-03 0.  1.
        -12    1    3    3    0    0  0.13454746280E+02 -0.48709985614E+01  0.59686863469E+01  0.15504258807E+02  0.00000000000E+00 0.  1.
</event>
<event>
 7    1  0.7444241E-013  0.5930191E+02  0.7816164E-02  0.1266605E+00
        -11   -1    0    0    0    0  0.00000000000E+00  0.00000000000E+00  0.45593999997E+02  0.45594000000E+02  0.51100000000E-03 0.  1.
         11   -1    0    0    0    0 -0.00000000000E+00 -0.00000000000E+00 -0.45593999997E+02  0.45594000000E+02  0.51100000000E-03 0. -1.
    9900012    2    1    2    0    0  0.11083233222E+02  0.26097901921E+02 -0.14587114473E+02  0.59301914446E+02  0.49999946050E+02 0.  0.
        -12    1    1    2    0    0 -0.11083233222E+02 -0.26097901921E+02  0.14587114473E+02  0.31886085554E+02  0.00000000000E+00 0.  1.
         11    1    3    3    0    0  0.10113859151E+02 -0.91147093577E+01 -0.21223204736E+01  0.13779416463E+02  0.51100000000E-03 0. -1.
        -11    1    3    3    0    0 -0.11824444474E+02  0.10517021811E+02 -0.63120834169E+01  0.17037242506E+02  0.51100000000E-03 0.  1.
         12    1    3    3    0    0  0.12793818545E+02  0.24695589468E+02 -0.61527105830E+01  0.28485255478E+02  0.00000000000E+00 0. -1.
</event>
<event>
 7    1  0.7444241E-013  0.5930197E+02  0.7816164E-02  0.1266605E+00
        -11   -1    0    0    0    0  0.00000000000E+00  0.00000000000E+00  0.45593999997E+02  0.45594000000E+02  0.51100000000E-03 0.  1.
         11   -1    0    0    0    0 -0.00000000000E+00 -0.00000000000E+00 -0.45593999997E+02  0.45594000000E+02  0.51100000000E-03 0. -1.
    9900012    2    1    2    0    0  0.89229142402E+01  0.30005959630E+02  0.60616037142E+01  0.59301967768E+02  0.50000043297E+02 0.  0.
        -12    1    1    2    0    0 -0.89229142402E+01 -0.30005959630E+02 -0.60616037142E+01  0.31886032232E+02  0.00000000000E+00 0.  1.
         11    1    3    3    0    0 -0.59225859402E+01  0.14957368330E+02  0.18871770459E+02  0.24798056619E+02  0.51100000000E-03 0.  1.
        -11    1    3    3    0    0 -0.36756851645E+00 -0.60297141783E+01 -0.22644604958E+01  0.64513828971E+01  0.51100000000E-03 0. -1.
        -12    1    3    3    0    0  0.15213068697E+02  0.21078305479E+02 -0.10545706249E+02  0.28052528252E+02  0.00000000000E+00 0.  1.
</event>
<event>
 7    1  0.7444241E-013  0.5930195E+02  0.7816164E-02  0.1266605E+00
        -11   -1    0    0    0    0  0.00000000000E+00  0.00000000000E+00  0.45593999997E+02  0.45594000000E+02  0.51100000000E-03 0. -1.
         11   -1    0    0    0    0 -0.00000000000E+00 -0.00000000000E+00 -0.45593999997E+02  0.45594000000E+02  0.51100000000E-03 0.  1.
    9900012    2    1    2    0    0 -0.22898390183E+02  0.38814019077E+01  0.21847629464E+02  0.59301945573E+02  0.50000002818E+02 0.  0.
        -12    1    1    2    0    0  0.22898390183E+02 -0.38814019077E+01 -0.21847629464E+02  0.31886054427E+02  0.00000000000E+00 0.  1.
         11    1    3    3    0    0  0.38923948422E+00 -0.20181318875E+01 -0.84284518236E+00  0.22214301596E+01  0.51100000000E-03 0. -1.
        -11    1    3    3    0    0  0.55625936862E+01 -0.16291107275E+01  0.26404970562E+02  0.27033662736E+02  0.51100000000E-03 0.  1.
         12    1    3    3    0    0 -0.28850223354E+02  0.75286445227E+01 -0.37144959156E+01  0.30046852677E+02  0.00000000000E+00 0. -1.
</event>
<event>
 7    1  0.7444241E-013  0.5930195E+02  0.7816164E-02  0.1266605E+00
        -11   -1    0    0    0    0  0.00000000000E+00  0.00000000000E+00  0.45593999997E+02  0.45594000000E+02  0.51100000000E-03 0. -1.
         11   -1    0    0    0    0 -0.00000000000E+00 -0.00000000000E+00 -0.45593999997E+02  0.45594000000E+02  0.51100000000E-03 0.  1.
    9900012    2    1    2    0    0 -0.11250587300E+00  0.31114219816E+02  0.69722906734E+01  0.59301950236E+02  0.50000011322E+02 0.  0.
        -12    1    1    2    0    0  0.11250587300E+00 -0.31114219816E+02 -0.69722906734E+01  0.31886049764E+02  0.00000000000E+00 0.  1.
         11    1    3    3    0    0 -0.24416909878E+01  0.29782494514E+02 -0.10763998402E+02  0.31761966189E+02  0.51100000000E-03 0. -1.
        -11    1    3    3    0    0 -0.20946155272E+00  0.48973319351E+01 -0.33933487035E+01  0.59617572837E+01  0.51100000000E-03 0.  1.
         12    1    3    3    0    0  0.25386466675E+01 -0.35656066328E+01  0.21129637779E+02  0.21578226763E+02  0.00000000000E+00 0. -1.
</event>
<event>
 7    1  0.7444241E-013  0.5930197E+02  0.7816164E-02  0.1266605E+00
        -11   -1    0    0    0    0  0.00000000000E+00  0.00000000000E+00  0.45593999997E+02  0.45594000000E+02  0.51100000000E-03 0. -1.
         11   -1    0    0    0    0 -0.00000000000E+00 -0.00000000000E+00 -0.45593999997E+02  0.45594000000E+02  0.51100000000E-03 0.  1.
    9900012    2    1    2    0    0 -0.16527478990E+01  0.39178351320E+01  0.31601237398E+02  0.59301965239E+02  0.50000038684E+02 0.  0.
        -12    1    1    2    0    0  0.16527478990E+01 -0.39178351320E+01 -0.31601237398E+02  0.31886034761E+02  0.00000000000E+00 0.  1.
         11    1    3    3    0    0 -0.67782494725E+01  0.17700036336E+02  0.32933232766E+01  0.19237513631E+02  0.51100000000E-03 0. -1.
        -11    1    3    3    0    0  0.30178255307E+01  0.63512892852E+01  0.29711438074E+01  0.76337305627E+01  0.51100000000E-03 0.  1.
         12    1    3    3    0    0  0.21076760429E+01 -0.20133490490E+02  0.25336770314E+02  0.32430721045E+02  0.00000000000E+00 0. -1.
</event>
<event>
 7    1  0.7444241E-013  0.5930194E+02  0.7816164E-02  0.1266605E+00
        -11   -1    0    0    0    0  0.00000000000E+00  0.00000000000E+00  0.45593999997E+02  0.45594000000E+02  0.51100000000E-03 0. -1.
         11   -1    0    0    0    0 -0.00000000000E+00 -0.00000000000E+00 -0.45593999997E+02  0.45594000000E+02  0.51100000000E-03 0.  1.
    9900012    2    1    2    0    0 -0.30476631082E+02 -0.48447434158E+01  0.80264691838E+01  0.59301940532E+02  0.49999993624E+02 0.  0.
        -12    1    1    2    0    0  0.30476631082E+02  0.48447434158E+01 -0.80264691838E+01  0.31886059468E+02  0.00000000000E+00 0.  1.
         11    1    3    3    0    0 -0.36046849562E+00  0.10102345431E+02 -0.65667603763E+01  0.12054445771E+02  0.51100000000E-03 0. -1.
        -11    1    3    3    0    0 -0.11420958946E+02 -0.98443000750E+01 -0.83335047847E+01  0.17227763914E+02  0.51100000000E-03 0.  1.
         12    1    3    3    0    0 -0.18695203640E+02 -0.51027887721E+01  0.22926734345E+02  0.30019730847E+02  0.00000000000E+00 0. -1.
</event>
<event>
 7    1  0.7444241E-013  0.5930195E+02  0.7816164E-02  0.1266605E+00
        -11   -1    0    0    0    0  0.00000000000E+00  0.00000000000E+00  0.45593999997E+02  0.45594000000E+02  0.51100000000E-03 0. -1.
         11   -1    0    0    0    0 -0.00000000000E+00 -0.00000000000E+00 -0.45593999997E+02  0.45594000000E+02  0.51100000000E-03 0.  1.
    9900012    2    1    2    0    0 -0.19294171849E+02 -0.25000172111E+02  0.44098536163E+01  0.59301945339E+02  0.50000002392E+02 0.  0.
        -12    1    1    2    0    0  0.19294171849E+02  0.25000172111E+02 -0.44098536163E+01  0.31886054661E+02  0.00000000000E+00 0.  1.
         11    1    3    3    0    0 -0.80556472191E+01 -0.10369383294E+00  0.14813070914E+02  0.16862125450E+02  0.51100000000E-03 0. -1.
        -11    1    3    3    0    0 -0.63606308824E+01  0.47576260503E+01  0.42462026070E+01  0.90068233965E+01  0.51100000000E-03 0.  1.
        -12    1    3    3    0    0 -0.48778937471E+01 -0.29654104328E+02 -0.14649419905E+02  0.33432996493E+02  0.00000000000E+00 0.  1.
</event>
<event>
 7    1  0.7444241E-013  0.5930211E+02  0.7816164E-02  0.1266604E+00
        -11   -1    0    0    0    0  0.00000000000E+00  0.00000000000E+00  0.45593999997E+02  0.45594000000E+02  0.51100000000E-03 0. -1.
         11   -1    0    0    0    0 -0.00000000000E+00 -0.00000000000E+00 -0.45593999997E+02  0.45594000000E+02  0.51100000000E-03 0.  1.
    9900012    2    1    2    0    0 -0.14492558289E+02  0.21565821255E+02  0.18482179092E+02  0.59302112273E+02  0.50000306838E+02 0.  0.
        -12    1    1    2    0    0  0.14492558289E+02 -0.21565821255E+02 -0.18482179092E+02  0.31885887727E+02  0.00000000000E+00 0.  1.
         11    1    3    3    0    0 -0.10545517447E+02  0.80036715105E+01 -0.45184393320E+01  0.13988673638E+02  0.51100000000E-03 0. -1.
        -11    1    3    3    0    0  0.10049694075E+02  0.12683176803E+02 -0.23405196221E+01  0.16350454341E+02  0.51100000000E-03 0.  1.
         12    1    3    3    0    0 -0.13996734917E+02  0.87897294239E+00  0.25341138046E+02  0.28962984294E+02  0.00000000000E+00 0. -1.
</event>
<event>
 7    1  0.7444241E-013  0.5930193E+02  0.7816164E-02  0.1266605E+00
        -11   -1    0    0    0    0  0.00000000000E+00  0.00000000000E+00  0.45593999997E+02  0.45594000000E+02  0.51100000000E-03 0.  1.
         11   -1    0    0    0    0 -0.00000000000E+00 -0.00000000000E+00 -0.45593999997E+02  0.45594000000E+02  0.51100000000E-03 0. -1.
    9900012    2    1    2    0    0  0.19535267758E+02 -0.14731536412E+02 -0.20446919695E+02  0.59301931310E+02  0.49999976807E+02 0.  0.
        -12    1    1    2    0    0 -0.19535267758E+02  0.14731536412E+02  0.20446919695E+02  0.31886068690E+02  0.00000000000E+00 0.  1.
         11    1    3    3    0    0  0.55347715069E+01  0.15008618669E+01 -0.14404969573E+02  0.15504497110E+02  0.51100000000E-03 0. -1.
        -11    1    3    3    0    0 -0.11969250578E+02 -0.42004464030E+01 -0.81839201439E+01  0.15095802681E+02  0.51100000000E-03 0.  1.
        -12    1    3    3    0    0  0.25969746829E+02 -0.12031951876E+02  0.21419700217E+01  0.28701631520E+02  0.00000000000E+00 0.  1.
</event>
<event>
 7    1  0.7444241E-013  0.5930195E+02  0.7816164E-02  0.1266605E+00
        -11   -1    0    0    0    0  0.00000000000E+00  0.00000000000E+00  0.45593999997E+02  0.45594000000E+02  0.51100000000E-03 0. -1.
         11   -1    0    0    0    0 -0.00000000000E+00 -0.00000000000E+00 -0.45593999997E+02  0.45594000000E+02  0.51100000000E-03 0.  1.
    9900012    2    1    2    0    0  0.29089679414E+02  0.12686623850E+02  0.30919578006E+01  0.59301951701E+02  0.50000013993E+02 0.  0.
        -12    1    1    2    0    0 -0.29089679414E+02 -0.12686623850E+02 -0.30919578006E+01  0.31886048299E+02  0.00000000000E+00 0.  1.
         11    1    3    3    0    0  0.11693223038E+02 -0.85069416349E+01  0.13671551559E+02  0.19900021189E+02  0.51100000000E-03 0. -1.
        -11    1    3    3    0    0 -0.60863235166E+01  0.96905434915E+01 -0.57653554345E+01  0.12813636902E+02  0.51100000000E-03 0.  1.
        -12    1    3    3    0    0  0.23482779892E+02  0.11503021994E+02 -0.48142383243E+01  0.26588293610E+02  0.00000000000E+00 0.  1.
</event>
<event>
 7    1  0.7444241E-013  0.5930195E+02  0.7816164E-02  0.1266605E+00
        -11   -1    0    0    0    0  0.00000000000E+00  0.00000000000E+00  0.45593999997E+02  0.45594000000E+02  0.51100000000E-03 0.  1.
         11   -1    0    0    0    0 -0.00000000000E+00 -0.00000000000E+00 -0.45593999997E+02  0.45594000000E+02  0.51100000000E-03 0. -1.
    9900012    2    1    2    0    0  0.16495739666E+02  0.16865042204E+02 -0.21451826321E+02  0.59301954021E+02  0.50000018225E+02 0.  0.
        -12    1    1    2    0    0 -0.16495739666E+02 -0.16865042204E+02  0.21451826321E+02  0.31886045979E+02  0.00000000000E+00 0.  1.
         11    1    3    3    0    0  0.14608134354E+02  0.26590932340E+02 -0.18190502084E+02  0.35374703368E+02  0.51100000000E-03 0. -1.
        -11    1    3    3    0    0  0.98916478648E+01 -0.95259046422E+01 -0.66196480263E+01  0.15244910527E+02  0.51100000000E-03 0.  1.
        -12    1    3    3    0    0 -0.80040425528E+01 -0.19998549358E+00  0.33583237892E+01  0.86823401256E+01  0.00000000000E+00 0.  1.
</event>
<event>
 7    1  0.7444241E-013  0.5930201E+02  0.7816164E-02  0.1266605E+00
        -11   -1    0    0    0    0  0.00000000000E+00  0.00000000000E+00  0.45593999997E+02  0.45594000000E+02  0.51100000000E-03 0. -1.
         11   -1    0    0    0    0 -0.00000000000E+00 -0.00000000000E+00 -0.45593999997E+02  0.45594000000E+02  0.51100000000E-03 0.  1.
    9900012    2    1    2    0    0 -0.75862207925E+01  0.30948730883E+02  0.11584082812E+01  0.59302006227E+02  0.50000113436E+02 0.  0.
        -12    1    1    2    0    0  0.75862207925E+01 -0.30948730883E+02 -0.11584082812E+01  0.31885993773E+02  0.00000000000E+00 0.  1.
         11    1    3    3    0    0 -0.32167250632E+01  0.13074825420E+02  0.56299615801E+01  0.14594342999E+02  0.51100000000E-03 0. -1.
        -11    1    3    3    0    0 -0.81877159531E+01 -0.10710927994E+02  0.49607075361E+01  0.14365628790E+02  0.51100000000E-03 0.  1.
         12    1    3    3    0    0  0.38182202237E+01  0.28584833456E+02 -0.94322608351E+01  0.30342034438E+02  0.00000000000E+00 0. -1.
</event>
<event>
 7    1  0.7444241E-013  0.5930195E+02  0.7816164E-02  0.1266605E+00
        -11   -1    0    0    0    0  0.00000000000E+00  0.00000000000E+00  0.45593999997E+02  0.45594000000E+02  0.51100000000E-03 0.  1.
         11   -1    0    0    0    0 -0.00000000000E+00 -0.00000000000E+00 -0.45593999997E+02  0.45594000000E+02  0.51100000000E-03 0. -1.
    9900012    2    1    2    0    0  0.25268273555E+02  0.96856852531E+01 -0.16864813932E+02  0.59301951386E+02  0.50000013419E+02 0.  0.
        -12    1    1    2    0    0 -0.25268273555E+02 -0.96856852531E+01  0.16864813932E+02  0.31886048614E+02  0.00000000000E+00 0.  1.
         11    1    3    3    0    0  0.13748986919E+02  0.53044535428E+01 -0.28642588075E+02  0.32211329072E+02  0.51100000000E-03 0. -1.
        -11    1    3    3    0    0 -0.55127888239E+01  0.28346928943E+01 -0.21493896345E+00  0.62026223035E+01  0.51100000000E-03 0.  1.
        -12    1    3    3    0    0  0.17032075460E+02  0.15465388160E+01  0.11992713106E+02  0.20888000010E+02  0.00000000000E+00 0.  1.
</event>
<event>
 7    1  0.7444241E-013  0.5930194E+02  0.7816164E-02  0.1266605E+00
        -11   -1    0    0    0    0  0.00000000000E+00  0.00000000000E+00  0.45593999997E+02  0.45594000000E+02  0.51100000000E-03 0.  1.
         11   -1    0    0    0    0 -0.00000000000E+00 -0.00000000000E+00 -0.45593999997E+02  0.45594000000E+02  0.51100000000E-03 0. -1.
    9900012    2    1    2    0    0  0.31864362959E+02  0.42056309753E+00 -0.10984295999E+01  0.59301936466E+02  0.49999986210E+02 0.  0.
        -12    1    1    2    0    0 -0.31864362959E+02 -0.42056309753E+00  0.10984295999E+01  0.31886063534E+02  0.00000000000E+00 0.  1.
         11    1    3    3    0    0 -0.44664072712E+01 -0.14821375116E+01  0.74881242432E+01  0.88440675290E+01  0.51100000000E-03 0. -1.
        -11    1    3    3    0    0  0.15100763694E+02  0.11144374008E+02  0.95389602907E+01  0.21052835910E+02  0.51100000000E-03 0.  1.
         12    1    3    3    0    0  0.21230006536E+02 -0.92416733984E+01 -0.18125514134E+02  0.29405033027E+02  0.00000000000E+00 0. -1.
</event>
<event>
 7    1  0.7444241E-013  0.5930193E+02  0.7816164E-02  0.1266605E+00
        -11   -1    0    0    0    0  0.00000000000E+00  0.00000000000E+00  0.45593999997E+02  0.45594000000E+02  0.51100000000E-03 0. -1.
         11   -1    0    0    0    0 -0.00000000000E+00 -0.00000000000E+00 -0.45593999997E+02  0.45594000000E+02  0.51100000000E-03 0.  1.
    9900012    2    1    2    0    0 -0.34743262093E+01  0.13170434736E+02  0.28830369938E+02  0.59301928989E+02  0.49999972574E+02 0.  0.
        -12    1    1    2    0    0  0.34743262093E+01 -0.13170434736E+02 -0.28830369938E+02  0.31886071011E+02  0.00000000000E+00 0.  1.
         11    1    3    3    0    0  0.89166285722E+01  0.10404051070E+02  0.19376268680E+02  0.23731631464E+02  0.51100000000E-03 0. -1.
        -11    1    3    3    0    0  0.59816296671E+00 -0.13150137729E+02  0.53725045732E+00  0.13174693907E+02  0.51100000000E-03 0.  1.
         12    1    3    3    0    0 -0.12989117748E+02  0.15916521395E+02  0.89168508008E+01  0.22395603618E+02  0.00000000000E+00 0. -1.
</event>
<event>
 7    1  0.7444241E-013  0.5930188E+02  0.7816164E-02  0.1266605E+00
        -11   -1    0    0    0    0  0.00000000000E+00  0.00000000000E+00  0.45593999997E+02  0.45594000000E+02  0.51100000000E-03 0. -1.
         11   -1    0    0    0    0 -0.00000000000E+00 -0.00000000000E+00 -0.45593999997E+02  0.45594000000E+02  0.51100000000E-03 0.  1.
    9900012    2    1    2    0    0 -0.11591919376E+02  0.29521091804E+02  0.32950731468E+01  0.59301875068E+02  0.49999874234E+02 0.  0.
        -12    1    1    2    0    0  0.11591919376E+02 -0.29521091804E+02 -0.32950731468E+01  0.31886124932E+02  0.00000000000E+00 0.  1.
         11    1    3    3    0    0 -0.14257723664E+02 -0.80078921490E+01  0.63751337895E+01  0.17551391736E+02  0.51100000000E-03 0. -1.
        -11    1    3    3    0    0 -0.14532131850E+01 -0.15830903366E+01 -0.99159895564E+00  0.23667007257E+01  0.51100000000E-03 0.  1.
         12    1    3    3    0    0  0.41190174735E+01  0.39112074290E+02 -0.20884616871E+01  0.39383782607E+02  0.00000000000E+00 0. -1.
</event>
<event>
 7    1  0.7444241E-013  0.5930187E+02  0.7816164E-02  0.1266605E+00
        -11   -1    0    0    0    0  0.00000000000E+00  0.00000000000E+00  0.45593999997E+02  0.45594000000E+02  0.51100000000E-03 0.  1.
         11   -1    0    0    0    0 -0.00000000000E+00 -0.00000000000E+00 -0.45593999997E+02  0.45594000000E+02  0.51100000000E-03 0. -1.
    9900012    2    1    2    0    0 -0.15236453182E+02  0.27586459382E+02  0.48541502556E+01  0.59301874154E+02  0.49999872566E+02 0.  0.
        -12    1    1    2    0    0  0.15236453182E+02 -0.27586459382E+02 -0.48541502556E+01  0.31886125846E+02  0.00000000000E+00 0.  1.
         11    1    3    3    0    0 -0.94411930332E+01  0.15124123853E+02 -0.18305983749E+02  0.25553557277E+02  0.51100000000E-03 0. -1.
        -11    1    3    3    0    0 -0.62114959113E+01  0.11345043520E+02  0.26491120469E+01  0.13202669761E+02  0.51100000000E-03 0.  1.
         12    1    3    3    0    0  0.41623576286E+00  0.11172920095E+01  0.20511021958E+02  0.20545647116E+02  0.00000000000E+00 0. -1.
</event>
<event>
 7    1  0.7444241E-013  0.5930194E+02  0.7816164E-02  0.1266605E+00
        -11   -1    0    0    0    0  0.00000000000E+00  0.00000000000E+00  0.45593999997E+02  0.45594000000E+02  0.51100000000E-03 0.  1.
         11   -1    0    0    0    0 -0.00000000000E+00 -0.00000000000E+00 -0.45593999997E+02  0.45594000000E+02  0.51100000000E-03 0. -1.
    9900012    2    1    2    0    0  0.12249072616E+02 -0.95081400569E+01 -0.27861733120E+02  0.59301942236E+02  0.49999996731E+02 0.  0.
        -12    1    1    2    0    0 -0.12249072616E+02  0.95081400569E+01  0.27861733120E+02  0.31886057764E+02  0.00000000000E+00 0.  1.
         11    1    3    3    0    0  0.83034882978E+01 -0.91100027517E+01 -0.21557677058E+02  0.24832911800E+02  0.51100000000E-03 0. -1.
        -11    1    3    3    0    0 -0.13904957814E+02 -0.24557052307E+01 -0.83176084305E+01  0.16387829333E+02  0.51100000000E-03 0.  1.
        -12    1    3    3    0    0  0.17850542132E+02  0.20575679255E+01  0.20135523681E+01  0.18081201103E+02  0.00000000000E+00 0.  1.
</event>
<event>
 7    1  0.7444241E-013  0.5930194E+02  0.7816164E-02  0.1266605E+00
        -11   -1    0    0    0    0  0.00000000000E+00  0.00000000000E+00  0.45593999997E+02  0.45594000000E+02  0.51100000000E-03 0.  1.
         11   -1    0    0    0    0 -0.00000000000E+00 -0.00000000000E+00 -0.45593999997E+02  0.45594000000E+02  0.51100000000E-03 0. -1.
    9900012    2    1    2    0    0 -0.23381457760E+02 -0.17158847940E+02 -0.13251504914E+02  0.59301937025E+02  0.49999987228E+02 0.  0.
        -12    1    1    2    0    0  0.23381457760E+02  0.17158847940E+02  0.13251504914E+02  0.31886062975E+02  0.00000000000E+00 0.  1.
         11    1    3    3    0    0 -0.12418257826E+02 -0.11220853379E+02 -0.16090814575E+02  0.23217127125E+02  0.51100000000E-03 0. -1.
        -11    1    3    3    0    0  0.10363673287E+02 -0.83286971410E+01  0.56399846827E+01  0.14442380259E+02  0.51100000000E-03 0.  1.
         12    1    3    3    0    0 -0.21326873221E+02  0.23907025798E+01 -0.28006750214E+01  0.21642429641E+02  0.00000000000E+00 0. -1.
</event>
<event>
 7    1  0.7444241E-013  0.5930194E+02  0.7816164E-02  0.1266605E+00
        -11   -1    0    0    0    0  0.00000000000E+00  0.00000000000E+00  0.45593999997E+02  0.45594000000E+02  0.51100000000E-03 0.  1.
         11   -1    0    0    0    0 -0.00000000000E+00 -0.00000000000E+00 -0.45593999997E+02  0.45594000000E+02  0.51100000000E-03 0. -1.
    9900012    2    1    2    0    0  0.77121040639E+01 -0.26796152702E+02 -0.15466421559E+02  0.59301944355E+02  0.50000000598E+02 0.  0.
        -12    1    1    2    0    0 -0.77121040639E+01  0.26796152702E+02  0.15466421559E+02  0.31886055645E+02  0.00000000000E+00 0.  1.
         11    1    3    3    0    0 -0.41233865701E+00  0.75351431538E+01 -0.29772399219E+00  0.75522874253E+01  0.51100000000E-03 0. -1.
        -11    1    3    3    0    0  0.80041280369E+01 -0.13574895160E+02  0.10351030762E+02  0.18854380985E+02  0.51100000000E-03 0.  1.
        -12    1    3    3    0    0  0.12031468402E+00 -0.20756400696E+02 -0.25519728330E+02  0.32895275945E+02  0.00000000000E+00 0.  1.
</event>
<event>
 7    1  0.7444241E-013  0.5930195E+02  0.7816164E-02  0.1266605E+00
        -11   -1    0    0    0    0  0.00000000000E+00  0.00000000000E+00  0.45593999997E+02  0.45594000000E+02  0.51100000000E-03 0.  1.
         11   -1    0    0    0    0 -0.00000000000E+00 -0.00000000000E+00 -0.45593999997E+02  0.45594000000E+02  0.51100000000E-03 0. -1.
    9900012    2    1    2    0    0  0.20140070323E+02 -0.19087667801E+02 -0.15708556266E+02  0.59301949215E+02  0.50000009461E+02 0.  0.
        -12    1    1    2    0    0 -0.20140070323E+02  0.19087667801E+02  0.15708556266E+02  0.31886050785E+02  0.00000000000E+00 0.  1.
         11    1    3    3    0    0  0.17315971234E+02 -0.22517403645E+02 -0.18019870296E+02  0.33639144645E+02  0.51100000000E-03 0. -1.
        -11    1    3    3    0    0  0.91722061077E+01 -0.73578153994E+01 -0.28895415364E+01  0.12108520260E+02  0.51100000000E-03 0.  1.
         12    1    3    3    0    0 -0.63481070183E+01  0.10787551244E+02  0.52008555662E+01  0.13554284311E+02  0.00000000000E+00 0. -1.
</event>
<event>
 7    1  0.7444241E-013  0.5930194E+02  0.7816164E-02  0.1266605E+00
        -11   -1    0    0    0    0  0.00000000000E+00  0.00000000000E+00  0.45593999997E+02  0.45594000000E+02  0.51100000000E-03 0.  1.
         11   -1    0    0    0    0 -0.00000000000E+00 -0.00000000000E+00 -0.45593999997E+02  0.45594000000E+02  0.51100000000E-03 0. -1.
    9900012    2    1    2    0    0 -0.29333442456E+02 -0.26337044719E+01  0.12220214241E+02  0.59301939069E+02  0.49999990957E+02 0.  0.
        -12    1    1    2    0    0  0.29333442456E+02  0.26337044719E+01 -0.12220214241E+02  0.31886060931E+02  0.00000000000E+00 0.  1.
         11    1    3    3    0    0  0.55746825992E+01 -0.10578652741E+02  0.51300256137E+01  0.13011615694E+02  0.51100000000E-03 0. -1.
        -11    1    3    3    0    0 -0.12636415117E+02  0.11590540950E+02  0.14584302801E+02  0.22510475672E+02  0.51100000000E-03 0.  1.
         12    1    3    3    0    0 -0.22271709938E+02 -0.36455926809E+01 -0.74941141734E+01  0.23779847704E+02  0.00000000000E+00 0. -1.
</event>
<event>
 7    1  0.7444241E-013  0.5930189E+02  0.7816164E-02  0.1266605E+00
        -11   -1    0    0    0    0  0.00000000000E+00  0.00000000000E+00  0.45593999997E+02  0.45594000000E+02  0.51100000000E-03 0. -1.
         11   -1    0    0    0    0 -0.00000000000E+00 -0.00000000000E+00 -0.45593999997E+02  0.45594000000E+02  0.51100000000E-03 0.  1.
    9900012    2    1    2    0    0 -0.20884913233E+02 -0.12165118839E+02  0.20797932762E+02  0.59301894495E+02  0.49999909664E+02 0.  0.
        -12    1    1    2    0    0  0.20884913233E+02  0.12165118839E+02 -0.20797932762E+02  0.31886105505E+02  0.00000000000E+00 0.  1.
         11    1    3    3    0    0  0.13822032782E+02 -0.45492528534E+01  0.77854693168E+01  0.16503267085E+02  0.51100000000E-03 0. -1.
        -11    1    3    3    0    0  0.10251541441E+01 -0.24921723803E+01 -0.23428426988E+01  0.35708229254E+01  0.51100000000E-03 0.  1.
         12    1    3    3    0    0 -0.35732100158E+02 -0.51236936055E+01  0.15355306144E+02  0.39227804484E+02  0.00000000000E+00 0. -1.
</event>
<event>
 7    1  0.7444241E-013  0.5930172E+02  0.7816164E-02  0.1266606E+00
        -11   -1    0    0    0    0  0.00000000000E+00  0.00000000000E+00  0.45593999997E+02  0.45594000000E+02  0.51100000000E-03 0.  1.
         11   -1    0    0    0    0 -0.00000000000E+00 -0.00000000000E+00 -0.45593999997E+02  0.45594000000E+02  0.51100000000E-03 0. -1.
    9900012    2    1    2    0    0 -0.33194470655E+01  0.25334186556E+02 -0.19076042453E+02  0.59301715599E+02  0.49999583399E+02 0.  0.
        -12    1    1    2    0    0  0.33194470655E+01 -0.25334186556E+02  0.19076042453E+02  0.31886284401E+02  0.00000000000E+00 0.  1.
         11    1    3    3    0    0 -0.79305401513E+00  0.26023723408E+02 -0.29268674135E+02  0.39172929435E+02  0.51100000000E-03 0. -1.
        -11    1    3    3    0    0 -0.61510376937E+01  0.48005942867E+01 -0.22721060394E+00  0.78059333288E+01  0.51100000000E-03 0.  1.
        -12    1    3    3    0    0  0.36246446433E+01 -0.54901311387E+01  0.10419842286E+02  0.12322852834E+02  0.00000000000E+00 0.  1.
</event>
<event>
 7    1  0.7444241E-013  0.5930196E+02  0.7816164E-02  0.1266605E+00
        -11   -1    0    0    0    0  0.00000000000E+00  0.00000000000E+00  0.45593999997E+02  0.45594000000E+02  0.51100000000E-03 0.  1.
         11   -1    0    0    0    0 -0.00000000000E+00 -0.00000000000E+00 -0.45593999997E+02  0.45594000000E+02  0.51100000000E-03 0. -1.
    9900012    2    1    2    0    0 -0.11145045599E+02  0.13944603722E+02 -0.26420739864E+02  0.59301960590E+02  0.50000030205E+02 0.  0.
        -12    1    1    2    0    0  0.11145045599E+02 -0.13944603722E+02  0.26420739864E+02  0.31886039410E+02  0.00000000000E+00 0.  1.
         11    1    3    3    0    0 -0.18482320103E+01 -0.53475578133E+01  0.12491235603E+01  0.57941907166E+01  0.51100000000E-03 0. -1.
        -11    1    3    3    0    0  0.12396403718E+02  0.15249019172E+02 -0.21482366790E+01  0.19769125725E+02  0.51100000000E-03 0.  1.
         12    1    3    3    0    0 -0.21693217306E+02  0.40431423632E+01 -0.25521626745E+02  0.33738644148E+02  0.00000000000E+00 0. -1.
</event>
<event>
 7    1  0.7444241E-013  0.5930193E+02  0.7816164E-02  0.1266605E+00
        -11   -1    0    0    0    0  0.00000000000E+00  0.00000000000E+00  0.45593999997E+02  0.45594000000E+02  0.51100000000E-03 0.  1.
         11   -1    0    0    0    0 -0.00000000000E+00 -0.00000000000E+00 -0.45593999997E+02  0.45594000000E+02  0.51100000000E-03 0. -1.
    9900012    2    1    2    0    0  0.15438485657E+02 -0.19543140090E+02  0.19910808271E+02  0.59301930158E+02  0.49999974706E+02 0.  0.
        -12    1    1    2    0    0 -0.15438485657E+02  0.19543140090E+02 -0.19910808271E+02  0.31886069842E+02  0.00000000000E+00 0.  1.
         11    1    3    3    0    0 -0.68039851120E+00  0.76065282224E+01  0.94123856495E+01  0.12120858782E+02  0.51100000000E-03 0. -1.
        -11    1    3    3    0    0  0.18153406447E+01  0.78322973188E+01  0.34327931992E+00  0.80472469764E+01  0.51100000000E-03 0.  1.
        -12    1    3    3    0    0  0.14303543524E+02 -0.34981965631E+02  0.10155143301E+02  0.39133824400E+02  0.00000000000E+00 0.  1.
</event>
<event>
 7    1  0.7444241E-013  0.5930209E+02  0.7816164E-02  0.1266604E+00
        -11   -1    0    0    0    0  0.00000000000E+00  0.00000000000E+00  0.45593999997E+02  0.45594000000E+02  0.51100000000E-03 0.  1.
         11   -1    0    0    0    0 -0.00000000000E+00 -0.00000000000E+00 -0.45593999997E+02  0.45594000000E+02  0.51100000000E-03 0. -1.
    9900012    2    1    2    0    0 -0.16800094553E+02  0.66574646567E+01 -0.26270634394E+02  0.59302090195E+02  0.50000266574E+02 0.  0.
        -12    1    1    2    0    0  0.16800094553E+02 -0.66574646567E+01  0.26270634394E+02  0.31885909805E+02  0.00000000000E+00 0.  1.
         11    1    3    3    0    0  0.20423302453E+01 -0.17396913091E+02 -0.68128613281E+01  0.18794647580E+02  0.51100000000E-03 0.  1.
        -11    1    3    3    0    0 -0.98730656808E+01  0.61758226469E+01  0.12552438370E+01  0.11712977788E+02  0.51100000000E-03 0. -1.
        -12    1    3    3    0    0 -0.89693591174E+01  0.17878555101E+02 -0.20713016903E+02  0.28794464827E+02  0.00000000000E+00 0.  1.
</event>
<event>
 7    1  0.7444241E-013  0.5930191E+02  0.7816164E-02  0.1266605E+00
        -11   -1    0    0    0    0  0.00000000000E+00  0.00000000000E+00  0.45593999997E+02  0.45594000000E+02  0.51100000000E-03 0. -1.
         11   -1    0    0    0    0 -0.00000000000E+00 -0.00000000000E+00 -0.45593999997E+02  0.45594000000E+02  0.51100000000E-03 0.  1.
    9900012    2    1    2    0    0 -0.26646799705E+02 -0.15221897783E+02  0.86582000680E+01  0.59301913143E+02  0.49999943674E+02 0.  0.
        -12    1    1    2    0    0  0.26646799705E+02  0.15221897783E+02 -0.86582000680E+01  0.31886086857E+02  0.00000000000E+00 0.  1.
         11    1    3    3    0    0 -0.10469773081E+02 -0.37206284284E+01  0.12475483891E+02  0.16706194146E+02  0.51100000000E-03 0. -1.
        -11    1    3    3    0    0  0.24561043865E+01 -0.39590289691E+01  0.14604478949E+02  0.15329617241E+02  0.51100000000E-03 0.  1.
        -12    1    3    3    0    0 -0.18633131011E+02 -0.75422403854E+01 -0.18421762772E+02  0.27266101755E+02  0.00000000000E+00 0.  1.
</event>
<event>
 7    1  0.7444241E-013  0.5930196E+02  0.7816164E-02  0.1266605E+00
        -11   -1    0    0    0    0  0.00000000000E+00  0.00000000000E+00  0.45593999997E+02  0.45594000000E+02  0.51100000000E-03 0.  1.
         11   -1    0    0    0    0 -0.00000000000E+00 -0.00000000000E+00 -0.45593999997E+02  0.45594000000E+02  0.51100000000E-03 0. -1.
    9900012    2    1    2    0    0 -0.28730524112E+02 -0.89677781446E+01 -0.10528793951E+02  0.59301959753E+02  0.50000028679E+02 0.  0.
        -12    1    1    2    0    0  0.28730524112E+02  0.89677781446E+01  0.10528793951E+02  0.31886040247E+02  0.00000000000E+00 0.  1.
         11    1    3    3    0    0 -0.10114805616E+02 -0.17318387285E+01  0.39944634309E+01  0.11012006919E+02  0.51100000000E-03 0. -1.
        -11    1    3    3    0    0 -0.29796285040E+02 -0.77873226114E+01 -0.11070148996E+01  0.30816983595E+02  0.51100000000E-03 0.  1.
        -12    1    3    3    0    0  0.11180566544E+02  0.55138319530E+00 -0.13416242483E+02  0.17472969239E+02  0.00000000000E+00 0.  1.
</event>
<event>
 7    1  0.7444241E-013  0.5930194E+02  0.7816164E-02  0.1266605E+00
        -11   -1    0    0    0    0  0.00000000000E+00  0.00000000000E+00  0.45593999997E+02  0.45594000000E+02  0.51100000000E-03 0.  1.
         11   -1    0    0    0    0 -0.00000000000E+00 -0.00000000000E+00 -0.45593999997E+02  0.45594000000E+02  0.51100000000E-03 0. -1.
    9900012    2    1    2    0    0  0.12408608094E+01  0.22891808966E+02 -0.22161817736E+02  0.59301940057E+02  0.49999992758E+02 0.  0.
        -12    1    1    2    0    0 -0.12408608094E+01 -0.22891808966E+02  0.22161817736E+02  0.31886059943E+02  0.00000000000E+00 0.  1.
         11    1    3    3    0    0  0.11980733955E+02 -0.26388664645E+01 -0.45988369802E+01  0.13101561134E+02  0.51100000000E-03 0. -1.
        -11    1    3    3    0    0 -0.83976953065E-01 -0.30867536343E+01  0.65825267622E+01  0.72708155638E+01  0.51100000000E-03 0.  1.
         12    1    3    3    0    0 -0.10655896193E+02  0.28617429065E+02 -0.24145507518E+02  0.38929563359E+02  0.00000000000E+00 0. -1.
</event>
<event>
 7    1  0.7444241E-013  0.5930198E+02  0.7816164E-02  0.1266605E+00
        -11   -1    0    0    0    0  0.00000000000E+00  0.00000000000E+00  0.45593999997E+02  0.45594000000E+02  0.51100000000E-03 0.  1.
         11   -1    0    0    0    0 -0.00000000000E+00 -0.00000000000E+00 -0.45593999997E+02  0.45594000000E+02  0.51100000000E-03 0. -1.
    9900012    2    1    2    0    0  0.85936456002E+01 -0.52464936411E+01 -0.30254620354E+02  0.59301976526E+02  0.50000059269E+02 0.  0.
        -12    1    1    2    0    0 -0.85936456002E+01  0.52464936411E+01  0.30254620354E+02  0.31886023474E+02  0.00000000000E+00 0.  1.
         11    1    3    3    0    0  0.16366824271E+02  0.68926867189E+01 -0.51719831374E+01  0.18496796392E+02  0.51100000000E-03 0. -1.
        -11    1    3    3    0    0  0.68282342252E+01 -0.60130060962E+01  0.21084708941E+01  0.93395221890E+01  0.51100000000E-03 0.  1.
         12    1    3    3    0    0 -0.14601412896E+02 -0.61261742638E+01 -0.27191108111E+02  0.31465657945E+02  0.00000000000E+00 0. -1.
</event>
<event>
 7    1  0.7444241E-013  0.5930196E+02  0.7816164E-02  0.1266605E+00
        -11   -1    0    0    0    0  0.00000000000E+00  0.00000000000E+00  0.45593999997E+02  0.45594000000E+02  0.51100000000E-03 0.  1.
         11   -1    0    0    0    0 -0.00000000000E+00 -0.00000000000E+00 -0.45593999997E+02  0.45594000000E+02  0.51100000000E-03 0. -1.
    9900012    2    1    2    0    0  0.15277703530E+02 -0.10439653659E+02 -0.25967768465E+02  0.59301959281E+02  0.50000027818E+02 0.  0.
        -12    1    1    2    0    0 -0.15277703530E+02  0.10439653659E+02  0.25967768465E+02  0.31886040719E+02  0.00000000000E+00 0.  1.
         11    1    3    3    0    0  0.71584582639E+01  0.86167583318E+01  0.57163645895E+00  0.11216898741E+02  0.51100000000E-03 0. -1.
        -11    1    3    3    0    0  0.18733197205E+02 -0.22017142947E+02 -0.17183193543E+02  0.33629591161E+02  0.51100000000E-03 0.  1.
         12    1    3    3    0    0 -0.10613951939E+02  0.29607309562E+01 -0.93562113811E+01  0.14455469379E+02  0.00000000000E+00 0. -1.
</event>
<event>
 7    1  0.7444241E-013  0.5930191E+02  0.7816164E-02  0.1266605E+00
        -11   -1    0    0    0    0  0.00000000000E+00  0.00000000000E+00  0.45593999997E+02  0.45594000000E+02  0.51100000000E-03 0. -1.
         11   -1    0    0    0    0 -0.00000000000E+00 -0.00000000000E+00 -0.45593999997E+02  0.45594000000E+02  0.51100000000E-03 0.  1.
    9900012    2    1    2    0    0  0.21401757373E+02 -0.13952557864E+02  0.19079139376E+02  0.59301911357E+02  0.49999940417E+02 0.  0.
        -12    1    1    2    0    0 -0.21401757373E+02  0.13952557864E+02 -0.19079139376E+02  0.31886088643E+02  0.00000000000E+00 0.  1.
         11    1    3    3    0    0 -0.24293008598E+00 -0.14986798164E+02  0.39507553423E+01  0.15500696831E+02  0.51100000000E-03 0. -1.
        -11    1    3    3    0    0 -0.35102479770E+01 -0.10383293499E+02 -0.22166478368E+01  0.11182493131E+02  0.51100000000E-03 0.  1.
         12    1    3    3    0    0  0.25154935436E+02  0.11417533798E+02  0.17345031871E+02  0.32618721394E+02  0.00000000000E+00 0. -1.
</event>
<event>
 7    1  0.7444241E-013  0.5930179E+02  0.7816164E-02  0.1266605E+00
        -11   -1    0    0    0    0  0.00000000000E+00  0.00000000000E+00  0.45593999997E+02  0.45594000000E+02  0.51100000000E-03 0.  1.
         11   -1    0    0    0    0 -0.00000000000E+00 -0.00000000000E+00 -0.45593999997E+02  0.45594000000E+02  0.51100000000E-03 0. -1.
    9900012    2    1    2    0    0 -0.16430985980E+02  0.19745845473E+02 -0.18890605813E+02  0.59301785083E+02  0.49999710123E+02 0.  0.
        -12    1    1    2    0    0  0.16430985980E+02 -0.19745845473E+02  0.18890605813E+02  0.31886214917E+02  0.00000000000E+00 0.  1.
         11    1    3    3    0    0 -0.14091905739E+02  0.20135264422E+02  0.23212653582E+01  0.24686007247E+02  0.51100000000E-03 0. -1.
        -11    1    3    3    0    0 -0.55403179271E+01  0.12040585401E+02 -0.55578120695E+01  0.14372198676E+02  0.51100000000E-03 0.  1.
         12    1    3    3    0    0  0.32012376856E+01 -0.12430004349E+02 -0.15654059101E+02  0.20243579160E+02  0.00000000000E+00 0. -1.
</event>
<event>
 7    1  0.7444241E-013  0.5930193E+02  0.7816164E-02  0.1266605E+00
        -11   -1    0    0    0    0  0.00000000000E+00  0.00000000000E+00  0.45593999997E+02  0.45594000000E+02  0.51100000000E-03 0.  1.
         11   -1    0    0    0    0 -0.00000000000E+00 -0.00000000000E+00 -0.45593999997E+02  0.45594000000E+02  0.51100000000E-03 0. -1.
    9900012    2    1    2    0    0  0.96836889626E+00 -0.29948907377E+02 -0.10901695525E+02  0.59301925348E+02  0.49999965932E+02 0.  0.
        -12    1    1    2    0    0 -0.96836889626E+00  0.29948907377E+02  0.10901695525E+02  0.31886074652E+02  0.00000000000E+00 0.  1.
         11    1    3    3    0    0  0.56908037273E+01 -0.19932042631E+02 -0.18428928737E+02  0.27736203511E+02  0.51100000000E-03 0. -1.
        -11    1    3    3    0    0 -0.96756076069E+01  0.75661257828E+01  0.43121602190E+01  0.13017617598E+02  0.51100000000E-03 0.  1.
         12    1    3    3    0    0  0.49531727759E+01 -0.17582990529E+02  0.32150729933E+01  0.18548104238E+02  0.00000000000E+00 0. -1.
</event>
<event>
 7    1  0.7444241E-013  0.5930195E+02  0.7816164E-02  0.1266605E+00
        -11   -1    0    0    0    0  0.00000000000E+00  0.00000000000E+00  0.45593999997E+02  0.45594000000E+02  0.51100000000E-03 0.  1.
         11   -1    0    0    0    0 -0.00000000000E+00 -0.00000000000E+00 -0.45593999997E+02  0.45594000000E+02  0.51100000000E-03 0. -1.
    9900012    2    1    2    0    0  0.23058811418E+01  0.20800619217E+02 -0.24056963166E+02  0.59301947808E+02  0.50000006894E+02 0.  0.
        -12    1    1    2    0    0 -0.23058811418E+01 -0.20800619217E+02  0.24056963166E+02  0.31886052192E+02  0.00000000000E+00 0.  1.
         11    1    3    3    0    0  0.12068716655E+01  0.19714232765E+02 -0.54200715497E+01  0.20481325362E+02  0.51100000000E-03 0. -1.
        -11    1    3    3    0    0  0.24949778158E+01  0.15233711701E+02 -0.70632579438E-01  0.15436835029E+02  0.51100000000E-03 0.  1.
        -12    1    3    3    0    0 -0.13959683395E+01 -0.14147325249E+02 -0.18566259036E+02  0.23383787416E+02  0.00000000000E+00 0.  1.
</event>
<event>
 7    1  0.7444241E-013  0.5930209E+02  0.7816164E-02  0.1266604E+00
        -11   -1    0    0    0    0  0.00000000000E+00  0.00000000000E+00  0.45593999997E+02  0.45594000000E+02  0.51100000000E-03 0.  1.
         11   -1    0    0    0    0 -0.00000000000E+00 -0.00000000000E+00 -0.45593999997E+02  0.45594000000E+02  0.51100000000E-03 0. -1.
    9900012    2    1    2    0    0  0.78174166322E+01 -0.18066302628E+02 -0.25084014009E+02  0.59302093204E+02  0.50000272060E+02 0.  0.
        -12    1    1    2    0    0 -0.78174166322E+01  0.18066302628E+02  0.25084014009E+02  0.31885906796E+02  0.00000000000E+00 0.  1.
         11    1    3    3    0    0 -0.16679922364E+02 -0.22959961397E+01 -0.91223482800E+01  0.19149638293E+02  0.51100000000E-03 0. -1.
        -11    1    3    3    0    0  0.35564709708E+01  0.18112732284E+01  0.44897795673E+01  0.60072720347E+01  0.51100000000E-03 0.  1.
         12    1    3    3    0    0  0.20940868025E+02 -0.17581579716E+02 -0.20451445296E+02  0.34145182876E+02  0.00000000000E+00 0. -1.
</event>
<event>
 7    1  0.7444241E-013  0.5930197E+02  0.7816164E-02  0.1266605E+00
        -11   -1    0    0    0    0  0.00000000000E+00  0.00000000000E+00  0.45593999997E+02  0.45594000000E+02  0.51100000000E-03 0.  1.
         11   -1    0    0    0    0 -0.00000000000E+00 -0.00000000000E+00 -0.45593999997E+02  0.45594000000E+02  0.51100000000E-03 0. -1.
    9900012    2    1    2    0    0  0.31745470531E+02  0.29712520020E+01  0.33978634283E+00  0.59301973398E+02  0.50000053565E+02 0.  0.
        -12    1    1    2    0    0 -0.31745470531E+02 -0.29712520020E+01 -0.33978634283E+00  0.31886026602E+02  0.00000000000E+00 0.  1.
         11    1    3    3    0    0  0.13280710725E+02  0.12491246589E+02 -0.50771819215E+01  0.18925810292E+02  0.51100000000E-03 0. -1.
        -11    1    3    3    0    0  0.16363544446E+02 -0.93210833948E-01  0.18122069319E+02  0.24416872686E+02  0.51100000000E-03 0.  1.
         12    1    3    3    0    0  0.21012153604E+01 -0.94267837528E+01 -0.12705101055E+02  0.15959290420E+02  0.00000000000E+00 0. -1.
</event>
<event>
 7    1  0.7444241E-013  0.5930194E+02  0.7816164E-02  0.1266605E+00
        -11   -1    0    0    0    0  0.00000000000E+00  0.00000000000E+00  0.45593999997E+02  0.45594000000E+02  0.51100000000E-03 0. -1.
         11   -1    0    0    0    0 -0.00000000000E+00 -0.00000000000E+00 -0.45593999997E+02  0.45594000000E+02  0.51100000000E-03 0.  1.
    9900012    2    1    2    0    0  0.14897440600E+02  0.20925052619E+02  0.18892569112E+02  0.59301941429E+02  0.49999995261E+02 0.  0.
        -12    1    1    2    0    0 -0.14897440600E+02 -0.20925052619E+02 -0.18892569112E+02  0.31886058571E+02  0.00000000000E+00 0.  1.
         11    1    3    3    0    0  0.54530841284E+01 -0.30996925688E+01  0.13989591037E+02  0.15331434315E+02  0.51100000000E-03 0. -1.
        -11    1    3    3    0    0  0.82504487450E+01  0.79595696795E+00  0.16136173455E+02  0.18140549772E+02  0.51100000000E-03 0.  1.
        -12    1    3    3    0    0  0.11939077266E+01  0.23228788220E+02 -0.11233195380E+02  0.25829957342E+02  0.00000000000E+00 0.  1.
</event>
<event>
 7    1  0.7444241E-013  0.5930194E+02  0.7816164E-02  0.1266605E+00
        -11   -1    0    0    0    0  0.00000000000E+00  0.00000000000E+00  0.45593999997E+02  0.45594000000E+02  0.51100000000E-03 0.  1.
         11   -1    0    0    0    0 -0.00000000000E+00 -0.00000000000E+00 -0.45593999997E+02  0.45594000000E+02  0.51100000000E-03 0. -1.
    9900012    2    1    2    0    0 -0.24630290328E+02 -0.16226940201E+02 -0.12114286938E+02  0.59301941323E+02  0.49999995067E+02 0.  0.
        -12    1    1    2    0    0  0.24630290328E+02  0.16226940201E+02  0.12114286938E+02  0.31886058677E+02  0.00000000000E+00 0.  1.
         11    1    3    3    0    0 -0.14644588909E+02  0.41040350118E+01 -0.19382581599E+02  0.24637198652E+02  0.51100000000E-03 0. -1.
        -11    1    3    3    0    0 -0.80811499024E+01 -0.84548391851E+00 -0.67679622706E+01  0.10574740676E+02  0.51100000000E-03 0.  1.
        -12    1    3    3    0    0 -0.19045515165E+01 -0.19485491295E+02  0.14036256931E+02  0.24090001995E+02  0.00000000000E+00 0.  1.
</event>
<event>
 7    1  0.7444241E-013  0.5930194E+02  0.7816164E-02  0.1266605E+00
        -11   -1    0    0    0    0  0.00000000000E+00  0.00000000000E+00  0.45593999997E+02  0.45594000000E+02  0.51100000000E-03 0.  1.
         11   -1    0    0    0    0 -0.00000000000E+00 -0.00000000000E+00 -0.45593999997E+02  0.45594000000E+02  0.51100000000E-03 0. -1.
    9900012    2    1    2    0    0  0.23075068209E+02  0.17702031006E+02  0.13072873414E+02  0.59301942014E+02  0.49999996327E+02 0.  0.
        -12    1    1    2    0    0 -0.23075068209E+02 -0.17702031006E+02 -0.13072873414E+02  0.31886057986E+02  0.00000000000E+00 0.  1.
         11    1    3    3    0    0  0.12060663327E+02  0.10236069013E+02 -0.12100208961E+02  0.19916118243E+02  0.51100000000E-03 0. -1.
        -11    1    3    3    0    0  0.15647652901E+02  0.13068930830E+02  0.10324034801E+02  0.22852389135E+02  0.51100000000E-03 0.  1.
        -12    1    3    3    0    0 -0.46332480189E+01 -0.56029688366E+01  0.14849047574E+02  0.16533434636E+02  0.00000000000E+00 0.  1.
</event>
<event>
 7    1  0.7444241E-013  0.5930215E+02  0.7816164E-02  0.1266604E+00
        -11   -1    0    0    0    0  0.00000000000E+00  0.00000000000E+00  0.45593999997E+02  0.45594000000E+02  0.51100000000E-03 0.  1.
         11   -1    0    0    0    0 -0.00000000000E+00 -0.00000000000E+00 -0.45593999997E+02  0.45594000000E+02  0.51100000000E-03 0. -1.
    9900012    2    1    2    0    0 -0.23501937181E+02 -0.18084136944E+02 -0.11718807863E+02  0.59302148624E+02  0.50000373132E+02 0.  0.
        -12    1    1    2    0    0  0.23501937181E+02  0.18084136944E+02  0.11718807863E+02  0.31885851376E+02  0.00000000000E+00 0.  1.
         11    1    3    3    0    0 -0.19537026688E+02 -0.43499128877E+01 -0.63686158414E+01  0.21004200103E+02  0.51100000000E-03 0. -1.
        -11    1    3    3    0    0  0.41083276054E+01  0.53574623912E+01 -0.14227835118E+02  0.15748398376E+02  0.51100000000E-03 0.  1.
         12    1    3    3    0    0 -0.80732380979E+01 -0.19091686448E+02  0.88776430967E+01  0.22549550145E+02  0.00000000000E+00 0. -1.
</event>
<event>
 7    1  0.7444241E-013  0.5930194E+02  0.7816164E-02  0.1266605E+00
        -11   -1    0    0    0    0  0.00000000000E+00  0.00000000000E+00  0.45593999997E+02  0.45594000000E+02  0.51100000000E-03 0.  1.
         11   -1    0    0    0    0 -0.00000000000E+00 -0.00000000000E+00 -0.45593999997E+02  0.45594000000E+02  0.51100000000E-03 0. -1.
    9900012    2    1    2    0    0 -0.16609194193E+02  0.23860071152E+02 -0.13097808033E+02  0.59301938745E+02  0.49999990365E+02 0.  0.
        -12    1    1    2    0    0  0.16609194193E+02 -0.23860071152E+02  0.13097808033E+02  0.31886061255E+02  0.00000000000E+00 0.  1.
         11    1    3    3    0    0 -0.20953980825E+02  0.25480427241E+02  0.87348878795E+00  0.33001279789E+02  0.51100000000E-03 0. -1.
        -11    1    3    3    0    0  0.66484202358E+00  0.43866133804E+01  0.46285046104E+01  0.64115089531E+01  0.51100000000E-03 0.  1.
        -12    1    3    3    0    0  0.36799446088E+01 -0.60069694691E+01 -0.18599801432E+02  0.19889150002E+02  0.00000000000E+00 0.  1.
</event>
<event>
 7    1  0.7444241E-013  0.5930187E+02  0.7816164E-02  0.1266605E+00
        -11   -1    0    0    0    0  0.00000000000E+00  0.00000000000E+00  0.45593999997E+02  0.45594000000E+02  0.51100000000E-03 0.  1.
         11   -1    0    0    0    0 -0.00000000000E+00 -0.00000000000E+00 -0.45593999997E+02  0.45594000000E+02  0.51100000000E-03 0. -1.
    9900012    2    1    2    0    0  0.86827773115E+01 -0.11794242322E+02 -0.28323678322E+02  0.59301866219E+02  0.49999858096E+02 0.  0.
        -12    1    1    2    0    0 -0.86827773115E+01  0.11794242322E+02  0.28323678322E+02  0.31886133781E+02  0.00000000000E+00 0.  1.
         11    1    3    3    0    0 -0.10133829739E+02 -0.16427945881E+02 -0.11387376347E+02  0.22410806576E+02  0.51100000000E-03 0. -1.
        -11    1    3    3    0    0 -0.32969933039E+01  0.94477896477E+01 -0.67661738884E+01  0.12079404100E+02  0.51100000000E-03 0.  1.
        -12    1    3    3    0    0  0.22113600354E+02 -0.48140860889E+01 -0.10170128087E+02  0.24811655543E+02  0.00000000000E+00 0.  1.
</event>
<event>
 7    1  0.7444241E-013  0.5930195E+02  0.7816164E-02  0.1266605E+00
        -11   -1    0    0    0    0  0.00000000000E+00  0.00000000000E+00  0.45593999997E+02  0.45594000000E+02  0.51100000000E-03 0. -1.
         11   -1    0    0    0    0 -0.00000000000E+00 -0.00000000000E+00 -0.45593999997E+02  0.45594000000E+02  0.51100000000E-03 0.  1.
    9900012    2    1    2    0    0  0.20951007265E+01  0.31628191358E+02  0.34624388770E+01  0.59301946330E+02  0.50000004199E+02 0.  0.
        -12    1    1    2    0    0 -0.20951007265E+01 -0.31628191358E+02 -0.34624388770E+01  0.31886053670E+02  0.00000000000E+00 0.  1.
         11    1    3    3    0    0  0.57021964969E+00  0.26217591346E+01 -0.83896271786E+00  0.28111617014E+01  0.51100000000E-03 0. -1.
        -11    1    3    3    0    0  0.77747408755E+01  0.22943055470E+02 -0.19531022840E+02  0.31117378479E+02  0.51100000000E-03 0.  1.
        -12    1    3    3    0    0 -0.62498597987E+01  0.60633767543E+01  0.23832424435E+02  0.25373406150E+02  0.00000000000E+00 0.  1.
</event>
<event>
 7    1  0.7444241E-013  0.5930194E+02  0.7816164E-02  0.1266605E+00
        -11   -1    0    0    0    0  0.00000000000E+00  0.00000000000E+00  0.45593999997E+02  0.45594000000E+02  0.51100000000E-03 0. -1.
         11   -1    0    0    0    0 -0.00000000000E+00 -0.00000000000E+00 -0.45593999997E+02  0.45594000000E+02  0.51100000000E-03 0.  1.
    9900012    2    1    2    0    0  0.22166531618E+02 -0.82181917988E+01  0.21396890165E+02  0.59301941774E+02  0.49999995891E+02 0.  0.
        -12    1    1    2    0    0 -0.22166531618E+02  0.82181917988E+01 -0.21396890165E+02  0.31886058226E+02  0.00000000000E+00 0.  1.
         11    1    3    3    0    0  0.87954763066E+01 -0.17412164927E+01 -0.68758799653E+01  0.11299113412E+02  0.51100000000E-03 0. -1.
        -11    1    3    3    0    0  0.18373294170E+02 -0.53222175186E+01 -0.14085950041E+00  0.19129134315E+02  0.51100000000E-03 0.  1.
         12    1    3    3    0    0 -0.50022388588E+01 -0.11547577875E+01  0.28413629631E+02  0.28873694048E+02  0.00000000000E+00 0. -1.
</event>
<event>
 7    1  0.7444241E-013  0.5930192E+02  0.7816164E-02  0.1266605E+00
        -11   -1    0    0    0    0  0.00000000000E+00  0.00000000000E+00  0.45593999997E+02  0.45594000000E+02  0.51100000000E-03 0. -1.
         11   -1    0    0    0    0 -0.00000000000E+00 -0.00000000000E+00 -0.45593999997E+02  0.45594000000E+02  0.51100000000E-03 0.  1.
    9900012    2    1    2    0    0  0.23385569102E+02 -0.13895856202E+02  0.16635570703E+02  0.59301923502E+02  0.49999962566E+02 0.  0.
        -12    1    1    2    0    0 -0.23385569102E+02  0.13895856202E+02 -0.16635570703E+02  0.31886076498E+02  0.00000000000E+00 0.  1.
         11    1    3    3    0    0 -0.59759665680E+01 -0.29590913503E+01  0.26474450020E+01  0.71747727031E+01  0.51100000000E-03 0. -1.
        -11    1    3    3    0    0 -0.65130796281E+01 -0.92093580855E+01 -0.39874878705E+01  0.11963801334E+02  0.51100000000E-03 0.  1.
         12    1    3    3    0    0  0.35874615298E+02 -0.17274067662E+01  0.17975613572E+02  0.40163349465E+02  0.00000000000E+00 0. -1.
</event>
<event>
 7    1  0.7444241E-013  0.5930197E+02  0.7816164E-02  0.1266605E+00
        -11   -1    0    0    0    0  0.00000000000E+00  0.00000000000E+00  0.45593999997E+02  0.45594000000E+02  0.51100000000E-03 0.  1.
         11   -1    0    0    0    0 -0.00000000000E+00 -0.00000000000E+00 -0.45593999997E+02  0.45594000000E+02  0.51100000000E-03 0. -1.
    9900012    2    1    2    0    0  0.37831167787E+01  0.30791479029E+02 -0.73682856207E+01  0.59301971926E+02  0.50000050880E+02 0.  0.
        -12    1    1    2    0    0 -0.37831167787E+01 -0.30791479029E+02  0.73682856207E+01  0.31886028074E+02  0.00000000000E+00 0.  1.
         11    1    3    3    0    0 -0.48348945860E+01 -0.52765239831E+01 -0.60552108020E+01  0.93746194120E+01  0.51100000000E-03 0. -1.
        -11    1    3    3    0    0  0.19653406936E+01 -0.65650583552E+00  0.10560560692E+02  0.10761923915E+02  0.51100000000E-03 0.  1.
         12    1    3    3    0    0  0.66526706711E+01  0.36724508847E+02 -0.11873635511E+02  0.39165428600E+02  0.00000000000E+00 0. -1.
</event>
<event>
 7    1  0.7444241E-013  0.5930193E+02  0.7816164E-02  0.1266605E+00
        -11   -1    0    0    0    0  0.00000000000E+00  0.00000000000E+00  0.45593999997E+02  0.45594000000E+02  0.51100000000E-03 0. -1.
         11   -1    0    0    0    0 -0.00000000000E+00 -0.00000000000E+00 -0.45593999997E+02  0.45594000000E+02  0.51100000000E-03 0.  1.
    9900012    2    1    2    0    0 -0.32430505439E+00 -0.13932628377E+02  0.28679225427E+02  0.59301932849E+02  0.49999979613E+02 0.  0.
        -12    1    1    2    0    0  0.32430505439E+00  0.13932628377E+02 -0.28679225427E+02  0.31886067151E+02  0.00000000000E+00 0.  1.
         11    1    3    3    0    0  0.10747265073E+02 -0.43487456488E+01  0.11029705890E+02  0.16002178213E+02  0.51100000000E-03 0.  1.
        -11    1    3    3    0    0  0.71507973160E+01 -0.17956656603E+02  0.10593018354E+02  0.22040586578E+02  0.51100000000E-03 0. -1.
         12    1    3    3    0    0 -0.18222367443E+02  0.83727738742E+01  0.70565011828E+01  0.21259168058E+02  0.00000000000E+00 0. -1.
</event>
<event>
 7    1  0.7444241E-013  0.5930197E+02  0.7816164E-02  0.1266605E+00
        -11   -1    0    0    0    0  0.00000000000E+00  0.00000000000E+00  0.45593999997E+02  0.45594000000E+02  0.51100000000E-03 0. -1.
         11   -1    0    0    0    0 -0.00000000000E+00 -0.00000000000E+00 -0.45593999997E+02  0.45594000000E+02  0.51100000000E-03 0.  1.
    9900012    2    1    2    0    0  0.29100303630E+02  0.62193637469E+01  0.11454724580E+02  0.59301970583E+02  0.50000048431E+02 0.  0.
        -12    1    1    2    0    0 -0.29100303630E+02 -0.62193637469E+01 -0.11454724580E+02  0.31886029417E+02  0.00000000000E+00 0.  1.
         11    1    3    3    0    0  0.25274642552E+02 -0.11460140002E+02  0.12712537290E+02  0.30524596142E+02  0.51100000000E-03 0. -1.
        -11    1    3    3    0    0  0.90697598175E+01  0.15102884425E+01  0.52358369711E+01  0.10580902768E+02  0.51100000000E-03 0.  1.
        -12    1    3    3    0    0 -0.52440987398E+01  0.16169215306E+02 -0.64936496814E+01  0.18196471674E+02  0.00000000000E+00 0.  1.
</event>
<event>
 7    1  0.7444241E-013  0.5930198E+02  0.7816164E-02  0.1266605E+00
        -11   -1    0    0    0    0  0.00000000000E+00  0.00000000000E+00  0.45593999997E+02  0.45594000000E+02  0.51100000000E-03 0. -1.
         11   -1    0    0    0    0 -0.00000000000E+00 -0.00000000000E+00 -0.45593999997E+02  0.45594000000E+02  0.51100000000E-03 0.  1.
    9900012    2    1    2    0    0  0.76236018059E+01 -0.18452232108E+02  0.24861900888E+02  0.59301979709E+02  0.50000065074E+02 0.  0.
        -12    1    1    2    0    0 -0.76236018059E+01  0.18452232108E+02 -0.24861900888E+02  0.31886020291E+02  0.00000000000E+00 0.  1.
         11    1    3    3    0    0  0.19071262067E+02 -0.16719090985E+01  0.22804960148E+02  0.29775401332E+02  0.51100000000E-03 0. -1.
        -11    1    3    3    0    0 -0.16914936029E+01  0.28998907449E+01  0.63150280643E+01  0.71519295757E+01  0.51100000000E-03 0.  1.
        -12    1    3    3    0    0 -0.97561666580E+01 -0.19680213755E+02 -0.42580873253E+01  0.22374648801E+02  0.00000000000E+00 0.  1.
</event>
<event>
 7    1  0.7444241E-013  0.5930194E+02  0.7816164E-02  0.1266605E+00
        -11   -1    0    0    0    0  0.00000000000E+00  0.00000000000E+00  0.45593999997E+02  0.45594000000E+02  0.51100000000E-03 0. -1.
         11   -1    0    0    0    0 -0.00000000000E+00 -0.00000000000E+00 -0.45593999997E+02  0.45594000000E+02  0.51100000000E-03 0.  1.
    9900012    2    1    2    0    0 -0.94816647548E+01  0.14040593836E+02  0.27012599440E+02  0.59301940816E+02  0.49999994143E+02 0.  0.
        -12    1    1    2    0    0  0.94816647548E+01 -0.14040593836E+02 -0.27012599440E+02  0.31886059184E+02  0.00000000000E+00 0.  1.
         11    1    3    3    0    0  0.59189292059E+01 -0.55042810034E+01  0.13005041860E+01  0.81867053024E+01  0.51100000000E-03 0. -1.
        -11    1    3    3    0    0  0.52500795581E+01 -0.76760241138E+01  0.19631633389E+01  0.95046668599E+01  0.51100000000E-03 0.  1.
         12    1    3    3    0    0 -0.20650673519E+02  0.27220898953E+02  0.23748931915E+02  0.41610568654E+02  0.00000000000E+00 0. -1.
</event>
<event>
 7    1  0.7444241E-013  0.5930196E+02  0.7816164E-02  0.1266605E+00
        -11   -1    0    0    0    0  0.00000000000E+00  0.00000000000E+00  0.45593999997E+02  0.45594000000E+02  0.51100000000E-03 0.  1.
         11   -1    0    0    0    0 -0.00000000000E+00 -0.00000000000E+00 -0.45593999997E+02  0.45594000000E+02  0.51100000000E-03 0. -1.
    9900012    2    1    2    0    0 -0.24505064903E+02  0.19017455058E+02 -0.73863150121E+01  0.59301961484E+02  0.50000031836E+02 0.  0.
        -12    1    1    2    0    0  0.24505064903E+02 -0.19017455058E+02  0.73863150121E+01  0.31886038516E+02  0.00000000000E+00 0.  1.
         11    1    3    3    0    0 -0.15368172831E+01 -0.46512110057E+01  0.75704391727E+01  0.90170461188E+01  0.51100000000E-03 0.  1.
        -11    1    3    3    0    0 -0.27559502658E+02  0.13913218780E+02  0.11600905833E+01  0.30894168608E+02  0.51100000000E-03 0. -1.
         12    1    3    3    0    0  0.45912550376E+01  0.97554472832E+01 -0.16116844768E+02  0.19390746757E+02  0.00000000000E+00 0. -1.
</event>
<event>
 7    1  0.7444241E-013  0.5930194E+02  0.7816164E-02  0.1266605E+00
        -11   -1    0    0    0    0  0.00000000000E+00  0.00000000000E+00  0.45593999997E+02  0.45594000000E+02  0.51100000000E-03 0. -1.
         11   -1    0    0    0    0 -0.00000000000E+00 -0.00000000000E+00 -0.45593999997E+02  0.45594000000E+02  0.51100000000E-03 0.  1.
    9900012    2    1    2    0    0 -0.29123585904E+02  0.90773322128E+01  0.92811434570E+01  0.59301939725E+02  0.49999992153E+02 0.  0.
        -12    1    1    2    0    0  0.29123585904E+02 -0.90773322128E+01 -0.92811434570E+01  0.31886060275E+02  0.00000000000E+00 0.  1.
         11    1    3    3    0    0 -0.15540075230E+02  0.14964417534E+02  0.29053734411E+01  0.21768530621E+02  0.51100000000E-03 0.  1.
        -11    1    3    3    0    0 -0.15084162602E+02  0.11851765861E+02  0.30898079492E+01  0.19430471658E+02  0.51100000000E-03 0. -1.
        -12    1    3    3    0    0  0.15006519277E+01 -0.17738851183E+02  0.32859620666E+01  0.18102937447E+02  0.00000000000E+00 0.  1.
</event>
<event>
 7    1  0.7444241E-013  0.5930194E+02  0.7816164E-02  0.1266605E+00
        -11   -1    0    0    0    0  0.00000000000E+00  0.00000000000E+00  0.45593999997E+02  0.45594000000E+02  0.51100000000E-03 0. -1.
         11   -1    0    0    0    0 -0.00000000000E+00 -0.00000000000E+00 -0.45593999997E+02  0.45594000000E+02  0.51100000000E-03 0.  1.
    9900012    2    1    2    0    0 -0.25241831592E+02 -0.77390172902E+00  0.19467195904E+02  0.59301941881E+02  0.49999996085E+02 0.  0.
        -12    1    1    2    0    0  0.25241831592E+02  0.77390172902E+00 -0.19467195904E+02  0.31886058119E+02  0.00000000000E+00 0.  1.
         11    1    3    3    0    0 -0.24617276327E+02  0.14056008961E+02  0.11205509224E+02  0.30481881814E+02  0.51100000000E-03 0. -1.
        -11    1    3    3    0    0 -0.11923380087E+02 -0.74897922438E+01  0.51400290184E+01  0.14989458934E+02  0.51100000000E-03 0.  1.
        -12    1    3    3    0    0  0.11298824822E+02 -0.73401184462E+01  0.31216576613E+01  0.13830601134E+02  0.00000000000E+00 0.  1.
</event>
<event>
 7    1  0.7444241E-013  0.5930194E+02  0.7816164E-02  0.1266605E+00
        -11   -1    0    0    0    0  0.00000000000E+00  0.00000000000E+00  0.45593999997E+02  0.45594000000E+02  0.51100000000E-03 0. -1.
         11   -1    0    0    0    0 -0.00000000000E+00 -0.00000000000E+00 -0.45593999997E+02  0.45594000000E+02  0.51100000000E-03 0.  1.
    9900012    2    1    2    0    0 -0.23129704799E+02  0.11772401309E+02  0.18524258528E+02  0.59301939869E+02  0.49999992415E+02 0.  0.
        -12    1    1    2    0    0  0.23129704799E+02 -0.11772401309E+02 -0.18524258528E+02  0.31886060131E+02  0.00000000000E+00 0.  1.
         11    1    3    3    0    0  0.40249912442E+01  0.12458995140E+02  0.12763786627E+02  0.18285003793E+02  0.51100000000E-03 0. -1.
        -11    1    3    3    0    0 -0.14534795663E+02 -0.99182353506E+01  0.14767734926E+02  0.22972106402E+02  0.51100000000E-03 0.  1.
         12    1    3    3    0    0 -0.12619900380E+02  0.92316415194E+01 -0.90072630246E+01  0.18044829673E+02  0.00000000000E+00 0. -1.
</event>
<event>
 7    1  0.7444241E-013  0.5930193E+02  0.7816164E-02  0.1266605E+00
        -11   -1    0    0    0    0  0.00000000000E+00  0.00000000000E+00  0.45593999997E+02  0.45594000000E+02  0.51100000000E-03 0. -1.
         11   -1    0    0    0    0 -0.00000000000E+00 -0.00000000000E+00 -0.45593999997E+02  0.45594000000E+02  0.51100000000E-03 0.  1.
    9900012    2    1    2    0    0 -0.23006184179E+02 -0.14959411691E+02  0.16237386120E+02  0.59301933817E+02  0.49999981378E+02 0.  0.
        -12    1    1    2    0    0  0.23006184179E+02  0.14959411691E+02 -0.16237386120E+02  0.31886066183E+02  0.00000000000E+00 0.  1.
         11    1    3    3    0    0 -0.16992209131E+02 -0.42707952401E+00  0.10086266004E+02  0.19764876176E+02  0.51100000000E-03 0. -1.
        -11    1    3    3    0    0 -0.14712138903E+02 -0.10868314399E+02  0.17129184970E+02  0.25059454642E+02  0.51100000000E-03 0.  1.
        -12    1    3    3    0    0  0.86981638547E+01 -0.36640177684E+01 -0.10978064854E+02  0.14477602999E+02  0.00000000000E+00 0.  1.
</event>
<event>
 7    1  0.7444241E-013  0.5930196E+02  0.7816164E-02  0.1266605E+00
        -11   -1    0    0    0    0  0.00000000000E+00  0.00000000000E+00  0.45593999997E+02  0.45594000000E+02  0.51100000000E-03 0.  1.
         11   -1    0    0    0    0 -0.00000000000E+00 -0.00000000000E+00 -0.45593999997E+02  0.45594000000E+02  0.51100000000E-03 0. -1.
    9900012    2    1    2    0    0  0.88335021255E+01 -0.35230772187E+01 -0.30434797147E+02  0.59301957438E+02  0.50000024458E+02 0.  0.
        -12    1    1    2    0    0 -0.88335021255E+01  0.35230772187E+01  0.30434797147E+02  0.31886042562E+02  0.00000000000E+00 0.  1.
         11    1    3    3    0    0 -0.12037713504E+01 -0.66276227845E+01  0.59492601006E+01  0.89871099494E+01  0.51100000000E-03 0. -1.
        -11    1    3    3    0    0 -0.51833345249E+01  0.13842549037E+02 -0.93685704631E+01  0.17500092383E+02  0.51100000000E-03 0.  1.
         12    1    3    3    0    0  0.15220608001E+02 -0.10738003471E+02 -0.27015486784E+02  0.32814755106E+02  0.00000000000E+00 0. -1.
</event>
<event>
 7    1  0.7444241E-013  0.5930195E+02  0.7816164E-02  0.1266605E+00
        -11   -1    0    0    0    0  0.00000000000E+00  0.00000000000E+00  0.45593999997E+02  0.45594000000E+02  0.51100000000E-03 0. -1.
         11   -1    0    0    0    0 -0.00000000000E+00 -0.00000000000E+00 -0.45593999997E+02  0.45594000000E+02  0.51100000000E-03 0.  1.
    9900012    2    1    2    0    0  0.30464234213E+02 -0.37989895867E+01  0.86150013905E+01  0.59301950746E+02  0.50000012253E+02 0.  0.
        -12    1    1    2    0    0 -0.30464234213E+02  0.37989895867E+01 -0.86150013905E+01  0.31886049254E+02  0.00000000000E+00 0.  1.
         11    1    3    3    0    0 -0.10161381314E+02 -0.96159987894E+00 -0.22203792768E+01  0.10445498022E+02  0.51100000000E-03 0. -1.
        -11    1    3    3    0    0  0.46376123241E+01  0.82051436824E+01 -0.79018957553E+00  0.94581304042E+01  0.51100000000E-03 0.  1.
         12    1    3    3    0    0  0.35988003202E+02 -0.11042533390E+02  0.11625570243E+02  0.39398322320E+02  0.00000000000E+00 0. -1.
</event>
<event>
 7    1  0.7444241E-013  0.5930199E+02  0.7816164E-02  0.1266605E+00
        -11   -1    0    0    0    0  0.00000000000E+00  0.00000000000E+00  0.45593999997E+02  0.45594000000E+02  0.51100000000E-03 0. -1.
         11   -1    0    0    0    0 -0.00000000000E+00 -0.00000000000E+00 -0.45593999997E+02  0.45594000000E+02  0.51100000000E-03 0.  1.
    9900012    2    1    2    0    0 -0.56498722929E+01  0.15311711426E+02  0.27392484023E+02  0.59301988260E+02  0.50000080669E+02 0.  0.
        -12    1    1    2    0    0  0.56498722929E+01 -0.15311711426E+02 -0.27392484023E+02  0.31886011740E+02  0.00000000000E+00 0.  1.
         11    1    3    3    0    0 -0.14120153027E+02  0.15870701281E+02  0.67864609926E+01  0.22300536624E+02  0.51100000000E-03 0. -1.
        -11    1    3    3    0    0 -0.50739360017E+01  0.11488304714E+01 -0.54819407873E+01  0.75575335301E+01  0.51100000000E-03 0.  1.
         12    1    3    3    0    0  0.13544216736E+02 -0.17078203268E+01  0.26087963818E+02  0.29443918106E+02  0.00000000000E+00 0. -1.
</event>
<event>
 7    1  0.7444241E-013  0.5930197E+02  0.7816164E-02  0.1266605E+00
        -11   -1    0    0    0    0  0.00000000000E+00  0.00000000000E+00  0.45593999997E+02  0.45594000000E+02  0.51100000000E-03 0.  1.
         11   -1    0    0    0    0 -0.00000000000E+00 -0.00000000000E+00 -0.45593999997E+02  0.45594000000E+02  0.51100000000E-03 0. -1.
    9900012    2    1    2    0    0 -0.24733929315E+02 -0.64537552493E+01 -0.19060453501E+02  0.59301966947E+02  0.50000041800E+02 0.  0.
        -12    1    1    2    0    0  0.24733929315E+02  0.64537552493E+01  0.19060453501E+02  0.31886033053E+02  0.00000000000E+00 0.  1.
         11    1    3    3    0    0  0.36707874984E+01 -0.44324636267E+01  0.45865100012E+01  0.73591771899E+01  0.51100000000E-03 0. -1.
        -11    1    3    3    0    0  0.34859367056E+01 -0.10263564632E+00  0.69060555620E+01  0.77366589997E+01  0.51100000000E-03 0.  1.
         12    1    3    3    0    0 -0.31890653519E+02 -0.19186559763E+01 -0.30553019064E+02  0.44206130758E+02  0.00000000000E+00 0. -1.
</event>
<event>
 7    1  0.7444241E-013  0.5930188E+02  0.7816164E-02  0.1266605E+00
        -11   -1    0    0    0    0  0.00000000000E+00  0.00000000000E+00  0.45593999997E+02  0.45594000000E+02  0.51100000000E-03 0. -1.
         11   -1    0    0    0    0 -0.00000000000E+00 -0.00000000000E+00 -0.45593999997E+02  0.45594000000E+02  0.51100000000E-03 0.  1.
    9900012    2    1    2    0    0  0.62641039847E+01  0.26453587362E+02  0.16664126070E+02  0.59301884202E+02  0.49999890892E+02 0.  0.
        -12    1    1    2    0    0 -0.62641039847E+01 -0.26453587362E+02 -0.16664126070E+02  0.31886115798E+02  0.00000000000E+00 0.  1.
         11    1    3    3    0    0 -0.99626439052E+01  0.18159624692E+02 -0.31475865478E+00  0.20715340108E+02  0.51100000000E-03 0. -1.
        -11    1    3    3    0    0 -0.34594419833E+01  0.10441225208E+02  0.15118477592E+02  0.18696397718E+02  0.51100000000E-03 0.  1.
        -12    1    3    3    0    0  0.19686189873E+02 -0.21472625382E+01  0.18604071332E+01  0.19890146375E+02  0.00000000000E+00 0.  1.
</event>
<event>
 7    1  0.7444241E-013  0.5930195E+02  0.7816164E-02  0.1266605E+00
        -11   -1    0    0    0    0  0.00000000000E+00  0.00000000000E+00  0.45593999997E+02  0.45594000000E+02  0.51100000000E-03 0.  1.
         11   -1    0    0    0    0 -0.00000000000E+00 -0.00000000000E+00 -0.45593999997E+02  0.45594000000E+02  0.51100000000E-03 0. -1.
    9900012    2    1    2    0    0 -0.20332120617E+02  0.12412351609E+02 -0.21195721572E+02  0.59301949536E+02  0.50000010045E+02 0.  0.
        -12    1    1    2    0    0  0.20332120617E+02 -0.12412351609E+02  0.21195721572E+02  0.31886050464E+02  0.00000000000E+00 0.  1.
         11    1    3    3    0    0 -0.10715251962E+02 -0.12083247685E+02 -0.15281102624E+02  0.22233614122E+02  0.51100000000E-03 0. -1.
        -11    1    3    3    0    0 -0.34743745279E+01 -0.12877758625E+00 -0.10692520776E+02  0.11243569844E+02  0.51100000000E-03 0.  1.
        -12    1    3    3    0    0 -0.61424941270E+01  0.24624376881E+02  0.47779018282E+01  0.25824765570E+02  0.00000000000E+00 0.  1.
</event>
<event>
 7    1  0.7444241E-013  0.5930197E+02  0.7816164E-02  0.1266605E+00
        -11   -1    0    0    0    0  0.00000000000E+00  0.00000000000E+00  0.45593999997E+02  0.45594000000E+02  0.51100000000E-03 0.  1.
         11   -1    0    0    0    0 -0.00000000000E+00 -0.00000000000E+00 -0.45593999997E+02  0.45594000000E+02  0.51100000000E-03 0. -1.
    9900012    2    1    2    0    0  0.13290477922E+02  0.22488709053E+02 -0.18284968476E+02  0.59301969980E+02  0.50000047330E+02 0.  0.
        -12    1    1    2    0    0 -0.13290477922E+02 -0.22488709053E+02  0.18284968476E+02  0.31886030020E+02  0.00000000000E+00 0.  1.
         11    1    3    3    0    0  0.15676592006E+02  0.19366861398E+02 -0.15270881792E+02  0.29223803454E+02  0.51100000000E-03 0. -1.
        -11    1    3    3    0    0 -0.10778205821E+02  0.31726428775E+01 -0.12902368730E+02  0.17108667472E+02  0.51100000000E-03 0.  1.
         12    1    3    3    0    0  0.83920917369E+01 -0.50795222503E-01  0.98882820465E+01  0.12969499054E+02  0.00000000000E+00 0. -1.
</event>
<event>
 7    1  0.7444241E-013  0.5930190E+02  0.7816164E-02  0.1266605E+00
        -11   -1    0    0    0    0  0.00000000000E+00  0.00000000000E+00  0.45593999997E+02  0.45594000000E+02  0.51100000000E-03 0. -1.
         11   -1    0    0    0    0 -0.00000000000E+00 -0.00000000000E+00 -0.45593999997E+02  0.45594000000E+02  0.51100000000E-03 0.  1.
    9900012    2    1    2    0    0  0.25972936854E+01  0.19309262234E+02  0.25241434147E+02  0.59301897380E+02  0.49999914925E+02 0.  0.
        -12    1    1    2    0    0 -0.25972936854E+01 -0.19309262234E+02 -0.25241434147E+02  0.31886102620E+02  0.00000000000E+00 0.  1.
         11    1    3    3    0    0  0.40162528776E+01  0.12014138801E+01  0.50669531776E+01  0.65762981421E+01  0.51100000000E-03 0. -1.
        -11    1    3    3    0    0 -0.66070138962E+01 -0.89772237782E+01 -0.76742985769E+01  0.13532850339E+02  0.51100000000E-03 0.  1.
         12    1    3    3    0    0  0.51880547040E+01  0.27085072133E+02  0.27848779546E+02  0.39192748899E+02  0.00000000000E+00 0. -1.
</event>
<event>
 7    1  0.7444241E-013  0.5930195E+02  0.7816164E-02  0.1266605E+00
        -11   -1    0    0    0    0  0.00000000000E+00  0.00000000000E+00  0.45593999997E+02  0.45594000000E+02  0.51100000000E-03 0.  1.
         11   -1    0    0    0    0 -0.00000000000E+00 -0.00000000000E+00 -0.45593999997E+02  0.45594000000E+02  0.51100000000E-03 0. -1.
    9900012    2    1    2    0    0  0.12061437083E+02 -0.25388935011E+02 -0.15054692334E+02  0.59301952161E+02  0.50000014834E+02 0.  0.
        -12    1    1    2    0    0 -0.12061437083E+02  0.25388935011E+02  0.15054692334E+02  0.31886047839E+02  0.00000000000E+00 0.  1.
         11    1    3    3    0    0  0.25254201469E+02 -0.16613934333E+02 -0.37205210276E+01  0.30457179495E+02  0.51100000000E-03 0. -1.
        -11    1    3    3    0    0 -0.86917542016E+00 -0.11452183848E+02 -0.11471789005E+02  0.16232988758E+02  0.51100000000E-03 0.  1.
        -12    1    3    3    0    0 -0.12323588965E+02  0.26771831699E+01  0.13761769879E+00  0.12611783908E+02  0.00000000000E+00 0.  1.
</event>
<event>
 7    1  0.7444241E-013  0.5930195E+02  0.7816164E-02  0.1266605E+00
        -11   -1    0    0    0    0  0.00000000000E+00  0.00000000000E+00  0.45593999997E+02  0.45594000000E+02  0.51100000000E-03 0.  1.
         11   -1    0    0    0    0 -0.00000000000E+00 -0.00000000000E+00 -0.45593999997E+02  0.45594000000E+02  0.51100000000E-03 0. -1.
    9900012    2    1    2    0    0  0.36355291014E+01 -0.28635029432E+02 -0.13547619258E+02  0.59301953365E+02  0.50000017030E+02 0.  0.
        -12    1    1    2    0    0 -0.36355291014E+01  0.28635029432E+02  0.13547619258E+02  0.31886046635E+02  0.00000000000E+00 0.  1.
         11    1    3    3    0    0  0.62789870909E+01 -0.27344132521E+02 -0.13238139502E+02  0.31022179162E+02  0.51100000000E-03 0. -1.
        -11    1    3    3    0    0  0.70445436778E+01 -0.11876331831E+02 -0.14534859628E+01  0.13884720923E+02  0.51100000000E-03 0.  1.
         12    1    3    3    0    0 -0.96880016673E+01  0.10585434920E+02  0.11440062074E+01  0.14395053281E+02  0.00000000000E+00 0. -1.
</event>
<event>
 7    1  0.7444241E-013  0.5930197E+02  0.7816164E-02  0.1266605E+00
        -11   -1    0    0    0    0  0.00000000000E+00  0.00000000000E+00  0.45593999997E+02  0.45594000000E+02  0.51100000000E-03 0.  1.
         11   -1    0    0    0    0 -0.00000000000E+00 -0.00000000000E+00 -0.45593999997E+02  0.45594000000E+02  0.51100000000E-03 0. -1.
    9900012    2    1    2    0    0 -0.66117598190E+00  0.91388916271E+01 -0.30541163856E+02  0.59301965697E+02  0.50000039520E+02 0.  0.
        -12    1    1    2    0    0  0.66117598190E+00 -0.91388916271E+01  0.30541163856E+02  0.31886034303E+02  0.00000000000E+00 0.  1.
         11    1    3    3    0    0 -0.30693125832E+01  0.49688194493E+01  0.52617999389E+01  0.78610676953E+01  0.51100000000E-03 0. -1.
        -11    1    3    3    0    0 -0.15981355348E+02  0.19735651555E+01 -0.78625181934E+01  0.17919762018E+02  0.51100000000E-03 0.  1.
         12    1    3    3    0    0  0.18389491949E+02  0.21965070223E+01 -0.27940445602E+02  0.33521135984E+02  0.00000000000E+00 0. -1.
</event>
<event>
 7    1  0.7444241E-013  0.5930197E+02  0.7816164E-02  0.1266605E+00
        -11   -1    0    0    0    0  0.00000000000E+00  0.00000000000E+00  0.45593999997E+02  0.45594000000E+02  0.51100000000E-03 0. -1.
         11   -1    0    0    0    0 -0.00000000000E+00 -0.00000000000E+00 -0.45593999997E+02  0.45594000000E+02  0.51100000000E-03 0.  1.
    9900012    2    1    2    0    0  0.26496420874E+02  0.40256959709E+01 -0.17275765305E+02  0.59301974627E+02  0.50000055806E+02 0.  0.
        -12    1    1    2    0    0 -0.26496420874E+02 -0.40256959709E+01  0.17275765305E+02  0.31886025373E+02  0.00000000000E+00 0.  1.
         11    1    3    3    0    0  0.67956211581E+01 -0.10715358754E+02  0.24734808384E+01  0.12927392926E+02  0.51100000000E-03 0. -1.
        -11    1    3    3    0    0 -0.39137791857E+01  0.15418283097E+02 -0.52360044276E+00  0.15915881341E+02  0.51100000000E-03 0.  1.
         12    1    3    3    0    0  0.23614578902E+02 -0.67722837258E+00 -0.19225645701E+02  0.30458700360E+02  0.00000000000E+00 0. -1.
</event>
<event>
 7    1  0.7444241E-013  0.5930200E+02  0.7816164E-02  0.1266605E+00
        -11   -1    0    0    0    0  0.00000000000E+00  0.00000000000E+00  0.45593999997E+02  0.45594000000E+02  0.51100000000E-03 0.  1.
         11   -1    0    0    0    0 -0.00000000000E+00 -0.00000000000E+00 -0.45593999997E+02  0.45594000000E+02  0.51100000000E-03 0. -1.
    9900012    2    1    2    0    0 -0.91120408947E+01 -0.80386049515E+01 -0.29479970049E+02  0.59301998480E+02  0.50000099308E+02 0.  0.
        -12    1    1    2    0    0  0.91120408947E+01  0.80386049515E+01  0.29479970049E+02  0.31886001520E+02  0.00000000000E+00 0.  1.
         11    1    3    3    0    0 -0.13667748825E+02  0.86320682652E+01 -0.14861943910E+02  0.21958992179E+02  0.51100000000E-03 0. -1.
        -11    1    3    3    0    0 -0.46103907791E+01  0.46533681271E+01  0.39235856292E+01  0.76357096928E+01  0.51100000000E-03 0.  1.
         12    1    3    3    0    0  0.91660987094E+01 -0.21324041344E+02 -0.18541611768E+02  0.29707296608E+02  0.00000000000E+00 0. -1.
</event>
<event>
 7    1  0.7444241E-013  0.5930194E+02  0.7816164E-02  0.1266605E+00
        -11   -1    0    0    0    0  0.00000000000E+00  0.00000000000E+00  0.45593999997E+02  0.45594000000E+02  0.51100000000E-03 0.  1.
         11   -1    0    0    0    0 -0.00000000000E+00 -0.00000000000E+00 -0.45593999997E+02  0.45594000000E+02  0.51100000000E-03 0. -1.
    9900012    2    1    2    0    0 -0.27780299371E+02  0.13035490426E+02  0.86632492857E+01  0.59301938281E+02  0.49999989519E+02 0.  0.
        -12    1    1    2    0    0  0.27780299371E+02 -0.13035490426E+02 -0.86632492857E+01  0.31886061719E+02  0.00000000000E+00 0.  1.
         11    1    3    3    0    0 -0.25676048527E+02 -0.47739215212E+01  0.20302630732E+02  0.33079398566E+02  0.51100000000E-03 0. -1.
        -11    1    3    3    0    0 -0.32831530639E+01  0.73902878484E+00  0.23633536697E+01  0.41122619584E+01  0.51100000000E-03 0.  1.
         12    1    3    3    0    0  0.11789022197E+01  0.17070383162E+02 -0.14002735116E+02  0.22110277756E+02  0.00000000000E+00 0. -1.
</event>
<event>
 7    1  0.7444241E-013  0.5930198E+02  0.7816164E-02  0.1266605E+00
        -11   -1    0    0    0    0  0.00000000000E+00  0.00000000000E+00  0.45593999997E+02  0.45594000000E+02  0.51100000000E-03 0.  1.
         11   -1    0    0    0    0 -0.00000000000E+00 -0.00000000000E+00 -0.45593999997E+02  0.45594000000E+02  0.51100000000E-03 0. -1.
    9900012    2    1    2    0    0  0.23990614311E+02  0.20092448311E+01 -0.20907691524E+02  0.59301981047E+02  0.50000067514E+02 0.  0.
        -12    1    1    2    0    0 -0.23990614311E+02 -0.20092448311E+01  0.20907691524E+02  0.31886018953E+02  0.00000000000E+00 0.  1.
         11    1    3    3    0    0  0.14303152648E+02  0.16648049047E+01 -0.29705103928E+02  0.33011285202E+02  0.51100000000E-03 0. -1.
        -11    1    3    3    0    0 -0.33305608674E+01  0.51546967087E+01 -0.40709042734E+01  0.73644956185E+01  0.51100000000E-03 0.  1.
        -12    1    3    3    0    0  0.13018022530E+02 -0.48102567823E+01  0.12868316677E+02  0.18926200227E+02  0.00000000000E+00 0.  1.
</event>
<event>
 7    1  0.7444241E-013  0.5930194E+02  0.7816164E-02  0.1266605E+00
        -11   -1    0    0    0    0  0.00000000000E+00  0.00000000000E+00  0.45593999997E+02  0.45594000000E+02  0.51100000000E-03 0. -1.
         11   -1    0    0    0    0 -0.00000000000E+00 -0.00000000000E+00 -0.45593999997E+02  0.45594000000E+02  0.51100000000E-03 0.  1.
    9900012    2    1    2    0    0  0.15028355922E+02 -0.23150213072E+02  0.15966750062E+02  0.59301937926E+02  0.49999988872E+02 0.  0.
        -12    1    1    2    0    0 -0.15028355922E+02  0.23150213072E+02 -0.15966750062E+02  0.31886062074E+02  0.00000000000E+00 0.  1.
         11    1    3    3    0    0  0.11105558683E+02 -0.68617316536E+01  0.87659099817E+01  0.15724438719E+02  0.51100000000E-03 0. -1.
        -11    1    3    3    0    0  0.17700325895E+01 -0.25748751504E+02  0.16093973886E+02  0.30416232756E+02  0.51100000000E-03 0.  1.
        -12    1    3    3    0    0  0.21527646494E+01  0.94602700850E+01 -0.88931338056E+01  0.13161266451E+02  0.00000000000E+00 0.  1.
</event>
<event>
 7    1  0.7444241E-013  0.5930193E+02  0.7816164E-02  0.1266605E+00
        -11   -1    0    0    0    0  0.00000000000E+00  0.00000000000E+00  0.45593999997E+02  0.45594000000E+02  0.51100000000E-03 0.  1.
         11   -1    0    0    0    0 -0.00000000000E+00 -0.00000000000E+00 -0.45593999997E+02  0.45594000000E+02  0.51100000000E-03 0. -1.
    9900012    2    1    2    0    0  0.69398599359E+01 -0.19061364754E+02 -0.24601303745E+02  0.59301930499E+02  0.49999975327E+02 0.  0.
        -12    1    1    2    0    0 -0.69398599359E+01  0.19061364754E+02  0.24601303745E+02  0.31886069501E+02  0.00000000000E+00 0.  1.
         11    1    3    3    0    0  0.89920700638E+01 -0.80429421532E+01 -0.22552814264E+02  0.25576858173E+02  0.51100000000E-03 0. -1.
        -11    1    3    3    0    0 -0.10586486993E+02 -0.17566404584E+02 -0.72800081860E+01  0.21763519851E+02  0.51100000000E-03 0.  1.
         12    1    3    3    0    0  0.85342768648E+01  0.65479819830E+01  0.52315187047E+01  0.11961552475E+02  0.00000000000E+00 0. -1.
</event>
<event>
 7    1  0.7444241E-013  0.5930168E+02  0.7816164E-02  0.1266606E+00
        -11   -1    0    0    0    0  0.00000000000E+00  0.00000000000E+00  0.45593999997E+02  0.45594000000E+02  0.51100000000E-03 0.  1.
         11   -1    0    0    0    0 -0.00000000000E+00 -0.00000000000E+00 -0.45593999997E+02  0.45594000000E+02  0.51100000000E-03 0. -1.
    9900012    2    1    2    0    0 -0.22595444043E+02  0.22113037679E+02 -0.41469487656E+01  0.59301675174E+02  0.49999509672E+02 0.  0.
        -12    1    1    2    0    0  0.22595444043E+02 -0.22113037679E+02  0.41469487656E+01  0.31886324826E+02  0.00000000000E+00 0.  1.
         11    1    3    3    0    0 -0.28214584166E+02 -0.19875024376E+01  0.66100564212E+01  0.29046613774E+02  0.51100000000E-03 0.  1.
        -11    1    3    3    0    0  0.60465900583E+01  0.22958847884E+01 -0.25936331497E+01  0.69684482829E+01  0.51100000000E-03 0. -1.
        -12    1    3    3    0    0 -0.42744993529E+00  0.21804655328E+02 -0.81633720371E+01  0.23286613117E+02  0.00000000000E+00 0.  1.
</event>
<event>
 7    1  0.7444241E-013  0.5930195E+02  0.7816164E-02  0.1266605E+00
        -11   -1    0    0    0    0  0.00000000000E+00  0.00000000000E+00  0.45593999997E+02  0.45594000000E+02  0.51100000000E-03 0.  1.
         11   -1    0    0    0    0 -0.00000000000E+00 -0.00000000000E+00 -0.45593999997E+02  0.45594000000E+02  0.51100000000E-03 0. -1.
    9900012    2    1    2    0    0 -0.12601538447E+02 -0.18742834798E+02 -0.22508390691E+02  0.59301948520E+02  0.50000008192E+02 0.  0.
        -12    1    1    2    0    0  0.12601538447E+02  0.18742834798E+02  0.22508390691E+02  0.31886051480E+02  0.00000000000E+00 0.  1.
         11    1    3    3    0    0 -0.19379909942E+02  0.53224881680E+01 -0.16583004714E+02  0.26055821523E+02  0.51100000000E-03 0. -1.
        -11    1    3    3    0    0 -0.64445735912E+00 -0.31623405833E+01  0.69042297534E+01  0.76212933287E+01  0.51100000000E-03 0.  1.
        -12    1    3    3    0    0  0.74228288544E+01 -0.20902982383E+02 -0.12829615731E+02  0.25624833668E+02  0.00000000000E+00 0.  1.
</event>
<event>
 7    1  0.7444241E-013  0.5930193E+02  0.7816164E-02  0.1266605E+00
        -11   -1    0    0    0    0  0.00000000000E+00  0.00000000000E+00  0.45593999997E+02  0.45594000000E+02  0.51100000000E-03 0. -1.
         11   -1    0    0    0    0 -0.00000000000E+00 -0.00000000000E+00 -0.45593999997E+02  0.45594000000E+02  0.51100000000E-03 0.  1.
    9900012    2    1    2    0    0 -0.11077088132E+02  0.73090859124E+01  0.28993046714E+02  0.59301931316E+02  0.49999976818E+02 0.  0.
        -12    1    1    2    0    0  0.11077088132E+02 -0.73090859124E+01 -0.28993046714E+02  0.31886068684E+02  0.00000000000E+00 0.  1.
         11    1    3    3    0    0 -0.40173885862E+01  0.58297083094E+01  0.19020741570E+02  0.20295652741E+02  0.51100000000E-03 0. -1.
        -11    1    3    3    0    0 -0.31548967755E-01  0.10067690044E+01  0.23623441361E+02  0.23644905607E+02  0.51100000000E-03 0.  1.
         12    1    3    3    0    0 -0.70281505782E+01  0.47260859859E+00 -0.13651136218E+02  0.15361372969E+02  0.00000000000E+00 0. -1.
</event>
<event>
 7    1  0.7444241E-013  0.5930194E+02  0.7816164E-02  0.1266605E+00
        -11   -1    0    0    0    0  0.00000000000E+00  0.00000000000E+00  0.45593999997E+02  0.45594000000E+02  0.51100000000E-03 0. -1.
         11   -1    0    0    0    0 -0.00000000000E+00 -0.00000000000E+00 -0.45593999997E+02  0.45594000000E+02  0.51100000000E-03 0.  1.
    9900012    2    1    2    0    0  0.17998757178E+02 -0.24161430832E+02 -0.10439878664E+02  0.59301936174E+02  0.49999985676E+02 0.  0.
        -12    1    1    2    0    0 -0.17998757178E+02  0.24161430832E+02  0.10439878664E+02  0.31886063826E+02  0.00000000000E+00 0.  1.
         11    1    3    3    0    0  0.83645359111E+01 -0.44019693941E+01 -0.15613213391E+02  0.18251444551E+02  0.51100000000E-03 0.  1.
        -11    1    3    3    0    0  0.18680445684E+02 -0.99303650091E+01 -0.76856549648E+01  0.22508675942E+02  0.51100000000E-03 0. -1.
         12    1    3    3    0    0 -0.90462244174E+01 -0.98290964289E+01  0.12858989692E+02  0.18541815680E+02  0.00000000000E+00 0. -1.
</event>
<event>
 7    1  0.7444241E-013  0.5930190E+02  0.7816164E-02  0.1266605E+00
        -11   -1    0    0    0    0  0.00000000000E+00  0.00000000000E+00  0.45593999997E+02  0.45594000000E+02  0.51100000000E-03 0.  1.
         11   -1    0    0    0    0 -0.00000000000E+00 -0.00000000000E+00 -0.45593999997E+02  0.45594000000E+02  0.51100000000E-03 0. -1.
    9900012    2    1    2    0    0 -0.10558065433E+02 -0.10165841444E+02 -0.28317946985E+02  0.59301902725E+02  0.49999924674E+02 0.  0.
        -12    1    1    2    0    0  0.10558065433E+02  0.10165841444E+02  0.28317946985E+02  0.31886097275E+02  0.00000000000E+00 0.  1.
         11    1    3    3    0    0 -0.83990337283E+01 -0.19011662603E+02 -0.18230398250E+02  0.27646600209E+02  0.51100000000E-03 0. -1.
        -11    1    3    3    0    0  0.82573696297E+01 -0.55257105221E+01 -0.97237829951E+01  0.13902143215E+02  0.51100000000E-03 0.  1.
        -12    1    3    3    0    0 -0.10416401335E+02  0.14371531682E+02 -0.36376574013E+00  0.17753159301E+02  0.00000000000E+00 0.  1.
</event>
<event>
 7    1  0.7444241E-013  0.5930196E+02  0.7816164E-02  0.1266605E+00
        -11   -1    0    0    0    0  0.00000000000E+00  0.00000000000E+00  0.45593999997E+02  0.45594000000E+02  0.51100000000E-03 0. -1.
         11   -1    0    0    0    0 -0.00000000000E+00 -0.00000000000E+00 -0.45593999997E+02  0.45594000000E+02  0.51100000000E-03 0.  1.
    9900012    2    1    2    0    0 -0.23657971506E+02 -0.17409283726E+02  0.12407129793E+02  0.59301958456E+02  0.50000026314E+02 0.  0.
        -12    1    1    2    0    0  0.23657971506E+02  0.17409283726E+02 -0.12407129793E+02  0.31886041544E+02  0.00000000000E+00 0.  1.
         11    1    3    3    0    0  0.88998505332E+00 -0.32919128137E-01  0.60274478665E-01  0.89263113212E+00  0.51100000000E-03 0. -1.
        -11    1    3    3    0    0  0.75957279302E+01  0.10727357529E+02 -0.21488483933E+01  0.13318739881E+02  0.51100000000E-03 0.  1.
         12    1    3    3    0    0 -0.32143684489E+02 -0.28103722127E+02  0.14495703707E+02  0.45090587443E+02  0.00000000000E+00 0. -1.
</event>
<event>
 7    1  0.7444241E-013  0.5930183E+02  0.7816164E-02  0.1266605E+00
        -11   -1    0    0    0    0  0.00000000000E+00  0.00000000000E+00  0.45593999997E+02  0.45594000000E+02  0.51100000000E-03 0.  1.
         11   -1    0    0    0    0 -0.00000000000E+00 -0.00000000000E+00 -0.45593999997E+02  0.45594000000E+02  0.51100000000E-03 0. -1.
    9900012    2    1    2    0    0  0.12231988534E+02  0.23668556115E+02 -0.17518730000E+02  0.59301827560E+02  0.49999787590E+02 0.  0.
        -12    1    1    2    0    0 -0.12231988534E+02 -0.23668556115E+02  0.17518730000E+02  0.31886172440E+02  0.00000000000E+00 0.  1.
         11    1    3    3    0    0  0.19618314712E+02  0.27288756037E+02  0.30708641206E+01  0.33748847164E+02  0.51100000000E-03 0. -1.
        -11    1    3    3    0    0 -0.11916742946E+01  0.42792022956E+01 -0.10100857316E+02  0.11034445101E+02  0.51100000000E-03 0.  1.
        -12    1    3    3    0    0 -0.61946518836E+01 -0.78994022172E+01 -0.10488736804E+02  0.14518535294E+02  0.00000000000E+00 0.  1.
</event>
<event>
 7    1  0.7444241E-013  0.5930193E+02  0.7816164E-02  0.1266605E+00
        -11   -1    0    0    0    0  0.00000000000E+00  0.00000000000E+00  0.45593999997E+02  0.45594000000E+02  0.51100000000E-03 0.  1.
         11   -1    0    0    0    0 -0.00000000000E+00 -0.00000000000E+00 -0.45593999997E+02  0.45594000000E+02  0.51100000000E-03 0. -1.
    9900012    2    1    2    0    0 -0.17889198143E+02 -0.21538839578E+02 -0.15257004398E+02  0.59301934018E+02  0.49999981745E+02 0.  0.
        -12    1    1    2    0    0  0.17889198143E+02  0.21538839578E+02  0.15257004398E+02  0.31886065982E+02  0.00000000000E+00 0.  1.
         11    1    3    3    0    0  0.12344964464E+01 -0.98374227384E+01 -0.14442296446E+02  0.17517956345E+02  0.51100000000E-03 0. -1.
        -11    1    3    3    0    0 -0.17927966595E+02  0.69520430418E+01 -0.91777069610E+01  0.21306646709E+02  0.51100000000E-03 0.  1.
        -12    1    3    3    0    0 -0.11957279952E+01 -0.18653459882E+02  0.83629990082E+01  0.20477330964E+02  0.00000000000E+00 0.  1.
</event>
<event>
 7    1  0.7444241E-013  0.5930193E+02  0.7816164E-02  0.1266605E+00
        -11   -1    0    0    0    0  0.00000000000E+00  0.00000000000E+00  0.45593999997E+02  0.45594000000E+02  0.51100000000E-03 0.  1.
         11   -1    0    0    0    0 -0.00000000000E+00 -0.00000000000E+00 -0.45593999997E+02  0.45594000000E+02  0.51100000000E-03 0. -1.
    9900012    2    1    2    0    0  0.21226350901E+02  0.21999330351E+02  0.90660161255E+01  0.59301934755E+02  0.49999983088E+02 0.  0.
        -12    1    1    2    0    0 -0.21226350901E+02 -0.21999330351E+02 -0.90660161255E+01  0.31886065245E+02  0.00000000000E+00 0.  1.
         11    1    3    3    0    0  0.14833927075E+02  0.28800095659E+02  0.77770329712E+01  0.33316259462E+02  0.51100000000E-03 0. -1.
        -11    1    3    3    0    0  0.13398049499E+01  0.48944774209E+01  0.95410507794E+01  0.10806601536E+02  0.51100000000E-03 0.  1.
         12    1    3    3    0    0  0.50526188758E+01 -0.11695242729E+02 -0.82520676252E+01  0.15179073756E+02  0.00000000000E+00 0. -1.
</event>
<event>
 7    1  0.7444241E-013  0.5930196E+02  0.7816164E-02  0.1266605E+00
        -11   -1    0    0    0    0  0.00000000000E+00  0.00000000000E+00  0.45593999997E+02  0.45594000000E+02  0.51100000000E-03 0. -1.
         11   -1    0    0    0    0 -0.00000000000E+00 -0.00000000000E+00 -0.45593999997E+02  0.45594000000E+02  0.51100000000E-03 0.  1.
    9900012    2    1    2    0    0 -0.19244450266E+02  0.23658750284E+02  0.93077370200E+01  0.59301963880E+02  0.50000036205E+02 0.  0.
        -12    1    1    2    0    0  0.19244450266E+02 -0.23658750284E+02 -0.93077370200E+01  0.31886036120E+02  0.00000000000E+00 0.  1.
         11    1    3    3    0    0  0.12942291090E+01 -0.14397188516E+01  0.16237305993E+02  0.16352306429E+02  0.51100000000E-03 0. -1.
        -11    1    3    3    0    0 -0.28190027233E+01 -0.55221099619E+01 -0.41537972236E+01  0.74628752115E+01  0.51100000000E-03 0.  1.
         12    1    3    3    0    0 -0.17719676652E+02  0.30620579097E+02 -0.27757717498E+01  0.35486782239E+02  0.00000000000E+00 0. -1.
</event>
<event>
 7    1  0.7444241E-013  0.5930194E+02  0.7816164E-02  0.1266605E+00
        -11   -1    0    0    0    0  0.00000000000E+00  0.00000000000E+00  0.45593999997E+02  0.45594000000E+02  0.51100000000E-03 0. -1.
         11   -1    0    0    0    0 -0.00000000000E+00 -0.00000000000E+00 -0.45593999997E+02  0.45594000000E+02  0.51100000000E-03 0.  1.
    9900012    2    1    2    0    0 -0.13587934558E+02  0.20854863421E+02  0.19928957791E+02  0.59301942663E+02  0.49999997511E+02 0.  0.
        -12    1    1    2    0    0  0.13587934558E+02 -0.20854863421E+02 -0.19928957791E+02  0.31886057337E+02  0.00000000000E+00 0.  1.
         11    1    3    3    0    0 -0.12537156903E+01 -0.81071489190E+01 -0.43111134839E+01  0.92673278975E+01  0.51100000000E-03 0. -1.
        -11    1    3    3    0    0 -0.60698045293E+01 -0.55930193735E+01  0.20890914155E+01  0.85140293597E+01  0.51100000000E-03 0.  1.
        -12    1    3    3    0    0 -0.62644143388E+01  0.34555031713E+02  0.22150979859E+02  0.41520585406E+02  0.00000000000E+00 0.  1.
</event>
<event>
 7    1  0.7444241E-013  0.5930195E+02  0.7816164E-02  0.1266605E+00
        -11   -1    0    0    0    0  0.00000000000E+00  0.00000000000E+00  0.45593999997E+02  0.45594000000E+02  0.51100000000E-03 0.  1.
         11   -1    0    0    0    0 -0.00000000000E+00 -0.00000000000E+00 -0.45593999997E+02  0.45594000000E+02  0.51100000000E-03 0. -1.
    9900012    2    1    2    0    0  0.17961557966E+02 -0.43653626685E+01 -0.25981651107E+02  0.59301950542E+02  0.50000011880E+02 0.  0.
        -12    1    1    2    0    0 -0.17961557966E+02  0.43653626685E+01  0.25981651107E+02  0.31886049458E+02  0.00000000000E+00 0.  1.
         11    1    3    3    0    0  0.17189087110E+02 -0.75239514248E+00 -0.11804549762E+02  0.20865718522E+02  0.51100000000E-03 0. -1.
        -11    1    3    3    0    0  0.15544393628E+02  0.55438989649E+01 -0.13014428383E+02  0.21017572062E+02  0.51100000000E-03 0.  1.
         12    1    3    3    0    0 -0.14771922772E+02 -0.91568664910E+01 -0.11626729632E+01  0.17418659958E+02  0.00000000000E+00 0. -1.
</event>
<event>
 7    1  0.7444241E-013  0.5930194E+02  0.7816164E-02  0.1266605E+00
        -11   -1    0    0    0    0  0.00000000000E+00  0.00000000000E+00  0.45593999997E+02  0.45594000000E+02  0.51100000000E-03 0.  1.
         11   -1    0    0    0    0 -0.00000000000E+00 -0.00000000000E+00 -0.45593999997E+02  0.45594000000E+02  0.51100000000E-03 0. -1.
    9900012    2    1    2    0    0  0.26102717626E+02 -0.17778447177E+02  0.43927038459E+01  0.59301938805E+02  0.49999990474E+02 0.  0.
        -12    1    1    2    0    0 -0.26102717626E+02  0.17778447177E+02 -0.43927038459E+01  0.31886061195E+02  0.00000000000E+00 0.  1.
         11    1    3    3    0    0  0.21455658685E+02  0.47220106434E+01  0.94297456377E+01  0.23907379136E+02  0.51100000000E-03 0. -1.
        -11    1    3    3    0    0 -0.26001407203E+01  0.44585060431E+01  0.34602561609E+01  0.62138861321E+01  0.51100000000E-03 0.  1.
        -12    1    3    3    0    0  0.72471996615E+01 -0.26958963864E+02 -0.84972979527E+01  0.29180673536E+02  0.00000000000E+00 0.  1.
</event>
<event>
 7    1  0.7444241E-013  0.5930194E+02  0.7816164E-02  0.1266605E+00
        -11   -1    0    0    0    0  0.00000000000E+00  0.00000000000E+00  0.45593999997E+02  0.45594000000E+02  0.51100000000E-03 0. -1.
         11   -1    0    0    0    0 -0.00000000000E+00 -0.00000000000E+00 -0.45593999997E+02  0.45594000000E+02  0.51100000000E-03 0.  1.
    9900012    2    1    2    0    0  0.22615079994E+02  0.22464366402E+02  0.79448949639E+00  0.59301940122E+02  0.49999992877E+02 0.  0.
        -12    1    1    2    0    0 -0.22615079994E+02 -0.22464366402E+02 -0.79448949639E+00  0.31886059878E+02  0.00000000000E+00 0.  1.
         11    1    3    3    0    0  0.24567995554E+01  0.13353638708E+01 -0.17176862612E+01  0.32816927150E+01  0.51100000000E-03 0. -1.
        -11    1    3    3    0    0  0.17828702808E+02 -0.12593527295E+02 -0.19916542904E+01  0.21918628165E+02  0.51100000000E-03 0.  1.
         12    1    3    3    0    0  0.23295776300E+01  0.33722529826E+02  0.45038300479E+01  0.34101619242E+02  0.00000000000E+00 0. -1.
</event>
<event>
 7    1  0.7444241E-013  0.5930193E+02  0.7816164E-02  0.1266605E+00
        -11   -1    0    0    0    0  0.00000000000E+00  0.00000000000E+00  0.45593999997E+02  0.45594000000E+02  0.51100000000E-03 0.  1.
         11   -1    0    0    0    0 -0.00000000000E+00 -0.00000000000E+00 -0.45593999997E+02  0.45594000000E+02  0.51100000000E-03 0. -1.
    9900012    2    1    2    0    0  0.25673425532E+02 -0.11370787410E+02 -0.15109657835E+02  0.59301931808E+02  0.49999977714E+02 0.  0.
        -12    1    1    2    0    0 -0.25673425532E+02  0.11370787410E+02  0.15109657835E+02  0.31886068192E+02  0.00000000000E+00 0.  1.
         11    1    3    3    0    0  0.12749587452E+02 -0.10982242988E+02 -0.63934003344E+01  0.18001033563E+02  0.51100000000E-03 0. -1.
        -11    1    3    3    0    0 -0.72323627632E+01 -0.12856944359E+02  0.26954045659E+01  0.14995775919E+02  0.51100000000E-03 0.  1.
         12    1    3    3    0    0  0.20156200843E+02  0.12468399937E+02 -0.11411662066E+02  0.26305122325E+02  0.00000000000E+00 0. -1.
</event>
<event>
 7    1  0.7444241E-013  0.5930192E+02  0.7816164E-02  0.1266605E+00
        -11   -1    0    0    0    0  0.00000000000E+00  0.00000000000E+00  0.45593999997E+02  0.45594000000E+02  0.51100000000E-03 0. -1.
         11   -1    0    0    0    0 -0.00000000000E+00 -0.00000000000E+00 -0.45593999997E+02  0.45594000000E+02  0.51100000000E-03 0.  1.
    9900012    2    1    2    0    0 -0.12977657734E+02  0.58029162140E+01  0.28541695164E+02  0.59301924674E+02  0.49999964704E+02 0.  0.
        -12    1    1    2    0    0  0.12977657734E+02 -0.58029162140E+01 -0.28541695164E+02  0.31886075326E+02  0.00000000000E+00 0.  1.
         11    1    3    3    0    0 -0.27426302143E+02  0.12290250650E+01  0.13963509399E+02  0.30800846528E+02  0.51100000000E-03 0. -1.
        -11    1    3    3    0    0  0.56826153601E+01  0.11330178118E+02  0.11239736102E+02  0.16940977582E+02  0.51100000000E-03 0.  1.
        -12    1    3    3    0    0  0.87660290491E+01 -0.67562869695E+01  0.33384496629E+01  0.11560100564E+02  0.00000000000E+00 0.  1.
</event>
<event>
 7    1  0.7444241E-013  0.5930197E+02  0.7816164E-02  0.1266605E+00
        -11   -1    0    0    0    0  0.00000000000E+00  0.00000000000E+00  0.45593999997E+02  0.45594000000E+02  0.51100000000E-03 0. -1.
         11   -1    0    0    0    0 -0.00000000000E+00 -0.00000000000E+00 -0.45593999997E+02  0.45594000000E+02  0.51100000000E-03 0.  1.
    9900012    2    1    2    0    0  0.10024178181E+02  0.95359128714E+01  0.28728059246E+02  0.59301965901E+02  0.50000039892E+02 0.  0.
        -12    1    1    2    0    0 -0.10024178181E+02 -0.95359128714E+01 -0.28728059246E+02  0.31886034099E+02  0.00000000000E+00 0.  1.
         11    1    3    3    0    0 -0.61091896851E+01  0.38468822286E+01 -0.94847849170E+01  0.11919809003E+02  0.51100000000E-03 0.  1.
        -11    1    3    3    0    0  0.18673895553E+02  0.53626996784E+01  0.16416109708E+02  0.25435439473E+02  0.51100000000E-03 0. -1.
        -12    1    3    3    0    0 -0.25405276871E+01  0.32633096446E+00  0.21796734455E+02  0.21946717425E+02  0.00000000000E+00 0.  1.
</event>
<event>
 7    1  0.7444241E-013  0.5930195E+02  0.7816164E-02  0.1266605E+00
        -11   -1    0    0    0    0  0.00000000000E+00  0.00000000000E+00  0.45593999997E+02  0.45594000000E+02  0.51100000000E-03 0.  1.
         11   -1    0    0    0    0 -0.00000000000E+00 -0.00000000000E+00 -0.45593999997E+02  0.45594000000E+02  0.51100000000E-03 0. -1.
    9900012    2    1    2    0    0 -0.24281043707E+02  0.15473127380E+02 -0.13701594497E+02  0.59301945898E+02  0.50000003412E+02 0.  0.
        -12    1    1    2    0    0  0.24281043707E+02 -0.15473127380E+02  0.13701594497E+02  0.31886054102E+02  0.00000000000E+00 0.  1.
         11    1    3    3    0    0  0.24499041999E+01 -0.22933238477E-01 -0.27012325569E+01  0.36468087570E+01  0.51100000000E-03 0. -1.
        -11    1    3    3    0    0 -0.91578136327E+01  0.15757132159E+01 -0.26710007393E+02  0.28280256680E+02  0.51100000000E-03 0.  1.
         12    1    3    3    0    0 -0.17573134274E+02  0.13920347402E+02  0.15709645453E+02  0.27374880462E+02  0.00000000000E+00 0. -1.
</event>
<event>
 7    1  0.7444241E-013  0.5930195E+02  0.7816164E-02  0.1266605E+00
        -11   -1    0    0    0    0  0.00000000000E+00  0.00000000000E+00  0.45593999997E+02  0.45594000000E+02  0.51100000000E-03 0.  1.
         11   -1    0    0    0    0 -0.00000000000E+00 -0.00000000000E+00 -0.45593999997E+02  0.45594000000E+02  0.51100000000E-03 0. -1.
    9900012    2    1    2    0    0 -0.13977416438E+02 -0.20531192971E+02 -0.19995548579E+02  0.59301952611E+02  0.50000015655E+02 0.  0.
        -12    1    1    2    0    0  0.13977416438E+02  0.20531192971E+02  0.19995548579E+02  0.31886047389E+02  0.00000000000E+00 0.  1.
         11    1    3    3    0    0 -0.66503307454E+01 -0.17824846623E+02 -0.19893602972E+02  0.27526487165E+02  0.51100000000E-03 0. -1.
        -11    1    3    3    0    0 -0.38121181245E+01 -0.57192343381E+01  0.14720924516E+02  0.16246461303E+02  0.51100000000E-03 0.  1.
         12    1    3    3    0    0 -0.35149675682E+01  0.30128879898E+01 -0.14822870122E+02  0.15529004144E+02  0.00000000000E+00 0. -1.
</event>
<event>
 7    1  0.7444241E-013  0.5930200E+02  0.7816164E-02  0.1266605E+00
        -11   -1    0    0    0    0  0.00000000000E+00  0.00000000000E+00  0.45593999997E+02  0.45594000000E+02  0.51100000000E-03 0.  1.
         11   -1    0    0    0    0 -0.00000000000E+00 -0.00000000000E+00 -0.45593999997E+02  0.45594000000E+02  0.51100000000E-03 0. -1.
    9900012    2    1    2    0    0  0.24133153066E+02  0.42769217540E+01 -0.20396465587E+02  0.59302000799E+02  0.50000103537E+02 0.  0.
        -12    1    1    2    0    0 -0.24133153066E+02 -0.42769217540E+01  0.20396465587E+02  0.31885999201E+02  0.00000000000E+00 0.  1.
         11    1    3    3    0    0  0.22194874271E+01  0.11944957072E+02 -0.23206898024E+02  0.26194813228E+02  0.51100000000E-03 0. -1.
        -11    1    3    3    0    0  0.45000928838E+01  0.38338080929E+00 -0.93565127292E+01  0.10389521044E+02  0.51100000000E-03 0.  1.
        -12    1    3    3    0    0  0.17413572755E+02 -0.80514161269E+01  0.12166945166E+02  0.22717666527E+02  0.00000000000E+00 0.  1.
</event>
<event>
 7    1  0.7444241E-013  0.5930195E+02  0.7816164E-02  0.1266605E+00
        -11   -1    0    0    0    0  0.00000000000E+00  0.00000000000E+00  0.45593999997E+02  0.45594000000E+02  0.51100000000E-03 0. -1.
         11   -1    0    0    0    0 -0.00000000000E+00 -0.00000000000E+00 -0.45593999997E+02  0.45594000000E+02  0.51100000000E-03 0.  1.
    9900012    2    1    2    0    0 -0.49663947654E+00  0.18946306300E+02  0.25641983482E+02  0.59301945210E+02  0.50000002156E+02 0.  0.
        -12    1    1    2    0    0  0.49663947654E+00 -0.18946306300E+02 -0.25641983482E+02  0.31886054790E+02  0.00000000000E+00 0.  1.
         11    1    3    3    0    0  0.50641934687E+00 -0.42717249569E+00  0.18962671588E+02  0.18974241775E+02  0.51100000000E-03 0. -1.
        -11    1    3    3    0    0 -0.54894686926E+01 -0.88773503492E+01  0.52591829441E+01  0.11687626844E+02  0.51100000000E-03 0.  1.
         12    1    3    3    0    0  0.44864098692E+01  0.28250829145E+02  0.14201289493E+01  0.28640076591E+02  0.00000000000E+00 0. -1.
</event>
<event>
 7    1  0.7444241E-013  0.5930194E+02  0.7816164E-02  0.1266605E+00
        -11   -1    0    0    0    0  0.00000000000E+00  0.00000000000E+00  0.45593999997E+02  0.45594000000E+02  0.51100000000E-03 0.  1.
         11   -1    0    0    0    0 -0.00000000000E+00 -0.00000000000E+00 -0.45593999997E+02  0.45594000000E+02  0.51100000000E-03 0. -1.
    9900012    2    1    2    0    0  0.14653226410E+02 -0.26371337524E+02 -0.10322628085E+02  0.59301935056E+02  0.49999983637E+02 0.  0.
        -12    1    1    2    0    0 -0.14653226410E+02  0.26371337524E+02  0.10322628085E+02  0.31886064944E+02  0.00000000000E+00 0.  1.
         11    1    3    3    0    0  0.22157653710E+02 -0.91594306736E+01 -0.15557102447E+02  0.28581116580E+02  0.51100000000E-03 0. -1.
        -11    1    3    3    0    0  0.85071222005E+01 -0.41007830627E+01  0.31374141808E+00  0.94491260866E+01  0.51100000000E-03 0.  1.
        -12    1    3    3    0    0 -0.16011549500E+02 -0.13111123788E+02  0.49207329439E+01  0.21271692389E+02  0.00000000000E+00 0.  1.
</event>
<event>
 7    1  0.7444241E-013  0.5930195E+02  0.7816164E-02  0.1266605E+00
        -11   -1    0    0    0    0  0.00000000000E+00  0.00000000000E+00  0.45593999997E+02  0.45594000000E+02  0.51100000000E-03 0. -1.
         11   -1    0    0    0    0 -0.00000000000E+00 -0.00000000000E+00 -0.45593999997E+02  0.45594000000E+02  0.51100000000E-03 0.  1.
    9900012    2    1    2    0    0 -0.23175986844E+02 -0.29041170573E+01  0.21706214133E+02  0.59301952988E+02  0.50000016342E+02 0.  0.
        -12    1    1    2    0    0  0.23175986844E+02  0.29041170573E+01 -0.21706214133E+02  0.31886047012E+02  0.00000000000E+00 0.  1.
         11    1    3    3    0    0 -0.12309134478E+01  0.43257966579E+01  0.58984325886E+01  0.74174909440E+01  0.51100000000E-03 0. -1.
        -11    1    3    3    0    0 -0.22970904831E+02  0.13663733369E+02  0.19638206068E+01  0.26799564735E+02  0.51100000000E-03 0.  1.
         12    1    3    3    0    0  0.10258314351E+01 -0.20893647084E+02  0.13843960937E+02  0.25084897310E+02  0.00000000000E+00 0. -1.
</event>
<event>
 7    1  0.7444241E-013  0.5930194E+02  0.7816164E-02  0.1266605E+00
        -11   -1    0    0    0    0  0.00000000000E+00  0.00000000000E+00  0.45593999997E+02  0.45594000000E+02  0.51100000000E-03 0. -1.
         11   -1    0    0    0    0 -0.00000000000E+00 -0.00000000000E+00 -0.45593999997E+02  0.45594000000E+02  0.51100000000E-03 0.  1.
    9900012    2    1    2    0    0  0.28502956571E+02  0.10030965554E+02 -0.10182439734E+02  0.59301939062E+02  0.49999990943E+02 0.  0.
        -12    1    1    2    0    0 -0.28502956571E+02 -0.10030965554E+02  0.10182439734E+02  0.31886060938E+02  0.00000000000E+00 0.  1.
         11    1    3    3    0    0  0.10046411607E+02  0.12671818177E+02  0.58183825500E+01  0.17186009946E+02  0.51100000000E-03 0. -1.
        -11    1    3    3    0    0  0.15570047137E+02 -0.80326249093E+01  0.65850889251E+01  0.18716645725E+02  0.51100000000E-03 0.  1.
        -12    1    3    3    0    0  0.28864978277E+01  0.53917722853E+01 -0.22585911209E+02  0.23399283391E+02  0.00000000000E+00 0.  1.
</event>
<event>
 7    1  0.7444241E-013  0.5930193E+02  0.7816164E-02  0.1266605E+00
        -11   -1    0    0    0    0  0.00000000000E+00  0.00000000000E+00  0.45593999997E+02  0.45594000000E+02  0.51100000000E-03 0.  1.
         11   -1    0    0    0    0 -0.00000000000E+00 -0.00000000000E+00 -0.45593999997E+02  0.45594000000E+02  0.51100000000E-03 0. -1.
    9900012    2    1    2    0    0 -0.47935653279E+01 -0.15712721546E+02 -0.27328618925E+02  0.59301932521E+02  0.49999979014E+02 0.  0.
        -12    1    1    2    0    0  0.47935653279E+01  0.15712721546E+02  0.27328618925E+02  0.31886067479E+02  0.00000000000E+00 0.  1.
         11    1    3    3    0    0 -0.13958024329E+01  0.59939508640E+00  0.12631963506E+01  0.19756528497E+01  0.51100000000E-03 0. -1.
        -11    1    3    3    0    0  0.77115867219E+01 -0.10032454896E+02  0.10349556454E+02  0.16347233407E+02  0.51100000000E-03 0.  1.
         12    1    3    3    0    0 -0.11109349617E+02 -0.62796617361E+01 -0.38941371730E+02  0.40979046264E+02  0.00000000000E+00 0. -1.
</event>
<event>
 7    1  0.7444241E-013  0.5930194E+02  0.7816164E-02  0.1266605E+00
        -11   -1    0    0    0    0  0.00000000000E+00  0.00000000000E+00  0.45593999997E+02  0.45594000000E+02  0.51100000000E-03 0. -1.
         11   -1    0    0    0    0 -0.00000000000E+00 -0.00000000000E+00 -0.45593999997E+02  0.45594000000E+02  0.51100000000E-03 0.  1.
    9900012    2    1    2    0    0 -0.17547651367E+02 -0.15543388153E+02  0.21614899963E+02  0.59301939030E+02  0.49999990885E+02 0.  0.
        -12    1    1    2    0    0  0.17547651367E+02  0.15543388153E+02 -0.21614899963E+02  0.31886060970E+02  0.00000000000E+00 0.  1.
         11    1    3    3    0    0  0.40474837049E+01 -0.57112995951E+01  0.12957134307E+02  0.14727131327E+02  0.51100000000E-03 0. -1.
        -11    1    3    3    0    0 -0.19512936796E+02 -0.60031306210E+01  0.22311510507E+02  0.30242284653E+02  0.51100000000E-03 0.  1.
        -12    1    3    3    0    0 -0.20821982760E+01 -0.38289579371E+01 -0.13653744851E+02  0.14332523051E+02  0.00000000000E+00 0.  1.
</event>
<event>
 7    1  0.7444241E-013  0.5930193E+02  0.7816164E-02  0.1266605E+00
        -11   -1    0    0    0    0  0.00000000000E+00  0.00000000000E+00  0.45593999997E+02  0.45594000000E+02  0.51100000000E-03 0.  1.
         11   -1    0    0    0    0 -0.00000000000E+00 -0.00000000000E+00 -0.45593999997E+02  0.45594000000E+02  0.51100000000E-03 0. -1.
    9900012    2    1    2    0    0 -0.82054121375E+01  0.22719745892E+02 -0.20813593437E+02  0.59301932298E+02  0.49999978608E+02 0.  0.
        -12    1    1    2    0    0  0.82054121375E+01 -0.22719745892E+02  0.20813593437E+02  0.31886067702E+02  0.00000000000E+00 0.  1.
         11    1    3    3    0    0  0.15999131524E+02 -0.11149228880E+01  0.17960466890E+01  0.16138185974E+02  0.51100000000E-03 0. -1.
        -11    1    3    3    0    0 -0.18957763310E+02  0.13427782225E+02 -0.82121200120E+01  0.24640232153E+02  0.51100000000E-03 0.  1.
        -12    1    3    3    0    0 -0.52467803516E+01  0.10406886554E+02 -0.14397520114E+02  0.18523514171E+02  0.00000000000E+00 0.  1.
</event>
<event>
 7    1  0.7444241E-013  0.5930195E+02  0.7816164E-02  0.1266605E+00
        -11   -1    0    0    0    0  0.00000000000E+00  0.00000000000E+00  0.45593999997E+02  0.45594000000E+02  0.51100000000E-03 0. -1.
         11   -1    0    0    0    0 -0.00000000000E+00 -0.00000000000E+00 -0.45593999997E+02  0.45594000000E+02  0.51100000000E-03 0.  1.
    9900012    2    1    2    0    0 -0.26948100493E+02 -0.15094617717E+02  0.79166014320E+01  0.59301950034E+02  0.50000010954E+02 0.  0.
        -12    1    1    2    0    0  0.26948100493E+02  0.15094617717E+02 -0.79166014320E+01  0.31886049966E+02  0.00000000000E+00 0.  1.
         11    1    3    3    0    0 -0.12261904054E+02 -0.92136474334E+01  0.10399334587E+02  0.18530832420E+02  0.51100000000E-03 0. -1.
        -11    1    3    3    0    0 -0.43616400482E+01  0.12170031484E+02  0.10152823022E+02  0.16438168566E+02  0.51100000000E-03 0.  1.
         12    1    3    3    0    0 -0.10324556391E+02 -0.18051001768E+02 -0.12635556177E+02  0.24332949048E+02  0.00000000000E+00 0. -1.
</event>
<event>
 7    1  0.7444241E-013  0.5930194E+02  0.7816164E-02  0.1266605E+00
        -11   -1    0    0    0    0  0.00000000000E+00  0.00000000000E+00  0.45593999997E+02  0.45594000000E+02  0.51100000000E-03 0.  1.
         11   -1    0    0    0    0 -0.00000000000E+00 -0.00000000000E+00 -0.45593999997E+02  0.45594000000E+02  0.51100000000E-03 0. -1.
    9900012    2    1    2    0    0 -0.83174655037E+01 -0.18825039018E+02  0.24354839519E+02  0.59301944514E+02  0.50000000887E+02 0.  0.
        -12    1    1    2    0    0  0.83174655037E+01  0.18825039018E+02 -0.24354839519E+02  0.31886055486E+02  0.00000000000E+00 0.  1.
         11    1    3    3    0    0 -0.10673636347E+02 -0.14744886850E+02  0.20130223361E+02  0.27139714330E+02  0.51100000000E-03 0. -1.
        -11    1    3    3    0    0  0.68138536100E+01 -0.16767714212E+02  0.47221050165E+01  0.18705162842E+02  0.51100000000E-03 0.  1.
         12    1    3    3    0    0 -0.44576827666E+01  0.12687562044E+02 -0.49748885850E+00  0.13457067342E+02  0.00000000000E+00 0. -1.
</event>
<event>
 7    1  0.7444241E-013  0.5930197E+02  0.7816164E-02  0.1266605E+00
        -11   -1    0    0    0    0  0.00000000000E+00  0.00000000000E+00  0.45593999997E+02  0.45594000000E+02  0.51100000000E-03 0. -1.
         11   -1    0    0    0    0 -0.00000000000E+00 -0.00000000000E+00 -0.45593999997E+02  0.45594000000E+02  0.51100000000E-03 0.  1.
    9900012    2    1    2    0    0  0.29450767833E+02  0.11775382642E+02  0.32728742255E+01  0.59301967509E+02  0.50000042824E+02 0.  0.
        -12    1    1    2    0    0 -0.29450767833E+02 -0.11775382642E+02 -0.32728742255E+01  0.31886032491E+02  0.00000000000E+00 0.  1.
         11    1    3    3    0    0  0.17025041359E+02  0.20005411716E+02  0.41548325152E+01  0.26595698236E+02  0.51100000000E-03 0. -1.
        -11    1    3    3    0    0  0.54830226801E+01  0.13988673719E+01 -0.13948507589E+02  0.15052615449E+02  0.51100000000E-03 0.  1.
         12    1    3    3    0    0  0.69427037937E+01 -0.96288964453E+01  0.13066549299E+02  0.17653653823E+02  0.00000000000E+00 0. -1.
</event>
<event>
 7    1  0.7444241E-013  0.5930195E+02  0.7816164E-02  0.1266605E+00
        -11   -1    0    0    0    0  0.00000000000E+00  0.00000000000E+00  0.45593999997E+02  0.45594000000E+02  0.51100000000E-03 0.  1.
         11   -1    0    0    0    0 -0.00000000000E+00 -0.00000000000E+00 -0.45593999997E+02  0.45594000000E+02  0.51100000000E-03 0. -1.
    9900012    2    1    2    0    0 -0.21274656822E+02 -0.47746558197E+01 -0.23266111739E+02  0.59301947931E+02  0.50000007119E+02 0.  0.
        -12    1    1    2    0    0  0.21274656822E+02  0.47746558197E+01  0.23266111739E+02  0.31886052069E+02  0.00000000000E+00 0.  1.
         11    1    3    3    0    0  0.21518739250E+01  0.74188799118E+01  0.43066433356E+01  0.88440668030E+01  0.51100000000E-03 0. -1.
        -11    1    3    3    0    0 -0.54427932796E+01  0.69135098185E+01  0.37778887970E+01  0.95756493628E+01  0.51100000000E-03 0.  1.
         12    1    3    3    0    0 -0.17983737467E+02 -0.19107045550E+02 -0.31350643872E+02  0.40882231765E+02  0.00000000000E+00 0. -1.
</event>
<event>
 7    1  0.7444241E-013  0.5930195E+02  0.7816164E-02  0.1266605E+00
        -11   -1    0    0    0    0  0.00000000000E+00  0.00000000000E+00  0.45593999997E+02  0.45594000000E+02  0.51100000000E-03 0. -1.
         11   -1    0    0    0    0 -0.00000000000E+00 -0.00000000000E+00 -0.45593999997E+02  0.45594000000E+02  0.51100000000E-03 0.  1.
    9900012    2    1    2    0    0 -0.24998343940E+02 -0.18278934208E+02  0.75949762003E+01  0.59301948206E+02  0.50000007620E+02 0.  0.
        -12    1    1    2    0    0  0.24998343940E+02  0.18278934208E+02 -0.75949762003E+01  0.31886051794E+02  0.00000000000E+00 0.  1.
         11    1    3    3    0    0 -0.10926010030E+02 -0.21872887162E+00 -0.67960532573E+00  0.10949310534E+02  0.51100000000E-03 0. -1.
        -11    1    3    3    0    0  0.12146207197E+02 -0.12726381495E+02 -0.52690102238E+01  0.18364465803E+02  0.51100000000E-03 0.  1.
         12    1    3    3    0    0 -0.26218541107E+02 -0.53338238414E+01  0.13543591750E+02  0.29988171869E+02  0.00000000000E+00 0. -1.
</event>
<event>
 7    1  0.7444241E-013  0.5930193E+02  0.7816164E-02  0.1266605E+00
        -11   -1    0    0    0    0  0.00000000000E+00  0.00000000000E+00  0.45593999997E+02  0.45594000000E+02  0.51100000000E-03 0.  1.
         11   -1    0    0    0    0 -0.00000000000E+00 -0.00000000000E+00 -0.45593999997E+02  0.45594000000E+02  0.51100000000E-03 0. -1.
    9900012    2    1    2    0    0 -0.20335616308E+02 -0.23516470799E+02 -0.70823572616E+01  0.59301929784E+02  0.49999974023E+02 0.  0.
        -12    1    1    2    0    0  0.20335616308E+02  0.23516470799E+02  0.70823572616E+01  0.31886070216E+02  0.00000000000E+00 0.  1.
         11    1    3    3    0    0  0.43069378517E+01  0.71594271434E+01 -0.88348070269E+01  0.12159807817E+02  0.51100000000E-03 0. -1.
        -11    1    3    3    0    0 -0.84244928984E+01 -0.15623458299E+02  0.13302974780E+02  0.22181831937E+02  0.51100000000E-03 0.  1.
         12    1    3    3    0    0 -0.16218061261E+02 -0.15052439643E+02 -0.11550525015E+02  0.24960290030E+02  0.00000000000E+00 0. -1.
</event>
<event>
 7    1  0.7444241E-013  0.5930204E+02  0.7816164E-02  0.1266604E+00
        -11   -1    0    0    0    0  0.00000000000E+00  0.00000000000E+00  0.45593999997E+02  0.45594000000E+02  0.51100000000E-03 0.  1.
         11   -1    0    0    0    0 -0.00000000000E+00 -0.00000000000E+00 -0.45593999997E+02  0.45594000000E+02  0.51100000000E-03 0. -1.
    9900012    2    1    2    0    0 -0.27872626807E+02  0.30426499220E+01 -0.15184640531E+02  0.59302041465E+02  0.50000177702E+02 0.  0.
        -12    1    1    2    0    0  0.27872626807E+02 -0.30426499220E+01  0.15184640531E+02  0.31885958535E+02  0.00000000000E+00 0.  1.
         11    1    3    3    0    0 -0.73698766551E+01  0.55736232036E+01 -0.17496718720E+02  0.19786751218E+02  0.51100000000E-03 0. -1.
        -11    1    3    3    0    0 -0.35806772216E+01  0.96470160699E+01  0.12598896503E+02  0.16267094448E+02  0.51100000000E-03 0.  1.
         12    1    3    3    0    0 -0.16922072930E+02 -0.12177989351E+02 -0.10286818314E+02  0.23248195799E+02  0.00000000000E+00 0. -1.
</event>
<event>
 7    1  0.7444241E-013  0.5930194E+02  0.7816164E-02  0.1266605E+00
        -11   -1    0    0    0    0  0.00000000000E+00  0.00000000000E+00  0.45593999997E+02  0.45594000000E+02  0.51100000000E-03 0. -1.
         11   -1    0    0    0    0 -0.00000000000E+00 -0.00000000000E+00 -0.45593999997E+02  0.45594000000E+02  0.51100000000E-03 0.  1.
    9900012    2    1    2    0    0  0.28031309450E+02 -0.15007803431E+02  0.23942201684E+01  0.59301940922E+02  0.49999994336E+02 0.  0.
        -12    1    1    2    0    0 -0.28031309450E+02  0.15007803431E+02 -0.23942201684E+01  0.31886059078E+02  0.00000000000E+00 0.  1.
         11    1    3    3    0    0  0.45113298971E+01  0.79497092903E+00  0.30486055213E+01  0.55025514177E+01  0.51100000000E-03 0. -1.
        -11    1    3    3    0    0  0.24816876545E+02  0.10576152801E+02  0.29763380195E+01  0.27140209243E+02  0.51100000000E-03 0.  1.
        -12    1    3    3    0    0 -0.12968969918E+01 -0.26378927161E+02 -0.36307233724E+01  0.26659180261E+02  0.00000000000E+00 0.  1.
</event>
<event>
 7    1  0.7444241E-013  0.5930193E+02  0.7816164E-02  0.1266605E+00
        -11   -1    0    0    0    0  0.00000000000E+00  0.00000000000E+00  0.45593999997E+02  0.45594000000E+02  0.51100000000E-03 0. -1.
         11   -1    0    0    0    0 -0.00000000000E+00 -0.00000000000E+00 -0.45593999997E+02  0.45594000000E+02  0.51100000000E-03 0.  1.
    9900012    2    1    2    0    0 -0.67165892973E+01 -0.10546604832E+01  0.31152792848E+02  0.59301931212E+02  0.49999976628E+02 0.  0.
        -12    1    1    2    0    0  0.67165892973E+01  0.10546604832E+01 -0.31152792848E+02  0.31886068788E+02  0.00000000000E+00 0.  1.
         11    1    3    3    0    0 -0.12588054741E+02  0.30005068819E+01  0.10024895548E+02  0.16369505024E+02  0.51100000000E-03 0. -1.
        -11    1    3    3    0    0 -0.48255413074E+01 -0.12203441656E+00  0.28794708816E+02  0.29196506595E+02  0.51100000000E-03 0.  1.
        -12    1    3    3    0    0  0.10697006751E+02 -0.39331329485E+01 -0.76668115169E+01  0.13735919593E+02  0.00000000000E+00 0.  1.
</event>
<event>
 7    1  0.7444241E-013  0.5930194E+02  0.7816164E-02  0.1266605E+00
        -11   -1    0    0    0    0  0.00000000000E+00  0.00000000000E+00  0.45593999997E+02  0.45594000000E+02  0.51100000000E-03 0.  1.
         11   -1    0    0    0    0 -0.00000000000E+00 -0.00000000000E+00 -0.45593999997E+02  0.45594000000E+02  0.51100000000E-03 0. -1.
    9900012    2    1    2    0    0  0.32822044001E+01  0.25147388322E+02 -0.19327618448E+02  0.59301939722E+02  0.49999992147E+02 0.  0.
        -12    1    1    2    0    0 -0.32822044001E+01 -0.25147388322E+02  0.19327618448E+02  0.31886060278E+02  0.00000000000E+00 0.  1.
         11    1    3    3    0    0  0.22202158767E+02  0.18709345790E+02 -0.18626708569E+02  0.34495358328E+02  0.51100000000E-03 0. -1.
        -11    1    3    3    0    0 -0.54935845298E+01  0.48190794245E+01 -0.67900221101E+01  0.99753394931E+01  0.51100000000E-03 0.  1.
        -12    1    3    3    0    0 -0.13426369837E+02  0.16189631084E+01  0.60891122309E+01  0.14831241901E+02  0.00000000000E+00 0.  1.
</event>
<event>
 7    1  0.7444241E-013  0.5930198E+02  0.7816164E-02  0.1266605E+00
        -11   -1    0    0    0    0  0.00000000000E+00  0.00000000000E+00  0.45593999997E+02  0.45594000000E+02  0.51100000000E-03 0.  1.
         11   -1    0    0    0    0 -0.00000000000E+00 -0.00000000000E+00 -0.45593999997E+02  0.45594000000E+02  0.51100000000E-03 0. -1.
    9900012    2    1    2    0    0  0.78486831391E+01  0.30098602775E+02  0.70135934932E+01  0.59301980968E+02  0.50000067370E+02 0.  0.
        -12    1    1    2    0    0 -0.78486831391E+01 -0.30098602775E+02 -0.70135934932E+01  0.31886019032E+02  0.00000000000E+00 0.  1.
         11    1    3    3    0    0  0.81072997482E+01  0.69228324176E+01  0.19336487320E+02  0.22080617292E+02  0.51100000000E-03 0. -1.
        -11    1    3    3    0    0 -0.12249449666E+02  0.47498944235E+01 -0.46770484780E+01  0.13945798539E+02  0.51100000000E-03 0.  1.
         12    1    3    3    0    0  0.11990833057E+02  0.18425875934E+02 -0.76458453484E+01  0.23275565137E+02  0.00000000000E+00 0. -1.
</event>
<event>
 7    1  0.7444241E-013  0.5930193E+02  0.7816164E-02  0.1266605E+00
        -11   -1    0    0    0    0  0.00000000000E+00  0.00000000000E+00  0.45593999997E+02  0.45594000000E+02  0.51100000000E-03 0.  1.
         11   -1    0    0    0    0 -0.00000000000E+00 -0.00000000000E+00 -0.45593999997E+02  0.45594000000E+02  0.51100000000E-03 0. -1.
    9900012    2    1    2    0    0 -0.99289294275E+01  0.42723229367E+01 -0.29998085875E+02  0.59301928762E+02  0.49999972159E+02 0.  0.
        -12    1    1    2    0    0  0.99289294275E+01 -0.42723229367E+01  0.29998085875E+02  0.31886071238E+02  0.00000000000E+00 0.  1.
         11    1    3    3    0    0 -0.86465499216E+01 -0.11906591926E+02 -0.97776072423E+01  0.17667239753E+02  0.51100000000E-03 0. -1.
        -11    1    3    3    0    0  0.77205874806E+01  0.37110723951E+01 -0.24265417168E+02  0.25733052674E+02  0.51100000000E-03 0.  1.
        -12    1    3    3    0    0 -0.90029669865E+01  0.12467842468E+02  0.40449385352E+01  0.15901636335E+02  0.00000000000E+00 0.  1.
</event>
<event>
 7    1  0.7444241E-013  0.5930194E+02  0.7816164E-02  0.1266605E+00
        -11   -1    0    0    0    0  0.00000000000E+00  0.00000000000E+00  0.45593999997E+02  0.45594000000E+02  0.51100000000E-03 0.  1.
         11   -1    0    0    0    0 -0.00000000000E+00 -0.00000000000E+00 -0.45593999997E+02  0.45594000000E+02  0.51100000000E-03 0. -1.
    9900012    2    1    2    0    0 -0.50755468803E+00 -0.21834215805E+02 -0.23232094684E+02  0.59301940115E+02  0.49999992864E+02 0.  0.
        -12    1    1    2    0    0  0.50755468803E+00  0.21834215805E+02  0.23232094684E+02  0.31886059885E+02  0.00000000000E+00 0.  1.
         11    1    3    3    0    0 -0.16524554030E+01  0.28208234016E+01  0.27109184561E+01  0.42469674662E+01  0.51100000000E-03 0. -1.
        -11    1    3    3    0    0 -0.92924044172E+01  0.37851169561E+01  0.54581838770E+01  0.11422244163E+02  0.51100000000E-03 0.  1.
         12    1    3    3    0    0  0.10437305132E+02 -0.28440156162E+02 -0.31401197018E+02  0.43632728486E+02  0.00000000000E+00 0. -1.
</event>
<event>
 7    1  0.7444241E-013  0.5930192E+02  0.7816164E-02  0.1266605E+00
        -11   -1    0    0    0    0  0.00000000000E+00  0.00000000000E+00  0.45593999997E+02  0.45594000000E+02  0.51100000000E-03 0.  1.
         11   -1    0    0    0    0 -0.00000000000E+00 -0.00000000000E+00 -0.45593999997E+02  0.45594000000E+02  0.51100000000E-03 0. -1.
    9900012    2    1    2    0    0  0.12461486143E+02  0.18242635126E+02 -0.22992161658E+02  0.59301923557E+02  0.49999962665E+02 0.  0.
        -12    1    1    2    0    0 -0.12461486143E+02 -0.18242635126E+02  0.22992161658E+02  0.31886076443E+02  0.00000000000E+00 0.  1.
         11    1    3    3    0    0  0.73095091236E+01  0.25850929618E+02 -0.55454960916E+00  0.26870188151E+02  0.51100000000E-03 0. -1.
        -11    1    3    3    0    0 -0.92027010009E+00  0.67336290855E+01 -0.27570237117E+01  0.73341555564E+01  0.51100000000E-03 0.  1.
         12    1    3    3    0    0  0.60722471194E+01 -0.14341923577E+02 -0.19680588337E+02  0.25097579849E+02  0.00000000000E+00 0. -1.
</event>
<event>
 7    1  0.7444241E-013  0.5930191E+02  0.7816164E-02  0.1266605E+00
        -11   -1    0    0    0    0  0.00000000000E+00  0.00000000000E+00  0.45593999997E+02  0.45594000000E+02  0.51100000000E-03 0. -1.
         11   -1    0    0    0    0 -0.00000000000E+00 -0.00000000000E+00 -0.45593999997E+02  0.45594000000E+02  0.51100000000E-03 0.  1.
    9900012    2    1    2    0    0  0.26486762006E+02  0.17608867890E+02 -0.22587541376E+01  0.59301909613E+02  0.49999937235E+02 0.  0.
        -12    1    1    2    0    0 -0.26486762006E+02 -0.17608867890E+02  0.22587541376E+01  0.31886090387E+02  0.00000000000E+00 0.  1.
         11    1    3    3    0    0  0.13463556659E+02  0.23185243102E+02 -0.85577583966E+01  0.28143526514E+02  0.51100000000E-03 0. -1.
        -11    1    3    3    0    0  0.25284744177E+01 -0.10749346371E+01 -0.10495595822E+02  0.10849248789E+02  0.51100000000E-03 0.  1.
         12    1    3    3    0    0  0.10494730929E+02 -0.45014405757E+01  0.16794600081E+02  0.20309134310E+02  0.00000000000E+00 0. -1.
</event>
<event>
 7    1  0.7444241E-013  0.5930197E+02  0.7816164E-02  0.1266605E+00
        -11   -1    0    0    0    0  0.00000000000E+00  0.00000000000E+00  0.45593999997E+02  0.45594000000E+02  0.51100000000E-03 0.  1.
         11   -1    0    0    0    0 -0.00000000000E+00 -0.00000000000E+00 -0.45593999997E+02  0.45594000000E+02  0.51100000000E-03 0. -1.
    9900012    2    1    2    0    0 -0.24277051159E+02 -0.11814337951E+02 -0.16963646564E+02  0.59301967024E+02  0.50000041940E+02 0.  0.
        -12    1    1    2    0    0  0.24277051159E+02  0.11814337951E+02  0.16963646564E+02  0.31886032976E+02  0.00000000000E+00 0.  1.
         11    1    3    3    0    0 -0.18249085254E+01 -0.39799409108E+01  0.82423862987E+01  0.93331212859E+01  0.51100000000E-03 0. -1.
        -11    1    3    3    0    0 -0.28112879909E+01 -0.13471957928E+02  0.39932311529E+01  0.14329790155E+02  0.51100000000E-03 0.  1.
         12    1    3    3    0    0 -0.19640854643E+02  0.56375608873E+01 -0.29199264015E+02  0.35639055583E+02  0.00000000000E+00 0. -1.
</event>
<event>
 7    1  0.7444241E-013  0.5930196E+02  0.7816164E-02  0.1266605E+00
        -11   -1    0    0    0    0  0.00000000000E+00  0.00000000000E+00  0.45593999997E+02  0.45594000000E+02  0.51100000000E-03 0.  1.
         11   -1    0    0    0    0 -0.00000000000E+00 -0.00000000000E+00 -0.45593999997E+02  0.45594000000E+02  0.51100000000E-03 0. -1.
    9900012    2    1    2    0    0  0.88394651843E+01  0.20921109411E+02  0.22380578809E+02  0.59301964317E+02  0.50000037004E+02 0.  0.
        -12    1    1    2    0    0 -0.88394651843E+01 -0.20921109411E+02 -0.22380578809E+02  0.31886035683E+02  0.00000000000E+00 0.  1.
         11    1    3    3    0    0  0.89936647140E+01  0.11648481480E+02  0.20918584257E+02  0.25576557496E+02  0.51100000000E-03 0. -1.
        -11    1    3    3    0    0  0.34540249392E+01  0.18765407676E+01  0.16295055672E+02  0.16762473957E+02  0.51100000000E-03 0.  1.
         12    1    3    3    0    0 -0.36082244688E+01  0.73960871633E+01 -0.14833061121E+02  0.16962932864E+02  0.00000000000E+00 0. -1.
</event>
<event>
 7    1  0.7444241E-013  0.5930194E+02  0.7816164E-02  0.1266605E+00
        -11   -1    0    0    0    0  0.00000000000E+00  0.00000000000E+00  0.45593999997E+02  0.45594000000E+02  0.51100000000E-03 0.  1.
         11   -1    0    0    0    0 -0.00000000000E+00 -0.00000000000E+00 -0.45593999997E+02  0.45594000000E+02  0.51100000000E-03 0. -1.
    9900012    2    1    2    0    0 -0.10415090831E+02  0.29891062657E+02  0.38433218289E+01  0.59301939307E+02  0.49999991391E+02 0.  0.
        -12    1    1    2    0    0  0.10415090831E+02 -0.29891062657E+02 -0.38433218289E+01  0.31886060693E+02  0.00000000000E+00 0.  1.
         11    1    3    3    0    0 -0.79038258242E+01  0.12328170684E+02 -0.11285416982E+02  0.18488236579E+02  0.51100000000E-03 0. -1.
        -11    1    3    3    0    0 -0.63351184478E+01 -0.30835310821E+01 -0.72616663295E+01  0.10117988329E+02  0.51100000000E-03 0.  1.
         12    1    3    3    0    0  0.38238534409E+01  0.20646423056E+02  0.22390405141E+02  0.30695714400E+02  0.00000000000E+00 0. -1.
</event>
<event>
 7    1  0.7444241E-013  0.5930196E+02  0.7816164E-02  0.1266605E+00
        -11   -1    0    0    0    0  0.00000000000E+00  0.00000000000E+00  0.45593999997E+02  0.45594000000E+02  0.51100000000E-03 0.  1.
         11   -1    0    0    0    0 -0.00000000000E+00 -0.00000000000E+00 -0.45593999997E+02  0.45594000000E+02  0.51100000000E-03 0. -1.
    9900012    2    1    2    0    0 -0.14251128318E+02 -0.13505249204E+02 -0.25124350728E+02  0.59301962085E+02  0.50000032933E+02 0.  0.
        -12    1    1    2    0    0  0.14251128318E+02  0.13505249204E+02  0.25124350728E+02  0.31886037915E+02  0.00000000000E+00 0.  1.
         11    1    3    3    0    0 -0.33329615187E+01  0.74455809552E+01 -0.87280771093E+01  0.11946741754E+02  0.51100000000E-03 0. -1.
        -11    1    3    3    0    0 -0.20829214174E+02  0.40280878535E+00 -0.88354739260E+01  0.22629273470E+02  0.51100000000E-03 0.  1.
         12    1    3    3    0    0  0.99110473742E+01 -0.21353638944E+02 -0.75607996928E+01  0.24725946862E+02  0.00000000000E+00 0. -1.
</event>
<event>
 7    1  0.7693876E-013  0.5930194E+02  0.7816164E-02  0.1266605E+00
        -11   -1    0    0    0    0  0.00000000000E+00  0.00000000000E+00  0.45593999997E+02  0.45594000000E+02  0.51100000000E-03 0. -1.
         11   -1    0    0    0    0 -0.00000000000E+00 -0.00000000000E+00 -0.45593999997E+02  0.45594000000E+02  0.51100000000E-03 0.  1.
    9900012    2    1    2    0    0  0.34062288763E+01 -0.26985484829E+02  0.16640373155E+02  0.59301940266E+02  0.49999993140E+02 0.  0.
        -12    1    1    2    0    0 -0.34062288763E+01  0.26985484829E+02 -0.16640373155E+02  0.31886059734E+02  0.00000000000E+00 0.  1.
         11    1    3    3    0    0 -0.12194671684E+02 -0.62979859507E+01  0.51273900139E+01  0.14651442698E+02  0.51100000000E-03 0. -1.
        -11    1    3    3    0    0  0.40409224011E+01  0.61094715248E+01 -0.69656762328E+01  0.10108181924E+02  0.51100000000E-03 0.  1.
         12    1    3    3    0    0  0.11559978159E+02 -0.26796970403E+02  0.18478659374E+02  0.34542315644E+02  0.00000000000E+00 0. -1.
</event>
<event>
 7    1  0.7444241E-013  0.5930195E+02  0.7816164E-02  0.1266605E+00
        -11   -1    0    0    0    0  0.00000000000E+00  0.00000000000E+00  0.45593999997E+02  0.45594000000E+02  0.51100000000E-03 0.  1.
         11   -1    0    0    0    0 -0.00000000000E+00 -0.00000000000E+00 -0.45593999997E+02  0.45594000000E+02  0.51100000000E-03 0. -1.
    9900012    2    1    2    0    0  0.30380597317E+02  0.90585920879E+01  0.34178030361E+01  0.59301950361E+02  0.50000011551E+02 0.  0.
        -12    1    1    2    0    0 -0.30380597317E+02 -0.90585920879E+01 -0.34178030361E+01  0.31886049639E+02  0.00000000000E+00 0.  1.
         11    1    3    3    0    0  0.72901178168E+01 -0.26074782988E+01 -0.54578086088E+00  0.77616130972E+01  0.51100000000E-03 0. -1.
        -11    1    3    3    0    0  0.67604900633E+01  0.18176838235E+02  0.19918174049E+02  0.27799916040E+02  0.51100000000E-03 0.  1.
         12    1    3    3    0    0  0.16329989437E+02 -0.65107678480E+01 -0.15954590152E+02  0.23740421224E+02  0.00000000000E+00 0. -1.
</event>
<event>
 7    1  0.7444241E-013  0.5930195E+02  0.7816164E-02  0.1266605E+00
        -11   -1    0    0    0    0  0.00000000000E+00  0.00000000000E+00  0.45593999997E+02  0.45594000000E+02  0.51100000000E-03 0. -1.
         11   -1    0    0    0    0 -0.00000000000E+00 -0.00000000000E+00 -0.45593999997E+02  0.45594000000E+02  0.51100000000E-03 0.  1.
    9900012    2    1    2    0    0 -0.14801735986E+02 -0.13769091491E+02  0.24658491802E+02  0.59301945264E+02  0.50000002255E+02 0.  0.
        -12    1    1    2    0    0  0.14801735986E+02  0.13769091491E+02 -0.24658491802E+02  0.31886054736E+02  0.00000000000E+00 0.  1.
         11    1    3    3    0    0  0.36707479644E+01 -0.12793140001E+02  0.97212260200E+01  0.16481536861E+02  0.51100000000E-03 0. -1.
        -11    1    3    3    0    0 -0.24954381353E+02 -0.56752929306E+01 -0.31611723679E+00  0.25593554441E+02  0.51100000000E-03 0.  1.
         12    1    3    3    0    0  0.64818974022E+01  0.46993414412E+01  0.15253383019E+02  0.17226853962E+02  0.00000000000E+00 0. -1.
</event>
<event>
 7    1  0.7444241E-013  0.5930192E+02  0.7816164E-02  0.1266605E+00
        -11   -1    0    0    0    0  0.00000000000E+00  0.00000000000E+00  0.45593999997E+02  0.45594000000E+02  0.51100000000E-03 0.  1.
         11   -1    0    0    0    0 -0.00000000000E+00 -0.00000000000E+00 -0.45593999997E+02  0.45594000000E+02  0.51100000000E-03 0. -1.
    9900012    2    1    2    0    0  0.67760762592E+01 -0.31121060577E+02 -0.15120392212E+01  0.59301923360E+02  0.49999962306E+02 0.  0.
        -12    1    1    2    0    0 -0.67760762592E+01  0.31121060577E+02  0.15120392212E+01  0.31886076640E+02  0.00000000000E+00 0.  1.
         11    1    3    3    0    0 -0.10331304445E+02 -0.19784349698E+02 -0.13265185969E+01  0.22358801318E+02  0.51100000000E-03 0. -1.
        -11    1    3    3    0    0 -0.38567429637E+01  0.53885691843E+01 -0.66166369605E+01  0.93643488332E+01  0.51100000000E-03 0.  1.
         12    1    3    3    0    0  0.20964123668E+02 -0.16725280063E+02  0.64311163363E+01  0.27578773209E+02  0.00000000000E+00 0. -1.
</event>
<event>
 7    1  0.7444241E-013  0.5930197E+02  0.7816164E-02  0.1266605E+00
        -11   -1    0    0    0    0  0.00000000000E+00  0.00000000000E+00  0.45593999997E+02  0.45594000000E+02  0.51100000000E-03 0.  1.
         11   -1    0    0    0    0 -0.00000000000E+00 -0.00000000000E+00 -0.45593999997E+02  0.45594000000E+02  0.51100000000E-03 0. -1.
    9900012    2    1    2    0    0  0.21374051200E+02 -0.18115472045E+02 -0.15221652560E+02  0.59301967027E+02  0.50000041946E+02 0.  0.
        -12    1    1    2    0    0 -0.21374051200E+02  0.18115472045E+02  0.15221652560E+02  0.31886032973E+02  0.00000000000E+00 0.  1.
         11    1    3    3    0    0  0.89422220177E+01  0.60926945829E+01  0.17985080936E+01  0.10968996924E+02  0.51100000000E-03 0. -1.
        -11    1    3    3    0    0  0.52161374863E+01  0.85020063854E+01  0.14534537811E+01  0.10079917212E+02  0.51100000000E-03 0.  1.
         12    1    3    3    0    0  0.72156916955E+01 -0.32710173013E+02 -0.18473614435E+02  0.38253052891E+02  0.00000000000E+00 0. -1.
</event>
<event>
 7    1  0.7444241E-013  0.5930194E+02  0.7816164E-02  0.1266605E+00
        -11   -1    0    0    0    0  0.00000000000E+00  0.00000000000E+00  0.45593999997E+02  0.45594000000E+02  0.51100000000E-03 0.  1.
         11   -1    0    0    0    0 -0.00000000000E+00 -0.00000000000E+00 -0.45593999997E+02  0.45594000000E+02  0.51100000000E-03 0. -1.
    9900012    2    1    2    0    0 -0.24431708893E+02 -0.10195237669E+02 -0.17772722153E+02  0.59301938417E+02  0.49999989767E+02 0.  0.
        -12    1    1    2    0    0  0.24431708893E+02  0.10195237669E+02  0.17772722153E+02  0.31886061583E+02  0.00000000000E+00 0.  1.
         11    1    3    3    0    0  0.89670577607E+01 -0.63220517130E+01  0.40486189555E+01  0.11694775691E+02  0.51100000000E-03 0. -1.
        -11    1    3    3    0    0 -0.51936224501E+01  0.25331259959E+01  0.53850922994E+01  0.78987126040E+01  0.51100000000E-03 0.  1.
         12    1    3    3    0    0 -0.28205144203E+02 -0.64063119521E+01 -0.27206433408E+02  0.39708450122E+02  0.00000000000E+00 0. -1.
</event>
<event>
 7    1  0.7444241E-013  0.5930194E+02  0.7816164E-02  0.1266605E+00
        -11   -1    0    0    0    0  0.00000000000E+00  0.00000000000E+00  0.45593999997E+02  0.45594000000E+02  0.51100000000E-03 0. -1.
         11   -1    0    0    0    0 -0.00000000000E+00 -0.00000000000E+00 -0.45593999997E+02  0.45594000000E+02  0.51100000000E-03 0.  1.
    9900012    2    1    2    0    0 -0.13729522742E+02  0.28524787656E+02  0.38154454912E+01  0.59301938314E+02  0.49999989580E+02 0.  0.
        -12    1    1    2    0    0  0.13729522742E+02 -0.28524787656E+02 -0.38154454912E+01  0.31886061686E+02  0.00000000000E+00 0.  1.
         11    1    3    3    0    0 -0.21918987441E+02  0.94211129243E+01  0.11736855521E+02  0.26588590729E+02  0.51100000000E-03 0. -1.
        -11    1    3    3    0    0 -0.16836958083E+01  0.27182863653E+01 -0.12616626236E+02  0.13015497308E+02  0.51100000000E-03 0.  1.
        -12    1    3    3    0    0  0.98731605068E+01  0.16385388366E+02  0.46952162069E+01  0.19697850277E+02  0.00000000000E+00 0.  1.
</event>
<event>
 7    1  0.7444241E-013  0.5930192E+02  0.7816164E-02  0.1266605E+00
        -11   -1    0    0    0    0  0.00000000000E+00  0.00000000000E+00  0.45593999997E+02  0.45594000000E+02  0.51100000000E-03 0.  1.
         11   -1    0    0    0    0 -0.00000000000E+00 -0.00000000000E+00 -0.45593999997E+02  0.45594000000E+02  0.51100000000E-03 0. -1.
    9900012    2    1    2    0    0 -0.17820353591E+02  0.78534498238E+01 -0.25248378513E+02  0.59301916927E+02  0.49999950574E+02 0.  0.
        -12    1    1    2    0    0  0.17820353591E+02 -0.78534498238E+01  0.25248378513E+02  0.31886083073E+02  0.00000000000E+00 0.  1.
         11    1    3    3    0    0 -0.29090605117E+02  0.68872300602E+01 -0.26496651845E+02  0.39947087544E+02  0.51100000000E-03 0. -1.
        -11    1    3    3    0    0 -0.37799041613E+01  0.22618556314E+00 -0.14349868916E+01  0.40494472484E+01  0.51100000000E-03 0.  1.
        -12    1    3    3    0    0  0.15050155688E+02  0.74003420043E+00  0.26832602239E+01  0.15305382134E+02  0.00000000000E+00 0.  1.
</event>
<event>
 7    1  0.7444241E-013  0.5930195E+02  0.7816164E-02  0.1266605E+00
        -11   -1    0    0    0    0  0.00000000000E+00  0.00000000000E+00  0.45593999997E+02  0.45594000000E+02  0.51100000000E-03 0.  1.
         11   -1    0    0    0    0 -0.00000000000E+00 -0.00000000000E+00 -0.45593999997E+02  0.45594000000E+02  0.51100000000E-03 0. -1.
    9900012    2    1    2    0    0  0.17591720983E+01 -0.29931402719E+01 -0.31696473732E+02  0.59301952547E+02  0.50000015537E+02 0.  0.
        -12    1    1    2    0    0 -0.17591720983E+01  0.29931402719E+01  0.31696473732E+02  0.31886047453E+02  0.00000000000E+00 0.  1.
         11    1    3    3    0    0  0.53024789802E+01  0.39650017292E+01 -0.14548582590E+02  0.15984329129E+02  0.51100000000E-03 0. -1.
        -11    1    3    3    0    0  0.25851229720E+01  0.12547541893E+02 -0.18860729307E+02  0.22800236371E+02  0.51100000000E-03 0.  1.
         12    1    3    3    0    0 -0.61284298538E+01 -0.19505683894E+02  0.17128381649E+01  0.20517387047E+02  0.00000000000E+00 0. -1.
</event>
<event>
 7    1  0.7444241E-013  0.5930183E+02  0.7816164E-02  0.1266605E+00
        -11   -1    0    0    0    0  0.00000000000E+00  0.00000000000E+00  0.45593999997E+02  0.45594000000E+02  0.51100000000E-03 0.  1.
         11   -1    0    0    0    0 -0.00000000000E+00 -0.00000000000E+00 -0.45593999997E+02  0.45594000000E+02  0.51100000000E-03 0. -1.
    9900012    2    1    2    0    0  0.14454836774E+02 -0.23557155264E+02  0.15901126866E+02  0.59301832060E+02  0.49999795797E+02 0.  0.
        -12    1    1    2    0    0 -0.14454836774E+02  0.23557155264E+02 -0.15901126866E+02  0.31886167940E+02  0.00000000000E+00 0.  1.
         11    1    3    3    0    0 -0.15841740336E+01 -0.95015976765E+01 -0.11103176497E+02  0.14699336528E+02  0.51100000000E-03 0. -1.
        -11    1    3    3    0    0  0.97471183956E+01 -0.38247290509E+01 -0.41115779977E+01  0.11248997432E+02  0.51100000000E-03 0.  1.
         12    1    3    3    0    0  0.62918924124E+01 -0.10230828536E+02  0.31115881361E+02  0.33353498100E+02  0.00000000000E+00 0. -1.
</event>
<event>
 7    1  0.7444241E-013  0.5930192E+02  0.7816164E-02  0.1266605E+00
        -11   -1    0    0    0    0  0.00000000000E+00  0.00000000000E+00  0.45593999997E+02  0.45594000000E+02  0.51100000000E-03 0.  1.
         11   -1    0    0    0    0 -0.00000000000E+00 -0.00000000000E+00 -0.45593999997E+02  0.45594000000E+02  0.51100000000E-03 0. -1.
    9900012    2    1    2    0    0 -0.24463531276E+02  0.16907923282E+02 -0.11505649111E+02  0.59301918496E+02  0.49999953436E+02 0.  0.
        -12    1    1    2    0    0  0.24463531276E+02 -0.16907923282E+02  0.11505649111E+02  0.31886081504E+02  0.00000000000E+00 0.  1.
         11    1    3    3    0    0 -0.83028721605E+00  0.18616433289E+02 -0.16761882746E+02  0.25064350754E+02  0.51100000000E-03 0. -1.
        -11    1    3    3    0    0 -0.23847965472E+02 -0.81546178919E+00 -0.46315328368E+01  0.24307232088E+02  0.51100000000E-03 0.  1.
        -12    1    3    3    0    0  0.21472141225E+00 -0.89304821827E+00  0.98877664714E+01  0.99303356538E+01  0.00000000000E+00 0.  1.
</event>
<event>
 7    1  0.7444241E-013  0.5930197E+02  0.7816164E-02  0.1266605E+00
        -11   -1    0    0    0    0  0.00000000000E+00  0.00000000000E+00  0.45593999997E+02  0.45594000000E+02  0.51100000000E-03 0.  1.
         11   -1    0    0    0    0 -0.00000000000E+00 -0.00000000000E+00 -0.45593999997E+02  0.45594000000E+02  0.51100000000E-03 0. -1.
    9900012    2    1    2    0    0 -0.15451379883E+02  0.26112441647E+02 -0.98037904212E+01  0.59301967702E+02  0.50000043176E+02 0.  0.
        -12    1    1    2    0    0  0.15451379883E+02 -0.26112441647E+02  0.98037904212E+01  0.31886032298E+02  0.00000000000E+00 0.  1.
         11    1    3    3    0    0  0.20412011725E-01  0.27282278557E+02  0.72818502921E+00  0.27292002374E+02  0.51100000000E-03 0. -1.
        -11    1    3    3    0    0  0.68120014316E+01 -0.26491735908E+01 -0.54205178275E+01  0.90996427401E+01  0.51100000000E-03 0.  1.
        -12    1    3    3    0    0 -0.22283793327E+02  0.14793366817E+01 -0.51114576228E+01  0.22910322588E+02  0.00000000000E+00 0.  1.
</event>
<event>
 7    1  0.7444241E-013  0.5930193E+02  0.7816164E-02  0.1266605E+00
        -11   -1    0    0    0    0  0.00000000000E+00  0.00000000000E+00  0.45593999997E+02  0.45594000000E+02  0.51100000000E-03 0. -1.
         11   -1    0    0    0    0 -0.00000000000E+00 -0.00000000000E+00 -0.45593999997E+02  0.45594000000E+02  0.51100000000E-03 0.  1.
    9900012    2    1    2    0    0  0.15042955241E+02 -0.22223347376E+02  0.17220742809E+02  0.59301926961E+02  0.49999968874E+02 0.  0.
        -12    1    1    2    0    0 -0.15042955241E+02  0.22223347376E+02 -0.17220742809E+02  0.31886073039E+02  0.00000000000E+00 0.  1.
         11    1    3    3    0    0  0.14835244965E+02 -0.12837269381E+02 -0.22582000585E+01  0.19747897258E+02  0.51100000000E-03 0. -1.
        -11    1    3    3    0    0  0.10346957809E+02 -0.11816271919E+02 -0.18483283386E+01  0.15814554558E+02  0.51100000000E-03 0.  1.
        -12    1    3    3    0    0 -0.10139247533E+02  0.24301939239E+01  0.21327271206E+02  0.23739475145E+02  0.00000000000E+00 0.  1.
</event>
<event>
 7    1  0.7444241E-013  0.5930191E+02  0.7816164E-02  0.1266605E+00
        -11   -1    0    0    0    0  0.00000000000E+00  0.00000000000E+00  0.45593999997E+02  0.45594000000E+02  0.51100000000E-03 0.  1.
         11   -1    0    0    0    0 -0.00000000000E+00 -0.00000000000E+00 -0.45593999997E+02  0.45594000000E+02  0.51100000000E-03 0. -1.
    9900012    2    1    2    0    0  0.13052074010E+02  0.57034359432E+00 -0.29086775790E+02  0.59301914419E+02  0.49999946001E+02 0.  0.
        -12    1    1    2    0    0 -0.13052074010E+02 -0.57034359432E+00  0.29086775790E+02  0.31886085581E+02  0.00000000000E+00 0.  1.
         11    1    3    3    0    0 -0.15007742006E+01  0.10600005813E-01 -0.22278683032E+02  0.22329177179E+02  0.51100000000E-03 0. -1.
        -11    1    3    3    0    0  0.39488707333E+01  0.16602587806E+02 -0.41108052140E+01  0.17553866289E+02  0.51100000000E-03 0.  1.
        -12    1    3    3    0    0  0.10603977477E+02 -0.16042844218E+02 -0.26972875441E+01  0.19418870951E+02  0.00000000000E+00 0.  1.
</event>
<event>
 7    1  0.7444241E-013  0.5930194E+02  0.7816164E-02  0.1266605E+00
        -11   -1    0    0    0    0  0.00000000000E+00  0.00000000000E+00  0.45593999997E+02  0.45594000000E+02  0.51100000000E-03 0.  1.
         11   -1    0    0    0    0 -0.00000000000E+00 -0.00000000000E+00 -0.45593999997E+02  0.45594000000E+02  0.51100000000E-03 0. -1.
    9900012    2    1    2    0    0 -0.50942466412E+01 -0.19387983291E+02 -0.24796685358E+02  0.59301939571E+02  0.49999991872E+02 0.  0.
        -12    1    1    2    0    0  0.50942466412E+01  0.19387983291E+02  0.24796685358E+02  0.31886060429E+02  0.00000000000E+00 0.  1.
         11    1    3    3    0    0 -0.49229944010E+01  0.11805206365E+02 -0.10826498321E+01  0.12836311858E+02  0.51100000000E-03 0.  1.
        -11    1    3    3    0    0  0.50194756938E+01  0.33624004183E+00 -0.10961960212E+02  0.12061209125E+02  0.51100000000E-03 0. -1.
        -12    1    3    3    0    0 -0.51907279340E+01 -0.31529429698E+02 -0.12752075314E+02  0.34404418588E+02  0.00000000000E+00 0.  1.
</event>
<event>
 7    1  0.7444241E-013  0.5930194E+02  0.7816164E-02  0.1266605E+00
        -11   -1    0    0    0    0  0.00000000000E+00  0.00000000000E+00  0.45593999997E+02  0.45594000000E+02  0.51100000000E-03 0. -1.
         11   -1    0    0    0    0 -0.00000000000E+00 -0.00000000000E+00 -0.45593999997E+02  0.45594000000E+02  0.51100000000E-03 0.  1.
    9900012    2    1    2    0    0 -0.39466998890E+01  0.22820251731E+02  0.21917588262E+02  0.59301937147E+02  0.49999987451E+02 0.  0.
        -12    1    1    2    0    0  0.39466998890E+01 -0.22820251731E+02 -0.21917588262E+02  0.31886062853E+02  0.00000000000E+00 0.  1.
         11    1    3    3    0    0  0.79071089961E+01  0.13333613594E+02  0.15789062310E+01  0.15582059213E+02  0.51100000000E-03 0. -1.
        -11    1    3    3    0    0  0.12030805321E+02 -0.84326468010E+00  0.10187805911E+02  0.15787424158E+02  0.51100000000E-03 0.  1.
        -12    1    3    3    0    0 -0.23884614206E+02  0.10329902816E+02  0.10150876120E+02  0.27932453776E+02  0.00000000000E+00 0.  1.
</event>
<event>
 7    1  0.7444241E-013  0.5930195E+02  0.7816164E-02  0.1266605E+00
        -11   -1    0    0    0    0  0.00000000000E+00  0.00000000000E+00  0.45593999997E+02  0.45594000000E+02  0.51100000000E-03 0.  1.
         11   -1    0    0    0    0 -0.00000000000E+00 -0.00000000000E+00 -0.45593999997E+02  0.45594000000E+02  0.51100000000E-03 0. -1.
    9900012    2    1    2    0    0 -0.15475488602E+02  0.25989253999E+02 -0.10089010461E+02  0.59301949712E+02  0.50000010366E+02 0.  0.
        -12    1    1    2    0    0  0.15475488602E+02 -0.25989253999E+02  0.10089010461E+02  0.31886050288E+02  0.00000000000E+00 0.  1.
         11    1    3    3    0    0 -0.37960904405E+01  0.11078366053E+02 -0.15623474089E+02  0.19525200125E+02  0.51100000000E-03 0. -1.
        -11    1    3    3    0    0 -0.91181174353E+01 -0.99665321127E+01  0.59590653331E+01  0.14764223238E+02  0.51100000000E-03 0.  1.
         12    1    3    3    0    0 -0.25612807258E+01  0.24877420059E+02 -0.42460170534E+00  0.25012526349E+02  0.00000000000E+00 0. -1.
</event>
<event>
 7    1  0.7444241E-013  0.5930194E+02  0.7816164E-02  0.1266605E+00
        -11   -1    0    0    0    0  0.00000000000E+00  0.00000000000E+00  0.45593999997E+02  0.45594000000E+02  0.51100000000E-03 0.  1.
         11   -1    0    0    0    0 -0.00000000000E+00 -0.00000000000E+00 -0.45593999997E+02  0.45594000000E+02  0.51100000000E-03 0. -1.
    9900012    2    1    2    0    0  0.22060374671E+02  0.22878315443E+02 -0.25775043953E+01  0.59301937574E+02  0.49999988230E+02 0.  0.
        -12    1    1    2    0    0 -0.22060374671E+02 -0.22878315443E+02  0.25775043953E+01  0.31886062426E+02  0.00000000000E+00 0.  1.
         11    1    3    3    0    0  0.30216809947E+01  0.33952107286E+01  0.74458489368E+00  0.46056941769E+01  0.51100000000E-03 0. -1.
        -11    1    3    3    0    0  0.76257404743E+01  0.20327734306E+02  0.19489139562E+02  0.29175250829E+02  0.51100000000E-03 0.  1.
        -12    1    3    3    0    0  0.11412953202E+02 -0.84462959148E+00 -0.22811228851E+02  0.25520992568E+02  0.00000000000E+00 0.  1.
</event>
<event>
 7    1  0.7444241E-013  0.5930193E+02  0.7816164E-02  0.1266605E+00
        -11   -1    0    0    0    0  0.00000000000E+00  0.00000000000E+00  0.45593999997E+02  0.45594000000E+02  0.51100000000E-03 0. -1.
         11   -1    0    0    0    0 -0.00000000000E+00 -0.00000000000E+00 -0.45593999997E+02  0.45594000000E+02  0.51100000000E-03 0.  1.
    9900012    2    1    2    0    0  0.25350030757E+02 -0.11975471116E+02 -0.15188343929E+02  0.59301925310E+02  0.49999965864E+02 0.  0.
        -12    1    1    2    0    0 -0.25350030757E+02  0.11975471116E+02  0.15188343929E+02  0.31886074690E+02  0.00000000000E+00 0.  1.
         11    1    3    3    0    0  0.25022120161E+02  0.13933388612E+01 -0.10659137439E+01  0.25083541674E+02  0.51100000000E-03 0. -1.
        -11    1    3    3    0    0 -0.22119104429E+01  0.85571195852E+01 -0.60738380074E+01  0.10724194693E+02  0.51100000000E-03 0.  1.
         12    1    3    3    0    0  0.25398210387E+01 -0.21925929563E+02 -0.80485921776E+01  0.23494188944E+02  0.00000000000E+00 0. -1.
</event>
<event>
 7    1  0.7444241E-013  0.5930196E+02  0.7816164E-02  0.1266605E+00
        -11   -1    0    0    0    0  0.00000000000E+00  0.00000000000E+00  0.45593999997E+02  0.45594000000E+02  0.51100000000E-03 0.  1.
         11   -1    0    0    0    0 -0.00000000000E+00 -0.00000000000E+00 -0.45593999997E+02  0.45594000000E+02  0.51100000000E-03 0. -1.
    9900012    2    1    2    0    0  0.12941630600E+02  0.24644473209E+02 -0.15552616845E+02  0.59301956767E+02  0.50000023234E+02 0.  0.
        -12    1    1    2    0    0 -0.12941630600E+02 -0.24644473209E+02  0.15552616845E+02  0.31886043233E+02  0.00000000000E+00 0.  1.
         11    1    3    3    0    0  0.15337723238E+02  0.24183189822E+02 -0.20849352902E+02  0.35422703748E+02  0.51100000000E-03 0. -1.
        -11    1    3    3    0    0 -0.75276227858E+01  0.67951073001E+01 -0.45340769552E+01  0.11108395119E+02  0.51100000000E-03 0.  1.
         12    1    3    3    0    0  0.51315301480E+01 -0.63338239133E+01  0.98308130126E+01  0.12770857900E+02  0.00000000000E+00 0. -1.
</event>
<event>
 7    1  0.7444241E-013  0.5930191E+02  0.7816164E-02  0.1266605E+00
        -11   -1    0    0    0    0  0.00000000000E+00  0.00000000000E+00  0.45593999997E+02  0.45594000000E+02  0.51100000000E-03 0.  1.
         11   -1    0    0    0    0 -0.00000000000E+00 -0.00000000000E+00 -0.45593999997E+02  0.45594000000E+02  0.51100000000E-03 0. -1.
    9900012    2    1    2    0    0 -0.28687061577E+01  0.64724299333E+01 -0.31090205034E+02  0.59301910975E+02  0.49999939719E+02 0.  0.
        -12    1    1    2    0    0  0.28687061577E+01 -0.64724299333E+01  0.31090205034E+02  0.31886089025E+02  0.00000000000E+00 0.  1.
         11    1    3    3    0    0 -0.86242524868E+01  0.14112312483E+01 -0.10349017583E+02  0.13545164074E+02  0.51100000000E-03 0. -1.
        -11    1    3    3    0    0 -0.16090789171E+02  0.91231004132E+01 -0.81110152990E+01  0.20197351974E+02  0.51100000000E-03 0.  1.
         12    1    3    3    0    0  0.21846335501E+02 -0.40619017282E+01 -0.12630172152E+02  0.25559394927E+02  0.00000000000E+00 0. -1.
</event>
<event>
 7    1  0.7444241E-013  0.5930194E+02  0.7816164E-02  0.1266605E+00
        -11   -1    0    0    0    0  0.00000000000E+00  0.00000000000E+00  0.45593999997E+02  0.45594000000E+02  0.51100000000E-03 0. -1.
         11   -1    0    0    0    0 -0.00000000000E+00 -0.00000000000E+00 -0.45593999997E+02  0.45594000000E+02  0.51100000000E-03 0.  1.
    9900012    2    1    2    0    0  0.10184354770E+02  0.25257574133E+02  0.16584768425E+02  0.59301942281E+02  0.49999996814E+02 0.  0.
        -12    1    1    2    0    0 -0.10184354770E+02 -0.25257574133E+02 -0.16584768425E+02  0.31886057719E+02  0.00000000000E+00 0.  1.
         11    1    3    3    0    0  0.15348972208E+02  0.77602508934E+01 -0.70589548227E+01  0.18591430425E+02  0.51100000000E-03 0. -1.
        -11    1    3    3    0    0  0.99133124705E+01  0.87325001414E+01  0.27495081762E+01  0.13494077157E+02  0.51100000000E-03 0.  1.
        -12    1    3    3    0    0 -0.15077929909E+02  0.87648230981E+01  0.20894215071E+02  0.27216434699E+02  0.00000000000E+00 0.  1.
</event>
<event>
 7    1  0.7444241E-013  0.5930201E+02  0.7816164E-02  0.1266605E+00
        -11   -1    0    0    0    0  0.00000000000E+00  0.00000000000E+00  0.45593999997E+02  0.45594000000E+02  0.51100000000E-03 0. -1.
         11   -1    0    0    0    0 -0.00000000000E+00 -0.00000000000E+00 -0.45593999997E+02  0.45594000000E+02  0.51100000000E-03 0.  1.
    9900012    2    1    2    0    0  0.40687217326E+01 -0.27727721008E+01  0.31503548054E+02  0.59302010888E+02  0.50000121937E+02 0.  0.
        -12    1    1    2    0    0 -0.40687217326E+01  0.27727721008E+01 -0.31503548054E+02  0.31885989112E+02  0.00000000000E+00 0.  1.
         11    1    3    3    0    0 -0.67899181661E+01 -0.45708084598E+01  0.10993869186E+02  0.13706218976E+02  0.51100000000E-03 0. -1.
        -11    1    3    3    0    0 -0.77750104266E+01 -0.62983320527E+01 -0.64001636266E+01  0.11877788872E+02  0.51100000000E-03 0.  1.
         12    1    3    3    0    0  0.18633650325E+02  0.80963684118E+01  0.26909842495E+02  0.33718003040E+02  0.00000000000E+00 0. -1.
</event>
<event>
 7    1  0.7444241E-013  0.5930192E+02  0.7816164E-02  0.1266605E+00
        -11   -1    0    0    0    0  0.00000000000E+00  0.00000000000E+00  0.45593999997E+02  0.45594000000E+02  0.51100000000E-03 0. -1.
         11   -1    0    0    0    0 -0.00000000000E+00 -0.00000000000E+00 -0.45593999997E+02  0.45594000000E+02  0.51100000000E-03 0.  1.
    9900012    2    1    2    0    0 -0.22218413762E+02 -0.21388521947E+02 -0.80990861824E+01  0.59301921875E+02  0.49999959599E+02 0.  0.
        -12    1    1    2    0    0  0.22218413762E+02  0.21388521947E+02  0.80990861824E+01  0.31886078125E+02  0.00000000000E+00 0.  1.
         11    1    3    3    0    0  0.87395848973E+00 -0.64543653314E+01  0.95188276704E+00  0.65824551906E+01  0.51100000000E-03 0. -1.
        -11    1    3    3    0    0 -0.11366031159E+02 -0.17669510556E+02 -0.25050943863E+02  0.32694771085E+02  0.51100000000E-03 0.  1.
         12    1    3    3    0    0 -0.11726341093E+02  0.27353539404E+01  0.15999974914E+02  0.20024695599E+02  0.00000000000E+00 0. -1.
</event>
<event>
 7    1  0.7444241E-013  0.5930169E+02  0.7816164E-02  0.1266606E+00
        -11   -1    0    0    0    0  0.00000000000E+00  0.00000000000E+00  0.45593999997E+02  0.45594000000E+02  0.51100000000E-03 0. -1.
         11   -1    0    0    0    0 -0.00000000000E+00 -0.00000000000E+00 -0.45593999997E+02  0.45594000000E+02  0.51100000000E-03 0.  1.
    9900012    2    1    2    0    0  0.12905293523E+02 -0.18429099458E+02  0.22595535888E+02  0.59301693381E+02  0.49999542878E+02 0.  0.
        -12    1    1    2    0    0 -0.12905293523E+02  0.18429099458E+02 -0.22595535888E+02  0.31886306619E+02  0.00000000000E+00 0.  1.
         11    1    3    3    0    0  0.95876978927E+01  0.50869897729E+01  0.17919631961E+02  0.20950289394E+02  0.51100000000E-03 0. -1.
        -11    1    3    3    0    0  0.38808831872E+01  0.29491469751E+01 -0.77133327528E+01  0.91243752997E+01  0.51100000000E-03 0.  1.
        -12    1    3    3    0    0 -0.56328755706E+00 -0.26465236206E+02  0.12389236680E+02  0.29227028686E+02  0.00000000000E+00 0.  1.
</event>
<event>
 7    1  0.7444241E-013  0.5930191E+02  0.7816164E-02  0.1266605E+00
        -11   -1    0    0    0    0  0.00000000000E+00  0.00000000000E+00  0.45593999997E+02  0.45594000000E+02  0.51100000000E-03 0.  1.
         11   -1    0    0    0    0 -0.00000000000E+00 -0.00000000000E+00 -0.45593999997E+02  0.45594000000E+02  0.51100000000E-03 0. -1.
    9900012    2    1    2    0    0 -0.91255804540E+01  0.15926593112E+02 -0.26072783528E+02  0.59301911691E+02  0.49999941025E+02 0.  0.
        -12    1    1    2    0    0  0.91255804540E+01 -0.15926593112E+02  0.26072783528E+02  0.31886088309E+02  0.00000000000E+00 0.  1.
         11    1    3    3    0    0 -0.33163194695E+01  0.33741744677E+01 -0.13730132691E+01  0.49262758612E+01  0.51100000000E-03 0. -1.
        -11    1    3    3    0    0 -0.13432187605E+02 -0.14403966395E+02 -0.14904374916E+02  0.24698953493E+02  0.51100000000E-03 0.  1.
         12    1    3    3    0    0  0.76229266200E+01  0.26956385039E+02 -0.97953953430E+01  0.29676682337E+02  0.00000000000E+00 0. -1.
</event>
<event>
 7    1  0.7444241E-013  0.5930194E+02  0.7816164E-02  0.1266605E+00
        -11   -1    0    0    0    0  0.00000000000E+00  0.00000000000E+00  0.45593999997E+02  0.45594000000E+02  0.51100000000E-03 0. -1.
         11   -1    0    0    0    0 -0.00000000000E+00 -0.00000000000E+00 -0.45593999997E+02  0.45594000000E+02  0.51100000000E-03 0.  1.
    9900012    2    1    2    0    0  0.53042586595E+01  0.22478909228E+02  0.21983722643E+02  0.59301943780E+02  0.49999999549E+02 0.  0.
        -12    1    1    2    0    0 -0.53042586595E+01 -0.22478909228E+02 -0.21983722643E+02  0.31886056220E+02  0.00000000000E+00 0.  1.
         11    1    3    3    0    0 -0.48975882060E+00 -0.98841676693E+01  0.84793003763E+01  0.13032082311E+02  0.51100000000E-03 0.  1.
        -11    1    3    3    0    0  0.68646763823E+01 -0.24605734816E+01  0.82912698524E+01  0.11041891130E+02  0.51100000000E-03 0. -1.
        -12    1    3    3    0    0 -0.10706589022E+01  0.34823650379E+02  0.52131524140E+01  0.35227970340E+02  0.00000000000E+00 0.  1.
</event>
<event>
 7    1  0.7444241E-013  0.5930201E+02  0.7816164E-02  0.1266605E+00
        -11   -1    0    0    0    0  0.00000000000E+00  0.00000000000E+00  0.45593999997E+02  0.45594000000E+02  0.51100000000E-03 0.  1.
         11   -1    0    0    0    0 -0.00000000000E+00 -0.00000000000E+00 -0.45593999997E+02  0.45594000000E+02  0.51100000000E-03 0. -1.
    9900012    2    1    2    0    0  0.37156770161E+01  0.67703716984E+00 -0.31661513297E+02  0.59302014688E+02  0.50000128868E+02 0.  0.
        -12    1    1    2    0    0 -0.37156770161E+01 -0.67703716984E+00  0.31661513297E+02  0.31885985312E+02  0.00000000000E+00 0.  1.
         11    1    3    3    0    0  0.22763752086E+02 -0.83593266763E+01 -0.20748101730E+02  0.31914737617E+02  0.51100000000E-03 0. -1.
        -11    1    3    3    0    0 -0.59329626263E+00  0.14858701525E+01  0.27736801803E+01  0.32020481834E+01  0.51100000000E-03 0.  1.
        -12    1    3    3    0    0 -0.18454778807E+02  0.75504936937E+01 -0.13687091748E+02  0.24185228888E+02  0.00000000000E+00 0.  1.
</event>
<event>
 7    1  0.7444241E-013  0.5930196E+02  0.7816164E-02  0.1266605E+00
        -11   -1    0    0    0    0  0.00000000000E+00  0.00000000000E+00  0.45593999997E+02  0.45594000000E+02  0.51100000000E-03 0. -1.
         11   -1    0    0    0    0 -0.00000000000E+00 -0.00000000000E+00 -0.45593999997E+02  0.45594000000E+02  0.51100000000E-03 0.  1.
    9900012    2    1    2    0    0 -0.17358342512E+02 -0.59523057559E+01 -0.26076383834E+02  0.59301956149E+02  0.50000022106E+02 0.  0.
        -12    1    1    2    0    0  0.17358342512E+02  0.59523057559E+01  0.26076383834E+02  0.31886043851E+02  0.00000000000E+00 0.  1.
         11    1    3    3    0    0 -0.96792095506E+00 -0.19346236528E+01  0.24558931444E+01  0.32727742133E+01  0.51100000000E-03 0. -1.
        -11    1    3    3    0    0 -0.77538307906E+01  0.62634961797E+01  0.10663850559E+02  0.14596951234E+02  0.51100000000E-03 0.  1.
        -12    1    3    3    0    0 -0.86365907666E+01 -0.10281178283E+02 -0.39196127538E+02  0.41432230702E+02  0.00000000000E+00 0.  1.
</event>
<event>
 7    1  0.7444241E-013  0.5930194E+02  0.7816164E-02  0.1266605E+00
        -11   -1    0    0    0    0  0.00000000000E+00  0.00000000000E+00  0.45593999997E+02  0.45594000000E+02  0.51100000000E-03 0.  1.
         11   -1    0    0    0    0 -0.00000000000E+00 -0.00000000000E+00 -0.45593999997E+02  0.45594000000E+02  0.51100000000E-03 0. -1.
    9900012    2    1    2    0    0  0.87443373850E-01  0.31648553072E+02 -0.38836034193E+01  0.59301938258E+02  0.49999989477E+02 0.  0.
        -12    1    1    2    0    0 -0.87443373850E-01 -0.31648553072E+02  0.38836034193E+01  0.31886061742E+02  0.00000000000E+00 0.  1.
         11    1    3    3    0    0  0.16113829028E+02  0.97770073924E+01 -0.52736919366E+01  0.19571846781E+02  0.51100000000E-03 0. -1.
        -11    1    3    3    0    0  0.33774617957E+01  0.15497236625E+02  0.86349303981E+01  0.18059169815E+02  0.51100000000E-03 0.  1.
         12    1    3    3    0    0 -0.19403847450E+02  0.63743090551E+01 -0.72448418809E+01  0.21670921662E+02  0.00000000000E+00 0. -1.
</event>
<event>
 7    1  0.7444241E-013  0.5930200E+02  0.7816164E-02  0.1266605E+00
        -11   -1    0    0    0    0  0.00000000000E+00  0.00000000000E+00  0.45593999997E+02  0.45594000000E+02  0.51100000000E-03 0.  1.
         11   -1    0    0    0    0 -0.00000000000E+00 -0.00000000000E+00 -0.45593999997E+02  0.45594000000E+02  0.51100000000E-03 0. -1.
    9900012    2    1    2    0    0  0.95063796902E+01  0.12632095594E+02 -0.27690716111E+02  0.59302002248E+02  0.50000106180E+02 0.  0.
        -12    1    1    2    0    0 -0.95063796902E+01 -0.12632095594E+02  0.27690716111E+02  0.31885997752E+02  0.00000000000E+00 0.  1.
         11    1    3    3    0    0  0.11501077079E+02  0.33452768909E+01 -0.10337813661E+02  0.15822011346E+02  0.51100000000E-03 0. -1.
        -11    1    3    3    0    0  0.60084034920E+01  0.23021543818E+02 -0.83752413409E+01  0.25223740009E+02  0.51100000000E-03 0.  1.
        -12    1    3    3    0    0 -0.80031008812E+01 -0.13734725115E+02 -0.89776611086E+01  0.18256250893E+02  0.00000000000E+00 0.  1.
</event>
<event>
 7    1  0.7444241E-013  0.5930196E+02  0.7816164E-02  0.1266605E+00
        -11   -1    0    0    0    0  0.00000000000E+00  0.00000000000E+00  0.45593999997E+02  0.45594000000E+02  0.51100000000E-03 0.  1.
         11   -1    0    0    0    0 -0.00000000000E+00 -0.00000000000E+00 -0.45593999997E+02  0.45594000000E+02  0.51100000000E-03 0. -1.
    9900012    2    1    2    0    0  0.21684853187E+02  0.18668246464E+02  0.14070659659E+02  0.59301956861E+02  0.50000023405E+02 0.  0.
        -12    1    1    2    0    0 -0.21684853187E+02 -0.18668246464E+02 -0.14070659659E+02  0.31886043139E+02  0.00000000000E+00 0.  1.
         11    1    3    3    0    0  0.65759405323E+01 -0.86864186063E+01 -0.58796953766E+01  0.12380132474E+02  0.51100000000E-03 0.  1.
        -11    1    3    3    0    0  0.78082698767E+01  0.57826687667E+00 -0.52558410805E+01  0.94301292023E+01  0.51100000000E-03 0. -1.
        -12    1    3    3    0    0  0.73006427784E+01  0.26776398194E+02  0.25206196116E+02  0.37491695185E+02  0.00000000000E+00 0.  1.
</event>
<event>
 7    1  0.7444241E-013  0.5930194E+02  0.7816164E-02  0.1266605E+00
        -11   -1    0    0    0    0  0.00000000000E+00  0.00000000000E+00  0.45593999997E+02  0.45594000000E+02  0.51100000000E-03 0.  1.
         11   -1    0    0    0    0 -0.00000000000E+00 -0.00000000000E+00 -0.45593999997E+02  0.45594000000E+02  0.51100000000E-03 0. -1.
    9900012    2    1    2    0    0 -0.21205338581E+01  0.10165191674E+02 -0.30147854613E+02  0.59301938416E+02  0.49999989765E+02 0.  0.
        -12    1    1    2    0    0  0.21205338581E+01 -0.10165191674E+02  0.30147854613E+02  0.31886061584E+02  0.00000000000E+00 0.  1.
         11    1    3    3    0    0 -0.37188019446E+00 -0.67564919474E+00 -0.47511800721E+01  0.48133677453E+01  0.51100000000E-03 0. -1.
        -11    1    3    3    0    0 -0.11632086290E+01  0.15490693269E+02 -0.37994370115E+02  0.41047372546E+02  0.51100000000E-03 0.  1.
        -12    1    3    3    0    0 -0.58544503465E+00 -0.46498523998E+01  0.12597695574E+02  0.13441198124E+02  0.00000000000E+00 0.  1.
</event>
<event>
 7    1  0.7444241E-013  0.5930198E+02  0.7816164E-02  0.1266605E+00
        -11   -1    0    0    0    0  0.00000000000E+00  0.00000000000E+00  0.45593999997E+02  0.45594000000E+02  0.51100000000E-03 0.  1.
         11   -1    0    0    0    0 -0.00000000000E+00 -0.00000000000E+00 -0.45593999997E+02  0.45594000000E+02  0.51100000000E-03 0. -1.
    9900012    2    1    2    0    0  0.12312238491E+02  0.28204983190E+02 -0.83430237159E+01  0.59301978954E+02  0.50000063698E+02 0.  0.
        -12    1    1    2    0    0 -0.12312238491E+02 -0.28204983190E+02  0.83430237159E+01  0.31886021046E+02  0.00000000000E+00 0.  1.
         11    1    3    3    0    0 -0.67981369269E+01 -0.37933100780E+01  0.37793231637E+01  0.86537362371E+01  0.51100000000E-03 0. -1.
        -11    1    3    3    0    0 -0.49520355301E+00 -0.55887844911E+01  0.20127704387E+01  0.59607871751E+01  0.51100000000E-03 0.  1.
         12    1    3    3    0    0  0.19605578971E+02  0.37587077759E+02 -0.14135117318E+02  0.44687455542E+02  0.00000000000E+00 0. -1.
</event>
<event>
 7    1  0.7444241E-013  0.5930196E+02  0.7816164E-02  0.1266605E+00
        -11   -1    0    0    0    0  0.00000000000E+00  0.00000000000E+00  0.45593999997E+02  0.45594000000E+02  0.51100000000E-03 0. -1.
         11   -1    0    0    0    0 -0.00000000000E+00 -0.00000000000E+00 -0.45593999997E+02  0.45594000000E+02  0.51100000000E-03 0.  1.
    9900012    2    1    2    0    0  0.21817386833E+02  0.23197078804E+02  0.16176458415E+01  0.59301958989E+02  0.50000027287E+02 0.  0.
        -12    1    1    2    0    0 -0.21817386833E+02 -0.23197078804E+02 -0.16176458415E+01  0.31886041011E+02  0.00000000000E+00 0.  1.
         11    1    3    3    0    0  0.81535196154E+01  0.18960766451E+02  0.28958718661E+01  0.20841703880E+02  0.51100000000E-03 0.  1.
        -11    1    3    3    0    0  0.17795652121E+02  0.10882379326E+02  0.11241726695E+02  0.23695734501E+02  0.51100000000E-03 0. -1.
        -12    1    3    3    0    0 -0.41317849030E+01 -0.66460669729E+01 -0.12519952719E+02  0.14764520608E+02  0.00000000000E+00 0.  1.
</event>
<event>
 7    1  0.7444241E-013  0.5930192E+02  0.7816164E-02  0.1266605E+00
        -11   -1    0    0    0    0  0.00000000000E+00  0.00000000000E+00  0.45593999997E+02  0.45594000000E+02  0.51100000000E-03 0.  1.
         11   -1    0    0    0    0 -0.00000000000E+00 -0.00000000000E+00 -0.45593999997E+02  0.45594000000E+02  0.51100000000E-03 0. -1.
    9900012    2    1    2    0    0 -0.51427079133E+01 -0.60080985731E+01 -0.30889761315E+02  0.59301920792E+02  0.49999957624E+02 0.  0.
        -12    1    1    2    0    0  0.51427079133E+01  0.60080985731E+01  0.30889761315E+02  0.31886079208E+02  0.00000000000E+00 0.  1.
         11    1    3    3    0    0 -0.16161051469E+02 -0.70016565428E+01 -0.30387289915E+01  0.17872790858E+02  0.51100000000E-03 0. -1.
        -11    1    3    3    0    0 -0.76305363189E+01 -0.40298517404E+01 -0.15008466885E+01  0.87588429948E+01  0.51100000000E-03 0.  1.
        -12    1    3    3    0    0  0.18648879874E+02  0.50234097102E+01 -0.26350185635E+02  0.32670286939E+02  0.00000000000E+00 0.  1.
</event>
<event>
 7    1  0.7444241E-013  0.5930192E+02  0.7816164E-02  0.1266605E+00
        -11   -1    0    0    0    0  0.00000000000E+00  0.00000000000E+00  0.45593999997E+02  0.45594000000E+02  0.51100000000E-03 0. -1.
         11   -1    0    0    0    0 -0.00000000000E+00 -0.00000000000E+00 -0.45593999997E+02  0.45594000000E+02  0.51100000000E-03 0.  1.
    9900012    2    1    2    0    0 -0.29338741371E+02 -0.63620767187E+01 -0.10746356326E+02  0.59301922479E+02  0.49999960700E+02 0.  0.
        -12    1    1    2    0    0  0.29338741371E+02  0.63620767187E+01  0.10746356326E+02  0.31886077521E+02  0.00000000000E+00 0.  1.
         11    1    3    3    0    0  0.18127114534E+01  0.99600810959E+01 -0.10179516417E+01  0.10174741474E+02  0.51100000000E-03 0. -1.
        -11    1    3    3    0    0  0.46653632138E+01 -0.34942484862E+00 -0.87217105671E+01  0.98972696800E+01  0.51100000000E-03 0.  1.
         12    1    3    3    0    0 -0.35816816038E+02 -0.15972732966E+02 -0.10066941168E+01  0.39229911325E+02  0.00000000000E+00 0. -1.
</event>
<event>
 7    1  0.7444241E-013  0.5930195E+02  0.7816164E-02  0.1266605E+00
        -11   -1    0    0    0    0  0.00000000000E+00  0.00000000000E+00  0.45593999997E+02  0.45594000000E+02  0.51100000000E-03 0.  1.
         11   -1    0    0    0    0 -0.00000000000E+00 -0.00000000000E+00 -0.45593999997E+02  0.45594000000E+02  0.51100000000E-03 0. -1.
    9900012    2    1    2    0    0  0.11914770065E+02 -0.26474321671E+02 -0.13185919899E+02  0.59301953880E+02  0.50000017967E+02 0.  0.
        -12    1    1    2    0    0 -0.11914770065E+02  0.26474321671E+02  0.13185919899E+02  0.31886046120E+02  0.00000000000E+00 0.  1.
         11    1    3    3    0    0 -0.19112784378E+01  0.62296960104E+01 -0.58817812623E+01  0.87782372222E+01  0.51100000000E-03 0. -1.
        -11    1    3    3    0    0  0.15173275348E+02 -0.11744368302E+02 -0.18559700331E+02  0.26694961101E+02  0.51100000000E-03 0.  1.
        -12    1    3    3    0    0 -0.13472268451E+01 -0.20959649380E+02  0.11255561694E+02  0.23828755556E+02  0.00000000000E+00 0.  1.
</event>
<event>
 7    1  0.7444241E-013  0.5930196E+02  0.7816164E-02  0.1266605E+00
        -11   -1    0    0    0    0  0.00000000000E+00  0.00000000000E+00  0.45593999997E+02  0.45594000000E+02  0.51100000000E-03 0. -1.
         11   -1    0    0    0    0 -0.00000000000E+00 -0.00000000000E+00 -0.45593999997E+02  0.45594000000E+02  0.51100000000E-03 0.  1.
    9900012    2    1    2    0    0 -0.58196392857E+01  0.24323768451E+02  0.19778916511E+02  0.59301961497E+02  0.50000031859E+02 0.  0.
        -12    1    1    2    0    0  0.58196392857E+01 -0.24323768451E+02 -0.19778916511E+02  0.31886038503E+02  0.00000000000E+00 0.  1.
         11    1    3    3    0    0 -0.69806767339E+01  0.35500704933E+01  0.79623914127E+01  0.11168371656E+02  0.51100000000E-03 0. -1.
        -11    1    3    3    0    0 -0.19226924032E+02  0.27394358462E+01  0.42272149200E+01  0.19875826090E+02  0.51100000000E-03 0.  1.
        -12    1    3    3    0    0  0.20387961481E+02  0.18034262111E+02  0.75893101787E+01  0.28257763751E+02  0.00000000000E+00 0.  1.
</event>
<event>
 7    1  0.7444241E-013  0.5930194E+02  0.7816164E-02  0.1266605E+00
        -11   -1    0    0    0    0  0.00000000000E+00  0.00000000000E+00  0.45593999997E+02  0.45594000000E+02  0.51100000000E-03 0.  1.
         11   -1    0    0    0    0 -0.00000000000E+00 -0.00000000000E+00 -0.45593999997E+02  0.45594000000E+02  0.51100000000E-03 0. -1.
    9900012    2    1    2    0    0 -0.26161902541E+02 -0.16912016051E+02 -0.68014352072E+01  0.59301937961E+02  0.49999988936E+02 0.  0.
        -12    1    1    2    0    0  0.26161902541E+02  0.16912016051E+02  0.68014352072E+01  0.31886062039E+02  0.00000000000E+00 0.  1.
         11    1    3    3    0    0  0.41427935470E+01 -0.67502678960E+01  0.73316233926E+01  0.10792662177E+02  0.51100000000E-03 0. -1.
        -11    1    3    3    0    0 -0.29418806156E+01 -0.85206121710E+01  0.89279246513E+01  0.12687132543E+02  0.51100000000E-03 0.  1.
         12    1    3    3    0    0 -0.27362815472E+02 -0.16411359840E+01 -0.23060983251E+02  0.35822143241E+02  0.00000000000E+00 0. -1.
</event>
<event>
 7    1  0.7444241E-013  0.5930197E+02  0.7816164E-02  0.1266605E+00
        -11   -1    0    0    0    0  0.00000000000E+00  0.00000000000E+00  0.45593999997E+02  0.45594000000E+02  0.51100000000E-03 0.  1.
         11   -1    0    0    0    0 -0.00000000000E+00 -0.00000000000E+00 -0.45593999997E+02  0.45594000000E+02  0.51100000000E-03 0. -1.
    9900012    2    1    2    0    0 -0.11655814803E+02  0.28299019374E+02 -0.89457481856E+01  0.59301969723E+02  0.50000046862E+02 0.  0.
        -12    1    1    2    0    0  0.11655814803E+02 -0.28299019374E+02  0.89457481856E+01  0.31886030277E+02  0.00000000000E+00 0.  1.
         11    1    3    3    0    0  0.41415775811E+01  0.73187142981E+01 -0.76684633982E+01  0.11380754588E+02  0.51100000000E-03 0. -1.
        -11    1    3    3    0    0  0.75570057053E+01 -0.52215826735E+01 -0.80035019386E+01  0.12183156586E+02  0.51100000000E-03 0.  1.
        -12    1    3    3    0    0 -0.23354398089E+02  0.26201887749E+02  0.67262171512E+01  0.35738058550E+02  0.00000000000E+00 0.  1.
</event>
<event>
 7    1  0.7444241E-013  0.5930198E+02  0.7816164E-02  0.1266605E+00
        -11   -1    0    0    0    0  0.00000000000E+00  0.00000000000E+00  0.45593999997E+02  0.45594000000E+02  0.51100000000E-03 0.  1.
         11   -1    0    0    0    0 -0.00000000000E+00 -0.00000000000E+00 -0.45593999997E+02  0.45594000000E+02  0.51100000000E-03 0. -1.
    9900012    2    1    2    0    0 -0.85174756704E+01  0.27315986172E+02 -0.14071534814E+02  0.59301975094E+02  0.50000056656E+02 0.  0.
        -12    1    1    2    0    0  0.85174756704E+01 -0.27315986172E+02  0.14071534814E+02  0.31886024906E+02  0.00000000000E+00 0.  1.
         11    1    3    3    0    0  0.40672638233E+01  0.10815316013E+02  0.21707229135E+01  0.11756944063E+02  0.51100000000E-03 0. -1.
        -11    1    3    3    0    0  0.54138330825E+01 -0.53782645153E+01  0.74114708581E+01  0.10637914193E+02  0.51100000000E-03 0.  1.
         12    1    3    3    0    0 -0.17998572576E+02  0.21878934674E+02 -0.23653728586E+02  0.36907116837E+02  0.00000000000E+00 0. -1.
</event>
<event>
 7    1  0.7444241E-013  0.5930185E+02  0.7816164E-02  0.1266605E+00
        -11   -1    0    0    0    0  0.00000000000E+00  0.00000000000E+00  0.45593999997E+02  0.45594000000E+02  0.51100000000E-03 0. -1.
         11   -1    0    0    0    0 -0.00000000000E+00 -0.00000000000E+00 -0.45593999997E+02  0.45594000000E+02  0.51100000000E-03 0.  1.
    9900012    2    1    2    0    0 -0.24863592642E+02 -0.18676261302E+02  0.70516362260E+01  0.59301850205E+02  0.49999828889E+02 0.  0.
        -12    1    1    2    0    0  0.24863592642E+02  0.18676261302E+02 -0.70516362260E+01  0.31886149795E+02  0.00000000000E+00 0.  1.
         11    1    3    3    0    0  0.83180952783E+01 -0.17011675573E+02  0.16438292172E+01  0.19007629774E+02  0.51100000000E-03 0. -1.
        -11    1    3    3    0    0 -0.14179083148E+02 -0.10943164006E+02  0.66630973469E+01  0.19110104759E+02  0.51100000000E-03 0.  1.
        -12    1    3    3    0    0 -0.19002604773E+02  0.92785782767E+01 -0.12552903381E+01  0.21184115672E+02  0.00000000000E+00 0.  1.
</event>
<event>
 7    1  0.7444241E-013  0.5930198E+02  0.7816164E-02  0.1266605E+00
        -11   -1    0    0    0    0  0.00000000000E+00  0.00000000000E+00  0.45593999997E+02  0.45594000000E+02  0.51100000000E-03 0.  1.
         11   -1    0    0    0    0 -0.00000000000E+00 -0.00000000000E+00 -0.45593999997E+02  0.45594000000E+02  0.51100000000E-03 0. -1.
    9900012    2    1    2    0    0  0.22345242899E+02  0.15633183050E+02 -0.16523074238E+02  0.59301979948E+02  0.50000065510E+02 0.  0.
        -12    1    1    2    0    0 -0.22345242899E+02 -0.15633183050E+02  0.16523074238E+02  0.31886020052E+02  0.00000000000E+00 0.  1.
         11    1    3    3    0    0  0.33274979285E+01  0.19689691166E+02 -0.15671472045E+01  0.20030280360E+02  0.51100000000E-03 0. -1.
        -11    1    3    3    0    0  0.12373649224E+02  0.74747370980E+01  0.49903507203E+01  0.15293217136E+02  0.51100000000E-03 0.  1.
         12    1    3    3    0    0  0.66440957463E+01 -0.11531245214E+02 -0.19946277754E+02  0.23978482452E+02  0.00000000000E+00 0. -1.
</event>
<event>
 7    1  0.7444241E-013  0.5930155E+02  0.7816164E-02  0.1266606E+00
        -11   -1    0    0    0    0  0.00000000000E+00  0.00000000000E+00  0.45593999997E+02  0.45594000000E+02  0.51100000000E-03 0.  1.
         11   -1    0    0    0    0 -0.00000000000E+00 -0.00000000000E+00 -0.45593999997E+02  0.45594000000E+02  0.51100000000E-03 0. -1.
    9900012    2    1    2    0    0 -0.23533565869E+01 -0.54735389267E+01 -0.31324873382E+02  0.59301551342E+02  0.49999283831E+02 0.  0.
        -12    1    1    2    0    0  0.23533565869E+01  0.54735389267E+01  0.31324873382E+02  0.31886448658E+02  0.00000000000E+00 0.  1.
         11    1    3    3    0    0 -0.70823295936E+01  0.26964590520E+01 -0.11471807533E+01  0.76646140042E+01  0.51100000000E-03 0. -1.
        -11    1    3    3    0    0 -0.10801097184E+02 -0.13261989691E+02  0.24106025673E+00  0.17105618412E+02  0.51100000000E-03 0.  1.
         12    1    3    3    0    0  0.15530070190E+02  0.50919917126E+01 -0.30418752885E+02  0.34531318927E+02  0.00000000000E+00 0. -1.
</event>
<event>
 7    1  0.7444241E-013  0.5930194E+02  0.7816164E-02  0.1266605E+00
        -11   -1    0    0    0    0  0.00000000000E+00  0.00000000000E+00  0.45593999997E+02  0.45594000000E+02  0.51100000000E-03 0.  1.
         11   -1    0    0    0    0 -0.00000000000E+00 -0.00000000000E+00 -0.45593999997E+02  0.45594000000E+02  0.51100000000E-03 0. -1.
    9900012    2    1    2    0    0 -0.77867378498E+01 -0.95767824077E+01 -0.29400222123E+02  0.59301935513E+02  0.49999984471E+02 0.  0.
        -12    1    1    2    0    0  0.77867378498E+01  0.95767824077E+01  0.29400222123E+02  0.31886064487E+02  0.00000000000E+00 0.  1.
         11    1    3    3    0    0  0.64874684087E+01 -0.18511360935E+02 -0.13246888825E+02  0.23669342911E+02  0.51100000000E-03 0. -1.
        -11    1    3    3    0    0 -0.16394403431E+01 -0.93710633458E+01 -0.51252634385E+01  0.10806151880E+02  0.51100000000E-03 0.  1.
         12    1    3    3    0    0 -0.12634765915E+02  0.18305641873E+02 -0.11028069859E+02  0.24826440722E+02  0.00000000000E+00 0. -1.
</event>
<event>
 7    1  0.7444241E-013  0.5930196E+02  0.7816164E-02  0.1266605E+00
        -11   -1    0    0    0    0  0.00000000000E+00  0.00000000000E+00  0.45593999997E+02  0.45594000000E+02  0.51100000000E-03 0. -1.
         11   -1    0    0    0    0 -0.00000000000E+00 -0.00000000000E+00 -0.45593999997E+02  0.45594000000E+02  0.51100000000E-03 0.  1.
    9900012    2    1    2    0    0 -0.18765268186E+02 -0.10771743707E+02  0.23421229508E+02  0.59301956905E+02  0.50000023485E+02 0.  0.
        -12    1    1    2    0    0  0.18765268186E+02  0.10771743707E+02 -0.23421229508E+02  0.31886043095E+02  0.00000000000E+00 0.  1.
         11    1    3    3    0    0 -0.20795937014E+02 -0.19606431044E+02  0.12066962170E+02  0.31024098872E+02  0.51100000000E-03 0. -1.
        -11    1    3    3    0    0  0.10171385330E+01 -0.75857976139E+01 -0.97964031421E+00  0.77161254293E+01  0.51100000000E-03 0.  1.
        -12    1    3    3    0    0  0.10135302943E+01  0.16420484951E+02  0.12333907653E+02  0.20561732604E+02  0.00000000000E+00 0.  1.
</event>
<event>
 7    1  0.7444241E-013  0.5930196E+02  0.7816164E-02  0.1266605E+00
        -11   -1    0    0    0    0  0.00000000000E+00  0.00000000000E+00  0.45593999997E+02  0.45594000000E+02  0.51100000000E-03 0. -1.
         11   -1    0    0    0    0 -0.00000000000E+00 -0.00000000000E+00 -0.45593999997E+02  0.45594000000E+02  0.51100000000E-03 0.  1.
    9900012    2    1    2    0    0  0.25625268378E+02 -0.79337151565E+01  0.17237211780E+02  0.59301957825E+02  0.50000025163E+02 0.  0.
        -12    1    1    2    0    0 -0.25625268378E+02  0.79337151565E+01 -0.17237211780E+02  0.31886042175E+02  0.00000000000E+00 0.  1.
         11    1    3    3    0    0  0.74379345118E+01  0.46391942425E+01 -0.91722579722E+01  0.12687604565E+02  0.51100000000E-03 0. -1.
        -11    1    3    3    0    0  0.17612072097E+02  0.67257952494E+01  0.10386741220E+02  0.21524539454E+02  0.51100000000E-03 0.  1.
         12    1    3    3    0    0  0.57526176954E+00 -0.19298704648E+02  0.16022728532E+02  0.25089813806E+02  0.00000000000E+00 0. -1.
</event>
<event>
 7    1  0.7444241E-013  0.5930186E+02  0.7816164E-02  0.1266605E+00
        -11   -1    0    0    0    0  0.00000000000E+00  0.00000000000E+00  0.45593999997E+02  0.45594000000E+02  0.51100000000E-03 0.  1.
         11   -1    0    0    0    0 -0.00000000000E+00 -0.00000000000E+00 -0.45593999997E+02  0.45594000000E+02  0.51100000000E-03 0. -1.
    9900012    2    1    2    0    0 -0.10247694800E+02  0.29718005772E+02 -0.53433157224E+01  0.59301856635E+02  0.49999840617E+02 0.  0.
        -12    1    1    2    0    0  0.10247694800E+02 -0.29718005772E+02  0.53433157224E+01  0.31886143365E+02  0.00000000000E+00 0.  1.
         11    1    3    3    0    0  0.58057760075E+01  0.76495020218E+01  0.16676688387E+01  0.97469500793E+01  0.51100000000E-03 0. -1.
        -11    1    3    3    0    0 -0.23393400005E+02  0.28899791077E+02  0.23789484350E+00  0.37182061297E+02  0.51100000000E-03 0.  1.
         12    1    3    3    0    0  0.73399291973E+01 -0.68312873271E+01 -0.72488794046E+01  0.12372845258E+02  0.00000000000E+00 0. -1.
</event>
<event>
 7    1  0.7444241E-013  0.5930191E+02  0.7816164E-02  0.1266605E+00
        -11   -1    0    0    0    0  0.00000000000E+00  0.00000000000E+00  0.45593999997E+02  0.45594000000E+02  0.51100000000E-03 0. -1.
         11   -1    0    0    0    0 -0.00000000000E+00 -0.00000000000E+00 -0.45593999997E+02  0.45594000000E+02  0.51100000000E-03 0.  1.
    9900012    2    1    2    0    0 -0.41522619411E+01 -0.21335670480E+02  0.23329608443E+02  0.59301909864E+02  0.49999937694E+02 0.  0.
        -12    1    1    2    0    0  0.41522619411E+01  0.21335670480E+02 -0.23329608443E+02  0.31886090136E+02  0.00000000000E+00 0.  1.
         11    1    3    3    0    0  0.29486421903E+00 -0.10715324770E+02  0.27428578014E+02  0.29448803405E+02  0.51100000000E-03 0. -1.
        -11    1    3    3    0    0 -0.14533320743E+01 -0.40158107569E+01  0.11707798658E+02  0.12462401849E+02  0.51100000000E-03 0.  1.
        -12    1    3    3    0    0 -0.29937940858E+01 -0.66045349536E+01 -0.15806768230E+02  0.17390704611E+02  0.00000000000E+00 0.  1.
</event>
<event>
 7    1  0.7444241E-013  0.5930191E+02  0.7816164E-02  0.1266605E+00
        -11   -1    0    0    0    0  0.00000000000E+00  0.00000000000E+00  0.45593999997E+02  0.45594000000E+02  0.51100000000E-03 0.  1.
         11   -1    0    0    0    0 -0.00000000000E+00 -0.00000000000E+00 -0.45593999997E+02  0.45594000000E+02  0.51100000000E-03 0. -1.
    9900012    2    1    2    0    0  0.25403355122E+01 -0.26785751985E+02 -0.17111192815E+02  0.59301910032E+02  0.49999937999E+02 0.  0.
        -12    1    1    2    0    0 -0.25403355122E+01  0.26785751985E+02  0.17111192815E+02  0.31886089968E+02  0.00000000000E+00 0.  1.
         11    1    3    3    0    0  0.12694348912E+02 -0.10354133115E+02 -0.73039470265E+01  0.17936058912E+02  0.51100000000E-03 0. -1.
        -11    1    3    3    0    0  0.10530778786E+02 -0.14498264241E+02  0.10018457980E+01  0.17947163094E+02  0.51100000000E-03 0.  1.
         12    1    3    3    0    0 -0.20684792187E+02 -0.19333546291E+01 -0.10809091586E+02  0.23418688026E+02  0.00000000000E+00 0. -1.
</event>
<event>
 7    1  0.7444241E-013  0.5930195E+02  0.7816164E-02  0.1266605E+00
        -11   -1    0    0    0    0  0.00000000000E+00  0.00000000000E+00  0.45593999997E+02  0.45594000000E+02  0.51100000000E-03 0. -1.
         11   -1    0    0    0    0 -0.00000000000E+00 -0.00000000000E+00 -0.45593999997E+02  0.45594000000E+02  0.51100000000E-03 0.  1.
    9900012    2    1    2    0    0 -0.24727385968E+02  0.16478630244E+02  0.11564212519E+02  0.59301954734E+02  0.50000019525E+02 0.  0.
        -12    1    1    2    0    0  0.24727385968E+02 -0.16478630244E+02 -0.11564212519E+02  0.31886045266E+02  0.00000000000E+00 0.  1.
         11    1    3    3    0    0  0.95781989004E+00 -0.11055155453E+01 -0.48057171214E+00  0.15396535306E+01  0.51100000000E-03 0. -1.
        -11    1    3    3    0    0 -0.15840648380E+02 -0.13605186519E+02 -0.41132909888E+01  0.21282537544E+02  0.51100000000E-03 0.  1.
         12    1    3    3    0    0 -0.98445574779E+01  0.31189332308E+02  0.16158075220E+02  0.36479763659E+02  0.00000000000E+00 0. -1.
</event>
<event>
 7    1  0.7444241E-013  0.5930195E+02  0.7816164E-02  0.1266605E+00
        -11   -1    0    0    0    0  0.00000000000E+00  0.00000000000E+00  0.45593999997E+02  0.45594000000E+02  0.51100000000E-03 0.  1.
         11   -1    0    0    0    0 -0.00000000000E+00 -0.00000000000E+00 -0.45593999997E+02  0.45594000000E+02  0.51100000000E-03 0. -1.
    9900012    2    1    2    0    0 -0.27606768272E+02 -0.13271998003E+02 -0.88566760190E+01  0.59301948261E+02  0.50000007720E+02 0.  0.
        -12    1    1    2    0    0  0.27606768272E+02  0.13271998003E+02  0.88566760190E+01  0.31886051739E+02  0.00000000000E+00 0.  1.
         11    1    3    3    0    0 -0.21044859541E+02 -0.83549081026E+01  0.42104785642E+01  0.23030821360E+02  0.51100000000E-03 0. -1.
        -11    1    3    3    0    0 -0.16811995997E+02 -0.11420000209E+02 -0.30883792876E+01  0.20557181253E+02  0.51100000000E-03 0.  1.
         12    1    3    3    0    0  0.10250087266E+02  0.65029103092E+01 -0.99787752956E+01  0.15713945648E+02  0.00000000000E+00 0. -1.
</event>
<event>
 7    1  0.7444241E-013  0.5930194E+02  0.7816164E-02  0.1266605E+00
        -11   -1    0    0    0    0  0.00000000000E+00  0.00000000000E+00  0.45593999997E+02  0.45594000000E+02  0.51100000000E-03 0. -1.
         11   -1    0    0    0    0 -0.00000000000E+00 -0.00000000000E+00 -0.45593999997E+02  0.45594000000E+02  0.51100000000E-03 0.  1.
    9900012    2    1    2    0    0  0.13328488303E+01  0.60779118367E+01  0.31273046823E+02  0.59301937906E+02  0.49999988835E+02 0.  0.
        -12    1    1    2    0    0 -0.13328488303E+01 -0.60779118367E+01 -0.31273046823E+02  0.31886062094E+02  0.00000000000E+00 0.  1.
         11    1    3    3    0    0  0.68819703036E+01  0.24516309220E+00  0.44305567443E+01  0.81884951931E+01  0.51100000000E-03 0. -1.
        -11    1    3    3    0    0 -0.91717749376E+01  0.23499335388E+02  0.12995566812E+02  0.28376486326E+02  0.51100000000E-03 0.  1.
         12    1    3    3    0    0  0.36226534644E+01 -0.17666586644E+02  0.13846923266E+02  0.22736956386E+02  0.00000000000E+00 0. -1.
</event>
<event>
 7    1  0.7444241E-013  0.5930194E+02  0.7816164E-02  0.1266605E+00
        -11   -1    0    0    0    0  0.00000000000E+00  0.00000000000E+00  0.45593999997E+02  0.45594000000E+02  0.51100000000E-03 0. -1.
         11   -1    0    0    0    0 -0.00000000000E+00 -0.00000000000E+00 -0.45593999997E+02  0.45594000000E+02  0.51100000000E-03 0.  1.
    9900012    2    1    2    0    0  0.22922918364E+02  0.48616962416E+01  0.21624621418E+02  0.59301944613E+02  0.50000001068E+02 0.  0.
        -12    1    1    2    0    0 -0.22922918364E+02 -0.48616962416E+01 -0.21624621418E+02  0.31886055387E+02  0.00000000000E+00 0.  1.
         11    1    3    3    0    0  0.10048047821E+02  0.11383643774E+02  0.97140549257E+01  0.18025356417E+02  0.51100000000E-03 0. -1.
        -11    1    3    3    0    0  0.10819747840E+02  0.87183106021E+01  0.19645362640E+02  0.24062754551E+02  0.51100000000E-03 0.  1.
        -12    1    3    3    0    0  0.20551227032E+01 -0.15240258135E+02 -0.77347961476E+01  0.17213833646E+02  0.00000000000E+00 0.  1.
</event>
<event>
 7    1  0.7444241E-013  0.5930196E+02  0.7816164E-02  0.1266605E+00
        -11   -1    0    0    0    0  0.00000000000E+00  0.00000000000E+00  0.45593999997E+02  0.45594000000E+02  0.51100000000E-03 0.  1.
         11   -1    0    0    0    0 -0.00000000000E+00 -0.00000000000E+00 -0.45593999997E+02  0.45594000000E+02  0.51100000000E-03 0. -1.
    9900012    2    1    2    0    0 -0.62121575002E+01  0.30418288847E+02  0.72702396514E+01  0.59301959453E+02  0.50000028132E+02 0.  0.
        -12    1    1    2    0    0  0.62121575002E+01 -0.30418288847E+02 -0.72702396514E+01  0.31886040547E+02  0.00000000000E+00 0.  1.
         11    1    3    3    0    0 -0.81215358686E+01 -0.67703671309E+01  0.58235038265E+01  0.12071056832E+02  0.51100000000E-03 0. -1.
        -11    1    3    3    0    0 -0.97969863789E+01  0.18424748666E+01  0.60592825137E+00  0.99871319732E+01  0.51100000000E-03 0.  1.
         12    1    3    3    0    0  0.11706364747E+02  0.35346181111E+02  0.84080757348E+00  0.37243770648E+02  0.00000000000E+00 0. -1.
</event>
<event>
 7    1  0.7444241E-013  0.5930195E+02  0.7816164E-02  0.1266605E+00
        -11   -1    0    0    0    0  0.00000000000E+00  0.00000000000E+00  0.45593999997E+02  0.45594000000E+02  0.51100000000E-03 0. -1.
         11   -1    0    0    0    0 -0.00000000000E+00 -0.00000000000E+00 -0.45593999997E+02  0.45594000000E+02  0.51100000000E-03 0.  1.
    9900012    2    1    2    0    0 -0.11462459361E+02 -0.25901286543E+02  0.14644311893E+02  0.59301945211E+02  0.50000002158E+02 0.  0.
        -12    1    1    2    0    0  0.11462459361E+02  0.25901286543E+02 -0.14644311893E+02  0.31886054789E+02  0.00000000000E+00 0.  1.
         11    1    3    3    0    0 -0.80976015683E+01  0.54407207330E+01  0.10511342749E+02  0.14340882815E+02  0.51100000000E-03 0. -1.
        -11    1    3    3    0    0 -0.26852368104E+01  0.46413604326E+01 -0.55236557587E+01  0.76982788073E+01  0.51100000000E-03 0.  1.
        -12    1    3    3    0    0 -0.67962098259E+00 -0.35983367708E+02  0.96566249030E+01  0.37262783589E+02  0.00000000000E+00 0.  1.
</event>
<event>
 7    1  0.7444241E-013  0.5930195E+02  0.7816164E-02  0.1266605E+00
        -11   -1    0    0    0    0  0.00000000000E+00  0.00000000000E+00  0.45593999997E+02  0.45594000000E+02  0.51100000000E-03 0. -1.
         11   -1    0    0    0    0 -0.00000000000E+00 -0.00000000000E+00 -0.45593999997E+02  0.45594000000E+02  0.51100000000E-03 0.  1.
    9900012    2    1    2    0    0 -0.18164683225E+02 -0.10546697003E+02  0.23990244728E+02  0.59301946992E+02  0.50000005406E+02 0.  0.
        -12    1    1    2    0    0  0.18164683225E+02  0.10546697003E+02 -0.23990244728E+02  0.31886053008E+02  0.00000000000E+00 0.  1.
         11    1    3    3    0    0 -0.21517041919E+00 -0.12516426623E+02  0.69026135676E+01  0.14295219762E+02  0.51100000000E-03 0. -1.
        -11    1    3    3    0    0 -0.18633325009E+02 -0.28152490102E+01  0.27609514947E+02  0.33427709221E+02  0.51100000000E-03 0.  1.
        -12    1    3    3    0    0  0.68381220290E+00  0.47849786302E+01 -0.10521883787E+02  0.11579018009E+02  0.00000000000E+00 0.  1.
</event>
<event>
 7    1  0.7444241E-013  0.5930196E+02  0.7816164E-02  0.1266605E+00
        -11   -1    0    0    0    0  0.00000000000E+00  0.00000000000E+00  0.45593999997E+02  0.45594000000E+02  0.51100000000E-03 0.  1.
         11   -1    0    0    0    0 -0.00000000000E+00 -0.00000000000E+00 -0.45593999997E+02  0.45594000000E+02  0.51100000000E-03 0. -1.
    9900012    2    1    2    0    0 -0.11474016039E+02 -0.28276651392E+02 -0.92464719814E+01  0.59301963838E+02  0.50000036129E+02 0.  0.
        -12    1    1    2    0    0  0.11474016039E+02  0.28276651392E+02  0.92464719814E+01  0.31886036162E+02  0.00000000000E+00 0.  1.
         11    1    3    3    0    0  0.84476252731E+01  0.26352074962E+01 -0.47131774237E+01  0.10026002842E+02  0.51100000000E-03 0. -1.
        -11    1    3    3    0    0 -0.22561784159E+01 -0.28809653661E+01  0.11786706907E+02  0.12341667734E+02  0.51100000000E-03 0.  1.
         12    1    3    3    0    0 -0.17665462897E+02 -0.28030893522E+02 -0.16320001464E+02  0.36934293262E+02  0.00000000000E+00 0. -1.
</event>
<event>
 7    1  0.7444241E-013  0.5930194E+02  0.7816164E-02  0.1266605E+00
        -11   -1    0    0    0    0  0.00000000000E+00  0.00000000000E+00  0.45593999997E+02  0.45594000000E+02  0.51100000000E-03 0.  1.
         11   -1    0    0    0    0 -0.00000000000E+00 -0.00000000000E+00 -0.45593999997E+02  0.45594000000E+02  0.51100000000E-03 0. -1.
    9900012    2    1    2    0    0  0.25560238926E+02  0.18850280213E+02 -0.28393060592E+01  0.59301944474E+02  0.50000000815E+02 0.  0.
        -12    1    1    2    0    0 -0.25560238926E+02 -0.18850280213E+02  0.28393060592E+01  0.31886055526E+02  0.00000000000E+00 0.  1.
         11    1    3    3    0    0  0.28604935944E+02  0.26681501764E+02 -0.41212837030E+01  0.39333571874E+02  0.51100000000E-03 0. -1.
        -11    1    3    3    0    0  0.29609267325E+01  0.24532900001E+01  0.60263040258E+01  0.71485704453E+01  0.51100000000E-03 0.  1.
        -12    1    3    3    0    0 -0.60056237499E+01 -0.10284511551E+02 -0.47443263819E+01  0.12819802155E+02  0.00000000000E+00 0.  1.
</event>
<event>
 7    1  0.7444241E-013  0.5930168E+02  0.7816164E-02  0.1266606E+00
        -11   -1    0    0    0    0  0.00000000000E+00  0.00000000000E+00  0.45593999997E+02  0.45594000000E+02  0.51100000000E-03 0. -1.
         11   -1    0    0    0    0 -0.00000000000E+00 -0.00000000000E+00 -0.45593999997E+02  0.45594000000E+02  0.51100000000E-03 0.  1.
    9900012    2    1    2    0    0 -0.26276092567E+02  0.22056786431E+00  0.18062556849E+02  0.59301676118E+02  0.49999511394E+02 0.  0.
        -12    1    1    2    0    0  0.26276092567E+02 -0.22056786431E+00 -0.18062556849E+02  0.31886323882E+02  0.00000000000E+00 0.  1.
         11    1    3    3    0    0 -0.41193968765E+01 -0.42563132668E+01 -0.32122210169E+01  0.67382488359E+01  0.51100000000E-03 0. -1.
        -11    1    3    3    0    0 -0.55380596534E+01 -0.17386876318E+02  0.72254304187E+00  0.18261863035E+02  0.51100000000E-03 0.  1.
         12    1    3    3    0    0 -0.16618636037E+02  0.21863757449E+02  0.20552234824E+02  0.34301564247E+02  0.00000000000E+00 0. -1.
</event>
<event>
 7    1  0.7444241E-013  0.5930194E+02  0.7816164E-02  0.1266605E+00
        -11   -1    0    0    0    0  0.00000000000E+00  0.00000000000E+00  0.45593999997E+02  0.45594000000E+02  0.51100000000E-03 0. -1.
         11   -1    0    0    0    0 -0.00000000000E+00 -0.00000000000E+00 -0.45593999997E+02  0.45594000000E+02  0.51100000000E-03 0.  1.
    9900012    2    1    2    0    0  0.49331360019E+01 -0.12386677663E+02  0.28964723353E+02  0.59301940142E+02  0.49999992914E+02 0.  0.
        -12    1    1    2    0    0 -0.49331360019E+01  0.12386677663E+02 -0.28964723353E+02  0.31886059858E+02  0.00000000000E+00 0.  1.
         11    1    3    3    0    0  0.18717450460E+02 -0.52596442105E+01  0.20159686070E+02  0.28007494562E+02  0.51100000000E-03 0. -1.
        -11    1    3    3    0    0 -0.96199046664E+01  0.46437169883E+01  0.14136108597E+02  0.17718245956E+02  0.51100000000E-03 0.  1.
        -12    1    3    3    0    0 -0.41644097915E+01 -0.11770750441E+02 -0.53310713141E+01  0.13576199623E+02  0.00000000000E+00 0.  1.
</event>
<event>
 7    1  0.7444241E-013  0.5930202E+02  0.7816164E-02  0.1266605E+00
        -11   -1    0    0    0    0  0.00000000000E+00  0.00000000000E+00  0.45593999997E+02  0.45594000000E+02  0.51100000000E-03 0.  1.
         11   -1    0    0    0    0 -0.00000000000E+00 -0.00000000000E+00 -0.45593999997E+02  0.45594000000E+02  0.51100000000E-03 0. -1.
    9900012    2    1    2    0    0  0.29903749650E+02  0.25670755641E+01 -0.10765298856E+02  0.59302019076E+02  0.50000136869E+02 0.  0.
        -12    1    1    2    0    0 -0.29903749650E+02 -0.25670755641E+01  0.10765298856E+02  0.31885980924E+02  0.00000000000E+00 0.  1.
         11    1    3    3    0    0  0.26250837987E+02 -0.37354082667E+01 -0.65952906852E+01  0.27323206793E+02  0.51100000000E-03 0. -1.
        -11    1    3    3    0    0  0.87554334622E+01  0.39083011868E+01  0.11706273504E+02  0.15131730664E+02  0.51100000000E-03 0.  1.
        -12    1    3    3    0    0 -0.51025218000E+01  0.23941826441E+01 -0.15876281675E+02  0.16847081619E+02  0.00000000000E+00 0.  1.
</event>
<event>
 7    1  0.7444241E-013  0.5930194E+02  0.7816164E-02  0.1266605E+00
        -11   -1    0    0    0    0  0.00000000000E+00  0.00000000000E+00  0.45593999997E+02  0.45594000000E+02  0.51100000000E-03 0. -1.
         11   -1    0    0    0    0 -0.00000000000E+00 -0.00000000000E+00 -0.45593999997E+02  0.45594000000E+02  0.51100000000E-03 0.  1.
    9900012    2    1    2    0    0 -0.92145451313E+01  0.30525607998E+02 -0.18088177319E-01  0.59301938581E+02  0.49999990066E+02 0.  0.
        -12    1    1    2    0    0  0.92145451313E+01 -0.30525607998E+02  0.18088177319E-01  0.31886061419E+02  0.00000000000E+00 0.  1.
         11    1    3    3    0    0 -0.10252348966E+02  0.25905114292E+02 -0.80377128039E+01  0.28996386554E+02  0.51100000000E-03 0. -1.
        -11    1    3    3    0    0 -0.60775536971E+01  0.15156931568E+02  0.28309656777E+01  0.16573581400E+02  0.51100000000E-03 0.  1.
        -12    1    3    3    0    0  0.71153575316E+01 -0.10536437862E+02  0.51886589489E+01  0.13731970627E+02  0.00000000000E+00 0.  1.
</event>
<event>
 7    1  0.7444241E-013  0.5930195E+02  0.7816164E-02  0.1266605E+00
        -11   -1    0    0    0    0  0.00000000000E+00  0.00000000000E+00  0.45593999997E+02  0.45594000000E+02  0.51100000000E-03 0. -1.
         11   -1    0    0    0    0 -0.00000000000E+00 -0.00000000000E+00 -0.45593999997E+02  0.45594000000E+02  0.51100000000E-03 0.  1.
    9900012    2    1    2    0    0  0.18940033078E+02 -0.25027778735E+02  0.56218822913E+01  0.59301950983E+02  0.50000012686E+02 0.  0.
        -12    1    1    2    0    0 -0.18940033078E+02  0.25027778735E+02 -0.56218822913E+01  0.31886049017E+02  0.00000000000E+00 0.  1.
         11    1    3    3    0    0 -0.18229356396E+01 -0.20139200006E+02 -0.59126244807E+01  0.21068213017E+02  0.51100000000E-03 0. -1.
        -11    1    3    3    0    0 -0.30295968892E+01  0.83072334864E+01  0.44508038549E+00  0.88536253772E+01  0.51100000000E-03 0.  1.
        -12    1    3    3    0    0  0.23792565607E+02 -0.13195812215E+02  0.11089426386E+02  0.29380112589E+02  0.00000000000E+00 0.  1.
</event>
<event>
 7    1  0.7444241E-013  0.5930195E+02  0.7816164E-02  0.1266605E+00
        -11   -1    0    0    0    0  0.00000000000E+00  0.00000000000E+00  0.45593999997E+02  0.45594000000E+02  0.51100000000E-03 0. -1.
         11   -1    0    0    0    0 -0.00000000000E+00 -0.00000000000E+00 -0.45593999997E+02  0.45594000000E+02  0.51100000000E-03 0.  1.
    9900012    2    1    2    0    0 -0.11732887827E+02 -0.16214141637E+00  0.29648489670E+02  0.59301954678E+02  0.50000019423E+02 0.  0.
        -12    1    1    2    0    0  0.11732887827E+02  0.16214141637E+00 -0.29648489670E+02  0.31886045322E+02  0.00000000000E+00 0.  1.
         11    1    3    3    0    0 -0.71853190310E+01  0.57327465768E+00  0.16275751711E+02  0.17800492899E+02  0.51100000000E-03 0. -1.
        -11    1    3    3    0    0 -0.15949909251E+02 -0.13637000138E+01 -0.75238890831E+01  0.17688080451E+02  0.51100000000E-03 0.  1.
        -12    1    3    3    0    0  0.11402340455E+02  0.62828393971E+00  0.20896627042E+02  0.23813381328E+02  0.00000000000E+00 0.  1.
</event>
<event>
 7    1  0.7444241E-013  0.5930200E+02  0.7816164E-02  0.1266605E+00
        -11   -1    0    0    0    0  0.00000000000E+00  0.00000000000E+00  0.45593999997E+02  0.45594000000E+02  0.51100000000E-03 0. -1.
         11   -1    0    0    0    0 -0.00000000000E+00 -0.00000000000E+00 -0.45593999997E+02  0.45594000000E+02  0.51100000000E-03 0.  1.
    9900012    2    1    2    0    0  0.23677779426E+02  0.20914724545E+02 -0.43190065882E+01  0.59302003713E+02  0.50000108851E+02 0.  0.
        -12    1    1    2    0    0 -0.23677779426E+02 -0.20914724545E+02  0.43190065882E+01  0.31885996287E+02  0.00000000000E+00 0.  1.
         11    1    3    3    0    0  0.17151999610E+02  0.11985296757E+02 -0.38283841698E+01  0.21271928794E+02  0.51100000000E-03 0. -1.
        -11    1    3    3    0    0  0.67189675295E+01  0.18485816471E+02  0.11431264850E+02  0.22749587944E+02  0.51100000000E-03 0.  1.
        -12    1    3    3    0    0 -0.19318771399E+00 -0.95563886836E+01 -0.11921887269E+02  0.15280486976E+02  0.00000000000E+00 0.  1.
</event>
<event>
 7    1  0.7444241E-013  0.5930195E+02  0.7816164E-02  0.1266605E+00
        -11   -1    0    0    0    0  0.00000000000E+00  0.00000000000E+00  0.45593999997E+02  0.45594000000E+02  0.51100000000E-03 0.  1.
         11   -1    0    0    0    0 -0.00000000000E+00 -0.00000000000E+00 -0.45593999997E+02  0.45594000000E+02  0.51100000000E-03 0. -1.
    9900012    2    1    2    0    0  0.18304121913E+02  0.25420945240E+02 -0.59544110545E+01  0.59301947455E+02  0.50000006251E+02 0.  0.
        -12    1    1    2    0    0 -0.18304121913E+02 -0.25420945240E+02  0.59544110545E+01  0.31886052545E+02  0.00000000000E+00 0.  1.
         11    1    3    3    0    0  0.91727825678E+01  0.59707462693E+01 -0.10969662046E+02  0.15495910322E+02  0.51100000000E-03 0. -1.
        -11    1    3    3    0    0  0.44013112844E+01  0.25979039887E+02 -0.88258440843E+01  0.27788083391E+02  0.51100000000E-03 0.  1.
        -12    1    3    3    0    0  0.47300280605E+01 -0.65288409166E+01  0.13841095076E+02  0.16017953742E+02  0.00000000000E+00 0.  1.
</event>
<event>
 7    1  0.7444241E-013  0.5930193E+02  0.7816164E-02  0.1266605E+00
        -11   -1    0    0    0    0  0.00000000000E+00  0.00000000000E+00  0.45593999997E+02  0.45594000000E+02  0.51100000000E-03 0. -1.
         11   -1    0    0    0    0 -0.00000000000E+00 -0.00000000000E+00 -0.45593999997E+02  0.45594000000E+02  0.51100000000E-03 0.  1.
    9900012    2    1    2    0    0 -0.22815310760E+02 -0.22004224838E+02  0.34636568107E+01  0.59301933540E+02  0.49999980873E+02 0.  0.
        -12    1    1    2    0    0  0.22815310760E+02  0.22004224838E+02 -0.34636568107E+01  0.31886066460E+02  0.00000000000E+00 0.  1.
         11    1    3    3    0    0 -0.98129621447E-01 -0.17529967146E+02 -0.87564822122E+01  0.19595544354E+02  0.51100000000E-03 0. -1.
        -11    1    3    3    0    0 -0.66696732184E+01 -0.42906811638E+01 -0.97063195196E+01  0.12534238093E+02  0.51100000000E-03 0.  1.
         12    1    3    3    0    0 -0.16047507920E+02 -0.18357652804E+00  0.21926458542E+02  0.27172151093E+02  0.00000000000E+00 0. -1.
</event>
<event>
 7    1  0.7444241E-013  0.5930194E+02  0.7816164E-02  0.1266605E+00
        -11   -1    0    0    0    0  0.00000000000E+00  0.00000000000E+00  0.45593999997E+02  0.45594000000E+02  0.51100000000E-03 0. -1.
         11   -1    0    0    0    0 -0.00000000000E+00 -0.00000000000E+00 -0.45593999997E+02  0.45594000000E+02  0.51100000000E-03 0.  1.
    9900012    2    1    2    0    0  0.25838017431E+02 -0.15883277409E+02 -0.98406751049E+01  0.59301944544E+02  0.50000000941E+02 0.  0.
        -12    1    1    2    0    0 -0.25838017431E+02  0.15883277409E+02  0.98406751049E+01  0.31886055456E+02  0.00000000000E+00 0.  1.
         11    1    3    3    0    0  0.43363035042E+01 -0.10177337670E+02 -0.17741285158E+02  0.20907771986E+02  0.51100000000E-03 0. -1.
        -11    1    3    3    0    0 -0.40447697662E+01 -0.90244123304E+01  0.78608629683E+01  0.12633026052E+02  0.51100000000E-03 0.  1.
        -12    1    3    3    0    0  0.25546483693E+02  0.33184725909E+01  0.39747084361E-01  0.25761146505E+02  0.00000000000E+00 0.  1.
</event>
<event>
 7    1  0.7444241E-013  0.5930193E+02  0.7816164E-02  0.1266605E+00
        -11   -1    0    0    0    0  0.00000000000E+00  0.00000000000E+00  0.45593999997E+02  0.45594000000E+02  0.51100000000E-03 0.  1.
         11   -1    0    0    0    0 -0.00000000000E+00 -0.00000000000E+00 -0.45593999997E+02  0.45594000000E+02  0.51100000000E-03 0. -1.
    9900012    2    1    2    0    0  0.19461492307E+02 -0.12069167424E+02 -0.22187989277E+02  0.59301931674E+02  0.49999977470E+02 0.  0.
        -12    1    1    2    0    0 -0.19461492307E+02  0.12069167424E+02  0.22187989277E+02  0.31886068326E+02  0.00000000000E+00 0.  1.
         11    1    3    3    0    0  0.18853043213E+02 -0.14889315107E+02 -0.18553948432E+02  0.30354208035E+02  0.51100000000E-03 0. -1.
        -11    1    3    3    0    0  0.14082229758E+02 -0.20342277007E+01 -0.24449463510E+00  0.14230497363E+02  0.51100000000E-03 0.  1.
        -12    1    3    3    0    0 -0.13473780665E+02  0.48543753832E+01 -0.33895462100E+01  0.14717226276E+02  0.00000000000E+00 0.  1.
</event>
<event>
 7    1  0.7444241E-013  0.5930193E+02  0.7816164E-02  0.1266605E+00
        -11   -1    0    0    0    0  0.00000000000E+00  0.00000000000E+00  0.45593999997E+02  0.45594000000E+02  0.51100000000E-03 0.  1.
         11   -1    0    0    0    0 -0.00000000000E+00 -0.00000000000E+00 -0.45593999997E+02  0.45594000000E+02  0.51100000000E-03 0. -1.
    9900012    2    1    2    0    0  0.24187696924E+02 -0.13323361285E+02 -0.15942551842E+02  0.59301927842E+02  0.49999970481E+02 0.  0.
        -12    1    1    2    0    0 -0.24187696924E+02  0.13323361285E+02  0.15942551842E+02  0.31886072158E+02  0.00000000000E+00 0.  1.
         11    1    3    3    0    0  0.17088030688E+02  0.45032112935E+00 -0.27228343402E+01  0.17309460102E+02  0.51100000000E-03 0. -1.
        -11    1    3    3    0    0  0.14491103489E+01 -0.32816275886E+01  0.12842962215E+02  0.13334567078E+02  0.51100000000E-03 0.  1.
        -12    1    3    3    0    0  0.56505558875E+01 -0.10492054826E+02 -0.26062679717E+02  0.28657900662E+02  0.00000000000E+00 0.  1.
</event>
<event>
 7    1  0.7444241E-013  0.5930193E+02  0.7816164E-02  0.1266605E+00
        -11   -1    0    0    0    0  0.00000000000E+00  0.00000000000E+00  0.45593999997E+02  0.45594000000E+02  0.51100000000E-03 0. -1.
         11   -1    0    0    0    0 -0.00000000000E+00 -0.00000000000E+00 -0.45593999997E+02  0.45594000000E+02  0.51100000000E-03 0.  1.
    9900012    2    1    2    0    0 -0.19287564756E+02  0.25286458362E+02 -0.23035165865E+01  0.59301932206E+02  0.49999978440E+02 0.  0.
        -12    1    1    2    0    0  0.19287564756E+02 -0.25286458362E+02  0.23035165865E+01  0.31886067794E+02  0.00000000000E+00 0.  1.
         11    1    3    3    0    0 -0.62795075352E+00  0.75940341013E-01 -0.74732795839E+01  0.74999998056E+01  0.51100000000E-03 0. -1.
        -11    1    3    3    0    0  0.41936835344E+01 -0.76031490427E+01 -0.56710032980E+01  0.10370879211E+02  0.51100000000E-03 0.  1.
         12    1    3    3    0    0 -0.22853297537E+02  0.32813667063E+02  0.10840766295E+02  0.41431053189E+02  0.00000000000E+00 0. -1.
</event>
<event>
 7    1  0.7444241E-013  0.5930190E+02  0.7816164E-02  0.1266605E+00
        -11   -1    0    0    0    0  0.00000000000E+00  0.00000000000E+00  0.45593999997E+02  0.45594000000E+02  0.51100000000E-03 0.  1.
         11   -1    0    0    0    0 -0.00000000000E+00 -0.00000000000E+00 -0.45593999997E+02  0.45594000000E+02  0.51100000000E-03 0. -1.
    9900012    2    1    2    0    0  0.13663160662E+02 -0.20404609874E+02 -0.20339458382E+02  0.59301895963E+02  0.49999912342E+02 0.  0.
        -12    1    1    2    0    0 -0.13663160662E+02  0.20404609874E+02  0.20339458382E+02  0.31886104037E+02  0.00000000000E+00 0.  1.
         11    1    3    3    0    0  0.12486718637E+02  0.53976556549E+01 -0.13550251099E+02  0.19200576398E+02  0.51100000000E-03 0. -1.
        -11    1    3    3    0    0  0.50493667139E+01 -0.23224354218E+02 -0.16771114377E+02  0.29088434313E+02  0.51100000000E-03 0.  1.
        -12    1    3    3    0    0 -0.38729246895E+01 -0.25779113104E+01  0.99819070935E+01  0.11012885253E+02  0.00000000000E+00 0.  1.
</event>
<event>
 7    1  0.7444241E-013  0.5930194E+02  0.7816164E-02  0.1266605E+00
        -11   -1    0    0    0    0  0.00000000000E+00  0.00000000000E+00  0.45593999997E+02  0.45594000000E+02  0.51100000000E-03 0. -1.
         11   -1    0    0    0    0 -0.00000000000E+00 -0.00000000000E+00 -0.45593999997E+02  0.45594000000E+02  0.51100000000E-03 0.  1.
    9900012    2    1    2    0    0 -0.19355784372E+02  0.25080881804E+02 -0.36088368831E+01  0.59301941536E+02  0.49999995456E+02 0.  0.
        -12    1    1    2    0    0  0.19355784372E+02 -0.25080881804E+02  0.36088368831E+01  0.31886058464E+02  0.00000000000E+00 0.  1.
         11    1    3    3    0    0 -0.16209209134E+02  0.12946510586E+02 -0.22823182700E+02  0.30842312915E+02  0.51100000000E-03 0. -1.
        -11    1    3    3    0    0  0.54726321130E+01  0.40112796379E+00  0.94563695927E+01  0.10933139166E+02  0.51100000000E-03 0.  1.
        -12    1    3    3    0    0 -0.86192073509E+01  0.11733243254E+02  0.97579762244E+01  0.17526489455E+02  0.00000000000E+00 0.  1.
</event>
<event>
 7    1  0.7444241E-013  0.5930196E+02  0.7816164E-02  0.1266605E+00
        -11   -1    0    0    0    0  0.00000000000E+00  0.00000000000E+00  0.45593999997E+02  0.45594000000E+02  0.51100000000E-03 0.  1.
         11   -1    0    0    0    0 -0.00000000000E+00 -0.00000000000E+00 -0.45593999997E+02  0.45594000000E+02  0.51100000000E-03 0. -1.
    9900012    2    1    2    0    0  0.13483124402E+01  0.24051971654E+02 -0.20890288111E+02  0.59301961923E+02  0.50000032637E+02 0.  0.
        -12    1    1    2    0    0 -0.13483124402E+01 -0.24051971654E+02  0.20890288111E+02  0.31886038077E+02  0.00000000000E+00 0.  1.
         11    1    3    3    0    0 -0.10048454524E+01  0.21448454925E+00 -0.22320392000E+02  0.22344028672E+02  0.51100000000E-03 0. -1.
        -11    1    3    3    0    0  0.30832909951E+01  0.10024089607E+00 -0.10098433842E+02  0.10559123918E+02  0.51100000000E-03 0.  1.
        -12    1    3    3    0    0 -0.73013310261E+00  0.23737246209E+02  0.11528537732E+02  0.26398809332E+02  0.00000000000E+00 0.  1.
</event>
<event>
 7    1  0.7444241E-013  0.5930192E+02  0.7816164E-02  0.1266605E+00
        -11   -1    0    0    0    0  0.00000000000E+00  0.00000000000E+00  0.45593999997E+02  0.45594000000E+02  0.51100000000E-03 0.  1.
         11   -1    0    0    0    0 -0.00000000000E+00 -0.00000000000E+00 -0.45593999997E+02  0.45594000000E+02  0.51100000000E-03 0. -1.
    9900012    2    1    2    0    0  0.78373866652E+01  0.17738271851E+02 -0.25311086341E+02  0.59301921380E+02  0.49999958696E+02 0.  0.
        -12    1    1    2    0    0 -0.78373866652E+01 -0.17738271851E+02  0.25311086341E+02  0.31886078620E+02  0.00000000000E+00 0.  1.
         11    1    3    3    0    0 -0.12896824299E+02  0.15535212311E+02 -0.10793496993E+01  0.20219690764E+02  0.51100000000E-03 0. -1.
        -11    1    3    3    0    0 -0.24156914588E+01 -0.57043703575E+01 -0.51950440776E+01  0.80847937283E+01  0.51100000000E-03 0.  1.
         12    1    3    3    0    0  0.23149902423E+02  0.79074298971E+01 -0.19036692564E+02  0.30997436887E+02  0.00000000000E+00 0. -1.
</event>
<event>
 7    1  0.7444241E-013  0.5930194E+02  0.7816164E-02  0.1266605E+00
        -11   -1    0    0    0    0  0.00000000000E+00  0.00000000000E+00  0.45593999997E+02  0.45594000000E+02  0.51100000000E-03 0. -1.
         11   -1    0    0    0    0 -0.00000000000E+00 -0.00000000000E+00 -0.45593999997E+02  0.45594000000E+02  0.51100000000E-03 0.  1.
    9900012    2    1    2    0    0  0.10135183302E+02  0.30162662786E+02 -0.20524549452E+01  0.59301941319E+02  0.49999995061E+02 0.  0.
        -12    1    1    2    0    0 -0.10135183302E+02 -0.30162662786E+02  0.20524549452E+01  0.31886058681E+02  0.00000000000E+00 0.  1.
         11    1    3    3    0    0  0.43033577339E+01  0.19918774737E+02  0.15779554225E+02  0.25773451585E+02  0.51100000000E-03 0. -1.
        -11    1    3    3    0    0  0.12323119924E+01 -0.35395493308E+01  0.51311203181E+01  0.63541638547E+01  0.51100000000E-03 0.  1.
        -12    1    3    3    0    0  0.45995135754E+01  0.13783437380E+02 -0.22963129488E+02  0.27174325880E+02  0.00000000000E+00 0.  1.
</event>
<event>
 7    1  0.7444241E-013  0.5930195E+02  0.7816164E-02  0.1266605E+00
        -11   -1    0    0    0    0  0.00000000000E+00  0.00000000000E+00  0.45593999997E+02  0.45594000000E+02  0.51100000000E-03 0.  1.
         11   -1    0    0    0    0 -0.00000000000E+00 -0.00000000000E+00 -0.45593999997E+02  0.45594000000E+02  0.51100000000E-03 0. -1.
    9900012    2    1    2    0    0 -0.18724124744E+01 -0.17347704027E+02 -0.26688417835E+02  0.59301946465E+02  0.50000004446E+02 0.  0.
        -12    1    1    2    0    0  0.18724124744E+01  0.17347704027E+02  0.26688417835E+02  0.31886053535E+02  0.00000000000E+00 0.  1.
         11    1    3    3    0    0 -0.13470322785E+02 -0.11630014438E+01 -0.25691730913E+02  0.29032175356E+02  0.51100000000E-03 0. -1.
        -11    1    3    3    0    0 -0.28121888335E+01 -0.20939278740E+01 -0.81590718179E+01  0.88805063576E+01  0.51100000000E-03 0.  1.
        -12    1    3    3    0    0  0.14410099144E+02 -0.14090774709E+02  0.71623848960E+01  0.21389264752E+02  0.00000000000E+00 0.  1.
</event>
<event>
 7    1  0.7444241E-013  0.5930193E+02  0.7816164E-02  0.1266605E+00
        -11   -1    0    0    0    0  0.00000000000E+00  0.00000000000E+00  0.45593999997E+02  0.45594000000E+02  0.51100000000E-03 0. -1.
         11   -1    0    0    0    0 -0.00000000000E+00 -0.00000000000E+00 -0.45593999997E+02  0.45594000000E+02  0.51100000000E-03 0.  1.
    9900012    2    1    2    0    0  0.21974783464E+00  0.31794290097E+02  0.24074821690E+01  0.59301934983E+02  0.49999983504E+02 0.  0.
        -12    1    1    2    0    0 -0.21974783464E+00 -0.31794290097E+02 -0.24074821690E+01  0.31886065017E+02  0.00000000000E+00 0.  1.
         11    1    3    3    0    0  0.53710819928E+01  0.29627107765E+02  0.12969829853E+02  0.32784608019E+02  0.51100000000E-03 0. -1.
        -11    1    3    3    0    0  0.17835824283E+01  0.10488571717E+02  0.98477527503E+00  0.10684619111E+02  0.51100000000E-03 0.  1.
        -12    1    3    3    0    0 -0.69349165865E+01 -0.83213893841E+01 -0.11547122959E+02  0.15832707853E+02  0.00000000000E+00 0.  1.
</event>
<event>
 7    1  0.7444241E-013  0.5930192E+02  0.7816164E-02  0.1266605E+00
        -11   -1    0    0    0    0  0.00000000000E+00  0.00000000000E+00  0.45593999997E+02  0.45594000000E+02  0.51100000000E-03 0.  1.
         11   -1    0    0    0    0 -0.00000000000E+00 -0.00000000000E+00 -0.45593999997E+02  0.45594000000E+02  0.51100000000E-03 0. -1.
    9900012    2    1    2    0    0  0.10927642006E+02 -0.17873643028E+02 -0.24038335401E+02  0.59301920847E+02  0.49999957724E+02 0.  0.
        -12    1    1    2    0    0 -0.10927642006E+02  0.17873643028E+02  0.24038335401E+02  0.31886079153E+02  0.00000000000E+00 0.  1.
         11    1    3    3    0    0  0.23529269027E+02 -0.15341836405E+02 -0.76880441556E+01  0.29122233232E+02  0.51100000000E-03 0. -1.
        -11    1    3    3    0    0  0.25322513896E+01  0.69053784712E+01 -0.32020618909E+01  0.80218295635E+01  0.51100000000E-03 0.  1.
        -12    1    3    3    0    0 -0.15133878411E+02 -0.94371850934E+01 -0.13148229355E+02  0.22157858051E+02  0.00000000000E+00 0.  1.
</event>
<event>
 7    1  0.7444241E-013  0.5930195E+02  0.7816164E-02  0.1266605E+00
        -11   -1    0    0    0    0  0.00000000000E+00  0.00000000000E+00  0.45593999997E+02  0.45594000000E+02  0.51100000000E-03 0.  1.
         11   -1    0    0    0    0 -0.00000000000E+00 -0.00000000000E+00 -0.45593999997E+02  0.45594000000E+02  0.51100000000E-03 0. -1.
    9900012    2    1    2    0    0 -0.26892746859E+01 -0.97011776422E+00 -0.31757627851E+02  0.59301948920E+02  0.50000008922E+02 0.  0.
        -12    1    1    2    0    0  0.26892746859E+01  0.97011776422E+00  0.31757627851E+02  0.31886051080E+02  0.00000000000E+00 0.  1.
         11    1    3    3    0    0 -0.36289285339E+01 -0.67404628586E+01 -0.30821768040E+02  0.31758217003E+02  0.51100000000E-03 0. -1.
        -11    1    3    3    0    0 -0.45299458044E+01  0.12522330214E+02 -0.86871009062E+01  0.15899524691E+02  0.51100000000E-03 0.  1.
         12    1    3    3    0    0  0.54695996523E+01 -0.67519851193E+01  0.77512410953E+01  0.11644207226E+02  0.00000000000E+00 0. -1.
</event>
<event>
 7    1  0.7444241E-013  0.5930194E+02  0.7816164E-02  0.1266605E+00
        -11   -1    0    0    0    0  0.00000000000E+00  0.00000000000E+00  0.45593999997E+02  0.45594000000E+02  0.51100000000E-03 0. -1.
         11   -1    0    0    0    0 -0.00000000000E+00 -0.00000000000E+00 -0.45593999997E+02  0.45594000000E+02  0.51100000000E-03 0.  1.
    9900012    2    1    2    0    0  0.29945574206E+02  0.10175363505E+02  0.40553222114E+01  0.59301936034E+02  0.49999985422E+02 0.  0.
        -12    1    1    2    0    0 -0.29945574206E+02 -0.10175363505E+02 -0.40553222114E+01  0.31886063966E+02  0.00000000000E+00 0.  1.
         11    1    3    3    0    0 -0.46185808866E+01  0.47676529377E+01  0.79830248578E+01  0.10382219901E+02  0.51100000000E-03 0. -1.
        -11    1    3    3    0    0 -0.20261408195E+01  0.11161723087E+02  0.16453930011E+01  0.11462836790E+02  0.51100000000E-03 0.  1.
         12    1    3    3    0    0  0.36590295912E+02 -0.57540125191E+01 -0.55730956475E+01  0.37456879343E+02  0.00000000000E+00 0. -1.
</event>
<event>
 7    1  0.7444241E-013  0.5930190E+02  0.7816164E-02  0.1266605E+00
        -11   -1    0    0    0    0  0.00000000000E+00  0.00000000000E+00  0.45593999997E+02  0.45594000000E+02  0.51100000000E-03 0.  1.
         11   -1    0    0    0    0 -0.00000000000E+00 -0.00000000000E+00 -0.45593999997E+02  0.45594000000E+02  0.51100000000E-03 0. -1.
    9900012    2    1    2    0    0  0.11424546245E+02 -0.24486580207E+02 -0.16929579593E+02  0.59301897504E+02  0.49999915153E+02 0.  0.
        -12    1    1    2    0    0 -0.11424546245E+02  0.24486580207E+02  0.16929579593E+02  0.31886102496E+02  0.00000000000E+00 0.  1.
         11    1    3    3    0    0 -0.62324089436E+01 -0.46301899515E+01  0.10681771377E+01  0.78372560815E+01  0.51100000000E-03 0.  1.
        -11    1    3    3    0    0  0.93962133457E+01  0.10785889944E+02 -0.13015319318E+02  0.19339668672E+02  0.51100000000E-03 0. -1.
        -12    1    3    3    0    0  0.82607418434E+01 -0.30642280200E+02 -0.49824374127E+01  0.32124972751E+02  0.00000000000E+00 0.  1.
</event>
<event>
 7    1  0.7444241E-013  0.5930195E+02  0.7816164E-02  0.1266605E+00
        -11   -1    0    0    0    0  0.00000000000E+00  0.00000000000E+00  0.45593999997E+02  0.45594000000E+02  0.51100000000E-03 0.  1.
         11   -1    0    0    0    0 -0.00000000000E+00 -0.00000000000E+00 -0.45593999997E+02  0.45594000000E+02  0.51100000000E-03 0. -1.
    9900012    2    1    2    0    0  0.11178504262E+02 -0.10948582198E+02 -0.27782900673E+02  0.59301953216E+02  0.50000016758E+02 0.  0.
        -12    1    1    2    0    0 -0.11178504262E+02  0.10948582198E+02  0.27782900673E+02  0.31886046784E+02  0.00000000000E+00 0.  1.
         11    1    3    3    0    0  0.17393533719E+02 -0.14517567604E+02 -0.15403023101E+02  0.27396129385E+02  0.51100000000E-03 0. -1.
        -11    1    3    3    0    0  0.74225335700E+01  0.11454719183E+02 -0.59903094579E+01  0.14905985503E+02  0.51100000000E-03 0.  1.
        -12    1    3    3    0    0 -0.13637563027E+02 -0.78857337773E+01 -0.63895681142E+01  0.16999838329E+02  0.00000000000E+00 0.  1.
</event>
<event>
 7    1  0.7444241E-013  0.5930196E+02  0.7816164E-02  0.1266605E+00
        -11   -1    0    0    0    0  0.00000000000E+00  0.00000000000E+00  0.45593999997E+02  0.45594000000E+02  0.51100000000E-03 0.  1.
         11   -1    0    0    0    0 -0.00000000000E+00 -0.00000000000E+00 -0.45593999997E+02  0.45594000000E+02  0.51100000000E-03 0. -1.
    9900012    2    1    2    0    0  0.20387644219E+00  0.19998656138E+02 -0.24834079412E+02  0.59301963665E+02  0.50000035814E+02 0.  0.
        -12    1    1    2    0    0 -0.20387644219E+00 -0.19998656138E+02  0.24834079412E+02  0.31886036335E+02  0.00000000000E+00 0.  1.
         11    1    3    3    0    0 -0.15387266491E+01 -0.59259048445E+01 -0.18823208568E+02  0.19793867964E+02  0.51100000000E-03 0. -1.
        -11    1    3    3    0    0 -0.59854730872E+01 -0.44842043528E+01 -0.27301253618E+01  0.79616305809E+01  0.51100000000E-03 0.  1.
        -12    1    3    3    0    0  0.77280761785E+01  0.30408765336E+02 -0.32807454820E+01  0.31546465120E+02  0.00000000000E+00 0.  1.
</event>
<event>
 7    1  0.7444241E-013  0.5930183E+02  0.7816164E-02  0.1266605E+00
        -11   -1    0    0    0    0  0.00000000000E+00  0.00000000000E+00  0.45593999997E+02  0.45594000000E+02  0.51100000000E-03 0.  1.
         11   -1    0    0    0    0 -0.00000000000E+00 -0.00000000000E+00 -0.45593999997E+02  0.45594000000E+02  0.51100000000E-03 0. -1.
    9900012    2    1    2    0    0 -0.90234261382E+01  0.30579318697E+02  0.45947849370E+00  0.59301826323E+02  0.49999785335E+02 0.  0.
        -12    1    1    2    0    0  0.90234261382E+01 -0.30579318697E+02 -0.45947849370E+00  0.31886173677E+02  0.00000000000E+00 0.  1.
         11    1    3    3    0    0 -0.14243888589E+02  0.25155219600E+02 -0.24690292936E+01  0.29013264917E+02  0.51100000000E-03 0. -1.
        -11    1    3    3    0    0  0.10595264867E+01  0.16615956154E+02  0.64257151502E+01  0.17846635839E+02  0.51100000000E-03 0.  1.
         12    1    3    3    0    0  0.41609359643E+01 -0.11191857057E+02 -0.34972073630E+01  0.12441925567E+02  0.00000000000E+00 0. -1.
</event>
<event>
 7    1  0.7444241E-013  0.5930192E+02  0.7816164E-02  0.1266605E+00
        -11   -1    0    0    0    0  0.00000000000E+00  0.00000000000E+00  0.45593999997E+02  0.45594000000E+02  0.51100000000E-03 0. -1.
         11   -1    0    0    0    0 -0.00000000000E+00 -0.00000000000E+00 -0.45593999997E+02  0.45594000000E+02  0.51100000000E-03 0.  1.
    9900012    2    1    2    0    0 -0.19174425247E+02 -0.24659477190E+02 -0.64010457592E+01  0.59301924895E+02  0.49999965106E+02 0.  0.
        -12    1    1    2    0    0  0.19174425247E+02  0.24659477190E+02  0.64010457592E+01  0.31886075105E+02  0.00000000000E+00 0.  1.
         11    1    3    3    0    0  0.99291543091E+01 -0.86879946713E+01  0.10501511626E+01  0.13235262537E+02  0.51100000000E-03 0. -1.
        -11    1    3    3    0    0  0.43629555325E+01 -0.92059722376E+01 -0.61467252162E+01  0.11898215705E+02  0.51100000000E-03 0.  1.
         12    1    3    3    0    0 -0.33466535089E+02 -0.67655102807E+01 -0.13044717056E+01  0.34168446652E+02  0.00000000000E+00 0. -1.
</event>
<event>
 7    1  0.7444241E-013  0.5930193E+02  0.7816164E-02  0.1266605E+00
        -11   -1    0    0    0    0  0.00000000000E+00  0.00000000000E+00  0.45593999997E+02  0.45594000000E+02  0.51100000000E-03 0. -1.
         11   -1    0    0    0    0 -0.00000000000E+00 -0.00000000000E+00 -0.45593999997E+02  0.45594000000E+02  0.51100000000E-03 0.  1.
    9900012    2    1    2    0    0 -0.70726008210E+01  0.30851252813E+02 -0.38600099953E+01  0.59301934710E+02  0.49999983007E+02 0.  0.
        -12    1    1    2    0    0  0.70726008210E+01 -0.30851252813E+02  0.38600099953E+01  0.31886065290E+02  0.00000000000E+00 0.  1.
         11    1    3    3    0    0  0.84674878606E+01 -0.72900179947E+01 -0.25451972589E+01  0.11459526272E+02  0.51100000000E-03 0. -1.
        -11    1    3    3    0    0 -0.10647491794E+01  0.16679085970E+02 -0.11214240059E+02  0.20126718063E+02  0.51100000000E-03 0.  1.
        -12    1    3    3    0    0 -0.14475339502E+02  0.21462184837E+02  0.98994273223E+01  0.27715690376E+02  0.00000000000E+00 0.  1.
</event>
<event>
 7    1  0.7444241E-013  0.5930188E+02  0.7816164E-02  0.1266605E+00
        -11   -1    0    0    0    0  0.00000000000E+00  0.00000000000E+00  0.45593999997E+02  0.45594000000E+02  0.51100000000E-03 0.  1.
         11   -1    0    0    0    0 -0.00000000000E+00 -0.00000000000E+00 -0.45593999997E+02  0.45594000000E+02  0.51100000000E-03 0. -1.
    9900012    2    1    2    0    0 -0.99113154840E+01  0.45643585338E+01 -0.29960931312E+02  0.59301875297E+02  0.49999874652E+02 0.  0.
        -12    1    1    2    0    0  0.99113154840E+01 -0.45643585338E+01  0.29960931312E+02  0.31886124703E+02  0.00000000000E+00 0.  1.
         11    1    3    3    0    0 -0.27491863959E+01  0.12611169231E+01 -0.30304645135E+01  0.42816068435E+01  0.51100000000E-03 0. -1.
        -11    1    3    3    0    0  0.14305417549E+01  0.24420515750E+02 -0.18663944507E+02  0.30769316924E+02  0.51100000000E-03 0.  1.
         12    1    3    3    0    0 -0.85926708430E+01 -0.21117274139E+02 -0.82665222924E+01  0.24250951529E+02  0.00000000000E+00 0. -1.
</event>
<event>
 7    1  0.7444241E-013  0.5930194E+02  0.7816164E-02  0.1266605E+00
        -11   -1    0    0    0    0  0.00000000000E+00  0.00000000000E+00  0.45593999997E+02  0.45594000000E+02  0.51100000000E-03 0.  1.
         11   -1    0    0    0    0 -0.00000000000E+00 -0.00000000000E+00 -0.45593999997E+02  0.45594000000E+02  0.51100000000E-03 0. -1.
    9900012    2    1    2    0    0  0.27440132661E+02 -0.13778282440E+02  0.85976114977E+01  0.59301939238E+02  0.49999991265E+02 0.  0.
        -12    1    1    2    0    0 -0.27440132661E+02  0.13778282440E+02 -0.85976114977E+01  0.31886060762E+02  0.00000000000E+00 0.  1.
         11    1    3    3    0    0  0.53449074080E+01  0.38043972337E+01  0.50082809331E+01  0.82537477353E+01  0.51100000000E-03 0. -1.
        -11    1    3    3    0    0  0.77709096937E+01  0.66327983415E+01  0.17036270797E+02  0.19864933281E+02  0.51100000000E-03 0.  1.
         12    1    3    3    0    0  0.14324315559E+02 -0.24215478015E+02 -0.13446940233E+02  0.31183258222E+02  0.00000000000E+00 0. -1.
</event>
<event>
 7    1  0.7444241E-013  0.5930193E+02  0.7816164E-02  0.1266605E+00
        -11   -1    0    0    0    0  0.00000000000E+00  0.00000000000E+00  0.45593999997E+02  0.45594000000E+02  0.51100000000E-03 0.  1.
         11   -1    0    0    0    0 -0.00000000000E+00 -0.00000000000E+00 -0.45593999997E+02  0.45594000000E+02  0.51100000000E-03 0. -1.
    9900012    2    1    2    0    0 -0.27634665370E+02  0.65533428318E+01 -0.14494846643E+02  0.59301927624E+02  0.49999970084E+02 0.  0.
        -12    1    1    2    0    0  0.27634665370E+02 -0.65533428318E+01  0.14494846643E+02  0.31886072376E+02  0.00000000000E+00 0.  1.
         11    1    3    3    0    0 -0.16182523431E+00  0.65351501561E+00  0.49247223076E+01  0.49705290815E+01  0.51100000000E-03 0. -1.
        -11    1    3    3    0    0  0.58648028481E+01 -0.94025761271E+01 -0.13016496481E+02  0.17094839314E+02  0.51100000000E-03 0.  1.
         12    1    3    3    0    0 -0.33337642984E+02  0.15302403943E+02 -0.64030724694E+01  0.37236559229E+02  0.00000000000E+00 0. -1.
</event>
<event>
 7    1  0.7444241E-013  0.5930194E+02  0.7816164E-02  0.1266605E+00
        -11   -1    0    0    0    0  0.00000000000E+00  0.00000000000E+00  0.45593999997E+02  0.45594000000E+02  0.51100000000E-03 0. -1.
         11   -1    0    0    0    0 -0.00000000000E+00 -0.00000000000E+00 -0.45593999997E+02  0.45594000000E+02  0.51100000000E-03 0.  1.
    9900012    2    1    2    0    0  0.29849894524E+02 -0.10606547989E+02  0.36340156247E+01  0.59301935130E+02  0.49999983772E+02 0.  0.
        -12    1    1    2    0    0 -0.29849894524E+02  0.10606547989E+02 -0.36340156247E+01  0.31886064870E+02  0.00000000000E+00 0.  1.
         11    1    3    3    0    0  0.52609715055E+01  0.74653748953E+01 -0.35398255790E+01  0.97948970847E+01  0.51100000000E-03 0. -1.
        -11    1    3    3    0    0  0.50559672335E+01 -0.60678099013E+01 -0.15415738321E+02  0.17321261787E+02  0.51100000000E-03 0.  1.
        -12    1    3    3    0    0  0.19532955785E+02 -0.12004112983E+02  0.22589579524E+02  0.32185776258E+02  0.00000000000E+00 0.  1.
</event>
<event>
 7    1  0.7444241E-013  0.5930192E+02  0.7816164E-02  0.1266605E+00
        -11   -1    0    0    0    0  0.00000000000E+00  0.00000000000E+00  0.45593999997E+02  0.45594000000E+02  0.51100000000E-03 0.  1.
         11   -1    0    0    0    0 -0.00000000000E+00 -0.00000000000E+00 -0.45593999997E+02  0.45594000000E+02  0.51100000000E-03 0. -1.
    9900012    2    1    2    0    0  0.60497798677E+01  0.25956995757E+02  0.17503044356E+02  0.59301921111E+02  0.49999958206E+02 0.  0.
        -12    1    1    2    0    0 -0.60497798677E+01 -0.25956995757E+02 -0.17503044356E+02  0.31886078889E+02  0.00000000000E+00 0.  1.
         11    1    3    3    0    0 -0.23776428223E+01  0.14412102862E+02  0.29704178288E+01  0.14905880606E+02  0.51100000000E-03 0. -1.
        -11    1    3    3    0    0  0.82359819379E+01  0.24286622512E+02  0.79404977216E+00  0.25657395558E+02  0.51100000000E-03 0.  1.
        -12    1    3    3    0    0  0.19144075215E+00 -0.12741729617E+02  0.13738576755E+02  0.18738644947E+02  0.00000000000E+00 0.  1.
</event>
<event>
 7    1  0.7444241E-013  0.5930194E+02  0.7816164E-02  0.1266605E+00
        -11   -1    0    0    0    0  0.00000000000E+00  0.00000000000E+00  0.45593999997E+02  0.45594000000E+02  0.51100000000E-03 0.  1.
         11   -1    0    0    0    0 -0.00000000000E+00 -0.00000000000E+00 -0.45593999997E+02  0.45594000000E+02  0.51100000000E-03 0. -1.
    9900012    2    1    2    0    0 -0.34920733306E+01 -0.27032180957E+01 -0.31578776108E+02  0.59301936200E+02  0.49999985723E+02 0.  0.
        -12    1    1    2    0    0  0.34920733306E+01  0.27032180957E+01  0.31578776108E+02  0.31886063800E+02  0.00000000000E+00 0.  1.
         11    1    3    3    0    0 -0.56870796999E+01  0.27447596649E+01  0.53023433754E+00  0.63370126909E+01  0.51100000000E-03 0.  1.
        -11    1    3    3    0    0  0.17723301369E+02 -0.14567066849E+02 -0.11719414852E+02  0.25761590260E+02  0.51100000000E-03 0. -1.
         12    1    3    3    0    0 -0.15528294999E+02  0.91190890881E+01 -0.20389595593E+02  0.27203333249E+02  0.00000000000E+00 0. -1.
</event>
<event>
 7    1  0.7444241E-013  0.5930195E+02  0.7816164E-02  0.1266605E+00
        -11   -1    0    0    0    0  0.00000000000E+00  0.00000000000E+00  0.45593999997E+02  0.45594000000E+02  0.51100000000E-03 0.  1.
         11   -1    0    0    0    0 -0.00000000000E+00 -0.00000000000E+00 -0.45593999997E+02  0.45594000000E+02  0.51100000000E-03 0. -1.
    9900012    2    1    2    0    0  0.24041627218E+02  0.81831758426E+01 -0.19280978833E+02  0.59301947392E+02  0.50000006136E+02 0.  0.
        -12    1    1    2    0    0 -0.24041627218E+02 -0.81831758426E+01  0.19280978833E+02  0.31886052608E+02  0.00000000000E+00 0.  1.
         11    1    3    3    0    0  0.76889298065E+01  0.19421745545E+01 -0.14153694600E+02  0.16224017833E+02  0.51100000000E-03 0. -1.
        -11    1    3    3    0    0 -0.85340675905E+01  0.69302789337E+00 -0.13719006240E+02  0.16171633491E+02  0.51100000000E-03 0.  1.
         12    1    3    3    0    0  0.24886765002E+02  0.55479733947E+01  0.85917220072E+01  0.26906296068E+02  0.00000000000E+00 0. -1.
</event>
<event>
 7    1  0.7444241E-013  0.5930195E+02  0.7816164E-02  0.1266605E+00
        -11   -1    0    0    0    0  0.00000000000E+00  0.00000000000E+00  0.45593999997E+02  0.45594000000E+02  0.51100000000E-03 0. -1.
         11   -1    0    0    0    0 -0.00000000000E+00 -0.00000000000E+00 -0.45593999997E+02  0.45594000000E+02  0.51100000000E-03 0.  1.
    9900012    2    1    2    0    0 -0.14825729026E+02 -0.27915657467E+02  0.41993210541E+01  0.59301945520E+02  0.50000002722E+02 0.  0.
        -12    1    1    2    0    0  0.14825729026E+02  0.27915657467E+02 -0.41993210541E+01  0.31886054480E+02  0.00000000000E+00 0.  1.
         11    1    3    3    0    0  0.96029535813E+00 -0.13246093121E+02 -0.91484403616E+01  0.16126844436E+02  0.51100000000E-03 0. -1.
        -11    1    3    3    0    0 -0.18523197934E+02 -0.21725627952E+02  0.84814421820E+00  0.28562757578E+02  0.51100000000E-03 0.  1.
         12    1    3    3    0    0  0.27371735494E+01  0.70560636066E+01  0.12499617197E+02  0.14612343506E+02  0.00000000000E+00 0. -1.
</event>
<event>
 7    1  0.7444241E-013  0.5930194E+02  0.7816164E-02  0.1266605E+00
        -11   -1    0    0    0    0  0.00000000000E+00  0.00000000000E+00  0.45593999997E+02  0.45594000000E+02  0.51100000000E-03 0. -1.
         11   -1    0    0    0    0 -0.00000000000E+00 -0.00000000000E+00 -0.45593999997E+02  0.45594000000E+02  0.51100000000E-03 0.  1.
    9900012    2    1    2    0    0 -0.46779331481E+01 -0.22242045385E+02  0.22363565574E+02  0.59301941814E+02  0.49999995963E+02 0.  0.
        -12    1    1    2    0    0  0.46779331481E+01  0.22242045385E+02 -0.22363565574E+02  0.31886058186E+02  0.00000000000E+00 0.  1.
         11    1    3    3    0    0 -0.10887790243E+02 -0.22648050555E+01 -0.64366076902E+01  0.12849250450E+02  0.51100000000E-03 0. -1.
        -11    1    3    3    0    0 -0.78471162511E+00  0.77737089664E+01  0.56329559517E+01  0.96320567089E+01  0.51100000000E-03 0.  1.
         12    1    3    3    0    0  0.69945687198E+01 -0.27750949296E+02  0.23167217312E+02  0.36820634655E+02  0.00000000000E+00 0. -1.
</event>
<event>
 7    1  0.7444241E-013  0.5930189E+02  0.7816164E-02  0.1266605E+00
        -11   -1    0    0    0    0  0.00000000000E+00  0.00000000000E+00  0.45593999997E+02  0.45594000000E+02  0.51100000000E-03 0.  1.
         11   -1    0    0    0    0 -0.00000000000E+00 -0.00000000000E+00 -0.45593999997E+02  0.45594000000E+02  0.51100000000E-03 0. -1.
    9900012    2    1    2    0    0  0.37369783647E+01  0.18405322311E+02 -0.25768263022E+02  0.59301885846E+02  0.49999893891E+02 0.  0.
        -12    1    1    2    0    0 -0.37369783647E+01 -0.18405322311E+02  0.25768263022E+02  0.31886114154E+02  0.00000000000E+00 0.  1.
         11    1    3    3    0    0  0.53276951978E+01  0.11583485292E+02 -0.12741758494E+02  0.18025367608E+02  0.51100000000E-03 0. -1.
        -11    1    3    3    0    0 -0.55899896506E+01 -0.11310452657E+02 -0.18067288693E+02  0.22036361873E+02  0.51100000000E-03 0.  1.
         12    1    3    3    0    0  0.39992728175E+01  0.18132289676E+02  0.50407841656E+01  0.19240156366E+02  0.00000000000E+00 0. -1.
</event>
<event>
 7    1  0.7444241E-013  0.5930194E+02  0.7816164E-02  0.1266605E+00
        -11   -1    0    0    0    0  0.00000000000E+00  0.00000000000E+00  0.45593999997E+02  0.45594000000E+02  0.51100000000E-03 0.  1.
         11   -1    0    0    0    0 -0.00000000000E+00 -0.00000000000E+00 -0.45593999997E+02  0.45594000000E+02  0.51100000000E-03 0. -1.
    9900012    2    1    2    0    0 -0.28073682561E+02  0.14135949474E+02 -0.53631969112E+01  0.59301943468E+02  0.49999998978E+02 0.  0.
        -12    1    1    2    0    0  0.28073682561E+02 -0.14135949474E+02  0.53631969112E+01  0.31886056532E+02  0.00000000000E+00 0.  1.
         11    1    3    3    0    0 -0.29166517565E+02  0.10208842822E+02 -0.15645675388E+02  0.34636590150E+02  0.51100000000E-03 0. -1.
        -11    1    3    3    0    0 -0.29811755736E+01 -0.70245178923E+01 -0.18174826981E+01  0.78443930957E+01  0.51100000000E-03 0.  1.
        -12    1    3    3    0    0  0.40740105775E+01  0.10951624544E+02  0.12099961175E+02  0.16820960222E+02  0.00000000000E+00 0.  1.
</event>
<event>
 7    1  0.7444241E-013  0.5930205E+02  0.7816164E-02  0.1266604E+00
        -11   -1    0    0    0    0  0.00000000000E+00  0.00000000000E+00  0.45593999997E+02  0.45594000000E+02  0.51100000000E-03 0. -1.
         11   -1    0    0    0    0 -0.00000000000E+00 -0.00000000000E+00 -0.45593999997E+02  0.45594000000E+02  0.51100000000E-03 0.  1.
    9900012    2    1    2    0    0  0.46091993053E+01  0.31416081417E+02 -0.29152875206E+01  0.59302050255E+02  0.50000193733E+02 0.  0.
        -12    1    1    2    0    0 -0.46091993053E+01 -0.31416081417E+02  0.29152875206E+01  0.31885949745E+02  0.00000000000E+00 0.  1.
         11    1    3    3    0    0 -0.23534719924E+01 -0.69549070207E+00  0.33605014929E+01  0.41611907288E+01  0.51100000000E-03 0.  1.
        -11    1    3    3    0    0  0.25562616308E+02  0.17446117960E+02 -0.55590140513E+01  0.31443870975E+02  0.51100000000E-03 0. -1.
         12    1    3    3    0    0 -0.18599945010E+02  0.14665454159E+02 -0.71677496227E+00  0.23696988552E+02  0.00000000000E+00 0. -1.
</event>
<event>
 7    1  0.7444241E-013  0.5930196E+02  0.7816164E-02  0.1266605E+00
        -11   -1    0    0    0    0  0.00000000000E+00  0.00000000000E+00  0.45593999997E+02  0.45594000000E+02  0.51100000000E-03 0.  1.
         11   -1    0    0    0    0 -0.00000000000E+00 -0.00000000000E+00 -0.45593999997E+02  0.45594000000E+02  0.51100000000E-03 0. -1.
    9900012    2    1    2    0    0 -0.24794321389E+02 -0.19975629316E+02 -0.17133806730E+01  0.59301955826E+02  0.50000021518E+02 0.  0.
        -12    1    1    2    0    0  0.24794321389E+02  0.19975629316E+02  0.17133806730E+01  0.31886044174E+02  0.00000000000E+00 0.  1.
         11    1    3    3    0    0  0.39940425988E+01 -0.11791613511E+02  0.12934109751E+01  0.12516686370E+02  0.51100000000E-03 0. -1.
        -11    1    3    3    0    0  0.70943558283E+01  0.40735540688E+01  0.22982643047E+01  0.84973964510E+01  0.51100000000E-03 0.  1.
        -12    1    3    3    0    0 -0.35882719816E+02 -0.12257569874E+02 -0.53050559528E+01  0.38287873006E+02  0.00000000000E+00 0.  1.
</event>
<event>
 7    1  0.7444241E-013  0.5930192E+02  0.7816164E-02  0.1266605E+00
        -11   -1    0    0    0    0  0.00000000000E+00  0.00000000000E+00  0.45593999997E+02  0.45594000000E+02  0.51100000000E-03 0.  1.
         11   -1    0    0    0    0 -0.00000000000E+00 -0.00000000000E+00 -0.45593999997E+02  0.45594000000E+02  0.51100000000E-03 0. -1.
    9900012    2    1    2    0    0  0.97240360037E+01  0.21761717649E+00 -0.30366390738E+02  0.59301922789E+02  0.49999961265E+02 0.  0.
        -12    1    1    2    0    0 -0.97240360037E+01 -0.21761717649E+00  0.30366390738E+02  0.31886077211E+02  0.00000000000E+00 0.  1.
         11    1    3    3    0    0 -0.40265107111E+00 -0.93678010157E+01 -0.21185122760E+02  0.23167374698E+02  0.51100000000E-03 0. -1.
        -11    1    3    3    0    0  0.76380913120E+01 -0.11331889790E+02 -0.16550883271E+01  0.13765590533E+02  0.51100000000E-03 0.  1.
        -12    1    3    3    0    0  0.24885957629E+01  0.20917307982E+02 -0.75261796508E+01  0.22368957558E+02  0.00000000000E+00 0.  1.
</event>
<event>
 7    1  0.7444241E-013  0.5930197E+02  0.7816164E-02  0.1266605E+00
        -11   -1    0    0    0    0  0.00000000000E+00  0.00000000000E+00  0.45593999997E+02  0.45594000000E+02  0.51100000000E-03 0.  1.
         11   -1    0    0    0    0 -0.00000000000E+00 -0.00000000000E+00 -0.45593999997E+02  0.45594000000E+02  0.51100000000E-03 0. -1.
    9900012    2    1    2    0    0 -0.18229940031E+02  0.21822789196E+02 -0.14427549678E+02  0.59301968081E+02  0.50000043868E+02 0.  0.
        -12    1    1    2    0    0  0.18229940031E+02 -0.21822789196E+02  0.14427549678E+02  0.31886031919E+02  0.00000000000E+00 0.  1.
         11    1    3    3    0    0  0.57870962103E-01 -0.50626001135E+01 -0.40782507688E+01  0.65011843961E+01  0.51100000000E-03 0. -1.
        -11    1    3    3    0    0 -0.20654693188E+01 -0.72813047475E+01 -0.12831241239E+02  0.14897124365E+02  0.51100000000E-03 0.  1.
         12    1    3    3    0    0 -0.16222341674E+02  0.34166694057E+02  0.24819423305E+01  0.37903659321E+02  0.00000000000E+00 0. -1.
</event>
<event>
 7    1  0.7444241E-013  0.5930193E+02  0.7816164E-02  0.1266605E+00
        -11   -1    0    0    0    0  0.00000000000E+00  0.00000000000E+00  0.45593999997E+02  0.45594000000E+02  0.51100000000E-03 0.  1.
         11   -1    0    0    0    0 -0.00000000000E+00 -0.00000000000E+00 -0.45593999997E+02  0.45594000000E+02  0.51100000000E-03 0. -1.
    9900012    2    1    2    0    0 -0.18968830666E+02 -0.12638387158E+02 -0.22297451677E+02  0.59301925954E+02  0.49999967038E+02 0.  0.
        -12    1    1    2    0    0  0.18968830666E+02  0.12638387158E+02  0.22297451677E+02  0.31886074046E+02  0.00000000000E+00 0.  1.
         11    1    3    3    0    0  0.79078692941E+00 -0.18148520609E+02 -0.23052450318E+02  0.29349780411E+02  0.51100000000E-03 0. -1.
        -11    1    3    3    0    0 -0.13375483455E+02 -0.51255309508E+01 -0.63372452560E+01  0.15663183038E+02  0.51100000000E-03 0.  1.
        -12    1    3    3    0    0 -0.63841341399E+01  0.10635664401E+02  0.70922438973E+01  0.14288962505E+02  0.00000000000E+00 0.  1.
</event>
<event>
 7    1  0.7444241E-013  0.5930190E+02  0.7816164E-02  0.1266605E+00
        -11   -1    0    0    0    0  0.00000000000E+00  0.00000000000E+00  0.45593999997E+02  0.45594000000E+02  0.51100000000E-03 0.  1.
         11   -1    0    0    0    0 -0.00000000000E+00 -0.00000000000E+00 -0.45593999997E+02  0.45594000000E+02  0.51100000000E-03 0. -1.
    9900012    2    1    2    0    0  0.20042895100E+02  0.65306720321E+01 -0.23923965916E+02  0.59301898540E+02  0.49999917041E+02 0.  0.
        -12    1    1    2    0    0 -0.20042895100E+02 -0.65306720321E+01  0.23923965916E+02  0.31886101460E+02  0.00000000000E+00 0.  1.
         11    1    3    3    0    0  0.75267498300E+01  0.11940538183E+02  0.21378042583E+01  0.14275805491E+02  0.51100000000E-03 0. -1.
        -11    1    3    3    0    0  0.23849331825E+01  0.14011392117E+02 -0.14305830982E+02  0.20165907261E+02  0.51100000000E-03 0.  1.
         12    1    3    3    0    0  0.10131212087E+02 -0.19421258268E+02 -0.11755939193E+02  0.24860185787E+02  0.00000000000E+00 0. -1.
</event>
<event>
 7    1  0.7444241E-013  0.5930195E+02  0.7816164E-02  0.1266605E+00
        -11   -1    0    0    0    0  0.00000000000E+00  0.00000000000E+00  0.45593999997E+02  0.45594000000E+02  0.51100000000E-03 0. -1.
         11   -1    0    0    0    0 -0.00000000000E+00 -0.00000000000E+00 -0.45593999997E+02  0.45594000000E+02  0.51100000000E-03 0.  1.
    9900012    2    1    2    0    0 -0.54312722266E+01  0.19794306973E+01  0.31357672230E+02  0.59301945500E+02  0.50000002685E+02 0.  0.
        -12    1    1    2    0    0  0.54312722266E+01 -0.19794306973E+01 -0.31357672230E+02  0.31886054500E+02  0.00000000000E+00 0.  1.
         11    1    3    3    0    0 -0.12503273398E+02 -0.97976011188E+01  0.69680761407E+01  0.17345861717E+02  0.51100000000E-03 0. -1.
        -11    1    3    3    0    0  0.81801907070E+01  0.57396346738E+01  0.31215585823E+02  0.32776084646E+02  0.51100000000E-03 0.  1.
        -12    1    3    3    0    0 -0.11081895358E+01  0.60373971424E+01 -0.68259897336E+01  0.91799991364E+01  0.00000000000E+00 0.  1.
</event>
<event>
 7    1  0.7444241E-013  0.5930195E+02  0.7816164E-02  0.1266605E+00
        -11   -1    0    0    0    0  0.00000000000E+00  0.00000000000E+00  0.45593999997E+02  0.45594000000E+02  0.51100000000E-03 0. -1.
         11   -1    0    0    0    0 -0.00000000000E+00 -0.00000000000E+00 -0.45593999997E+02  0.45594000000E+02  0.51100000000E-03 0.  1.
    9900012    2    1    2    0    0  0.17017589180E+02  0.26485335931E+02  0.50644926806E+01  0.59301945886E+02  0.50000003389E+02 0.  0.
        -12    1    1    2    0    0 -0.17017589180E+02 -0.26485335931E+02 -0.50644926806E+01  0.31886054114E+02  0.00000000000E+00 0.  1.
         11    1    3    3    0    0  0.63487385291E+01 -0.43658821458E+01  0.13681305505E+01  0.78255472196E+01  0.51100000000E-03 0. -1.
        -11    1    3    3    0    0 -0.14339716268E+02  0.17773553161E+02 -0.10379736073E+01  0.22860534641E+02  0.51100000000E-03 0.  1.
        -12    1    3    3    0    0  0.25008566920E+02  0.13077664915E+02  0.47343357373E+01  0.28615864025E+02  0.00000000000E+00 0.  1.
</event>
<event>
 7    1  0.7444241E-013  0.5930194E+02  0.7816164E-02  0.1266605E+00
        -11   -1    0    0    0    0  0.00000000000E+00  0.00000000000E+00  0.45593999997E+02  0.45594000000E+02  0.51100000000E-03 0. -1.
         11   -1    0    0    0    0 -0.00000000000E+00 -0.00000000000E+00 -0.45593999997E+02  0.45594000000E+02  0.51100000000E-03 0.  1.
    9900012    2    1    2    0    0  0.58819977962E+01 -0.96969785572E+01  0.29800865807E+02  0.59301938875E+02  0.49999990602E+02 0.  0.
        -12    1    1    2    0    0 -0.58819977962E+01  0.96969785572E+01 -0.29800865807E+02  0.31886061125E+02  0.00000000000E+00 0.  1.
         11    1    3    3    0    0 -0.20613679547E+01  0.10685188942E+01  0.22795599055E+02  0.22913539818E+02  0.51100000000E-03 0.  1.
        -11    1    3    3    0    0  0.13577478647E+02  0.47015782137E+01  0.12489218242E+02  0.19037682020E+02  0.51100000000E-03 0. -1.
        -12    1    3    3    0    0 -0.56341128963E+01 -0.15467075665E+02 -0.54839514896E+01  0.17350717037E+02  0.00000000000E+00 0.  1.
</event>
<event>
 7    1  0.7444241E-013  0.5930165E+02  0.7816164E-02  0.1266606E+00
        -11   -1    0    0    0    0  0.00000000000E+00  0.00000000000E+00  0.45593999997E+02  0.45594000000E+02  0.51100000000E-03 0.  1.
         11   -1    0    0    0    0 -0.00000000000E+00 -0.00000000000E+00 -0.45593999997E+02  0.45594000000E+02  0.51100000000E-03 0. -1.
    9900012    2    1    2    0    0  0.20115565305E+02  0.17494829964E+02 -0.17493834397E+02  0.59301650492E+02  0.49999464659E+02 0.  0.
        -12    1    1    2    0    0 -0.20115565305E+02 -0.17494829964E+02  0.17493834397E+02  0.31886349508E+02  0.00000000000E+00 0.  1.
         11    1    3    3    0    0  0.95994805861E+01 -0.85350688942E+01  0.35338848109E+01  0.13322378567E+02  0.51100000000E-03 0. -1.
        -11    1    3    3    0    0 -0.82557357848E+01  0.16276932079E+02 -0.36723744531E+01  0.18616713610E+02  0.51100000000E-03 0.  1.
        -12    1    3    3    0    0  0.18771820503E+02  0.97529667799E+01 -0.17355344755E+02  0.27362558316E+02  0.00000000000E+00 0.  1.
</event>
<event>
 7    1  0.7444241E-013  0.5930193E+02  0.7816164E-02  0.1266605E+00
        -11   -1    0    0    0    0  0.00000000000E+00  0.00000000000E+00  0.45593999997E+02  0.45594000000E+02  0.51100000000E-03 0. -1.
         11   -1    0    0    0    0 -0.00000000000E+00 -0.00000000000E+00 -0.45593999997E+02  0.45594000000E+02  0.51100000000E-03 0.  1.
    9900012    2    1    2    0    0  0.15511802839E+02 -0.12613897919E+02  0.24839385798E+02  0.59301928827E+02  0.49999972278E+02 0.  0.
        -12    1    1    2    0    0 -0.15511802839E+02  0.12613897919E+02 -0.24839385798E+02  0.31886071173E+02  0.00000000000E+00 0.  1.
         11    1    3    3    0    0  0.15484077282E+01 -0.69128810592E+01  0.13055196311E+01  0.72034625563E+01  0.51100000000E-03 0. -1.
        -11    1    3    3    0    0  0.15796905985E+02  0.32146994408E+00  0.35344173230E+02  0.38715063776E+02  0.51100000000E-03 0.  1.
         12    1    3    3    0    0 -0.18335108738E+01 -0.60224868036E+01 -0.11810307063E+02  0.13383402495E+02  0.00000000000E+00 0. -1.
</event>
<event>
 7    1  0.7444241E-013  0.5930195E+02  0.7816164E-02  0.1266605E+00
        -11   -1    0    0    0    0  0.00000000000E+00  0.00000000000E+00  0.45593999997E+02  0.45594000000E+02  0.51100000000E-03 0. -1.
         11   -1    0    0    0    0 -0.00000000000E+00 -0.00000000000E+00 -0.45593999997E+02  0.45594000000E+02  0.51100000000E-03 0.  1.
    9900012    2    1    2    0    0 -0.25647325103E+02  0.24389090468E+01  0.18787942693E+02  0.59301947361E+02  0.50000006079E+02 0.  0.
        -12    1    1    2    0    0  0.25647325103E+02 -0.24389090468E+01 -0.18787942693E+02  0.31886052639E+02  0.00000000000E+00 0.  1.
         11    1    3    3    0    0 -0.31205069229E+02  0.57510940553E+01  0.14515492535E+02  0.34893136176E+02  0.51100000000E-03 0. -1.
        -11    1    3    3    0    0 -0.66875703371E+01 -0.76997041973E+01  0.50453553741E+01  0.11378253506E+02  0.51100000000E-03 0.  1.
        -12    1    3    3    0    0  0.12245314463E+02  0.43875191888E+01 -0.77290521683E+00  0.13030557678E+02  0.00000000000E+00 0.  1.
</event>
<event>
 7    1  0.7444241E-013  0.5930194E+02  0.7816164E-02  0.1266605E+00
        -11   -1    0    0    0    0  0.00000000000E+00  0.00000000000E+00  0.45593999997E+02  0.45594000000E+02  0.51100000000E-03 0.  1.
         11   -1    0    0    0    0 -0.00000000000E+00 -0.00000000000E+00 -0.45593999997E+02  0.45594000000E+02  0.51100000000E-03 0. -1.
    9900012    2    1    2    0    0 -0.24137366351E+02 -0.54735607546E+01 -0.20103447322E+02  0.59301938532E+02  0.49999989977E+02 0.  0.
        -12    1    1    2    0    0  0.24137366351E+02  0.54735607546E+01  0.20103447322E+02  0.31886061468E+02  0.00000000000E+00 0.  1.
         11    1    3    3    0    0 -0.20950380747E+02 -0.84269557142E+01  0.76396245693E+01  0.23838957609E+02  0.51100000000E-03 0. -1.
        -11    1    3    3    0    0 -0.60614087172E+01  0.10467847064E+02 -0.90339471969E+01  0.15097307708E+02  0.51100000000E-03 0.  1.
         12    1    3    3    0    0  0.28744231133E+01 -0.75144521048E+01 -0.18709124695E+02  0.20365673215E+02  0.00000000000E+00 0. -1.
</event>
<event>
 7    1  0.7591049E-013  0.5930175E+02  0.7816164E-02  0.1266605E+00
        -11   -1    0    0    0    0  0.00000000000E+00  0.00000000000E+00  0.45593999997E+02  0.45594000000E+02  0.51100000000E-03 0. -1.
         11   -1    0    0    0    0 -0.00000000000E+00 -0.00000000000E+00 -0.45593999997E+02  0.45594000000E+02  0.51100000000E-03 0.  1.
    9900012    2    1    2    0    0 -0.75780737334E+01  0.20699287597E+02  0.23040081708E+02  0.59301747890E+02  0.49999642290E+02 0.  0.
        -12    1    1    2    0    0  0.75780737334E+01 -0.20699287597E+02 -0.23040081708E+02  0.31886252110E+02  0.00000000000E+00 0.  1.
         11    1    3    3    0    0 -0.11356379066E+02  0.15662057700E+02  0.18597011465E+02  0.26834981509E+02  0.51100000000E-03 0. -1.
        -11    1    3    3    0    0  0.16425224599E+01  0.16648357378E+02 -0.48767690489E+01  0.17425514628E+02  0.51100000000E-03 0.  1.
        -12    1    3    3    0    0  0.21357828728E+01 -0.11611127482E+02  0.93198392922E+01  0.15041251753E+02  0.00000000000E+00 0.  1.
</event>
<event>
 7    1  0.7444241E-013  0.5930192E+02  0.7816164E-02  0.1266605E+00
        -11   -1    0    0    0    0  0.00000000000E+00  0.00000000000E+00  0.45593999997E+02  0.45594000000E+02  0.51100000000E-03 0. -1.
         11   -1    0    0    0    0 -0.00000000000E+00 -0.00000000000E+00 -0.45593999997E+02  0.45594000000E+02  0.51100000000E-03 0.  1.
    9900012    2    1    2    0    0  0.17245727507E+02  0.14362404936E+02  0.22650125059E+02  0.59301922192E+02  0.49999960177E+02 0.  0.
        -12    1    1    2    0    0 -0.17245727507E+02 -0.14362404936E+02 -0.22650125059E+02  0.31886077808E+02  0.00000000000E+00 0.  1.
         11    1    3    3    0    0  0.96920424387E+01  0.13569531991E+02 -0.95230356657E+01  0.19203023034E+02  0.51100000000E-03 0. -1.
        -11    1    3    3    0    0  0.43426480122E+01  0.74950394339E+01  0.18228337600E+01  0.88519450434E+01  0.51100000000E-03 0.  1.
        -12    1    3    3    0    0  0.32110370559E+01 -0.67021664886E+01  0.30350326965E+02  0.31246954115E+02  0.00000000000E+00 0.  1.
</event>
<event>
 7    1  0.7444241E-013  0.5930195E+02  0.7816164E-02  0.1266605E+00
        -11   -1    0    0    0    0  0.00000000000E+00  0.00000000000E+00  0.45593999997E+02  0.45594000000E+02  0.51100000000E-03 0.  1.
         11   -1    0    0    0    0 -0.00000000000E+00 -0.00000000000E+00 -0.45593999997E+02  0.45594000000E+02  0.51100000000E-03 0. -1.
    9900012    2    1    2    0    0 -0.13577812233E+02 -0.17654057542E+02 -0.22818800877E+02  0.59301946525E+02  0.50000004555E+02 0.  0.
        -12    1    1    2    0    0  0.13577812233E+02  0.17654057542E+02  0.22818800877E+02  0.31886053475E+02  0.00000000000E+00 0.  1.
         11    1    3    3    0    0  0.77801464134E+01  0.72764733888E+01 -0.80939242165E+01  0.13378690245E+02  0.51100000000E-03 0. -1.
        -11    1    3    3    0    0  0.76093128745E+00 -0.15311609321E+02  0.34602662912E+01  0.15716164910E+02  0.51100000000E-03 0.  1.
         12    1    3    3    0    0 -0.22118889934E+02 -0.96189216093E+01 -0.18185142952E+02  0.30207091370E+02  0.00000000000E+00 0. -1.
</event>
<event>
 7    1  0.7444241E-013  0.5930195E+02  0.7816164E-02  0.1266605E+00
        -11   -1    0    0    0    0  0.00000000000E+00  0.00000000000E+00  0.45593999997E+02  0.45594000000E+02  0.51100000000E-03 0.  1.
         11   -1    0    0    0    0 -0.00000000000E+00 -0.00000000000E+00 -0.45593999997E+02  0.45594000000E+02  0.51100000000E-03 0. -1.
    9900012    2    1    2    0    0  0.13137640263E+02  0.10290725763E+02 -0.27170274584E+02  0.59301945848E+02  0.50000003319E+02 0.  0.
        -12    1    1    2    0    0 -0.13137640263E+02 -0.10290725763E+02  0.27170274584E+02  0.31886054152E+02  0.00000000000E+00 0.  1.
         11    1    3    3    0    0  0.81841904111E+01  0.12141529073E+02 -0.17291946247E+02  0.22658532745E+02  0.51100000000E-03 0. -1.
        -11    1    3    3    0    0  0.96266734097E+01  0.13485280467E+02  0.20016100545E+01  0.16689280191E+02  0.51100000000E-03 0.  1.
         12    1    3    3    0    0 -0.46732235575E+01 -0.15336083777E+02 -0.11879938392E+02  0.19954132911E+02  0.00000000000E+00 0. -1.
</event>
<event>
 7    1  0.7444241E-013  0.5930194E+02  0.7816164E-02  0.1266605E+00
        -11   -1    0    0    0    0  0.00000000000E+00  0.00000000000E+00  0.45593999997E+02  0.45594000000E+02  0.51100000000E-03 0.  1.
         11   -1    0    0    0    0 -0.00000000000E+00 -0.00000000000E+00 -0.45593999997E+02  0.45594000000E+02  0.51100000000E-03 0. -1.
    9900012    2    1    2    0    0 -0.22380093331E+02 -0.15014706226E+02  0.17041452717E+02  0.59301935783E+02  0.49999984963E+02 0.  0.
        -12    1    1    2    0    0  0.22380093331E+02  0.15014706226E+02 -0.17041452717E+02  0.31886064217E+02  0.00000000000E+00 0.  1.
         11    1    3    3    0    0 -0.12743685512E+02 -0.72848256844E-01 -0.24112450633E+01  0.12970001169E+02  0.51100000000E-03 0. -1.
        -11    1    3    3    0    0  0.13400771463E+01 -0.78232039838E+01 -0.10781820286E+02  0.13388277569E+02  0.51100000000E-03 0.  1.
        -12    1    3    3    0    0 -0.10976484965E+02 -0.71186539855E+01  0.30234518067E+02  0.32943657045E+02  0.00000000000E+00 0.  1.
</event>
<event>
 7    1  0.7444241E-013  0.5930198E+02  0.7816164E-02  0.1266605E+00
        -11   -1    0    0    0    0  0.00000000000E+00  0.00000000000E+00  0.45593999997E+02  0.45594000000E+02  0.51100000000E-03 0. -1.
         11   -1    0    0    0    0 -0.00000000000E+00 -0.00000000000E+00 -0.45593999997E+02  0.45594000000E+02  0.51100000000E-03 0.  1.
    9900012    2    1    2    0    0  0.20631961735E+02  0.23762963797E+02  0.51343790789E+01  0.59301982030E+02  0.50000069307E+02 0.  0.
        -12    1    1    2    0    0 -0.20631961735E+02 -0.23762963797E+02 -0.51343790789E+01  0.31886017970E+02  0.00000000000E+00 0.  1.
         11    1    3    3    0    0  0.56120397871E+01  0.85062515323E+01 -0.87526254484E+01  0.13433531114E+02  0.51100000000E-03 0. -1.
        -11    1    3    3    0    0  0.25443236860E+02  0.16107350556E+01  0.13138927218E+02  0.28680728338E+02  0.51100000000E-03 0.  1.
         12    1    3    3    0    0 -0.10423314912E+02  0.13645977209E+02  0.74807730922E+00  0.17187722577E+02  0.00000000000E+00 0. -1.
</event>
<event>
 7    1  0.7444241E-013  0.5930188E+02  0.7816164E-02  0.1266605E+00
        -11   -1    0    0    0    0  0.00000000000E+00  0.00000000000E+00  0.45593999997E+02  0.45594000000E+02  0.51100000000E-03 0. -1.
         11   -1    0    0    0    0 -0.00000000000E+00 -0.00000000000E+00 -0.45593999997E+02  0.45594000000E+02  0.51100000000E-03 0.  1.
    9900012    2    1    2    0    0 -0.68101974416E+01  0.23756875500E+02  0.20148366611E+02  0.59301880766E+02  0.49999884625E+02 0.  0.
        -12    1    1    2    0    0  0.68101974416E+01 -0.23756875500E+02 -0.20148366611E+02  0.31886119234E+02  0.00000000000E+00 0.  1.
         11    1    3    3    0    0  0.12015157984E+02  0.53710020788E+01  0.28943646679E+01  0.13475497460E+02  0.51100000000E-03 0. -1.
        -11    1    3    3    0    0  0.68323149490E+01 -0.30059120345E+01 -0.13566490742E+01  0.75866021177E+01  0.51100000000E-03 0.  1.
         12    1    3    3    0    0 -0.25657670374E+02  0.21391785456E+02  0.18610651018E+02  0.38239781188E+02  0.00000000000E+00 0. -1.
</event>
<event>
 7    1  0.7444241E-013  0.5930195E+02  0.7816164E-02  0.1266605E+00
        -11   -1    0    0    0    0  0.00000000000E+00  0.00000000000E+00  0.45593999997E+02  0.45594000000E+02  0.51100000000E-03 0.  1.
         11   -1    0    0    0    0 -0.00000000000E+00 -0.00000000000E+00 -0.45593999997E+02  0.45594000000E+02  0.51100000000E-03 0. -1.
    9900012    2    1    2    0    0  0.15574338811E+01 -0.28554550027E+02 -0.14104338964E+02  0.59301948110E+02  0.50000007445E+02 0.  0.
        -12    1    1    2    0    0 -0.15574338811E+01  0.28554550027E+02  0.14104338964E+02  0.31886051890E+02  0.00000000000E+00 0.  1.
         11    1    3    3    0    0  0.15366800821E+02 -0.72411077308E+01  0.53603892330E+01  0.17813084562E+02  0.51100000000E-03 0.  1.
        -11    1    3    3    0    0 -0.37296217256E+01 -0.18065404371E+02  0.97122594344E+00  0.18471929878E+02  0.51100000000E-03 0. -1.
        -12    1    3    3    0    0 -0.10079745214E+02 -0.32480379251E+01 -0.20435954140E+02  0.23016933670E+02  0.00000000000E+00 0.  1.
</event>
<event>
 7    1  0.7444241E-013  0.5930195E+02  0.7816164E-02  0.1266605E+00
        -11   -1    0    0    0    0  0.00000000000E+00  0.00000000000E+00  0.45593999997E+02  0.45594000000E+02  0.51100000000E-03 0.  1.
         11   -1    0    0    0    0 -0.00000000000E+00 -0.00000000000E+00 -0.45593999997E+02  0.45594000000E+02  0.51100000000E-03 0. -1.
    9900012    2    1    2    0    0 -0.31060475431E+02  0.71869418322E+01 -0.56131338214E+00  0.59301947570E+02  0.50000006460E+02 0.  0.
        -12    1    1    2    0    0  0.31060475431E+02 -0.71869418322E+01  0.56131338214E+00  0.31886052430E+02  0.00000000000E+00 0.  1.
         11    1    3    3    0    0 -0.27832600725E+02 -0.10155537116E+02  0.10402963285E+02  0.31400800031E+02  0.51100000000E-03 0. -1.
        -11    1    3    3    0    0 -0.11979783373E+01 -0.36175737085E+01  0.62952063423E+00  0.38624199828E+01  0.51100000000E-03 0.  1.
        -12    1    3    3    0    0 -0.20298963679E+01  0.20960052657E+02 -0.11593797301E+02  0.24038727556E+02  0.00000000000E+00 0.  1.
</event>
<event>
 7    1  0.7444241E-013  0.5930193E+02  0.7816164E-02  0.1266605E+00
        -11   -1    0    0    0    0  0.00000000000E+00  0.00000000000E+00  0.45593999997E+02  0.45594000000E+02  0.51100000000E-03 0.  1.
         11   -1    0    0    0    0 -0.00000000000E+00 -0.00000000000E+00 -0.45593999997E+02  0.45594000000E+02  0.51100000000E-03 0. -1.
    9900012    2    1    2    0    0 -0.49154627601E+01  0.10607485505E+02 -0.29665479909E+02  0.59301933746E+02  0.49999981249E+02 0.  0.
        -12    1    1    2    0    0  0.49154627601E+01 -0.10607485505E+02  0.29665479909E+02  0.31886066254E+02  0.00000000000E+00 0.  1.
         11    1    3    3    0    0  0.22873903357E+01  0.56067206741E+01 -0.98978502886E+01  0.11603228510E+02  0.51100000000E-03 0. -1.
        -11    1    3    3    0    0 -0.48596697017E+01  0.79345870870E+01 -0.32821863663E+02  0.34115228219E+02  0.51100000000E-03 0.  1.
        -12    1    3    3    0    0 -0.23431833941E+01 -0.29338222562E+01  0.13054234042E+02  0.13583477017E+02  0.00000000000E+00 0.  1.
</event>
<event>
 7    1  0.7999470E-013  0.5930194E+02  0.7816164E-02  0.1266605E+00
        -11   -1    0    0    0    0  0.00000000000E+00  0.00000000000E+00  0.45593999997E+02  0.45594000000E+02  0.51100000000E-03 0. -1.
         11   -1    0    0    0    0 -0.00000000000E+00 -0.00000000000E+00 -0.45593999997E+02  0.45594000000E+02  0.51100000000E-03 0.  1.
    9900012    2    1    2    0    0 -0.14479387261E+01  0.18833180913E+02  0.25689208285E+02  0.59301942668E+02  0.49999997521E+02 0.  0.
        -12    1    1    2    0    0  0.14479387261E+01 -0.18833180913E+02 -0.25689208285E+02  0.31886057332E+02  0.00000000000E+00 0.  1.
         11    1    3    3    0    0  0.87867621479E+01  0.40682968506E+01  0.14045327037E+02  0.17059584994E+02  0.51100000000E-03 0. -1.
        -11    1    3    3    0    0  0.40538627957E+01 -0.10563471172E+02  0.13564558641E+01  0.11395643885E+02  0.51100000000E-03 0.  1.
         12    1    3    3    0    0 -0.14288563670E+02  0.25328355235E+02  0.10287425383E+02  0.30846713790E+02  0.00000000000E+00 0. -1.
</event>
<event>
 7    1  0.7444241E-013  0.5930196E+02  0.7816164E-02  0.1266605E+00
        -11   -1    0    0    0    0  0.00000000000E+00  0.00000000000E+00  0.45593999997E+02  0.45594000000E+02  0.51100000000E-03 0.  1.
         11   -1    0    0    0    0 -0.00000000000E+00 -0.00000000000E+00 -0.45593999997E+02  0.45594000000E+02  0.51100000000E-03 0. -1.
    9900012    2    1    2    0    0 -0.72804777657E+00  0.27006358825E+02 -0.16936525075E+02  0.59301963053E+02  0.50000034698E+02 0.  0.
        -12    1    1    2    0    0  0.72804777657E+00 -0.27006358825E+02  0.16936525075E+02  0.31886036947E+02  0.00000000000E+00 0.  1.
         11    1    3    3    0    0 -0.74669707170E+00  0.52595246666E+01  0.32768937630E+01  0.62416495601E+01  0.51100000000E-03 0. -1.
        -11    1    3    3    0    0  0.21615236514E+02  0.15368866555E+02 -0.10204299702E+02  0.28417393290E+02  0.51100000000E-03 0.  1.
         12    1    3    3    0    0 -0.21596587219E+02  0.63779676036E+01 -0.10009119136E+02  0.24642920203E+02  0.00000000000E+00 0. -1.
</event>
<event>
 7    1  0.7444241E-013  0.5930196E+02  0.7816164E-02  0.1266605E+00
        -11   -1    0    0    0    0  0.00000000000E+00  0.00000000000E+00  0.45593999997E+02  0.45594000000E+02  0.51100000000E-03 0.  1.
         11   -1    0    0    0    0 -0.00000000000E+00 -0.00000000000E+00 -0.45593999997E+02  0.45594000000E+02  0.51100000000E-03 0. -1.
    9900012    2    1    2    0    0 -0.22810589045E+02  0.14285053830E+01 -0.22234112976E+02  0.59301962616E+02  0.50000033900E+02 0.  0.
        -12    1    1    2    0    0  0.22810589045E+02 -0.14285053830E+01  0.22234112976E+02  0.31886037384E+02  0.00000000000E+00 0.  1.
         11    1    3    3    0    0  0.26676487744E+01 -0.32833164703E+01 -0.85448088158E-01  0.42312904254E+01  0.51100000000E-03 0. -1.
        -11    1    3    3    0    0 -0.31260514162E+02 -0.87755309746E+01 -0.55922562644E+01  0.32946972850E+02  0.51100000000E-03 0.  1.
         12    1    3    3    0    0  0.57822763425E+01  0.13487352828E+02 -0.16556408624E+02  0.22123699341E+02  0.00000000000E+00 0. -1.
</event>
<event>
 7    1  0.7444241E-013  0.5930194E+02  0.7816164E-02  0.1266605E+00
        -11   -1    0    0    0    0  0.00000000000E+00  0.00000000000E+00  0.45593999997E+02  0.45594000000E+02  0.51100000000E-03 0. -1.
         11   -1    0    0    0    0 -0.00000000000E+00 -0.00000000000E+00 -0.45593999997E+02  0.45594000000E+02  0.51100000000E-03 0.  1.
    9900012    2    1    2    0    0 -0.19966890156E+02 -0.24843357369E+02 -0.92274264880E+00  0.59301944084E+02  0.50000000102E+02 0.  0.
        -12    1    1    2    0    0  0.19966890156E+02  0.24843357369E+02  0.92274264880E+00  0.31886055916E+02  0.00000000000E+00 0.  1.
         11    1    3    3    0    0  0.48041106049E+01  0.70232043495E+00 -0.60120351214E+01  0.77276968923E+01  0.51100000000E-03 0. -1.
        -11    1    3    3    0    0  0.84478786921E+01  0.10506757011E+01  0.27879676345E+01  0.89578645679E+01  0.51100000000E-03 0.  1.
         12    1    3    3    0    0 -0.33218879453E+02 -0.26596353505E+02  0.23013248381E+01  0.42616382624E+02  0.00000000000E+00 0. -1.
</event>
<event>
 7    1  0.7444241E-013  0.5930196E+02  0.7816164E-02  0.1266605E+00
        -11   -1    0    0    0    0  0.00000000000E+00  0.00000000000E+00  0.45593999997E+02  0.45594000000E+02  0.51100000000E-03 0.  1.
         11   -1    0    0    0    0 -0.00000000000E+00 -0.00000000000E+00 -0.45593999997E+02  0.45594000000E+02  0.51100000000E-03 0. -1.
    9900012    2    1    2    0    0 -0.47810841517E+01  0.23978383620E+01 -0.31434238297E+02  0.59301957100E+02  0.50000023841E+02 0.  0.
        -12    1    1    2    0    0  0.47810841517E+01 -0.23978383620E+01  0.31434238297E+02  0.31886042900E+02  0.00000000000E+00 0.  1.
         11    1    3    3    0    0  0.30592084620E+01 -0.62247975911E+01  0.29979811462E+01  0.75561069790E+01  0.51100000000E-03 0. -1.
        -11    1    3    3    0    0 -0.17760690241E+02 -0.77908375067E+01 -0.15941012870E+02  0.25104883160E+02  0.51100000000E-03 0.  1.
         12    1    3    3    0    0  0.99203976269E+01  0.16413473460E+02 -0.18491206573E+02  0.26640966961E+02  0.00000000000E+00 0. -1.
</event>
<event>
 7    1  0.7444241E-013  0.5930194E+02  0.7816164E-02  0.1266605E+00
        -11   -1    0    0    0    0  0.00000000000E+00  0.00000000000E+00  0.45593999997E+02  0.45594000000E+02  0.51100000000E-03 0.  1.
         11   -1    0    0    0    0 -0.00000000000E+00 -0.00000000000E+00 -0.45593999997E+02  0.45594000000E+02  0.51100000000E-03 0. -1.
    9900012    2    1    2    0    0  0.11151964453E+02  0.28473782590E+02 -0.90331817763E+01  0.59301937541E+02  0.49999988170E+02 0.  0.
        -12    1    1    2    0    0 -0.11151964453E+02 -0.28473782590E+02  0.90331817763E+01  0.31886062459E+02  0.00000000000E+00 0.  1.
         11    1    3    3    0    0  0.85497772620E+01  0.23616890144E+02 -0.19448594792E+02  0.31766397828E+02  0.51100000000E-03 0. -1.
        -11    1    3    3    0    0  0.53570628355E+01  0.14231127933E+02  0.89809751709E+01  0.17660154013E+02  0.51100000000E-03 0.  1.
         12    1    3    3    0    0 -0.27548756445E+01 -0.93742354876E+01  0.14344378449E+01  0.98753857000E+01  0.00000000000E+00 0. -1.
</event>
<event>
 7    1  0.7444241E-013  0.5930193E+02  0.7816164E-02  0.1266605E+00
        -11   -1    0    0    0    0  0.00000000000E+00  0.00000000000E+00  0.45593999997E+02  0.45594000000E+02  0.51100000000E-03 0.  1.
         11   -1    0    0    0    0 -0.00000000000E+00 -0.00000000000E+00 -0.45593999997E+02  0.45594000000E+02  0.51100000000E-03 0. -1.
    9900012    2    1    2    0    0  0.14264128018E+02 -0.15517672586E+02 -0.23926090085E+02  0.59301932551E+02  0.49999979069E+02 0.  0.
        -12    1    1    2    0    0 -0.14264128018E+02  0.15517672586E+02  0.23926090085E+02  0.31886067449E+02  0.00000000000E+00 0.  1.
         11    1    3    3    0    0  0.50164608595E+00 -0.29201110393E+01 -0.57583392982E+01  0.64758913682E+01  0.51100000000E-03 0. -1.
        -11    1    3    3    0    0  0.59096459730E+01 -0.29062531082E+02 -0.17783039136E+02  0.34580212688E+02  0.51100000000E-03 0.  1.
        -12    1    3    3    0    0  0.78528359593E+01  0.16464969535E+02 -0.38471165094E+00  0.18245828494E+02  0.00000000000E+00 0.  1.
</event>
<event>
 7    1  0.7444241E-013  0.5930196E+02  0.7816164E-02  0.1266605E+00
        -11   -1    0    0    0    0  0.00000000000E+00  0.00000000000E+00  0.45593999997E+02  0.45594000000E+02  0.51100000000E-03 0. -1.
         11   -1    0    0    0    0 -0.00000000000E+00 -0.00000000000E+00 -0.45593999997E+02  0.45594000000E+02  0.51100000000E-03 0.  1.
    9900012    2    1    2    0    0 -0.30238028790E+02 -0.10029341361E+02  0.13392252522E+01  0.59301959206E+02  0.50000027682E+02 0.  0.
        -12    1    1    2    0    0  0.30238028790E+02  0.10029341361E+02 -0.13392252522E+01  0.31886040794E+02  0.00000000000E+00 0.  1.
         11    1    3    3    0    0 -0.22580031563E+02  0.13476177325E+02  0.28636189434E+01  0.26451190793E+02  0.51100000000E-03 0. -1.
        -11    1    3    3    0    0  0.47950242756E+01 -0.37012326838E+01 -0.65514107121E+01  0.89225760721E+01  0.51100000000E-03 0.  1.
         12    1    3    3    0    0 -0.12453021502E+02 -0.19804286002E+02  0.50270170209E+01  0.23928192341E+02  0.00000000000E+00 0. -1.
</event>
<event>
 7    1  0.7444241E-013  0.5930194E+02  0.7816164E-02  0.1266605E+00
        -11   -1    0    0    0    0  0.00000000000E+00  0.00000000000E+00  0.45593999997E+02  0.45594000000E+02  0.51100000000E-03 0.  1.
         11   -1    0    0    0    0 -0.00000000000E+00 -0.00000000000E+00 -0.45593999997E+02  0.45594000000E+02  0.51100000000E-03 0. -1.
    9900012    2    1    2    0    0  0.30844088460E+02 -0.47924004752E+01 -0.65111935273E+01  0.59301944484E+02  0.50000000832E+02 0.  0.
        -12    1    1    2    0    0 -0.30844088460E+02  0.47924004752E+01  0.65111935273E+01  0.31886055516E+02  0.00000000000E+00 0.  1.
         11    1    3    3    0    0  0.15171132671E+02 -0.65993191830E+01 -0.10810786313E+02  0.19763283664E+02  0.51100000000E-03 0. -1.
        -11    1    3    3    0    0  0.17575928033E+02  0.15651217692E+02  0.83778762818E+01  0.24981246420E+02  0.51100000000E-03 0.  1.
         12    1    3    3    0    0 -0.19029722438E+01 -0.13844298984E+02 -0.40782834957E+01  0.14557414400E+02  0.00000000000E+00 0. -1.
</event>
<event>
 7    1  0.7444241E-013  0.5930195E+02  0.7816164E-02  0.1266605E+00
        -11   -1    0    0    0    0  0.00000000000E+00  0.00000000000E+00  0.45593999997E+02  0.45594000000E+02  0.51100000000E-03 0. -1.
         11   -1    0    0    0    0 -0.00000000000E+00 -0.00000000000E+00 -0.45593999997E+02  0.45594000000E+02  0.51100000000E-03 0.  1.
    9900012    2    1    2    0    0 -0.18152833019E+02 -0.25570208617E+02 -0.57757618676E+01  0.59301947556E+02  0.50000006434E+02 0.  0.
        -12    1    1    2    0    0  0.18152833019E+02  0.25570208617E+02  0.57757618676E+01  0.31886052444E+02  0.00000000000E+00 0.  1.
         11    1    3    3    0    0 -0.81469141957E+01 -0.12813701005E+02 -0.23165830957E+01  0.15360003316E+02  0.51100000000E-03 0. -1.
        -11    1    3    3    0    0 -0.16795259119E+02 -0.42301315360E+01 -0.18516273703E+02  0.25354035848E+02  0.51100000000E-03 0.  1.
         12    1    3    3    0    0  0.67893402954E+01 -0.85263760755E+01  0.15057094931E+02  0.18587908392E+02  0.00000000000E+00 0. -1.
</event>
<event>
 7    1  0.8022189E-013  0.5930197E+02  0.7816164E-02  0.1266605E+00
        -11   -1    0    0    0    0  0.00000000000E+00  0.00000000000E+00  0.45593999997E+02  0.45594000000E+02  0.51100000000E-03 0.  1.
         11   -1    0    0    0    0 -0.00000000000E+00 -0.00000000000E+00 -0.45593999997E+02  0.45594000000E+02  0.51100000000E-03 0. -1.
    9900012    2    1    2    0    0 -0.45127012325E+01  0.27804337971E+02  0.14942324102E+02  0.59301972778E+02  0.50000052433E+02 0.  0.
        -12    1    1    2    0    0  0.45127012325E+01 -0.27804337971E+02 -0.14942324102E+02  0.31886027222E+02  0.00000000000E+00 0.  1.
         11    1    3    3    0    0 -0.11371859000E+02  0.18730884892E+02  0.21565948307E+02  0.30745005328E+02  0.51100000000E-03 0. -1.
        -11    1    3    3    0    0  0.98047635809E+01  0.16148750769E+02 -0.76055572895E+00  0.18907511353E+02  0.51100000000E-03 0.  1.
        -12    1    3    3    0    0 -0.29456058133E+01 -0.70752976900E+01 -0.58630684761E+01  0.96494560968E+01  0.00000000000E+00 0.  1.
</event>
<event>
 7    1  0.7444241E-013  0.5930194E+02  0.7816164E-02  0.1266605E+00
        -11   -1    0    0    0    0  0.00000000000E+00  0.00000000000E+00  0.45593999997E+02  0.45594000000E+02  0.51100000000E-03 0.  1.
         11   -1    0    0    0    0 -0.00000000000E+00 -0.00000000000E+00 -0.45593999997E+02  0.45594000000E+02  0.51100000000E-03 0. -1.
    9900012    2    1    2    0    0  0.87470975580E+01 -0.21916135430E+02 -0.21445096983E+02  0.59301938900E+02  0.49999990648E+02 0.  0.
        -12    1    1    2    0    0 -0.87470975580E+01  0.21916135430E+02  0.21445096983E+02  0.31886061100E+02  0.00000000000E+00 0.  1.
         11    1    3    3    0    0 -0.58750792795E+01 -0.67778475030E-01 -0.43987459592E+01  0.73396264712E+01  0.51100000000E-03 0. -1.
        -11    1    3    3    0    0 -0.13631176492E+02 -0.11927560637E+02 -0.11648521593E+02  0.21535174271E+02  0.51100000000E-03 0.  1.
        -12    1    3    3    0    0  0.28253353329E+02 -0.99207963180E+01 -0.53978294300E+01  0.30427138158E+02  0.00000000000E+00 0.  1.
</event>
<event>
 7    1  0.7444241E-013  0.5930194E+02  0.7816164E-02  0.1266605E+00
        -11   -1    0    0    0    0  0.00000000000E+00  0.00000000000E+00  0.45593999997E+02  0.45594000000E+02  0.51100000000E-03 0.  1.
         11   -1    0    0    0    0 -0.00000000000E+00 -0.00000000000E+00 -0.45593999997E+02  0.45594000000E+02  0.51100000000E-03 0. -1.
    9900012    2    1    2    0    0 -0.15668368970E+02 -0.82560384378E+01 -0.26515298403E+02  0.59301937116E+02  0.49999987394E+02 0.  0.
        -12    1    1    2    0    0  0.15668368970E+02  0.82560384378E+01  0.26515298403E+02  0.31886062884E+02  0.00000000000E+00 0.  1.
         11    1    3    3    0    0 -0.87967105338E+00  0.11764426108E+02  0.17876810283E+01  0.11931946469E+02  0.51100000000E-03 0. -1.
        -11    1    3    3    0    0 -0.12145967129E+01  0.42685427483E+01 -0.16602354027E+02  0.17185280384E+02  0.51100000000E-03 0.  1.
         12    1    3    3    0    0 -0.13574101204E+02 -0.24289007294E+02 -0.11700625404E+02  0.30184710263E+02  0.00000000000E+00 0. -1.
</event>
<event>
 7    1  0.7444241E-013  0.5930194E+02  0.7816164E-02  0.1266605E+00
        -11   -1    0    0    0    0  0.00000000000E+00  0.00000000000E+00  0.45593999997E+02  0.45594000000E+02  0.51100000000E-03 0.  1.
         11   -1    0    0    0    0 -0.00000000000E+00 -0.00000000000E+00 -0.45593999997E+02  0.45594000000E+02  0.51100000000E-03 0. -1.
    9900012    2    1    2    0    0 -0.29186273841E+02  0.17245232172E+01  0.12724320009E+02  0.59301939084E+02  0.49999990984E+02 0.  0.
        -12    1    1    2    0    0  0.29186273841E+02 -0.17245232172E+01 -0.12724320009E+02  0.31886060916E+02  0.00000000000E+00 0.  1.
         11    1    3    3    0    0 -0.16836406143E+02 -0.47106765763E+01  0.98285709058E+01  0.20056317008E+02  0.51100000000E-03 0. -1.
        -11    1    3    3    0    0 -0.17468388744E+02  0.48896762145E+01  0.16566617624E+02  0.24566366409E+02  0.51100000000E-03 0.  1.
         12    1    3    3    0    0  0.51185210452E+01  0.15455235789E+01 -0.13670868521E+02  0.14679255667E+02  0.00000000000E+00 0. -1.
</event>
<event>
 7    1  0.7444241E-013  0.5930196E+02  0.7816164E-02  0.1266605E+00
        -11   -1    0    0    0    0  0.00000000000E+00  0.00000000000E+00  0.45593999997E+02  0.45594000000E+02  0.51100000000E-03 0. -1.
         11   -1    0    0    0    0 -0.00000000000E+00 -0.00000000000E+00 -0.45593999997E+02  0.45594000000E+02  0.51100000000E-03 0.  1.
    9900012    2    1    2    0    0  0.49277817099E+01 -0.94796837198E+01  0.30042839489E+02  0.59301958531E+02  0.50000026450E+02 0.  0.
        -12    1    1    2    0    0 -0.49277817099E+01  0.94796837198E+01 -0.30042839489E+02  0.31886041469E+02  0.00000000000E+00 0.  1.
         11    1    3    3    0    0  0.16008188443E+02 -0.30630825147E+01  0.33710219027E+02  0.37443603444E+02  0.51100000000E-03 0. -1.
        -11    1    3    3    0    0  0.17161747015E+01 -0.17348756353E+00  0.49318409269E+01  0.52247879124E+01  0.51100000000E-03 0.  1.
        -12    1    3    3    0    0 -0.12796581434E+02 -0.62431136416E+01 -0.85992204650E+01  0.16633567174E+02  0.00000000000E+00 0.  1.
</event>
<event>
 7    1  0.7444241E-013  0.5930196E+02  0.7816164E-02  0.1266605E+00
        -11   -1    0    0    0    0  0.00000000000E+00  0.00000000000E+00  0.45593999997E+02  0.45594000000E+02  0.51100000000E-03 0.  1.
         11   -1    0    0    0    0 -0.00000000000E+00 -0.00000000000E+00 -0.45593999997E+02  0.45594000000E+02  0.51100000000E-03 0. -1.
    9900012    2    1    2    0    0  0.27224638267E+02  0.15429482226E+02 -0.61212329034E+01  0.59301963200E+02  0.50000034966E+02 0.  0.
        -12    1    1    2    0    0 -0.27224638267E+02 -0.15429482226E+02  0.61212329034E+01  0.31886036800E+02  0.00000000000E+00 0.  1.
         11    1    3    3    0    0  0.24557698792E+02 -0.10706722156E+02 -0.60237900616E+01  0.27459069836E+02  0.51100000000E-03 0. -1.
        -11    1    3    3    0    0  0.80699756021E+01  0.96598979955E+01 -0.54203448528E+01  0.13704680736E+02  0.51100000000E-03 0.  1.
        -12    1    3    3    0    0 -0.54030361272E+01  0.16476306386E+02  0.53229020110E+01  0.18138212628E+02  0.00000000000E+00 0.  1.
</event>
<event>
 7    1  0.7444241E-013  0.5930198E+02  0.7816164E-02  0.1266605E+00
        -11   -1    0    0    0    0  0.00000000000E+00  0.00000000000E+00  0.45593999997E+02  0.45594000000E+02  0.51100000000E-03 0. -1.
         11   -1    0    0    0    0 -0.00000000000E+00 -0.00000000000E+00 -0.45593999997E+02  0.45594000000E+02  0.51100000000E-03 0.  1.
    9900012    2    1    2    0    0 -0.10042110869E+00 -0.31796296932E+02 -0.23882935927E+01  0.59301975957E+02  0.50000058230E+02 0.  0.
        -12    1    1    2    0    0  0.10042110869E+00  0.31796296932E+02  0.23882935927E+01  0.31886024043E+02  0.00000000000E+00 0.  1.
         11    1    3    3    0    0 -0.16483054948E+02  0.73741584641E+00 -0.34420746145E+01  0.16854754832E+02  0.51100000000E-03 0. -1.
        -11    1    3    3    0    0 -0.86968775663E+00  0.26466987219E+01 -0.15313930257E+01  0.31790778189E+01  0.51100000000E-03 0.  1.
         12    1    3    3    0    0  0.17252321596E+02 -0.35180411501E+02  0.25851740475E+01  0.39268143305E+02  0.00000000000E+00 0. -1.
</event>
<event>
 7    1  0.7444241E-013  0.5930196E+02  0.7816164E-02  0.1266605E+00
        -11   -1    0    0    0    0  0.00000000000E+00  0.00000000000E+00  0.45593999997E+02  0.45594000000E+02  0.51100000000E-03 0. -1.
         11   -1    0    0    0    0 -0.00000000000E+00 -0.00000000000E+00 -0.45593999997E+02  0.45594000000E+02  0.51100000000E-03 0.  1.
    9900012    2    1    2    0    0 -0.11293557294E+01  0.20666391919E+02  0.24255808143E+02  0.59301961865E+02  0.50000032531E+02 0.  0.
        -12    1    1    2    0    0  0.11293557294E+01 -0.20666391919E+02 -0.24255808143E+02  0.31886038135E+02  0.00000000000E+00 0.  1.
         11    1    3    3    0    0  0.85433956581E+00  0.19302843270E+02  0.39304410057E+01  0.19717454733E+02  0.51100000000E-03 0. -1.
        -11    1    3    3    0    0  0.84212177211E+01  0.12931143921E+02  0.18231592975E+02  0.23885610180E+02  0.51100000000E-03 0.  1.
        -12    1    3    3    0    0 -0.10404913016E+02 -0.11567595272E+02  0.20937741620E+01  0.15698896952E+02  0.00000000000E+00 0.  1.
</event>
<event>
 7    1  0.7444241E-013  0.5930194E+02  0.7816164E-02  0.1266605E+00
        -11   -1    0    0    0    0  0.00000000000E+00  0.00000000000E+00  0.45593999997E+02  0.45594000000E+02  0.51100000000E-03 0. -1.
         11   -1    0    0    0    0 -0.00000000000E+00 -0.00000000000E+00 -0.45593999997E+02  0.45594000000E+02  0.51100000000E-03 0.  1.
    9900012    2    1    2    0    0 -0.10108914906E+02  0.89177143971E+01  0.28896456735E+02  0.59301937175E+02  0.49999987502E+02 0.  0.
        -12    1    1    2    0    0  0.10108914906E+02 -0.89177143971E+01 -0.28896456735E+02  0.31886062825E+02  0.00000000000E+00 0.  1.
         11    1    3    3    0    0 -0.15263490622E+02  0.26542177246E+01  0.92301819538E+01  0.18033726095E+02  0.51100000000E-03 0. -1.
        -11    1    3    3    0    0 -0.76476823246E+01 -0.90353355217E+01  0.17603125527E+02  0.21213070535E+02  0.51100000000E-03 0.  1.
        -12    1    3    3    0    0  0.12802258041E+02  0.15298832194E+02  0.20631492541E+01  0.20055140545E+02  0.00000000000E+00 0.  1.
</event>
<event>
 7    1  0.7444241E-013  0.5930194E+02  0.7816164E-02  0.1266605E+00
        -11   -1    0    0    0    0  0.00000000000E+00  0.00000000000E+00  0.45593999997E+02  0.45594000000E+02  0.51100000000E-03 0.  1.
         11   -1    0    0    0    0 -0.00000000000E+00 -0.00000000000E+00 -0.45593999997E+02  0.45594000000E+02  0.51100000000E-03 0. -1.
    9900012    2    1    2    0    0  0.28451181112E+02  0.91093458720E+01 -0.11147694082E+02  0.59301937649E+02  0.49999988367E+02 0.  0.
        -12    1    1    2    0    0 -0.28451181112E+02 -0.91093458720E+01  0.11147694082E+02  0.31886062351E+02  0.00000000000E+00 0.  1.
         11    1    3    3    0    0 -0.12644999458E+01  0.32259063756E+01  0.51377028145E+01  0.61968881326E+01  0.51100000000E-03 0. -1.
        -11    1    3    3    0    0 -0.47801032327E+00  0.10201165387E+02  0.89028196732E+01  0.13548153657E+02  0.51100000000E-03 0.  1.
         12    1    3    3    0    0  0.30193691381E+02 -0.43177258905E+01 -0.25188216570E+02  0.39556895860E+02  0.00000000000E+00 0. -1.
</event>
<event>
 7    1  0.7444241E-013  0.5930195E+02  0.7816164E-02  0.1266605E+00
        -11   -1    0    0    0    0  0.00000000000E+00  0.00000000000E+00  0.45593999997E+02  0.45594000000E+02  0.51100000000E-03 0.  1.
         11   -1    0    0    0    0 -0.00000000000E+00 -0.00000000000E+00 -0.45593999997E+02  0.45594000000E+02  0.51100000000E-03 0. -1.
    9900012    2    1    2    0    0 -0.24566192204E+02 -0.19546947784E+01 -0.20233673320E+02  0.59301950275E+02  0.50000011393E+02 0.  0.
        -12    1    1    2    0    0  0.24566192204E+02  0.19546947784E+01  0.20233673320E+02  0.31886049725E+02  0.00000000000E+00 0.  1.
         11    1    3    3    0    0  0.61923928882E+01  0.14281315301E+01 -0.13658259293E+01  0.65000592366E+01  0.51100000000E-03 0. -1.
        -11    1    3    3    0    0 -0.23147236353E+02 -0.79024566160E+01  0.70166756209E+01  0.25445571489E+02  0.51100000000E-03 0.  1.
         12    1    3    3    0    0 -0.76113487383E+01  0.45196303075E+01 -0.25884523012E+02  0.27356319549E+02  0.00000000000E+00 0. -1.
</event>
<event>
 7    1  0.7444241E-013  0.5930197E+02  0.7816164E-02  0.1266605E+00
        -11   -1    0    0    0    0  0.00000000000E+00  0.00000000000E+00  0.45593999997E+02  0.45594000000E+02  0.51100000000E-03 0.  1.
         11   -1    0    0    0    0 -0.00000000000E+00 -0.00000000000E+00 -0.45593999997E+02  0.45594000000E+02  0.51100000000E-03 0. -1.
    9900012    2    1    2    0    0  0.13842283237E+01 -0.24599018194E+02 -0.20240834865E+02  0.59301965750E+02  0.50000039616E+02 0.  0.
        -12    1    1    2    0    0 -0.13842283237E+01  0.24599018194E+02  0.20240834865E+02  0.31886034250E+02  0.00000000000E+00 0.  1.
         11    1    3    3    0    0 -0.19374748494E+02 -0.10669527611E+02 -0.99671804019E+01  0.24260345919E+02  0.51100000000E-03 0. -1.
        -11    1    3    3    0    0  0.96402604467E+01  0.50942571943E+01 -0.44048444572E+00  0.10912383088E+02  0.51100000000E-03 0.  1.
        -12    1    3    3    0    0  0.11118716371E+02 -0.19023747777E+02 -0.98331700176E+01  0.24129236744E+02  0.00000000000E+00 0.  1.
</event>
<event>
 7    1  0.7444241E-013  0.5930190E+02  0.7816164E-02  0.1266605E+00
        -11   -1    0    0    0    0  0.00000000000E+00  0.00000000000E+00  0.45593999997E+02  0.45594000000E+02  0.51100000000E-03 0. -1.
         11   -1    0    0    0    0 -0.00000000000E+00 -0.00000000000E+00 -0.45593999997E+02  0.45594000000E+02  0.51100000000E-03 0.  1.
    9900012    2    1    2    0    0 -0.25808404849E+02  0.52299925408E+01  0.17980453977E+02  0.59301901022E+02  0.49999921567E+02 0.  0.
        -12    1    1    2    0    0  0.25808404849E+02 -0.52299925408E+01 -0.17980453977E+02  0.31886098978E+02  0.00000000000E+00 0.  1.
         11    1    3    3    0    0 -0.77069421235E+01 -0.16020244271E+01 -0.34141158737E+01  0.85801880294E+01  0.51100000000E-03 0. -1.
        -11    1    3    3    0    0 -0.17183047591E+02  0.10627713601E+02 -0.75098606065E+01  0.21554661387E+02  0.51100000000E-03 0.  1.
         12    1    3    3    0    0 -0.91841513453E+00 -0.37956966331E+01  0.28904430457E+02  0.29167051605E+02  0.00000000000E+00 0. -1.
</event>
<event>
 7    1  0.7444241E-013  0.5930195E+02  0.7816164E-02  0.1266605E+00
        -11   -1    0    0    0    0  0.00000000000E+00  0.00000000000E+00  0.45593999997E+02  0.45594000000E+02  0.51100000000E-03 0. -1.
         11   -1    0    0    0    0 -0.00000000000E+00 -0.00000000000E+00 -0.45593999997E+02  0.45594000000E+02  0.51100000000E-03 0.  1.
    9900012    2    1    2    0    0  0.28887666915E+02  0.37333547406E+01 -0.12972461829E+02  0.59301952843E+02  0.50000016077E+02 0.  0.
        -12    1    1    2    0    0 -0.28887666915E+02 -0.37333547406E+01  0.12972461829E+02  0.31886047157E+02  0.00000000000E+00 0.  1.
         11    1    3    3    0    0  0.14372009473E+02 -0.11356803637E+02 -0.97026560341E+01  0.20728559514E+02  0.51100000000E-03 0. -1.
        -11    1    3    3    0    0  0.93607368594E+01 -0.76726726355E+01 -0.83286898488E+01  0.14692187542E+02  0.51100000000E-03 0.  1.
         12    1    3    3    0    0  0.51549205821E+01  0.22762831013E+02  0.50588840540E+01  0.23881205787E+02  0.00000000000E+00 0. -1.
</event>
<event>
 7    1  0.7444241E-013  0.5930194E+02  0.7816164E-02  0.1266605E+00
        -11   -1    0    0    0    0  0.00000000000E+00  0.00000000000E+00  0.45593999997E+02  0.45594000000E+02  0.51100000000E-03 0.  1.
         11   -1    0    0    0    0 -0.00000000000E+00 -0.00000000000E+00 -0.45593999997E+02  0.45594000000E+02  0.51100000000E-03 0. -1.
    9900012    2    1    2    0    0 -0.30487395740E+02 -0.92882439735E+01 -0.98398442058E+00  0.59301937206E+02  0.49999987560E+02 0.  0.
        -12    1    1    2    0    0  0.30487395740E+02  0.92882439735E+01  0.98398442058E+00  0.31886062794E+02  0.00000000000E+00 0.  1.
         11    1    3    3    0    0  0.73424547532E+00  0.28427375755E+00  0.11636000235E+01  0.14049531177E+01  0.51100000000E-03 0. -1.
        -11    1    3    3    0    0 -0.26321143130E+02 -0.20107451772E+01  0.20564579318E+02  0.33462629822E+02  0.51100000000E-03 0.  1.
         12    1    3    3    0    0 -0.49004980859E+01 -0.75617725538E+01 -0.22712163762E+02  0.24434354266E+02  0.00000000000E+00 0. -1.
</event>
<event>
 7    1  0.7444241E-013  0.5930194E+02  0.7816164E-02  0.1266605E+00
        -11   -1    0    0    0    0  0.00000000000E+00  0.00000000000E+00  0.45593999997E+02  0.45594000000E+02  0.51100000000E-03 0.  1.
         11   -1    0    0    0    0 -0.00000000000E+00 -0.00000000000E+00 -0.45593999997E+02  0.45594000000E+02  0.51100000000E-03 0. -1.
    9900012    2    1    2    0    0 -0.12663564825E+02 -0.12175698529E+02 -0.26610287751E+02  0.59301938422E+02  0.49999989776E+02 0.  0.
        -12    1    1    2    0    0  0.12663564825E+02  0.12175698529E+02  0.26610287751E+02  0.31886061578E+02  0.00000000000E+00 0.  1.
         11    1    3    3    0    0 -0.14120332709E+02 -0.10639100785E+02  0.45449944516E+01  0.18254622323E+02  0.51100000000E-03 0. -1.
        -11    1    3    3    0    0  0.42253546109E+01 -0.16367850361E+01  0.38418212484E+01  0.59407303935E+01  0.51100000000E-03 0.  1.
        -12    1    3    3    0    0 -0.27685867278E+01  0.10018729173E+00 -0.34997103451E+02  0.35106585706E+02  0.00000000000E+00 0.  1.
</event>
<event>
 7    1  0.7444241E-013  0.5930192E+02  0.7816164E-02  0.1266605E+00
        -11   -1    0    0    0    0  0.00000000000E+00  0.00000000000E+00  0.45593999997E+02  0.45594000000E+02  0.51100000000E-03 0.  1.
         11   -1    0    0    0    0 -0.00000000000E+00 -0.00000000000E+00 -0.45593999997E+02  0.45594000000E+02  0.51100000000E-03 0. -1.
    9900012    2    1    2    0    0 -0.11366916873E+02  0.21599161992E+02 -0.20518070052E+02  0.59301924723E+02  0.49999964792E+02 0.  0.
        -12    1    1    2    0    0  0.11366916873E+02 -0.21599161992E+02  0.20518070052E+02  0.31886075277E+02  0.00000000000E+00 0.  1.
         11    1    3    3    0    0 -0.14203889760E+02  0.50334381357E+01 -0.31222231273E+02  0.34668627168E+02  0.51100000000E-03 0. -1.
        -11    1    3    3    0    0  0.27126511740E+01  0.18083901068E+01 -0.30465741651E+01  0.44621032680E+01  0.51100000000E-03 0.  1.
        -12    1    3    3    0    0  0.12432171341E+00  0.14757333750E+02  0.13750735386E+02  0.20171194287E+02  0.00000000000E+00 0.  1.
</event>
<event>
 7    1  0.7444241E-013  0.5930196E+02  0.7816164E-02  0.1266605E+00
        -11   -1    0    0    0    0  0.00000000000E+00  0.00000000000E+00  0.45593999997E+02  0.45594000000E+02  0.51100000000E-03 0.  1.
         11   -1    0    0    0    0 -0.00000000000E+00 -0.00000000000E+00 -0.45593999997E+02  0.45594000000E+02  0.51100000000E-03 0. -1.
    9900012    2    1    2    0    0  0.29634046274E+01 -0.29555516631E+02 -0.11593493292E+02  0.59301962037E+02  0.50000032844E+02 0.  0.
        -12    1    1    2    0    0 -0.29634046274E+01  0.29555516631E+02  0.11593493292E+02  0.31886037963E+02  0.00000000000E+00 0.  1.
         11    1    3    3    0    0 -0.28013550858E+01 -0.13376201025E+01 -0.43586763259E+01  0.53511566442E+01  0.51100000000E-03 0. -1.
        -11    1    3    3    0    0 -0.18311970255E+02 -0.44464299044E+01 -0.70388211631E+01  0.20115764891E+02  0.51100000000E-03 0.  1.
         12    1    3    3    0    0  0.24076729968E+02 -0.23771466624E+02 -0.19599580298E+00  0.33835040502E+02  0.00000000000E+00 0. -1.
</event>
<event>
 7    1  0.7444241E-013  0.5930199E+02  0.7816164E-02  0.1266605E+00
        -11   -1    0    0    0    0  0.00000000000E+00  0.00000000000E+00  0.45593999997E+02  0.45594000000E+02  0.51100000000E-03 0. -1.
         11   -1    0    0    0    0 -0.00000000000E+00 -0.00000000000E+00 -0.45593999997E+02  0.45594000000E+02  0.51100000000E-03 0.  1.
    9900012    2    1    2    0    0 -0.20908235878E+02 -0.11520239250E+02  0.21138766181E+02  0.59301989344E+02  0.50000082645E+02 0.  0.
        -12    1    1    2    0    0  0.20908235878E+02  0.11520239250E+02 -0.21138766181E+02  0.31886010656E+02  0.00000000000E+00 0.  1.
         11    1    3    3    0    0 -0.16490114944E+02 -0.23965169815E+02  0.13655835201E+02  0.32136195955E+02  0.51100000000E-03 0. -1.
        -11    1    3    3    0    0 -0.64609941349E+01 -0.43677598031E+01  0.65826396262E+01  0.10205533578E+02  0.51100000000E-03 0.  1.
        -12    1    3    3    0    0  0.20428732016E+01  0.16812690368E+02  0.90029135454E+00  0.16960259811E+02  0.00000000000E+00 0.  1.
</event>
<event>
 7    1  0.7444241E-013  0.5930195E+02  0.7816164E-02  0.1266605E+00
        -11   -1    0    0    0    0  0.00000000000E+00  0.00000000000E+00  0.45593999997E+02  0.45594000000E+02  0.51100000000E-03 0.  1.
         11   -1    0    0    0    0 -0.00000000000E+00 -0.00000000000E+00 -0.45593999997E+02  0.45594000000E+02  0.51100000000E-03 0. -1.
    9900012    2    1    2    0    0  0.10091819957E+02 -0.28466371986E+01 -0.30112652813E+02  0.59301952380E+02  0.50000015232E+02 0.  0.
        -12    1    1    2    0    0 -0.10091819957E+02  0.28466371986E+01  0.30112652813E+02  0.31886047620E+02  0.00000000000E+00 0.  1.
         11    1    3    3    0    0  0.51763554286E+00 -0.40516056609E+01  0.34589581540E+00  0.40991583481E+01  0.51100000000E-03 0. -1.
        -11    1    3    3    0    0 -0.15281475443E+02 -0.26197143463E+01 -0.25080608364E+02  0.29485984995E+02  0.51100000000E-03 0.  1.
         12    1    3    3    0    0  0.24855659857E+02  0.38246828085E+01 -0.53779402652E+01  0.25716809036E+02  0.00000000000E+00 0. -1.
</event>
<event>
 7    1  0.7444241E-013  0.5930195E+02  0.7816164E-02  0.1266605E+00
        -11   -1    0    0    0    0  0.00000000000E+00  0.00000000000E+00  0.45593999997E+02  0.45594000000E+02  0.51100000000E-03 0.  1.
         11   -1    0    0    0    0 -0.00000000000E+00 -0.00000000000E+00 -0.45593999997E+02  0.45594000000E+02  0.51100000000E-03 0. -1.
    9900012    2    1    2    0    0 -0.11264616786E+02  0.16639282122E+02 -0.24758093070E+02  0.59301945472E+02  0.50000002635E+02 0.  0.
        -12    1    1    2    0    0  0.11264616786E+02 -0.16639282122E+02  0.24758093070E+02  0.31886054528E+02  0.00000000000E+00 0.  1.
         11    1    3    3    0    0 -0.72811064016E+01  0.42070700685E-02 -0.26541856423E+02  0.27522439405E+02  0.51100000000E-03 0. -1.
        -11    1    3    3    0    0  0.87605681496E+01  0.92552092402E+01 -0.70925995719E+01  0.14584629626E+02  0.51100000000E-03 0.  1.
        -12    1    3    3    0    0 -0.12744078534E+02  0.73798658115E+01  0.88763629246E+01  0.17194876442E+02  0.00000000000E+00 0.  1.
</event>
<event>
 7    1  0.7444241E-013  0.5930194E+02  0.7816164E-02  0.1266605E+00
        -11   -1    0    0    0    0  0.00000000000E+00  0.00000000000E+00  0.45593999997E+02  0.45594000000E+02  0.51100000000E-03 0.  1.
         11   -1    0    0    0    0 -0.00000000000E+00 -0.00000000000E+00 -0.45593999997E+02  0.45594000000E+02  0.51100000000E-03 0. -1.
    9900012    2    1    2    0    0  0.22201152415E+02  0.21846226447E+02  0.68243736157E+01  0.59301939507E+02  0.49999991756E+02 0.  0.
        -12    1    1    2    0    0 -0.22201152415E+02 -0.21846226447E+02 -0.68243736157E+01  0.31886060493E+02  0.00000000000E+00 0.  1.
         11    1    3    3    0    0  0.11977964917E+02  0.19657543953E+02  0.53627841560E+01  0.23635780757E+02  0.51100000000E-03 0. -1.
        -11    1    3    3    0    0  0.71842878395E+01  0.13782122815E+02  0.12055840479E+02  0.19669880299E+02  0.51100000000E-03 0.  1.
         12    1    3    3    0    0  0.30388996585E+01 -0.11593440322E+02 -0.10594251020E+02  0.15996278451E+02  0.00000000000E+00 0. -1.
</event>
<event>
 7    1  0.7444241E-013  0.5930194E+02  0.7816164E-02  0.1266605E+00
        -11   -1    0    0    0    0  0.00000000000E+00  0.00000000000E+00  0.45593999997E+02  0.45594000000E+02  0.51100000000E-03 0. -1.
         11   -1    0    0    0    0 -0.00000000000E+00 -0.00000000000E+00 -0.45593999997E+02  0.45594000000E+02  0.51100000000E-03 0.  1.
    9900012    2    1    2    0    0  0.21593667789E+02  0.17423578404E+02  0.15711559808E+02  0.59301942160E+02  0.49999996593E+02 0.  0.
        -12    1    1    2    0    0 -0.21593667789E+02 -0.17423578404E+02 -0.15711559808E+02  0.31886057840E+02  0.00000000000E+00 0.  1.
         11    1    3    3    0    0  0.10677023410E+02 -0.11643028388E+02  0.78929639271E+01  0.17659496560E+02  0.51100000000E-03 0.  1.
        -11    1    3    3    0    0 -0.82083527201E+01  0.11429200130E+02  0.67440792748E+01  0.15604046768E+02  0.51100000000E-03 0. -1.
         12    1    3    3    0    0  0.19124997099E+02  0.17637406662E+02  0.10745166060E+01  0.26038398832E+02  0.00000000000E+00 0. -1.
</event>
<event>
 7    1  0.7444241E-013  0.5930193E+02  0.7816164E-02  0.1266605E+00
        -11   -1    0    0    0    0  0.00000000000E+00  0.00000000000E+00  0.45593999997E+02  0.45594000000E+02  0.51100000000E-03 0.  1.
         11   -1    0    0    0    0 -0.00000000000E+00 -0.00000000000E+00 -0.45593999997E+02  0.45594000000E+02  0.51100000000E-03 0. -1.
    9900012    2    1    2    0    0  0.23975453758E+01 -0.68534617468E+01 -0.31048402745E+02  0.59301929770E+02  0.49999973997E+02 0.  0.
        -12    1    1    2    0    0 -0.23975453758E+01  0.68534617468E+01  0.31048402745E+02  0.31886070230E+02  0.00000000000E+00 0.  1.
         11    1    3    3    0    0  0.59425403951E+01  0.13271358453E+02 -0.24070997483E+02  0.28122156063E+02  0.51100000000E-03 0. -1.
        -11    1    3    3    0    0 -0.10576209999E+02 -0.11369518197E+02 -0.11239553673E+02  0.19168978298E+02  0.51100000000E-03 0.  1.
        -12    1    3    3    0    0  0.70312149793E+01 -0.87553020030E+01  0.42621484123E+01  0.12010795408E+02  0.00000000000E+00 0.  1.
</event>
<event>
 7    1  0.7444241E-013  0.5930198E+02  0.7816164E-02  0.1266605E+00
        -11   -1    0    0    0    0  0.00000000000E+00  0.00000000000E+00  0.45593999997E+02  0.45594000000E+02  0.51100000000E-03 0. -1.
         11   -1    0    0    0    0 -0.00000000000E+00 -0.00000000000E+00 -0.45593999997E+02  0.45594000000E+02  0.51100000000E-03 0.  1.
    9900012    2    1    2    0    0  0.22708426647E+01 -0.73272749806E+01  0.30949515222E+02  0.59301981472E+02  0.50000068290E+02 0.  0.
        -12    1    1    2    0    0 -0.22708426647E+01  0.73272749806E+01 -0.30949515222E+02  0.31886018528E+02  0.00000000000E+00 0.  1.
         11    1    3    3    0    0  0.38679236060E+00 -0.26533482342E+01  0.10643686701E+02  0.10976243986E+02  0.51100000000E-03 0. -1.
        -11    1    3    3    0    0 -0.18076755538E+02  0.77782614604E+01  0.13394800944E+02  0.23805275355E+02  0.51100000000E-03 0.  1.
         12    1    3    3    0    0  0.19960805842E+02 -0.12452188207E+02  0.69110275771E+01  0.24520462132E+02  0.00000000000E+00 0. -1.
</event>
<event>
 7    1  0.7444241E-013  0.5930196E+02  0.7816164E-02  0.1266605E+00
        -11   -1    0    0    0    0  0.00000000000E+00  0.00000000000E+00  0.45593999997E+02  0.45594000000E+02  0.51100000000E-03 0.  1.
         11   -1    0    0    0    0 -0.00000000000E+00 -0.00000000000E+00 -0.45593999997E+02  0.45594000000E+02  0.51100000000E-03 0. -1.
    9900012    2    1    2    0    0  0.26263013543E+02  0.17935077505E+02 -0.23036867070E+01  0.59301955122E+02  0.50000020234E+02 0.  0.
        -12    1    1    2    0    0 -0.26263013543E+02 -0.17935077505E+02  0.23036867070E+01  0.31886044878E+02  0.00000000000E+00 0.  1.
         11    1    3    3    0    0 -0.41268054054E+01 -0.69052656575E+01 -0.77970555166E+00  0.80821505593E+01  0.51100000000E-03 0. -1.
        -11    1    3    3    0    0  0.33210289277E+02  0.81685628718E+01  0.39640877515E+00  0.34202424964E+02  0.51100000000E-03 0.  1.
         12    1    3    3    0    0 -0.28204703280E+01  0.16671780291E+02 -0.19203899305E+01  0.17017379599E+02  0.00000000000E+00 0. -1.
</event>
<event>
 7    1  0.7444241E-013  0.5930214E+02  0.7816164E-02  0.1266604E+00
        -11   -1    0    0    0    0  0.00000000000E+00  0.00000000000E+00  0.45593999997E+02  0.45594000000E+02  0.51100000000E-03 0.  1.
         11   -1    0    0    0    0 -0.00000000000E+00 -0.00000000000E+00 -0.45593999997E+02  0.45594000000E+02  0.51100000000E-03 0. -1.
    9900012    2    1    2    0    0 -0.11888475514E+02 -0.28652441516E+02 -0.73762941687E+01  0.59302141527E+02  0.50000360191E+02 0.  0.
        -12    1    1    2    0    0  0.11888475514E+02  0.28652441516E+02  0.73762941687E+01  0.31885858473E+02  0.00000000000E+00 0.  1.
         11    1    3    3    0    0 -0.41638804562E+00 -0.10696390446E+01  0.11587727217E+02  0.11644437685E+02  0.51100000000E-03 0.  1.
        -11    1    3    3    0    0  0.45070488790E+00 -0.29369268178E+02 -0.60470453069E+01  0.29988727973E+02  0.51100000000E-03 0. -1.
        -12    1    3    3    0    0 -0.11922792356E+02  0.17864657066E+01 -0.12916976078E+02  0.17668975870E+02  0.00000000000E+00 0.  1.
</event>
<event>
 7    1  0.7444241E-013  0.5930181E+02  0.7816164E-02  0.1266605E+00
        -11   -1    0    0    0    0  0.00000000000E+00  0.00000000000E+00  0.45593999997E+02  0.45594000000E+02  0.51100000000E-03 0.  1.
         11   -1    0    0    0    0 -0.00000000000E+00 -0.00000000000E+00 -0.45593999997E+02  0.45594000000E+02  0.51100000000E-03 0. -1.
    9900012    2    1    2    0    0  0.36841542278E+01 -0.42138511162E+01 -0.31391074698E+02  0.59301810132E+02  0.49999755807E+02 0.  0.
        -12    1    1    2    0    0 -0.36841542278E+01  0.42138511162E+01  0.31391074698E+02  0.31886189868E+02  0.00000000000E+00 0.  1.
         11    1    3    3    0    0  0.12675615775E+02 -0.11259955878E+02 -0.19861926307E+01  0.17070524394E+02  0.51100000000E-03 0.  1.
        -11    1    3    3    0    0 -0.37339938339E+01  0.14269260897E+02 -0.29840464850E+02  0.33286752008E+02  0.51100000000E-03 0. -1.
         12    1    3    3    0    0 -0.52574677132E+01 -0.72231561347E+01  0.43558278319E+00  0.89445337309E+01  0.00000000000E+00 0. -1.
</event>
<event>
 7    1  0.7444241E-013  0.5930195E+02  0.7816164E-02  0.1266605E+00
        -11   -1    0    0    0    0  0.00000000000E+00  0.00000000000E+00  0.45593999997E+02  0.45594000000E+02  0.51100000000E-03 0.  1.
         11   -1    0    0    0    0 -0.00000000000E+00 -0.00000000000E+00 -0.45593999997E+02  0.45594000000E+02  0.51100000000E-03 0. -1.
    9900012    2    1    2    0    0 -0.14689903648E+02 -0.39114695426E+01 -0.28029041933E+02  0.59301952035E+02  0.50000014603E+02 0.  0.
        -12    1    1    2    0    0  0.14689903648E+02  0.39114695426E+01  0.28029041933E+02  0.31886047965E+02  0.00000000000E+00 0.  1.
         11    1    3    3    0    0 -0.74101097365E+01  0.53665800268E+01 -0.20756502249E+02  0.22683524712E+02  0.51100000000E-03 0. -1.
        -11    1    3    3    0    0  0.64436739142E+00  0.68586922610E+01 -0.15414042923E+02  0.16883411633E+02  0.51100000000E-03 0.  1.
        -12    1    3    3    0    0 -0.79241613026E+01 -0.16136741830E+02  0.81415032398E+01  0.19735015689E+02  0.00000000000E+00 0.  1.
</event>
<event>
 7    1  0.7444241E-013  0.5930206E+02  0.7816164E-02  0.1266604E+00
        -11   -1    0    0    0    0  0.00000000000E+00  0.00000000000E+00  0.45593999997E+02  0.45594000000E+02  0.51100000000E-03 0.  1.
         11   -1    0    0    0    0 -0.00000000000E+00 -0.00000000000E+00 -0.45593999997E+02  0.45594000000E+02  0.51100000000E-03 0. -1.
    9900012    2    1    2    0    0 -0.45883056183E+01 -0.45158338944E+01 -0.31229284037E+02  0.59302055045E+02  0.50000202468E+02 0.  0.
        -12    1    1    2    0    0  0.45883056183E+01  0.45158338944E+01  0.31229284037E+02  0.31885944955E+02  0.00000000000E+00 0.  1.
         11    1    3    3    0    0  0.27922945516E+01  0.10246115709E+02 -0.28859048070E+02  0.30751007329E+02  0.51100000000E-03 0. -1.
        -11    1    3    3    0    0  0.87431165956E+00 -0.10737257400E+02 -0.11390799443E+02  0.15678119453E+02  0.51100000000E-03 0.  1.
        -12    1    3    3    0    0 -0.82549118295E+01 -0.40246922034E+01  0.90205634760E+01  0.12872928263E+02  0.00000000000E+00 0.  1.
</event>
<event>
 7    1  0.7444241E-013  0.5930193E+02  0.7816164E-02  0.1266605E+00
        -11   -1    0    0    0    0  0.00000000000E+00  0.00000000000E+00  0.45593999997E+02  0.45594000000E+02  0.51100000000E-03 0.  1.
         11   -1    0    0    0    0 -0.00000000000E+00 -0.00000000000E+00 -0.45593999997E+02  0.45594000000E+02  0.51100000000E-03 0. -1.
    9900012    2    1    2    0    0 -0.16997302061E+02 -0.12858888131E+02 -0.23716283261E+02  0.59301931364E+02  0.49999976905E+02 0.  0.
        -12    1    1    2    0    0  0.16997302061E+02  0.12858888131E+02  0.23716283261E+02  0.31886068636E+02  0.00000000000E+00 0.  1.
         11    1    3    3    0    0 -0.19345584731E+02 -0.10632357948E+02 -0.19369861471E+02  0.29368183767E+02  0.51100000000E-03 0. -1.
        -11    1    3    3    0    0 -0.48509822358E+01 -0.10305913922E+02 -0.12102536742E+02  0.16619725818E+02  0.51100000000E-03 0.  1.
        -12    1    3    3    0    0  0.71992649056E+01  0.80793837385E+01  0.77561149524E+01  0.13314021779E+02  0.00000000000E+00 0.  1.
</event>
<event>
 7    1  0.7444241E-013  0.5930189E+02  0.7816164E-02  0.1266605E+00
        -11   -1    0    0    0    0  0.00000000000E+00  0.00000000000E+00  0.45593999997E+02  0.45594000000E+02  0.51100000000E-03 0.  1.
         11   -1    0    0    0    0 -0.00000000000E+00 -0.00000000000E+00 -0.45593999997E+02  0.45594000000E+02  0.51100000000E-03 0. -1.
    9900012    2    1    2    0    0  0.30064804615E+02 -0.73482254508E+01 -0.76703947432E+01  0.59301892534E+02  0.49999906087E+02 0.  0.
        -12    1    1    2    0    0 -0.30064804615E+02  0.73482254508E+01  0.76703947432E+01  0.31886107466E+02  0.00000000000E+00 0.  1.
         11    1    3    3    0    0  0.90049563806E+01 -0.47279200129E+00  0.40930619968E+01  0.99028242670E+01  0.51100000000E-03 0. -1.
        -11    1    3    3    0    0  0.13052064747E+02  0.12821200849E+02  0.83677071696E+01  0.20118601067E+02  0.51100000000E-03 0.  1.
        -12    1    3    3    0    0  0.80077834880E+01 -0.19696634298E+02 -0.20131163910E+02  0.29280467200E+02  0.00000000000E+00 0.  1.
</event>
<event>
 7    1  0.7444241E-013  0.5930194E+02  0.7816164E-02  0.1266605E+00
        -11   -1    0    0    0    0  0.00000000000E+00  0.00000000000E+00  0.45593999997E+02  0.45594000000E+02  0.51100000000E-03 0.  1.
         11   -1    0    0    0    0 -0.00000000000E+00 -0.00000000000E+00 -0.45593999997E+02  0.45594000000E+02  0.51100000000E-03 0. -1.
    9900012    2    1    2    0    0  0.18578588369E+02  0.20302440582E+01 -0.25834759846E+02  0.59301942654E+02  0.49999997495E+02 0.  0.
        -12    1    1    2    0    0 -0.18578588369E+02 -0.20302440582E+01  0.25834759846E+02  0.31886057346E+02  0.00000000000E+00 0.  1.
         11    1    3    3    0    0 -0.23765073921E+01  0.75055472184E+00 -0.29093629351E+01  0.38308631827E+01  0.51100000000E-03 0. -1.
        -11    1    3    3    0    0 -0.77706850353E+01  0.73112336951E+00  0.94032868828E+01  0.12220470194E+02  0.51100000000E-03 0.  1.
         12    1    3    3    0    0  0.28725780797E+02  0.54856596680E+00 -0.32328683794E+02  0.43250609277E+02  0.00000000000E+00 0. -1.
</event>
<event>
 7    1  0.7444241E-013  0.5930195E+02  0.7816164E-02  0.1266605E+00
        -11   -1    0    0    0    0  0.00000000000E+00  0.00000000000E+00  0.45593999997E+02  0.45594000000E+02  0.51100000000E-03 0.  1.
         11   -1    0    0    0    0 -0.00000000000E+00 -0.00000000000E+00 -0.45593999997E+02  0.45594000000E+02  0.51100000000E-03 0. -1.
    9900012    2    1    2    0    0  0.30188404654E+02  0.53141100206E+01 -0.87829855279E+01  0.59301947005E+02  0.50000005429E+02 0.  0.
        -12    1    1    2    0    0 -0.30188404654E+02 -0.53141100206E+01  0.87829855279E+01  0.31886052995E+02  0.00000000000E+00 0.  1.
         11    1    3    3    0    0  0.61050098920E+01  0.67519259111E+01 -0.72703516054E+01  0.11649792359E+02  0.51100000000E-03 0. -1.
        -11    1    3    3    0    0  0.18181150155E+02  0.84630227593E+01 -0.18393003598E+02  0.27211754019E+02  0.51100000000E-03 0.  1.
        -12    1    3    3    0    0  0.59022446069E+01 -0.99008386499E+01  0.16880369675E+02  0.20440400626E+02  0.00000000000E+00 0.  1.
</event>
<event>
 7    1  0.7444241E-013  0.5930192E+02  0.7816164E-02  0.1266605E+00
        -11   -1    0    0    0    0  0.00000000000E+00  0.00000000000E+00  0.45593999997E+02  0.45594000000E+02  0.51100000000E-03 0.  1.
         11   -1    0    0    0    0 -0.00000000000E+00 -0.00000000000E+00 -0.45593999997E+02  0.45594000000E+02  0.51100000000E-03 0. -1.
    9900012    2    1    2    0    0  0.17507756926E+02 -0.10102939111E+02 -0.24660311417E+02  0.59301923251E+02  0.49999962108E+02 0.  0.
        -12    1    1    2    0    0 -0.17507756926E+02  0.10102939111E+02  0.24660311417E+02  0.31886076749E+02  0.00000000000E+00 0.  1.
         11    1    3    3    0    0 -0.97924635375E+00 -0.10380245534E+02  0.94330548244E+00  0.10468918103E+02  0.51100000000E-03 0. -1.
        -11    1    3    3    0    0  0.36577141630E+01 -0.15540316547E+02 -0.93798009375E+00  0.15992501937E+02  0.51100000000E-03 0.  1.
         12    1    3    3    0    0  0.14829289117E+02  0.15817622970E+02 -0.24665636806E+02  0.32840503211E+02  0.00000000000E+00 0. -1.
</event>
<event>
 7    1  0.7444241E-013  0.5930196E+02  0.7816164E-02  0.1266605E+00
        -11   -1    0    0    0    0  0.00000000000E+00  0.00000000000E+00  0.45593999997E+02  0.45594000000E+02  0.51100000000E-03 0. -1.
         11   -1    0    0    0    0 -0.00000000000E+00 -0.00000000000E+00 -0.45593999997E+02  0.45594000000E+02  0.51100000000E-03 0.  1.
    9900012    2    1    2    0    0  0.22839205298E+02  0.21618274369E+02 -0.52669333991E+01  0.59301958026E+02  0.50000025529E+02 0.  0.
        -12    1    1    2    0    0 -0.22839205298E+02 -0.21618274369E+02  0.52669333991E+01  0.31886041974E+02  0.00000000000E+00 0.  1.
         11    1    3    3    0    0  0.10707731604E+02  0.20462591598E+02 -0.73688980601E+01  0.24241984859E+02  0.51100000000E-03 0. -1.
        -11    1    3    3    0    0 -0.40968382368E+01 -0.56671299764E+01 -0.11055931731E+02  0.13081822213E+02  0.51100000000E-03 0.  1.
         12    1    3    3    0    0  0.16228311931E+02  0.68228127474E+01  0.13157896392E+02  0.21978150954E+02  0.00000000000E+00 0. -1.
</event>
<event>
 7    1  0.7444241E-013  0.5930198E+02  0.7816164E-02  0.1266605E+00
        -11   -1    0    0    0    0  0.00000000000E+00  0.00000000000E+00  0.45593999997E+02  0.45594000000E+02  0.51100000000E-03 0. -1.
         11   -1    0    0    0    0 -0.00000000000E+00 -0.00000000000E+00 -0.45593999997E+02  0.45594000000E+02  0.51100000000E-03 0.  1.
    9900012    2    1    2    0    0  0.24910168721E+01 -0.49307049961E+01  0.31403838741E+02  0.59301982618E+02  0.50000070380E+02 0.  0.
        -12    1    1    2    0    0 -0.24910168721E+01  0.49307049961E+01 -0.31403838741E+02  0.31886017382E+02  0.00000000000E+00 0.  1.
         11    1    3    3    0    0  0.63871917224E+01  0.44426221520E+01  0.42136557943E+02  0.42848834584E+02  0.51100000000E-03 0. -1.
        -11    1    3    3    0    0 -0.38669674434E-01 -0.22926105940E+01  0.75852434310E+00  0.24151434987E+01  0.51100000000E-03 0.  1.
        -12    1    3    3    0    0 -0.38575051758E+01 -0.70807165542E+01 -0.11491243546E+02  0.14038004535E+02  0.00000000000E+00 0.  1.
</event>
<event>
 7    1  0.7444241E-013  0.5930195E+02  0.7816164E-02  0.1266605E+00
        -11   -1    0    0    0    0  0.00000000000E+00  0.00000000000E+00  0.45593999997E+02  0.45594000000E+02  0.51100000000E-03 0. -1.
         11   -1    0    0    0    0 -0.00000000000E+00 -0.00000000000E+00 -0.45593999997E+02  0.45594000000E+02  0.51100000000E-03 0.  1.
    9900012    2    1    2    0    0 -0.24876015499E+02 -0.19770468801E+02  0.26519060699E+01  0.59301949923E+02  0.50000010751E+02 0.  0.
        -12    1    1    2    0    0  0.24876015499E+02  0.19770468801E+02 -0.26519060699E+01  0.31886050077E+02  0.00000000000E+00 0.  1.
         11    1    3    3    0    0 -0.15142253610E+02  0.11912532141E+02 -0.20393341001E+01  0.19374084500E+02  0.51100000000E-03 0. -1.
        -11    1    3    3    0    0 -0.48215489845E+01  0.22516820244E+01  0.10050079157E-01  0.53214197179E+01  0.51100000000E-03 0.  1.
         12    1    3    3    0    0 -0.49122129046E+01 -0.33934682966E+02  0.46811900908E+01  0.34606445705E+02  0.00000000000E+00 0. -1.
</event>
<event>
 7    1  0.7444241E-013  0.5930194E+02  0.7816164E-02  0.1266605E+00
        -11   -1    0    0    0    0  0.00000000000E+00  0.00000000000E+00  0.45593999997E+02  0.45594000000E+02  0.51100000000E-03 0.  1.
         11   -1    0    0    0    0 -0.00000000000E+00 -0.00000000000E+00 -0.45593999997E+02  0.45594000000E+02  0.51100000000E-03 0. -1.
    9900012    2    1    2    0    0 -0.23923025927E+02 -0.23490812752E+00 -0.21079713848E+02  0.59301942118E+02  0.49999996517E+02 0.  0.
        -12    1    1    2    0    0  0.23923025927E+02  0.23490812752E+00  0.21079713848E+02  0.31886057882E+02  0.00000000000E+00 0.  1.
         11    1    3    3    0    0 -0.41608665861E+01  0.39166177699E+01 -0.12527845723E+02  0.13769517937E+02  0.51100000000E-03 0. -1.
        -11    1    3    3    0    0 -0.15140950149E+01  0.45487681608E+01  0.14264414738E+02  0.15048498383E+02  0.51100000000E-03 0.  1.
         12    1    3    3    0    0 -0.18248064326E+02 -0.87002940583E+01 -0.22816282864E+02  0.30483925798E+02  0.00000000000E+00 0. -1.
</event>
<event>
 7    1  0.7444241E-013  0.5930196E+02  0.7816164E-02  0.1266605E+00
        -11   -1    0    0    0    0  0.00000000000E+00  0.00000000000E+00  0.45593999997E+02  0.45594000000E+02  0.51100000000E-03 0.  1.
         11   -1    0    0    0    0 -0.00000000000E+00 -0.00000000000E+00 -0.45593999997E+02  0.45594000000E+02  0.51100000000E-03 0. -1.
    9900012    2    1    2    0    0  0.30563009564E+02  0.88380391514E+01 -0.21239428852E+01  0.59301958806E+02  0.50000026952E+02 0.  0.
        -12    1    1    2    0    0 -0.30563009564E+02 -0.88380391514E+01  0.21239428852E+01  0.31886041194E+02  0.00000000000E+00 0.  1.
         11    1    3    3    0    0  0.32455197524E+02  0.32612179581E+01 -0.15007217038E+02  0.35905319277E+02  0.51100000000E-03 0. -1.
        -11    1    3    3    0    0  0.46649536394E+01 -0.43238932189E+01  0.72599910127E+00  0.64019465776E+01  0.51100000000E-03 0.  1.
        -12    1    3    3    0    0 -0.65571415994E+01  0.99007144121E+01  0.12157275052E+02  0.16994692951E+02  0.00000000000E+00 0.  1.
</event>
<event>
 7    1  0.7444241E-013  0.5930195E+02  0.7816164E-02  0.1266605E+00
        -11   -1    0    0    0    0  0.00000000000E+00  0.00000000000E+00  0.45593999997E+02  0.45594000000E+02  0.51100000000E-03 0.  1.
         11   -1    0    0    0    0 -0.00000000000E+00 -0.00000000000E+00 -0.45593999997E+02  0.45594000000E+02  0.51100000000E-03 0. -1.
    9900012    2    1    2    0    0  0.16046384452E+02  0.26924933444E+02 -0.58550360337E+01  0.59301953806E+02  0.50000017833E+02 0.  0.
        -12    1    1    2    0    0 -0.16046384452E+02 -0.26924933444E+02  0.58550360337E+01  0.31886046194E+02  0.00000000000E+00 0.  1.
         11    1    3    3    0    0  0.54841103528E+01  0.16356904657E+02 -0.97199604183E+01  0.19801551129E+02  0.51100000000E-03 0. -1.
        -11    1    3    3    0    0 -0.10977495483E+02  0.21284372089E+01  0.10598094061E+02  0.15406337982E+02  0.51100000000E-03 0.  1.
         12    1    3    3    0    0  0.21539769582E+02  0.84395915790E+01 -0.67331696760E+01  0.24094064695E+02  0.00000000000E+00 0. -1.
</event>
<event>
 7    1  0.7444241E-013  0.5930196E+02  0.7816164E-02  0.1266605E+00
        -11   -1    0    0    0    0  0.00000000000E+00  0.00000000000E+00  0.45593999997E+02  0.45594000000E+02  0.51100000000E-03 0. -1.
         11   -1    0    0    0    0 -0.00000000000E+00 -0.00000000000E+00 -0.45593999997E+02  0.45594000000E+02  0.51100000000E-03 0.  1.
    9900012    2    1    2    0    0 -0.19563043947E+02 -0.22567467140E+02  0.11167645791E+02  0.59301959573E+02  0.50000028351E+02 0.  0.
        -12    1    1    2    0    0  0.19563043947E+02  0.22567467140E+02 -0.11167645791E+02  0.31886040427E+02  0.00000000000E+00 0.  1.
         11    1    3    3    0    0 -0.49262730852E+00 -0.13180165663E+01  0.79674789551E+01  0.80907706985E+01  0.51100000000E-03 0. -1.
        -11    1    3    3    0    0 -0.59483670738E+01 -0.17008396496E+02  0.21656282186E+02  0.28172028336E+02  0.51100000000E-03 0.  1.
        -12    1    3    3    0    0 -0.13122049565E+02 -0.42410540777E+01 -0.18456115350E+02  0.23039160538E+02  0.00000000000E+00 0.  1.
</event>
<event>
 7    1  0.7444241E-013  0.5930194E+02  0.7816164E-02  0.1266605E+00
        -11   -1    0    0    0    0  0.00000000000E+00  0.00000000000E+00  0.45593999997E+02  0.45594000000E+02  0.51100000000E-03 0.  1.
         11   -1    0    0    0    0 -0.00000000000E+00 -0.00000000000E+00 -0.45593999997E+02  0.45594000000E+02  0.51100000000E-03 0. -1.
    9900012    2    1    2    0    0 -0.23214083753E+02 -0.12497251443E+02  0.17934486143E+02  0.59301940799E+02  0.49999994112E+02 0.  0.
        -12    1    1    2    0    0  0.23214083753E+02  0.12497251443E+02 -0.17934486143E+02  0.31886059201E+02  0.00000000000E+00 0.  1.
         11    1    3    3    0    0 -0.10856443691E+02  0.12781646003E+02  0.21963387960E+02  0.27633734006E+02  0.51100000000E-03 0.  1.
        -11    1    3    3    0    0 -0.36694349669E+01 -0.16221514325E+01  0.35441514671E+01  0.53532362295E+01  0.51100000000E-03 0. -1.
         12    1    3    3    0    0 -0.86882050950E+01 -0.23656746014E+02 -0.75730532843E+01  0.26314970564E+02  0.00000000000E+00 0. -1.
</event>
<event>
 7    1  0.7444241E-013  0.5930194E+02  0.7816164E-02  0.1266605E+00
        -11   -1    0    0    0    0  0.00000000000E+00  0.00000000000E+00  0.45593999997E+02  0.45594000000E+02  0.51100000000E-03 0. -1.
         11   -1    0    0    0    0 -0.00000000000E+00 -0.00000000000E+00 -0.45593999997E+02  0.45594000000E+02  0.51100000000E-03 0.  1.
    9900012    2    1    2    0    0 -0.53496872703E+01 -0.19490435822E+02  0.24662211274E+02  0.59301938667E+02  0.49999990224E+02 0.  0.
        -12    1    1    2    0    0  0.53496872703E+01  0.19490435822E+02 -0.24662211274E+02  0.31886061333E+02  0.00000000000E+00 0.  1.
         11    1    3    3    0    0 -0.35057859080E+01 -0.19695760690E+02  0.12777313682E+02  0.23737591899E+02  0.51100000000E-03 0.  1.
        -11    1    3    3    0    0  0.52519534639E+01  0.14499267515E+01  0.22269051701E+02  0.22925879846E+02  0.51100000000E-03 0. -1.
        -12    1    3    3    0    0 -0.70958548262E+01 -0.12446018829E+01 -0.10384154110E+02  0.12638466922E+02  0.00000000000E+00 0.  1.
</event>
<event>
 7    1  0.7444241E-013  0.5930191E+02  0.7816164E-02  0.1266605E+00
        -11   -1    0    0    0    0  0.00000000000E+00  0.00000000000E+00  0.45593999997E+02  0.45594000000E+02  0.51100000000E-03 0.  1.
         11   -1    0    0    0    0 -0.00000000000E+00 -0.00000000000E+00 -0.45593999997E+02  0.45594000000E+02  0.51100000000E-03 0. -1.
    9900012    2    1    2    0    0  0.14592905132E+02  0.19099884412E+02 -0.20951476710E+02  0.59301908344E+02  0.49999934922E+02 0.  0.
        -12    1    1    2    0    0 -0.14592905132E+02 -0.19099884412E+02  0.20951476710E+02  0.31886091656E+02  0.00000000000E+00 0.  1.
         11    1    3    3    0    0  0.10519403924E+00 -0.41879733462E+01 -0.88577949182E+01  0.97985058865E+01  0.51100000000E-03 0. -1.
        -11    1    3    3    0    0 -0.80994614142E+01  0.23974267132E+02 -0.79844212678E+01  0.26535217032E+02  0.51100000000E-03 0.  1.
        -12    1    3    3    0    0  0.22587172507E+02 -0.68640937345E+00 -0.41092605238E+01  0.22968185426E+02  0.00000000000E+00 0.  1.
</event>
<event>
 7    1  0.7444241E-013  0.5930160E+02  0.7816164E-02  0.1266606E+00
        -11   -1    0    0    0    0  0.00000000000E+00  0.00000000000E+00  0.45593999997E+02  0.45594000000E+02  0.51100000000E-03 0.  1.
         11   -1    0    0    0    0 -0.00000000000E+00 -0.00000000000E+00 -0.45593999997E+02  0.45594000000E+02  0.51100000000E-03 0. -1.
    9900012    2    1    2    0    0  0.28622598198E+01  0.10786229623E+02 -0.29869832839E+02  0.59301604867E+02  0.49999381448E+02 0.  0.
        -12    1    1    2    0    0 -0.28622598198E+01 -0.10786229623E+02  0.29869832839E+02  0.31886395133E+02  0.00000000000E+00 0.  1.
         11    1    3    3    0    0  0.11551480357E+02  0.49380881912E+01 -0.25515839542E+00  0.12565290267E+02  0.51100000000E-03 0.  1.
        -11    1    3    3    0    0  0.10606669434E+02  0.63788655609E+01 -0.23375159025E+02  0.26449752779E+02  0.51100000000E-03 0. -1.
         12    1    3    3    0    0 -0.19295889971E+02 -0.53072412936E+00 -0.62395154183E+01  0.20286561821E+02  0.00000000000E+00 0. -1.
</event>
<event>
 7    1  0.7444241E-013  0.5930195E+02  0.7816164E-02  0.1266605E+00
        -11   -1    0    0    0    0  0.00000000000E+00  0.00000000000E+00  0.45593999997E+02  0.45594000000E+02  0.51100000000E-03 0. -1.
         11   -1    0    0    0    0 -0.00000000000E+00 -0.00000000000E+00 -0.45593999997E+02  0.45594000000E+02  0.51100000000E-03 0.  1.
    9900012    2    1    2    0    0  0.27528597526E+02  0.16088358407E+02 -0.24778338559E+00  0.59301947334E+02  0.50000006030E+02 0.  0.
        -12    1    1    2    0    0 -0.27528597526E+02 -0.16088358407E+02  0.24778338559E+00  0.31886052666E+02  0.00000000000E+00 0.  1.
         11    1    3    3    0    0 -0.25086224242E+01  0.36101073236E+01  0.84215553997E+01  0.94999293138E+01  0.51100000000E-03 0. -1.
        -11    1    3    3    0    0  0.25118421392E+02  0.23728181814E+02  0.36913468141E+00  0.34555722624E+02  0.51100000000E-03 0.  1.
        -12    1    3    3    0    0  0.49187985583E+01 -0.11249930730E+02 -0.90384734667E+01  0.15246295396E+02  0.00000000000E+00 0.  1.
</event>
<event>
 7    1  0.7444241E-013  0.5930195E+02  0.7816164E-02  0.1266605E+00
        -11   -1    0    0    0    0  0.00000000000E+00  0.00000000000E+00  0.45593999997E+02  0.45594000000E+02  0.51100000000E-03 0. -1.
         11   -1    0    0    0    0 -0.00000000000E+00 -0.00000000000E+00 -0.45593999997E+02  0.45594000000E+02  0.51100000000E-03 0.  1.
    9900012    2    1    2    0    0  0.27321846117E+02  0.12269620037E+02 -0.10940436640E+02  0.59301952817E+02  0.50000016029E+02 0.  0.
        -12    1    1    2    0    0 -0.27321846117E+02 -0.12269620037E+02  0.10940436640E+02  0.31886047183E+02  0.00000000000E+00 0.  1.
         11    1    3    3    0    0  0.24148943429E+02 -0.52924164690E+01  0.14141147185E+01  0.24762489001E+02  0.51100000000E-03 0. -1.
        -11    1    3    3    0    0  0.82673889671E+00  0.77537932304E+01  0.84018218670E+01  0.11462784025E+02  0.51100000000E-03 0.  1.
        -12    1    3    3    0    0  0.23461637916E+01  0.98082432759E+01 -0.20756373225E+02  0.23076679791E+02  0.00000000000E+00 0.  1.
</event>
<event>
 7    1  0.7444241E-013  0.5930196E+02  0.7816164E-02  0.1266605E+00
        -11   -1    0    0    0    0  0.00000000000E+00  0.00000000000E+00  0.45593999997E+02  0.45594000000E+02  0.51100000000E-03 0.  1.
         11   -1    0    0    0    0 -0.00000000000E+00 -0.00000000000E+00 -0.45593999997E+02  0.45594000000E+02  0.51100000000E-03 0. -1.
    9900012    2    1    2    0    0  0.94000119939E+01  0.23113790294E+02 -0.19852254470E+02  0.59301960190E+02  0.50000029476E+02 0.  0.
        -12    1    1    2    0    0 -0.94000119939E+01 -0.23113790294E+02  0.19852254470E+02  0.31886039810E+02  0.00000000000E+00 0.  1.
         11    1    3    3    0    0  0.13914622123E+02  0.18741862819E+02 -0.19218843705E+02  0.30236370225E+02  0.51100000000E-03 0. -1.
        -11    1    3    3    0    0 -0.38771068351E+01 -0.33606839352E+01 -0.13275451048E+02  0.14232489407E+02  0.51100000000E-03 0.  1.
        -12    1    3    3    0    0 -0.63750329380E+00  0.77326114095E+01  0.12642040283E+02  0.14833100558E+02  0.00000000000E+00 0.  1.
</event>
<event>
 7    1  0.7444241E-013  0.5930194E+02  0.7816164E-02  0.1266605E+00
        -11   -1    0    0    0    0  0.00000000000E+00  0.00000000000E+00  0.45593999997E+02  0.45594000000E+02  0.51100000000E-03 0. -1.
         11   -1    0    0    0    0 -0.00000000000E+00 -0.00000000000E+00 -0.45593999997E+02  0.45594000000E+02  0.51100000000E-03 0.  1.
    9900012    2    1    2    0    0 -0.13167856668E+02  0.27491400185E+02  0.93568796778E+01  0.59301941437E+02  0.49999995275E+02 0.  0.
        -12    1    1    2    0    0  0.13167856668E+02 -0.27491400185E+02 -0.93568796778E+01  0.31886058563E+02  0.00000000000E+00 0.  1.
         11    1    3    3    0    0  0.10809846070E+02  0.21548114563E+01  0.70454481783E+01  0.13081831858E+02  0.51100000000E-03 0. -1.
        -11    1    3    3    0    0 -0.61537981381E+01  0.23683562464E+02 -0.77725794196E+01  0.25674761023E+02  0.51100000000E-03 0.  1.
         12    1    3    3    0    0 -0.17823904601E+02  0.16530262654E+01  0.10084010919E+02  0.20545348555E+02  0.00000000000E+00 0. -1.
</event>
<event>
 7    1  0.7444241E-013  0.5930193E+02  0.7816164E-02  0.1266605E+00
        -11   -1    0    0    0    0  0.00000000000E+00  0.00000000000E+00  0.45593999997E+02  0.45594000000E+02  0.51100000000E-03 0.  1.
         11   -1    0    0    0    0 -0.00000000000E+00 -0.00000000000E+00 -0.45593999997E+02  0.45594000000E+02  0.51100000000E-03 0. -1.
    9900012    2    1    2    0    0  0.32252599668E+01  0.29774649101E+02 -0.10944837082E+02  0.59301929535E+02  0.49999973568E+02 0.  0.
        -12    1    1    2    0    0 -0.32252599668E+01 -0.29774649101E+02  0.10944837082E+02  0.31886070465E+02  0.00000000000E+00 0.  1.
         11    1    3    3    0    0  0.50762492984E+01  0.12706617547E+02  0.11018611621E+02  0.17568045957E+02  0.51100000000E-03 0. -1.
        -11    1    3    3    0    0  0.58723106879E+01  0.24242605785E+02 -0.15626558564E+02  0.29434287844E+02  0.51100000000E-03 0.  1.
        -12    1    3    3    0    0 -0.77233000195E+01 -0.71745742308E+01 -0.63368901390E+01  0.12299595734E+02  0.00000000000E+00 0.  1.
</event>
<event>
 7    1  0.7444241E-013  0.5930194E+02  0.7816164E-02  0.1266605E+00
        -11   -1    0    0    0    0  0.00000000000E+00  0.00000000000E+00  0.45593999997E+02  0.45594000000E+02  0.51100000000E-03 0. -1.
         11   -1    0    0    0    0 -0.00000000000E+00 -0.00000000000E+00 -0.45593999997E+02  0.45594000000E+02  0.51100000000E-03 0.  1.
    9900012    2    1    2    0    0 -0.28938119593E+02 -0.10228582213E+02  0.86419017489E+01  0.59301935246E+02  0.49999983984E+02 0.  0.
        -12    1    1    2    0    0  0.28938119593E+02  0.10228582213E+02 -0.86419017489E+01  0.31886064754E+02  0.00000000000E+00 0.  1.
         11    1    3    3    0    0  0.17730223634E+01 -0.14184975149E+02  0.99298257214E+01  0.17405705025E+02  0.51100000000E-03 0. -1.
        -11    1    3    3    0    0 -0.11511720603E+02 -0.70393341599E+01 -0.11310513211E+02  0.17606806809E+02  0.51100000000E-03 0.  1.
         12    1    3    3    0    0 -0.19199421353E+02  0.10995727096E+02  0.10022589239E+02  0.24289423413E+02  0.00000000000E+00 0. -1.
</event>
<event>
 7    1  0.7444241E-013  0.5930191E+02  0.7816164E-02  0.1266605E+00
        -11   -1    0    0    0    0  0.00000000000E+00  0.00000000000E+00  0.45593999997E+02  0.45594000000E+02  0.51100000000E-03 0. -1.
         11   -1    0    0    0    0 -0.00000000000E+00 -0.00000000000E+00 -0.45593999997E+02  0.45594000000E+02  0.51100000000E-03 0.  1.
    9900012    2    1    2    0    0 -0.20550454029E+01 -0.15354613017E+02  0.27869973406E+02  0.59301909456E+02  0.49999936950E+02 0.  0.
        -12    1    1    2    0    0  0.20550454029E+01  0.15354613017E+02 -0.27869973406E+02  0.31886090544E+02  0.00000000000E+00 0.  1.
         11    1    3    3    0    0 -0.22655691055E+00  0.56032756558E+01  0.11199813953E+02  0.12525328696E+02  0.51100000000E-03 0. -1.
        -11    1    3    3    0    0 -0.11338803240E+02 -0.16034325869E+02  0.25993153927E+02  0.32577785627E+02  0.51100000000E-03 0.  1.
        -12    1    3    3    0    0  0.95103147477E+01 -0.49235628034E+01 -0.93229944740E+01  0.14198795133E+02  0.00000000000E+00 0.  1.
</event>
<event>
 7    1  0.7444241E-013  0.5930194E+02  0.7816164E-02  0.1266605E+00
        -11   -1    0    0    0    0  0.00000000000E+00  0.00000000000E+00  0.45593999997E+02  0.45594000000E+02  0.51100000000E-03 0.  1.
         11   -1    0    0    0    0 -0.00000000000E+00 -0.00000000000E+00 -0.45593999997E+02  0.45594000000E+02  0.51100000000E-03 0. -1.
    9900012    2    1    2    0    0 -0.21317152604E+02  0.13155773795E+02 -0.19728799270E+02  0.59301938783E+02  0.49999990435E+02 0.  0.
        -12    1    1    2    0    0  0.21317152604E+02 -0.13155773795E+02  0.19728799270E+02  0.31886061217E+02  0.00000000000E+00 0.  1.
         11    1    3    3    0    0  0.58780258266E+01 -0.46129452150E+01  0.37598755183E+00  0.74814315525E+01  0.51100000000E-03 0. -1.
        -11    1    3    3    0    0  0.80424559668E+01  0.27922535658E+01 -0.79529807735E+01  0.11650222375E+02  0.51100000000E-03 0.  1.
         12    1    3    3    0    0 -0.35237634397E+02  0.14976465444E+02 -0.12151806048E+02  0.40170284855E+02  0.00000000000E+00 0. -1.
</event>
<event>
 7    1  0.7444241E-013  0.5930195E+02  0.7816164E-02  0.1266605E+00
        -11   -1    0    0    0    0  0.00000000000E+00  0.00000000000E+00  0.45593999997E+02  0.45594000000E+02  0.51100000000E-03 0.  1.
         11   -1    0    0    0    0 -0.00000000000E+00 -0.00000000000E+00 -0.45593999997E+02  0.45594000000E+02  0.51100000000E-03 0. -1.
    9900012    2    1    2    0    0  0.76665882961E+01  0.30921051632E+02  0.13536198198E+01  0.59301948241E+02  0.50000007684E+02 0.  0.
        -12    1    1    2    0    0 -0.76665882961E+01 -0.30921051632E+02 -0.13536198198E+01  0.31886051759E+02  0.00000000000E+00 0.  1.
         11    1    3    3    0    0 -0.68277626446E+01  0.25540480934E+02  0.29512585515E+01  0.26601587102E+02  0.51100000000E-03 0. -1.
        -11    1    3    3    0    0  0.10452950829E+02  0.83902602089E+01  0.12129736826E+02  0.18077366045E+02  0.51100000000E-03 0.  1.
        -12    1    3    3    0    0  0.40414001122E+01 -0.30096895104E+01 -0.13727375558E+02  0.14622995094E+02  0.00000000000E+00 0.  1.
</event>
<event>
 7    1  0.7444241E-013  0.5930195E+02  0.7816164E-02  0.1266605E+00
        -11   -1    0    0    0    0  0.00000000000E+00  0.00000000000E+00  0.45593999997E+02  0.45594000000E+02  0.51100000000E-03 0.  1.
         11   -1    0    0    0    0 -0.00000000000E+00 -0.00000000000E+00 -0.45593999997E+02  0.45594000000E+02  0.51100000000E-03 0. -1.
    9900012    2    1    2    0    0 -0.71892112044E+01 -0.21487936137E+01 -0.30990608396E+02  0.59301954768E+02  0.50000019588E+02 0.  0.
        -12    1    1    2    0    0  0.71892112044E+01  0.21487936137E+01  0.30990608396E+02  0.31886045232E+02  0.00000000000E+00 0.  1.
         11    1    3    3    0    0 -0.10589964574E+02  0.18400721248E+01 -0.95426329200E+01  0.14373414988E+02  0.51100000000E-03 0. -1.
        -11    1    3    3    0    0 -0.16053193777E+02 -0.70042785896E+01 -0.26596508807E+01  0.17715492995E+02  0.51100000000E-03 0.  1.
        -12    1    3    3    0    0  0.19453947146E+02  0.30154128510E+01 -0.18788324596E+02  0.27213046786E+02  0.00000000000E+00 0.  1.
</event>
<event>
 7    1  0.7444241E-013  0.5930195E+02  0.7816164E-02  0.1266605E+00
        -11   -1    0    0    0    0  0.00000000000E+00  0.00000000000E+00  0.45593999997E+02  0.45594000000E+02  0.51100000000E-03 0.  1.
         11   -1    0    0    0    0 -0.00000000000E+00 -0.00000000000E+00 -0.45593999997E+02  0.45594000000E+02  0.51100000000E-03 0. -1.
    9900012    2    1    2    0    0 -0.37797973040E+00  0.19563553472E+02 -0.25176269602E+02  0.59301952201E+02  0.50000014907E+02 0.  0.
        -12    1    1    2    0    0  0.37797973040E+00 -0.19563553472E+02  0.25176269602E+02  0.31886047799E+02  0.00000000000E+00 0.  1.
         11    1    3    3    0    0  0.17962953836E+02  0.43837829065E+01 -0.11665862965E+02  0.21862699332E+02  0.51100000000E-03 0.  1.
        -11    1    3    3    0    0 -0.42924124257E+01  0.35287340085E+01 -0.17836758027E+02  0.18682256430E+02  0.51100000000E-03 0. -1.
        -12    1    3    3    0    0 -0.14048521141E+02  0.11651036557E+02  0.43263513898E+01  0.18756996440E+02  0.00000000000E+00 0.  1.
</event>
<event>
 7    1  0.7444241E-013  0.5930196E+02  0.7816164E-02  0.1266605E+00
        -11   -1    0    0    0    0  0.00000000000E+00  0.00000000000E+00  0.45593999997E+02  0.45594000000E+02  0.51100000000E-03 0.  1.
         11   -1    0    0    0    0 -0.00000000000E+00 -0.00000000000E+00 -0.45593999997E+02  0.45594000000E+02  0.51100000000E-03 0. -1.
    9900012    2    1    2    0    0  0.10953641315E+02 -0.72008217348E+00 -0.29936915007E+02  0.59301958281E+02  0.50000025995E+02 0.  0.
        -12    1    1    2    0    0 -0.10953641315E+02  0.72008217348E+00  0.29936915007E+02  0.31886041719E+02  0.00000000000E+00 0.  1.
         11    1    3    3    0    0  0.11362331389E+02 -0.13988367405E+01 -0.12182421835E+02  0.16717377810E+02  0.51100000000E-03 0. -1.
        -11    1    3    3    0    0  0.88815639091E+01  0.15367890792E+02 -0.17893204621E+02  0.25203591346E+02  0.51100000000E-03 0.  1.
         12    1    3    3    0    0 -0.92902539836E+01 -0.14689136225E+02  0.13871144863E+00  0.17380989125E+02  0.00000000000E+00 0. -1.
</event>
<event>
 7    1  0.7444241E-013  0.5930186E+02  0.7816164E-02  0.1266605E+00
        -11   -1    0    0    0    0  0.00000000000E+00  0.00000000000E+00  0.45593999997E+02  0.45594000000E+02  0.51100000000E-03 0. -1.
         11   -1    0    0    0    0 -0.00000000000E+00 -0.00000000000E+00 -0.45593999997E+02  0.45594000000E+02  0.51100000000E-03 0.  1.
    9900012    2    1    2    0    0  0.13008874415E+02 -0.51232979315E+01  0.28657408753E+02  0.59301857686E+02  0.49999842534E+02 0.  0.
        -12    1    1    2    0    0 -0.13008874415E+02  0.51232979315E+01 -0.28657408753E+02  0.31886142314E+02  0.00000000000E+00 0.  1.
         11    1    3    3    0    0 -0.55635276087E+00  0.79264942387E-01 -0.60845887439E+01  0.61104853955E+01  0.51100000000E-03 0. -1.
        -11    1    3    3    0    0  0.18507629371E+01  0.15393659615E+02  0.79467880710E+01  0.17422443018E+02  0.51100000000E-03 0.  1.
         12    1    3    3    0    0  0.11714464238E+02 -0.20596222489E+02  0.26795209425E+02  0.35768929273E+02  0.00000000000E+00 0. -1.
</event>
<event>
 7    1  0.7444241E-013  0.5930194E+02  0.7816164E-02  0.1266605E+00
        -11   -1    0    0    0    0  0.00000000000E+00  0.00000000000E+00  0.45593999997E+02  0.45594000000E+02  0.51100000000E-03 0.  1.
         11   -1    0    0    0    0 -0.00000000000E+00 -0.00000000000E+00 -0.45593999997E+02  0.45594000000E+02  0.51100000000E-03 0. -1.
    9900012    2    1    2    0    0  0.27743665980E+02 -0.41018350861E+01 -0.15171838306E+02  0.59301941437E+02  0.49999995275E+02 0.  0.
        -12    1    1    2    0    0 -0.27743665980E+02  0.41018350861E+01  0.15171838306E+02  0.31886058563E+02  0.00000000000E+00 0.  1.
         11    1    3    3    0    0  0.14418581455E+02 -0.61341509252E+00 -0.21545891779E+00  0.14433232211E+02  0.51100000000E-03 0.  1.
        -11    1    3    3    0    0  0.27170518049E+02 -0.59276954640E+01 -0.12916389585E+02  0.30662807190E+02  0.51100000000E-03 0. -1.
        -12    1    3    3    0    0 -0.13845433524E+02  0.24392754705E+01 -0.20399898029E+01  0.14205902037E+02  0.00000000000E+00 0.  1.
</event>
<event>
 7    1  0.7444241E-013  0.5930194E+02  0.7816164E-02  0.1266605E+00
        -11   -1    0    0    0    0  0.00000000000E+00  0.00000000000E+00  0.45593999997E+02  0.45594000000E+02  0.51100000000E-03 0.  1.
         11   -1    0    0    0    0 -0.00000000000E+00 -0.00000000000E+00 -0.45593999997E+02  0.45594000000E+02  0.51100000000E-03 0. -1.
    9900012    2    1    2    0    0 -0.58387541377E+01 -0.11238206051E+02 -0.29263156995E+02  0.59301942193E+02  0.49999996654E+02 0.  0.
        -12    1    1    2    0    0  0.58387541377E+01  0.11238206051E+02  0.29263156995E+02  0.31886057807E+02  0.00000000000E+00 0.  1.
         11    1    3    3    0    0 -0.65655546393E+01 -0.11981790667E+02 -0.12894956776E+02  0.18786956269E+02  0.51100000000E-03 0.  1.
        -11    1    3    3    0    0  0.63002615718E+01 -0.77693321977E+01 -0.25155099947E+02  0.27070923004E+02  0.51100000000E-03 0. -1.
        -12    1    3    3    0    0 -0.55734610701E+01  0.85129168140E+01  0.87868997282E+01  0.13444062921E+02  0.00000000000E+00 0.  1.
</event>
<event>
 7    1  0.7444241E-013  0.5930194E+02  0.7816164E-02  0.1266605E+00
        -11   -1    0    0    0    0  0.00000000000E+00  0.00000000000E+00  0.45593999997E+02  0.45594000000E+02  0.51100000000E-03 0.  1.
         11   -1    0    0    0    0 -0.00000000000E+00 -0.00000000000E+00 -0.45593999997E+02  0.45594000000E+02  0.51100000000E-03 0. -1.
    9900012    2    1    2    0    0  0.30958504066E+02 -0.56026858990E+01 -0.51867120750E+01  0.59301936501E+02  0.49999986274E+02 0.  0.
        -12    1    1    2    0    0 -0.30958504066E+02  0.56026858990E+01  0.51867120750E+01  0.31886063499E+02  0.00000000000E+00 0.  1.
         11    1    3    3    0    0 -0.10364126071E+02 -0.54133884617E+01 -0.32749621456E+01  0.12142704030E+02  0.51100000000E-03 0. -1.
        -11    1    3    3    0    0  0.68901501306E+01  0.19159010939E+00  0.87250396504E+01  0.11119226266E+02  0.51100000000E-03 0.  1.
        -12    1    3    3    0    0  0.34432480006E+02 -0.38088754671E+00 -0.10636789580E+02  0.36040006205E+02  0.00000000000E+00 0.  1.
</event>
<event>
 7    1  0.7444241E-013  0.5930195E+02  0.7816164E-02  0.1266605E+00
        -11   -1    0    0    0    0  0.00000000000E+00  0.00000000000E+00  0.45593999997E+02  0.45594000000E+02  0.51100000000E-03 0.  1.
         11   -1    0    0    0    0 -0.00000000000E+00 -0.00000000000E+00 -0.45593999997E+02  0.45594000000E+02  0.51100000000E-03 0. -1.
    9900012    2    1    2    0    0 -0.24118963827E+02  0.16343504912E+02 -0.12957070153E+02  0.59301949196E+02  0.50000009426E+02 0.  0.
        -12    1    1    2    0    0  0.24118963827E+02 -0.16343504912E+02  0.12957070153E+02  0.31886050804E+02  0.00000000000E+00 0.  1.
         11    1    3    3    0    0 -0.19477542599E+02 -0.93190465840E+01 -0.20346311965E+02  0.29668024972E+02  0.51100000000E-03 0. -1.
        -11    1    3    3    0    0 -0.50732141267E+01  0.68567356555E+01  0.66380712052E+01  0.10808159650E+02  0.51100000000E-03 0.  1.
        -12    1    3    3    0    0  0.43179289799E+00  0.18805815840E+02  0.75117060596E+00  0.18825764574E+02  0.00000000000E+00 0.  1.
</event>
<event>
 7    1  0.7444241E-013  0.5930196E+02  0.7816164E-02  0.1266605E+00
        -11   -1    0    0    0    0  0.00000000000E+00  0.00000000000E+00  0.45593999997E+02  0.45594000000E+02  0.51100000000E-03 0.  1.
         11   -1    0    0    0    0 -0.00000000000E+00 -0.00000000000E+00 -0.45593999997E+02  0.45594000000E+02  0.51100000000E-03 0. -1.
    9900012    2    1    2    0    0  0.14917848046E+02 -0.27352897431E+02 -0.67820599816E+01  0.59301960331E+02  0.50000029733E+02 0.  0.
        -12    1    1    2    0    0 -0.14917848046E+02  0.27352897431E+02  0.67820599816E+01  0.31886039669E+02  0.00000000000E+00 0.  1.
         11    1    3    3    0    0 -0.48292955477E+01 -0.15964615058E+01 -0.46663639523E+01  0.69025891970E+01  0.51100000000E-03 0. -1.
        -11    1    3    3    0    0 -0.10136233950E+02 -0.18352229256E+02  0.30368557830E+01  0.21184193416E+02  0.51100000000E-03 0.  1.
        -12    1    3    3    0    0  0.29883377544E+02 -0.74042066688E+01 -0.51525518123E+01  0.31215177718E+02  0.00000000000E+00 0.  1.
</event>
<event>
 7    1  0.7444241E-013  0.5930194E+02  0.7816164E-02  0.1266605E+00
        -11   -1    0    0    0    0  0.00000000000E+00  0.00000000000E+00  0.45593999997E+02  0.45594000000E+02  0.51100000000E-03 0.  1.
         11   -1    0    0    0    0 -0.00000000000E+00 -0.00000000000E+00 -0.45593999997E+02  0.45594000000E+02  0.51100000000E-03 0. -1.
    9900012    2    1    2    0    0  0.29102723071E+02  0.12352527587E+02  0.41433875239E+01  0.59301935832E+02  0.49999985053E+02 0.  0.
        -12    1    1    2    0    0 -0.29102723071E+02 -0.12352527587E+02 -0.41433875239E+01  0.31886064168E+02  0.00000000000E+00 0.  1.
         11    1    3    3    0    0  0.12068390647E+02  0.89397164611E+00 -0.45583497635E+00  0.12110038146E+02  0.51100000000E-03 0. -1.
        -11    1    3    3    0    0  0.12340577438E+02  0.38035962107E+01 -0.18412958160E+02  0.22489869366E+02  0.51100000000E-03 0.  1.
         12    1    3    3    0    0  0.46937549865E+01  0.76549597303E+01  0.23012180660E+02  0.24702028320E+02  0.00000000000E+00 0. -1.
</event>
<event>
 7    1  0.7444241E-013  0.5930194E+02  0.7816164E-02  0.1266605E+00
        -11   -1    0    0    0    0  0.00000000000E+00  0.00000000000E+00  0.45593999997E+02  0.45594000000E+02  0.51100000000E-03 0.  1.
         11   -1    0    0    0    0 -0.00000000000E+00 -0.00000000000E+00 -0.45593999997E+02  0.45594000000E+02  0.51100000000E-03 0. -1.
    9900012    2    1    2    0    0  0.50886670541E+01 -0.12678607367E+02 -0.28811090511E+02  0.59301944214E+02  0.50000000339E+02 0.  0.
        -12    1    1    2    0    0 -0.50886670541E+01  0.12678607367E+02  0.28811090511E+02  0.31886055786E+02  0.00000000000E+00 0.  1.
         11    1    3    3    0    0  0.13272825840E+01 -0.38020326627E+01 -0.62661682972E+01  0.74486238203E+01  0.51100000000E-03 0. -1.
        -11    1    3    3    0    0 -0.80246408938E+01 -0.24168708594E+02 -0.19996813751E+02  0.32378911301E+02  0.51100000000E-03 0.  1.
        -12    1    3    3    0    0  0.11786025364E+02  0.15292133890E+02 -0.25481084630E+01  0.19474409093E+02  0.00000000000E+00 0.  1.
</event>
<event>
 7    1  0.7444241E-013  0.5930196E+02  0.7816164E-02  0.1266605E+00
        -11   -1    0    0    0    0  0.00000000000E+00  0.00000000000E+00  0.45593999997E+02  0.45594000000E+02  0.51100000000E-03 0. -1.
         11   -1    0    0    0    0 -0.00000000000E+00 -0.00000000000E+00 -0.45593999997E+02  0.45594000000E+02  0.51100000000E-03 0.  1.
    9900012    2    1    2    0    0 -0.15136211974E+01  0.99822404429E+01  0.30245381560E+02  0.59301964199E+02  0.50000036787E+02 0.  0.
        -12    1    1    2    0    0  0.15136211974E+01 -0.99822404429E+01 -0.30245381560E+02  0.31886035801E+02  0.00000000000E+00 0.  1.
         11    1    3    3    0    0 -0.13086676706E+02  0.16060869954E+02  0.78871469539E+01  0.22167989043E+02  0.51100000000E-03 0. -1.
        -11    1    3    3    0    0 -0.31732458531E+01  0.66667610816E+01 -0.11710036529E+00  0.73843689859E+01  0.51100000000E-03 0.  1.
         12    1    3    3    0    0  0.14746301361E+02 -0.12745390592E+02  0.22475334972E+02  0.29749606170E+02  0.00000000000E+00 0. -1.
</event>
<event>
 7    1  0.7444241E-013  0.5930195E+02  0.7816164E-02  0.1266605E+00
        -11   -1    0    0    0    0  0.00000000000E+00  0.00000000000E+00  0.45593999997E+02  0.45594000000E+02  0.51100000000E-03 0. -1.
         11   -1    0    0    0    0 -0.00000000000E+00 -0.00000000000E+00 -0.45593999997E+02  0.45594000000E+02  0.51100000000E-03 0.  1.
    9900012    2    1    2    0    0 -0.85646239883E+01  0.13817124449E+02  0.27430907920E+02  0.59301946286E+02  0.50000004119E+02 0.  0.
        -12    1    1    2    0    0  0.85646239883E+01 -0.13817124449E+02 -0.27430907920E+02  0.31886053714E+02  0.00000000000E+00 0.  1.
         11    1    3    3    0    0 -0.10766646705E+02 -0.14274564667E+02  0.20919751466E+02  0.27519445477E+02  0.51100000000E-03 0. -1.
        -11    1    3    3    0    0 -0.42446600434E+01  0.41646489513E+01 -0.66610720019E+00  0.59837395360E+01  0.51100000000E-03 0.  1.
        -12    1    3    3    0    0  0.64466827604E+01  0.23927040165E+02  0.71772636542E+01  0.25798761273E+02  0.00000000000E+00 0.  1.
</event>
<event>
 7    1  0.7444241E-013  0.5930195E+02  0.7816164E-02  0.1266605E+00
        -11   -1    0    0    0    0  0.00000000000E+00  0.00000000000E+00  0.45593999997E+02  0.45594000000E+02  0.51100000000E-03 0.  1.
         11   -1    0    0    0    0 -0.00000000000E+00 -0.00000000000E+00 -0.45593999997E+02  0.45594000000E+02  0.51100000000E-03 0. -1.
    9900012    2    1    2    0    0 -0.15787542796E+02 -0.27607954650E+02 -0.22966253505E+01  0.59301950456E+02  0.50000011724E+02 0.  0.
        -12    1    1    2    0    0  0.15787542796E+02  0.27607954650E+02  0.22966253505E+01  0.31886049544E+02  0.00000000000E+00 0.  1.
         11    1    3    3    0    0 -0.22298192313E+02 -0.28181137939E+02 -0.55517840248E+01  0.36362181206E+02  0.51100000000E-03 0.  1.
        -11    1    3    3    0    0 -0.31581390734E+01 -0.17941340509E+00 -0.76906209567E+01  0.83157490665E+01  0.51100000000E-03 0. -1.
        -12    1    3    3    0    0  0.96687885903E+01  0.75259669358E+00  0.10945779631E+02  0.14624020183E+02  0.00000000000E+00 0.  1.
</event>
<event>
 7    1  0.7444241E-013  0.5930194E+02  0.7816164E-02  0.1266605E+00
        -11   -1    0    0    0    0  0.00000000000E+00  0.00000000000E+00  0.45593999997E+02  0.45594000000E+02  0.51100000000E-03 0. -1.
         11   -1    0    0    0    0 -0.00000000000E+00 -0.00000000000E+00 -0.45593999997E+02  0.45594000000E+02  0.51100000000E-03 0.  1.
    9900012    2    1    2    0    0 -0.21505025997E+02 -0.69647858098E+01  0.22488802956E+02  0.59301942813E+02  0.49999997785E+02 0.  0.
        -12    1    1    2    0    0  0.21505025997E+02  0.69647858098E+01 -0.22488802956E+02  0.31886057187E+02  0.00000000000E+00 0.  1.
         11    1    3    3    0    0  0.10023604976E+02  0.62448347780E+01 -0.17583535559E+01  0.11939950821E+02  0.51100000000E-03 0. -1.
        -11    1    3    3    0    0 -0.11081501378E+02  0.59522462926E+01  0.61311696322E+01  0.13993575313E+02  0.51100000000E-03 0.  1.
        -12    1    3    3    0    0 -0.20447129596E+02 -0.19161866880E+02  0.18115986880E+02  0.33368416679E+02  0.00000000000E+00 0.  1.
</event>
<event>
 7    1  0.7444241E-013  0.5930198E+02  0.7816164E-02  0.1266605E+00
        -11   -1    0    0    0    0  0.00000000000E+00  0.00000000000E+00  0.45593999997E+02  0.45594000000E+02  0.51100000000E-03 0. -1.
         11   -1    0    0    0    0 -0.00000000000E+00 -0.00000000000E+00 -0.45593999997E+02  0.45594000000E+02  0.51100000000E-03 0.  1.
    9900012    2    1    2    0    0 -0.47348787584E+01  0.68631704432E+01  0.30776552064E+02  0.59301978888E+02  0.50000063577E+02 0.  0.
        -12    1    1    2    0    0  0.47348787584E+01 -0.68631704432E+01 -0.30776552064E+02  0.31886021112E+02  0.00000000000E+00 0.  1.
         11    1    3    3    0    0 -0.45664463941E+01  0.21862579228E+02  0.15002695690E+02  0.26905495376E+02  0.51100000000E-03 0. -1.
        -11    1    3    3    0    0 -0.10241695626E+02 -0.30068499666E+01  0.76049434180E+00  0.10701019948E+02  0.51100000000E-03 0.  1.
         12    1    3    3    0    0  0.10073263262E+02 -0.11992558818E+02  0.15013362032E+02  0.21695463564E+02  0.00000000000E+00 0. -1.
</event>
<event>
 7    1  0.7444241E-013  0.5930190E+02  0.7816164E-02  0.1266605E+00
        -11   -1    0    0    0    0  0.00000000000E+00  0.00000000000E+00  0.45593999997E+02  0.45594000000E+02  0.51100000000E-03 0.  1.
         11   -1    0    0    0    0 -0.00000000000E+00 -0.00000000000E+00 -0.45593999997E+02  0.45594000000E+02  0.51100000000E-03 0. -1.
    9900012    2    1    2    0    0  0.13069724234E+02 -0.22843969060E+02 -0.18001635705E+02  0.59301897980E+02  0.49999916021E+02 0.  0.
        -12    1    1    2    0    0 -0.13069724234E+02  0.22843969060E+02  0.18001635705E+02  0.31886102020E+02  0.00000000000E+00 0.  1.
         11    1    3    3    0    0 -0.16064452176E+01  0.57013181383E+01  0.92467387753E+01  0.10981250976E+02  0.51100000000E-03 0. -1.
        -11    1    3    3    0    0 -0.30892926851E+01  0.46145566502E+00  0.17870417134E+01  0.35986370992E+01  0.51100000000E-03 0.  1.
         12    1    3    3    0    0  0.17765462137E+02 -0.29006742863E+02 -0.29035416194E+02  0.44722009906E+02  0.00000000000E+00 0. -1.
</event>
<event>
 7    1  0.7444241E-013  0.5930193E+02  0.7816164E-02  0.1266605E+00
        -11   -1    0    0    0    0  0.00000000000E+00  0.00000000000E+00  0.45593999997E+02  0.45594000000E+02  0.51100000000E-03 0. -1.
         11   -1    0    0    0    0 -0.00000000000E+00 -0.00000000000E+00 -0.45593999997E+02  0.45594000000E+02  0.51100000000E-03 0.  1.
    9900012    2    1    2    0    0  0.58807721819E+01 -0.13467888255E+01  0.31310132055E+02  0.59301926380E+02  0.49999967815E+02 0.  0.
        -12    1    1    2    0    0 -0.58807721819E+01  0.13467888255E+01 -0.31310132055E+02  0.31886073620E+02  0.00000000000E+00 0.  1.
         11    1    3    3    0    0  0.67695687608E+00 -0.49263867947E+01  0.10332837726E+02  0.11467130992E+02  0.51100000000E-03 0. -1.
        -11    1    3    3    0    0 -0.16052251209E+01 -0.14706725536E+02  0.23895967486E+02  0.28104835635E+02  0.51100000000E-03 0.  1.
        -12    1    3    3    0    0  0.68090404267E+01  0.18286323505E+02 -0.29186731570E+01  0.19729959754E+02  0.00000000000E+00 0.  1.
</event>
<event>
 7    1  0.7444241E-013  0.5930193E+02  0.7816164E-02  0.1266605E+00
        -11   -1    0    0    0    0  0.00000000000E+00  0.00000000000E+00  0.45593999997E+02  0.45594000000E+02  0.51100000000E-03 0.  1.
         11   -1    0    0    0    0 -0.00000000000E+00 -0.00000000000E+00 -0.45593999997E+02  0.45594000000E+02  0.51100000000E-03 0. -1.
    9900012    2    1    2    0    0  0.16462198640E+01  0.10957760699E+02 -0.29898810023E+02  0.59301930939E+02  0.49999976129E+02 0.  0.
        -12    1    1    2    0    0 -0.16462198640E+01 -0.10957760699E+02  0.29898810023E+02  0.31886069061E+02  0.00000000000E+00 0.  1.
         11    1    3    3    0    0 -0.73704717355E+01  0.67119459968E+01 -0.15351330159E+02  0.18304027169E+02  0.51100000000E-03 0. -1.
        -11    1    3    3    0    0 -0.13766322729E+02  0.58203949521E+01 -0.91731732555E+01  0.17536697144E+02  0.51100000000E-03 0.  1.
        -12    1    3    3    0    0  0.22783014328E+02 -0.15745802500E+01 -0.53743066087E+01  0.23461206626E+02  0.00000000000E+00 0.  1.
</event>
<event>
 7    1  0.7444241E-013  0.5930195E+02  0.7816164E-02  0.1266605E+00
        -11   -1    0    0    0    0  0.00000000000E+00  0.00000000000E+00  0.45593999997E+02  0.45594000000E+02  0.51100000000E-03 0. -1.
         11   -1    0    0    0    0 -0.00000000000E+00 -0.00000000000E+00 -0.45593999997E+02  0.45594000000E+02  0.51100000000E-03 0.  1.
    9900012    2    1    2    0    0 -0.55211483671E+01 -0.96120058617E+00  0.31389697337E+02  0.59301951566E+02  0.50000013748E+02 0.  0.
        -12    1    1    2    0    0  0.55211483671E+01  0.96120058617E+00 -0.31389697337E+02  0.31886048434E+02  0.00000000000E+00 0.  1.
         11    1    3    3    0    0 -0.15360855408E+02  0.86242592202E+01  0.79883817658E+01  0.19342904887E+02  0.51100000000E-03 0. -1.
        -11    1    3    3    0    0  0.48421337656E+01 -0.86685511466E+01 -0.49928241789E+01  0.11113880147E+02  0.51100000000E-03 0.  1.
         12    1    3    3    0    0  0.49975732751E+01 -0.91690865976E+00  0.28394139750E+02  0.28845166532E+02  0.00000000000E+00 0. -1.
</event>
<event>
 7    1  0.7444241E-013  0.5930194E+02  0.7816164E-02  0.1266605E+00
        -11   -1    0    0    0    0  0.00000000000E+00  0.00000000000E+00  0.45593999997E+02  0.45594000000E+02  0.51100000000E-03 0. -1.
         11   -1    0    0    0    0 -0.00000000000E+00 -0.00000000000E+00 -0.45593999997E+02  0.45594000000E+02  0.51100000000E-03 0.  1.
    9900012    2    1    2    0    0  0.43241916907E+01  0.26458771497E+02  0.17261381343E+02  0.59301944917E+02  0.50000001621E+02 0.  0.
        -12    1    1    2    0    0 -0.43241916907E+01 -0.26458771497E+02 -0.17261381343E+02  0.31886055083E+02  0.00000000000E+00 0.  1.
         11    1    3    3    0    0  0.47906278484E+01  0.48084668054E+01  0.18035541771E+02  0.19270501692E+02  0.51100000000E-03 0. -1.
        -11    1    3    3    0    0  0.56647155855E+01  0.78176847017E+01  0.15214149189E+02  0.18018755023E+02  0.51100000000E-03 0.  1.
        -12    1    3    3    0    0 -0.61311517432E+01  0.13832619990E+02 -0.15988309617E+02  0.22012688202E+02  0.00000000000E+00 0.  1.
</event>
<event>
 7    1  0.7444241E-013  0.5930184E+02  0.7816164E-02  0.1266605E+00
        -11   -1    0    0    0    0  0.00000000000E+00  0.00000000000E+00  0.45593999997E+02  0.45594000000E+02  0.51100000000E-03 0.  1.
         11   -1    0    0    0    0 -0.00000000000E+00 -0.00000000000E+00 -0.45593999997E+02  0.45594000000E+02  0.51100000000E-03 0. -1.
    9900012    2    1    2    0    0 -0.47823326290E+00 -0.70105964263E+01 -0.31102247276E+02  0.59301843835E+02  0.49999817273E+02 0.  0.
        -12    1    1    2    0    0  0.47823326290E+00  0.70105964263E+01  0.31102247276E+02  0.31886156165E+02  0.00000000000E+00 0.  1.
         11    1    3    3    0    0  0.73976096871E+01 -0.29936434826E+01  0.34641177888E-01  0.79804593011E+01  0.51100000000E-03 0. -1.
        -11    1    3    3    0    0  0.72742146241E+00  0.14413980922E+02 -0.36771987959E+00  0.14437008215E+02  0.51100000000E-03 0.  1.
         12    1    3    3    0    0 -0.86032644124E+01 -0.18430933866E+02 -0.30769168575E+02  0.36884376320E+02  0.00000000000E+00 0. -1.
</event>
<event>
 7    1  0.7444241E-013  0.5930196E+02  0.7816164E-02  0.1266605E+00
        -11   -1    0    0    0    0  0.00000000000E+00  0.00000000000E+00  0.45593999997E+02  0.45594000000E+02  0.51100000000E-03 0. -1.
         11   -1    0    0    0    0 -0.00000000000E+00 -0.00000000000E+00 -0.45593999997E+02  0.45594000000E+02  0.51100000000E-03 0.  1.
    9900012    2    1    2    0    0 -0.18627643567E+02 -0.13609874090E+01  0.25843342837E+02  0.59301956649E+02  0.50000023019E+02 0.  0.
        -12    1    1    2    0    0  0.18627643567E+02  0.13609874090E+01 -0.25843342837E+02  0.31886043351E+02  0.00000000000E+00 0.  1.
         11    1    3    3    0    0  0.39677058470E+01 -0.12071786662E+02  0.14419369632E+02  0.19219493847E+02  0.51100000000E-03 0. -1.
        -11    1    3    3    0    0  0.58214559193E+01 -0.12398941091E+00  0.73830569207E+01  0.94028853098E+01  0.51100000000E-03 0.  1.
         12    1    3    3    0    0 -0.28416805333E+02  0.10834788664E+02  0.40409162843E+01  0.30679577493E+02  0.00000000000E+00 0. -1.
</event>
<event>
 7    1  0.7444241E-013  0.5930194E+02  0.7816164E-02  0.1266605E+00
        -11   -1    0    0    0    0  0.00000000000E+00  0.00000000000E+00  0.45593999997E+02  0.45594000000E+02  0.51100000000E-03 0. -1.
         11   -1    0    0    0    0 -0.00000000000E+00 -0.00000000000E+00 -0.45593999997E+02  0.45594000000E+02  0.51100000000E-03 0.  1.
    9900012    2    1    2    0    0 -0.12213828131E+01  0.25570664520E+02  0.19009735903E+02  0.59301941619E+02  0.49999995607E+02 0.  0.
        -12    1    1    2    0    0  0.12213828131E+01 -0.25570664520E+02 -0.19009735903E+02  0.31886058381E+02  0.00000000000E+00 0.  1.
         11    1    3    3    0    0 -0.77927616071E+01  0.51502710524E+01  0.65780034398E+00  0.93640336891E+01  0.51100000000E-03 0. -1.
        -11    1    3    3    0    0  0.19209705296E+02 -0.28362672945E+01  0.39897902997E+01  0.19823612603E+02  0.51100000000E-03 0.  1.
         12    1    3    3    0    0 -0.12638326502E+02  0.23256660762E+02  0.14362145259E+02  0.30114295327E+02  0.00000000000E+00 0. -1.
</event>
<event>
 7    1  0.7444241E-013  0.5930195E+02  0.7816164E-02  0.1266605E+00
        -11   -1    0    0    0    0  0.00000000000E+00  0.00000000000E+00  0.45593999997E+02  0.45594000000E+02  0.51100000000E-03 0.  1.
         11   -1    0    0    0    0 -0.00000000000E+00 -0.00000000000E+00 -0.45593999997E+02  0.45594000000E+02  0.51100000000E-03 0. -1.
    9900012    2    1    2    0    0 -0.16098886276E+02 -0.11198899896E+02 -0.25142203116E+02  0.59301954843E+02  0.50000019725E+02 0.  0.
        -12    1    1    2    0    0  0.16098886276E+02  0.11198899896E+02  0.25142203116E+02  0.31886045157E+02  0.00000000000E+00 0.  1.
         11    1    3    3    0    0 -0.47680514451E+00 -0.86972620880E+01 -0.22969339252E+02  0.24565428083E+02  0.51100000000E-03 0. -1.
        -11    1    3    3    0    0  0.44449818281E+01 -0.11724773537E+02 -0.16314586535E+01  0.12644755258E+02  0.51100000000E-03 0.  1.
        -12    1    3    3    0    0 -0.20067062960E+02  0.92231357284E+01 -0.54140521064E+00  0.22091771502E+02  0.00000000000E+00 0.  1.
</event>
<event>
 7    1  0.7444241E-013  0.5930196E+02  0.7816164E-02  0.1266605E+00
        -11   -1    0    0    0    0  0.00000000000E+00  0.00000000000E+00  0.45593999997E+02  0.45594000000E+02  0.51100000000E-03 0.  1.
         11   -1    0    0    0    0 -0.00000000000E+00 -0.00000000000E+00 -0.45593999997E+02  0.45594000000E+02  0.51100000000E-03 0. -1.
    9900012    2    1    2    0    0 -0.25978139434E+02 -0.15451045007E+02 -0.10154860065E+02  0.59301957549E+02  0.50000024659E+02 0.  0.
        -12    1    1    2    0    0  0.25978139434E+02  0.15451045007E+02  0.10154860065E+02  0.31886042451E+02  0.00000000000E+00 0.  1.
         11    1    3    3    0    0  0.37794187631E+01 -0.13896784127E+02 -0.37534355479E+01  0.14882637331E+02  0.51100000000E-03 0. -1.
        -11    1    3    3    0    0 -0.88459113822E+01 -0.14345131530E+02 -0.10070645263E+02  0.19632902054E+02  0.51100000000E-03 0.  1.
        -12    1    3    3    0    0 -0.20911646815E+02  0.12790870650E+02  0.36692207453E+01  0.24786418163E+02  0.00000000000E+00 0.  1.
</event>
<event>
 7    1  0.7444241E-013  0.5930192E+02  0.7816164E-02  0.1266605E+00
        -11   -1    0    0    0    0  0.00000000000E+00  0.00000000000E+00  0.45593999997E+02  0.45594000000E+02  0.51100000000E-03 0.  1.
         11   -1    0    0    0    0 -0.00000000000E+00 -0.00000000000E+00 -0.45593999997E+02  0.45594000000E+02  0.51100000000E-03 0. -1.
    9900012    2    1    2    0    0 -0.31005749649E+02 -0.46656027941E+01 -0.57963354003E+01  0.59301923653E+02  0.49999962841E+02 0.  0.
        -12    1    1    2    0    0  0.31005749649E+02  0.46656027941E+01  0.57963354003E+01  0.31886076347E+02  0.00000000000E+00 0.  1.
         11    1    3    3    0    0 -0.11583802489E+02 -0.66993781367E+01  0.13334736215E+02  0.18891303230E+02  0.51100000000E-03 0. -1.
        -11    1    3    3    0    0 -0.46817032668E+01 -0.12651534517E+02 -0.23793690872E+01  0.13698214067E+02  0.51100000000E-03 0.  1.
         12    1    3    3    0    0 -0.14740243894E+02  0.14685309860E+02 -0.16751702528E+02  0.26712406356E+02  0.00000000000E+00 0. -1.
</event>
<event>
 7    1  0.7444241E-013  0.5930194E+02  0.7816164E-02  0.1266605E+00
        -11   -1    0    0    0    0  0.00000000000E+00  0.00000000000E+00  0.45593999997E+02  0.45594000000E+02  0.51100000000E-03 0.  1.
         11   -1    0    0    0    0 -0.00000000000E+00 -0.00000000000E+00 -0.45593999997E+02  0.45594000000E+02  0.51100000000E-03 0. -1.
    9900012    2    1    2    0    0 -0.28928323591E+02 -0.99004653132E+00 -0.13375068457E+02  0.59301944205E+02  0.50000000323E+02 0.  0.
        -12    1    1    2    0    0  0.28928323591E+02  0.99004653132E+00  0.13375068457E+02  0.31886055795E+02  0.00000000000E+00 0.  1.
         11    1    3    3    0    0  0.15419061190E+01 -0.92846828115E+01 -0.54560702824E+01  0.10878948137E+02  0.51100000000E-03 0. -1.
        -11    1    3    3    0    0 -0.22291670949E+02  0.43370126684E+01  0.12608198933E+02  0.25974890821E+02  0.51100000000E-03 0.  1.
         12    1    3    3    0    0 -0.81785587612E+01  0.39576236118E+01 -0.20527197107E+02  0.22448105246E+02  0.00000000000E+00 0. -1.
</event>
<event>
 7    1  0.7444241E-013  0.5930194E+02  0.7816164E-02  0.1266605E+00
        -11   -1    0    0    0    0  0.00000000000E+00  0.00000000000E+00  0.45593999997E+02  0.45594000000E+02  0.51100000000E-03 0. -1.
         11   -1    0    0    0    0 -0.00000000000E+00 -0.00000000000E+00 -0.45593999997E+02  0.45594000000E+02  0.51100000000E-03 0.  1.
    9900012    2    1    2    0    0 -0.66726159821E-01  0.23619404487E+02 -0.21420556753E+02  0.59301937648E+02  0.49999988365E+02 0.  0.
        -12    1    1    2    0    0  0.66726159821E-01 -0.23619404487E+02  0.21420556753E+02  0.31886062352E+02  0.00000000000E+00 0.  1.
         11    1    3    3    0    0 -0.81713429280E+01  0.22954457890E+02  0.67129541878E+01  0.25273340429E+02  0.51100000000E-03 0. -1.
        -11    1    3    3    0    0 -0.47871187575E+01  0.33432505589E+01 -0.68439162779E+01  0.89962781514E+01  0.51100000000E-03 0.  1.
        -12    1    3    3    0    0  0.12891735526E+02 -0.26783039619E+01 -0.21289594663E+02  0.25032319067E+02  0.00000000000E+00 0.  1.
</event>
<event>
 7    1  0.7444241E-013  0.5930194E+02  0.7816164E-02  0.1266605E+00
        -11   -1    0    0    0    0  0.00000000000E+00  0.00000000000E+00  0.45593999997E+02  0.45594000000E+02  0.51100000000E-03 0.  1.
         11   -1    0    0    0    0 -0.00000000000E+00 -0.00000000000E+00 -0.45593999997E+02  0.45594000000E+02  0.51100000000E-03 0. -1.
    9900012    2    1    2    0    0 -0.11990808596E+02  0.60054337765E+01 -0.28928810505E+02  0.59301940305E+02  0.49999993210E+02 0.  0.
        -12    1    1    2    0    0  0.11990808596E+02 -0.60054337765E+01  0.28928810505E+02  0.31886059695E+02  0.00000000000E+00 0.  1.
         11    1    3    3    0    0  0.79545646413E+01 -0.92412078189E+00 -0.22788434622E+02  0.24154540994E+02  0.51100000000E-03 0. -1.
        -11    1    3    3    0    0 -0.51766235086E+00  0.13401224849E+02  0.10307588031E+01  0.13450771938E+02  0.51100000000E-03 0.  1.
        -12    1    3    3    0    0 -0.19427710887E+02 -0.64716702905E+01 -0.71711346860E+01  0.21696627372E+02  0.00000000000E+00 0.  1.
</event>
<event>
 7    1  0.7444241E-013  0.5930196E+02  0.7816164E-02  0.1266605E+00
        -11   -1    0    0    0    0  0.00000000000E+00  0.00000000000E+00  0.45593999997E+02  0.45594000000E+02  0.51100000000E-03 0. -1.
         11   -1    0    0    0    0 -0.00000000000E+00 -0.00000000000E+00 -0.45593999997E+02  0.45594000000E+02  0.51100000000E-03 0.  1.
    9900012    2    1    2    0    0 -0.15162127920E+02  0.27081184108E+02 -0.73101928689E+01  0.59301959551E+02  0.50000028310E+02 0.  0.
        -12    1    1    2    0    0  0.15162127920E+02 -0.27081184108E+02  0.73101928689E+01  0.31886040449E+02  0.00000000000E+00 0.  1.
         11    1    3    3    0    0 -0.62039119488E+01 -0.24417105272E+01 -0.60437634462E+01  0.89987527259E+01  0.51100000000E-03 0. -1.
        -11    1    3    3    0    0 -0.20193145653E+02  0.53006397137E+01 -0.86529011331E+01  0.22599394041E+02  0.51100000000E-03 0.  1.
         12    1    3    3    0    0  0.11234929682E+02  0.24222254921E+02  0.73864717104E+01  0.27703812784E+02  0.00000000000E+00 0. -1.
</event>
<event>
 7    1  0.7444241E-013  0.5930194E+02  0.7816164E-02  0.1266605E+00
        -11   -1    0    0    0    0  0.00000000000E+00  0.00000000000E+00  0.45593999997E+02  0.45594000000E+02  0.51100000000E-03 0.  1.
         11   -1    0    0    0    0 -0.00000000000E+00 -0.00000000000E+00 -0.45593999997E+02  0.45594000000E+02  0.51100000000E-03 0. -1.
    9900012    2    1    2    0    0 -0.18865671895E+02  0.24872413256E+01 -0.25585561509E+02  0.59301938732E+02  0.49999990342E+02 0.  0.
        -12    1    1    2    0    0  0.18865671895E+02 -0.24872413256E+01  0.25585561509E+02  0.31886061268E+02  0.00000000000E+00 0.  1.
         11    1    3    3    0    0 -0.10680404192E+02  0.95283018874E+01 -0.18563049896E+02  0.23440272871E+02  0.51100000000E-03 0. -1.
        -11    1    3    3    0    0 -0.62813309958E+00  0.49681740985E+01 -0.17513475330E+02  0.18215354058E+02  0.51100000000E-03 0.  1.
         12    1    3    3    0    0 -0.75571346035E+01 -0.12009234660E+02  0.10490963717E+02  0.17646311803E+02  0.00000000000E+00 0. -1.
</event>
<event>
 7    1  0.7444241E-013  0.5930194E+02  0.7816164E-02  0.1266605E+00
        -11   -1    0    0    0    0  0.00000000000E+00  0.00000000000E+00  0.45593999997E+02  0.45594000000E+02  0.51100000000E-03 0.  1.
         11   -1    0    0    0    0 -0.00000000000E+00 -0.00000000000E+00 -0.45593999997E+02  0.45594000000E+02  0.51100000000E-03 0. -1.
    9900012    2    1    2    0    0  0.28368641017E+02  0.73933063088E+01 -0.12541136133E+02  0.59301939302E+02  0.49999991382E+02 0.  0.
        -12    1    1    2    0    0 -0.28368641017E+02 -0.73933063088E+01  0.12541136133E+02  0.31886060698E+02  0.00000000000E+00 0.  1.
         11    1    3    3    0    0  0.14670533321E+02  0.66582641693E+01 -0.67965075419E+01  0.17485695430E+02  0.51100000000E-03 0. -1.
        -11    1    3    3    0    0  0.20872827066E+02  0.25696946326E+01  0.10835296426E+02  0.23657596859E+02  0.51100000000E-03 0.  1.
        -12    1    3    3    0    0 -0.71747193697E+01 -0.18346524931E+01 -0.16579925017E+02  0.18158647013E+02  0.00000000000E+00 0.  1.
</event>
<event>
 7    1  0.7444241E-013  0.5930195E+02  0.7816164E-02  0.1266605E+00
        -11   -1    0    0    0    0  0.00000000000E+00  0.00000000000E+00  0.45593999997E+02  0.45594000000E+02  0.51100000000E-03 0.  1.
         11   -1    0    0    0    0 -0.00000000000E+00 -0.00000000000E+00 -0.45593999997E+02  0.45594000000E+02  0.51100000000E-03 0. -1.
    9900012    2    1    2    0    0  0.23315700354E+02 -0.19087325627E+02 -0.10429390313E+02  0.59301951878E+02  0.50000014316E+02 0.  0.
        -12    1    1    2    0    0 -0.23315700354E+02  0.19087325627E+02  0.10429390313E+02  0.31886048122E+02  0.00000000000E+00 0.  1.
         11    1    3    3    0    0  0.14753925199E+02 -0.10316795095E+02 -0.31204215311E+01  0.18271606405E+02  0.51100000000E-03 0. -1.
        -11    1    3    3    0    0  0.19889289628E+02 -0.11420811496E+02  0.56447865799E+01  0.23619534139E+02  0.51100000000E-03 0.  1.
        -12    1    3    3    0    0 -0.11327514474E+02  0.26502809645E+01 -0.12953755362E+02  0.17410811334E+02  0.00000000000E+00 0.  1.
</event>
<event>
 7    1  0.7444241E-013  0.5930192E+02  0.7816164E-02  0.1266605E+00
        -11   -1    0    0    0    0  0.00000000000E+00  0.00000000000E+00  0.45593999997E+02  0.45594000000E+02  0.51100000000E-03 0.  1.
         11   -1    0    0    0    0 -0.00000000000E+00 -0.00000000000E+00 -0.45593999997E+02  0.45594000000E+02  0.51100000000E-03 0. -1.
    9900012    2    1    2    0    0 -0.20162767291E+02  0.23386993172E+02 -0.79519391411E+01  0.59301921995E+02  0.49999959817E+02 0.  0.
        -12    1    1    2    0    0  0.20162767291E+02 -0.23386993172E+02  0.79519391411E+01  0.31886078005E+02  0.00000000000E+00 0.  1.
         11    1    3    3    0    0 -0.85863084015E+01  0.12167184589E+01  0.12887628543E+02  0.15533707397E+02  0.51100000000E-03 0. -1.
        -11    1    3    3    0    0 -0.17253235783E+02  0.35830798063E+01 -0.40389400056E+01  0.18078319682E+02  0.51100000000E-03 0.  1.
         12    1    3    3    0    0  0.56767768935E+01  0.18587194907E+02 -0.16800627678E+02  0.25689894916E+02  0.00000000000E+00 0. -1.
</event>
<event>
 7    1  0.7444241E-013  0.5930194E+02  0.7816164E-02  0.1266605E+00
        -11   -1    0    0    0    0  0.00000000000E+00  0.00000000000E+00  0.45593999997E+02  0.45594000000E+02  0.51100000000E-03 0. -1.
         11   -1    0    0    0    0 -0.00000000000E+00 -0.00000000000E+00 -0.45593999997E+02  0.45594000000E+02  0.51100000000E-03 0.  1.
    9900012    2    1    2    0    0  0.28853271473E+02 -0.95809752969E+01  0.96132579325E+01  0.59301935797E+02  0.49999984988E+02 0.  0.
        -12    1    1    2    0    0 -0.28853271473E+02  0.95809752969E+01 -0.96132579325E+01  0.31886064203E+02  0.00000000000E+00 0.  1.
         11    1    3    3    0    0  0.68374142300E+01  0.73720601200E+01 -0.42580829129E+00  0.10063737712E+02  0.51100000000E-03 0. -1.
        -11    1    3    3    0    0  0.17500156665E+02  0.75923893712E+01 -0.54819444112E+01  0.19848213382E+02  0.51100000000E-03 0.  1.
         12    1    3    3    0    0  0.45157005778E+01 -0.24545424788E+02  0.15521010635E+02  0.29389984703E+02  0.00000000000E+00 0. -1.
</event>
<event>
 7    1  0.7444241E-013  0.5930197E+02  0.7816164E-02  0.1266605E+00
        -11   -1    0    0    0    0  0.00000000000E+00  0.00000000000E+00  0.45593999997E+02  0.45594000000E+02  0.51100000000E-03 0.  1.
         11   -1    0    0    0    0 -0.00000000000E+00 -0.00000000000E+00 -0.45593999997E+02  0.45594000000E+02  0.51100000000E-03 0. -1.
    9900012    2    1    2    0    0  0.12186805358E+02 -0.22601823807E+02 -0.18903928418E+02  0.59301965849E+02  0.50000039797E+02 0.  0.
        -12    1    1    2    0    0 -0.12186805358E+02  0.22601823807E+02  0.18903928418E+02  0.31886034151E+02  0.00000000000E+00 0.  1.
         11    1    3    3    0    0 -0.39956475492E+01 -0.34987588805E+01  0.94420249327E+01  0.10833205811E+02  0.51100000000E-03 0.  1.
        -11    1    3    3    0    0  0.12154263147E+02  0.62074480195E+01 -0.10886345247E+02  0.17457692765E+02  0.51100000000E-03 0. -1.
         12    1    3    3    0    0  0.40281897606E+01 -0.25310512946E+02 -0.17459608104E+02  0.31011067274E+02  0.00000000000E+00 0. -1.
</event>
<event>
 7    1  0.1024319E-012  0.5930192E+02  0.7816164E-02  0.1266605E+00
        -11   -1    0    0    0    0  0.00000000000E+00  0.00000000000E+00  0.45593999997E+02  0.45594000000E+02  0.51100000000E-03 0. -1.
         11   -1    0    0    0    0 -0.00000000000E+00 -0.00000000000E+00 -0.45593999997E+02  0.45594000000E+02  0.51100000000E-03 0.  1.
    9900012    2    1    2    0    0  0.85133929098E+01 -0.20117177196E+02  0.23228079303E+02  0.59301916119E+02  0.49999949101E+02 0.  0.
        -12    1    1    2    0    0 -0.85133929098E+01  0.20117177196E+02 -0.23228079303E+02  0.31886083881E+02  0.00000000000E+00 0.  1.
         11    1    3    3    0    0  0.96664990440E+01 -0.14994286096E+02  0.23155330875E+02  0.29230791428E+02  0.51100000000E-03 0. -1.
        -11    1    3    3    0    0  0.13263573807E+02 -0.18899156936E+01 -0.52177731683E+01  0.14377737254E+02  0.51100000000E-03 0.  1.
        -12    1    3    3    0    0 -0.14416679941E+02 -0.32329754058E+01  0.52905215956E+01  0.15693387437E+02  0.00000000000E+00 0.  1.
</event>
<event>
 7    1  0.7444241E-013  0.5930189E+02  0.7816164E-02  0.1266605E+00
        -11   -1    0    0    0    0  0.00000000000E+00  0.00000000000E+00  0.45593999997E+02  0.45594000000E+02  0.51100000000E-03 0. -1.
         11   -1    0    0    0    0 -0.00000000000E+00 -0.00000000000E+00 -0.45593999997E+02  0.45594000000E+02  0.51100000000E-03 0.  1.
    9900012    2    1    2    0    0  0.11991860602E+02 -0.28454724557E+02  0.79528608798E+01  0.59301889129E+02  0.49999899878E+02 0.  0.
        -12    1    1    2    0    0 -0.11991860602E+02  0.28454724557E+02 -0.79528608798E+01  0.31886110871E+02  0.00000000000E+00 0.  1.
         11    1    3    3    0    0  0.11818177814E+02 -0.36361115149E+02  0.12988449011E+01  0.38255548879E+02  0.51100000000E-03 0.  1.
        -11    1    3    3    0    0  0.58879729514E+01  0.10255760600E+01  0.98725460701E+01  0.11540675799E+02  0.51100000000E-03 0. -1.
        -12    1    3    3    0    0 -0.57142901639E+01  0.68808145320E+01 -0.32185300913E+01  0.95056644507E+01  0.00000000000E+00 0.  1.
</event>
<event>
 7    1  0.7444241E-013  0.5930177E+02  0.7816164E-02  0.1266605E+00
        -11   -1    0    0    0    0  0.00000000000E+00  0.00000000000E+00  0.45593999997E+02  0.45594000000E+02  0.51100000000E-03 0. -1.
         11   -1    0    0    0    0 -0.00000000000E+00 -0.00000000000E+00 -0.45593999997E+02  0.45594000000E+02  0.51100000000E-03 0.  1.
    9900012    2    1    2    0    0 -0.11572519721E+02 -0.34625334695E+01  0.29509643454E+02  0.59301774016E+02  0.49999689938E+02 0.  0.
        -12    1    1    2    0    0  0.11572519721E+02  0.34625334695E+01 -0.29509643454E+02  0.31886225984E+02  0.00000000000E+00 0.  1.
         11    1    3    3    0    0  0.10897347097E+02  0.17135163484E+01  0.23398537057E+01  0.11276667400E+02  0.51100000000E-03 0. -1.
        -11    1    3    3    0    0  0.62367581844E+01 -0.61140672807E+01  0.13829096305E+02  0.16356126565E+02  0.51100000000E-03 0.  1.
         12    1    3    3    0    0 -0.28706625003E+02  0.93801746275E+00  0.13340693444E+02  0.31668980050E+02  0.00000000000E+00 0. -1.
</event>
<event>
 7    1  0.7444241E-013  0.5930187E+02  0.7816164E-02  0.1266605E+00
        -11   -1    0    0    0    0  0.00000000000E+00  0.00000000000E+00  0.45593999997E+02  0.45594000000E+02  0.51100000000E-03 0.  1.
         11   -1    0    0    0    0 -0.00000000000E+00 -0.00000000000E+00 -0.45593999997E+02  0.45594000000E+02  0.51100000000E-03 0. -1.
    9900012    2    1    2    0    0  0.63748996151E+01 -0.24875927062E+02 -0.18901697959E+02  0.59301870131E+02  0.49999865231E+02 0.  0.
        -12    1    1    2    0    0 -0.63748996151E+01  0.24875927062E+02  0.18901697959E+02  0.31886129869E+02  0.00000000000E+00 0.  1.
         11    1    3    3    0    0 -0.66586409506E+01  0.40746115322E+01 -0.66129386573E+01  0.10230880529E+02  0.51100000000E-03 0. -1.
        -11    1    3    3    0    0 -0.47743780494E+01 -0.77837352623E+01 -0.18580477560E+02  0.20703027968E+02  0.51100000000E-03 0.  1.
        -12    1    3    3    0    0  0.17807918615E+02 -0.21166803331E+02  0.62917182589E+01  0.28367961635E+02  0.00000000000E+00 0.  1.
</event>
<event>
 7    1  0.7444241E-013  0.5930194E+02  0.7816164E-02  0.1266605E+00
        -11   -1    0    0    0    0  0.00000000000E+00  0.00000000000E+00  0.45593999997E+02  0.45594000000E+02  0.51100000000E-03 0. -1.
         11   -1    0    0    0    0 -0.00000000000E+00 -0.00000000000E+00 -0.45593999997E+02  0.45594000000E+02  0.51100000000E-03 0.  1.
    9900012    2    1    2    0    0  0.15053390107E+02 -0.22122209729E+02  0.17341406672E+02  0.59301935609E+02  0.49999984646E+02 0.  0.
        -12    1    1    2    0    0 -0.15053390107E+02  0.22122209729E+02 -0.17341406672E+02  0.31886064391E+02  0.00000000000E+00 0.  1.
         11    1    3    3    0    0  0.42963513603E+01 -0.28891714644E+01 -0.39017209303E+01  0.64830064971E+01  0.51100000000E-03 0. -1.
        -11    1    3    3    0    0  0.10760318598E+02 -0.19070867227E+02 -0.81950083086E+01  0.23380346332E+02  0.51100000000E-03 0.  1.
         12    1    3    3    0    0 -0.32798518237E-02 -0.16217103668E+00  0.29438135911E+02  0.29438582780E+02  0.00000000000E+00 0. -1.
</event>
<event>
 7    1  0.7444241E-013  0.5930197E+02  0.7816164E-02  0.1266605E+00
        -11   -1    0    0    0    0  0.00000000000E+00  0.00000000000E+00  0.45593999997E+02  0.45594000000E+02  0.51100000000E-03 0. -1.
         11   -1    0    0    0    0 -0.00000000000E+00 -0.00000000000E+00 -0.45593999997E+02  0.45594000000E+02  0.51100000000E-03 0.  1.
    9900012    2    1    2    0    0  0.23832202671E+02 -0.36295360582E+01  0.20870350435E+02  0.59301969463E+02  0.50000046387E+02 0.  0.
        -12    1    1    2    0    0 -0.23832202671E+02  0.36295360582E+01 -0.20870350435E+02  0.31886030537E+02  0.00000000000E+00 0.  1.
         11    1    3    3    0    0  0.21457657050E+01 -0.65448882793E+00 -0.45603515473E+01  0.50822704162E+01  0.51100000000E-03 0. -1.
        -11    1    3    3    0    0  0.15316928250E+02  0.19236685963E+02  0.10701873302E+02  0.26817689503E+02  0.51100000000E-03 0.  1.
         12    1    3    3    0    0  0.63695087159E+01 -0.22211733193E+02  0.14728828680E+02  0.27402009543E+02  0.00000000000E+00 0. -1.
</event>
<event>
 7    1  0.7444241E-013  0.5930201E+02  0.7816164E-02  0.1266605E+00
        -11   -1    0    0    0    0  0.00000000000E+00  0.00000000000E+00  0.45593999997E+02  0.45594000000E+02  0.51100000000E-03 0.  1.
         11   -1    0    0    0    0 -0.00000000000E+00 -0.00000000000E+00 -0.45593999997E+02  0.45594000000E+02  0.51100000000E-03 0. -1.
    9900012    2    1    2    0    0  0.19886175110E+02  0.24736671024E+02 -0.30583593498E+01  0.59302009098E+02  0.50000118673E+02 0.  0.
        -12    1    1    2    0    0 -0.19886175110E+02 -0.24736671024E+02  0.30583593498E+01  0.31885990902E+02  0.00000000000E+00 0.  1.
         11    1    3    3    0    0  0.23680768274E+02  0.20331002065E+02  0.14536647575E+00  0.31211369125E+02  0.51100000000E-03 0. -1.
        -11    1    3    3    0    0  0.67749152503E+01 -0.87267373719E+01 -0.11038944589E+01  0.11102882736E+02  0.51100000000E-03 0.  1.
         12    1    3    3    0    0 -0.10569508414E+02  0.13132406332E+02 -0.20998313666E+01  0.16987757237E+02  0.00000000000E+00 0. -1.
</event>
<event>
 7    1  0.7444241E-013  0.5930195E+02  0.7816164E-02  0.1266605E+00
        -11   -1    0    0    0    0  0.00000000000E+00  0.00000000000E+00  0.45593999997E+02  0.45594000000E+02  0.51100000000E-03 0.  1.
         11   -1    0    0    0    0 -0.00000000000E+00 -0.00000000000E+00 -0.45593999997E+02  0.45594000000E+02  0.51100000000E-03 0. -1.
    9900012    2    1    2    0    0  0.18013572123E+02  0.90160814295E+01 -0.24717237871E+02  0.59301947360E+02  0.50000006077E+02 0.  0.
        -12    1    1    2    0    0 -0.18013572123E+02 -0.90160814295E+01  0.24717237871E+02  0.31886052640E+02  0.00000000000E+00 0.  1.
         11    1    3    3    0    0 -0.54977464339E+00 -0.76440543942E+01  0.11743841540E+01  0.77532572601E+01  0.51100000000E-03 0.  1.
        -11    1    3    3    0    0  0.25259505126E+02  0.98446176563E+01 -0.30612781174E+02  0.40891337315E+02  0.51100000000E-03 0. -1.
         12    1    3    3    0    0 -0.66961583596E+01  0.68155181674E+01  0.47211591481E+01  0.10657352784E+02  0.00000000000E+00 0. -1.
</event>
<event>
 7    1  0.7444241E-013  0.5930196E+02  0.7816164E-02  0.1266605E+00
        -11   -1    0    0    0    0  0.00000000000E+00  0.00000000000E+00  0.45593999997E+02  0.45594000000E+02  0.51100000000E-03 0. -1.
         11   -1    0    0    0    0 -0.00000000000E+00 -0.00000000000E+00 -0.45593999997E+02  0.45594000000E+02  0.51100000000E-03 0.  1.
    9900012    2    1    2    0    0  0.22183368852E+02  0.22863576922E+02 -0.13690494548E+01  0.59301963876E+02  0.50000036198E+02 0.  0.
        -12    1    1    2    0    0 -0.22183368852E+02 -0.22863576922E+02  0.13690494548E+01  0.31886036124E+02  0.00000000000E+00 0.  1.
         11    1    3    3    0    0  0.29602873137E+02  0.19413603397E+02  0.10262577573E+02  0.36858358530E+02  0.51100000000E-03 0. -1.
        -11    1    3    3    0    0  0.35144639692E+00 -0.58027298074E+01 -0.21068826594E+00  0.58171795222E+01  0.51100000000E-03 0.  1.
        -12    1    3    3    0    0 -0.77709506818E+01  0.92527033328E+01 -0.11420938762E+02  0.16626425824E+02  0.00000000000E+00 0.  1.
</event>
<event>
 7    1  0.7444241E-013  0.5930197E+02  0.7816164E-02  0.1266605E+00
        -11   -1    0    0    0    0  0.00000000000E+00  0.00000000000E+00  0.45593999997E+02  0.45594000000E+02  0.51100000000E-03 0. -1.
         11   -1    0    0    0    0 -0.00000000000E+00 -0.00000000000E+00 -0.45593999997E+02  0.45594000000E+02  0.51100000000E-03 0.  1.
    9900012    2    1    2    0    0 -0.20957629011E+02  0.79850302173E+01 -0.22665751585E+02  0.59301965185E+02  0.50000038585E+02 0.  0.
        -12    1    1    2    0    0  0.20957629011E+02 -0.79850302173E+01  0.22665751585E+02  0.31886034815E+02  0.00000000000E+00 0.  1.
         11    1    3    3    0    0 -0.23601496821E+02  0.18347629517E+02 -0.10099564113E+02  0.31554197131E+02  0.51100000000E-03 0. -1.
        -11    1    3    3    0    0 -0.53517642339E+01  0.50526515229E+01 -0.33215919529E+01  0.80748771625E+01  0.51100000000E-03 0.  1.
         12    1    3    3    0    0  0.79956320435E+01 -0.15415250822E+02 -0.92445955190E+01  0.19672890891E+02  0.00000000000E+00 0. -1.
</event>
<event>
 7    1  0.7444241E-013  0.5930196E+02  0.7816164E-02  0.1266605E+00
        -11   -1    0    0    0    0  0.00000000000E+00  0.00000000000E+00  0.45593999997E+02  0.45594000000E+02  0.51100000000E-03 0.  1.
         11   -1    0    0    0    0 -0.00000000000E+00 -0.00000000000E+00 -0.45593999997E+02  0.45594000000E+02  0.51100000000E-03 0. -1.
    9900012    2    1    2    0    0  0.13631178409E+02  0.23906216589E+02 -0.16106009513E+02  0.59301956676E+02  0.50000023068E+02 0.  0.
        -12    1    1    2    0    0 -0.13631178409E+02 -0.23906216589E+02  0.16106009513E+02  0.31886043324E+02  0.00000000000E+00 0.  1.
         11    1    3    3    0    0 -0.79977655461E+01 -0.87803845766E+00 -0.19799250254E+02  0.21371605372E+02  0.51100000000E-03 0.  1.
        -11    1    3    3    0    0  0.26868824079E+01 -0.14102404880E+01 -0.36846640895E+01  0.47733494552E+01  0.51100000000E-03 0. -1.
        -12    1    3    3    0    0  0.18942061547E+02  0.26194495534E+02  0.73779048309E+01  0.33157001850E+02  0.00000000000E+00 0.  1.
</event>
<event>
 7    1  0.7444241E-013  0.5930191E+02  0.7816164E-02  0.1266605E+00
        -11   -1    0    0    0    0  0.00000000000E+00  0.00000000000E+00  0.45593999997E+02  0.45594000000E+02  0.51100000000E-03 0. -1.
         11   -1    0    0    0    0 -0.00000000000E+00 -0.00000000000E+00 -0.45593999997E+02  0.45594000000E+02  0.51100000000E-03 0.  1.
    9900012    2    1    2    0    0  0.66651060136E+01 -0.22510016795E+02  0.21577721486E+02  0.59301912770E+02  0.49999942994E+02 0.  0.
        -12    1    1    2    0    0 -0.66651060136E+01  0.22510016795E+02 -0.21577721486E+02  0.31886087230E+02  0.00000000000E+00 0.  1.
         11    1    3    3    0    0 -0.14633143285E+01  0.41136596347E+01 -0.34878578119E-01  0.43663143714E+01  0.51100000000E-03 0. -1.
        -11    1    3    3    0    0 -0.13640191463E+01 -0.28798802027E+02 -0.24915343043E+01  0.28938543327E+02  0.51100000000E-03 0.  1.
         12    1    3    3    0    0  0.94924394884E+01  0.21751255968E+01  0.24104134368E+02  0.25997055072E+02  0.00000000000E+00 0. -1.
</event>
<event>
 7    1  0.7444241E-013  0.5930190E+02  0.7816164E-02  0.1266605E+00
        -11   -1    0    0    0    0  0.00000000000E+00  0.00000000000E+00  0.45593999997E+02  0.45594000000E+02  0.51100000000E-03 0.  1.
         11   -1    0    0    0    0 -0.00000000000E+00 -0.00000000000E+00 -0.45593999997E+02  0.45594000000E+02  0.51100000000E-03 0. -1.
    9900012    2    1    2    0    0 -0.20718877427E+02 -0.43666916960E+01 -0.23840792855E+02  0.59301901428E+02  0.49999922307E+02 0.  0.
        -12    1    1    2    0    0  0.20718877427E+02  0.43666916960E+01  0.23840792855E+02  0.31886098572E+02  0.00000000000E+00 0.  1.
         11    1    3    3    0    0  0.12490031676E+01 -0.34075533804E+01  0.54067030071E+00  0.36692987869E+01  0.51100000000E-03 0. -1.
        -11    1    3    3    0    0  0.63565666303E+00  0.15906077456E+02 -0.22239084327E+02  0.27349300382E+02  0.51100000000E-03 0.  1.
         12    1    3    3    0    0 -0.22603537258E+02 -0.16865215772E+02 -0.21423788288E+01  0.28283302258E+02  0.00000000000E+00 0. -1.
</event>
<event>
 7    1  0.7444241E-013  0.5930192E+02  0.7816164E-02  0.1266605E+00
        -11   -1    0    0    0    0  0.00000000000E+00  0.00000000000E+00  0.45593999997E+02  0.45594000000E+02  0.51100000000E-03 0.  1.
         11   -1    0    0    0    0 -0.00000000000E+00 -0.00000000000E+00 -0.45593999997E+02  0.45594000000E+02  0.51100000000E-03 0. -1.
    9900012    2    1    2    0    0  0.16210184525E+01  0.18969134103E+02 -0.25578635617E+02  0.59301916053E+02  0.49999948981E+02 0.  0.
        -12    1    1    2    0    0 -0.16210184525E+01 -0.18969134103E+02  0.25578635617E+02  0.31886083947E+02  0.00000000000E+00 0.  1.
         11    1    3    3    0    0  0.12772068938E+02  0.19111120565E+02 -0.15481080916E+02  0.27713255687E+02  0.51100000000E-03 0. -1.
        -11    1    3    3    0    0  0.51813646265E+01 -0.11087306260E+01  0.64304930728E+01  0.83322904663E+01  0.51100000000E-03 0.  1.
        -12    1    3    3    0    0 -0.16332415112E+02  0.96674416430E+00 -0.16528047774E+02  0.23256369900E+02  0.00000000000E+00 0.  1.
</event>
<event>
 7    1  0.7444241E-013  0.5930194E+02  0.7816164E-02  0.1266605E+00
        -11   -1    0    0    0    0  0.00000000000E+00  0.00000000000E+00  0.45593999997E+02  0.45594000000E+02  0.51100000000E-03 0. -1.
         11   -1    0    0    0    0 -0.00000000000E+00 -0.00000000000E+00 -0.45593999997E+02  0.45594000000E+02  0.51100000000E-03 0.  1.
    9900012    2    1    2    0    0 -0.23748380416E+02  0.10211814419E+02  0.18666925502E+02  0.59301939820E+02  0.49999992325E+02 0.  0.
        -12    1    1    2    0    0  0.23748380416E+02 -0.10211814419E+02 -0.18666925502E+02  0.31886060180E+02  0.00000000000E+00 0.  1.
         11    1    3    3    0    0  0.19263298311E+01 -0.11046407362E+02  0.83081878082E+01  0.13955638543E+02  0.51100000000E-03 0. -1.
        -11    1    3    3    0    0  0.36780214406E+01 -0.39751999888E+01  0.78896996084E+00  0.54728905095E+01  0.51100000000E-03 0.  1.
         12    1    3    3    0    0 -0.29352731688E+02  0.25233421770E+02  0.95697677330E+01  0.39873410767E+02  0.00000000000E+00 0. -1.
</event>
<event>
 7    1  0.7444241E-013  0.5930193E+02  0.7816164E-02  0.1266605E+00
        -11   -1    0    0    0    0  0.00000000000E+00  0.00000000000E+00  0.45593999997E+02  0.45594000000E+02  0.51100000000E-03 0.  1.
         11   -1    0    0    0    0 -0.00000000000E+00 -0.00000000000E+00 -0.45593999997E+02  0.45594000000E+02  0.51100000000E-03 0. -1.
    9900012    2    1    2    0    0 -0.19341107423E+02  0.21677997970E+02 -0.13141808517E+02  0.59301934651E+02  0.49999982900E+02 0.  0.
        -12    1    1    2    0    0  0.19341107423E+02 -0.21677997970E+02  0.13141808517E+02  0.31886065349E+02  0.00000000000E+00 0.  1.
         11    1    3    3    0    0  0.84020370527E+01 -0.86016389826E+00  0.11897822438E+01  0.85293429182E+01  0.51100000000E-03 0. -1.
        -11    1    3    3    0    0 -0.28610764036E+02  0.26305828977E+02 -0.32103289035E+01  0.38998444441E+02  0.51100000000E-03 0.  1.
         12    1    3    3    0    0  0.86761956034E+00 -0.37676671092E+01 -0.11121261858E+02  0.11774147292E+02  0.00000000000E+00 0. -1.
</event>
<event>
 7    1  0.7444241E-013  0.5930193E+02  0.7816164E-02  0.1266605E+00
        -11   -1    0    0    0    0  0.00000000000E+00  0.00000000000E+00  0.45593999997E+02  0.45594000000E+02  0.51100000000E-03 0.  1.
         11   -1    0    0    0    0 -0.00000000000E+00 -0.00000000000E+00 -0.45593999997E+02  0.45594000000E+02  0.51100000000E-03 0. -1.
    9900012    2    1    2    0    0 -0.24620437769E+02  0.20219409394E+02 -0.13157224934E+01  0.59301927839E+02  0.49999970476E+02 0.  0.
        -12    1    1    2    0    0  0.24620437769E+02 -0.20219409394E+02  0.13157224934E+01  0.31886072161E+02  0.00000000000E+00 0.  1.
         11    1    3    3    0    0 -0.16172229977E+02 -0.75087158276E+01  0.15157991213E+01  0.17894677506E+02  0.51100000000E-03 0. -1.
        -11    1    3    3    0    0 -0.16030308588E+01  0.79725216393E+00  0.10454817646E+02  0.10607003876E+02  0.51100000000E-03 0.  1.
         12    1    3    3    0    0 -0.68451769331E+01  0.26930873058E+02 -0.13286339261E+02  0.30800246458E+02  0.00000000000E+00 0. -1.
</event>
<event>
 7    1  0.7444241E-013  0.5930197E+02  0.7816164E-02  0.1266605E+00
        -11   -1    0    0    0    0  0.00000000000E+00  0.00000000000E+00  0.45593999997E+02  0.45594000000E+02  0.51100000000E-03 0.  1.
         11   -1    0    0    0    0 -0.00000000000E+00 -0.00000000000E+00 -0.45593999997E+02  0.45594000000E+02  0.51100000000E-03 0. -1.
    9900012    2    1    2    0    0  0.30269284703E+02 -0.56516508420E+01  0.82793796631E+01  0.59301970438E+02  0.50000048165E+02 0.  0.
        -12    1    1    2    0    0 -0.30269284703E+02  0.56516508420E+01 -0.82793796631E+01  0.31886029562E+02  0.00000000000E+00 0.  1.
         11    1    3    3    0    0  0.46526433074E+01 -0.15324237145E+02 -0.55780334564E+01  0.16958590487E+02  0.51100000000E-03 0. -1.
        -11    1    3    3    0    0 -0.63949842446E+01  0.17374900101E+01  0.46705033260E+01  0.81072989708E+01  0.51100000000E-03 0.  1.
        -12    1    3    3    0    0  0.32011625640E+02  0.79350962927E+01  0.91869097936E+01  0.34236080979E+02  0.00000000000E+00 0.  1.
</event>
<event>
 7    1  0.7444241E-013  0.5930190E+02  0.7816164E-02  0.1266605E+00
        -11   -1    0    0    0    0  0.00000000000E+00  0.00000000000E+00  0.45593999997E+02  0.45594000000E+02  0.51100000000E-03 0. -1.
         11   -1    0    0    0    0 -0.00000000000E+00 -0.00000000000E+00 -0.45593999997E+02  0.45594000000E+02  0.51100000000E-03 0.  1.
    9900012    2    1    2    0    0 -0.28234946262E+02 -0.46389550039E+01  0.14070933772E+02  0.59301901601E+02  0.49999922623E+02 0.  0.
        -12    1    1    2    0    0  0.28234946262E+02  0.46389550039E+01 -0.14070933772E+02  0.31886098399E+02  0.00000000000E+00 0.  1.
         11    1    3    3    0    0  0.18751430384E+01  0.55548379401E+01 -0.37525769093E+01  0.69609065270E+01  0.51100000000E-03 0. -1.
        -11    1    3    3    0    0 -0.15358704831E+02 -0.21748975469E+02  0.21310419037E+00  0.26626174372E+02  0.51100000000E-03 0.  1.
         12    1    3    3    0    0 -0.14751384469E+02  0.11555182525E+02  0.17610406491E+02  0.25714820702E+02  0.00000000000E+00 0. -1.
</event>
<event>
 7    1  0.7444241E-013  0.5930195E+02  0.7816164E-02  0.1266605E+00
        -11   -1    0    0    0    0  0.00000000000E+00  0.00000000000E+00  0.45593999997E+02  0.45594000000E+02  0.51100000000E-03 0.  1.
         11   -1    0    0    0    0 -0.00000000000E+00 -0.00000000000E+00 -0.45593999997E+02  0.45594000000E+02  0.51100000000E-03 0. -1.
    9900012    2    1    2    0    0  0.18632792504E+02 -0.20038729892E+02  0.16370356067E+02  0.59301949602E+02  0.50000010167E+02 0.  0.
        -12    1    1    2    0    0 -0.18632792504E+02  0.20038729892E+02 -0.16370356067E+02  0.31886050398E+02  0.00000000000E+00 0.  1.
         11    1    3    3    0    0  0.42747635013E+01  0.57498986529E+01 -0.67196417510E+01  0.98228571727E+01  0.51100000000E-03 0. -1.
        -11    1    3    3    0    0 -0.83717335859E+01 -0.25697110515E+01  0.12582309811E+02  0.15329835568E+02  0.51100000000E-03 0.  1.
        -12    1    3    3    0    0  0.22729762589E+02 -0.23218917494E+02  0.10507688008E+02  0.34149256861E+02  0.00000000000E+00 0.  1.
</event>
<event>
 7    1  0.7444241E-013  0.5930196E+02  0.7816164E-02  0.1266605E+00
        -11   -1    0    0    0    0  0.00000000000E+00  0.00000000000E+00  0.45593999997E+02  0.45594000000E+02  0.51100000000E-03 0. -1.
         11   -1    0    0    0    0 -0.00000000000E+00 -0.00000000000E+00 -0.45593999997E+02  0.45594000000E+02  0.51100000000E-03 0.  1.
    9900012    2    1    2    0    0  0.16184788611E+02  0.18800567576E+02  0.20032743937E+02  0.59301959901E+02  0.50000028950E+02 0.  0.
        -12    1    1    2    0    0 -0.16184788611E+02 -0.18800567576E+02 -0.20032743937E+02  0.31886040099E+02  0.00000000000E+00 0.  1.
         11    1    3    3    0    0  0.32188966416E+01 -0.10338576795E+02  0.22090684589E+02  0.24601744076E+02  0.51100000000E-03 0. -1.
        -11    1    3    3    0    0  0.47893837039E+00  0.12032395318E+02  0.39704854905E+01  0.12679616490E+02  0.51100000000E-03 0.  1.
        -12    1    3    3    0    0  0.12486953599E+02  0.17106749053E+02 -0.60284261429E+01  0.22020599335E+02  0.00000000000E+00 0.  1.
</event>
<event>
 7    1  0.7444241E-013  0.5930192E+02  0.7816164E-02  0.1266605E+00
        -11   -1    0    0    0    0  0.00000000000E+00  0.00000000000E+00  0.45593999997E+02  0.45594000000E+02  0.51100000000E-03 0.  1.
         11   -1    0    0    0    0 -0.00000000000E+00 -0.00000000000E+00 -0.45593999997E+02  0.45594000000E+02  0.51100000000E-03 0. -1.
    9900012    2    1    2    0    0 -0.60384222747E+01  0.19485407848E+02 -0.24506696465E+02  0.59301924133E+02  0.49999963717E+02 0.  0.
        -12    1    1    2    0    0  0.60384222747E+01 -0.19485407848E+02  0.24506696465E+02  0.31886075867E+02  0.00000000000E+00 0.  1.
         11    1    3    3    0    0  0.74321601669E+01  0.10365580794E+02 -0.24401499446E+02  0.27533896299E+02  0.51100000000E-03 0. -1.
        -11    1    3    3    0    0 -0.71164479319E+01 -0.20936878936E+01  0.11985864944E+02  0.14095684406E+02  0.51100000000E-03 0.  1.
         12    1    3    3    0    0 -0.63541345097E+01  0.11213514947E+02 -0.12091061963E+02  0.17672343427E+02  0.00000000000E+00 0. -1.
</event>
<event>
 7    1  0.7444241E-013  0.5930194E+02  0.7816164E-02  0.1266605E+00
        -11   -1    0    0    0    0  0.00000000000E+00  0.00000000000E+00  0.45593999997E+02  0.45594000000E+02  0.51100000000E-03 0.  1.
         11   -1    0    0    0    0 -0.00000000000E+00 -0.00000000000E+00 -0.45593999997E+02  0.45594000000E+02  0.51100000000E-03 0. -1.
    9900012    2    1    2    0    0  0.27876052274E+02 -0.14249047991E+02 -0.60507066328E+01  0.59301941765E+02  0.49999995873E+02 0.  0.
        -12    1    1    2    0    0 -0.27876052274E+02  0.14249047991E+02  0.60507066328E+01  0.31886058235E+02  0.00000000000E+00 0.  1.
         11    1    3    3    0    0  0.48561202630E+01 -0.64558227173E+01 -0.17090254620E+02  0.18903342408E+02  0.51100000000E-03 0. -1.
        -11    1    3    3    0    0 -0.21733328998E+01 -0.24097992617E+01 -0.78229955605E+01  0.84693428420E+01  0.51100000000E-03 0.  1.
        -12    1    3    3    0    0  0.25193264910E+02 -0.53834260124E+01  0.18862543548E+02  0.31929256514E+02  0.00000000000E+00 0.  1.
</event>
<event>
 7    1  0.7444241E-013  0.5930196E+02  0.7816164E-02  0.1266605E+00
        -11   -1    0    0    0    0  0.00000000000E+00  0.00000000000E+00  0.45593999997E+02  0.45594000000E+02  0.51100000000E-03 0. -1.
         11   -1    0    0    0    0 -0.00000000000E+00 -0.00000000000E+00 -0.45593999997E+02  0.45594000000E+02  0.51100000000E-03 0.  1.
    9900012    2    1    2    0    0 -0.14526453337E+01  0.26131674561E+02  0.18213869947E+02  0.59301958347E+02  0.50000026115E+02 0.  0.
        -12    1    1    2    0    0  0.14526453337E+01 -0.26131674561E+02 -0.18213869947E+02  0.31886041653E+02  0.00000000000E+00 0.  1.
         11    1    3    3    0    0  0.69725609542E+01  0.12220666716E+02  0.11547106891E+02  0.18201565291E+02  0.51100000000E-03 0. -1.
        -11    1    3    3    0    0 -0.10312348515E+02 -0.28089630174E+01 -0.11932603754E+02  0.16019420643E+02  0.51100000000E-03 0.  1.
         12    1    3    3    0    0  0.18871422270E+01  0.16719970863E+02  0.18599366810E+02  0.25080972413E+02  0.00000000000E+00 0. -1.
</event>
<event>
 7    1  0.7444241E-013  0.5930194E+02  0.7816164E-02  0.1266605E+00
        -11   -1    0    0    0    0  0.00000000000E+00  0.00000000000E+00  0.45593999997E+02  0.45594000000E+02  0.51100000000E-03 0.  1.
         11   -1    0    0    0    0 -0.00000000000E+00 -0.00000000000E+00 -0.45593999997E+02  0.45594000000E+02  0.51100000000E-03 0. -1.
    9900012    2    1    2    0    0 -0.18846770436E+02  0.13704817668E+02 -0.21764610299E+02  0.59301936514E+02  0.49999986296E+02 0.  0.
        -12    1    1    2    0    0  0.18846770436E+02 -0.13704817668E+02  0.21764610299E+02  0.31886063486E+02  0.00000000000E+00 0.  1.
         11    1    3    3    0    0 -0.76584898963E+01  0.18397716804E+01 -0.27058740661E+02  0.28181779109E+02  0.51100000000E-03 0. -1.
        -11    1    3    3    0    0  0.38999994078E+01 -0.45138095499E+01  0.64947090665E+01  0.88184872939E+01  0.51100000000E-03 0.  1.
        -12    1    3    3    0    0 -0.15088279947E+02  0.16378855538E+02 -0.12005787044E+01  0.22301670110E+02  0.00000000000E+00 0.  1.
</event>
<event>
 7    1  0.7444241E-013  0.5930193E+02  0.7816164E-02  0.1266605E+00
        -11   -1    0    0    0    0  0.00000000000E+00  0.00000000000E+00  0.45593999997E+02  0.45594000000E+02  0.51100000000E-03 0. -1.
         11   -1    0    0    0    0 -0.00000000000E+00 -0.00000000000E+00 -0.45593999997E+02  0.45594000000E+02  0.51100000000E-03 0.  1.
    9900012    2    1    2    0    0 -0.13931496472E+02 -0.23651997566E+02  0.16223990086E+02  0.59301930360E+02  0.49999975073E+02 0.  0.
        -12    1    1    2    0    0  0.13931496472E+02  0.23651997566E+02 -0.16223990086E+02  0.31886069640E+02  0.00000000000E+00 0.  1.
         11    1    3    3    0    0 -0.14189835835E+02  0.56812727099E+00 -0.12237657488E+01  0.14253835009E+02  0.51100000000E-03 0. -1.
        -11    1    3    3    0    0 -0.84305248977E+01 -0.27824386406E+02  0.50872537403E+01  0.29515256730E+02  0.51100000000E-03 0.  1.
        -12    1    3    3    0    0  0.86888642599E+01  0.36042615696E+01  0.12360502094E+02  0.15532838620E+02  0.00000000000E+00 0.  1.
</event>
<event>
 7    1  0.7444241E-013  0.5930196E+02  0.7816164E-02  0.1266605E+00
        -11   -1    0    0    0    0  0.00000000000E+00  0.00000000000E+00  0.45593999997E+02  0.45594000000E+02  0.51100000000E-03 0.  1.
         11   -1    0    0    0    0 -0.00000000000E+00 -0.00000000000E+00 -0.45593999997E+02  0.45594000000E+02  0.51100000000E-03 0. -1.
    9900012    2    1    2    0    0  0.42061275534E+01  0.92942890778E+01 -0.30210003238E+02  0.59301958946E+02  0.50000027207E+02 0.  0.
        -12    1    1    2    0    0 -0.42061275534E+01 -0.92942890778E+01  0.30210003238E+02  0.31886041054E+02  0.00000000000E+00 0.  1.
         11    1    3    3    0    0  0.13717483901E+02 -0.85622140485E+01 -0.43807251247E+01  0.16753257202E+02  0.51100000000E-03 0.  1.
        -11    1    3    3    0    0 -0.74226877311E+01  0.26237188830E+01  0.41182683323E+01  0.88848369849E+01  0.51100000000E-03 0. -1.
         12    1    3    3    0    0 -0.20886686164E+01  0.15232784243E+02 -0.29947546446E+02  0.33663864759E+02  0.00000000000E+00 0. -1.
</event>
<event>
 7    1  0.7444241E-013  0.5930194E+02  0.7816164E-02  0.1266605E+00
        -11   -1    0    0    0    0  0.00000000000E+00  0.00000000000E+00  0.45593999997E+02  0.45594000000E+02  0.51100000000E-03 0. -1.
         11   -1    0    0    0    0 -0.00000000000E+00 -0.00000000000E+00 -0.45593999997E+02  0.45594000000E+02  0.51100000000E-03 0.  1.
    9900012    2    1    2    0    0  0.20381090530E+01 -0.57197489900E+01  0.31302578578E+02  0.59301939681E+02  0.49999992072E+02 0.  0.
        -12    1    1    2    0    0 -0.20381090530E+01  0.57197489900E+01 -0.31302578578E+02  0.31886060319E+02  0.00000000000E+00 0.  1.
         11    1    3    3    0    0  0.19700217890E+00 -0.19285882655E+01  0.21031721948E+02  0.21120880448E+02  0.51100000000E-03 0. -1.
        -11    1    3    3    0    0 -0.91781252790E+01 -0.25370845304E+01  0.20807844034E+02  0.22883206838E+02  0.51100000000E-03 0.  1.
        -12    1    3    3    0    0  0.11019232153E+02 -0.12540761940E+01 -0.10536987404E+02  0.15297852395E+02  0.00000000000E+00 0.  1.
</event>
<event>
 7    1  0.7444241E-013  0.5930195E+02  0.7816164E-02  0.1266605E+00
        -11   -1    0    0    0    0  0.00000000000E+00  0.00000000000E+00  0.45593999997E+02  0.45594000000E+02  0.51100000000E-03 0.  1.
         11   -1    0    0    0    0 -0.00000000000E+00 -0.00000000000E+00 -0.45593999997E+02  0.45594000000E+02  0.51100000000E-03 0. -1.
    9900012    2    1    2    0    0  0.27646607594E+02 -0.44849339371E+01  0.15240427501E+02  0.59301950162E+02  0.50000011187E+02 0.  0.
        -12    1    1    2    0    0 -0.27646607594E+02  0.44849339371E+01 -0.15240427501E+02  0.31886049838E+02  0.00000000000E+00 0.  1.
         11    1    3    3    0    0 -0.49552817450E+01  0.12005671787E+02  0.49556067850E+01  0.13901403206E+02  0.51100000000E-03 0. -1.
        -11    1    3    3    0    0  0.57356659489E+01 -0.45338638319E+01  0.13966294234E+02  0.15764236741E+02  0.51100000000E-03 0.  1.
         12    1    3    3    0    0  0.26866223390E+02 -0.11956741892E+02 -0.36814735187E+01  0.29636310215E+02  0.00000000000E+00 0. -1.
</event>
<event>
 7    1  0.7444241E-013  0.5930201E+02  0.7816164E-02  0.1266605E+00
        -11   -1    0    0    0    0  0.00000000000E+00  0.00000000000E+00  0.45593999997E+02  0.45594000000E+02  0.51100000000E-03 0.  1.
         11   -1    0    0    0    0 -0.00000000000E+00 -0.00000000000E+00 -0.45593999997E+02  0.45594000000E+02  0.51100000000E-03 0. -1.
    9900012    2    1    2    0    0 -0.30770525856E+01 -0.99282069926E+01 -0.30144295157E+02  0.59302014407E+02  0.50000128355E+02 0.  0.
        -12    1    1    2    0    0  0.30770525856E+01  0.99282069926E+01  0.30144295157E+02  0.31885985593E+02  0.00000000000E+00 0.  1.
         11    1    3    3    0    0  0.45906982695E+01 -0.12628520329E+02 -0.80761250509E+01  0.15677303097E+02  0.51100000000E-03 0. -1.
        -11    1    3    3    0    0 -0.11898511160E+02 -0.72739844439E+01  0.47244734807E+01  0.14724335891E+02  0.51100000000E-03 0.  1.
         12    1    3    3    0    0  0.42307603045E+01  0.99742977804E+01 -0.26792643587E+02  0.28900375419E+02  0.00000000000E+00 0. -1.
</event>
<event>
 7    1  0.7444241E-013  0.5930194E+02  0.7816164E-02  0.1266605E+00
        -11   -1    0    0    0    0  0.00000000000E+00  0.00000000000E+00  0.45593999997E+02  0.45594000000E+02  0.51100000000E-03 0. -1.
         11   -1    0    0    0    0 -0.00000000000E+00 -0.00000000000E+00 -0.45593999997E+02  0.45594000000E+02  0.51100000000E-03 0.  1.
    9900012    2    1    2    0    0  0.10285492074E+02  0.14398912867E+02  0.26525473384E+02  0.59301940708E+02  0.49999993945E+02 0.  0.
        -12    1    1    2    0    0 -0.10285492074E+02 -0.14398912867E+02 -0.26525473384E+02  0.31886059292E+02  0.00000000000E+00 0.  1.
         11    1    3    3    0    0 -0.10485245697E+02 -0.17383263427E+01  0.62506803753E+01  0.12330172797E+02  0.51100000000E-03 0. -1.
        -11    1    3    3    0    0 -0.15488291294E+01  0.49470893175E+00 -0.77265996899E+01  0.78958186167E+01  0.51100000000E-03 0.  1.
         12    1    3    3    0    0  0.22319566901E+02  0.15642530278E+02  0.28001392698E+02  0.39075949293E+02  0.00000000000E+00 0. -1.
</event>
<event>
 7    1  0.7444241E-013  0.5930199E+02  0.7816164E-02  0.1266605E+00
        -11   -1    0    0    0    0  0.00000000000E+00  0.00000000000E+00  0.45593999997E+02  0.45594000000E+02  0.51100000000E-03 0.  1.
         11   -1    0    0    0    0 -0.00000000000E+00 -0.00000000000E+00 -0.45593999997E+02  0.45594000000E+02  0.51100000000E-03 0. -1.
    9900012    2    1    2    0    0 -0.33110384170E+01  0.23164105021E+02 -0.21660538836E+02  0.59301989283E+02  0.50000082534E+02 0.  0.
        -12    1    1    2    0    0  0.33110384170E+01 -0.23164105021E+02  0.21660538836E+02  0.31886010717E+02  0.00000000000E+00 0.  1.
         11    1    3    3    0    0 -0.10766493144E+02  0.21665732373E+02 -0.53616307837E+01  0.24780403928E+02  0.51100000000E-03 0. -1.
        -11    1    3    3    0    0 -0.10511492205E+01  0.13504256096E+01  0.83095373267E+01  0.84839244961E+01  0.51100000000E-03 0.  1.
         12    1    3    3    0    0  0.85066039479E+01  0.14794703755E+00 -0.24608445379E+02  0.26037660859E+02  0.00000000000E+00 0. -1.
</event>
<event>
 7    1  0.7444241E-013  0.5930193E+02  0.7816164E-02  0.1266605E+00
        -11   -1    0    0    0    0  0.00000000000E+00  0.00000000000E+00  0.45593999997E+02  0.45594000000E+02  0.51100000000E-03 0.  1.
         11   -1    0    0    0    0 -0.00000000000E+00 -0.00000000000E+00 -0.45593999997E+02  0.45594000000E+02  0.51100000000E-03 0. -1.
    9900012    2    1    2    0    0  0.13923382232E+02 -0.26634303438E+02 -0.10652465466E+02  0.59301926035E+02  0.49999967185E+02 0.  0.
        -12    1    1    2    0    0 -0.13923382232E+02  0.26634303438E+02  0.10652465466E+02  0.31886073965E+02  0.00000000000E+00 0.  1.
         11    1    3    3    0    0 -0.76567672715E+01 -0.20950359635E+01 -0.10900894104E+02  0.13484982509E+02  0.51100000000E-03 0. -1.
        -11    1    3    3    0    0  0.13085212034E+02  0.15859791390E+01 -0.99484143082E+01  0.16513904787E+02  0.51100000000E-03 0.  1.
        -12    1    3    3    0    0  0.84949374696E+01 -0.26125246614E+02  0.10196842947E+02  0.29303038739E+02  0.00000000000E+00 0.  1.
</event>
<event>
 7    1  0.7444241E-013  0.5930194E+02  0.7816164E-02  0.1266605E+00
        -11   -1    0    0    0    0  0.00000000000E+00  0.00000000000E+00  0.45593999997E+02  0.45594000000E+02  0.51100000000E-03 0.  1.
         11   -1    0    0    0    0 -0.00000000000E+00 -0.00000000000E+00 -0.45593999997E+02  0.45594000000E+02  0.51100000000E-03 0. -1.
    9900012    2    1    2    0    0 -0.14747368753E+02 -0.41081432208E+01 -0.27970677237E+02  0.59301944882E+02  0.50000001558E+02 0.  0.
        -12    1    1    2    0    0  0.14747368753E+02  0.41081432208E+01  0.27970677237E+02  0.31886055118E+02  0.00000000000E+00 0.  1.
         11    1    3    3    0    0 -0.13483457407E+02 -0.12754730995E+02 -0.26301277070E+02  0.32190743424E+02  0.51100000000E-03 0. -1.
        -11    1    3    3    0    0  0.85610338223E+01  0.10053574364E+00 -0.87893948845E+01  0.12270080287E+02  0.51100000000E-03 0.  1.
        -12    1    3    3    0    0 -0.98249451686E+01  0.85460520304E+01  0.71199947169E+01  0.14841121172E+02  0.00000000000E+00 0.  1.
</event>
<event>
 7    1  0.7444241E-013  0.5930193E+02  0.7816164E-02  0.1266605E+00
        -11   -1    0    0    0    0  0.00000000000E+00  0.00000000000E+00  0.45593999997E+02  0.45594000000E+02  0.51100000000E-03 0.  1.
         11   -1    0    0    0    0 -0.00000000000E+00 -0.00000000000E+00 -0.45593999997E+02  0.45594000000E+02  0.51100000000E-03 0. -1.
    9900012    2    1    2    0    0 -0.78370118189E+01 -0.11660469969E+02 -0.28624045402E+02  0.59301932678E+02  0.49999979300E+02 0.  0.
        -12    1    1    2    0    0  0.78370118189E+01  0.11660469969E+02  0.28624045402E+02  0.31886067322E+02  0.00000000000E+00 0.  1.
         11    1    3    3    0    0  0.14032928595E-02  0.74133194033E+00 -0.16336275720E+02  0.16353087772E+02  0.51100000000E-03 0. -1.
        -11    1    3    3    0    0 -0.22116663061E+02 -0.18824162537E+01 -0.11953889360E+02  0.25210825988E+02  0.51100000000E-03 0.  1.
        -12    1    3    3    0    0  0.14278247949E+02 -0.10519385655E+02 -0.33388032172E+00  0.17738018918E+02  0.00000000000E+00 0.  1.
</event>
<event>
 7    1  0.7444241E-013  0.5930196E+02  0.7816164E-02  0.1266605E+00
        -11   -1    0    0    0    0  0.00000000000E+00  0.00000000000E+00  0.45593999997E+02  0.45594000000E+02  0.51100000000E-03 0.  1.
         11   -1    0    0    0    0 -0.00000000000E+00 -0.00000000000E+00 -0.45593999997E+02  0.45594000000E+02  0.51100000000E-03 0. -1.
    9900012    2    1    2    0    0  0.29462575237E+02  0.82956500985E+01 -0.89363465838E+01  0.59301961670E+02  0.50000032174E+02 0.  0.
        -12    1    1    2    0    0 -0.29462575237E+02 -0.82956500985E+01  0.89363465838E+01  0.31886038330E+02  0.00000000000E+00 0.  1.
         11    1    3    3    0    0  0.24276093410E+02  0.75590350658E+01 -0.82538027948E+01  0.26731872048E+02  0.51100000000E-03 0. -1.
        -11    1    3    3    0    0 -0.13571718127E+02  0.21795176833E+01 -0.53107880441E+00  0.13755866937E+02  0.51100000000E-03 0.  1.
         12    1    3    3    0    0  0.18758199953E+02 -0.14429026506E+01 -0.15146498467E+00  0.18814222684E+02  0.00000000000E+00 0. -1.
</event>
<event>
 7    1  0.7444241E-013  0.5930196E+02  0.7816164E-02  0.1266605E+00
        -11   -1    0    0    0    0  0.00000000000E+00  0.00000000000E+00  0.45593999997E+02  0.45594000000E+02  0.51100000000E-03 0.  1.
         11   -1    0    0    0    0 -0.00000000000E+00 -0.00000000000E+00 -0.45593999997E+02  0.45594000000E+02  0.51100000000E-03 0. -1.
    9900012    2    1    2    0    0  0.19251784712E+01  0.15748659780E+02 -0.27658504502E+02  0.59301961233E+02  0.50000031378E+02 0.  0.
        -12    1    1    2    0    0 -0.19251784712E+01 -0.15748659780E+02  0.27658504502E+02  0.31886038767E+02  0.00000000000E+00 0.  1.
         11    1    3    3    0    0  0.46269367924E+01  0.76967127913E+00 -0.28994771325E+00  0.46994688952E+01  0.51100000000E-03 0. -1.
        -11    1    3    3    0    0  0.17337327445E+02 -0.54532682684E+01 -0.70039674893E+01  0.19477592731E+02  0.51100000000E-03 0.  1.
        -12    1    3    3    0    0 -0.20039085766E+02  0.20432256769E+02 -0.20364589299E+02  0.35124899606E+02  0.00000000000E+00 0.  1.
</event>
<event>
 7    1  0.7444241E-013  0.5930192E+02  0.7816164E-02  0.1266605E+00
        -11   -1    0    0    0    0  0.00000000000E+00  0.00000000000E+00  0.45593999997E+02  0.45594000000E+02  0.51100000000E-03 0. -1.
         11   -1    0    0    0    0 -0.00000000000E+00 -0.00000000000E+00 -0.45593999997E+02  0.45594000000E+02  0.51100000000E-03 0.  1.
    9900012    2    1    2    0    0 -0.28706452610E+02 -0.46255433883E+01  0.13086861438E+02  0.59301921292E+02  0.49999958535E+02 0.  0.
        -12    1    1    2    0    0  0.28706452610E+02  0.46255433883E+01 -0.13086861438E+02  0.31886078708E+02  0.00000000000E+00 0.  1.
         11    1    3    3    0    0 -0.15133286857E+02  0.98425565482E+01  0.41699334475E+01  0.18527834080E+02  0.51100000000E-03 0. -1.
        -11    1    3    3    0    0 -0.20328508707E+02 -0.30363522594E+01 -0.53957491365E+01  0.21250454355E+02  0.51100000000E-03 0.  1.
        -12    1    3    3    0    0  0.67553429534E+01 -0.11431747677E+02  0.14312677127E+02  0.19523632857E+02  0.00000000000E+00 0.  1.
</event>
<event>
 7    1  0.7444241E-013  0.5930195E+02  0.7816164E-02  0.1266605E+00
        -11   -1    0    0    0    0  0.00000000000E+00  0.00000000000E+00  0.45593999997E+02  0.45594000000E+02  0.51100000000E-03 0. -1.
         11   -1    0    0    0    0 -0.00000000000E+00 -0.00000000000E+00 -0.45593999997E+02  0.45594000000E+02  0.51100000000E-03 0.  1.
    9900012    2    1    2    0    0  0.28803269563E+02  0.95202208657E+01 -0.98212498334E+01  0.59301954602E+02  0.50000019285E+02 0.  0.
        -12    1    1    2    0    0 -0.28803269563E+02 -0.95202208657E+01  0.98212498334E+01  0.31886045398E+02  0.00000000000E+00 0.  1.
         11    1    3    3    0    0  0.25634159683E+02  0.21856221270E+02 -0.11573564476E+02  0.35619544436E+02  0.51100000000E-03 0. -1.
        -11    1    3    3    0    0 -0.24989558011E+01  0.43375809874E+01 -0.24559325275E+01  0.55759298560E+01  0.51100000000E-03 0.  1.
         12    1    3    3    0    0  0.56680656807E+01 -0.16673581392E+02  0.42082471698E+01  0.18106480310E+02  0.00000000000E+00 0. -1.
</event>
<event>
 7    1  0.7444241E-013  0.5930184E+02  0.7816164E-02  0.1266605E+00
        -11   -1    0    0    0    0  0.00000000000E+00  0.00000000000E+00  0.45593999997E+02  0.45594000000E+02  0.51100000000E-03 0.  1.
         11   -1    0    0    0    0 -0.00000000000E+00 -0.00000000000E+00 -0.45593999997E+02  0.45594000000E+02  0.51100000000E-03 0. -1.
    9900012    2    1    2    0    0  0.18650893692E+02  0.25500613647E+02 -0.43116051144E+01  0.59301842023E+02  0.49999813967E+02 0.  0.
        -12    1    1    2    0    0 -0.18650893692E+02 -0.25500613647E+02  0.43116051144E+01  0.31886157977E+02  0.00000000000E+00 0.  1.
         11    1    3    3    0    0  0.19922325769E+02  0.12988813315E+02  0.80750029179E+01  0.25116010984E+02  0.51100000000E-03 0. -1.
        -11    1    3    3    0    0  0.11544346094E+02  0.12821251130E+02 -0.14121029843E+01  0.17310414275E+02  0.51100000000E-03 0.  1.
        -12    1    3    3    0    0 -0.12815778171E+02 -0.30945079795E+00 -0.10974505048E+02  0.16875416764E+02  0.00000000000E+00 0.  1.
</event>
<event>
 7    1  0.7444241E-013  0.5930225E+02  0.7816164E-02  0.1266604E+00
        -11   -1    0    0    0    0  0.00000000000E+00  0.00000000000E+00  0.45593999997E+02  0.45594000000E+02  0.51100000000E-03 0. -1.
         11   -1    0    0    0    0 -0.00000000000E+00 -0.00000000000E+00 -0.45593999997E+02  0.45594000000E+02  0.51100000000E-03 0.  1.
    9900012    2    1    2    0    0 -0.17765916578E+02  0.12909820982E+00  0.26477470847E+02  0.59302252076E+02  0.50000561803E+02 0.  0.
        -12    1    1    2    0    0  0.17765916578E+02 -0.12909820982E+00 -0.26477470847E+02  0.31885747924E+02  0.00000000000E+00 0.  1.
         11    1    3    3    0    0 -0.45192711771E+01  0.21676602410E+01 -0.98451642180E+01  0.11047616106E+02  0.51100000000E-03 0. -1.
        -11    1    3    3    0    0  0.29540344055E+00  0.69389576332E+01 -0.14862989856E+01  0.71024982339E+01  0.51100000000E-03 0.  1.
         12    1    3    3    0    0 -0.13542048841E+02 -0.89775196644E+01  0.37808934051E+02  0.41152137736E+02  0.00000000000E+00 0. -1.
</event>
<event>
 7    1  0.7444241E-013  0.5930197E+02  0.7816164E-02  0.1266605E+00
        -11   -1    0    0    0    0  0.00000000000E+00  0.00000000000E+00  0.45593999997E+02  0.45594000000E+02  0.51100000000E-03 0.  1.
         11   -1    0    0    0    0 -0.00000000000E+00 -0.00000000000E+00 -0.45593999997E+02  0.45594000000E+02  0.51100000000E-03 0. -1.
    9900012    2    1    2    0    0  0.45778822226E+00 -0.21670880111E+01 -0.31809008663E+02  0.59301970573E+02  0.50000048411E+02 0.  0.
        -12    1    1    2    0    0 -0.45778822226E+00  0.21670880111E+01  0.31809008663E+02  0.31886029427E+02  0.00000000000E+00 0.  1.
         11    1    3    3    0    0 -0.40041540152E+01 -0.16940498461E+02 -0.15697241627E+02  0.23439648727E+02  0.51100000000E-03 0. -1.
        -11    1    3    3    0    0  0.32627139025E+01 -0.37034955459E+00  0.72710516288E+01  0.79781359259E+01  0.51100000000E-03 0.  1.
         12    1    3    3    0    0  0.11992283349E+01  0.15143760004E+02 -0.23382818665E+02  0.27884185920E+02  0.00000000000E+00 0. -1.
</event>
<event>
 7    1  0.7444241E-013  0.5930195E+02  0.7816164E-02  0.1266605E+00
        -11   -1    0    0    0    0  0.00000000000E+00  0.00000000000E+00  0.45593999997E+02  0.45594000000E+02  0.51100000000E-03 0. -1.
         11   -1    0    0    0    0 -0.00000000000E+00 -0.00000000000E+00 -0.45593999997E+02  0.45594000000E+02  0.51100000000E-03 0.  1.
    9900012    2    1    2    0    0 -0.16067180263E+02  0.27512890277E+02 -0.12676197129E+01  0.59301948618E+02  0.50000008372E+02 0.  0.
        -12    1    1    2    0    0  0.16067180263E+02 -0.27512890277E+02  0.12676197129E+01  0.31886051382E+02  0.00000000000E+00 0.  1.
         11    1    3    3    0    0 -0.13852527509E+00 -0.68730186335E+01  0.73266907690E+01  0.10046789152E+02  0.51100000000E-03 0. -1.
        -11    1    3    3    0    0  0.54333223905E+01  0.17229220395E+01  0.53433582155E+01  0.78128695006E+01  0.51100000000E-03 0.  1.
         12    1    3    3    0    0 -0.21361977378E+02  0.32662986871E+02 -0.13937668697E+02  0.41442289965E+02  0.00000000000E+00 0. -1.
</event>
<event>
 7    1  0.7444241E-013  0.5930193E+02  0.7816164E-02  0.1266605E+00
        -11   -1    0    0    0    0  0.00000000000E+00  0.00000000000E+00  0.45593999997E+02  0.45594000000E+02  0.51100000000E-03 0. -1.
         11   -1    0    0    0    0 -0.00000000000E+00 -0.00000000000E+00 -0.45593999997E+02  0.45594000000E+02  0.51100000000E-03 0.  1.
    9900012    2    1    2    0    0 -0.27884206819E+02 -0.13362371886E+02  0.77871176455E+01  0.59301934492E+02  0.49999982610E+02 0.  0.
        -12    1    1    2    0    0  0.27884206819E+02  0.13362371886E+02 -0.77871176455E+01  0.31886065508E+02  0.00000000000E+00 0.  1.
         11    1    3    3    0    0  0.37685166057E+01 -0.18413378602E+02  0.10586528490E+02  0.21571481513E+02  0.51100000000E-03 0. -1.
        -11    1    3    3    0    0  0.27099401724E+01 -0.61391834804E+00 -0.54125706076E+00  0.28308357322E+01  0.51100000000E-03 0.  1.
         12    1    3    3    0    0 -0.34362663597E+02  0.56649250639E+01 -0.22581537838E+01  0.34899617247E+02  0.00000000000E+00 0. -1.
</event>
<event>
 7    1  0.7444241E-013  0.5930194E+02  0.7816164E-02  0.1266605E+00
        -11   -1    0    0    0    0  0.00000000000E+00  0.00000000000E+00  0.45593999997E+02  0.45594000000E+02  0.51100000000E-03 0.  1.
         11   -1    0    0    0    0 -0.00000000000E+00 -0.00000000000E+00 -0.45593999997E+02  0.45594000000E+02  0.51100000000E-03 0. -1.
    9900012    2    1    2    0    0  0.18127109474E+02  0.11013827088E+02 -0.23808073876E+02  0.59301939305E+02  0.49999991387E+02 0.  0.
        -12    1    1    2    0    0 -0.18127109474E+02 -0.11013827088E+02  0.23808073876E+02  0.31886060695E+02  0.00000000000E+00 0.  1.
         11    1    3    3    0    0  0.17104403056E+02 -0.82520369554E+01 -0.12130297029E+02  0.22534436404E+02  0.51100000000E-03 0. -1.
        -11    1    3    3    0    0  0.88599494957E+01  0.23996285372E+02 -0.71813934449E+01  0.26568643714E+02  0.51100000000E-03 0.  1.
         12    1    3    3    0    0 -0.78372430777E+01 -0.47304213289E+01 -0.44963834020E+01  0.10198859186E+02  0.00000000000E+00 0. -1.
</event>
<event>
 7    1  0.7444241E-013  0.5930195E+02  0.7816164E-02  0.1266605E+00
        -11   -1    0    0    0    0  0.00000000000E+00  0.00000000000E+00  0.45593999997E+02  0.45594000000E+02  0.51100000000E-03 0.  1.
         11   -1    0    0    0    0 -0.00000000000E+00 -0.00000000000E+00 -0.45593999997E+02  0.45594000000E+02  0.51100000000E-03 0. -1.
    9900012    2    1    2    0    0  0.22885818638E+02  0.43678092540E+01 -0.21768824580E+02  0.59301950134E+02  0.50000011137E+02 0.  0.
        -12    1    1    2    0    0 -0.22885818638E+02 -0.43678092540E+01  0.21768824580E+02  0.31886049866E+02  0.00000000000E+00 0.  1.
         11    1    3    3    0    0  0.30647967643E+01 -0.72972959338E+01 -0.16562435341E+02  0.18356409557E+02  0.51100000000E-03 0. -1.
        -11    1    3    3    0    0 -0.51289717497E+01 -0.39695217766E+01 -0.91745173392E+01  0.11235444941E+02  0.51100000000E-03 0.  1.
         12    1    3    3    0    0  0.24949993623E+02  0.15634626964E+02  0.39681280996E+01  0.29710095637E+02  0.00000000000E+00 0. -1.
</event>
<event>
 7    1  0.7444241E-013  0.5930195E+02  0.7816164E-02  0.1266605E+00
        -11   -1    0    0    0    0  0.00000000000E+00  0.00000000000E+00  0.45593999997E+02  0.45594000000E+02  0.51100000000E-03 0. -1.
         11   -1    0    0    0    0 -0.00000000000E+00 -0.00000000000E+00 -0.45593999997E+02  0.45594000000E+02  0.51100000000E-03 0.  1.
    9900012    2    1    2    0    0 -0.74799515638E+01  0.29326339735E+02  0.10036761265E+02  0.59301945770E+02  0.50000003178E+02 0.  0.
        -12    1    1    2    0    0  0.74799515638E+01 -0.29326339735E+02 -0.10036761265E+02  0.31886054230E+02  0.00000000000E+00 0.  1.
         11    1    3    3    0    0  0.98775043545E+01  0.35481840812E+01  0.86907855706E+00  0.10531381692E+02  0.51100000000E-03 0. -1.
        -11    1    3    3    0    0  0.10445164536E+02  0.12766797654E+02 -0.74806318902E+00  0.16512182875E+02  0.51100000000E-03 0.  1.
         12    1    3    3    0    0 -0.27802620454E+02  0.13011358000E+02  0.99157458966E+01  0.32258381203E+02  0.00000000000E+00 0. -1.
</event>
<event>
 7    1  0.7444241E-013  0.5930177E+02  0.7816164E-02  0.1266605E+00
        -11   -1    0    0    0    0  0.00000000000E+00  0.00000000000E+00  0.45593999997E+02  0.45594000000E+02  0.51100000000E-03 0.  1.
         11   -1    0    0    0    0 -0.00000000000E+00 -0.00000000000E+00 -0.45593999997E+02  0.45594000000E+02  0.51100000000E-03 0. -1.
    9900012    2    1    2    0    0 -0.41772413420E+01 -0.28848670238E+02  0.12924260588E+02  0.59301770504E+02  0.49999683533E+02 0.  0.
        -12    1    1    2    0    0  0.41772413420E+01  0.28848670238E+02 -0.12924260588E+02  0.31886229496E+02  0.00000000000E+00 0.  1.
         11    1    3    3    0    0 -0.47317191136E+01 -0.25488573693E+02  0.70648034187E+01  0.26869462262E+02  0.51100000000E-03 0. -1.
        -11    1    3    3    0    0 -0.89897379042E+01 -0.14602120880E+02  0.34080064544E+01  0.17482901076E+02  0.51100000000E-03 0.  1.
        -12    1    3    3    0    0  0.95442156758E+01  0.11242024334E+02  0.24514507152E+01  0.14949407166E+02  0.00000000000E+00 0.  1.
</event>
<event>
 7    1  0.7444241E-013  0.5930194E+02  0.7816164E-02  0.1266605E+00
        -11   -1    0    0    0    0  0.00000000000E+00  0.00000000000E+00  0.45593999997E+02  0.45594000000E+02  0.51100000000E-03 0.  1.
         11   -1    0    0    0    0 -0.00000000000E+00 -0.00000000000E+00 -0.45593999997E+02  0.45594000000E+02  0.51100000000E-03 0. -1.
    9900012    2    1    2    0    0  0.23148644469E+02 -0.14215663786E+02 -0.16696582524E+02  0.59301941830E+02  0.49999995991E+02 0.  0.
        -12    1    1    2    0    0 -0.23148644469E+02  0.14215663786E+02  0.16696582524E+02  0.31886058170E+02  0.00000000000E+00 0.  1.
         11    1    3    3    0    0  0.30318924349E+02 -0.11062196453E+02 -0.42066219198E+00  0.32276714842E+02  0.51100000000E-03 0. -1.
        -11    1    3    3    0    0 -0.11431907409E+01  0.97880730199E+00  0.46355214090E+01  0.48737057563E+01  0.51100000000E-03 0.  1.
         12    1    3    3    0    0 -0.60270891391E+01 -0.41322746358E+01 -0.20911441741E+02  0.22151521231E+02  0.00000000000E+00 0. -1.
</event>
<event>
 7    1  0.7444241E-013  0.5930194E+02  0.7816164E-02  0.1266605E+00
        -11   -1    0    0    0    0  0.00000000000E+00  0.00000000000E+00  0.45593999997E+02  0.45594000000E+02  0.51100000000E-03 0.  1.
         11   -1    0    0    0    0 -0.00000000000E+00 -0.00000000000E+00 -0.45593999997E+02  0.45594000000E+02  0.51100000000E-03 0. -1.
    9900012    2    1    2    0    0  0.19069630772E+02  0.22805677751E+02 -0.11531303049E+02  0.59301941832E+02  0.49999995996E+02 0.  0.
        -12    1    1    2    0    0 -0.19069630772E+02 -0.22805677751E+02  0.11531303049E+02  0.31886058168E+02  0.00000000000E+00 0.  1.
         11    1    3    3    0    0  0.72289081115E-02 -0.64646886274E+01 -0.13067994994E+02  0.14579600294E+02  0.51100000000E-03 0. -1.
        -11    1    3    3    0    0  0.12560425591E+02  0.43415483825E+01 -0.98634237047E+01  0.16549938393E+02  0.51100000000E-03 0.  1.
        -12    1    3    3    0    0  0.65019762728E+01  0.24928817996E+02  0.11400115650E+02  0.28172403145E+02  0.00000000000E+00 0.  1.
</event>
<event>
 7    1  0.7444241E-013  0.5930194E+02  0.7816164E-02  0.1266605E+00
        -11   -1    0    0    0    0  0.00000000000E+00  0.00000000000E+00  0.45593999997E+02  0.45594000000E+02  0.51100000000E-03 0. -1.
         11   -1    0    0    0    0 -0.00000000000E+00 -0.00000000000E+00 -0.45593999997E+02  0.45594000000E+02  0.51100000000E-03 0.  1.
    9900012    2    1    2    0    0 -0.10200432555E+02 -0.19480983704E+02  0.23090333113E+02  0.59301936686E+02  0.49999986611E+02 0.  0.
        -12    1    1    2    0    0  0.10200432555E+02  0.19480983704E+02 -0.23090333113E+02  0.31886063314E+02  0.00000000000E+00 0.  1.
         11    1    3    3    0    0  0.43327846517E+01 -0.35694474048E+01  0.10423967630E+01  0.57096907873E+01  0.51100000000E-03 0.  1.
        -11    1    3    3    0    0 -0.37089216541E+01 -0.81945976521E+01  0.34332825719E+02  0.35491554666E+02  0.51100000000E-03 0. -1.
         12    1    3    3    0    0 -0.10824295553E+02 -0.77169386470E+01 -0.12284889369E+02  0.18100691233E+02  0.00000000000E+00 0. -1.
</event>
<event>
 7    1  0.7444241E-013  0.5930195E+02  0.7816164E-02  0.1266605E+00
        -11   -1    0    0    0    0  0.00000000000E+00  0.00000000000E+00  0.45593999997E+02  0.45594000000E+02  0.51100000000E-03 0.  1.
         11   -1    0    0    0    0 -0.00000000000E+00 -0.00000000000E+00 -0.45593999997E+02  0.45594000000E+02  0.51100000000E-03 0. -1.
    9900012    2    1    2    0    0 -0.17082596209E+02  0.26913158107E+02  0.76610179503E+00  0.59301951570E+02  0.50000013755E+02 0.  0.
        -12    1    1    2    0    0  0.17082596209E+02 -0.26913158107E+02 -0.76610179503E+00  0.31886048430E+02  0.00000000000E+00 0.  1.
         11    1    3    3    0    0  0.32724496220E+01  0.15600084648E+02 -0.27512439336E+01  0.16175317956E+02  0.51100000000E-03 0.  1.
        -11    1    3    3    0    0  0.14491997136E+01  0.19295135997E+02 -0.13720707241E+01  0.19398067720E+02  0.51100000000E-03 0. -1.
        -12    1    3    3    0    0 -0.21804245544E+02 -0.79820625376E+01  0.48894164527E+01  0.23728565893E+02  0.00000000000E+00 0.  1.
</event>
<event>
 7    1  0.7444241E-013  0.5930198E+02  0.7816164E-02  0.1266605E+00
        -11   -1    0    0    0    0  0.00000000000E+00  0.00000000000E+00  0.45593999997E+02  0.45594000000E+02  0.51100000000E-03 0. -1.
         11   -1    0    0    0    0 -0.00000000000E+00 -0.00000000000E+00 -0.45593999997E+02  0.45594000000E+02  0.51100000000E-03 0.  1.
    9900012    2    1    2    0    0  0.54770648266E+01  0.30758711016E+02 -0.63735425004E+01  0.59301975059E+02  0.50000056594E+02 0.  0.
        -12    1    1    2    0    0 -0.54770648266E+01 -0.30758711016E+02  0.63735425004E+01  0.31886024941E+02  0.00000000000E+00 0.  1.
         11    1    3    3    0    0  0.11279422534E+01  0.25705010364E+02  0.56975144339E+01  0.26353016574E+02  0.51100000000E-03 0.  1.
        -11    1    3    3    0    0  0.27041378174E+01 -0.39699086917E+01  0.88700675725E+01  0.10087151994E+02  0.51100000000E-03 0. -1.
        -12    1    3    3    0    0  0.16449847558E+01  0.90236093441E+01 -0.20941124507E+02  0.22861806491E+02  0.00000000000E+00 0.  1.
</event>
<event>
 7    1  0.7444241E-013  0.5930194E+02  0.7816164E-02  0.1266605E+00
        -11   -1    0    0    0    0  0.00000000000E+00  0.00000000000E+00  0.45593999997E+02  0.45594000000E+02  0.51100000000E-03 0.  1.
         11   -1    0    0    0    0 -0.00000000000E+00 -0.00000000000E+00 -0.45593999997E+02  0.45594000000E+02  0.51100000000E-03 0. -1.
    9900012    2    1    2    0    0  0.28996702026E+02 -0.10301560887E+02 -0.83540254189E+01  0.59301943082E+02  0.49999998275E+02 0.  0.
        -12    1    1    2    0    0 -0.28996702026E+02  0.10301560887E+02  0.83540254189E+01  0.31886056918E+02  0.00000000000E+00 0.  1.
         11    1    3    3    0    0  0.35684410853E+01  0.12660512341E+02  0.51400741966E+01  0.14122418615E+02  0.51100000000E-03 0. -1.
        -11    1    3    3    0    0  0.21776651770E+02 -0.34690102543E+01 -0.17259511577E+01  0.22118668634E+02  0.51100000000E-03 0.  1.
         12    1    3    3    0    0  0.36516091700E+01 -0.19493062974E+02 -0.11768148458E+02  0.23060855834E+02  0.00000000000E+00 0. -1.
</event>
<event>
 7    1  0.7444241E-013  0.5930195E+02  0.7816164E-02  0.1266605E+00
        -11   -1    0    0    0    0  0.00000000000E+00  0.00000000000E+00  0.45593999997E+02  0.45594000000E+02  0.51100000000E-03 0. -1.
         11   -1    0    0    0    0 -0.00000000000E+00 -0.00000000000E+00 -0.45593999997E+02  0.45594000000E+02  0.51100000000E-03 0.  1.
    9900012    2    1    2    0    0 -0.19817863092E+02 -0.18002811012E+02  0.17316788966E+02  0.59301951610E+02  0.50000013828E+02 0.  0.
        -12    1    1    2    0    0  0.19817863092E+02  0.18002811012E+02 -0.17316788966E+02  0.31886048390E+02  0.00000000000E+00 0.  1.
         11    1    3    3    0    0 -0.10367210898E+02  0.33439157897E+00  0.90577679953E+01  0.13770767620E+02  0.51100000000E-03 0. -1.
        -11    1    3    3    0    0 -0.22768221765E+02 -0.10017372662E+02  0.14316898644E+02  0.28700405301E+02  0.51100000000E-03 0.  1.
        -12    1    3    3    0    0  0.13317569572E+02 -0.83198299286E+01 -0.60578776735E+01  0.16830778688E+02  0.00000000000E+00 0.  1.
</event>
<event>
 7    1  0.7444241E-013  0.5930195E+02  0.7816164E-02  0.1266605E+00
        -11   -1    0    0    0    0  0.00000000000E+00  0.00000000000E+00  0.45593999997E+02  0.45594000000E+02  0.51100000000E-03 0.  1.
         11   -1    0    0    0    0 -0.00000000000E+00 -0.00000000000E+00 -0.45593999997E+02  0.45594000000E+02  0.51100000000E-03 0. -1.
    9900012    2    1    2    0    0 -0.12493702329E+02 -0.21838363406E+02 -0.19588603287E+02  0.59301951438E+02  0.50000013515E+02 0.  0.
        -12    1    1    2    0    0  0.12493702329E+02  0.21838363406E+02  0.19588603287E+02  0.31886048562E+02  0.00000000000E+00 0.  1.
         11    1    3    3    0    0 -0.16948669074E+02 -0.11088416008E+02 -0.17019919333E+02  0.26455396563E+02  0.51100000000E-03 0. -1.
        -11    1    3    3    0    0 -0.12980021297E+02 -0.49041765714E+01 -0.38890861952E+01  0.14410305077E+02  0.51100000000E-03 0.  1.
        -12    1    3    3    0    0  0.17434988041E+02 -0.58457708260E+01  0.13204022415E+01  0.18436249798E+02  0.00000000000E+00 0.  1.
</event>
<event>
 7    1  0.7444241E-013  0.5930194E+02  0.7816164E-02  0.1266605E+00
        -11   -1    0    0    0    0  0.00000000000E+00  0.00000000000E+00  0.45593999997E+02  0.45594000000E+02  0.51100000000E-03 0.  1.
         11   -1    0    0    0    0 -0.00000000000E+00 -0.00000000000E+00 -0.45593999997E+02  0.45594000000E+02  0.51100000000E-03 0. -1.
    9900012    2    1    2    0    0  0.10143585397E+01 -0.21509709307E+02 -0.23516470880E+02  0.59301938463E+02  0.49999989850E+02 0.  0.
        -12    1    1    2    0    0 -0.10143585397E+01  0.21509709307E+02  0.23516470880E+02  0.31886061537E+02  0.00000000000E+00 0.  1.
         11    1    3    3    0    0  0.74178095082E+01 -0.17859505023E+02 -0.35161291050E+01  0.19655762049E+02  0.51100000000E-03 0. -1.
        -11    1    3    3    0    0  0.12811408773E+02 -0.53630752602E+01 -0.13285804648E+02  0.19219973372E+02  0.51100000000E-03 0.  1.
         12    1    3    3    0    0 -0.19214859742E+02  0.17128709765E+01 -0.67145371267E+01  0.20426203042E+02  0.00000000000E+00 0. -1.
</event>
<event>
 7    1  0.7444241E-013  0.5930196E+02  0.7816164E-02  0.1266605E+00
        -11   -1    0    0    0    0  0.00000000000E+00  0.00000000000E+00  0.45593999997E+02  0.45594000000E+02  0.51100000000E-03 0.  1.
         11   -1    0    0    0    0 -0.00000000000E+00 -0.00000000000E+00 -0.45593999997E+02  0.45594000000E+02  0.51100000000E-03 0. -1.
    9900012    2    1    2    0    0 -0.22405681328E+02  0.12536456464E+02  0.18908790645E+02  0.59301958225E+02  0.50000025892E+02 0.  0.
        -12    1    1    2    0    0  0.22405681328E+02 -0.12536456464E+02 -0.18908790645E+02  0.31886041775E+02  0.00000000000E+00 0.  1.
         11    1    3    3    0    0 -0.31895885624E+01  0.10171170540E+02 -0.68484664784E+01  0.12669951804E+02  0.51100000000E-03 0. -1.
        -11    1    3    3    0    0 -0.50539269742E+01  0.88447065904E+01 -0.55968064884E+01  0.11623048467E+02  0.51100000000E-03 0.  1.
        -12    1    3    3    0    0 -0.14162165791E+02 -0.64794206664E+01  0.31354063612E+02  0.35008957954E+02  0.00000000000E+00 0.  1.
</event>
<event>
 7    1  0.7444241E-013  0.5930193E+02  0.7816164E-02  0.1266605E+00
        -11   -1    0    0    0    0  0.00000000000E+00  0.00000000000E+00  0.45593999997E+02  0.45594000000E+02  0.51100000000E-03 0.  1.
         11   -1    0    0    0    0 -0.00000000000E+00 -0.00000000000E+00 -0.45593999997E+02  0.45594000000E+02  0.51100000000E-03 0. -1.
    9900012    2    1    2    0    0  0.15340362284E+02  0.21323463965E+02 -0.18074967623E+02  0.59301932744E+02  0.49999979421E+02 0.  0.
        -12    1    1    2    0    0 -0.15340362284E+02 -0.21323463965E+02  0.18074967623E+02  0.31886067256E+02  0.00000000000E+00 0.  1.
         11    1    3    3    0    0  0.43845655546E+01  0.70741845152E+01 -0.13702802769E+00  0.83238980412E+01  0.51100000000E-03 0. -1.
        -11    1    3    3    0    0 -0.12348838711E+02  0.19493093306E+02 -0.43029022151E+01  0.23473164931E+02  0.51100000000E-03 0.  1.
        -12    1    3    3    0    0  0.23304635441E+02 -0.52438138561E+01 -0.13635037380E+02  0.27504869771E+02  0.00000000000E+00 0.  1.
</event>
<event>
 7    1  0.7444241E-013  0.5930196E+02  0.7816164E-02  0.1266605E+00
        -11   -1    0    0    0    0  0.00000000000E+00  0.00000000000E+00  0.45593999997E+02  0.45594000000E+02  0.51100000000E-03 0. -1.
         11   -1    0    0    0    0 -0.00000000000E+00 -0.00000000000E+00 -0.45593999997E+02  0.45594000000E+02  0.51100000000E-03 0.  1.
    9900012    2    1    2    0    0 -0.85470488689E+01 -0.87399562700E+01  0.29449628981E+02  0.59301960310E+02  0.50000029695E+02 0.  0.
        -12    1    1    2    0    0  0.85470488689E+01  0.87399562700E+01 -0.29449628981E+02  0.31886039690E+02  0.00000000000E+00 0.  1.
         11    1    3    3    0    0 -0.70046876435E+01  0.12806760160E+02 -0.25010896093E+01  0.14809935999E+02  0.51100000000E-03 0. -1.
        -11    1    3    3    0    0  0.60494331933E+00 -0.10280989013E+02 -0.25843105294E+00  0.10302013317E+02  0.51100000000E-03 0.  1.
        -12    1    3    3    0    0 -0.21473045447E+01 -0.11265727417E+02  0.32209149644E+02  0.34190010995E+02  0.00000000000E+00 0.  1.
</event>
<event>
 7    1  0.7444241E-013  0.5930194E+02  0.7816164E-02  0.1266605E+00
        -11   -1    0    0    0    0  0.00000000000E+00  0.00000000000E+00  0.45593999997E+02  0.45594000000E+02  0.51100000000E-03 0.  1.
         11   -1    0    0    0    0 -0.00000000000E+00 -0.00000000000E+00 -0.45593999997E+02  0.45594000000E+02  0.51100000000E-03 0. -1.
    9900012    2    1    2    0    0  0.39339203240E+01  0.18952718316E+02 -0.25338505776E+02  0.59301935087E+02  0.49999983694E+02 0.  0.
        -12    1    1    2    0    0 -0.39339203240E+01 -0.18952718316E+02  0.25338505776E+02  0.31886064913E+02  0.00000000000E+00 0.  1.
         11    1    3    3    0    0  0.22097769333E+01  0.67527439759E+01  0.11411593195E+02  0.13442735020E+02  0.51100000000E-03 0. -1.
        -11    1    3    3    0    0  0.74470223102E+00  0.68494914866E+01  0.16427148402E+01  0.70829815294E+01  0.51100000000E-03 0.  1.
         12    1    3    3    0    0  0.97944115975E+00  0.53504828537E+01 -0.38392813811E+02  0.38776218538E+02  0.00000000000E+00 0. -1.
</event>
<event>
 7    1  0.7444241E-013  0.5930193E+02  0.7816164E-02  0.1266605E+00
        -11   -1    0    0    0    0  0.00000000000E+00  0.00000000000E+00  0.45593999997E+02  0.45594000000E+02  0.51100000000E-03 0. -1.
         11   -1    0    0    0    0 -0.00000000000E+00 -0.00000000000E+00 -0.45593999997E+02  0.45594000000E+02  0.51100000000E-03 0.  1.
    9900012    2    1    2    0    0 -0.19416270302E+02  0.24642282107E+02  0.56998314521E+01  0.59301926261E+02  0.49999967599E+02 0.  0.
        -12    1    1    2    0    0  0.19416270302E+02 -0.24642282107E+02 -0.56998314521E+01  0.31886073739E+02  0.00000000000E+00 0.  1.
         11    1    3    3    0    0 -0.18603012863E+02  0.21236231469E+02  0.83323631000E+01  0.29435996495E+02  0.51100000000E-03 0. -1.
        -11    1    3    3    0    0  0.63745063513E+01  0.73185460067E+01  0.10559198424E+02  0.14341970523E+02  0.51100000000E-03 0.  1.
         12    1    3    3    0    0 -0.71877637901E+01 -0.39124953684E+01 -0.13191730071E+02  0.15523959243E+02  0.00000000000E+00 0. -1.
</event>
<event>
 7    1  0.7444241E-013  0.5930199E+02  0.7816164E-02  0.1266605E+00
        -11   -1    0    0    0    0  0.00000000000E+00  0.00000000000E+00  0.45593999997E+02  0.45594000000E+02  0.51100000000E-03 0. -1.
         11   -1    0    0    0    0 -0.00000000000E+00 -0.00000000000E+00 -0.45593999997E+02  0.45594000000E+02  0.51100000000E-03 0.  1.
    9900012    2    1    2    0    0  0.11795471249E+01  0.31662064743E+02 -0.35832945096E+01  0.59301989356E+02  0.50000082669E+02 0.  0.
        -12    1    1    2    0    0 -0.11795471249E+01 -0.31662064743E+02  0.35832945096E+01  0.31886010644E+02  0.00000000000E+00 0.  1.
         11    1    3    3    0    0  0.81489031359E+01  0.63773310067E+01  0.67750099242E+01  0.12368335895E+02  0.51100000000E-03 0.  1.
        -11    1    3    3    0    0 -0.12246817490E+02  0.20710724063E+02 -0.22490211666E+02  0.32935212932E+02  0.51100000000E-03 0. -1.
         12    1    3    3    0    0  0.52774614786E+01  0.45740096738E+01  0.12131907232E+02  0.13998440529E+02  0.00000000000E+00 0. -1.
</event>
<event>
 7    1  0.7444241E-013  0.5930188E+02  0.7816164E-02  0.1266605E+00
        -11   -1    0    0    0    0  0.00000000000E+00  0.00000000000E+00  0.45593999997E+02  0.45594000000E+02  0.51100000000E-03 0.  1.
         11   -1    0    0    0    0 -0.00000000000E+00 -0.00000000000E+00 -0.45593999997E+02  0.45594000000E+02  0.51100000000E-03 0. -1.
    9900012    2    1    2    0    0  0.20480017095E+02  0.21894357759E+02  0.10859578785E+02  0.59301883064E+02  0.49999888816E+02 0.  0.
        -12    1    1    2    0    0 -0.20480017095E+02 -0.21894357759E+02 -0.10859578785E+02  0.31886116936E+02  0.00000000000E+00 0.  1.
         11    1    3    3    0    0  0.15738560786E+02 -0.27492401613E+01  0.78232119712E+01  0.17789414350E+02  0.51100000000E-03 0. -1.
        -11    1    3    3    0    0  0.53542528415E+01 -0.35221999146E+01  0.10560051411E+02  0.12352675896E+02  0.51100000000E-03 0.  1.
         12    1    3    3    0    0 -0.61279653343E+00  0.28165797835E+02 -0.75236845972E+01  0.29159792818E+02  0.00000000000E+00 0. -1.
</event>
<event>
 7    1  0.7444241E-013  0.5930195E+02  0.7816164E-02  0.1266605E+00
        -11   -1    0    0    0    0  0.00000000000E+00  0.00000000000E+00  0.45593999997E+02  0.45594000000E+02  0.51100000000E-03 0.  1.
         11   -1    0    0    0    0 -0.00000000000E+00 -0.00000000000E+00 -0.45593999997E+02  0.45594000000E+02  0.51100000000E-03 0. -1.
    9900012    2    1    2    0    0  0.40218210854E+01 -0.17435901823E+02 -0.26391939581E+02  0.59301949883E+02  0.50000010679E+02 0.  0.
        -12    1    1    2    0    0 -0.40218210854E+01  0.17435901823E+02  0.26391939581E+02  0.31886050117E+02  0.00000000000E+00 0.  1.
         11    1    3    3    0    0  0.16708441709E+02 -0.23259118861E+02 -0.23250626377E+02  0.36888348591E+02  0.51100000000E-03 0. -1.
        -11    1    3    3    0    0 -0.10726403248E+01 -0.45221689938E+01  0.31727421323E+01  0.56273317455E+01  0.51100000000E-03 0.  1.
        -12    1    3    3    0    0 -0.11613980298E+02  0.10345386032E+02 -0.63140553356E+01  0.16786269547E+02  0.00000000000E+00 0.  1.
</event>
<event>
 7    1  0.7444241E-013  0.5930191E+02  0.7816164E-02  0.1266605E+00
        -11   -1    0    0    0    0  0.00000000000E+00  0.00000000000E+00  0.45593999997E+02  0.45594000000E+02  0.51100000000E-03 0. -1.
         11   -1    0    0    0    0 -0.00000000000E+00 -0.00000000000E+00 -0.45593999997E+02  0.45594000000E+02  0.51100000000E-03 0.  1.
    9900012    2    1    2    0    0  0.35788864007E+01 -0.49704295081E+01  0.31292322244E+02  0.59301905401E+02  0.49999929555E+02 0.  0.
        -12    1    1    2    0    0 -0.35788864007E+01  0.49704295081E+01 -0.31292322244E+02  0.31886094599E+02  0.00000000000E+00 0.  1.
         11    1    3    3    0    0  0.96678840844E+01 -0.76721741145E+01  0.10084476265E+02  0.15938221359E+02  0.51100000000E-03 0. -1.
        -11    1    3    3    0    0  0.11086106404E+02 -0.11019174752E+02  0.65838957083E+01  0.16960885895E+02  0.51100000000E-03 0.  1.
        -12    1    3    3    0    0 -0.17175104087E+02  0.13720919358E+02  0.14623950271E+02  0.26402798146E+02  0.00000000000E+00 0.  1.
</event>
<event>
 7    1  0.7444241E-013  0.5930169E+02  0.7816164E-02  0.1266606E+00
        -11   -1    0    0    0    0  0.00000000000E+00  0.00000000000E+00  0.45593999997E+02  0.45594000000E+02  0.51100000000E-03 0. -1.
         11   -1    0    0    0    0 -0.00000000000E+00 -0.00000000000E+00 -0.45593999997E+02  0.45594000000E+02  0.51100000000E-03 0.  1.
    9900012    2    1    2    0    0  0.26036586759E+02  0.15724586844E+02  0.95692246163E+01  0.59301693516E+02  0.49999543124E+02 0.  0.
        -12    1    1    2    0    0 -0.26036586759E+02 -0.15724586844E+02 -0.95692246163E+01  0.31886306484E+02  0.00000000000E+00 0.  1.
         11    1    3    3    0    0  0.47250262036E+00  0.14086528057E+02  0.44616701168E+00  0.14101510440E+02  0.51100000000E-03 0. -1.
        -11    1    3    3    0    0  0.11123351070E+01  0.65017304276E+00  0.18829691243E+02  0.18873719478E+02  0.51100000000E-03 0.  1.
        -12    1    3    3    0    0  0.24451749031E+02  0.98788574437E+00 -0.97066336386E+01  0.26326463597E+02  0.00000000000E+00 0.  1.
</event>
<event>
 7    1  0.7444241E-013  0.5930196E+02  0.7816164E-02  0.1266605E+00
        -11   -1    0    0    0    0  0.00000000000E+00  0.00000000000E+00  0.45593999997E+02  0.45594000000E+02  0.51100000000E-03 0.  1.
         11   -1    0    0    0    0 -0.00000000000E+00 -0.00000000000E+00 -0.45593999997E+02  0.45594000000E+02  0.51100000000E-03 0. -1.
    9900012    2    1    2    0    0  0.13149262296E+02  0.28903422595E+02 -0.28997357454E+01  0.59301962240E+02  0.50000033215E+02 0.  0.
        -12    1    1    2    0    0 -0.13149262296E+02 -0.28903422595E+02  0.28997357454E+01  0.31886037760E+02  0.00000000000E+00 0.  1.
         11    1    3    3    0    0 -0.10150127627E+02  0.13684933518E+02 -0.41225708259E+01  0.17529919758E+02  0.51100000000E-03 0. -1.
        -11    1    3    3    0    0  0.37089963560E+01  0.20994118979E+02  0.14814982058E+00  0.21319747519E+02  0.51100000000E-03 0.  1.
        -12    1    3    3    0    0  0.19590393567E+02 -0.57756299014E+01  0.10746852599E+01  0.20452294963E+02  0.00000000000E+00 0.  1.
</event>
<event>
 7    1  0.7444241E-013  0.5930195E+02  0.7816164E-02  0.1266605E+00
        -11   -1    0    0    0    0  0.00000000000E+00  0.00000000000E+00  0.45593999997E+02  0.45594000000E+02  0.51100000000E-03 0.  1.
         11   -1    0    0    0    0 -0.00000000000E+00 -0.00000000000E+00 -0.45593999997E+02  0.45594000000E+02  0.51100000000E-03 0. -1.
    9900012    2    1    2    0    0 -0.17629170850E+01  0.27426916069E+00 -0.31836100666E+02  0.59301946531E+02  0.50000004565E+02 0.  0.
        -12    1    1    2    0    0  0.17629170850E+01 -0.27426916069E+00  0.31836100666E+02  0.31886053469E+02  0.00000000000E+00 0.  1.
         11    1    3    3    0    0  0.15503829081E+01 -0.22025713990E+01 -0.11266223519E+02  0.11583729993E+02  0.51100000000E-03 0. -1.
        -11    1    3    3    0    0  0.44564718602E+01 -0.17605546350E+02 -0.18758193434E+02  0.26109102338E+02  0.51100000000E-03 0.  1.
         12    1    3    3    0    0 -0.77697718533E+01  0.20082386909E+02 -0.18116837135E+01  0.21609114200E+02  0.00000000000E+00 0. -1.
</event>
<event>
 7    1  0.7444241E-013  0.5930196E+02  0.7816164E-02  0.1266605E+00
        -11   -1    0    0    0    0  0.00000000000E+00  0.00000000000E+00  0.45593999997E+02  0.45594000000E+02  0.51100000000E-03 0.  1.
         11   -1    0    0    0    0 -0.00000000000E+00 -0.00000000000E+00 -0.45593999997E+02  0.45594000000E+02  0.51100000000E-03 0. -1.
    9900012    2    1    2    0    0 -0.12955220911E+02 -0.59092408040E+01 -0.28530031850E+02  0.59301959275E+02  0.50000027808E+02 0.  0.
        -12    1    1    2    0    0  0.12955220911E+02  0.59092408040E+01  0.28530031850E+02  0.31886040725E+02  0.00000000000E+00 0.  1.
         11    1    3    3    0    0 -0.83532185131E+01 -0.54769756536E+01 -0.12320543926E+02  0.15860937070E+02  0.51100000000E-03 0. -1.
        -11    1    3    3    0    0  0.33299093981E+01 -0.77799922644E+01 -0.26921890821E+02  0.28220644604E+02  0.51100000000E-03 0.  1.
         12    1    3    3    0    0 -0.79319117960E+01  0.73477271140E+01  0.10712402897E+02  0.15220377601E+02  0.00000000000E+00 0. -1.
</event>
<event>
 7    1  0.7444241E-013  0.5930195E+02  0.7816164E-02  0.1266605E+00
        -11   -1    0    0    0    0  0.00000000000E+00  0.00000000000E+00  0.45593999997E+02  0.45594000000E+02  0.51100000000E-03 0.  1.
         11   -1    0    0    0    0 -0.00000000000E+00 -0.00000000000E+00 -0.45593999997E+02  0.45594000000E+02  0.51100000000E-03 0. -1.
    9900012    2    1    2    0    0 -0.11559858466E+02  0.25018309719E+02  0.16036654513E+02  0.59301946044E+02  0.50000003677E+02 0.  0.
        -12    1    1    2    0    0  0.11559858466E+02 -0.25018309719E+02 -0.16036654513E+02  0.31886053956E+02  0.00000000000E+00 0.  1.
         11    1    3    3    0    0 -0.70018873659E+01  0.34630852827E+02  0.30655406966E+01  0.35464347368E+02  0.51100000000E-03 0. -1.
        -11    1    3    3    0    0 -0.55605389464E+01  0.24133694426E+01 -0.80198926973E-01  0.60622089679E+01  0.51100000000E-03 0.  1.
         12    1    3    3    0    0  0.10025678465E+01 -0.12025912551E+02  0.13051312743E+02  0.17775389708E+02  0.00000000000E+00 0. -1.
</event>
<event>
 7    1  0.7444241E-013  0.5930196E+02  0.7816164E-02  0.1266605E+00
        -11   -1    0    0    0    0  0.00000000000E+00  0.00000000000E+00  0.45593999997E+02  0.45594000000E+02  0.51100000000E-03 0.  1.
         11   -1    0    0    0    0 -0.00000000000E+00 -0.00000000000E+00 -0.45593999997E+02  0.45594000000E+02  0.51100000000E-03 0. -1.
    9900012    2    1    2    0    0 -0.12035627193E+02  0.23289112577E+02 -0.18151598065E+02  0.59301959185E+02  0.50000027643E+02 0.  0.
        -12    1    1    2    0    0  0.12035627193E+02 -0.23289112577E+02  0.18151598065E+02  0.31886040815E+02  0.00000000000E+00 0.  1.
         11    1    3    3    0    0 -0.59624498596E+01  0.10348029293E+02 -0.14789112946E+01  0.12034105594E+02  0.51100000000E-03 0. -1.
        -11    1    3    3    0    0 -0.20822153339E+02  0.13159090332E+02  0.49097585476E+00  0.24636655325E+02  0.51100000000E-03 0.  1.
        -12    1    3    3    0    0  0.14748976005E+02 -0.21800704857E+00 -0.17163662625E+02  0.22631198266E+02  0.00000000000E+00 0.  1.
</event>
<event>
 7    1  0.7444241E-013  0.5930192E+02  0.7816164E-02  0.1266605E+00
        -11   -1    0    0    0    0  0.00000000000E+00  0.00000000000E+00  0.45593999997E+02  0.45594000000E+02  0.51100000000E-03 0.  1.
         11   -1    0    0    0    0 -0.00000000000E+00 -0.00000000000E+00 -0.45593999997E+02  0.45594000000E+02  0.51100000000E-03 0. -1.
    9900012    2    1    2    0    0  0.16116179814E+02 -0.26939572016E+02 -0.55901958158E+01  0.59301920256E+02  0.49999956646E+02 0.  0.
        -12    1    1    2    0    0 -0.16116179814E+02  0.26939572016E+02  0.55901958158E+01  0.31886079744E+02  0.00000000000E+00 0.  1.
         11    1    3    3    0    0  0.17831407225E+02 -0.43275412735E+01  0.60076479259E+01  0.19307473449E+02  0.51100000000E-03 0. -1.
        -11    1    3    3    0    0 -0.37396784319E+01  0.59513429537E+01  0.32443978786E+01  0.77414336904E+01  0.51100000000E-03 0.  1.
         12    1    3    3    0    0  0.20244510205E+01 -0.28563373696E+02 -0.14842241620E+02  0.32253013117E+02  0.00000000000E+00 0. -1.
</event>
<event>
 7    1  0.7444241E-013  0.5930193E+02  0.7816164E-02  0.1266605E+00
        -11   -1    0    0    0    0  0.00000000000E+00  0.00000000000E+00  0.45593999997E+02  0.45594000000E+02  0.51100000000E-03 0.  1.
         11   -1    0    0    0    0 -0.00000000000E+00 -0.00000000000E+00 -0.45593999997E+02  0.45594000000E+02  0.51100000000E-03 0. -1.
    9900012    2    1    2    0    0  0.24060975776E+02 -0.16176859813E+02 -0.13270272711E+02  0.59301929584E+02  0.49999973659E+02 0.  0.
        -12    1    1    2    0    0 -0.24060975776E+02  0.16176859813E+02  0.13270272711E+02  0.31886070416E+02  0.00000000000E+00 0.  1.
         11    1    3    3    0    0 -0.47986659158E+01 -0.50655903953E+01 -0.18846869486E+02  0.20097061733E+02  0.51100000000E-03 0. -1.
        -11    1    3    3    0    0  0.18675909252E+02 -0.71395281486E+01 -0.82071656241E+01  0.21612959455E+02  0.51100000000E-03 0.  1.
         12    1    3    3    0    0  0.10183732440E+02 -0.39717412695E+01  0.13783762399E+02  0.17591908396E+02  0.00000000000E+00 0. -1.
</event>
<event>
 7    1  0.7444241E-013  0.5930195E+02  0.7816164E-02  0.1266605E+00
        -11   -1    0    0    0    0  0.00000000000E+00  0.00000000000E+00  0.45593999997E+02  0.45594000000E+02  0.51100000000E-03 0.  1.
         11   -1    0    0    0    0 -0.00000000000E+00 -0.00000000000E+00 -0.45593999997E+02  0.45594000000E+02  0.51100000000E-03 0. -1.
    9900012    2    1    2    0    0 -0.27539868326E+02  0.86497792034E+01 -0.13544634558E+02  0.59301950496E+02  0.50000011796E+02 0.  0.
        -12    1    1    2    0    0  0.27539868326E+02 -0.86497792034E+01  0.13544634558E+02  0.31886049504E+02  0.00000000000E+00 0.  1.
         11    1    3    3    0    0 -0.23260161345E+02  0.75651776686E+01 -0.11032863479E+02  0.26832649809E+02  0.51100000000E-03 0. -1.
        -11    1    3    3    0    0 -0.83200656102E+01 -0.14029626818E+02  0.13120231733E+01  0.16363842014E+02  0.51100000000E-03 0.  1.
         12    1    3    3    0    0  0.40403586296E+01  0.15114228353E+02 -0.38237942524E+01  0.16105458672E+02  0.00000000000E+00 0. -1.
</event>
<event>
 7    1  0.7444241E-013  0.5930193E+02  0.7816164E-02  0.1266605E+00
        -11   -1    0    0    0    0  0.00000000000E+00  0.00000000000E+00  0.45593999997E+02  0.45594000000E+02  0.51100000000E-03 0.  1.
         11   -1    0    0    0    0 -0.00000000000E+00 -0.00000000000E+00 -0.45593999997E+02  0.45594000000E+02  0.51100000000E-03 0. -1.
    9900012    2    1    2    0    0 -0.14275207426E+02  0.12144508115E+02 -0.25796328557E+02  0.59301934212E+02  0.49999982099E+02 0.  0.
        -12    1    1    2    0    0  0.14275207426E+02 -0.12144508115E+02  0.25796328557E+02  0.31886065788E+02  0.00000000000E+00 0.  1.
         11    1    3    3    0    0 -0.11209333088E+02  0.74399200348E+01  0.47314815331E+01  0.14261433174E+02  0.51100000000E-03 0. -1.
        -11    1    3    3    0    0 -0.10565463754E+02 -0.76196110678E+01 -0.21452835196E+01  0.13201883911E+02  0.51100000000E-03 0.  1.
         12    1    3    3    0    0  0.74995894165E+01  0.12324199148E+02 -0.28382526570E+02  0.31838617127E+02  0.00000000000E+00 0. -1.
</event>
<event>
 7    1  0.7444241E-013  0.5930188E+02  0.7816164E-02  0.1266605E+00
        -11   -1    0    0    0    0  0.00000000000E+00  0.00000000000E+00  0.45593999997E+02  0.45594000000E+02  0.51100000000E-03 0.  1.
         11   -1    0    0    0    0 -0.00000000000E+00 -0.00000000000E+00 -0.45593999997E+02  0.45594000000E+02  0.51100000000E-03 0. -1.
    9900012    2    1    2    0    0 -0.24428904439E+02 -0.68129512152E+01 -0.19327107656E+02  0.59301878149E+02  0.49999879853E+02 0.  0.
        -12    1    1    2    0    0  0.24428904439E+02  0.68129512152E+01  0.19327107656E+02  0.31886121851E+02  0.00000000000E+00 0.  1.
         11    1    3    3    0    0 -0.11009689037E+02  0.16615173088E+01  0.59497306579E+01  0.12624309392E+02  0.51100000000E-03 0. -1.
        -11    1    3    3    0    0 -0.11753167559E+02  0.49333489934E+01  0.48671324906E+01  0.13644187733E+02  0.51100000000E-03 0.  1.
         12    1    3    3    0    0 -0.16660478424E+01 -0.13407817517E+02 -0.30143970804E+02  0.33033381024E+02  0.00000000000E+00 0. -1.
</event>
<event>
 7    1  0.7444241E-013  0.5930194E+02  0.7816164E-02  0.1266605E+00
        -11   -1    0    0    0    0  0.00000000000E+00  0.00000000000E+00  0.45593999997E+02  0.45594000000E+02  0.51100000000E-03 0. -1.
         11   -1    0    0    0    0 -0.00000000000E+00 -0.00000000000E+00 -0.45593999997E+02  0.45594000000E+02  0.51100000000E-03 0.  1.
    9900012    2    1    2    0    0 -0.94205083480E+01 -0.78733111889E+01  0.29427633510E+02  0.59301943163E+02  0.49999998423E+02 0.  0.
        -12    1    1    2    0    0  0.94205083480E+01  0.78733111889E+01 -0.29427633510E+02  0.31886056837E+02  0.00000000000E+00 0.  1.
         11    1    3    3    0    0 -0.99442600570E+01 -0.21375093875E+01  0.13444891871E+02  0.16858895935E+02  0.51100000000E-03 0.  1.
        -11    1    3    3    0    0 -0.42607046878E+01 -0.20551094270E+02  0.12767276685E+01  0.21026914037E+02  0.51100000000E-03 0. -1.
        -12    1    3    3    0    0  0.47844563969E+01  0.14815292469E+02  0.14706013971E+02  0.21416133191E+02  0.00000000000E+00 0.  1.
</event>
<event>
 7    1  0.7444241E-013  0.5930194E+02  0.7816164E-02  0.1266605E+00
        -11   -1    0    0    0    0  0.00000000000E+00  0.00000000000E+00  0.45593999997E+02  0.45594000000E+02  0.51100000000E-03 0.  1.
         11   -1    0    0    0    0 -0.00000000000E+00 -0.00000000000E+00 -0.45593999997E+02  0.45594000000E+02  0.51100000000E-03 0. -1.
    9900012    2    1    2    0    0 -0.74449919033E+01  0.12977924021E+02 -0.28157880641E+02  0.59301942569E+02  0.49999997339E+02 0.  0.
        -12    1    1    2    0    0  0.74449919033E+01 -0.12977924021E+02  0.28157880641E+02  0.31886057431E+02  0.00000000000E+00 0.  1.
         11    1    3    3    0    0  0.18188109964E+02  0.61376713499E+01 -0.18206115138E+02  0.26456397758E+02  0.51100000000E-03 0. -1.
        -11    1    3    3    0    0  0.16437922415E+01  0.69938993637E+00 -0.38263723540E+01  0.42228337487E+01  0.51100000000E-03 0.  1.
        -12    1    3    3    0    0 -0.27276894108E+02  0.61408627345E+01 -0.61253931489E+01  0.28622711062E+02  0.00000000000E+00 0.  1.
</event>
<event>
 7    1  0.7444241E-013  0.5930165E+02  0.7816164E-02  0.1266606E+00
        -11   -1    0    0    0    0  0.00000000000E+00  0.00000000000E+00  0.45593999997E+02  0.45594000000E+02  0.51100000000E-03 0. -1.
         11   -1    0    0    0    0 -0.00000000000E+00 -0.00000000000E+00 -0.45593999997E+02  0.45594000000E+02  0.51100000000E-03 0.  1.
    9900012    2    1    2    0    0 -0.10846954160E+02 -0.18621646158E+02  0.23501423944E+02  0.59301654214E+02  0.49999471446E+02 0.  0.
        -12    1    1    2    0    0  0.10846954160E+02  0.18621646158E+02 -0.23501423944E+02  0.31886345786E+02  0.00000000000E+00 0.  1.
         11    1    3    3    0    0 -0.55872907511E+01 -0.19836433925E+01 -0.42568085957E+00  0.59442294287E+01  0.51100000000E-03 0. -1.
        -11    1    3    3    0    0 -0.14587859524E+02 -0.12612234542E+02 -0.72229709459E+01  0.20592363031E+02  0.51100000000E-03 0.  1.
         12    1    3    3    0    0  0.93281961149E+01 -0.40257682235E+01  0.31150075750E+02  0.32765061754E+02  0.00000000000E+00 0. -1.
</event>
<event>
 7    1  0.7444241E-013  0.5930201E+02  0.7816164E-02  0.1266605E+00
        -11   -1    0    0    0    0  0.00000000000E+00  0.00000000000E+00  0.45593999997E+02  0.45594000000E+02  0.51100000000E-03 0. -1.
         11   -1    0    0    0    0 -0.00000000000E+00 -0.00000000000E+00 -0.45593999997E+02  0.45594000000E+02  0.51100000000E-03 0.  1.
    9900012    2    1    2    0    0 -0.10343319666E+02 -0.35656880641E+01  0.29950260175E+02  0.59302008129E+02  0.50000116904E+02 0.  0.
        -12    1    1    2    0    0  0.10343319666E+02  0.35656880641E+01 -0.29950260175E+02  0.31885991871E+02  0.00000000000E+00 0.  1.
         11    1    3    3    0    0 -0.80104788402E+01 -0.66115590069E+01  0.43709468613E-02  0.10386553958E+02  0.51100000000E-03 0. -1.
        -11    1    3    3    0    0 -0.23530450086E+01 -0.61450437061E+01 -0.77203590323E+01  0.10144078411E+02  0.51100000000E-03 0.  1.
         12    1    3    3    0    0  0.20204183174E-01  0.91909146488E+01  0.37666248260E+02  0.38771375760E+02  0.00000000000E+00 0. -1.
</event>
<event>
 7    1  0.7444241E-013  0.5930196E+02  0.7816164E-02  0.1266605E+00
        -11   -1    0    0    0    0  0.00000000000E+00  0.00000000000E+00  0.45593999997E+02  0.45594000000E+02  0.51100000000E-03 0.  1.
         11   -1    0    0    0    0 -0.00000000000E+00 -0.00000000000E+00 -0.45593999997E+02  0.45594000000E+02  0.51100000000E-03 0. -1.
    9900012    2    1    2    0    0  0.21749486566E+02 -0.21872070897E+02 -0.80803450218E+01  0.59301958746E+02  0.50000026842E+02 0.  0.
        -12    1    1    2    0    0 -0.21749486566E+02  0.21872070897E+02  0.80803450218E+01  0.31886041254E+02  0.00000000000E+00 0.  1.
         11    1    3    3    0    0  0.12612736286E+02 -0.89471091914E+00 -0.17793750471E+02  0.21828861178E+02  0.51100000000E-03 0. -1.
        -11    1    3    3    0    0 -0.10042626561E+02 -0.54945504164E+01  0.18201514141E+01  0.11591263259E+02  0.51100000000E-03 0.  1.
        -12    1    3    3    0    0  0.19179376841E+02 -0.15482809562E+02  0.78932540348E+01  0.25881834309E+02  0.00000000000E+00 0.  1.
</event>
<event>
 7    1  0.7444241E-013  0.5930198E+02  0.7816164E-02  0.1266605E+00
        -11   -1    0    0    0    0  0.00000000000E+00  0.00000000000E+00  0.45593999997E+02  0.45594000000E+02  0.51100000000E-03 0. -1.
         11   -1    0    0    0    0 -0.00000000000E+00 -0.00000000000E+00 -0.45593999997E+02  0.45594000000E+02  0.51100000000E-03 0.  1.
    9900012    2    1    2    0    0 -0.29091163045E+02  0.57073237583E+01 -0.11740905842E+02  0.59301981406E+02  0.50000068169E+02 0.  0.
        -12    1    1    2    0    0  0.29091163045E+02 -0.57073237583E+01  0.11740905842E+02  0.31886018594E+02  0.00000000000E+00 0.  1.
         11    1    3    3    0    0 -0.85207478964E+01 -0.12431337515E+01  0.10947828846E+02  0.13928513307E+02  0.51100000000E-03 0. -1.
        -11    1    3    3    0    0 -0.12599516327E+02  0.18565494860E+02 -0.54102962836E+01  0.23080223508E+02  0.51100000000E-03 0.  1.
        -12    1    3    3    0    0 -0.79708988218E+01 -0.11615037350E+02 -0.17278438405E+02  0.22293244591E+02  0.00000000000E+00 0.  1.
</event>
<event>
 7    1  0.7444241E-013  0.5930209E+02  0.7816164E-02  0.1266604E+00
        -11   -1    0    0    0    0  0.00000000000E+00  0.00000000000E+00  0.45593999997E+02  0.45594000000E+02  0.51100000000E-03 0.  1.
         11   -1    0    0    0    0 -0.00000000000E+00 -0.00000000000E+00 -0.45593999997E+02  0.45594000000E+02  0.51100000000E-03 0. -1.
    9900012    2    1    2    0    0  0.12065645283E+02  0.12547862803E+02 -0.26714842671E+02  0.59302086560E+02  0.50000259943E+02 0.  0.
        -12    1    1    2    0    0 -0.12065645283E+02 -0.12547862803E+02  0.26714842671E+02  0.31885913440E+02  0.00000000000E+00 0.  1.
         11    1    3    3    0    0  0.15464295584E+02  0.70961177144E+01 -0.29214308572E+02  0.33807915496E+02  0.51100000000E-03 0. -1.
        -11    1    3    3    0    0  0.94235420304E+01 -0.22555313965E+01 -0.19546173041E+01  0.98848922779E+01  0.51100000000E-03 0.  1.
        -12    1    3    3    0    0 -0.12822192332E+02  0.77072764853E+01  0.44540832059E+01  0.15609278786E+02  0.00000000000E+00 0.  1.
</event>
<event>
 7    1  0.7444241E-013  0.5930196E+02  0.7816164E-02  0.1266605E+00
        -11   -1    0    0    0    0  0.00000000000E+00  0.00000000000E+00  0.45593999997E+02  0.45594000000E+02  0.51100000000E-03 0.  1.
         11   -1    0    0    0    0 -0.00000000000E+00 -0.00000000000E+00 -0.45593999997E+02  0.45594000000E+02  0.51100000000E-03 0. -1.
    9900012    2    1    2    0    0  0.46175735625E+01  0.10631085248E+02 -0.29704845734E+02  0.59301955729E+02  0.50000021341E+02 0.  0.
        -12    1    1    2    0    0 -0.46175735625E+01 -0.10631085248E+02  0.29704845734E+02  0.31886044271E+02  0.00000000000E+00 0.  1.
         11    1    3    3    0    0 -0.42304462212E+01 -0.72427971851E+01 -0.11541567059E+01  0.84668095678E+01  0.51100000000E-03 0.  1.
        -11    1    3    3    0    0  0.19132009229E+02 -0.18694947035E+01 -0.90772648331E+01  0.21258540042E+02  0.51100000000E-03 0. -1.
         12    1    3    3    0    0 -0.10283989446E+02  0.19743377137E+02 -0.19473424195E+02  0.29576606120E+02  0.00000000000E+00 0. -1.
</event>
<event>
 7    1  0.7444241E-013  0.5930183E+02  0.7816164E-02  0.1266605E+00
        -11   -1    0    0    0    0  0.00000000000E+00  0.00000000000E+00  0.45593999997E+02  0.45594000000E+02  0.51100000000E-03 0.  1.
         11   -1    0    0    0    0 -0.00000000000E+00 -0.00000000000E+00 -0.45593999997E+02  0.45594000000E+02  0.51100000000E-03 0. -1.
    9900012    2    1    2    0    0  0.21609976637E+02 -0.58749497978E+01 -0.22698495405E+02  0.59301830286E+02  0.49999792563E+02 0.  0.
        -12    1    1    2    0    0 -0.21609976637E+02  0.58749497978E+01  0.22698495405E+02  0.31886169714E+02  0.00000000000E+00 0.  1.
         11    1    3    3    0    0  0.17980156189E+02 -0.11643984151E+02 -0.12230722586E+02  0.24666960873E+02  0.51100000000E-03 0. -1.
        -11    1    3    3    0    0  0.30005321366E+01 -0.24454155213E+01  0.10989008127E+02  0.11650817570E+02  0.51100000000E-03 0.  1.
         12    1    3    3    0    0  0.62928831139E+00  0.82144498749E+01 -0.21456780946E+02  0.22984051843E+02  0.00000000000E+00 0. -1.
</event>
<event>
 7    1  0.7444241E-013  0.5930195E+02  0.7816164E-02  0.1266605E+00
        -11   -1    0    0    0    0  0.00000000000E+00  0.00000000000E+00  0.45593999997E+02  0.45594000000E+02  0.51100000000E-03 0. -1.
         11   -1    0    0    0    0 -0.00000000000E+00 -0.00000000000E+00 -0.45593999997E+02  0.45594000000E+02  0.51100000000E-03 0.  1.
    9900012    2    1    2    0    0 -0.26401838884E+01 -0.31776040970E+02 -0.18166533418E+00  0.59301947360E+02  0.50000006077E+02 0.  0.
        -12    1    1    2    0    0  0.26401838884E+01  0.31776040970E+02  0.18166533418E+00  0.31886052640E+02  0.00000000000E+00 0.  1.
         11    1    3    3    0    0  0.13511758215E+02  0.44523391910E+00  0.56653557008E+00  0.13530957324E+02  0.51100000000E-03 0. -1.
        -11    1    3    3    0    0  0.77929973390E+01 -0.42733211830E+01 -0.11792214275E+01  0.89656368929E+01  0.51100000000E-03 0.  1.
        -12    1    3    3    0    0 -0.23944939442E+02 -0.27947953706E+02  0.43102052321E+00  0.36805353142E+02  0.00000000000E+00 0.  1.
</event>
<event>
 7    1  0.7444241E-013  0.5930193E+02  0.7816164E-02  0.1266605E+00
        -11   -1    0    0    0    0  0.00000000000E+00  0.00000000000E+00  0.45593999997E+02  0.45594000000E+02  0.51100000000E-03 0. -1.
         11   -1    0    0    0    0 -0.00000000000E+00 -0.00000000000E+00 -0.45593999997E+02  0.45594000000E+02  0.51100000000E-03 0.  1.
    9900012    2    1    2    0    0 -0.13526949556E+02  0.17376363914E+02  0.23060901342E+02  0.59301928467E+02  0.49999971620E+02 0.  0.
        -12    1    1    2    0    0  0.13526949556E+02 -0.17376363914E+02 -0.23060901342E+02  0.31886071533E+02  0.00000000000E+00 0.  1.
         11    1    3    3    0    0  0.25180148145E+01 -0.40778175694E+01  0.89869263880E+01  0.10184981144E+02  0.51100000000E-03 0. -1.
        -11    1    3    3    0    0  0.12427736720E+02  0.58455489037E+01  0.15608046608E-01  0.13733875121E+02  0.51100000000E-03 0.  1.
        -12    1    3    3    0    0 -0.28472701090E+02  0.15608632580E+02  0.14058366907E+02  0.35383072202E+02  0.00000000000E+00 0.  1.
</event>
<event>
 7    1  0.7444241E-013  0.5930193E+02  0.7816164E-02  0.1266605E+00
        -11   -1    0    0    0    0  0.00000000000E+00  0.00000000000E+00  0.45593999997E+02  0.45594000000E+02  0.51100000000E-03 0. -1.
         11   -1    0    0    0    0 -0.00000000000E+00 -0.00000000000E+00 -0.45593999997E+02  0.45594000000E+02  0.51100000000E-03 0.  1.
    9900012    2    1    2    0    0  0.96935834953E+01  0.80194915004E+01  0.29299205076E+02  0.59301933717E+02  0.49999981196E+02 0.  0.
        -12    1    1    2    0    0 -0.96935834953E+01 -0.80194915004E+01 -0.29299205076E+02  0.31886066283E+02  0.00000000000E+00 0.  1.
         11    1    3    3    0    0  0.12123358431E+02  0.49899798732E+01  0.25253869210E+02  0.28454061733E+02  0.51100000000E-03 0. -1.
        -11    1    3    3    0    0  0.16503054764E+01 -0.50221058273E+01  0.15434996343E+02  0.16315151469E+02  0.51100000000E-03 0.  1.
         12    1    3    3    0    0 -0.40800804118E+01  0.80516174544E+01 -0.11389660477E+02  0.14532720515E+02  0.00000000000E+00 0. -1.
</event>
<event>
 7    1  0.7444241E-013  0.5930198E+02  0.7816164E-02  0.1266605E+00
        -11   -1    0    0    0    0  0.00000000000E+00  0.00000000000E+00  0.45593999997E+02  0.45594000000E+02  0.51100000000E-03 0. -1.
         11   -1    0    0    0    0 -0.00000000000E+00 -0.00000000000E+00 -0.45593999997E+02  0.45594000000E+02  0.51100000000E-03 0.  1.
    9900012    2    1    2    0    0 -0.81008723608E+01  0.82317123157E+01  0.29720919610E+02  0.59301979817E+02  0.50000065272E+02 0.  0.
        -12    1    1    2    0    0  0.81008723608E+01 -0.82317123157E+01 -0.29720919610E+02  0.31886020183E+02  0.00000000000E+00 0.  1.
         11    1    3    3    0    0  0.59546877092E+01 -0.51805566755E+01  0.18397776945E+02  0.20019357382E+02  0.51100000000E-03 0. -1.
        -11    1    3    3    0    0 -0.63261787616E+00 -0.10320339555E+02  0.27101374240E+01  0.10688987745E+02  0.51100000000E-03 0.  1.
         12    1    3    3    0    0 -0.13422942194E+02  0.23732608546E+02  0.86130052402E+01  0.28593634690E+02  0.00000000000E+00 0. -1.
</event>
<event>
 7    1  0.7444241E-013  0.5930193E+02  0.7816164E-02  0.1266605E+00
        -11   -1    0    0    0    0  0.00000000000E+00  0.00000000000E+00  0.45593999997E+02  0.45594000000E+02  0.51100000000E-03 0.  1.
         11   -1    0    0    0    0 -0.00000000000E+00 -0.00000000000E+00 -0.45593999997E+02  0.45594000000E+02  0.51100000000E-03 0. -1.
    9900012    2    1    2    0    0 -0.61646163941E+01 -0.18227524904E+02 -0.25425894968E+02  0.59301932598E+02  0.49999979156E+02 0.  0.
        -12    1    1    2    0    0  0.61646163941E+01  0.18227524904E+02  0.25425894968E+02  0.31886067402E+02  0.00000000000E+00 0.  1.
         11    1    3    3    0    0 -0.11744133332E+02 -0.71669305025E+01 -0.90697696484E+01  0.16478782791E+02  0.51100000000E-03 0. -1.
        -11    1    3    3    0    0 -0.92990202751E+01  0.55746943559E+01 -0.17376613968E+02  0.20481594384E+02  0.51100000000E-03 0.  1.
         12    1    3    3    0    0  0.14878537213E+02 -0.16635288758E+02  0.10204886488E+01  0.22341555423E+02  0.00000000000E+00 0. -1.
</event>
<event>
 7    1  0.7444241E-013  0.5930194E+02  0.7816164E-02  0.1266605E+00
        -11   -1    0    0    0    0  0.00000000000E+00  0.00000000000E+00  0.45593999997E+02  0.45594000000E+02  0.51100000000E-03 0. -1.
         11   -1    0    0    0    0 -0.00000000000E+00 -0.00000000000E+00 -0.45593999997E+02  0.45594000000E+02  0.51100000000E-03 0.  1.
    9900012    2    1    2    0    0  0.14671053613E+02 -0.20284436632E+02  0.19748985022E+02  0.59301943597E+02  0.49999999214E+02 0.  0.
        -12    1    1    2    0    0 -0.14671053613E+02  0.20284436632E+02 -0.19748985022E+02  0.31886056403E+02  0.00000000000E+00 0.  1.
         11    1    3    3    0    0  0.50398039762E+01  0.48396249438E+00 -0.13942146725E+02  0.14832980125E+02  0.51100000000E-03 0.  1.
        -11    1    3    3    0    0 -0.44048186894E+01 -0.99875933825E+01  0.16584400876E+02  0.19854389992E+02  0.51100000000E-03 0. -1.
        -12    1    3    3    0    0  0.14036068326E+02 -0.10780805743E+02  0.17106730871E+02  0.24614573480E+02  0.00000000000E+00 0.  1.
</event>
<event>
 7    1  0.7444241E-013  0.5930202E+02  0.7816164E-02  0.1266604E+00
        -11   -1    0    0    0    0  0.00000000000E+00  0.00000000000E+00  0.45593999997E+02  0.45594000000E+02  0.51100000000E-03 0.  1.
         11   -1    0    0    0    0 -0.00000000000E+00 -0.00000000000E+00 -0.45593999997E+02  0.45594000000E+02  0.51100000000E-03 0. -1.
    9900012    2    1    2    0    0 -0.81337816330E+00  0.12703832725E+02 -0.29234679965E+02  0.59302024045E+02  0.50000145931E+02 0.  0.
        -12    1    1    2    0    0  0.81337816330E+00 -0.12703832725E+02  0.29234679965E+02  0.31885975955E+02  0.00000000000E+00 0.  1.
         11    1    3    3    0    0 -0.12338080368E+01  0.12757996497E+02 -0.11703018374E+02  0.17356537564E+02  0.51100000000E-03 0. -1.
        -11    1    3    3    0    0 -0.10229157536E+02  0.96341479219E+01  0.52461367494E+01  0.14999147347E+02  0.51100000000E-03 0.  1.
        -12    1    3    3    0    0  0.10649587410E+02 -0.96883116933E+01 -0.22777798341E+02  0.26946339134E+02  0.00000000000E+00 0.  1.
</event>
<event>
 7    1  0.7444241E-013  0.5930207E+02  0.7816164E-02  0.1266604E+00
        -11   -1    0    0    0    0  0.00000000000E+00  0.00000000000E+00  0.45593999997E+02  0.45594000000E+02  0.51100000000E-03 0. -1.
         11   -1    0    0    0    0 -0.00000000000E+00 -0.00000000000E+00 -0.45593999997E+02  0.45594000000E+02  0.51100000000E-03 0.  1.
    9900012    2    1    2    0    0  0.72587522501E+01 -0.30978605178E+02  0.20853898829E+01  0.59302073418E+02  0.50000235977E+02 0.  0.
        -12    1    1    2    0    0 -0.72587522501E+01  0.30978605178E+02 -0.20853898829E+01  0.31885926582E+02  0.00000000000E+00 0.  1.
         11    1    3    3    0    0 -0.45063411511E+00 -0.47554190490E+01 -0.10622571253E+01  0.48934110698E+01  0.51100000000E-03 0. -1.
        -11    1    3    3    0    0 -0.13744578960E+02 -0.26872527160E+02 -0.65013223072E+01  0.30875773006E+02  0.51100000000E-03 0.  1.
         12    1    3    3    0    0  0.21453965325E+02  0.64934103081E+00  0.96489693154E+01  0.23532889342E+02  0.00000000000E+00 0. -1.
</event>
<event>
 7    1  0.7444241E-013  0.5930196E+02  0.7816164E-02  0.1266605E+00
        -11   -1    0    0    0    0  0.00000000000E+00  0.00000000000E+00  0.45593999997E+02  0.45594000000E+02  0.51100000000E-03 0. -1.
         11   -1    0    0    0    0 -0.00000000000E+00 -0.00000000000E+00 -0.45593999997E+02  0.45594000000E+02  0.51100000000E-03 0.  1.
    9900012    2    1    2    0    0  0.16339268493E+01 -0.47363557603E+00  0.31840627667E+02  0.59301958887E+02  0.50000027100E+02 0.  0.
        -12    1    1    2    0    0 -0.16339268493E+01  0.47363557603E+00 -0.31840627667E+02  0.31886041113E+02  0.00000000000E+00 0.  1.
         11    1    3    3    0    0 -0.26620423766E+01 -0.60427096729E+01  0.26957732718E+02  0.27754642195E+02  0.51100000000E-03 0. -1.
        -11    1    3    3    0    0 -0.49423740031E+01 -0.10851543666E+02  0.43691217497E+01  0.12699302573E+02  0.51100000000E-03 0.  1.
        -12    1    3    3    0    0  0.92383432290E+01  0.16420617763E+02  0.51377319989E+00  0.18848014119E+02  0.00000000000E+00 0.  1.
</event>
<event>
 7    1  0.7444241E-013  0.5930195E+02  0.7816164E-02  0.1266605E+00
        -11   -1    0    0    0    0  0.00000000000E+00  0.00000000000E+00  0.45593999997E+02  0.45594000000E+02  0.51100000000E-03 0.  1.
         11   -1    0    0    0    0 -0.00000000000E+00 -0.00000000000E+00 -0.45593999997E+02  0.45594000000E+02  0.51100000000E-03 0. -1.
    9900012    2    1    2    0    0  0.30816610656E+02  0.32603249004E+01  0.75117850870E+01  0.59301950920E+02  0.50000012569E+02 0.  0.
        -12    1    1    2    0    0 -0.30816610656E+02 -0.32603249004E+01 -0.75117850870E+01  0.31886049080E+02  0.00000000000E+00 0.  1.
         11    1    3    3    0    0  0.46822149507E+01  0.10159409698E+02  0.89561062700E+00  0.11222248479E+02  0.51100000000E-03 0. -1.
        -11    1    3    3    0    0 -0.73890416243E+01  0.75129512362E+01 -0.16472678726E+01  0.10665639414E+02  0.51100000000E-03 0.  1.
         12    1    3    3    0    0  0.33523437329E+02 -0.14412036034E+02  0.82634423326E+01  0.37414063027E+02  0.00000000000E+00 0. -1.
</event>
<event>
 7    1  0.7444241E-013  0.5930195E+02  0.7816164E-02  0.1266605E+00
        -11   -1    0    0    0    0  0.00000000000E+00  0.00000000000E+00  0.45593999997E+02  0.45594000000E+02  0.51100000000E-03 0.  1.
         11   -1    0    0    0    0 -0.00000000000E+00 -0.00000000000E+00 -0.45593999997E+02  0.45594000000E+02  0.51100000000E-03 0. -1.
    9900012    2    1    2    0    0  0.11110738890E+02 -0.20003802302E+02 -0.22206298061E+02  0.59301948209E+02  0.50000007625E+02 0.  0.
        -12    1    1    2    0    0 -0.11110738890E+02  0.20003802302E+02  0.22206298061E+02  0.31886051791E+02  0.00000000000E+00 0.  1.
         11    1    3    3    0    0  0.68911354520E+01  0.10035650237E+02  0.39964614632E+01  0.12813029618E+02  0.51100000000E-03 0. -1.
        -11    1    3    3    0    0  0.50391123194E+01 -0.29052962081E+00  0.20554577229E+01  0.54499511135E+01  0.51100000000E-03 0.  1.
         12    1    3    3    0    0 -0.81950888135E+00 -0.29748922919E+02 -0.28258217247E+02  0.41038967478E+02  0.00000000000E+00 0. -1.
</event>
<event>
 7    1  0.7444241E-013  0.5930187E+02  0.7816164E-02  0.1266605E+00
        -11   -1    0    0    0    0  0.00000000000E+00  0.00000000000E+00  0.45593999997E+02  0.45594000000E+02  0.51100000000E-03 0. -1.
         11   -1    0    0    0    0 -0.00000000000E+00 -0.00000000000E+00 -0.45593999997E+02  0.45594000000E+02  0.51100000000E-03 0.  1.
    9900012    2    1    2    0    0 -0.12004875356E+02  0.17062177349E+02  0.24114110743E+02  0.59301870333E+02  0.49999865598E+02 0.  0.
        -12    1    1    2    0    0  0.12004875356E+02 -0.17062177349E+02 -0.24114110743E+02  0.31886129667E+02  0.00000000000E+00 0.  1.
         11    1    3    3    0    0  0.75225497152E+01  0.12342978408E+02  0.18481287626E+02  0.23462648247E+02  0.51100000000E-03 0. -1.
        -11    1    3    3    0    0 -0.81051083787E+01  0.16252208988E+02  0.71900586404E+01  0.19532639922E+02  0.51100000000E-03 0.  1.
        -12    1    3    3    0    0 -0.11422316693E+02 -0.11533010047E+02 -0.15572355233E+01  0.16306582163E+02  0.00000000000E+00 0.  1.
</event>
<event>
 7    1  0.7444241E-013  0.5930195E+02  0.7816164E-02  0.1266605E+00
        -11   -1    0    0    0    0  0.00000000000E+00  0.00000000000E+00  0.45593999997E+02  0.45594000000E+02  0.51100000000E-03 0.  1.
         11   -1    0    0    0    0 -0.00000000000E+00 -0.00000000000E+00 -0.45593999997E+02  0.45594000000E+02  0.51100000000E-03 0. -1.
    9900012    2    1    2    0    0 -0.90597699044E+01 -0.75379359641E+00 -0.30562599349E+02  0.59301951099E+02  0.50000012897E+02 0.  0.
        -12    1    1    2    0    0  0.90597699044E+01  0.75379359641E+00  0.30562599349E+02  0.31886048901E+02  0.00000000000E+00 0.  1.
         11    1    3    3    0    0  0.44563529854E+01  0.13645972328E+02 -0.15902156141E+02  0.21423123323E+02  0.51100000000E-03 0. -1.
        -11    1    3    3    0    0 -0.22631897219E+01  0.32686708122E+01  0.68080257363E+01  0.78838728607E+01  0.51100000000E-03 0.  1.
         12    1    3    3    0    0 -0.11252933168E+02 -0.17668436737E+02 -0.21468468945E+02  0.29994954916E+02  0.00000000000E+00 0. -1.
</event>
<event>
 7    1  0.7444241E-013  0.5930193E+02  0.7816164E-02  0.1266605E+00
        -11   -1    0    0    0    0  0.00000000000E+00  0.00000000000E+00  0.45593999997E+02  0.45594000000E+02  0.51100000000E-03 0. -1.
         11   -1    0    0    0    0 -0.00000000000E+00 -0.00000000000E+00 -0.45593999997E+02  0.45594000000E+02  0.51100000000E-03 0.  1.
    9900012    2    1    2    0    0  0.17235113940E+02  0.21304504678E+02  0.16303074456E+02  0.59301932372E+02  0.49999978743E+02 0.  0.
        -12    1    1    2    0    0 -0.17235113940E+02 -0.21304504678E+02 -0.16303074456E+02  0.31886067628E+02  0.00000000000E+00 0.  1.
         11    1    3    3    0    0  0.20130257285E+02  0.25067141818E+02  0.90913234425E+01  0.33410193347E+02  0.51100000000E-03 0. -1.
        -11    1    3    3    0    0  0.74871038593E+01  0.61629851153E+01 -0.26053273740E+00  0.97008755945E+01  0.51100000000E-03 0.  1.
        -12    1    3    3    0    0 -0.10382247204E+02 -0.99256222557E+01  0.74722837505E+01  0.16190863430E+02  0.00000000000E+00 0.  1.
</event>
<event>
 7    1  0.7444241E-013  0.5930191E+02  0.7816164E-02  0.1266605E+00
        -11   -1    0    0    0    0  0.00000000000E+00  0.00000000000E+00  0.45593999997E+02  0.45594000000E+02  0.51100000000E-03 0.  1.
         11   -1    0    0    0    0 -0.00000000000E+00 -0.00000000000E+00 -0.45593999997E+02  0.45594000000E+02  0.51100000000E-03 0. -1.
    9900012    2    1    2    0    0  0.20780095117E+02 -0.23567797900E+02  0.54285471994E+01  0.59301912507E+02  0.49999942514E+02 0.  0.
        -12    1    1    2    0    0 -0.20780095117E+02  0.23567797900E+02 -0.54285471994E+01  0.31886087493E+02  0.00000000000E+00 0.  1.
         11    1    3    3    0    0  0.66970767088E+01  0.78334874119E+00  0.12906263904E+02  0.14561460089E+02  0.51100000000E-03 0. -1.
        -11    1    3    3    0    0 -0.51006663255E+01  0.60246041906E+01 -0.33591215741E+01  0.85788315421E+01  0.51100000000E-03 0.  1.
         12    1    3    3    0    0  0.19183684734E+02 -0.30375750831E+02 -0.41185951308E+01  0.36161620876E+02  0.00000000000E+00 0. -1.
</event>
<event>
 7    1  0.7444241E-013  0.5930193E+02  0.7816164E-02  0.1266605E+00
        -11   -1    0    0    0    0  0.00000000000E+00  0.00000000000E+00  0.45593999997E+02  0.45594000000E+02  0.51100000000E-03 0. -1.
         11   -1    0    0    0    0 -0.00000000000E+00 -0.00000000000E+00 -0.45593999997E+02  0.45594000000E+02  0.51100000000E-03 0.  1.
    9900012    2    1    2    0    0  0.22917073303E+02  0.83021626221E+01  0.20557310378E+02  0.59301934658E+02  0.49999982912E+02 0.  0.
        -12    1    1    2    0    0 -0.22917073303E+02 -0.83021626221E+01 -0.20557310378E+02  0.31886065342E+02  0.00000000000E+00 0.  1.
         11    1    3    3    0    0  0.10213186177E+02  0.36470991987E-01 -0.68666873752E+01  0.12306985731E+02  0.51100000000E-03 0. -1.
        -11    1    3    3    0    0  0.10833783094E+02  0.17905927858E+02  0.36121674392E+01  0.21237722629E+02  0.51100000000E-03 0.  1.
         12    1    3    3    0    0  0.18701040322E+01 -0.96402362282E+01  0.23811830314E+02  0.25757226298E+02  0.00000000000E+00 0. -1.
</event>
<event>
 7    1  0.7444241E-013  0.5930194E+02  0.7816164E-02  0.1266605E+00
        -11   -1    0    0    0    0  0.00000000000E+00  0.00000000000E+00  0.45593999997E+02  0.45594000000E+02  0.51100000000E-03 0.  1.
         11   -1    0    0    0    0 -0.00000000000E+00 -0.00000000000E+00 -0.45593999997E+02  0.45594000000E+02  0.51100000000E-03 0. -1.
    9900012    2    1    2    0    0  0.54934082845E+01 -0.28734220541E+02 -0.12684160718E+02  0.59301938816E+02  0.49999990496E+02 0.  0.
        -12    1    1    2    0    0 -0.54934082845E+01  0.28734220541E+02  0.12684160718E+02  0.31886061184E+02  0.00000000000E+00 0.  1.
         11    1    3    3    0    0 -0.32145233594E+01 -0.27868169967E+02  0.26286904932E+01  0.28175841987E+02  0.51100000000E-03 0. -1.
        -11    1    3    3    0    0  0.72330869839E+01 -0.18224167674E+01  0.61033211165E+01  0.96379084402E+01  0.51100000000E-03 0.  1.
         12    1    3    3    0    0  0.14748446600E+01  0.95636619289E+00 -0.21416172328E+02  0.21488188389E+02  0.00000000000E+00 0. -1.
</event>
<event>
 7    1  0.7444241E-013  0.5930194E+02  0.7816164E-02  0.1266605E+00
        -11   -1    0    0    0    0  0.00000000000E+00  0.00000000000E+00  0.45593999997E+02  0.45594000000E+02  0.51100000000E-03 0. -1.
         11   -1    0    0    0    0 -0.00000000000E+00 -0.00000000000E+00 -0.45593999997E+02  0.45594000000E+02  0.51100000000E-03 0.  1.
    9900012    2    1    2    0    0 -0.17135462960E+02  0.19955315093E+02  0.18024492738E+02  0.59301936747E+02  0.49999986722E+02 0.  0.
        -12    1    1    2    0    0  0.17135462960E+02 -0.19955315093E+02 -0.18024492738E+02  0.31886063253E+02  0.00000000000E+00 0.  1.
         11    1    3    3    0    0 -0.21236236779E+02  0.17841872903E+02  0.21090829302E+02  0.34844415078E+02  0.51100000000E-03 0. -1.
        -11    1    3    3    0    0 -0.19058294485E+01  0.12106395555E+02 -0.36385960655E+01  0.12784223904E+02  0.51100000000E-03 0.  1.
        -12    1    3    3    0    0  0.60066032684E+01 -0.99929533652E+01  0.57225950131E+00  0.11673297765E+02  0.00000000000E+00 0.  1.
</event>
<event>
 7    1  0.7444241E-013  0.5930201E+02  0.7816164E-02  0.1266605E+00
        -11   -1    0    0    0    0  0.00000000000E+00  0.00000000000E+00  0.45593999997E+02  0.45594000000E+02  0.51100000000E-03 0. -1.
         11   -1    0    0    0    0 -0.00000000000E+00 -0.00000000000E+00 -0.45593999997E+02  0.45594000000E+02  0.51100000000E-03 0.  1.
    9900012    2    1    2    0    0 -0.16398440840E+01 -0.31385371027E+02  0.53838456467E+01  0.59302009391E+02  0.50000119208E+02 0.  0.
        -12    1    1    2    0    0  0.16398440840E+01  0.31385371027E+02 -0.53838456467E+01  0.31885990609E+02  0.00000000000E+00 0.  1.
         11    1    3    3    0    0  0.94584747728E+01 -0.35095095261E+01  0.10756717001E+02  0.14747418860E+02  0.51100000000E-03 0. -1.
        -11    1    3    3    0    0 -0.84282041367E+01 -0.12803066623E+02  0.13380660544E+02  0.20346872408E+02  0.51100000000E-03 0.  1.
        -12    1    3    3    0    0 -0.26701147201E+01 -0.15072794878E+02 -0.18753531899E+02  0.24207718123E+02  0.00000000000E+00 0.  1.
</event>
<event>
 7    1  0.7444241E-013  0.5930189E+02  0.7816164E-02  0.1266605E+00
        -11   -1    0    0    0    0  0.00000000000E+00  0.00000000000E+00  0.45593999997E+02  0.45594000000E+02  0.51100000000E-03 0.  1.
         11   -1    0    0    0    0 -0.00000000000E+00 -0.00000000000E+00 -0.45593999997E+02  0.45594000000E+02  0.51100000000E-03 0. -1.
    9900012    2    1    2    0    0  0.15674511420E+01 -0.29634157279E+02  0.11665500792E+02  0.59301888769E+02  0.49999899221E+02 0.  0.
        -12    1    1    2    0    0 -0.15674511420E+01  0.29634157279E+02 -0.11665500792E+02  0.31886111231E+02  0.00000000000E+00 0.  1.
         11    1    3    3    0    0  0.91916196065E+01 -0.75822477121E+01 -0.97773949073E+01  0.15413429300E+02  0.51100000000E-03 0. -1.
        -11    1    3    3    0    0 -0.18826829258E+02 -0.85419795474E+01  0.12908084461E+02  0.24372803680E+02  0.51100000000E-03 0.  1.
         12    1    3    3    0    0  0.11202660794E+02 -0.13509930019E+02  0.85348112385E+01  0.19515655789E+02  0.00000000000E+00 0. -1.
</event>
<event>
 7    1  0.7444241E-013  0.5930194E+02  0.7816164E-02  0.1266605E+00
        -11   -1    0    0    0    0  0.00000000000E+00  0.00000000000E+00  0.45593999997E+02  0.45594000000E+02  0.51100000000E-03 0.  1.
         11   -1    0    0    0    0 -0.00000000000E+00 -0.00000000000E+00 -0.45593999997E+02  0.45594000000E+02  0.51100000000E-03 0. -1.
    9900012    2    1    2    0    0 -0.15379342316E+02  0.23122691881E+02 -0.15669648698E+02  0.59301938151E+02  0.49999989283E+02 0.  0.
        -12    1    1    2    0    0  0.15379342316E+02 -0.23122691881E+02  0.15669648698E+02  0.31886061849E+02  0.00000000000E+00 0.  1.
         11    1    3    3    0    0 -0.15525993042E+01 -0.41304231993E+01  0.57159777599E+01  0.72210361041E+01  0.51100000000E-03 0. -1.
        -11    1    3    3    0    0  0.15069452776E+01 -0.39215969011E+01  0.63581735003E+01  0.76207727198E+01  0.51100000000E-03 0.  1.
         12    1    3    3    0    0 -0.15333688290E+02  0.31174711981E+02 -0.27743799959E+02  0.44460129327E+02  0.00000000000E+00 0. -1.
</event>
<event>
 7    1  0.7444241E-013  0.5930196E+02  0.7816164E-02  0.1266605E+00
        -11   -1    0    0    0    0  0.00000000000E+00  0.00000000000E+00  0.45593999997E+02  0.45594000000E+02  0.51100000000E-03 0. -1.
         11   -1    0    0    0    0 -0.00000000000E+00 -0.00000000000E+00 -0.45593999997E+02  0.45594000000E+02  0.51100000000E-03 0.  1.
    9900012    2    1    2    0    0 -0.22520236062E+01  0.62362552237E+01  0.31189053393E+02  0.59301960091E+02  0.50000029295E+02 0.  0.
        -12    1    1    2    0    0  0.22520236062E+01 -0.62362552237E+01 -0.31189053393E+02  0.31886039909E+02  0.00000000000E+00 0.  1.
         11    1    3    3    0    0 -0.62868767710E+01 -0.55407852542E+01  0.41425942846E+01  0.93480590731E+01  0.51100000000E-03 0. -1.
        -11    1    3    3    0    0 -0.90049397325E+01 -0.11925691542E+02  0.98668455602E+01  0.17907141031E+02  0.51100000000E-03 0.  1.
         12    1    3    3    0    0  0.13039792897E+02  0.23702732020E+02  0.17179613548E+02  0.32046759987E+02  0.00000000000E+00 0. -1.
</event>
<event>
 7    1  0.7444241E-013  0.5930205E+02  0.7816164E-02  0.1266604E+00
        -11   -1    0    0    0    0  0.00000000000E+00  0.00000000000E+00  0.45593999997E+02  0.45594000000E+02  0.51100000000E-03 0. -1.
         11   -1    0    0    0    0 -0.00000000000E+00 -0.00000000000E+00 -0.45593999997E+02  0.45594000000E+02  0.51100000000E-03 0.  1.
    9900012    2    1    2    0    0 -0.30348715867E+02 -0.60898489422E+01  0.76539728063E+01  0.59302045182E+02  0.50000184481E+02 0.  0.
        -12    1    1    2    0    0  0.30348715867E+02  0.60898489422E+01 -0.76539728063E+01  0.31885954818E+02  0.00000000000E+00 0.  1.
         11    1    3    3    0    0 -0.39407426775E+01 -0.10709705710E+02 -0.19522999013E+01  0.11577509422E+02  0.51100000000E-03 0. -1.
        -11    1    3    3    0    0 -0.97678032761E+01 -0.11941624199E+02 -0.89175564444E+01  0.17819516900E+02  0.51100000000E-03 0.  1.
         12    1    3    3    0    0 -0.16640169913E+02  0.16561480967E+02  0.18523829152E+02  0.29905018860E+02  0.00000000000E+00 0. -1.
</event>
<event>
 7    1  0.7444241E-013  0.5930191E+02  0.7816164E-02  0.1266605E+00
        -11   -1    0    0    0    0  0.00000000000E+00  0.00000000000E+00  0.45593999997E+02  0.45594000000E+02  0.51100000000E-03 0. -1.
         11   -1    0    0    0    0 -0.00000000000E+00 -0.00000000000E+00 -0.45593999997E+02  0.45594000000E+02  0.51100000000E-03 0.  1.
    9900012    2    1    2    0    0 -0.68925816021E+01  0.31121532263E+02  0.81550820321E+00  0.59301913612E+02  0.49999944529E+02 0.  0.
        -12    1    1    2    0    0  0.68925816021E+01 -0.31121532263E+02 -0.81550820321E+00  0.31886086388E+02  0.00000000000E+00 0.  1.
         11    1    3    3    0    0  0.40172720051E+00  0.11958087671E+02  0.13589550265E+02  0.18106162546E+02  0.51100000000E-03 0. -1.
        -11    1    3    3    0    0  0.11208016023E+02  0.10648788061E+02 -0.13909791492E+02  0.20796600923E+02  0.51100000000E-03 0.  1.
        -12    1    3    3    0    0 -0.18502324825E+02  0.85146565308E+01  0.11357494310E+01  0.20399150143E+02  0.00000000000E+00 0.  1.
</event>
<event>
 7    1  0.7444241E-013  0.5930195E+02  0.7816164E-02  0.1266605E+00
        -11   -1    0    0    0    0  0.00000000000E+00  0.00000000000E+00  0.45593999997E+02  0.45594000000E+02  0.51100000000E-03 0. -1.
         11   -1    0    0    0    0 -0.00000000000E+00 -0.00000000000E+00 -0.45593999997E+02  0.45594000000E+02  0.51100000000E-03 0.  1.
    9900012    2    1    2    0    0  0.97285982863E+01 -0.25754577279E+02  0.16086528918E+02  0.59301948377E+02  0.50000007933E+02 0.  0.
        -12    1    1    2    0    0 -0.97285982863E+01  0.25754577279E+02 -0.16086528918E+02  0.31886051623E+02  0.00000000000E+00 0.  1.
         11    1    3    3    0    0 -0.73756036435E+00 -0.72148907241E+01  0.89950584263E+01  0.11554640618E+02  0.51100000000E-03 0. -1.
        -11    1    3    3    0    0  0.20391550353E+02 -0.56649928240E+01  0.18318692638E+02  0.27990747931E+02  0.51100000000E-03 0.  1.
        -12    1    3    3    0    0 -0.99253917025E+01 -0.12874693731E+02 -0.11227222147E+02  0.19756559829E+02  0.00000000000E+00 0.  1.
</event>
<event>
 7    1  0.7444241E-013  0.5930187E+02  0.7816164E-02  0.1266605E+00
        -11   -1    0    0    0    0  0.00000000000E+00  0.00000000000E+00  0.45593999997E+02  0.45594000000E+02  0.51100000000E-03 0.  1.
         11   -1    0    0    0    0 -0.00000000000E+00 -0.00000000000E+00 -0.45593999997E+02  0.45594000000E+02  0.51100000000E-03 0. -1.
    9900012    2    1    2    0    0  0.11005833473E+01  0.19234787261E+02 -0.25407422999E+02  0.59301867150E+02  0.49999859793E+02 0.  0.
        -12    1    1    2    0    0 -0.11005833473E+01 -0.19234787261E+02  0.25407422999E+02  0.31886132850E+02  0.00000000000E+00 0.  1.
         11    1    3    3    0    0  0.98185994442E+01  0.70034290015E+01 -0.29056354777E+02  0.31459889797E+02  0.51100000000E-03 0. -1.
        -11    1    3    3    0    0 -0.60857029051E+01  0.17138872522E+02 -0.37616078143E+01  0.18572194937E+02  0.51100000000E-03 0.  1.
        -12    1    3    3    0    0 -0.26323131919E+01 -0.49075142630E+01  0.74105395925E+01  0.92697824157E+01  0.00000000000E+00 0.  1.
</event>
<event>
 7    1  0.7444241E-013  0.5930196E+02  0.7816164E-02  0.1266605E+00
        -11   -1    0    0    0    0  0.00000000000E+00  0.00000000000E+00  0.45593999997E+02  0.45594000000E+02  0.51100000000E-03 0.  1.
         11   -1    0    0    0    0 -0.00000000000E+00 -0.00000000000E+00 -0.45593999997E+02  0.45594000000E+02  0.51100000000E-03 0. -1.
    9900012    2    1    2    0    0  0.76410103037E+01  0.25302682346E+02 -0.17835602332E+02  0.59301961003E+02  0.50000030959E+02 0.  0.
        -12    1    1    2    0    0 -0.76410103037E+01 -0.25302682346E+02  0.17835602332E+02  0.31886038997E+02  0.00000000000E+00 0.  1.
         11    1    3    3    0    0 -0.54490146105E+01  0.19710636425E+02 -0.26345328112E+02  0.33350821011E+02  0.51100000000E-03 0. -1.
        -11    1    3    3    0    0  0.93770711779E+01  0.30096876865E+01 -0.54648943054E+01  0.11262892785E+02  0.51100000000E-03 0.  1.
        -12    1    3    3    0    0  0.37129537363E+01  0.25823582346E+01  0.13974620086E+02  0.14688247208E+02  0.00000000000E+00 0.  1.
</event>
<event>
 7    1  0.7444241E-013  0.5930191E+02  0.7816164E-02  0.1266605E+00
        -11   -1    0    0    0    0  0.00000000000E+00  0.00000000000E+00  0.45593999997E+02  0.45594000000E+02  0.51100000000E-03 0. -1.
         11   -1    0    0    0    0 -0.00000000000E+00 -0.00000000000E+00 -0.45593999997E+02  0.45594000000E+02  0.51100000000E-03 0.  1.
    9900012    2    1    2    0    0  0.17472463078E+02  0.11296904981E+02  0.24162283844E+02  0.59301906029E+02  0.49999930700E+02 0.  0.
        -12    1    1    2    0    0 -0.17472463078E+02 -0.11296904981E+02 -0.24162283844E+02  0.31886093971E+02  0.00000000000E+00 0.  1.
         11    1    3    3    0    0  0.23988471661E+01 -0.88552504025E+01  0.25706789289E+02  0.27294851955E+02  0.51100000000E-03 0. -1.
        -11    1    3    3    0    0  0.10674463384E+02  0.73721605512E+01  0.81978137813E+01  0.15345913814E+02  0.51100000000E-03 0.  1.
        -12    1    3    3    0    0  0.43991525283E+01  0.12779994832E+02 -0.97423192264E+01  0.16661140261E+02  0.00000000000E+00 0.  1.
</event>
<event>
 7    1  0.7444241E-013  0.5930200E+02  0.7816164E-02  0.1266605E+00
        -11   -1    0    0    0    0  0.00000000000E+00  0.00000000000E+00  0.45593999997E+02  0.45594000000E+02  0.51100000000E-03 0.  1.
         11   -1    0    0    0    0 -0.00000000000E+00 -0.00000000000E+00 -0.45593999997E+02  0.45594000000E+02  0.51100000000E-03 0. -1.
    9900012    2    1    2    0    0  0.21691677886E+02 -0.22361353294E+02  0.67939762350E+01  0.59301997998E+02  0.50000098428E+02 0.  0.
        -12    1    1    2    0    0 -0.21691677886E+02  0.22361353294E+02 -0.67939762350E+01  0.31886002002E+02  0.00000000000E+00 0.  1.
         11    1    3    3    0    0  0.22903391435E+00 -0.18726014757E+01  0.11506951492E+02  0.11660575703E+02  0.51100000000E-03 0. -1.
        -11    1    3    3    0    0  0.68837248565E+01  0.10839293176E+02 -0.77876177493E+00  0.12863996837E+02  0.51100000000E-03 0.  1.
         12    1    3    3    0    0  0.14578919115E+02 -0.31328044994E+02 -0.39342134826E+01  0.34777425457E+02  0.00000000000E+00 0. -1.
</event>
<event>
 7    1  0.7444241E-013  0.5930193E+02  0.7816164E-02  0.1266605E+00
        -11   -1    0    0    0    0  0.00000000000E+00  0.00000000000E+00  0.45593999997E+02  0.45594000000E+02  0.51100000000E-03 0.  1.
         11   -1    0    0    0    0 -0.00000000000E+00 -0.00000000000E+00 -0.45593999997E+02  0.45594000000E+02  0.51100000000E-03 0. -1.
    9900012    2    1    2    0    0 -0.25073123737E+02 -0.97293985281E+01 -0.17128878082E+02  0.59301934172E+02  0.49999982025E+02 0.  0.
        -12    1    1    2    0    0  0.25073123737E+02  0.97293985281E+01  0.17128878082E+02  0.31886065828E+02  0.00000000000E+00 0.  1.
         11    1    3    3    0    0  0.12279951521E+01 -0.90505468012E+00  0.63807263313E+01  0.65605460781E+01  0.51100000000E-03 0. -1.
        -11    1    3    3    0    0  0.77214861631E+01  0.39095930137E+01  0.12978494038E+01  0.87516101053E+01  0.51100000000E-03 0.  1.
         12    1    3    3    0    0 -0.34022605053E+02 -0.12733936862E+02 -0.24807453817E+02  0.43989777988E+02  0.00000000000E+00 0. -1.
</event>
<event>
 7    1  0.7444241E-013  0.5930196E+02  0.7816164E-02  0.1266605E+00
        -11   -1    0    0    0    0  0.00000000000E+00  0.00000000000E+00  0.45593999997E+02  0.45594000000E+02  0.51100000000E-03 0.  1.
         11   -1    0    0    0    0 -0.00000000000E+00 -0.00000000000E+00 -0.45593999997E+02  0.45594000000E+02  0.51100000000E-03 0. -1.
    9900012    2    1    2    0    0 -0.10024855132E+02 -0.24558777234E+02  0.17694298273E+02  0.59301961503E+02  0.50000031871E+02 0.  0.
        -12    1    1    2    0    0  0.10024855132E+02  0.24558777234E+02 -0.17694298273E+02  0.31886038497E+02  0.00000000000E+00 0.  1.
         11    1    3    3    0    0  0.62908360663E+01 -0.94347972290E+01 -0.89675994406E+01  0.14457104038E+02  0.51100000000E-03 0. -1.
        -11    1    3    3    0    0 -0.15261365186E+02 -0.22096584145E+02  0.13838744103E+02  0.30210579883E+02  0.51100000000E-03 0.  1.
         12    1    3    3    0    0 -0.10543260117E+01  0.69726041405E+01  0.12823153611E+02  0.14634277583E+02  0.00000000000E+00 0. -1.
</event>
<event>
 7    1  0.7444241E-013  0.5930193E+02  0.7816164E-02  0.1266605E+00
        -11   -1    0    0    0    0  0.00000000000E+00  0.00000000000E+00  0.45593999997E+02  0.45594000000E+02  0.51100000000E-03 0.  1.
         11   -1    0    0    0    0 -0.00000000000E+00 -0.00000000000E+00 -0.45593999997E+02  0.45594000000E+02  0.51100000000E-03 0. -1.
    9900012    2    1    2    0    0 -0.28521358520E+02  0.14178941879E+02  0.14869297357E+01  0.59301933377E+02  0.49999980575E+02 0.  0.
        -12    1    1    2    0    0  0.28521358520E+02 -0.14178941879E+02 -0.14869297357E+01  0.31886066623E+02  0.00000000000E+00 0.  1.
         11    1    3    3    0    0 -0.36139297911E+01  0.41561160087E+01 -0.18419996666E+02  0.19225765687E+02  0.51100000000E-03 0. -1.
        -11    1    3    3    0    0 -0.28112291272E+02  0.10054353672E+02  0.13202422917E+02  0.32644983067E+02  0.51100000000E-03 0.  1.
        -12    1    3    3    0    0  0.32048625430E+01 -0.31527801313E-01  0.67045034846E+01  0.74311846227E+01  0.00000000000E+00 0.  1.
</event>
<event>
 7    1  0.7444241E-013  0.5930177E+02  0.7816164E-02  0.1266605E+00
        -11   -1    0    0    0    0  0.00000000000E+00  0.00000000000E+00  0.45593999997E+02  0.45594000000E+02  0.51100000000E-03 0. -1.
         11   -1    0    0    0    0 -0.00000000000E+00 -0.00000000000E+00 -0.45593999997E+02  0.45594000000E+02  0.51100000000E-03 0.  1.
    9900012    2    1    2    0    0  0.78481728100E+01 -0.28829880114E+02  0.11134446880E+02  0.59301769254E+02  0.49999681254E+02 0.  0.
        -12    1    1    2    0    0 -0.78481728100E+01  0.28829880114E+02 -0.11134446880E+02  0.31886230746E+02  0.00000000000E+00 0.  1.
         11    1    3    3    0    0  0.13054682984E+02 -0.50271657708E+01  0.12334059817E+02  0.18650098534E+02  0.51100000000E-03 0. -1.
        -11    1    3    3    0    0 -0.40881377383E+01  0.77404007227E+01 -0.23640243237E+01  0.90672644596E+01  0.51100000000E-03 0.  1.
         12    1    3    3    0    0 -0.11183724360E+01 -0.31543115066E+02  0.11644113871E+01  0.31584406261E+02  0.00000000000E+00 0. -1.
</event>
<event>
 7    1  0.7444241E-013  0.5930194E+02  0.7816164E-02  0.1266605E+00
        -11   -1    0    0    0    0  0.00000000000E+00  0.00000000000E+00  0.45593999997E+02  0.45594000000E+02  0.51100000000E-03 0.  1.
         11   -1    0    0    0    0 -0.00000000000E+00 -0.00000000000E+00 -0.45593999997E+02  0.45594000000E+02  0.51100000000E-03 0. -1.
    9900012    2    1    2    0    0  0.19681616393E+02 -0.59779078895E+01 -0.24364300968E+02  0.59301943984E+02  0.49999999921E+02 0.  0.
        -12    1    1    2    0    0 -0.19681616393E+02  0.59779078895E+01  0.24364300968E+02  0.31886056016E+02  0.00000000000E+00 0.  1.
         11    1    3    3    0    0 -0.18902369054E+01 -0.64949109665E+01  0.61154649314E+01  0.91189788688E+01  0.51100000000E-03 0. -1.
        -11    1    3    3    0    0 -0.27070327622E+01  0.10226259216E+01  0.58255296154E+01  0.65046587698E+01  0.51100000000E-03 0.  1.
         12    1    3    3    0    0  0.24278886060E+02 -0.50562284456E+00 -0.36305295515E+02  0.43678306346E+02  0.00000000000E+00 0. -1.
</event>
<event>
 7    1  0.7444241E-013  0.5930193E+02  0.7816164E-02  0.1266605E+00
        -11   -1    0    0    0    0  0.00000000000E+00  0.00000000000E+00  0.45593999997E+02  0.45594000000E+02  0.51100000000E-03 0.  1.
         11   -1    0    0    0    0 -0.00000000000E+00 -0.00000000000E+00 -0.45593999997E+02  0.45594000000E+02  0.51100000000E-03 0. -1.
    9900012    2    1    2    0    0 -0.28718704966E+02  0.13015186935E+02  0.47499597887E+01  0.59301933703E+02  0.49999981171E+02 0.  0.
        -12    1    1    2    0    0  0.28718704966E+02 -0.13015186935E+02 -0.47499597887E+01  0.31886066297E+02  0.00000000000E+00 0.  1.
         11    1    3    3    0    0 -0.19470507931E+02  0.32497766873E+00 -0.70989395093E+01  0.20726823973E+02  0.51100000000E-03 0. -1.
        -11    1    3    3    0    0 -0.16357504534E+02  0.13827427607E+02  0.18850311026E+02  0.28532436538E+02  0.51100000000E-03 0.  1.
        -12    1    3    3    0    0  0.71093074991E+01 -0.11372183405E+01 -0.70014117276E+01  0.10042673192E+02  0.00000000000E+00 0.  1.
</event>
<event>
 7    1  0.7444241E-013  0.5930192E+02  0.7816164E-02  0.1266605E+00
        -11   -1    0    0    0    0  0.00000000000E+00  0.00000000000E+00  0.45593999997E+02  0.45594000000E+02  0.51100000000E-03 0.  1.
         11   -1    0    0    0    0 -0.00000000000E+00 -0.00000000000E+00 -0.45593999997E+02  0.45594000000E+02  0.51100000000E-03 0. -1.
    9900012    2    1    2    0    0  0.24338071853E+02 -0.19757790784E+02 -0.58318308417E+01  0.59301916999E+02  0.49999950706E+02 0.  0.
        -12    1    1    2    0    0 -0.24338071853E+02  0.19757790784E+02  0.58318308417E+01  0.31886083001E+02  0.00000000000E+00 0.  1.
         11    1    3    3    0    0  0.43554200813E+01 -0.90891197534E+01 -0.83347397022E+00  0.10113182540E+02  0.51100000000E-03 0. -1.
        -11    1    3    3    0    0  0.17270454526E+02 -0.25729568492E+02 -0.10809201398E+02  0.32819477897E+02  0.51100000000E-03 0.  1.
        -12    1    3    3    0    0  0.27121972457E+01  0.15060897462E+02  0.58108445267E+01  0.16369256561E+02  0.00000000000E+00 0.  1.
</event>
<event>
 7    1  0.7444241E-013  0.5930192E+02  0.7816164E-02  0.1266605E+00
        -11   -1    0    0    0    0  0.00000000000E+00  0.00000000000E+00  0.45593999997E+02  0.45594000000E+02  0.51100000000E-03 0. -1.
         11   -1    0    0    0    0 -0.00000000000E+00 -0.00000000000E+00 -0.45593999997E+02  0.45594000000E+02  0.51100000000E-03 0.  1.
    9900012    2    1    2    0    0 -0.19471989185E+02 -0.20577033491E+02  0.14633838397E+02  0.59301923158E+02  0.49999961939E+02 0.  0.
        -12    1    1    2    0    0  0.19471989185E+02  0.20577033491E+02 -0.14633838397E+02  0.31886076842E+02  0.00000000000E+00 0.  1.
         11    1    3    3    0    0  0.86331346573E+01 -0.10667573982E+02  0.47126240795E+01  0.14509892303E+02  0.51100000000E-03 0. -1.
        -11    1    3    3    0    0  0.77592974319E+00  0.90339813961E+01  0.10223762357E+01  0.91246994613E+01  0.51100000000E-03 0.  1.
         12    1    3    3    0    0 -0.28881053586E+02 -0.18943440905E+02  0.88988380820E+01  0.35667331394E+02  0.00000000000E+00 0. -1.
</event>
<event>
 7    1  0.7444241E-013  0.5930195E+02  0.7816164E-02  0.1266605E+00
        -11   -1    0    0    0    0  0.00000000000E+00  0.00000000000E+00  0.45593999997E+02  0.45594000000E+02  0.51100000000E-03 0. -1.
         11   -1    0    0    0    0 -0.00000000000E+00 -0.00000000000E+00 -0.45593999997E+02  0.45594000000E+02  0.51100000000E-03 0.  1.
    9900012    2    1    2    0    0  0.25671679592E+02  0.20402446137E+01  0.18802188291E+02  0.59301952649E+02  0.50000015723E+02 0.  0.
        -12    1    1    2    0    0 -0.25671679592E+02 -0.20402446137E+01 -0.18802188291E+02  0.31886047351E+02  0.00000000000E+00 0.  1.
         11    1    3    3    0    0  0.61766083389E+01  0.17873238930E+01  0.12031694331E+02  0.13642092435E+02  0.51100000000E-03 0. -1.
        -11    1    3    3    0    0  0.16520678640E+02  0.19568973768E+02  0.40101973698E+01  0.25922176611E+02  0.51100000000E-03 0.  1.
         12    1    3    3    0    0  0.29743926131E+01 -0.19316053047E+02  0.27602965905E+01  0.19737683603E+02  0.00000000000E+00 0. -1.
</event>
<event>
 7    1  0.7444241E-013  0.5930194E+02  0.7816164E-02  0.1266605E+00
        -11   -1    0    0    0    0  0.00000000000E+00  0.00000000000E+00  0.45593999997E+02  0.45594000000E+02  0.51100000000E-03 0.  1.
         11   -1    0    0    0    0 -0.00000000000E+00 -0.00000000000E+00 -0.45593999997E+02  0.45594000000E+02  0.51100000000E-03 0. -1.
    9900012    2    1    2    0    0 -0.25502699668E+02 -0.17109053674E+02 -0.85798203440E+01  0.59301941524E+02  0.49999995434E+02 0.  0.
        -12    1    1    2    0    0  0.25502699668E+02  0.17109053674E+02  0.85798203440E+01  0.31886058476E+02  0.00000000000E+00 0.  1.
         11    1    3    3    0    0 -0.75828357760E+01 -0.25140578407E+01 -0.58728041932E+01  0.99151255456E+01  0.51100000000E-03 0. -1.
        -11    1    3    3    0    0  0.10001782335E+02 -0.13303215048E+02 -0.11331620037E+02  0.20134964450E+02  0.51100000000E-03 0.  1.
        -12    1    3    3    0    0 -0.27921646227E+02 -0.12917807850E+01  0.86246038862E+01  0.29251851528E+02  0.00000000000E+00 0.  1.
</event>
<event>
 7    1  0.7444241E-013  0.5930194E+02  0.7816164E-02  0.1266605E+00
        -11   -1    0    0    0    0  0.00000000000E+00  0.00000000000E+00  0.45593999997E+02  0.45594000000E+02  0.51100000000E-03 0.  1.
         11   -1    0    0    0    0 -0.00000000000E+00 -0.00000000000E+00 -0.45593999997E+02  0.45594000000E+02  0.51100000000E-03 0. -1.
    9900012    2    1    2    0    0  0.10008713851E+02  0.10595342263E+02 -0.28359918594E+02  0.59301943279E+02  0.49999998634E+02 0.  0.
        -12    1    1    2    0    0 -0.10008713851E+02 -0.10595342263E+02  0.28359918594E+02  0.31886056721E+02  0.00000000000E+00 0.  1.
         11    1    3    3    0    0  0.13721956321E+02  0.26368782363E+01 -0.32749756537E+00  0.13976854690E+02  0.51100000000E-03 0. -1.
        -11    1    3    3    0    0 -0.29514808169E+01 -0.13246983624E+02 -0.15815002333E+02  0.20840060297E+02  0.51100000000E-03 0.  1.
         12    1    3    3    0    0 -0.76176165377E+00  0.21205447650E+02 -0.12217418695E+02  0.24485028291E+02  0.00000000000E+00 0. -1.
</event>
<event>
 7    1  0.7444241E-013  0.5930194E+02  0.7816164E-02  0.1266605E+00
        -11   -1    0    0    0    0  0.00000000000E+00  0.00000000000E+00  0.45593999997E+02  0.45594000000E+02  0.51100000000E-03 0.  1.
         11   -1    0    0    0    0 -0.00000000000E+00 -0.00000000000E+00 -0.45593999997E+02  0.45594000000E+02  0.51100000000E-03 0. -1.
    9900012    2    1    2    0    0 -0.10642796839E+02  0.16259447080E+02 -0.25280071909E+02  0.59301940669E+02  0.49999993875E+02 0.  0.
        -12    1    1    2    0    0  0.10642796839E+02 -0.16259447080E+02  0.25280071909E+02  0.31886059331E+02  0.00000000000E+00 0.  1.
         11    1    3    3    0    0 -0.23561539775E+01  0.65326823688E+01 -0.25702149327E+02  0.26623821679E+02  0.51100000000E-03 0. -1.
        -11    1    3    3    0    0 -0.31746563217E+00 -0.78915085886E+01 -0.83071119469E+01  0.11462320943E+02  0.51100000000E-03 0.  1.
        -12    1    3    3    0    0 -0.79691772298E+01  0.17618273300E+02  0.87291893652E+01  0.21215798047E+02  0.00000000000E+00 0.  1.
</event>
<event>
 7    1  0.7444241E-013  0.5930210E+02  0.7816164E-02  0.1266604E+00
        -11   -1    0    0    0    0  0.00000000000E+00  0.00000000000E+00  0.45593999997E+02  0.45594000000E+02  0.51100000000E-03 0.  1.
         11   -1    0    0    0    0 -0.00000000000E+00 -0.00000000000E+00 -0.45593999997E+02  0.45594000000E+02  0.51100000000E-03 0. -1.
    9900012    2    1    2    0    0  0.25482158094E+02  0.68100667507E+01 -0.17916284138E+02  0.59302099862E+02  0.50000284204E+02 0.  0.
        -12    1    1    2    0    0 -0.25482158094E+02 -0.68100667507E+01  0.17916284138E+02  0.31885900138E+02  0.00000000000E+00 0.  1.
         11    1    3    3    0    0  0.23368627586E+01 -0.85893488196E+01 -0.79463449658E+01  0.11932402913E+02  0.51100000000E-03 0. -1.
        -11    1    3    3    0    0  0.31206760303E+02  0.13042372424E+02  0.65137160756E+00  0.33828828716E+02  0.51100000000E-03 0.  1.
         12    1    3    3    0    0 -0.80614649679E+01  0.23570431460E+01 -0.10621310780E+02  0.13540868233E+02  0.00000000000E+00 0. -1.
</event>
<event>
 7    1  0.7444241E-013  0.5930195E+02  0.7816164E-02  0.1266605E+00
        -11   -1    0    0    0    0  0.00000000000E+00  0.00000000000E+00  0.45593999997E+02  0.45594000000E+02  0.51100000000E-03 0.  1.
         11   -1    0    0    0    0 -0.00000000000E+00 -0.00000000000E+00 -0.45593999997E+02  0.45594000000E+02  0.51100000000E-03 0. -1.
    9900012    2    1    2    0    0  0.29170079686E+02  0.11607127662E+02 -0.55768410377E+01  0.59301951053E+02  0.50000012813E+02 0.  0.
        -12    1    1    2    0    0 -0.29170079686E+02 -0.11607127662E+02  0.55768410377E+01  0.31886048947E+02  0.00000000000E+00 0.  1.
         11    1    3    3    0    0 -0.22365002431E+01  0.49500928583E+01 -0.83960793043E+01  0.99999750294E+01  0.51100000000E-03 0. -1.
        -11    1    3    3    0    0  0.36546961502E+00  0.15542218206E+02  0.64081101782E+01  0.16815409335E+02  0.51100000000E-03 0.  1.
        -12    1    3    3    0    0  0.31041110314E+02 -0.88851834020E+01 -0.35888719116E+01  0.32486566689E+02  0.00000000000E+00 0.  1.
</event>
<event>
 7    1  0.7444241E-013  0.5930223E+02  0.7816164E-02  0.1266604E+00
        -11   -1    0    0    0    0  0.00000000000E+00  0.00000000000E+00  0.45593999997E+02  0.45594000000E+02  0.51100000000E-03 0. -1.
         11   -1    0    0    0    0 -0.00000000000E+00 -0.00000000000E+00 -0.45593999997E+02  0.45594000000E+02  0.51100000000E-03 0.  1.
    9900012    2    1    2    0    0  0.37203214728E+01 -0.20180456109E+02  0.24405141339E+02  0.59302226928E+02  0.50000515939E+02 0.  0.
        -12    1    1    2    0    0 -0.37203214728E+01  0.20180456109E+02 -0.24405141339E+02  0.31885773072E+02  0.00000000000E+00 0.  1.
         11    1    3    3    0    0  0.39252320677E+01 -0.20924510693E+01  0.11673565568E+02  0.12492314901E+02  0.51100000000E-03 0. -1.
        -11    1    3    3    0    0  0.52608421411E+01  0.11853521526E+02  0.97561126543E+01  0.16228498605E+02  0.51100000000E-03 0.  1.
         12    1    3    3    0    0 -0.54657527361E+01 -0.29941526566E+02  0.29754631174E+01  0.30581413421E+02  0.00000000000E+00 0. -1.
</event>
<event>
 7    1  0.7444241E-013  0.5930194E+02  0.7816164E-02  0.1266605E+00
        -11   -1    0    0    0    0  0.00000000000E+00  0.00000000000E+00  0.45593999997E+02  0.45594000000E+02  0.51100000000E-03 0. -1.
         11   -1    0    0    0    0 -0.00000000000E+00 -0.00000000000E+00 -0.45593999997E+02  0.45594000000E+02  0.51100000000E-03 0.  1.
    9900012    2    1    2    0    0  0.16927649304E+02  0.13132170098E+02  0.23616124621E+02  0.59301944355E+02  0.50000000597E+02 0.  0.
        -12    1    1    2    0    0 -0.16927649304E+02 -0.13132170098E+02 -0.23616124621E+02  0.31886055645E+02  0.00000000000E+00 0.  1.
         11    1    3    3    0    0  0.29206582301E+01 -0.68456771070E+00  0.32197648306E+01  0.44006548687E+01  0.51100000000E-03 0. -1.
        -11    1    3    3    0    0  0.18035708408E+02 -0.12867679513E+02  0.20102483187E+01  0.22246461570E+02  0.51100000000E-03 0.  1.
        -12    1    3    3    0    0 -0.40287173340E+01  0.26684417322E+02  0.18386111472E+02  0.32654827916E+02  0.00000000000E+00 0.  1.
</event>
<event>
 7    1  0.7444241E-013  0.5930191E+02  0.7816164E-02  0.1266605E+00
        -11   -1    0    0    0    0  0.00000000000E+00  0.00000000000E+00  0.45593999997E+02  0.45594000000E+02  0.51100000000E-03 0.  1.
         11   -1    0    0    0    0 -0.00000000000E+00 -0.00000000000E+00 -0.45593999997E+02  0.45594000000E+02  0.51100000000E-03 0. -1.
    9900012    2    1    2    0    0 -0.13518240183E+02  0.17499658271E+02 -0.22972627471E+02  0.59301914160E+02  0.49999945529E+02 0.  0.
        -12    1    1    2    0    0  0.13518240183E+02 -0.17499658271E+02  0.22972627471E+02  0.31886085840E+02  0.00000000000E+00 0.  1.
         11    1    3    3    0    0  0.45882892431E+01 -0.10734457163E+02 -0.13747461850E+02  0.18035345196E+02  0.51100000000E-03 0. -1.
        -11    1    3    3    0    0 -0.11681501474E+01  0.11288970778E+02  0.60411491878E+01  0.12856940529E+02  0.51100000000E-03 0.  1.
        -12    1    3    3    0    0 -0.16938379278E+02  0.16945144656E+02 -0.15266314809E+02  0.28409628435E+02  0.00000000000E+00 0.  1.
</event>
<event>
 7    1  0.7444241E-013  0.5930191E+02  0.7816164E-02  0.1266605E+00
        -11   -1    0    0    0    0  0.00000000000E+00  0.00000000000E+00  0.45593999997E+02  0.45594000000E+02  0.51100000000E-03 0. -1.
         11   -1    0    0    0    0 -0.00000000000E+00 -0.00000000000E+00 -0.45593999997E+02  0.45594000000E+02  0.51100000000E-03 0.  1.
    9900012    2    1    2    0    0  0.99941955143E+01 -0.44218188464E+01  0.29954738285E+02  0.59301909434E+02  0.49999936909E+02 0.  0.
        -12    1    1    2    0    0 -0.99941955143E+01  0.44218188464E+01 -0.29954738285E+02  0.31886090566E+02  0.00000000000E+00 0.  1.
         11    1    3    3    0    0 -0.97940890656E+01 -0.96667598397E+01  0.37468413575E+01  0.14262161366E+02  0.51100000000E-03 0.  1.
        -11    1    3    3    0    0 -0.28565045581E+01  0.88951604439E+01  0.18702113584E+02  0.20905801835E+02  0.51100000000E-03 0. -1.
        -12    1    3    3    0    0  0.22644789138E+02 -0.36502194507E+01  0.75057833435E+01  0.24133946232E+02  0.00000000000E+00 0.  1.
</event>
<event>
 7    1  0.7444241E-013  0.5930196E+02  0.7816164E-02  0.1266605E+00
        -11   -1    0    0    0    0  0.00000000000E+00  0.00000000000E+00  0.45593999997E+02  0.45594000000E+02  0.51100000000E-03 0.  1.
         11   -1    0    0    0    0 -0.00000000000E+00 -0.00000000000E+00 -0.45593999997E+02  0.45594000000E+02  0.51100000000E-03 0. -1.
    9900012    2    1    2    0    0  0.26777476240E+02  0.15686825007E+02 -0.73218838096E+01  0.59301957675E+02  0.50000024890E+02 0.  0.
        -12    1    1    2    0    0 -0.26777476240E+02 -0.15686825007E+02  0.73218838096E+01  0.31886042325E+02  0.00000000000E+00 0.  1.
         11    1    3    3    0    0  0.37687434126E+01  0.80026744375E+01  0.49458242178E+01  0.10134466070E+02  0.51100000000E-03 0. -1.
        -11    1    3    3    0    0 -0.10986339196E+02  0.70490782988E+01 -0.96453433320E-01  0.13053676008E+02  0.51100000000E-03 0.  1.
         12    1    3    3    0    0  0.33995072023E+02  0.63507227118E+00 -0.12171254594E+02  0.36113815598E+02  0.00000000000E+00 0. -1.
</event>
<event>
 7    1  0.7444241E-013  0.5930209E+02  0.7816164E-02  0.1266604E+00
        -11   -1    0    0    0    0  0.00000000000E+00  0.00000000000E+00  0.45593999997E+02  0.45594000000E+02  0.51100000000E-03 0.  1.
         11   -1    0    0    0    0 -0.00000000000E+00 -0.00000000000E+00 -0.45593999997E+02  0.45594000000E+02  0.51100000000E-03 0. -1.
    9900012    2    1    2    0    0 -0.19778323589E+02 -0.74917291555E+00 -0.24999355246E+02  0.59302092348E+02  0.50000270501E+02 0.  0.
        -12    1    1    2    0    0  0.19778323589E+02  0.74917291555E+00  0.24999355246E+02  0.31885907652E+02  0.00000000000E+00 0.  1.
         11    1    3    3    0    0 -0.34158930412E+01  0.10196715812E+02  0.15001832784E+00  0.10754712659E+02  0.51100000000E-03 0. -1.
        -11    1    3    3    0    0 -0.16789571572E+02  0.10182894673E+02 -0.16737564806E+02  0.25801688576E+02  0.51100000000E-03 0.  1.
        -12    1    3    3    0    0  0.42714102412E+00 -0.21128783401E+02 -0.84118087684E+01  0.22745691113E+02  0.00000000000E+00 0.  1.
</event>
<event>
 7    1  0.7444241E-013  0.5930196E+02  0.7816164E-02  0.1266605E+00
        -11   -1    0    0    0    0  0.00000000000E+00  0.00000000000E+00  0.45593999997E+02  0.45594000000E+02  0.51100000000E-03 0.  1.
         11   -1    0    0    0    0 -0.00000000000E+00 -0.00000000000E+00 -0.45593999997E+02  0.45594000000E+02  0.51100000000E-03 0. -1.
    9900012    2    1    2    0    0 -0.46458270371E+01 -0.22167565037E+02 -0.22444033156E+02  0.59301964297E+02  0.50000036966E+02 0.  0.
        -12    1    1    2    0    0  0.46458270371E+01  0.22167565037E+02  0.22444033156E+02  0.31886035703E+02  0.00000000000E+00 0.  1.
         11    1    3    3    0    0 -0.18845417545E+02 -0.19618178273E+02 -0.91577886842E+01  0.28703445352E+02  0.51100000000E-03 0. -1.
        -11    1    3    3    0    0  0.11711232349E+01  0.87278338924E+01  0.54944560252E-01  0.88062269588E+01  0.51100000000E-03 0.  1.
        -12    1    3    3    0    0  0.13028467273E+02 -0.11277220656E+02 -0.13341189032E+02  0.21792291986E+02  0.00000000000E+00 0.  1.
</event>
<event>
 7    1  0.7444241E-013  0.5930197E+02  0.7816164E-02  0.1266605E+00
        -11   -1    0    0    0    0  0.00000000000E+00  0.00000000000E+00  0.45593999997E+02  0.45594000000E+02  0.51100000000E-03 0.  1.
         11   -1    0    0    0    0 -0.00000000000E+00 -0.00000000000E+00 -0.45593999997E+02  0.45594000000E+02  0.51100000000E-03 0. -1.
    9900012    2    1    2    0    0  0.18955937241E+02  0.14258423730E+02 -0.21309355421E+02  0.59301971204E+02  0.50000049562E+02 0.  0.
        -12    1    1    2    0    0 -0.18955937241E+02 -0.14258423730E+02  0.21309355421E+02  0.31886028796E+02  0.00000000000E+00 0.  1.
         11    1    3    3    0    0 -0.82786929417E+01  0.79320287866E+01 -0.17276923965E+02  0.20735137797E+02  0.51100000000E-03 0. -1.
        -11    1    3    3    0    0  0.92833614486E+01 -0.77941036847E+01 -0.91182114702E+01  0.15168079401E+02  0.51100000000E-03 0.  1.
        -12    1    3    3    0    0  0.17951268734E+02  0.14120498628E+02  0.50857800147E+01  0.23398754006E+02  0.00000000000E+00 0.  1.
</event>
<event>
 7    1  0.7444241E-013  0.5930193E+02  0.7816164E-02  0.1266605E+00
        -11   -1    0    0    0    0  0.00000000000E+00  0.00000000000E+00  0.45593999997E+02  0.45594000000E+02  0.51100000000E-03 0.  1.
         11   -1    0    0    0    0 -0.00000000000E+00 -0.00000000000E+00 -0.45593999997E+02  0.45594000000E+02  0.51100000000E-03 0. -1.
    9900012    2    1    2    0    0  0.26324622798E+01  0.11166436448E+02 -0.29750667703E+02  0.59301931108E+02  0.49999976438E+02 0.  0.
        -12    1    1    2    0    0 -0.26324622798E+01 -0.11166436448E+02  0.29750667703E+02  0.31886068892E+02  0.00000000000E+00 0.  1.
         11    1    3    3    0    0 -0.79066651166E+00  0.11437109257E+01  0.10636661560E+01  0.17506039434E+01  0.51100000000E-03 0. -1.
        -11    1    3    3    0    0 -0.87022476992E+01 -0.11654232738E+02  0.37197567953E+01  0.15012889349E+02  0.51100000000E-03 0.  1.
         12    1    3    3    0    0  0.12125376491E+02  0.21676958261E+02 -0.34534090654E+02  0.42538437816E+02  0.00000000000E+00 0. -1.
</event>
<event>
 7    1  0.7444241E-013  0.5930191E+02  0.7816164E-02  0.1266605E+00
        -11   -1    0    0    0    0  0.00000000000E+00  0.00000000000E+00  0.45593999997E+02  0.45594000000E+02  0.51100000000E-03 0. -1.
         11   -1    0    0    0    0 -0.00000000000E+00 -0.00000000000E+00 -0.45593999997E+02  0.45594000000E+02  0.51100000000E-03 0.  1.
    9900012    2    1    2    0    0 -0.41597715120E+01 -0.11088005967E+02  0.29605326737E+02  0.59301906690E+02  0.49999931904E+02 0.  0.
        -12    1    1    2    0    0  0.41597715120E+01  0.11088005967E+02 -0.29605326737E+02  0.31886093310E+02  0.00000000000E+00 0.  1.
         11    1    3    3    0    0  0.58741486929E+01  0.10076619386E+02  0.52319212337E+01  0.12783461236E+02  0.51100000000E-03 0. -1.
        -11    1    3    3    0    0 -0.17518386004E+02 -0.29317028599E+01  0.19169999535E+02  0.26133840366E+02  0.51100000000E-03 0.  1.
         12    1    3    3    0    0  0.74844657989E+01 -0.18232922493E+02  0.52034059692E+01  0.20384605088E+02  0.00000000000E+00 0. -1.
</event>
<event>
 7    1  0.7444241E-013  0.5930205E+02  0.7816164E-02  0.1266604E+00
        -11   -1    0    0    0    0  0.00000000000E+00  0.00000000000E+00  0.45593999997E+02  0.45594000000E+02  0.51100000000E-03 0.  1.
         11   -1    0    0    0    0 -0.00000000000E+00 -0.00000000000E+00 -0.45593999997E+02  0.45594000000E+02  0.51100000000E-03 0. -1.
    9900012    2    1    2    0    0 -0.95291146168E+01  0.19617608255E+02 -0.23260681603E+02  0.59302048741E+02  0.50000190972E+02 0.  0.
        -12    1    1    2    0    0  0.95291146168E+01 -0.19617608255E+02  0.23260681603E+02  0.31885951259E+02  0.00000000000E+00 0.  1.
         11    1    3    3    0    0 -0.46012359296E+01  0.51143531862E+01  0.64880300888E+01  0.94563478832E+01  0.51100000000E-03 0. -1.
        -11    1    3    3    0    0 -0.80328042435E+01 -0.60240043650E+01  0.35122972759E+01  0.10637236719E+02  0.51100000000E-03 0.  1.
         12    1    3    3    0    0  0.31049255563E+01  0.20527259434E+02 -0.33261008968E+02  0.39208464139E+02  0.00000000000E+00 0. -1.
</event>
<event>
 7    1  0.7444241E-013  0.5930195E+02  0.7816164E-02  0.1266605E+00
        -11   -1    0    0    0    0  0.00000000000E+00  0.00000000000E+00  0.45593999997E+02  0.45594000000E+02  0.51100000000E-03 0.  1.
         11   -1    0    0    0    0 -0.00000000000E+00 -0.00000000000E+00 -0.45593999997E+02  0.45594000000E+02  0.51100000000E-03 0. -1.
    9900012    2    1    2    0    0  0.18469355097E+02  0.32746453906E+01 -0.25785269427E+02  0.59301945061E+02  0.50000001884E+02 0.  0.
        -12    1    1    2    0    0 -0.18469355097E+02 -0.32746453906E+01  0.25785269427E+02  0.31886054939E+02  0.00000000000E+00 0.  1.
         11    1    3    3    0    0  0.17408917256E+02 -0.21819866828E+01 -0.15112517396E+02  0.23156416999E+02  0.51100000000E-03 0. -1.
        -11    1    3    3    0    0 -0.73075458389E+01 -0.67736328918E+01 -0.17259058774E+02  0.19928809266E+02  0.51100000000E-03 0.  1.
        -12    1    3    3    0    0  0.83679836804E+01  0.12230264965E+02  0.65863067429E+01  0.16216718796E+02  0.00000000000E+00 0.  1.
</event>
<event>
 7    1  0.7444241E-013  0.5930194E+02  0.7816164E-02  0.1266605E+00
        -11   -1    0    0    0    0  0.00000000000E+00  0.00000000000E+00  0.45593999997E+02  0.45594000000E+02  0.51100000000E-03 0. -1.
         11   -1    0    0    0    0 -0.00000000000E+00 -0.00000000000E+00 -0.45593999997E+02  0.45594000000E+02  0.51100000000E-03 0.  1.
    9900012    2    1    2    0    0 -0.19003623744E+02 -0.17838786963E+02  0.18367378632E+02  0.59301942960E+02  0.49999998053E+02 0.  0.
        -12    1    1    2    0    0  0.19003623744E+02  0.17838786963E+02 -0.18367378632E+02  0.31886057040E+02  0.00000000000E+00 0.  1.
         11    1    3    3    0    0  0.10106436110E+02 -0.12071683780E+02  0.15469949083E+02  0.22072265970E+02  0.51100000000E-03 0. -1.
        -11    1    3    3    0    0 -0.66713654860E+01 -0.69229380940E+01  0.97962967088E+01  0.13725946917E+02  0.51100000000E-03 0.  1.
        -12    1    3    3    0    0 -0.22438694368E+02  0.11558349110E+01 -0.68988671601E+01  0.23503730074E+02  0.00000000000E+00 0.  1.
</event>
<event>
 7    1  0.7444241E-013  0.5930192E+02  0.7816164E-02  0.1266605E+00
        -11   -1    0    0    0    0  0.00000000000E+00  0.00000000000E+00  0.45593999997E+02  0.45594000000E+02  0.51100000000E-03 0.  1.
         11   -1    0    0    0    0 -0.00000000000E+00 -0.00000000000E+00 -0.45593999997E+02  0.45594000000E+02  0.51100000000E-03 0. -1.
    9900012    2    1    2    0    0 -0.63032708429E+01 -0.29325261626E+02 -0.10817578166E+02  0.59301918551E+02  0.49999953537E+02 0.  0.
        -12    1    1    2    0    0  0.63032708429E+01  0.29325261626E+02  0.10817578166E+02  0.31886081449E+02  0.00000000000E+00 0.  1.
         11    1    3    3    0    0 -0.12235303418E+02 -0.21037769435E+02 -0.15629915551E+02  0.28923773144E+02  0.51100000000E-03 0. -1.
        -11    1    3    3    0    0  0.12947678742E+02 -0.14625451155E+02 -0.48781327613E+00  0.19539298051E+02  0.51100000000E-03 0.  1.
        -12    1    3    3    0    0 -0.70156461671E+01  0.63379589635E+01  0.53001506609E+01  0.10838847355E+02  0.00000000000E+00 0.  1.
</event>
<event>
 7    1  0.7444241E-013  0.5930195E+02  0.7816164E-02  0.1266605E+00
        -11   -1    0    0    0    0  0.00000000000E+00  0.00000000000E+00  0.45593999997E+02  0.45594000000E+02  0.51100000000E-03 0. -1.
         11   -1    0    0    0    0 -0.00000000000E+00 -0.00000000000E+00 -0.45593999997E+02  0.45594000000E+02  0.51100000000E-03 0.  1.
    9900012    2    1    2    0    0 -0.23360937827E+02 -0.10053503380E+02 -0.19233141866E+02  0.59301951446E+02  0.50000013529E+02 0.  0.
        -12    1    1    2    0    0  0.23360937827E+02  0.10053503380E+02  0.19233141866E+02  0.31886048554E+02  0.00000000000E+00 0.  1.
         11    1    3    3    0    0 -0.50336928382E+01 -0.21918812031E+01 -0.11070441120E+02  0.12357065738E+02  0.51100000000E-03 0. -1.
        -11    1    3    3    0    0  0.52665516400E+01  0.13230708526E+02 -0.51963595468E+01  0.15158837920E+02  0.51100000000E-03 0.  1.
         12    1    3    3    0    0 -0.23593796629E+02 -0.21092330703E+02 -0.29663411992E+01  0.31786047788E+02  0.00000000000E+00 0. -1.
</event>
<event>
 7    1  0.7444241E-013  0.5930195E+02  0.7816164E-02  0.1266605E+00
        -11   -1    0    0    0    0  0.00000000000E+00  0.00000000000E+00  0.45593999997E+02  0.45594000000E+02  0.51100000000E-03 0. -1.
         11   -1    0    0    0    0 -0.00000000000E+00 -0.00000000000E+00 -0.45593999997E+02  0.45594000000E+02  0.51100000000E-03 0.  1.
    9900012    2    1    2    0    0 -0.86414787521E+01 -0.27361960905E+02  0.13905684204E+02  0.59301951126E+02  0.50000012945E+02 0.  0.
        -12    1    1    2    0    0  0.86414787521E+01  0.27361960905E+02 -0.13905684204E+02  0.31886048874E+02  0.00000000000E+00 0.  1.
         11    1    3    3    0    0 -0.56667366228E+01  0.18132087522E+01  0.24378386531E+02  0.25093930741E+02  0.51100000000E-03 0. -1.
        -11    1    3    3    0    0 -0.42383574804E-01  0.15990558626E+01 -0.10850777609E+00  0.16032935532E+01  0.51100000000E-03 0.  1.
        -12    1    3    3    0    0 -0.29323585545E+01 -0.30774225520E+02 -0.10364194551E+02  0.32604726831E+02  0.00000000000E+00 0.  1.
</event>
<event>
 7    1  0.7444241E-013  0.5930192E+02  0.7816164E-02  0.1266605E+00
        -11   -1    0    0    0    0  0.00000000000E+00  0.00000000000E+00  0.45593999997E+02  0.45594000000E+02  0.51100000000E-03 0.  1.
         11   -1    0    0    0    0 -0.00000000000E+00 -0.00000000000E+00 -0.45593999997E+02  0.45594000000E+02  0.51100000000E-03 0. -1.
    9900012    2    1    2    0    0  0.19132547572E+02  0.16527607078E+02 -0.19429516977E+02  0.59301916793E+02  0.49999950330E+02 0.  0.
        -12    1    1    2    0    0 -0.19132547572E+02 -0.16527607078E+02  0.19429516977E+02  0.31886083207E+02  0.00000000000E+00 0.  1.
         11    1    3    3    0    0  0.70783844425E+01  0.33270685892E+01 -0.17767361701E+02  0.19412677656E+02  0.51100000000E-03 0. -1.
        -11    1    3    3    0    0  0.66488057991E+01  0.25534668333E+02 -0.91500879350E+00  0.26401953466E+02  0.51100000000E-03 0.  1.
        -12    1    3    3    0    0  0.54053573308E+01 -0.12334129845E+02 -0.74714648307E+00  0.13487285671E+02  0.00000000000E+00 0.  1.
</event>
<event>
 7    1  0.7444241E-013  0.5930193E+02  0.7816164E-02  0.1266605E+00
        -11   -1    0    0    0    0  0.00000000000E+00  0.00000000000E+00  0.45593999997E+02  0.45594000000E+02  0.51100000000E-03 0. -1.
         11   -1    0    0    0    0 -0.00000000000E+00 -0.00000000000E+00 -0.45593999997E+02  0.45594000000E+02  0.51100000000E-03 0.  1.
    9900012    2    1    2    0    0 -0.13224954651E+02 -0.28994635416E+02  0.10644425545E+01  0.59301931782E+02  0.49999977666E+02 0.  0.
        -12    1    1    2    0    0  0.13224954651E+02  0.28994635416E+02 -0.10644425545E+01  0.31886068218E+02  0.00000000000E+00 0.  1.
         11    1    3    3    0    0 -0.23544754598E+02 -0.66382683977E+00 -0.25196737116E+00  0.23555458454E+02  0.51100000000E-03 0. -1.
        -11    1    3    3    0    0 -0.22269836034E+01  0.18718939314E+01 -0.65487213307E+00  0.29819960818E+01  0.51100000000E-03 0.  1.
         12    1    3    3    0    0  0.12546783550E+02 -0.30202702508E+02  0.19712820587E+01  0.32764477246E+02  0.00000000000E+00 0. -1.
</event>
<event>
 7    1  0.7444241E-013  0.5930198E+02  0.7816164E-02  0.1266605E+00
        -11   -1    0    0    0    0  0.00000000000E+00  0.00000000000E+00  0.45593999997E+02  0.45594000000E+02  0.51100000000E-03 0.  1.
         11   -1    0    0    0    0 -0.00000000000E+00 -0.00000000000E+00 -0.45593999997E+02  0.45594000000E+02  0.51100000000E-03 0. -1.
    9900012    2    1    2    0    0  0.20917928730E+02  0.20921082454E+02 -0.11893975980E+02  0.59301982719E+02  0.50000070564E+02 0.  0.
        -12    1    1    2    0    0 -0.20917928730E+02 -0.20921082454E+02  0.11893975980E+02  0.31886017281E+02  0.00000000000E+00 0.  1.
         11    1    3    3    0    0 -0.13380523637E+01  0.17214534649E+00  0.88408541748E+01  0.89431941134E+01  0.51100000000E-03 0. -1.
        -11    1    3    3    0    0  0.33986126323E+01  0.86328215723E+01  0.91311320744E+01  0.13017440199E+02  0.51100000000E-03 0.  1.
         12    1    3    3    0    0  0.18857368462E+02  0.12116115535E+02 -0.29865962229E+02  0.37341348407E+02  0.00000000000E+00 0. -1.
</event>
<event>
 7    1  0.7444241E-013  0.5930195E+02  0.7816164E-02  0.1266605E+00
        -11   -1    0    0    0    0  0.00000000000E+00  0.00000000000E+00  0.45593999997E+02  0.45594000000E+02  0.51100000000E-03 0.  1.
         11   -1    0    0    0    0 -0.00000000000E+00 -0.00000000000E+00 -0.45593999997E+02  0.45594000000E+02  0.51100000000E-03 0. -1.
    9900012    2    1    2    0    0  0.84949544397E+01  0.23159352571E+02 -0.20203974522E+02  0.59301945855E+02  0.50000003333E+02 0.  0.
        -12    1    1    2    0    0 -0.84949544397E+01 -0.23159352571E+02  0.20203974522E+02  0.31886054145E+02  0.00000000000E+00 0.  1.
         11    1    3    3    0    0  0.25825656135E+01  0.11770941937E+02 -0.19989937658E+02  0.23341429414E+02  0.51100000000E-03 0. -1.
        -11    1    3    3    0    0 -0.21693660628E+00 -0.10330051284E+02 -0.68995946108E+01  0.12424227424E+02  0.51100000000E-03 0.  1.
        -12    1    3    3    0    0  0.61293254325E+01  0.21718461918E+02  0.66855577471E+01  0.23536289018E+02  0.00000000000E+00 0.  1.
</event>
<event>
 7    1  0.7444241E-013  0.5930187E+02  0.7816164E-02  0.1266605E+00
        -11   -1    0    0    0    0  0.00000000000E+00  0.00000000000E+00  0.45593999997E+02  0.45594000000E+02  0.51100000000E-03 0. -1.
         11   -1    0    0    0    0 -0.00000000000E+00 -0.00000000000E+00 -0.45593999997E+02  0.45594000000E+02  0.51100000000E-03 0.  1.
    9900012    2    1    2    0    0  0.97081938374E+01  0.79322506240E+00  0.30361935863E+02  0.59301868486E+02  0.49999862229E+02 0.  0.
        -12    1    1    2    0    0 -0.97081938374E+01 -0.79322506240E+00 -0.30361935863E+02  0.31886131514E+02  0.00000000000E+00 0.  1.
         11    1    3    3    0    0  0.44106397372E+01  0.97051605582E+01  0.33115059700E+02  0.34788662859E+02  0.51100000000E-03 0. -1.
        -11    1    3    3    0    0 -0.46414525489E+01 -0.16219493066E+01  0.71668754250E+01  0.86912545087E+01  0.51100000000E-03 0.  1.
        -12    1    3    3    0    0  0.99390066491E+01 -0.72899861892E+01 -0.99199992616E+01  0.15821951117E+02  0.00000000000E+00 0.  1.
</event>
<event>
 7    1  0.7444241E-013  0.5930196E+02  0.7816164E-02  0.1266605E+00
        -11   -1    0    0    0    0  0.00000000000E+00  0.00000000000E+00  0.45593999997E+02  0.45594000000E+02  0.51100000000E-03 0.  1.
         11   -1    0    0    0    0 -0.00000000000E+00 -0.00000000000E+00 -0.45593999997E+02  0.45594000000E+02  0.51100000000E-03 0. -1.
    9900012    2    1    2    0    0  0.22223819757E+02 -0.94559129684E+01 -0.20818424339E+02  0.59301964708E+02  0.50000037716E+02 0.  0.
        -12    1    1    2    0    0 -0.22223819757E+02  0.94559129684E+01  0.20818424339E+02  0.31886035292E+02  0.00000000000E+00 0.  1.
         11    1    3    3    0    0 -0.46031961959E+01 -0.34074105470E+01 -0.96627852372E+01  0.11232509989E+02  0.51100000000E-03 0. -1.
        -11    1    3    3    0    0 -0.79740413907E+00  0.11658793303E+02 -0.97627903706E+01  0.15227455162E+02  0.51100000000E-03 0.  1.
        -12    1    3    3    0    0  0.27624420092E+02 -0.17707295724E+02 -0.13928487314E+01  0.32841999557E+02  0.00000000000E+00 0.  1.
</event>
<event>
 7    1  0.7444241E-013  0.5930190E+02  0.7816164E-02  0.1266605E+00
        -11   -1    0    0    0    0  0.00000000000E+00  0.00000000000E+00  0.45593999997E+02  0.45594000000E+02  0.51100000000E-03 0.  1.
         11   -1    0    0    0    0 -0.00000000000E+00 -0.00000000000E+00 -0.45593999997E+02  0.45594000000E+02  0.51100000000E-03 0. -1.
    9900012    2    1    2    0    0  0.53708086217E+01 -0.20646490771E+02 -0.23698111336E+02  0.59301895702E+02  0.49999911866E+02 0.  0.
        -12    1    1    2    0    0 -0.53708086217E+01  0.20646490771E+02  0.23698111336E+02  0.31886104298E+02  0.00000000000E+00 0.  1.
         11    1    3    3    0    0  0.12250830194E+02 -0.11789584342E+02 -0.25611872231E+02  0.30741586472E+02  0.51100000000E-03 0.  1.
        -11    1    3    3    0    0  0.15376316962E+01 -0.11442957856E+01 -0.11090914573E+02  0.11255314763E+02  0.51100000000E-03 0. -1.
        -12    1    3    3    0    0 -0.84176532684E+01 -0.77126106438E+01  0.13004675468E+02  0.17304994468E+02  0.00000000000E+00 0.  1.
</event>
<event>
 7    1  0.7444241E-013  0.5930195E+02  0.7816164E-02  0.1266605E+00
        -11   -1    0    0    0    0  0.00000000000E+00  0.00000000000E+00  0.45593999997E+02  0.45594000000E+02  0.51100000000E-03 0.  1.
         11   -1    0    0    0    0 -0.00000000000E+00 -0.00000000000E+00 -0.45593999997E+02  0.45594000000E+02  0.51100000000E-03 0. -1.
    9900012    2    1    2    0    0  0.21707443995E+02  0.22549509450E+02 -0.60849294363E+01  0.59301954973E+02  0.50000019961E+02 0.  0.
        -12    1    1    2    0    0 -0.21707443995E+02 -0.22549509450E+02  0.60849294363E+01  0.31886045027E+02  0.00000000000E+00 0.  1.
         11    1    3    3    0    0  0.22618672805E+02  0.28311227004E+02  0.78964232241E+01  0.37087510484E+02  0.51100000000E-03 0. -1.
        -11    1    3    3    0    0  0.31811355451E+01  0.24154276974E+01  0.14732981238E+01  0.42572904459E+01  0.51100000000E-03 0.  1.
        -12    1    3    3    0    0 -0.40923643549E+01 -0.81771452510E+01 -0.15454650784E+02  0.17957154043E+02  0.00000000000E+00 0.  1.
</event>
<event>
 7    1  0.7444241E-013  0.5930192E+02  0.7816164E-02  0.1266605E+00
        -11   -1    0    0    0    0  0.00000000000E+00  0.00000000000E+00  0.45593999997E+02  0.45594000000E+02  0.51100000000E-03 0. -1.
         11   -1    0    0    0    0 -0.00000000000E+00 -0.00000000000E+00 -0.45593999997E+02  0.45594000000E+02  0.51100000000E-03 0.  1.
    9900012    2    1    2    0    0  0.29432820804E+02  0.23974002660E+01 -0.12028458418E+02  0.59301917136E+02  0.49999950956E+02 0.  0.
        -12    1    1    2    0    0 -0.29432820804E+02 -0.23974002660E+01  0.12028458418E+02  0.31886082864E+02  0.00000000000E+00 0.  1.
         11    1    3    3    0    0  0.23816589930E+02 -0.34515845364E+01 -0.10409160337E+02  0.26220106996E+02  0.51100000000E-03 0. -1.
        -11    1    3    3    0    0  0.99933714186E+01  0.38337646425E+01 -0.15246050024E+02  0.18628131018E+02  0.51100000000E-03 0.  1.
         12    1    3    3    0    0 -0.43771405447E+01  0.20152201599E+01  0.13626751943E+02  0.14453679122E+02  0.00000000000E+00 0. -1.
</event>
<event>
 7    1  0.7444241E-013  0.5930200E+02  0.7816164E-02  0.1266605E+00
        -11   -1    0    0    0    0  0.00000000000E+00  0.00000000000E+00  0.45593999997E+02  0.45594000000E+02  0.51100000000E-03 0.  1.
         11   -1    0    0    0    0 -0.00000000000E+00 -0.00000000000E+00 -0.45593999997E+02  0.45594000000E+02  0.51100000000E-03 0. -1.
    9900012    2    1    2    0    0  0.74062034430E+01 -0.23149436494E+01 -0.30927439138E+02  0.59301995152E+02  0.50000093239E+02 0.  0.
        -12    1    1    2    0    0 -0.74062034430E+01  0.23149436494E+01  0.30927439138E+02  0.31886004848E+02  0.00000000000E+00 0.  1.
         11    1    3    3    0    0  0.24086321095E+00 -0.74382860824E+01 -0.21248141358E+02  0.22513765264E+02  0.51100000000E-03 0. -1.
        -11    1    3    3    0    0  0.11050944261E+02 -0.11221138176E+02 -0.12038634788E+02  0.19823371027E+02  0.51100000000E-03 0.  1.
        -12    1    3    3    0    0 -0.38856040294E+01  0.16344480609E+02  0.23593370090E+01  0.16964858861E+02  0.00000000000E+00 0.  1.
</event>
<event>
 7    1  0.7444241E-013  0.5930198E+02  0.7816164E-02  0.1266605E+00
        -11   -1    0    0    0    0  0.00000000000E+00  0.00000000000E+00  0.45593999997E+02  0.45594000000E+02  0.51100000000E-03 0. -1.
         11   -1    0    0    0    0 -0.00000000000E+00 -0.00000000000E+00 -0.45593999997E+02  0.45594000000E+02  0.51100000000E-03 0.  1.
    9900012    2    1    2    0    0 -0.25597759816E+02  0.41665480177E+00 -0.19007872533E+02  0.59301982265E+02  0.50000069735E+02 0.  0.
        -12    1    1    2    0    0  0.25597759816E+02 -0.41665480177E+00  0.19007872533E+02  0.31886017735E+02  0.00000000000E+00 0.  1.
         11    1    3    3    0    0 -0.66573627674E+01 -0.14629121593E+01 -0.10708622578E+02  0.12693903607E+02  0.51100000000E-03 0. -1.
        -11    1    3    3    0    0 -0.74645041116E+01  0.87914928993E+01 -0.23602456202E+02  0.26269471028E+02  0.51100000000E-03 0.  1.
         12    1    3    3    0    0 -0.11475892937E+02 -0.69119259382E+01  0.15303206248E+02  0.20338607630E+02  0.00000000000E+00 0. -1.
</event>
<event>
 7    1  0.7444241E-013  0.5930195E+02  0.7816164E-02  0.1266605E+00
        -11   -1    0    0    0    0  0.00000000000E+00  0.00000000000E+00  0.45593999997E+02  0.45594000000E+02  0.51100000000E-03 0.  1.
         11   -1    0    0    0    0 -0.00000000000E+00 -0.00000000000E+00 -0.45593999997E+02  0.45594000000E+02  0.51100000000E-03 0. -1.
    9900012    2    1    2    0    0  0.71709907900E+01 -0.98452506828E+01 -0.29468082350E+02  0.59301953721E+02  0.50000017679E+02 0.  0.
        -12    1    1    2    0    0 -0.71709907900E+01  0.98452506828E+01  0.29468082350E+02  0.31886046279E+02  0.00000000000E+00 0.  1.
         11    1    3    3    0    0 -0.64865093364E+00  0.99500420805E+01 -0.91219237373E+01  0.13514199139E+02  0.51100000000E-03 0. -1.
        -11    1    3    3    0    0 -0.16280845332E+01  0.86549022975E+01 -0.11591856742E+02  0.14557786096E+02  0.51100000000E-03 0.  1.
        -12    1    3    3    0    0  0.94477262568E+01 -0.28450195061E+02 -0.87543018701E+01  0.31229968486E+02  0.00000000000E+00 0.  1.
</event>
<event>
 7    1  0.7444241E-013  0.5930198E+02  0.7816164E-02  0.1266605E+00
        -11   -1    0    0    0    0  0.00000000000E+00  0.00000000000E+00  0.45593999997E+02  0.45594000000E+02  0.51100000000E-03 0.  1.
         11   -1    0    0    0    0 -0.00000000000E+00 -0.00000000000E+00 -0.45593999997E+02  0.45594000000E+02  0.51100000000E-03 0. -1.
    9900012    2    1    2    0    0 -0.11106566889E+01  0.20311749739E+02 -0.24554382313E+02  0.59301977568E+02  0.50000061170E+02 0.  0.
        -12    1    1    2    0    0  0.11106566889E+01 -0.20311749739E+02  0.24554382313E+02  0.31886022432E+02  0.00000000000E+00 0.  1.
         11    1    3    3    0    0  0.84041135971E+01  0.10031061131E+01 -0.19448208185E+01  0.86843350641E+01  0.51100000000E-03 0. -1.
        -11    1    3    3    0    0  0.14940584088E+02  0.13487913906E+02 -0.92938406449E+01  0.22170258199E+02  0.51100000000E-03 0.  1.
         12    1    3    3    0    0 -0.24455354374E+02  0.58207297196E+01 -0.13315720850E+02  0.28447384305E+02  0.00000000000E+00 0. -1.
</event>
<event>
 7    1  0.7444241E-013  0.5930195E+02  0.7816164E-02  0.1266605E+00
        -11   -1    0    0    0    0  0.00000000000E+00  0.00000000000E+00  0.45593999997E+02  0.45594000000E+02  0.51100000000E-03 0. -1.
         11   -1    0    0    0    0 -0.00000000000E+00 -0.00000000000E+00 -0.45593999997E+02  0.45594000000E+02  0.51100000000E-03 0.  1.
    9900012    2    1    2    0    0 -0.31624416289E+02  0.15239439694E+01  0.37807808690E+01  0.59301946390E+02  0.50000004308E+02 0.  0.
        -12    1    1    2    0    0  0.31624416289E+02 -0.15239439694E+01 -0.37807808690E+01  0.31886053610E+02  0.00000000000E+00 0.  1.
         11    1    3    3    0    0 -0.13761119636E+02  0.53738766144E+01  0.40459477700E+01  0.15317201348E+02  0.51100000000E-03 0. -1.
        -11    1    3    3    0    0 -0.20396933774E+02 -0.57069843175E+01  0.16549486114E+02  0.26879175365E+02  0.51100000000E-03 0.  1.
        -12    1    3    3    0    0  0.25336371212E+01  0.18570516725E+01 -0.16814653015E+02  0.17105569678E+02  0.00000000000E+00 0.  1.
</event>
<event>
 7    1  0.7444241E-013  0.5930197E+02  0.7816164E-02  0.1266605E+00
        -11   -1    0    0    0    0  0.00000000000E+00  0.00000000000E+00  0.45593999997E+02  0.45594000000E+02  0.51100000000E-03 0.  1.
         11   -1    0    0    0    0 -0.00000000000E+00 -0.00000000000E+00 -0.45593999997E+02  0.45594000000E+02  0.51100000000E-03 0. -1.
    9900012    2    1    2    0    0  0.12980129195E+02 -0.29638709929E+01 -0.28973279508E+02  0.59301965273E+02  0.50000038745E+02 0.  0.
        -12    1    1    2    0    0 -0.12980129195E+02  0.29638709929E+01  0.28973279508E+02  0.31886034727E+02  0.00000000000E+00 0.  1.
         11    1    3    3    0    0  0.14949760798E+02  0.75041660555E+01 -0.37926196450E+02  0.41451227165E+02  0.51100000000E-03 0. -1.
        -11    1    3    3    0    0 -0.22273872606E+01  0.19515911068E+01  0.23635102668E+01  0.37889501052E+01  0.51100000000E-03 0.  1.
        -12    1    3    3    0    0  0.25775565773E+00 -0.12419628155E+02  0.65894066746E+01  0.14061788002E+02  0.00000000000E+00 0.  1.
</event>
<event>
 7    1  0.7444241E-013  0.5930194E+02  0.7816164E-02  0.1266605E+00
        -11   -1    0    0    0    0  0.00000000000E+00  0.00000000000E+00  0.45593999997E+02  0.45594000000E+02  0.51100000000E-03 0.  1.
         11   -1    0    0    0    0 -0.00000000000E+00 -0.00000000000E+00 -0.45593999997E+02  0.45594000000E+02  0.51100000000E-03 0. -1.
    9900012    2    1    2    0    0 -0.23254455472E+01 -0.10056202213E+02 -0.30169282535E+02  0.59301944919E+02  0.50000001625E+02 0.  0.
        -12    1    1    2    0    0  0.23254455472E+01  0.10056202213E+02  0.30169282535E+02  0.31886055081E+02  0.00000000000E+00 0.  1.
         11    1    3    3    0    0 -0.66572043226E+01  0.26514963110E+01 -0.23036667387E+02  0.24125439822E+02  0.51100000000E-03 0. -1.
        -11    1    3    3    0    0  0.67742402198E+00 -0.31294178037E+01 -0.19129746409E+02  0.19395859275E+02  0.51100000000E-03 0.  1.
        -12    1    3    3    0    0  0.36543347534E+01 -0.95782807205E+01  0.11997131260E+02  0.15780645821E+02  0.00000000000E+00 0.  1.
</event>
<event>
 7    1  0.7444241E-013  0.5930197E+02  0.7816164E-02  0.1266605E+00
        -11   -1    0    0    0    0  0.00000000000E+00  0.00000000000E+00  0.45593999997E+02  0.45594000000E+02  0.51100000000E-03 0.  1.
         11   -1    0    0    0    0 -0.00000000000E+00 -0.00000000000E+00 -0.45593999997E+02  0.45594000000E+02  0.51100000000E-03 0. -1.
    9900012    2    1    2    0    0  0.11889347191E+02  0.16229119114E+01 -0.29541980905E+02  0.59301967705E+02  0.50000043182E+02 0.  0.
        -12    1    1    2    0    0 -0.11889347191E+02 -0.16229119114E+01  0.29541980905E+02  0.31886032295E+02  0.00000000000E+00 0.  1.
         11    1    3    3    0    0 -0.33535692945E+01  0.12994483015E+02 -0.74007675200E+01  0.15325611766E+02  0.51100000000E-03 0. -1.
        -11    1    3    3    0    0  0.10014236341E+02  0.95032856312E+01 -0.16910009660E+02  0.21829928865E+02  0.51100000000E-03 0.  1.
        -12    1    3    3    0    0  0.52286801445E+01 -0.20874856735E+02 -0.52312037255E+01  0.22146427075E+02  0.00000000000E+00 0.  1.
</event>
<event>
 7    1  0.7444241E-013  0.5930192E+02  0.7816164E-02  0.1266605E+00
        -11   -1    0    0    0    0  0.00000000000E+00  0.00000000000E+00  0.45593999997E+02  0.45594000000E+02  0.51100000000E-03 0.  1.
         11   -1    0    0    0    0 -0.00000000000E+00 -0.00000000000E+00 -0.45593999997E+02  0.45594000000E+02  0.51100000000E-03 0. -1.
    9900012    2    1    2    0    0 -0.15574900032E+02  0.10959187204E+02 -0.25574227204E+02  0.59301915382E+02  0.49999947757E+02 0.  0.
        -12    1    1    2    0    0  0.15574900032E+02 -0.10959187204E+02  0.25574227204E+02  0.31886084618E+02  0.00000000000E+00 0.  1.
         11    1    3    3    0    0 -0.26519247778E+02  0.19719076340E+02 -0.13574068695E+02  0.35726290259E+02  0.51100000000E-03 0. -1.
        -11    1    3    3    0    0 -0.20055200425E+01 -0.22313249383E+00  0.18825185740E+01  0.27596693993E+01  0.51100000000E-03 0.  1.
         12    1    3    3    0    0  0.12949867789E+02 -0.85367566429E+01 -0.13882677083E+02  0.20815955724E+02  0.00000000000E+00 0. -1.
</event>
<event>
 7    1  0.7444241E-013  0.5930195E+02  0.7816164E-02  0.1266605E+00
        -11   -1    0    0    0    0  0.00000000000E+00  0.00000000000E+00  0.45593999997E+02  0.45594000000E+02  0.51100000000E-03 0.  1.
         11   -1    0    0    0    0 -0.00000000000E+00 -0.00000000000E+00 -0.45593999997E+02  0.45594000000E+02  0.51100000000E-03 0. -1.
    9900012    2    1    2    0    0  0.14841442151E+02 -0.22297560481E+01 -0.28133249947E+02  0.59301953370E+02  0.50000017037E+02 0.  0.
        -12    1    1    2    0    0 -0.14841442151E+02  0.22297560481E+01  0.28133249947E+02  0.31886046630E+02  0.00000000000E+00 0.  1.
         11    1    3    3    0    0 -0.48582547658E+01 -0.42887744504E+00  0.10442160563E+01  0.49876810911E+01  0.51100000000E-03 0. -1.
        -11    1    3    3    0    0 -0.70310425393E+01  0.11578643429E+02 -0.15933582944E+01  0.13639623666E+02  0.51100000000E-03 0.  1.
         12    1    3    3    0    0  0.26730739456E+02 -0.13379522032E+02 -0.27584107709E+02  0.40674648612E+02  0.00000000000E+00 0. -1.
</event>
<event>
 7    1  0.7444241E-013  0.5930194E+02  0.7816164E-02  0.1266605E+00
        -11   -1    0    0    0    0  0.00000000000E+00  0.00000000000E+00  0.45593999997E+02  0.45594000000E+02  0.51100000000E-03 0.  1.
         11   -1    0    0    0    0 -0.00000000000E+00 -0.00000000000E+00 -0.45593999997E+02  0.45594000000E+02  0.51100000000E-03 0. -1.
    9900012    2    1    2    0    0 -0.19050802607E+02 -0.23719565087E+02 -0.95482841558E+01  0.59301943828E+02  0.49999999635E+02 0.  0.
        -12    1    1    2    0    0  0.19050802607E+02  0.23719565087E+02  0.95482841558E+01  0.31886056172E+02  0.00000000000E+00 0.  1.
         11    1    3    3    0    0  0.72542270157E+01  0.70094810296E+01 -0.20537226212E+01  0.10294387343E+02  0.51100000000E-03 0. -1.
        -11    1    3    3    0    0  0.13954231665E+01 -0.11410134173E+02  0.55991577673E+01  0.12786279193E+02  0.51100000000E-03 0.  1.
         12    1    3    3    0    0 -0.27700452790E+02 -0.19318911944E+02 -0.13093719302E+02  0.36221277291E+02  0.00000000000E+00 0. -1.
</event>
<event>
 7    1  0.7444241E-013  0.5930195E+02  0.7816164E-02  0.1266605E+00
        -11   -1    0    0    0    0  0.00000000000E+00  0.00000000000E+00  0.45593999997E+02  0.45594000000E+02  0.51100000000E-03 0.  1.
         11   -1    0    0    0    0 -0.00000000000E+00 -0.00000000000E+00 -0.45593999997E+02  0.45594000000E+02  0.51100000000E-03 0. -1.
    9900012    2    1    2    0    0  0.12570857393E+02  0.23379403813E+01 -0.29210066096E+02  0.59301946902E+02  0.50000005242E+02 0.  0.
        -12    1    1    2    0    0 -0.12570857393E+02 -0.23379403813E+01  0.29210066096E+02  0.31886053098E+02  0.00000000000E+00 0.  1.
         11    1    3    3    0    0  0.12177380320E+02  0.11331556570E+02 -0.10133711826E+01  0.16664923857E+02  0.51100000000E-03 0. -1.
        -11    1    3    3    0    0  0.22580589197E+01 -0.12197989648E+01  0.65225442072E+01  0.70093025898E+01  0.51100000000E-03 0.  1.
         12    1    3    3    0    0 -0.18645818464E+01 -0.77738172241E+01 -0.34719239121E+02  0.35627720455E+02  0.00000000000E+00 0. -1.
</event>
<event>
 7    1  0.7444241E-013  0.5930194E+02  0.7816164E-02  0.1266605E+00
        -11   -1    0    0    0    0  0.00000000000E+00  0.00000000000E+00  0.45593999997E+02  0.45594000000E+02  0.51100000000E-03 0. -1.
         11   -1    0    0    0    0 -0.00000000000E+00 -0.00000000000E+00 -0.45593999997E+02  0.45594000000E+02  0.51100000000E-03 0.  1.
    9900012    2    1    2    0    0 -0.16911736592E+02  0.62896017131E+01  0.26289828236E+02  0.59301937324E+02  0.49999987774E+02 0.  0.
        -12    1    1    2    0    0  0.16911736592E+02 -0.62896017131E+01 -0.26289828236E+02  0.31886062676E+02  0.00000000000E+00 0.  1.
         11    1    3    3    0    0 -0.16649493506E+02 -0.36466161816E+00  0.23226030391E+02  0.28579487401E+02  0.51100000000E-03 0. -1.
        -11    1    3    3    0    0 -0.94248863970E+01  0.11471297987E+02 -0.68847466053E+01  0.16365173301E+02  0.51100000000E-03 0.  1.
         12    1    3    3    0    0  0.91626433109E+01 -0.48170346557E+01  0.99485444501E+01  0.14357276622E+02  0.00000000000E+00 0. -1.
</event>
<event>
 7    1  0.7444241E-013  0.5930190E+02  0.7816164E-02  0.1266605E+00
        -11   -1    0    0    0    0  0.00000000000E+00  0.00000000000E+00  0.45593999997E+02  0.45594000000E+02  0.51100000000E-03 0.  1.
         11   -1    0    0    0    0 -0.00000000000E+00 -0.00000000000E+00 -0.45593999997E+02  0.45594000000E+02  0.51100000000E-03 0. -1.
    9900012    2    1    2    0    0  0.72126841694E+01 -0.10885587879E+02 -0.29089593437E+02  0.59301901419E+02  0.49999922292E+02 0.  0.
        -12    1    1    2    0    0 -0.72126841694E+01  0.10885587879E+02  0.29089593437E+02  0.31886098581E+02  0.00000000000E+00 0.  1.
         11    1    3    3    0    0  0.32742074813E+01 -0.69580659179E+01 -0.26834552079E+02  0.27914661049E+02  0.51100000000E-03 0. -1.
        -11    1    3    3    0    0 -0.13111664362E+02 -0.53902323023E+01 -0.15360352943E+01  0.14259374155E+02  0.51100000000E-03 0.  1.
        -12    1    3    3    0    0  0.17050141050E+02  0.14627103415E+01 -0.71900606379E+00  0.17127866215E+02  0.00000000000E+00 0.  1.
</event>
<event>
 7    1  0.7444241E-013  0.5930193E+02  0.7816164E-02  0.1266605E+00
        -11   -1    0    0    0    0  0.00000000000E+00  0.00000000000E+00  0.45593999997E+02  0.45594000000E+02  0.51100000000E-03 0. -1.
         11   -1    0    0    0    0 -0.00000000000E+00 -0.00000000000E+00 -0.45593999997E+02  0.45594000000E+02  0.51100000000E-03 0.  1.
    9900012    2    1    2    0    0  0.14018081849E+01  0.31328460598E+02  0.57692380396E+01  0.59301927536E+02  0.49999969922E+02 0.  0.
        -12    1    1    2    0    0 -0.14018081849E+01 -0.31328460598E+02 -0.57692380396E+01  0.31886072464E+02  0.00000000000E+00 0.  1.
         11    1    3    3    0    0 -0.14161478171E+02  0.30587762360E+01  0.13832016091E+02  0.20030682601E+02  0.51100000000E-03 0. -1.
        -11    1    3    3    0    0 -0.49483412512E+01  0.59570778142E+01 -0.39248263338E+01  0.86819997255E+01  0.51100000000E-03 0.  1.
        -12    1    3    3    0    0  0.20511627607E+02  0.22312606548E+02 -0.41379517181E+01  0.30589245209E+02  0.00000000000E+00 0.  1.
</event>
<event>
 7    1  0.7444241E-013  0.5930194E+02  0.7816164E-02  0.1266605E+00
        -11   -1    0    0    0    0  0.00000000000E+00  0.00000000000E+00  0.45593999997E+02  0.45594000000E+02  0.51100000000E-03 0.  1.
         11   -1    0    0    0    0 -0.00000000000E+00 -0.00000000000E+00 -0.45593999997E+02  0.45594000000E+02  0.51100000000E-03 0. -1.
    9900012    2    1    2    0    0 -0.13121825058E+02  0.16781224183E+02 -0.23726131141E+02  0.59301936009E+02  0.49999985376E+02 0.  0.
        -12    1    1    2    0    0  0.13121825058E+02 -0.16781224183E+02  0.23726131141E+02  0.31886063991E+02  0.00000000000E+00 0.  1.
         11    1    3    3    0    0 -0.81684765415E+01 -0.70215607548E+01 -0.81652043377E+01  0.13516541221E+02  0.51100000000E-03 0. -1.
        -11    1    3    3    0    0 -0.10954571375E+02 -0.11046517188E+01 -0.16855130628E+02  0.20132518923E+02  0.51100000000E-03 0.  1.
        -12    1    3    3    0    0  0.60012228586E+01  0.24907436657E+02  0.12942038248E+01  0.25652875865E+02  0.00000000000E+00 0.  1.
</event>
<event>
 7    1  0.7444241E-013  0.5930198E+02  0.7816164E-02  0.1266605E+00
        -11   -1    0    0    0    0  0.00000000000E+00  0.00000000000E+00  0.45593999997E+02  0.45594000000E+02  0.51100000000E-03 0. -1.
         11   -1    0    0    0    0 -0.00000000000E+00 -0.00000000000E+00 -0.45593999997E+02  0.45594000000E+02  0.51100000000E-03 0.  1.
    9900012    2    1    2    0    0  0.11238050843E+02  0.23119867740E+02  0.18865208025E+02  0.59301981984E+02  0.50000069223E+02 0.  0.
        -12    1    1    2    0    0 -0.11238050843E+02 -0.23119867740E+02 -0.18865208025E+02  0.31886018016E+02  0.00000000000E+00 0.  1.
         11    1    3    3    0    0  0.28443128062E+01  0.36750751921E+00 -0.37498973464E+01  0.47209011307E+01  0.51100000000E-03 0. -1.
        -11    1    3    3    0    0  0.19210483027E+02 -0.35302723267E+01  0.16362165368E+02  0.25479912415E+02  0.51100000000E-03 0.  1.
         12    1    3    3    0    0 -0.10816744990E+02  0.26282632548E+02  0.62529400033E+01  0.29101168439E+02  0.00000000000E+00 0. -1.
</event>
<event>
 7    1  0.7444241E-013  0.5930199E+02  0.7816164E-02  0.1266605E+00
        -11   -1    0    0    0    0  0.00000000000E+00  0.00000000000E+00  0.45593999997E+02  0.45594000000E+02  0.51100000000E-03 0.  1.
         11   -1    0    0    0    0 -0.00000000000E+00 -0.00000000000E+00 -0.45593999997E+02  0.45594000000E+02  0.51100000000E-03 0. -1.
    9900012    2    1    2    0    0  0.10588013742E+01 -0.24022724519E+02 -0.20940521609E+02  0.59301987409E+02  0.50000079117E+02 0.  0.
        -12    1    1    2    0    0 -0.10588013742E+01  0.24022724519E+02  0.20940521609E+02  0.31886012591E+02  0.00000000000E+00 0.  1.
         11    1    3    3    0    0 -0.49170097783E+01 -0.29891883037E+02 -0.19395366809E+01  0.30355616604E+02  0.51100000000E-03 0. -1.
        -11    1    3    3    0    0  0.49070831357E+01  0.61215952690E+01  0.18546614421E+01  0.80618337160E+01  0.51100000000E-03 0.  1.
        -12    1    3    3    0    0  0.10687280168E+01 -0.25243675142E+00 -0.20855646370E+02  0.20884537089E+02  0.00000000000E+00 0.  1.
</event>
<event>
 7    1  0.7444241E-013  0.5930194E+02  0.7816164E-02  0.1266605E+00
        -11   -1    0    0    0    0  0.00000000000E+00  0.00000000000E+00  0.45593999997E+02  0.45594000000E+02  0.51100000000E-03 0.  1.
         11   -1    0    0    0    0 -0.00000000000E+00 -0.00000000000E+00 -0.45593999997E+02  0.45594000000E+02  0.51100000000E-03 0. -1.
    9900012    2    1    2    0    0  0.25657549314E+02  0.14653348851E+02 -0.11987085405E+02  0.59301942140E+02  0.49999996557E+02 0.  0.
        -12    1    1    2    0    0 -0.25657549314E+02 -0.14653348851E+02  0.11987085405E+02  0.31886057860E+02  0.00000000000E+00 0.  1.
         11    1    3    3    0    0  0.57522073556E+01  0.88313609527E+01  0.15161623324E+01  0.10647984514E+02  0.51100000000E-03 0. -1.
        -11    1    3    3    0    0  0.18853389427E+02  0.20600198569E+02  0.97017118168E+00  0.27942077702E+02  0.51100000000E-03 0.  1.
         12    1    3    3    0    0  0.10519525316E+01 -0.14778210670E+02 -0.14473418919E+02  0.20711879923E+02  0.00000000000E+00 0. -1.
</event>
<event>
 7    1  0.7444241E-013  0.5930184E+02  0.7816164E-02  0.1266605E+00
        -11   -1    0    0    0    0  0.00000000000E+00  0.00000000000E+00  0.45593999997E+02  0.45594000000E+02  0.51100000000E-03 0.  1.
         11   -1    0    0    0    0 -0.00000000000E+00 -0.00000000000E+00 -0.45593999997E+02  0.45594000000E+02  0.51100000000E-03 0. -1.
    9900012    2    1    2    0    0 -0.14653203381E+02 -0.24630658990E+02 -0.13976455933E+02  0.59301842313E+02  0.49999814496E+02 0.  0.
        -12    1    1    2    0    0  0.14653203381E+02  0.24630658990E+02  0.13976455933E+02  0.31886157687E+02  0.00000000000E+00 0.  1.
         11    1    3    3    0    0  0.16552296295E+02 -0.13096948326E+02 -0.10670270086E+02  0.23650861127E+02  0.51100000000E-03 0.  1.
        -11    1    3    3    0    0 -0.15170877781E+02 -0.24778912145E+01 -0.69644687931E+01  0.16875997847E+02  0.51100000000E-03 0. -1.
        -12    1    3    3    0    0 -0.16034621896E+02 -0.90558194496E+01  0.36582829467E+01  0.18774983339E+02  0.00000000000E+00 0.  1.
</event>
<event>
 7    1  0.7444241E-013  0.5930194E+02  0.7816164E-02  0.1266605E+00
        -11   -1    0    0    0    0  0.00000000000E+00  0.00000000000E+00  0.45593999997E+02  0.45594000000E+02  0.51100000000E-03 0.  1.
         11   -1    0    0    0    0 -0.00000000000E+00 -0.00000000000E+00 -0.45593999997E+02  0.45594000000E+02  0.51100000000E-03 0. -1.
    9900012    2    1    2    0    0  0.29103798919E+02 -0.43234528690E+00 -0.13019330840E+02  0.59301937066E+02  0.49999987303E+02 0.  0.
        -12    1    1    2    0    0 -0.29103798919E+02  0.43234528690E+00  0.13019330840E+02  0.31886062934E+02  0.00000000000E+00 0.  1.
         11    1    3    3    0    0 -0.96993006287E+01 -0.44816266552E+01  0.14980524708E+01  0.10789141376E+02  0.51100000000E-03 0. -1.
        -11    1    3    3    0    0 -0.19046430167E+01 -0.16646954924E+01  0.29174901498E+01  0.38614278627E+01  0.51100000000E-03 0.  1.
         12    1    3    3    0    0  0.40707742564E+02  0.57139768607E+01 -0.17434873460E+02  0.44651367827E+02  0.00000000000E+00 0. -1.
</event>
<event>
 7    1  0.7444241E-013  0.5930196E+02  0.7816164E-02  0.1266605E+00
        -11   -1    0    0    0    0  0.00000000000E+00  0.00000000000E+00  0.45593999997E+02  0.45594000000E+02  0.51100000000E-03 0. -1.
         11   -1    0    0    0    0 -0.00000000000E+00 -0.00000000000E+00 -0.45593999997E+02  0.45594000000E+02  0.51100000000E-03 0.  1.
    9900012    2    1    2    0    0 -0.15636263856E+02  0.27686600741E+02 -0.23830941251E+01  0.59301956884E+02  0.50000023447E+02 0.  0.
        -12    1    1    2    0    0  0.15636263856E+02 -0.27686600741E+02  0.23830941251E+01  0.31886043116E+02  0.00000000000E+00 0.  1.
         11    1    3    3    0    0 -0.52905024301E+01  0.91710550788E+01  0.30751184127E+01  0.11025154000E+02  0.51100000000E-03 0.  1.
        -11    1    3    3    0    0 -0.18236845479E+02  0.17227221514E+01  0.12720157113E+02  0.22301405828E+02  0.51100000000E-03 0. -1.
        -12    1    3    3    0    0  0.78910840535E+01  0.16792823511E+02 -0.18178369651E+02  0.25975397056E+02  0.00000000000E+00 0.  1.
</event>
<event>
 7    1  0.7444241E-013  0.5930194E+02  0.7816164E-02  0.1266605E+00
        -11   -1    0    0    0    0  0.00000000000E+00  0.00000000000E+00  0.45593999997E+02  0.45594000000E+02  0.51100000000E-03 0.  1.
         11   -1    0    0    0    0 -0.00000000000E+00 -0.00000000000E+00 -0.45593999997E+02  0.45594000000E+02  0.51100000000E-03 0. -1.
    9900012    2    1    2    0    0  0.14258785673E+02 -0.23768875418E+02 -0.15762250757E+02  0.59301937898E+02  0.49999988820E+02 0.  0.
        -12    1    1    2    0    0 -0.14258785673E+02  0.23768875418E+02  0.15762250757E+02  0.31886062102E+02  0.00000000000E+00 0.  1.
         11    1    3    3    0    0 -0.99481311354E+01 -0.10319591796E+02  0.82656443132E+01  0.16546303639E+02  0.51100000000E-03 0. -1.
        -11    1    3    3    0    0  0.49748252232E+01 -0.11816230592E+01  0.40902460852E+01  0.65479181694E+01  0.51100000000E-03 0.  1.
         12    1    3    3    0    0  0.19232091585E+02 -0.12267660562E+02 -0.28118141155E+02  0.36207716089E+02  0.00000000000E+00 0. -1.
</event>
<event>
 7    1  0.7444241E-013  0.5930193E+02  0.7816164E-02  0.1266605E+00
        -11   -1    0    0    0    0  0.00000000000E+00  0.00000000000E+00  0.45593999997E+02  0.45594000000E+02  0.51100000000E-03 0.  1.
         11   -1    0    0    0    0 -0.00000000000E+00 -0.00000000000E+00 -0.45593999997E+02  0.45594000000E+02  0.51100000000E-03 0. -1.
    9900012    2    1    2    0    0 -0.78300699434E+01  0.25266882537E+02 -0.17804381953E+02  0.59301931487E+02  0.49999977129E+02 0.  0.
        -12    1    1    2    0    0  0.78300699434E+01 -0.25266882537E+02  0.17804381953E+02  0.31886068513E+02  0.00000000000E+00 0.  1.
         11    1    3    3    0    0  0.44866351548E+01 -0.13457427859E+01 -0.27926115042E+01  0.54534024180E+01  0.51100000000E-03 0.  1.
        -11    1    3    3    0    0 -0.58466897962E+01 -0.21599104497E+01 -0.22561377425E+02  0.23406510767E+02  0.51100000000E-03 0. -1.
        -12    1    3    3    0    0 -0.64700153019E+01  0.28772535773E+02  0.75496069758E+01  0.30442018302E+02  0.00000000000E+00 0.  1.
</event>
<event>
 7    1  0.7444241E-013  0.5930191E+02  0.7816164E-02  0.1266605E+00
        -11   -1    0    0    0    0  0.00000000000E+00  0.00000000000E+00  0.45593999997E+02  0.45594000000E+02  0.51100000000E-03 0.  1.
         11   -1    0    0    0    0 -0.00000000000E+00 -0.00000000000E+00 -0.45593999997E+02  0.45594000000E+02  0.51100000000E-03 0. -1.
    9900012    2    1    2    0    0 -0.91918688159E+01 -0.24456716120E+02 -0.18278430137E+02  0.59301914885E+02  0.49999946851E+02 0.  0.
        -12    1    1    2    0    0  0.91918688159E+01  0.24456716120E+02  0.18278430137E+02  0.31886085115E+02  0.00000000000E+00 0.  1.
         11    1    3    3    0    0 -0.67335858675E+00  0.72044595353E+01 -0.99637516028E+00  0.73041366844E+01  0.51100000000E-03 0.  1.
        -11    1    3    3    0    0 -0.13942984421E+02 -0.25122159906E+02  0.40687073221E+01  0.29018685574E+02  0.51100000000E-03 0. -1.
         12    1    3    3    0    0  0.54244741920E+01 -0.65390157491E+01 -0.21350762298E+02  0.22979092627E+02  0.00000000000E+00 0. -1.
</event>
<event>
 7    1  0.7444241E-013  0.5930193E+02  0.7816164E-02  0.1266605E+00
        -11   -1    0    0    0    0  0.00000000000E+00  0.00000000000E+00  0.45593999997E+02  0.45594000000E+02  0.51100000000E-03 0. -1.
         11   -1    0    0    0    0 -0.00000000000E+00 -0.00000000000E+00 -0.45593999997E+02  0.45594000000E+02  0.51100000000E-03 0.  1.
    9900012    2    1    2    0    0 -0.25710474131E+02 -0.10197692343E+02  0.15865061779E+02  0.59301927893E+02  0.49999970574E+02 0.  0.
        -12    1    1    2    0    0  0.25710474131E+02  0.10197692343E+02 -0.15865061779E+02  0.31886072107E+02  0.00000000000E+00 0.  1.
         11    1    3    3    0    0 -0.51113813397E+00  0.75187098474E+01  0.18474047909E+01  0.77591987140E+01  0.51100000000E-03 0. -1.
        -11    1    3    3    0    0  0.65384938744E+00 -0.22443148876E+02  0.16978965296E+01  0.22516778264E+02  0.51100000000E-03 0.  1.
         12    1    3    3    0    0 -0.25853185385E+02  0.47267466853E+01  0.12319760458E+02  0.29025950915E+02  0.00000000000E+00 0. -1.
</event>
<event>
 7    1  0.7444241E-013  0.5930196E+02  0.7816164E-02  0.1266605E+00
        -11   -1    0    0    0    0  0.00000000000E+00  0.00000000000E+00  0.45593999997E+02  0.45594000000E+02  0.51100000000E-03 0.  1.
         11   -1    0    0    0    0 -0.00000000000E+00 -0.00000000000E+00 -0.45593999997E+02  0.45594000000E+02  0.51100000000E-03 0. -1.
    9900012    2    1    2    0    0 -0.24167906258E+02  0.68774073070E+01 -0.19629909989E+02  0.59301956182E+02  0.50000022167E+02 0.  0.
        -12    1    1    2    0    0  0.24167906258E+02 -0.68774073070E+01  0.19629909989E+02  0.31886043818E+02  0.00000000000E+00 0.  1.
         11    1    3    3    0    0 -0.16378962347E+02  0.66879751755E+01 -0.50388773823E+01  0.18395371838E+02  0.51100000000E-03 0. -1.
        -11    1    3    3    0    0 -0.58123767783E+01 -0.25960183325E+01  0.12273327209E+02  0.13825975410E+02  0.51100000000E-03 0.  1.
        -12    1    3    3    0    0 -0.19765671328E+01  0.27854504640E+01 -0.26864359816E+02  0.27080608934E+02  0.00000000000E+00 0.  1.
</event>
<event>
 7    1  0.7444241E-013  0.5930196E+02  0.7816164E-02  0.1266605E+00
        -11   -1    0    0    0    0  0.00000000000E+00  0.00000000000E+00  0.45593999997E+02  0.45594000000E+02  0.51100000000E-03 0.  1.
         11   -1    0    0    0    0 -0.00000000000E+00 -0.00000000000E+00 -0.45593999997E+02  0.45594000000E+02  0.51100000000E-03 0. -1.
    9900012    2    1    2    0    0 -0.23298427693E+02 -0.17762703764E+02 -0.12585285512E+02  0.59301956198E+02  0.50000022195E+02 0.  0.
        -12    1    1    2    0    0  0.23298427693E+02  0.17762703764E+02  0.12585285512E+02  0.31886043802E+02  0.00000000000E+00 0.  1.
         11    1    3    3    0    0 -0.62198710955E+01 -0.93159964672E+01 -0.16869169324E+02  0.20249529885E+02  0.51100000000E-03 0. -1.
        -11    1    3    3    0    0 -0.11494993565E+02  0.62382050725E+01 -0.11033138596E+02  0.17110821930E+02  0.51100000000E-03 0.  1.
         12    1    3    3    0    0 -0.55835630321E+01 -0.14684912369E+02  0.15317022408E+02  0.21941604382E+02  0.00000000000E+00 0. -1.
</event>
<event>
 7    1  0.7444241E-013  0.5930215E+02  0.7816164E-02  0.1266604E+00
        -11   -1    0    0    0    0  0.00000000000E+00  0.00000000000E+00  0.45593999997E+02  0.45594000000E+02  0.51100000000E-03 0.  1.
         11   -1    0    0    0    0 -0.00000000000E+00 -0.00000000000E+00 -0.45593999997E+02  0.45594000000E+02  0.51100000000E-03 0. -1.
    9900012    2    1    2    0    0  0.30301446454E+02 -0.44776808576E+01  0.88588971377E+01  0.59302151390E+02  0.50000378178E+02 0.  0.
        -12    1    1    2    0    0 -0.30301446454E+02  0.44776808576E+01 -0.88588971377E+01  0.31885848610E+02  0.00000000000E+00 0.  1.
         11    1    3    3    0    0  0.14663623808E+02  0.29960028792E+01 -0.84384760720E+01  0.17181553338E+02  0.51100000000E-03 0. -1.
        -11    1    3    3    0    0 -0.34748031746E+01 -0.14890415165E+02  0.15120459372E+02  0.21504116182E+02  0.51100000000E-03 0.  1.
         12    1    3    3    0    0  0.19112625820E+02  0.74167314285E+01  0.21769138381E+01  0.20616481870E+02  0.00000000000E+00 0. -1.
</event>
<event>
 7    1  0.7444241E-013  0.5930196E+02  0.7816164E-02  0.1266605E+00
        -11   -1    0    0    0    0  0.00000000000E+00  0.00000000000E+00  0.45593999997E+02  0.45594000000E+02  0.51100000000E-03 0.  1.
         11   -1    0    0    0    0 -0.00000000000E+00 -0.00000000000E+00 -0.45593999997E+02  0.45594000000E+02  0.51100000000E-03 0. -1.
    9900012    2    1    2    0    0 -0.53130694684E+01 -0.39514095495E+01 -0.31190975770E+02  0.59301963650E+02  0.50000035787E+02 0.  0.
        -12    1    1    2    0    0  0.53130694684E+01  0.39514095495E+01  0.31190975770E+02  0.31886036350E+02  0.00000000000E+00 0.  1.
         11    1    3    3    0    0  0.30556775468E+01  0.88489923674E+01 -0.15455914822E+02  0.18070061827E+02  0.51100000000E-03 0. -1.
        -11    1    3    3    0    0 -0.11456574728E+02  0.91923154462E+01 -0.13031974565E+01  0.14746189055E+02  0.51100000000E-03 0.  1.
         12    1    3    3    0    0  0.30878277132E+01 -0.21992717363E+02 -0.14431863492E+02  0.26485712768E+02  0.00000000000E+00 0. -1.
</event>
<event>
 7    1  0.7444241E-013  0.5930193E+02  0.7816164E-02  0.1266605E+00
        -11   -1    0    0    0    0  0.00000000000E+00  0.00000000000E+00  0.45593999997E+02  0.45594000000E+02  0.51100000000E-03 0. -1.
         11   -1    0    0    0    0 -0.00000000000E+00 -0.00000000000E+00 -0.45593999997E+02  0.45594000000E+02  0.51100000000E-03 0.  1.
    9900012    2    1    2    0    0 -0.30787917540E+02  0.81303326711E+01 -0.16502089024E+01  0.59301931487E+02  0.49999977129E+02 0.  0.
        -12    1    1    2    0    0  0.30787917540E+02 -0.81303326711E+01  0.16502089024E+01  0.31886068513E+02  0.00000000000E+00 0.  1.
         11    1    3    3    0    0  0.59975738930E+01  0.36248974377E+01  0.96536753323E+00  0.70740871334E+01  0.51100000000E-03 0. -1.
        -11    1    3    3    0    0  0.30814704991E+01  0.33804151539E+01  0.95012912950E+01  0.10545008468E+02  0.51100000000E-03 0.  1.
         12    1    3    3    0    0 -0.39866961932E+02  0.11250200795E+01 -0.12116867731E+02  0.41682835886E+02  0.00000000000E+00 0. -1.
</event>
<event>
 7    1  0.7444241E-013  0.5930191E+02  0.7816164E-02  0.1266605E+00
        -11   -1    0    0    0    0  0.00000000000E+00  0.00000000000E+00  0.45593999997E+02  0.45594000000E+02  0.51100000000E-03 0.  1.
         11   -1    0    0    0    0 -0.00000000000E+00 -0.00000000000E+00 -0.45593999997E+02  0.45594000000E+02  0.51100000000E-03 0. -1.
    9900012    2    1    2    0    0 -0.29093974790E+02  0.51416961983E+01 -0.11992748612E+02  0.59301914820E+02  0.49999946732E+02 0.  0.
        -12    1    1    2    0    0  0.29093974790E+02 -0.51416961983E+01  0.11992748612E+02  0.31886085180E+02  0.00000000000E+00 0.  1.
         11    1    3    3    0    0 -0.92076155554E-01 -0.55774618642E+01  0.77259885646E-01  0.55787568701E+01  0.51100000000E-03 0. -1.
        -11    1    3    3    0    0 -0.25187155700E+01  0.14923272227E+02  0.10708299218E+02  0.18539569965E+02  0.51100000000E-03 0.  1.
         12    1    3    3    0    0 -0.26483183064E+02 -0.42041141645E+01 -0.22778307715E+02  0.35183587985E+02  0.00000000000E+00 0. -1.
</event>
<event>
 7    1  0.7444241E-013  0.5930203E+02  0.7816164E-02  0.1266604E+00
        -11   -1    0    0    0    0  0.00000000000E+00  0.00000000000E+00  0.45593999997E+02  0.45594000000E+02  0.51100000000E-03 0.  1.
         11   -1    0    0    0    0 -0.00000000000E+00 -0.00000000000E+00 -0.45593999997E+02  0.45594000000E+02  0.51100000000E-03 0. -1.
    9900012    2    1    2    0    0 -0.16351198196E+02 -0.50576740556E+01 -0.26903040047E+02  0.59302026390E+02  0.50000150209E+02 0.  0.
        -12    1    1    2    0    0  0.16351198196E+02  0.50576740556E+01  0.26903040047E+02  0.31885973610E+02  0.00000000000E+00 0.  1.
         11    1    3    3    0    0 -0.14025848641E+02  0.87200759268E+01 -0.22890115117E+01  0.16673443803E+02  0.51100000000E-03 0. -1.
        -11    1    3    3    0    0 -0.18960587254E+01  0.89574843848E+01 -0.51214346179E-01  0.91561011552E+01  0.51100000000E-03 0.  1.
        -12    1    3    3    0    0 -0.42929082965E+00 -0.22735234367E+02 -0.24562814189E+02  0.33472481432E+02  0.00000000000E+00 0.  1.
</event>
<event>
 7    1  0.7444241E-013  0.5930174E+02  0.7816164E-02  0.1266605E+00
        -11   -1    0    0    0    0  0.00000000000E+00  0.00000000000E+00  0.45593999997E+02  0.45594000000E+02  0.51100000000E-03 0.  1.
         11   -1    0    0    0    0 -0.00000000000E+00 -0.00000000000E+00 -0.45593999997E+02  0.45594000000E+02  0.51100000000E-03 0. -1.
    9900012    2    1    2    0    0 -0.11756183700E+02  0.18249820811E+02 -0.23355292613E+02  0.59301741081E+02  0.49999629873E+02 0.  0.
        -12    1    1    2    0    0  0.11756183700E+02 -0.18249820811E+02  0.23355292613E+02  0.31886258919E+02  0.00000000000E+00 0.  1.
         11    1    3    3    0    0  0.38345515331E+01  0.17978814439E+01 -0.18288616315E+02  0.18772577077E+02  0.51100000000E-03 0. -1.
        -11    1    3    3    0    0 -0.23648713391E+01  0.22160600019E+02 -0.11116514323E+02  0.24905053716E+02  0.51100000000E-03 0.  1.
        -12    1    3    3    0    0 -0.13225863894E+02 -0.57086606516E+01  0.60498380247E+01  0.15624110289E+02  0.00000000000E+00 0.  1.
</event>
<event>
 7    1  0.7444241E-013  0.5930195E+02  0.7816164E-02  0.1266605E+00
        -11   -1    0    0    0    0  0.00000000000E+00  0.00000000000E+00  0.45593999997E+02  0.45594000000E+02  0.51100000000E-03 0. -1.
         11   -1    0    0    0    0 -0.00000000000E+00 -0.00000000000E+00 -0.45593999997E+02  0.45594000000E+02  0.51100000000E-03 0.  1.
    9900012    2    1    2    0    0  0.27585081618E+02  0.15848409152E+02 -0.21474651944E+01  0.59301946508E+02  0.50000004524E+02 0.  0.
        -12    1    1    2    0    0 -0.27585081618E+02 -0.15848409152E+02  0.21474651944E+01  0.31886053492E+02  0.00000000000E+00 0.  1.
         11    1    3    3    0    0  0.16472766925E+02  0.23707782835E+02  0.19828721164E+01  0.28936876113E+02  0.51100000000E-03 0. -1.
        -11    1    3    3    0    0  0.23240256242E+01  0.78861745312E+01 -0.84848692191E+01  0.11814645562E+02  0.51100000000E-03 0.  1.
         12    1    3    3    0    0  0.87882890696E+01 -0.15745548214E+02  0.43545319082E+01  0.18550424833E+02  0.00000000000E+00 0. -1.
</event>
<event>
 7    1  0.7444241E-013  0.5930192E+02  0.7816164E-02  0.1266605E+00
        -11   -1    0    0    0    0  0.00000000000E+00  0.00000000000E+00  0.45593999997E+02  0.45594000000E+02  0.51100000000E-03 0. -1.
         11   -1    0    0    0    0 -0.00000000000E+00 -0.00000000000E+00 -0.45593999997E+02  0.45594000000E+02  0.51100000000E-03 0.  1.
    9900012    2    1    2    0    0  0.24588364028E+02  0.19317567131E+02  0.62422760226E+01  0.59301920664E+02  0.49999957391E+02 0.  0.
        -12    1    1    2    0    0 -0.24588364028E+02 -0.19317567131E+02 -0.62422760226E+01  0.31886079336E+02  0.00000000000E+00 0.  1.
         11    1    3    3    0    0  0.28476317824E+01  0.44068979024E+01 -0.77440200015E+01  0.93541221894E+01  0.51100000000E-03 0. -1.
        -11    1    3    3    0    0 -0.22895005601E+01  0.11321197393E+02 -0.10386204078E+02  0.15533337009E+02  0.51100000000E-03 0.  1.
         12    1    3    3    0    0  0.24030232806E+02  0.35894718358E+01  0.24372500102E+02  0.34414461466E+02  0.00000000000E+00 0. -1.
</event>
<event>
 7    1  0.7444241E-013  0.5930203E+02  0.7816164E-02  0.1266604E+00
        -11   -1    0    0    0    0  0.00000000000E+00  0.00000000000E+00  0.45593999997E+02  0.45594000000E+02  0.51100000000E-03 0.  1.
         11   -1    0    0    0    0 -0.00000000000E+00 -0.00000000000E+00 -0.45593999997E+02  0.45594000000E+02  0.51100000000E-03 0. -1.
    9900012    2    1    2    0    0 -0.12837614314E+02  0.19536790580E+02 -0.21684656776E+02  0.59302033386E+02  0.50000162968E+02 0.  0.
        -12    1    1    2    0    0  0.12837614314E+02 -0.19536790580E+02  0.21684656776E+02  0.31885966614E+02  0.00000000000E+00 0.  1.
         11    1    3    3    0    0  0.17827186201E+01  0.61650436031E+00  0.99059991581E+01  0.10083996375E+02  0.51100000000E-03 0.  1.
        -11    1    3    3    0    0 -0.11278938359E+02  0.17196581452E+02 -0.34808823074E+01  0.20857933888E+02  0.51100000000E-03 0. -1.
        -12    1    3    3    0    0 -0.33413945745E+01  0.17237047670E+01 -0.28109773627E+02  0.28360103124E+02  0.00000000000E+00 0.  1.
</event>
<event>
 7    1  0.7444241E-013  0.5930196E+02  0.7816164E-02  0.1266605E+00
        -11   -1    0    0    0    0  0.00000000000E+00  0.00000000000E+00  0.45593999997E+02  0.45594000000E+02  0.51100000000E-03 0. -1.
         11   -1    0    0    0    0 -0.00000000000E+00 -0.00000000000E+00 -0.45593999997E+02  0.45594000000E+02  0.51100000000E-03 0.  1.
    9900012    2    1    2    0    0  0.18488050559E+02  0.22550479108E+02  0.12899118639E+02  0.59301962568E+02  0.50000033812E+02 0.  0.
        -12    1    1    2    0    0 -0.18488050559E+02 -0.22550479108E+02 -0.12899118639E+02  0.31886037432E+02  0.00000000000E+00 0.  1.
         11    1    3    3    0    0  0.13229552856E+02  0.16875838463E+02  0.87182032101E+01  0.23147830569E+02  0.51100000000E-03 0. -1.
        -11    1    3    3    0    0 -0.12065439992E+01 -0.13559822295E+02  0.75770534154E+01  0.15579995758E+02  0.51100000000E-03 0.  1.
         12    1    3    3    0    0  0.64650417031E+01  0.19234462940E+02 -0.33961379867E+01  0.20574136241E+02  0.00000000000E+00 0. -1.
</event>
<event>
 7    1  0.7444241E-013  0.5930194E+02  0.7816164E-02  0.1266605E+00
        -11   -1    0    0    0    0  0.00000000000E+00  0.00000000000E+00  0.45593999997E+02  0.45594000000E+02  0.51100000000E-03 0.  1.
         11   -1    0    0    0    0 -0.00000000000E+00 -0.00000000000E+00 -0.45593999997E+02  0.45594000000E+02  0.51100000000E-03 0. -1.
    9900012    2    1    2    0    0 -0.28325028110E+02 -0.81784013184E+01 -0.12146095299E+02  0.59301935699E+02  0.49999984811E+02 0.  0.
        -12    1    1    2    0    0  0.28325028110E+02  0.81784013184E+01  0.12146095299E+02  0.31886064301E+02  0.00000000000E+00 0.  1.
         11    1    3    3    0    0 -0.21944608771E+02 -0.22274802305E+01 -0.73695466002E+01  0.23255918379E+02  0.51100000000E-03 0. -1.
        -11    1    3    3    0    0  0.59458967571E+01  0.84820388710E+01 -0.11896599765E+02  0.15774275194E+02  0.51100000000E-03 0.  1.
         12    1    3    3    0    0 -0.12326316096E+02 -0.14432959959E+02  0.71200510661E+01  0.20271742127E+02  0.00000000000E+00 0. -1.
</event>
<event>
 7    1  0.7444241E-013  0.5930192E+02  0.7816164E-02  0.1266605E+00
        -11   -1    0    0    0    0  0.00000000000E+00  0.00000000000E+00  0.45593999997E+02  0.45594000000E+02  0.51100000000E-03 0. -1.
         11   -1    0    0    0    0 -0.00000000000E+00 -0.00000000000E+00 -0.45593999997E+02  0.45594000000E+02  0.51100000000E-03 0.  1.
    9900012    2    1    2    0    0  0.60109363010E+01 -0.17858648608E+02  0.25722746978E+02  0.59301915301E+02  0.49999947610E+02 0.  0.
        -12    1    1    2    0    0 -0.60109363010E+01  0.17858648608E+02 -0.25722746978E+02  0.31886084699E+02  0.00000000000E+00 0.  1.
         11    1    3    3    0    0  0.92570510936E+01  0.11549516960E+01  0.20273771904E+02  0.22317095148E+02  0.51100000000E-03 0. -1.
        -11    1    3    3    0    0  0.14683186778E+01  0.81447867830E+00  0.14562629922E+02  0.14659110674E+02  0.51100000000E-03 0.  1.
         12    1    3    3    0    0 -0.47144334704E+01 -0.19828078982E+02 -0.91136548475E+01  0.22325709479E+02  0.00000000000E+00 0. -1.
</event>
<event>
 7    1  0.7444241E-013  0.5930196E+02  0.7816164E-02  0.1266605E+00
        -11   -1    0    0    0    0  0.00000000000E+00  0.00000000000E+00  0.45593999997E+02  0.45594000000E+02  0.51100000000E-03 0.  1.
         11   -1    0    0    0    0 -0.00000000000E+00 -0.00000000000E+00 -0.45593999997E+02  0.45594000000E+02  0.51100000000E-03 0. -1.
    9900012    2    1    2    0    0 -0.53851055090E+01  0.30915618961E+02  0.56519694377E+01  0.59301958922E+02  0.50000027164E+02 0.  0.
        -12    1    1    2    0    0  0.53851055090E+01 -0.30915618961E+02 -0.56519694377E+01  0.31886041078E+02  0.00000000000E+00 0.  1.
         11    1    3    3    0    0  0.57436239822E+01  0.14450658588E+02 -0.32470868888E+01  0.15885664091E+02  0.51100000000E-03 0. -1.
        -11    1    3    3    0    0 -0.77962810112E+01 -0.37861252744E+01 -0.11552736285E+02  0.14442384087E+02  0.51100000000E-03 0.  1.
        -12    1    3    3    0    0 -0.33324484800E+01  0.20251085647E+02  0.20451792612E+02  0.28973910744E+02  0.00000000000E+00 0.  1.
</event>
<event>
 7    1  0.7444241E-013  0.5930195E+02  0.7816164E-02  0.1266605E+00
        -11   -1    0    0    0    0  0.00000000000E+00  0.00000000000E+00  0.45593999997E+02  0.45594000000E+02  0.51100000000E-03 0.  1.
         11   -1    0    0    0    0 -0.00000000000E+00 -0.00000000000E+00 -0.45593999997E+02  0.45594000000E+02  0.51100000000E-03 0. -1.
    9900012    2    1    2    0    0 -0.38588432006E+01  0.31610966199E+02 -0.16051835727E+01  0.59301945538E+02  0.50000002754E+02 0.  0.
        -12    1    1    2    0    0  0.38588432006E+01 -0.31610966199E+02  0.16051835727E+01  0.31886054462E+02  0.00000000000E+00 0.  1.
         11    1    3    3    0    0 -0.14656033717E+02  0.90837987776E+01 -0.69224186934E+01  0.18580489912E+02  0.51100000000E-03 0. -1.
        -11    1    3    3    0    0 -0.51822597614E+01  0.13684419675E+02  0.14219966132E+02  0.20404082805E+02  0.51100000000E-03 0.  1.
         12    1    3    3    0    0  0.15979450277E+02  0.88427477464E+01 -0.89027310110E+01  0.20317372821E+02  0.00000000000E+00 0. -1.
</event>
<event>
 7    1  0.7444241E-013  0.5930196E+02  0.7816164E-02  0.1266605E+00
        -11   -1    0    0    0    0  0.00000000000E+00  0.00000000000E+00  0.45593999997E+02  0.45594000000E+02  0.51100000000E-03 0. -1.
         11   -1    0    0    0    0 -0.00000000000E+00 -0.00000000000E+00 -0.45593999997E+02  0.45594000000E+02  0.51100000000E-03 0.  1.
    9900012    2    1    2    0    0 -0.21437939354E+02  0.23450847233E+02  0.26817640930E+01  0.59301963270E+02  0.50000035093E+02 0.  0.
        -12    1    1    2    0    0  0.21437939354E+02 -0.23450847233E+02 -0.26817640930E+01  0.31886036730E+02  0.00000000000E+00 0.  1.
         11    1    3    3    0    0 -0.15057031119E+02  0.45966379870E+01  0.35456695820E+01  0.16137380207E+02  0.51100000000E-03 0. -1.
        -11    1    3    3    0    0 -0.12537573222E+02 -0.78817085712E+01 -0.45265938566E+01  0.15485545663E+02  0.51100000000E-03 0.  1.
         12    1    3    3    0    0  0.61566649863E+01  0.26735917817E+02  0.36626883676E+01  0.27679037400E+02  0.00000000000E+00 0. -1.
</event>
<event>
 7    1  0.7444241E-013  0.5930192E+02  0.7816164E-02  0.1266605E+00
        -11   -1    0    0    0    0  0.00000000000E+00  0.00000000000E+00  0.45593999997E+02  0.45594000000E+02  0.51100000000E-03 0.  1.
         11   -1    0    0    0    0 -0.00000000000E+00 -0.00000000000E+00 -0.45593999997E+02  0.45594000000E+02  0.51100000000E-03 0. -1.
    9900012    2    1    2    0    0 -0.21213427213E+02  0.20349273743E+02 -0.12353937762E+02  0.59301918174E+02  0.49999952849E+02 0.  0.
        -12    1    1    2    0    0  0.21213427213E+02 -0.20349273743E+02  0.12353937762E+02  0.31886081826E+02  0.00000000000E+00 0.  1.
         11    1    3    3    0    0 -0.13068936500E+02  0.90260271361E-01 -0.21014971014E+02  0.24747409059E+02  0.51100000000E-03 0. -1.
        -11    1    3    3    0    0 -0.11444031398E+02  0.61506217679E+00 -0.24879851669E+01  0.11727498735E+02  0.51100000000E-03 0.  1.
        -12    1    3    3    0    0  0.32995406844E+01  0.19643951295E+02  0.11149018419E+02  0.22827010380E+02  0.00000000000E+00 0.  1.
</event>
<event>
 7    1  0.7444241E-013  0.5930193E+02  0.7816164E-02  0.1266605E+00
        -11   -1    0    0    0    0  0.00000000000E+00  0.00000000000E+00  0.45593999997E+02  0.45594000000E+02  0.51100000000E-03 0.  1.
         11   -1    0    0    0    0 -0.00000000000E+00 -0.00000000000E+00 -0.45593999997E+02  0.45594000000E+02  0.51100000000E-03 0. -1.
    9900012    2    1    2    0    0  0.28538525805E+02  0.87805364613E+01 -0.11188228089E+02  0.59301925870E+02  0.49999966884E+02 0.  0.
        -12    1    1    2    0    0 -0.28538525805E+02 -0.87805364613E+01  0.11188228089E+02  0.31886074130E+02  0.00000000000E+00 0.  1.
         11    1    3    3    0    0 -0.10363268231E+02 -0.41677801431E+01  0.33971361356E+00  0.11175111872E+02  0.51100000000E-03 0. -1.
        -11    1    3    3    0    0  0.22338018568E+01 -0.84029400927E+00 -0.85072655330E+01  0.88356964562E+01  0.51100000000E-03 0.  1.
        -12    1    3    3    0    0  0.36667992179E+02  0.13788610614E+02 -0.30206761700E+01  0.39291117541E+02  0.00000000000E+00 0.  1.
</event>
<event>
 7    1  0.7444241E-013  0.5930193E+02  0.7816164E-02  0.1266605E+00
        -11   -1    0    0    0    0  0.00000000000E+00  0.00000000000E+00  0.45593999997E+02  0.45594000000E+02  0.51100000000E-03 0. -1.
         11   -1    0    0    0    0 -0.00000000000E+00 -0.00000000000E+00 -0.45593999997E+02  0.45594000000E+02  0.51100000000E-03 0.  1.
    9900012    2    1    2    0    0  0.11479775229E+02  0.49540495255E+01  0.29332466698E+02  0.59301930180E+02  0.49999974745E+02 0.  0.
        -12    1    1    2    0    0 -0.11479775229E+02 -0.49540495255E+01 -0.29332466698E+02  0.31886069820E+02  0.00000000000E+00 0.  1.
         11    1    3    3    0    0  0.47025338391E+01 -0.36563001551E+01  0.24539780153E+02  0.25252389304E+02  0.51100000000E-03 0. -1.
        -11    1    3    3    0    0  0.14021396983E+02  0.28690525417E+01  0.14688566802E+02  0.20508169854E+02  0.51100000000E-03 0.  1.
         12    1    3    3    0    0 -0.72441555928E+01  0.57412971389E+01 -0.98958802568E+01  0.13541371022E+02  0.00000000000E+00 0. -1.
</event>
<event>
 7    1  0.7444241E-013  0.5930219E+02  0.7816164E-02  0.1266604E+00
        -11   -1    0    0    0    0  0.00000000000E+00  0.00000000000E+00  0.45593999997E+02  0.45594000000E+02  0.51100000000E-03 0.  1.
         11   -1    0    0    0    0 -0.00000000000E+00 -0.00000000000E+00 -0.45593999997E+02  0.45594000000E+02  0.51100000000E-03 0. -1.
    9900012    2    1    2    0    0  0.11775410228E+02 -0.22733870729E+02 -0.19005671463E+02  0.59302192622E+02  0.50000453375E+02 0.  0.
        -12    1    1    2    0    0 -0.11775410228E+02  0.22733870729E+02  0.19005671463E+02  0.31885807378E+02  0.00000000000E+00 0.  1.
         11    1    3    3    0    0  0.59643073625E+01 -0.13152361359E+02 -0.16753058291E+02  0.22118375482E+02  0.51100000000E-03 0. -1.
        -11    1    3    3    0    0  0.12977593797E+02 -0.17110939365E+02  0.76789570878E+01  0.22807204321E+02  0.51100000000E-03 0.  1.
        -12    1    3    3    0    0 -0.71664909316E+01  0.75294299947E+01 -0.99315702602E+01  0.14376612819E+02  0.00000000000E+00 0.  1.
</event>
<event>
 7    1  0.7444241E-013  0.5930205E+02  0.7816164E-02  0.1266604E+00
        -11   -1    0    0    0    0  0.00000000000E+00  0.00000000000E+00  0.45593999997E+02  0.45594000000E+02  0.51100000000E-03 0. -1.
         11   -1    0    0    0    0 -0.00000000000E+00 -0.00000000000E+00 -0.45593999997E+02  0.45594000000E+02  0.51100000000E-03 0.  1.
    9900012    2    1    2    0    0 -0.75583415225E+01  0.18184872261E+02  0.25077799346E+02  0.59302045008E+02  0.50000184164E+02 0.  0.
        -12    1    1    2    0    0  0.75583415225E+01 -0.18184872261E+02 -0.25077799346E+02  0.31885954992E+02  0.00000000000E+00 0.  1.
         11    1    3    3    0    0  0.19836739325E+00 -0.33599670270E+01 -0.68563383387E+00  0.34349413474E+01  0.51100000000E-03 0. -1.
        -11    1    3    3    0    0  0.82722233732E+01  0.21256617290E+02  0.31455436439E+02  0.38855088985E+02  0.51100000000E-03 0.  1.
         12    1    3    3    0    0 -0.16028932289E+02  0.28822199705E+00 -0.56920032589E+01  0.17012014676E+02  0.00000000000E+00 0. -1.
</event>
<event>
 7    1  0.7444241E-013  0.5930201E+02  0.7816164E-02  0.1266605E+00
        -11   -1    0    0    0    0  0.00000000000E+00  0.00000000000E+00  0.45593999997E+02  0.45594000000E+02  0.51100000000E-03 0.  1.
         11   -1    0    0    0    0 -0.00000000000E+00 -0.00000000000E+00 -0.45593999997E+02  0.45594000000E+02  0.51100000000E-03 0. -1.
    9900012    2    1    2    0    0  0.11886849187E+02 -0.28595342164E+02  0.75977320317E+01  0.59302010772E+02  0.50000121725E+02 0.  0.
        -12    1    1    2    0    0 -0.11886849187E+02  0.28595342164E+02 -0.75977320317E+01  0.31885989228E+02  0.00000000000E+00 0.  1.
         11    1    3    3    0    0  0.31242474087E+01  0.25014628232E+00 -0.11250829670E+01  0.33300611071E+01  0.51100000000E-03 0. -1.
        -11    1    3    3    0    0  0.63872112553E+01  0.30194543009E+01 -0.14729193860E+02  0.16335933519E+02  0.51100000000E-03 0.  1.
         12    1    3    3    0    0  0.23753905231E+01 -0.31864942747E+02  0.23452008859E+02  0.39636016146E+02  0.00000000000E+00 0. -1.
</event>
<event>
 7    1  0.7444241E-013  0.5930199E+02  0.7816164E-02  0.1266605E+00
        -11   -1    0    0    0    0  0.00000000000E+00  0.00000000000E+00  0.45593999997E+02  0.45594000000E+02  0.51100000000E-03 0. -1.
         11   -1    0    0    0    0 -0.00000000000E+00 -0.00000000000E+00 -0.45593999997E+02  0.45594000000E+02  0.51100000000E-03 0.  1.
    9900012    2    1    2    0    0  0.73153093397E+01 -0.10824813699E+02  0.29086547526E+02  0.59301990696E+02  0.50000085112E+02 0.  0.
        -12    1    1    2    0    0 -0.73153093397E+01  0.10824813699E+02 -0.29086547526E+02  0.31886009304E+02  0.00000000000E+00 0.  1.
         11    1    3    3    0    0 -0.67369724669E+01 -0.66718512225E+01  0.24062562171E+02  0.25863242164E+02  0.51100000000E-03 0. -1.
        -11    1    3    3    0    0 -0.79759271340E+01 -0.17106654603E+01 -0.44996153255E+01  0.93160253489E+01  0.51100000000E-03 0.  1.
         12    1    3    3    0    0  0.22028208941E+02 -0.24422970159E+01  0.95236006801E+01  0.24122723183E+02  0.00000000000E+00 0. -1.
</event>
<event>
 7    1  0.7444241E-013  0.5930195E+02  0.7816164E-02  0.1266605E+00
        -11   -1    0    0    0    0  0.00000000000E+00  0.00000000000E+00  0.45593999997E+02  0.45594000000E+02  0.51100000000E-03 0. -1.
         11   -1    0    0    0    0 -0.00000000000E+00 -0.00000000000E+00 -0.45593999997E+02  0.45594000000E+02  0.51100000000E-03 0.  1.
    9900012    2    1    2    0    0 -0.28036707753E+02  0.96886974912E+01  0.11695832386E+02  0.59301947627E+02  0.50000006565E+02 0.  0.
        -12    1    1    2    0    0  0.28036707753E+02 -0.96886974912E+01 -0.11695832386E+02  0.31886052373E+02  0.00000000000E+00 0.  1.
         11    1    3    3    0    0 -0.72645160652E+01 -0.12634001929E+02  0.13491868423E+02  0.19860053178E+02  0.51100000000E-03 0. -1.
        -11    1    3    3    0    0 -0.39510611382E+01  0.10462244762E+02  0.10605352150E+02  0.15412428233E+02  0.51100000000E-03 0.  1.
         12    1    3    3    0    0 -0.16821130550E+02  0.11860454659E+02 -0.12401388187E+02  0.24029466216E+02  0.00000000000E+00 0. -1.
</event>
<event>
 7    1  0.7444241E-013  0.5930194E+02  0.7816164E-02  0.1266605E+00
        -11   -1    0    0    0    0  0.00000000000E+00  0.00000000000E+00  0.45593999997E+02  0.45594000000E+02  0.51100000000E-03 0.  1.
         11   -1    0    0    0    0 -0.00000000000E+00 -0.00000000000E+00 -0.45593999997E+02  0.45594000000E+02  0.51100000000E-03 0. -1.
    9900012    2    1    2    0    0  0.69516489716E+01  0.44741966477E+01 -0.30795729832E+02  0.59301939802E+02  0.49999992294E+02 0.  0.
        -12    1    1    2    0    0 -0.69516489716E+01 -0.44741966477E+01  0.30795729832E+02  0.31886060198E+02  0.00000000000E+00 0.  1.
         11    1    3    3    0    0  0.68239553457E+01 -0.39080673515E+01  0.25466115340E+01  0.82658688321E+01  0.51100000000E-03 0. -1.
        -11    1    3    3    0    0 -0.59728226478E+01  0.28751801086E+01  0.71313437484E+01  0.97363922968E+01  0.51100000000E-03 0.  1.
         12    1    3    3    0    0  0.61005162737E+01  0.55070838906E+01 -0.40473685114E+02  0.41299678673E+02  0.00000000000E+00 0. -1.
</event>
<event>
 7    1  0.7444241E-013  0.5930194E+02  0.7816164E-02  0.1266605E+00
        -11   -1    0    0    0    0  0.00000000000E+00  0.00000000000E+00  0.45593999997E+02  0.45594000000E+02  0.51100000000E-03 0. -1.
         11   -1    0    0    0    0 -0.00000000000E+00 -0.00000000000E+00 -0.45593999997E+02  0.45594000000E+02  0.51100000000E-03 0.  1.
    9900012    2    1    2    0    0  0.21685818622E+02  0.18926261141E+02 -0.13720165849E+02  0.59301936571E+02  0.49999986400E+02 0.  0.
        -12    1    1    2    0    0 -0.21685818622E+02 -0.18926261141E+02  0.13720165849E+02  0.31886063429E+02  0.00000000000E+00 0.  1.
         11    1    3    3    0    0  0.22602792559E+02  0.73725971287E+01 -0.11721179077E+01  0.23803682080E+02  0.51100000000E-03 0. -1.
        -11    1    3    3    0    0  0.56787279131E+01 -0.92908193925E+01 -0.14667048040E+01  0.10987197046E+02  0.51100000000E-03 0.  1.
         12    1    3    3    0    0 -0.65957018505E+01  0.20844483405E+02 -0.11081343137E+02  0.24511057445E+02  0.00000000000E+00 0. -1.
</event>
<event>
 7    1  0.7444241E-013  0.5930197E+02  0.7816164E-02  0.1266605E+00
        -11   -1    0    0    0    0  0.00000000000E+00  0.00000000000E+00  0.45593999997E+02  0.45594000000E+02  0.51100000000E-03 0. -1.
         11   -1    0    0    0    0 -0.00000000000E+00 -0.00000000000E+00 -0.45593999997E+02  0.45594000000E+02  0.51100000000E-03 0.  1.
    9900012    2    1    2    0    0 -0.38453665369E+01 -0.67289322059E+01  0.30929821005E+02  0.59301965442E+02  0.50000039054E+02 0.  0.
        -12    1    1    2    0    0  0.38453665369E+01  0.67289322059E+01 -0.30929821005E+02  0.31886034558E+02  0.00000000000E+00 0.  1.
         11    1    3    3    0    0  0.20242393480E+02 -0.53252667444E+01  0.17422922054E+02  0.27233640463E+02  0.51100000000E-03 0. -1.
        -11    1    3    3    0    0 -0.22633416380E+01 -0.10258467864E+01 -0.35731778687E+01  0.43523186168E+01  0.51100000000E-03 0.  1.
        -12    1    3    3    0    0 -0.21824418379E+02 -0.37781867508E+00  0.17080076820E+02  0.27716006363E+02  0.00000000000E+00 0.  1.
</event>
<event>
 7    1  0.7444241E-013  0.5930195E+02  0.7816164E-02  0.1266605E+00
        -11   -1    0    0    0    0  0.00000000000E+00  0.00000000000E+00  0.45593999997E+02  0.45594000000E+02  0.51100000000E-03 0. -1.
         11   -1    0    0    0    0 -0.00000000000E+00 -0.00000000000E+00 -0.45593999997E+02  0.45594000000E+02  0.51100000000E-03 0.  1.
    9900012    2    1    2    0    0  0.27356157320E+02 -0.96525677820E+01  0.13235882376E+02  0.59301953046E+02  0.50000016446E+02 0.  0.
        -12    1    1    2    0    0 -0.27356157320E+02  0.96525677820E+01 -0.13235882376E+02  0.31886046954E+02  0.00000000000E+00 0.  1.
         11    1    3    3    0    0 -0.60731474550E+00  0.13264943721E+02  0.24389422263E+01  0.13500963024E+02  0.51100000000E-03 0. -1.
        -11    1    3    3    0    0  0.74268571477E+00 -0.16166635723E+02  0.14922483767E+01  0.16252338236E+02  0.51100000000E-03 0.  1.
        -12    1    3    3    0    0  0.27220786351E+02 -0.67508757800E+01  0.93046917732E+01  0.29548651786E+02  0.00000000000E+00 0.  1.
</event>
<event>
 7    1  0.7444241E-013  0.5930196E+02  0.7816164E-02  0.1266605E+00
        -11   -1    0    0    0    0  0.00000000000E+00  0.00000000000E+00  0.45593999997E+02  0.45594000000E+02  0.51100000000E-03 0.  1.
         11   -1    0    0    0    0 -0.00000000000E+00 -0.00000000000E+00 -0.45593999997E+02  0.45594000000E+02  0.51100000000E-03 0. -1.
    9900012    2    1    2    0    0 -0.13894782673E+02  0.18053788386E+02 -0.22309533227E+02  0.59301960211E+02  0.50000029514E+02 0.  0.
        -12    1    1    2    0    0  0.13894782673E+02 -0.18053788386E+02  0.22309533227E+02  0.31886039789E+02  0.00000000000E+00 0.  1.
         11    1    3    3    0    0 -0.12050396935E+02 -0.80775980841E+01 -0.19587608398E+02  0.24374865336E+02  0.51100000000E-03 0. -1.
        -11    1    3    3    0    0  0.36019768649E+01  0.46742717036E+01 -0.10010666737E+02  0.11620520731E+02  0.51100000000E-03 0.  1.
        -12    1    3    3    0    0 -0.54463626029E+01  0.21457114767E+02  0.72887419082E+01  0.23306574144E+02  0.00000000000E+00 0.  1.
</event>
<event>
 7    1  0.7444241E-013  0.5930192E+02  0.7816164E-02  0.1266605E+00
        -11   -1    0    0    0    0  0.00000000000E+00  0.00000000000E+00  0.45593999997E+02  0.45594000000E+02  0.51100000000E-03 0.  1.
         11   -1    0    0    0    0 -0.00000000000E+00 -0.00000000000E+00 -0.45593999997E+02  0.45594000000E+02  0.51100000000E-03 0. -1.
    9900012    2    1    2    0    0  0.26897077202E+02  0.52616176153E+01 -0.16296764571E+02  0.59301922827E+02  0.49999961336E+02 0.  0.
        -12    1    1    2    0    0 -0.26897077202E+02 -0.52616176153E+01  0.16296764571E+02  0.31886077173E+02  0.00000000000E+00 0.  1.
         11    1    3    3    0    0 -0.66333188141E+01 -0.56775628720E+00 -0.43421217664E+01  0.79484141429E+01  0.51100000000E-03 0. -1.
        -11    1    3    3    0    0 -0.30337559881E+01 -0.48314624714E+00 -0.13863116752E+02  0.14199405341E+02  0.51100000000E-03 0.  1.
        -12    1    3    3    0    0  0.36564152005E+02  0.63125201497E+01  0.19084739474E+01  0.37154103344E+02  0.00000000000E+00 0.  1.
</event>
<event>
 7    1  0.7444241E-013  0.5930196E+02  0.7816164E-02  0.1266605E+00
        -11   -1    0    0    0    0  0.00000000000E+00  0.00000000000E+00  0.45593999997E+02  0.45594000000E+02  0.51100000000E-03 0.  1.
         11   -1    0    0    0    0 -0.00000000000E+00 -0.00000000000E+00 -0.45593999997E+02  0.45594000000E+02  0.51100000000E-03 0. -1.
    9900012    2    1    2    0    0 -0.26249784603E+02 -0.18074725399E+02 -0.98638253779E+00  0.59301955396E+02  0.50000020733E+02 0.  0.
        -12    1    1    2    0    0  0.26249784603E+02  0.18074725399E+02  0.98638253779E+00  0.31886044604E+02  0.00000000000E+00 0.  1.
         11    1    3    3    0    0 -0.77726395457E+01 -0.18516047130E+02 -0.15413971753E+02  0.25314984738E+02  0.51100000000E-03 0. -1.
        -11    1    3    3    0    0 -0.91567861930E+01 -0.46881880855E+01 -0.53010527254E+01  0.11572683404E+02  0.51100000000E-03 0.  1.
        -12    1    3    3    0    0 -0.93203588646E+01  0.51295098162E+01  0.19728641940E+02  0.22414287255E+02  0.00000000000E+00 0.  1.
</event>
<event>
 7    1  0.7444241E-013  0.5930191E+02  0.7816164E-02  0.1266605E+00
        -11   -1    0    0    0    0  0.00000000000E+00  0.00000000000E+00  0.45593999997E+02  0.45594000000E+02  0.51100000000E-03 0.  1.
         11   -1    0    0    0    0 -0.00000000000E+00 -0.00000000000E+00 -0.45593999997E+02  0.45594000000E+02  0.51100000000E-03 0. -1.
    9900012    2    1    2    0    0  0.17811295367E+02 -0.19186369076E+01 -0.26378010424E+02  0.59301908296E+02  0.49999934834E+02 0.  0.
        -12    1    1    2    0    0 -0.17811295367E+02  0.19186369076E+01  0.26378010424E+02  0.31886091704E+02  0.00000000000E+00 0.  1.
         11    1    3    3    0    0  0.96303205344E+01  0.10213765791E+02 -0.39679177792E+01  0.14587955888E+02  0.51100000000E-03 0. -1.
        -11    1    3    3    0    0  0.19873985881E+02 -0.99312837410E+01 -0.36738456430E+01  0.22518944327E+02  0.51100000000E-03 0.  1.
         12    1    3    3    0    0 -0.11693011048E+02 -0.22011189574E+01 -0.18736247001E+02  0.22195008081E+02  0.00000000000E+00 0. -1.
</event>
<event>
 7    1  0.7444241E-013  0.5930193E+02  0.7816164E-02  0.1266605E+00
        -11   -1    0    0    0    0  0.00000000000E+00  0.00000000000E+00  0.45593999997E+02  0.45594000000E+02  0.51100000000E-03 0.  1.
         11   -1    0    0    0    0 -0.00000000000E+00 -0.00000000000E+00 -0.45593999997E+02  0.45594000000E+02  0.51100000000E-03 0. -1.
    9900012    2    1    2    0    0 -0.29108567462E+02 -0.12379042688E+02 -0.40214845532E+01  0.59301925679E+02  0.49999966537E+02 0.  0.
        -12    1    1    2    0    0  0.29108567462E+02  0.12379042688E+02  0.40214845532E+01  0.31886074321E+02  0.00000000000E+00 0.  1.
         11    1    3    3    0    0 -0.61366213975E+01 -0.61005077853E+01 -0.13631714085E+02  0.16146143396E+02  0.51100000000E-03 0. -1.
        -11    1    3    3    0    0 -0.16341415059E+02 -0.42558045423E+01 -0.11833084448E+02  0.20619786765E+02  0.51100000000E-03 0.  1.
        -12    1    3    3    0    0 -0.66305310060E+01 -0.20227303601E+01  0.21443313980E+02  0.22535995518E+02  0.00000000000E+00 0.  1.
</event>
<event>
 7    1  0.7444241E-013  0.5930197E+02  0.7816164E-02  0.1266605E+00
        -11   -1    0    0    0    0  0.00000000000E+00  0.00000000000E+00  0.45593999997E+02  0.45594000000E+02  0.51100000000E-03 0. -1.
         11   -1    0    0    0    0 -0.00000000000E+00 -0.00000000000E+00 -0.45593999997E+02  0.45594000000E+02  0.51100000000E-03 0.  1.
    9900012    2    1    2    0    0  0.48604603084E+01  0.29664372656E+02  0.10635785973E+02  0.59301968219E+02  0.50000044119E+02 0.  0.
        -12    1    1    2    0    0 -0.48604603084E+01 -0.29664372656E+02 -0.10635785973E+02  0.31886031781E+02  0.00000000000E+00 0.  1.
         11    1    3    3    0    0  0.41456189782E+01  0.96331836291E+01 -0.43799248661E+01  0.11365215600E+02  0.51100000000E-03 0.  1.
        -11    1    3    3    0    0  0.42923227967E+01  0.21513977110E+02  0.27319701528E+02  0.35037713081E+02  0.51100000000E-03 0. -1.
         12    1    3    3    0    0 -0.35774814664E+01 -0.14827880834E+01 -0.12303990688E+02  0.12899039538E+02  0.00000000000E+00 0. -1.
</event>
<event>
 7    1  0.7444241E-013  0.5930194E+02  0.7816164E-02  0.1266605E+00
        -11   -1    0    0    0    0  0.00000000000E+00  0.00000000000E+00  0.45593999997E+02  0.45594000000E+02  0.51100000000E-03 0. -1.
         11   -1    0    0    0    0 -0.00000000000E+00 -0.00000000000E+00 -0.45593999997E+02  0.45594000000E+02  0.51100000000E-03 0.  1.
    9900012    2    1    2    0    0 -0.10512114923E+02  0.88152817356E+01  0.28783796434E+02  0.59301942084E+02  0.49999996456E+02 0.  0.
        -12    1    1    2    0    0  0.10512114923E+02 -0.88152817356E+01 -0.28783796434E+02  0.31886057916E+02  0.00000000000E+00 0.  1.
         11    1    3    3    0    0 -0.76461418676E+01  0.24346921495E+01  0.17065823016E+01  0.82038792492E+01  0.51100000000E-03 0. -1.
        -11    1    3    3    0    0 -0.19842211882E+02 -0.27399085563E+01  0.24514568467E+02  0.31657298347E+02  0.51100000000E-03 0.  1.
         12    1    3    3    0    0  0.16976238827E+02  0.91204981425E+01  0.25626456658E+01  0.19440764488E+02  0.00000000000E+00 0. -1.
</event>
<event>
 7    1  0.7444241E-013  0.5930195E+02  0.7816164E-02  0.1266605E+00
        -11   -1    0    0    0    0  0.00000000000E+00  0.00000000000E+00  0.45593999997E+02  0.45594000000E+02  0.51100000000E-03 0. -1.
         11   -1    0    0    0    0 -0.00000000000E+00 -0.00000000000E+00 -0.45593999997E+02  0.45594000000E+02  0.51100000000E-03 0.  1.
    9900012    2    1    2    0    0  0.42475310832E+01 -0.29568945180E+02  0.11151507536E+02  0.59301950391E+02  0.50000011605E+02 0.  0.
        -12    1    1    2    0    0 -0.42475310832E+01  0.29568945180E+02 -0.11151507536E+02  0.31886049609E+02  0.00000000000E+00 0.  1.
         11    1    3    3    0    0 -0.53049892470E+00 -0.18614032632E+02  0.19382499803E+02  0.26878335864E+02  0.51100000000E-03 0. -1.
        -11    1    3    3    0    0  0.10279463576E+02 -0.47267811405E+01  0.82253969197E+01  0.13988101591E+02  0.51100000000E-03 0.  1.
        -12    1    3    3    0    0 -0.55014335681E+01 -0.62281314071E+01 -0.16456389187E+02  0.18435512936E+02  0.00000000000E+00 0.  1.
</event>
<event>
 7    1  0.7444241E-013  0.5930196E+02  0.7816164E-02  0.1266605E+00
        -11   -1    0    0    0    0  0.00000000000E+00  0.00000000000E+00  0.45593999997E+02  0.45594000000E+02  0.51100000000E-03 0.  1.
         11   -1    0    0    0    0 -0.00000000000E+00 -0.00000000000E+00 -0.45593999997E+02  0.45594000000E+02  0.51100000000E-03 0. -1.
    9900012    2    1    2    0    0  0.62038713222E+01 -0.29041677350E+02 -0.11610879083E+02  0.59301959861E+02  0.50000028876E+02 0.  0.
        -12    1    1    2    0    0 -0.62038713222E+01  0.29041677350E+02  0.11610879083E+02  0.31886040139E+02  0.00000000000E+00 0.  1.
         11    1    3    3    0    0  0.52322144704E+00 -0.35291445509E+01 -0.70043661514E+01  0.78606467538E+01  0.51100000000E-03 0. -1.
        -11    1    3    3    0    0 -0.13981727685E+02 -0.27498514919E+02  0.11094073606E+01  0.30868881042E+02  0.51100000000E-03 0.  1.
         12    1    3    3    0    0  0.19662377560E+02  0.19859821199E+01 -0.57159202921E+01  0.20572432066E+02  0.00000000000E+00 0. -1.
</event>
<event>
 7    1  0.7444241E-013  0.5930189E+02  0.7816164E-02  0.1266605E+00
        -11   -1    0    0    0    0  0.00000000000E+00  0.00000000000E+00  0.45593999997E+02  0.45594000000E+02  0.51100000000E-03 0.  1.
         11   -1    0    0    0    0 -0.00000000000E+00 -0.00000000000E+00 -0.45593999997E+02  0.45594000000E+02  0.51100000000E-03 0. -1.
    9900012    2    1    2    0    0  0.62134585022E+01 -0.83496688714E+01 -0.30139670793E+02  0.59301893428E+02  0.49999907718E+02 0.  0.
        -12    1    1    2    0    0 -0.62134585022E+01  0.83496688714E+01  0.30139670793E+02  0.31886106572E+02  0.00000000000E+00 0.  1.
         11    1    3    3    0    0  0.25929155552E+01 -0.35616020150E+01  0.34644517524E+01  0.56045201575E+01  0.51100000000E-03 0. -1.
        -11    1    3    3    0    0  0.87227499287E+01  0.64182044825E+01  0.58904418236E+01  0.12327896018E+02  0.51100000000E-03 0.  1.
         12    1    3    3    0    0 -0.51022069816E+01 -0.11206271339E+02 -0.39494564369E+02  0.41369477252E+02  0.00000000000E+00 0. -1.
</event>
<event>
 7    1  0.7444241E-013  0.5930196E+02  0.7816164E-02  0.1266605E+00
        -11   -1    0    0    0    0  0.00000000000E+00  0.00000000000E+00  0.45593999997E+02  0.45594000000E+02  0.51100000000E-03 0. -1.
         11   -1    0    0    0    0 -0.00000000000E+00 -0.00000000000E+00 -0.45593999997E+02  0.45594000000E+02  0.51100000000E-03 0.  1.
    9900012    2    1    2    0    0 -0.13940329642E+02 -0.25274588271E+02  0.13549250030E+02  0.59301956357E+02  0.50000022486E+02 0.  0.
        -12    1    1    2    0    0  0.13940329642E+02  0.25274588271E+02 -0.13549250030E+02  0.31886043643E+02  0.00000000000E+00 0.  1.
         11    1    3    3    0    0  0.92250250529E+01 -0.19494132130E+02  0.14974012474E+02  0.26255348494E+02  0.51100000000E-03 0. -1.
        -11    1    3    3    0    0 -0.18915131742E+02 -0.80776480268E+01  0.83067503198E+01  0.22181810287E+02  0.51100000000E-03 0.  1.
        -12    1    3    3    0    0 -0.42502229524E+01  0.22971918852E+01 -0.97315127634E+01  0.10864797576E+02  0.00000000000E+00 0.  1.
</event>
<event>
 7    1  0.7444241E-013  0.5930192E+02  0.7816164E-02  0.1266605E+00
        -11   -1    0    0    0    0  0.00000000000E+00  0.00000000000E+00  0.45593999997E+02  0.45594000000E+02  0.51100000000E-03 0. -1.
         11   -1    0    0    0    0 -0.00000000000E+00 -0.00000000000E+00 -0.45593999997E+02  0.45594000000E+02  0.51100000000E-03 0.  1.
    9900012    2    1    2    0    0  0.31874602846E+02  0.68427905226E+00 -0.51326165555E+00  0.59301921816E+02  0.49999959492E+02 0.  0.
        -12    1    1    2    0    0 -0.31874602846E+02 -0.68427905226E+00  0.51326165555E+00  0.31886078184E+02  0.00000000000E+00 0.  1.
         11    1    3    3    0    0  0.35298661897E+02 -0.95378239308E+01  0.10377191150E+02  0.38008574211E+02  0.51100000000E-03 0. -1.
        -11    1    3    3    0    0 -0.23482718799E+01 -0.54591283003E+00  0.28952214479E+01  0.37675866458E+01  0.51100000000E-03 0.  1.
        -12    1    3    3    0    0 -0.10757871715E+01  0.10768015813E+02 -0.13785674254E+02  0.17525760960E+02  0.00000000000E+00 0.  1.
</event>
<event>
 7    1  0.7444241E-013  0.5930193E+02  0.7816164E-02  0.1266605E+00
        -11   -1    0    0    0    0  0.00000000000E+00  0.00000000000E+00  0.45593999997E+02  0.45594000000E+02  0.51100000000E-03 0.  1.
         11   -1    0    0    0    0 -0.00000000000E+00 -0.00000000000E+00 -0.45593999997E+02  0.45594000000E+02  0.51100000000E-03 0. -1.
    9900012    2    1    2    0    0 -0.19341049002E+02 -0.11102817933E+02 -0.22789745966E+02  0.59301933078E+02  0.49999980031E+02 0.  0.
        -12    1    1    2    0    0  0.19341049002E+02  0.11102817933E+02  0.22789745966E+02  0.31886066922E+02  0.00000000000E+00 0.  1.
         11    1    3    3    0    0 -0.18457452209E+02 -0.48652246183E+00  0.27279713048E+01  0.18664299447E+02  0.51100000000E-03 0. -1.
        -11    1    3    3    0    0 -0.93319895684E+01  0.35436982359E+01  0.31952187977E+00  0.99872879695E+01  0.51100000000E-03 0.  1.
         12    1    3    3    0    0  0.84483927756E+01 -0.14159993707E+02 -0.25837239150E+02  0.30650345662E+02  0.00000000000E+00 0. -1.
</event>
<event>
 7    1  0.7444241E-013  0.5930198E+02  0.7816164E-02  0.1266605E+00
        -11   -1    0    0    0    0  0.00000000000E+00  0.00000000000E+00  0.45593999997E+02  0.45594000000E+02  0.51100000000E-03 0. -1.
         11   -1    0    0    0    0 -0.00000000000E+00 -0.00000000000E+00 -0.45593999997E+02  0.45594000000E+02  0.51100000000E-03 0.  1.
    9900012    2    1    2    0    0  0.11402420350E+02 -0.18324607931E+02  0.23471511761E+02  0.59301979395E+02  0.50000064501E+02 0.  0.
        -12    1    1    2    0    0 -0.11402420350E+02  0.18324607931E+02 -0.23471511761E+02  0.31886020605E+02  0.00000000000E+00 0.  1.
         11    1    3    3    0    0  0.10229293921E+02  0.13534360501E+02 -0.32256310433E+01  0.17269107220E+02  0.51100000000E-03 0.  1.
        -11    1    3    3    0    0 -0.90841156902E+00 -0.11711554361E+02  0.13318574756E+02  0.17758664108E+02  0.51100000000E-03 0. -1.
        -12    1    3    3    0    0  0.20815379987E+01 -0.20147414071E+02  0.13378568049E+02  0.24274208066E+02  0.00000000000E+00 0.  1.
</event>
<event>
 7    1  0.7444241E-013  0.5930194E+02  0.7816164E-02  0.1266605E+00
        -11   -1    0    0    0    0  0.00000000000E+00  0.00000000000E+00  0.45593999997E+02  0.45594000000E+02  0.51100000000E-03 0.  1.
         11   -1    0    0    0    0 -0.00000000000E+00 -0.00000000000E+00 -0.45593999997E+02  0.45594000000E+02  0.51100000000E-03 0. -1.
    9900012    2    1    2    0    0 -0.27265764579E+02  0.13198386834E+02  0.99549572141E+01  0.59301944957E+02  0.50000001694E+02 0.  0.
        -12    1    1    2    0    0  0.27265764579E+02 -0.13198386834E+02 -0.99549572141E+01  0.31886055043E+02  0.00000000000E+00 0.  1.
         11    1    3    3    0    0 -0.53021761856E+01  0.20220791310E+02  0.44721587082E+01  0.21377410444E+02  0.51100000000E-03 0. -1.
        -11    1    3    3    0    0 -0.25257927349E+01  0.34425965757E+01 -0.10058226824E+02  0.10926986192E+02  0.51100000000E-03 0.  1.
         12    1    3    3    0    0 -0.19437795658E+02 -0.10465001051E+02  0.15541025330E+02  0.26997548321E+02  0.00000000000E+00 0. -1.
</event>
<event>
 7    1  0.7444241E-013  0.5930195E+02  0.7816164E-02  0.1266605E+00
        -11   -1    0    0    0    0  0.00000000000E+00  0.00000000000E+00  0.45593999997E+02  0.45594000000E+02  0.51100000000E-03 0. -1.
         11   -1    0    0    0    0 -0.00000000000E+00 -0.00000000000E+00 -0.45593999997E+02  0.45594000000E+02  0.51100000000E-03 0.  1.
    9900012    2    1    2    0    0 -0.17252946765E+01  0.14113379209E+01  0.31808045627E+02  0.59301948456E+02  0.50000008076E+02 0.  0.
        -12    1    1    2    0    0  0.17252946765E+01 -0.14113379209E+01 -0.31808045627E+02  0.31886051544E+02  0.00000000000E+00 0.  1.
         11    1    3    3    0    0  0.43021939453E+00  0.45158278512E+01  0.93542084934E+01  0.10396105363E+02  0.51100000000E-03 0.  1.
        -11    1    3    3    0    0 -0.10242329161E+00  0.84647253884E+01  0.32414737813E+02  0.33501899859E+02  0.51100000000E-03 0. -1.
        -12    1    3    3    0    0 -0.20530907794E+01 -0.11569215319E+02 -0.99609006785E+01  0.15403943234E+02  0.00000000000E+00 0.  1.
</event>
<event>
 7    1  0.7444241E-013  0.5930195E+02  0.7816164E-02  0.1266605E+00
        -11   -1    0    0    0    0  0.00000000000E+00  0.00000000000E+00  0.45593999997E+02  0.45594000000E+02  0.51100000000E-03 0.  1.
         11   -1    0    0    0    0 -0.00000000000E+00 -0.00000000000E+00 -0.45593999997E+02  0.45594000000E+02  0.51100000000E-03 0. -1.
    9900012    2    1    2    0    0 -0.85475756579E+01  0.30301561594E+02  0.50472551891E+01  0.59301945531E+02  0.50000002741E+02 0.  0.
        -12    1    1    2    0    0  0.85475756579E+01 -0.30301561594E+02 -0.50472551891E+01  0.31886054469E+02  0.00000000000E+00 0.  1.
         11    1    3    3    0    0  0.33633245149E+01  0.74190779235E+01 -0.11362190559E+02  0.13980487960E+02  0.51100000000E-03 0.  1.
        -11    1    3    3    0    0 -0.25963612083E+01  0.78840419762E+01 -0.10346967725E+02  0.13264951970E+02  0.51100000000E-03 0. -1.
        -12    1    3    3    0    0 -0.93145389644E+01  0.14998441694E+02  0.26756413474E+02  0.32056505601E+02  0.00000000000E+00 0.  1.
</event>
<event>
 7    1  0.7444241E-013  0.5930194E+02  0.7816164E-02  0.1266605E+00
        -11   -1    0    0    0    0  0.00000000000E+00  0.00000000000E+00  0.45593999997E+02  0.45594000000E+02  0.51100000000E-03 0.  1.
         11   -1    0    0    0    0 -0.00000000000E+00 -0.00000000000E+00 -0.45593999997E+02  0.45594000000E+02  0.51100000000E-03 0. -1.
    9900012    2    1    2    0    0 -0.20264202689E+02 -0.16453330629E+02 -0.18313127616E+02  0.59301942820E+02  0.49999997797E+02 0.  0.
        -12    1    1    2    0    0  0.20264202689E+02  0.16453330629E+02  0.18313127616E+02  0.31886057180E+02  0.00000000000E+00 0.  1.
         11    1    3    3    0    0 -0.32362133746E+01 -0.92857487941E-01 -0.28312381622E+02  0.28496888477E+02  0.51100000000E-03 0. -1.
        -11    1    3    3    0    0  0.34838815501E+00  0.30581306067E+01  0.97470757557E+00  0.32285588478E+01  0.51100000000E-03 0.  1.
         12    1    3    3    0    0 -0.17376377470E+02 -0.19418603748E+02  0.90245464303E+01  0.27576495494E+02  0.00000000000E+00 0. -1.
</event>
<event>
 7    1  0.7444241E-013  0.5930191E+02  0.7816164E-02  0.1266605E+00
        -11   -1    0    0    0    0  0.00000000000E+00  0.00000000000E+00  0.45593999997E+02  0.45594000000E+02  0.51100000000E-03 0. -1.
         11   -1    0    0    0    0 -0.00000000000E+00 -0.00000000000E+00 -0.45593999997E+02  0.45594000000E+02  0.51100000000E-03 0.  1.
    9900012    2    1    2    0    0 -0.67804934401E+01 -0.76625111578E+01  0.30199898206E+02  0.59301905536E+02  0.49999929800E+02 0.  0.
        -12    1    1    2    0    0  0.67804934401E+01  0.76625111578E+01 -0.30199898206E+02  0.31886094464E+02  0.00000000000E+00 0.  1.
         11    1    3    3    0    0 -0.61027479609E+01  0.15372447336E+01  0.38406269500E+02  0.38918481358E+02  0.51100000000E-03 0. -1.
        -11    1    3    3    0    0 -0.41315936542E+01  0.34807986385E+01 -0.13897745544E+01  0.55783060922E+01  0.51100000000E-03 0.  1.
        -12    1    3    3    0    0  0.34538481750E+01 -0.12680554530E+02 -0.68165967405E+01  0.14805118085E+02  0.00000000000E+00 0.  1.
</event>
<event>
 7    1  0.7444241E-013  0.5930194E+02  0.7816164E-02  0.1266605E+00
        -11   -1    0    0    0    0  0.00000000000E+00  0.00000000000E+00  0.45593999997E+02  0.45594000000E+02  0.51100000000E-03 0. -1.
         11   -1    0    0    0    0 -0.00000000000E+00 -0.00000000000E+00 -0.45593999997E+02  0.45594000000E+02  0.51100000000E-03 0.  1.
    9900012    2    1    2    0    0 -0.14085981240E+02  0.26256298712E+02  0.11353974251E+02  0.59301940023E+02  0.49999992697E+02 0.  0.
        -12    1    1    2    0    0  0.14085981240E+02 -0.26256298712E+02 -0.11353974251E+02  0.31886059977E+02  0.00000000000E+00 0.  1.
         11    1    3    3    0    0 -0.12241779615E+02  0.65046532837E+01  0.10759223819E+02  0.17548007863E+02  0.51100000000E-03 0. -1.
        -11    1    3    3    0    0 -0.19793916173E+01 -0.10323834016E+02  0.44829108421E+01  0.11427861998E+02  0.51100000000E-03 0.  1.
         12    1    3    3    0    0  0.13518999274E+00  0.30075479444E+02 -0.38881604100E+01  0.30326070163E+02  0.00000000000E+00 0. -1.
</event>
<event>
 7    1  0.7444241E-013  0.5930194E+02  0.7816164E-02  0.1266605E+00
        -11   -1    0    0    0    0  0.00000000000E+00  0.00000000000E+00  0.45593999997E+02  0.45594000000E+02  0.51100000000E-03 0. -1.
         11   -1    0    0    0    0 -0.00000000000E+00 -0.00000000000E+00 -0.45593999997E+02  0.45594000000E+02  0.51100000000E-03 0.  1.
    9900012    2    1    2    0    0 -0.31484875472E+02 -0.48769373325E+01 -0.12802311743E+01  0.59301938890E+02  0.49999990631E+02 0.  0.
        -12    1    1    2    0    0  0.31484875472E+02  0.48769373325E+01  0.12802311743E+01  0.31886061110E+02  0.00000000000E+00 0.  1.
         11    1    3    3    0    0 -0.19688273831E+02 -0.16166822221E+02  0.97393011690E+01  0.27273581626E+02  0.51100000000E-03 0. -1.
        -11    1    3    3    0    0  0.20670665429E+01 -0.68813317721E+01 -0.20116709302E+01  0.74613880239E+01  0.51100000000E-03 0.  1.
        -12    1    3    3    0    0 -0.13863668184E+02  0.18171216661E+02 -0.90078614131E+01  0.24566969241E+02  0.00000000000E+00 0.  1.
</event>
<event>
 7    1  0.7444241E-013  0.5930197E+02  0.7816164E-02  0.1266605E+00
        -11   -1    0    0    0    0  0.00000000000E+00  0.00000000000E+00  0.45593999997E+02  0.45594000000E+02  0.51100000000E-03 0.  1.
         11   -1    0    0    0    0 -0.00000000000E+00 -0.00000000000E+00 -0.45593999997E+02  0.45594000000E+02  0.51100000000E-03 0. -1.
    9900012    2    1    2    0    0  0.21021225459E+02  0.52622663230E+01 -0.23390929983E+02  0.59301969013E+02  0.50000045566E+02 0.  0.
        -12    1    1    2    0    0 -0.21021225459E+02 -0.52622663230E+01  0.23390929983E+02  0.31886030987E+02  0.00000000000E+00 0.  1.
         11    1    3    3    0    0  0.69679492463E+01 -0.11540307585E+02 -0.35673774055E+01  0.13944791059E+02  0.51100000000E-03 0. -1.
        -11    1    3    3    0    0  0.44361181951E+01 -0.54940876363E+00 -0.24557753162E+02  0.24961254681E+02  0.51100000000E-03 0.  1.
        -12    1    3    3    0    0  0.96171580177E+01  0.17351982672E+02  0.47342005842E+01  0.20395923273E+02  0.00000000000E+00 0.  1.
</event>
<event>
 7    1  0.7444241E-013  0.5930194E+02  0.7816164E-02  0.1266605E+00
        -11   -1    0    0    0    0  0.00000000000E+00  0.00000000000E+00  0.45593999997E+02  0.45594000000E+02  0.51100000000E-03 0. -1.
         11   -1    0    0    0    0 -0.00000000000E+00 -0.00000000000E+00 -0.45593999997E+02  0.45594000000E+02  0.51100000000E-03 0.  1.
    9900012    2    1    2    0    0  0.14843928362E+02  0.27559600555E+02  0.60701658387E+01  0.59301941835E+02  0.49999996001E+02 0.  0.
        -12    1    1    2    0    0 -0.14843928362E+02 -0.27559600555E+02 -0.60701658387E+01  0.31886058165E+02  0.00000000000E+00 0.  1.
         11    1    3    3    0    0  0.23943022961E+02  0.95504416505E+01  0.13992335491E+02  0.29330269979E+02  0.51100000000E-03 0. -1.
        -11    1    3    3    0    0  0.29516923821E+01  0.33875908825E+01  0.52388220647E+01  0.69017039051E+01  0.51100000000E-03 0.  1.
        -12    1    3    3    0    0 -0.12050786981E+02  0.14621568022E+02 -0.13160991717E+02  0.23069967951E+02  0.00000000000E+00 0.  1.
</event>
<event>
 7    1  0.7444241E-013  0.5930200E+02  0.7816164E-02  0.1266605E+00
        -11   -1    0    0    0    0  0.00000000000E+00  0.00000000000E+00  0.45593999997E+02  0.45594000000E+02  0.51100000000E-03 0. -1.
         11   -1    0    0    0    0 -0.00000000000E+00 -0.00000000000E+00 -0.45593999997E+02  0.45594000000E+02  0.51100000000E-03 0.  1.
    9900012    2    1    2    0    0  0.24050861788E+02  0.20930100418E+02 -0.45191742902E+00  0.59301995459E+02  0.50000093797E+02 0.  0.
        -12    1    1    2    0    0 -0.24050861788E+02 -0.20930100418E+02  0.45191742902E+00  0.31886004541E+02  0.00000000000E+00 0.  1.
         11    1    3    3    0    0 -0.10261171123E+02 -0.84019459703E+00 -0.78385785367E+00  0.10325308381E+02  0.51100000000E-03 0.  1.
        -11    1    3    3    0    0  0.29521374250E+01  0.15775891268E+02 -0.45398927946E+01  0.16679463047E+02  0.51100000000E-03 0. -1.
         12    1    3    3    0    0  0.31359895486E+02  0.59944037471E+01  0.48718332192E+01  0.32297224030E+02  0.00000000000E+00 0. -1.
</event>
<event>
 7    1  0.7444241E-013  0.5930230E+02  0.7816164E-02  0.1266604E+00
        -11   -1    0    0    0    0  0.00000000000E+00  0.00000000000E+00  0.45593999997E+02  0.45594000000E+02  0.51100000000E-03 0.  1.
         11   -1    0    0    0    0 -0.00000000000E+00 -0.00000000000E+00 -0.45593999997E+02  0.45594000000E+02  0.51100000000E-03 0. -1.
    9900012    2    1    2    0    0  0.55495240662E+01 -0.22020921184E+02 -0.22382582130E+02  0.59302295210E+02  0.50000640469E+02 0.  0.
        -12    1    1    2    0    0 -0.55495240662E+01  0.22020921184E+02  0.22382582130E+02  0.31885704790E+02  0.00000000000E+00 0.  1.
         11    1    3    3    0    0 -0.16305936997E+02  0.24540004027E+00 -0.12655332063E+02  0.20642219658E+02  0.51100000000E-03 0. -1.
        -11    1    3    3    0    0  0.11476726113E+02  0.72658973098E+00  0.32484288819E+00  0.11504290420E+02  0.51100000000E-03 0.  1.
        -12    1    3    3    0    0  0.10378734950E+02 -0.22992910955E+02 -0.10052092955E+02  0.27155785132E+02  0.00000000000E+00 0.  1.
</event>
<event>
 7    1  0.7444241E-013  0.5930195E+02  0.7816164E-02  0.1266605E+00
        -11   -1    0    0    0    0  0.00000000000E+00  0.00000000000E+00  0.45593999997E+02  0.45594000000E+02  0.51100000000E-03 0.  1.
         11   -1    0    0    0    0 -0.00000000000E+00 -0.00000000000E+00 -0.45593999997E+02  0.45594000000E+02  0.51100000000E-03 0. -1.
    9900012    2    1    2    0    0  0.25073978449E+02 -0.14338921456E+02 -0.13505968774E+02  0.59301948876E+02  0.50000008842E+02 0.  0.
        -12    1    1    2    0    0 -0.25073978449E+02  0.14338921456E+02  0.13505968774E+02  0.31886051124E+02  0.00000000000E+00 0.  1.
         11    1    3    3    0    0  0.26042092974E+01  0.12257822398E+02 -0.44398532602E+00  0.12539267890E+02  0.51100000000E-03 0.  1.
        -11    1    3    3    0    0  0.27029097518E+02 -0.12231519107E+02 -0.10523585486E+02  0.31479009261E+02  0.51100000000E-03 0. -1.
        -12    1    3    3    0    0 -0.45593283664E+01 -0.14365224747E+02 -0.25383979615E+01  0.15283671725E+02  0.00000000000E+00 0.  1.
</event>
<event>
 7    1  0.7444241E-013  0.5930190E+02  0.7816164E-02  0.1266605E+00
        -11   -1    0    0    0    0  0.00000000000E+00  0.00000000000E+00  0.45593999997E+02  0.45594000000E+02  0.51100000000E-03 0. -1.
         11   -1    0    0    0    0 -0.00000000000E+00 -0.00000000000E+00 -0.45593999997E+02  0.45594000000E+02  0.51100000000E-03 0.  1.
    9900012    2    1    2    0    0  0.18070815746E+02 -0.12286759584E+02  0.23220778873E+02  0.59301899357E+02  0.49999918531E+02 0.  0.
        -12    1    1    2    0    0 -0.18070815746E+02  0.12286759584E+02 -0.23220778873E+02  0.31886100643E+02  0.00000000000E+00 0.  1.
         11    1    3    3    0    0 -0.81079692876E+01 -0.48825702795E+01  0.49009677468E+01  0.10658242989E+02  0.51100000000E-03 0. -1.
        -11    1    3    3    0    0  0.10588342227E+02 -0.21271166324E+02  0.13111422363E+02  0.27138255370E+02  0.51100000000E-03 0.  1.
        -12    1    3    3    0    0  0.15590442806E+02  0.13866977019E+02  0.52083887625E+01  0.21505400997E+02  0.00000000000E+00 0.  1.
</event>
<event>
 7    1  0.7444241E-013  0.5930196E+02  0.7816164E-02  0.1266605E+00
        -11   -1    0    0    0    0  0.00000000000E+00  0.00000000000E+00  0.45593999997E+02  0.45594000000E+02  0.51100000000E-03 0.  1.
         11   -1    0    0    0    0 -0.00000000000E+00 -0.00000000000E+00 -0.45593999997E+02  0.45594000000E+02  0.51100000000E-03 0. -1.
    9900012    2    1    2    0    0  0.20368887570E+02 -0.23882236189E+02  0.56095463273E+01  0.59301956090E+02  0.50000021999E+02 0.  0.
        -12    1    1    2    0    0 -0.20368887570E+02  0.23882236189E+02 -0.56095463273E+01  0.31886043910E+02  0.00000000000E+00 0.  1.
         11    1    3    3    0    0 -0.13162857445E+01 -0.68038367819E+01 -0.84111904003E+01  0.10898299286E+02  0.51100000000E-03 0. -1.
        -11    1    3    3    0    0 -0.97792710342E+01  0.50152625303E+00  0.17650793988E+00  0.97937135887E+01  0.51100000000E-03 0.  1.
         12    1    3    3    0    0  0.31464444348E+02 -0.17579925660E+02  0.13844228788E+02  0.38609943215E+02  0.00000000000E+00 0. -1.
</event>
<event>
 7    1  0.7444241E-013  0.5930192E+02  0.7816164E-02  0.1266605E+00
        -11   -1    0    0    0    0  0.00000000000E+00  0.00000000000E+00  0.45593999997E+02  0.45594000000E+02  0.51100000000E-03 0. -1.
         11   -1    0    0    0    0 -0.00000000000E+00 -0.00000000000E+00 -0.45593999997E+02  0.45594000000E+02  0.51100000000E-03 0.  1.
    9900012    2    1    2    0    0 -0.20259752691E+02  0.20017411008E+02 -0.14337643784E+02  0.59301916016E+02  0.49999948913E+02 0.  0.
        -12    1    1    2    0    0  0.20259752691E+02 -0.20017411008E+02  0.14337643784E+02  0.31886083984E+02  0.00000000000E+00 0.  1.
         11    1    3    3    0    0 -0.16894459351E+02  0.10020439114E+02 -0.17907726010E+02  0.26580417753E+02  0.51100000000E-03 0. -1.
        -11    1    3    3    0    0 -0.91399646463E+01 -0.87188563619E+01  0.36015823539E+01  0.13135022105E+02  0.51100000000E-03 0.  1.
        -12    1    3    3    0    0  0.57746713065E+01  0.18715828256E+02 -0.31500127164E-01  0.19586476157E+02  0.00000000000E+00 0.  1.
</event>
<event>
 7    1  0.7444241E-013  0.5930194E+02  0.7816164E-02  0.1266605E+00
        -11   -1    0    0    0    0  0.00000000000E+00  0.00000000000E+00  0.45593999997E+02  0.45594000000E+02  0.51100000000E-03 0.  1.
         11   -1    0    0    0    0 -0.00000000000E+00 -0.00000000000E+00 -0.45593999997E+02  0.45594000000E+02  0.51100000000E-03 0. -1.
    9900012    2    1    2    0    0  0.12641389208E+02  0.25624918988E+02 -0.14152021332E+02  0.59301938750E+02  0.49999990375E+02 0.  0.
        -12    1    1    2    0    0 -0.12641389208E+02 -0.25624918988E+02  0.14152021332E+02  0.31886061250E+02  0.00000000000E+00 0.  1.
         11    1    3    3    0    0  0.18356330859E+01  0.14159213923E+02 -0.14277205806E+02  0.20191371762E+02  0.51100000000E-03 0. -1.
        -11    1    3    3    0    0  0.18872426040E+02  0.19331339716E+02  0.37499397838E+01  0.27275102355E+02  0.51100000000E-03 0.  1.
        -12    1    3    3    0    0 -0.80666699177E+01 -0.78656346510E+01 -0.36247553093E+01  0.11835464633E+02  0.00000000000E+00 0.  1.
</event>
<event>
 7    1  0.7444241E-013  0.5930192E+02  0.7816164E-02  0.1266605E+00
        -11   -1    0    0    0    0  0.00000000000E+00  0.00000000000E+00  0.45593999997E+02  0.45594000000E+02  0.51100000000E-03 0.  1.
         11   -1    0    0    0    0 -0.00000000000E+00 -0.00000000000E+00 -0.45593999997E+02  0.45594000000E+02  0.51100000000E-03 0. -1.
    9900012    2    1    2    0    0  0.10920207729E+02 -0.28534915483E+02 -0.91230507487E+01  0.59301915364E+02  0.49999947725E+02 0.  0.
        -12    1    1    2    0    0 -0.10920207729E+02  0.28534915483E+02  0.91230507487E+01  0.31886084636E+02  0.00000000000E+00 0.  1.
         11    1    3    3    0    0  0.72160613459E+01 -0.23627386752E+02 -0.18257080218E+02  0.30718820362E+02  0.51100000000E-03 0. -1.
        -11    1    3    3    0    0  0.91701406851E+01 -0.13643451974E+02  0.33879255143E+01  0.16784317129E+02  0.51100000000E-03 0.  1.
        -12    1    3    3    0    0 -0.54659943025E+01  0.87359232432E+01  0.57461039554E+01  0.11798777873E+02  0.00000000000E+00 0.  1.
</event>
<event>
 7    1  0.7444241E-013  0.5930196E+02  0.7816164E-02  0.1266605E+00
        -11   -1    0    0    0    0  0.00000000000E+00  0.00000000000E+00  0.45593999997E+02  0.45594000000E+02  0.51100000000E-03 0.  1.
         11   -1    0    0    0    0 -0.00000000000E+00 -0.00000000000E+00 -0.45593999997E+02  0.45594000000E+02  0.51100000000E-03 0. -1.
    9900012    2    1    2    0    0  0.29454066251E+02 -0.44202883973E+00 -0.12205832947E+02  0.59301956562E+02  0.50000022860E+02 0.  0.
        -12    1    1    2    0    0 -0.29454066251E+02  0.44202883973E+00  0.12205832947E+02  0.31886043438E+02  0.00000000000E+00 0.  1.
         11    1    3    3    0    0  0.87248325424E+01  0.40612672393E+01 -0.21539659087E+02  0.23591810196E+02  0.51100000000E-03 0. -1.
        -11    1    3    3    0    0 -0.17542364047E+01  0.81514966652E+01  0.19884673403E+00  0.83404906049E+01  0.51100000000E-03 0.  1.
        -12    1    3    3    0    0  0.22483470113E+02 -0.12654792744E+02  0.91349794063E+01  0.27369655761E+02  0.00000000000E+00 0.  1.
</event>
<event>
 7    1  0.7444241E-013  0.5930189E+02  0.7816164E-02  0.1266605E+00
        -11   -1    0    0    0    0  0.00000000000E+00  0.00000000000E+00  0.45593999997E+02  0.45594000000E+02  0.51100000000E-03 0. -1.
         11   -1    0    0    0    0 -0.00000000000E+00 -0.00000000000E+00 -0.45593999997E+02  0.45594000000E+02  0.51100000000E-03 0.  1.
    9900012    2    1    2    0    0 -0.25502205776E+02 -0.12769233838E+02 -0.14258618806E+02  0.59301889505E+02  0.49999900563E+02 0.  0.
        -12    1    1    2    0    0  0.25502205776E+02  0.12769233838E+02  0.14258618806E+02  0.31886110495E+02  0.00000000000E+00 0.  1.
         11    1    3    3    0    0 -0.10146643030E+02  0.34653806938E+01  0.10591560266E+02  0.15071309740E+02  0.51100000000E-03 0. -1.
        -11    1    3    3    0    0 -0.36428745277E+01  0.39164304010E+01  0.43319353751E+01  0.68829227996E+01  0.51100000000E-03 0.  1.
         12    1    3    3    0    0 -0.11712688218E+02 -0.20151044933E+02 -0.29182114447E+02  0.37347656965E+02  0.00000000000E+00 0. -1.
</event>
<event>
 7    1  0.7444241E-013  0.5930195E+02  0.7816164E-02  0.1266605E+00
        -11   -1    0    0    0    0  0.00000000000E+00  0.00000000000E+00  0.45593999997E+02  0.45594000000E+02  0.51100000000E-03 0.  1.
         11   -1    0    0    0    0 -0.00000000000E+00 -0.00000000000E+00 -0.45593999997E+02  0.45594000000E+02  0.51100000000E-03 0. -1.
    9900012    2    1    2    0    0 -0.29815231857E+02  0.36586437737E+01 -0.10695154380E+02  0.59301952077E+02  0.50000014679E+02 0.  0.
        -12    1    1    2    0    0  0.29815231857E+02 -0.36586437737E+01  0.10695154380E+02  0.31886047923E+02  0.00000000000E+00 0.  1.
         11    1    3    3    0    0  0.10755321172E+02 -0.11156487697E+01 -0.19598884189E+01  0.10989211463E+02  0.51100000000E-03 0. -1.
        -11    1    3    3    0    0 -0.49737758119E+01  0.26224446706E+01  0.72977385553E+01  0.92126353537E+01  0.51100000000E-03 0.  1.
         12    1    3    3    0    0 -0.35596777217E+02  0.21518478727E+01 -0.16033004517E+02  0.39100105260E+02  0.00000000000E+00 0. -1.
</event>
<event>
 7    1  0.7444241E-013  0.5930193E+02  0.7816164E-02  0.1266605E+00
        -11   -1    0    0    0    0  0.00000000000E+00  0.00000000000E+00  0.45593999997E+02  0.45594000000E+02  0.51100000000E-03 0. -1.
         11   -1    0    0    0    0 -0.00000000000E+00 -0.00000000000E+00 -0.45593999997E+02  0.45594000000E+02  0.51100000000E-03 0.  1.
    9900012    2    1    2    0    0 -0.14354707703E+02 -0.26756797739E+02  0.97333245110E+01  0.59301929930E+02  0.49999974289E+02 0.  0.
        -12    1    1    2    0    0  0.14354707703E+02  0.26756797739E+02 -0.97333245110E+01  0.31886070070E+02  0.00000000000E+00 0.  1.
         11    1    3    3    0    0  0.47906609749E+01 -0.67972836232E+01  0.84561952896E+01  0.11860047903E+02  0.51100000000E-03 0. -1.
        -11    1    3    3    0    0  0.20975265261E+01  0.41701618299E+01 -0.11835210386E+02  0.12722502598E+02  0.51100000000E-03 0.  1.
        -12    1    3    3    0    0 -0.21242895204E+02 -0.24129675945E+02  0.13112339608E+02  0.34719379428E+02  0.00000000000E+00 0.  1.
</event>
<event>
 7    1  0.7444241E-013  0.5930198E+02  0.7816164E-02  0.1266605E+00
        -11   -1    0    0    0    0  0.00000000000E+00  0.00000000000E+00  0.45593999997E+02  0.45594000000E+02  0.51100000000E-03 0.  1.
         11   -1    0    0    0    0 -0.00000000000E+00 -0.00000000000E+00 -0.45593999997E+02  0.45594000000E+02  0.51100000000E-03 0. -1.
    9900012    2    1    2    0    0 -0.28007886868E+02 -0.15237267218E+02 -0.32005811347E+00  0.59301976788E+02  0.50000059747E+02 0.  0.
        -12    1    1    2    0    0  0.28007886868E+02  0.15237267218E+02  0.32005811347E+00  0.31886023212E+02  0.00000000000E+00 0.  1.
         11    1    3    3    0    0  0.81934018930E+01 -0.14144540308E+02 -0.36090042116E+01  0.16739915375E+02  0.51100000000E-03 0.  1.
        -11    1    3    3    0    0 -0.94661945224E+01 -0.89505875875E+01 -0.42339948369E+01  0.13698487852E+02  0.51100000000E-03 0. -1.
         12    1    3    3    0    0 -0.26735094239E+02  0.78578606778E+01  0.75229409350E+01  0.28863573561E+02  0.00000000000E+00 0. -1.
</event>
<event>
 7    1  0.7444241E-013  0.5930197E+02  0.7816164E-02  0.1266605E+00
        -11   -1    0    0    0    0  0.00000000000E+00  0.00000000000E+00  0.45593999997E+02  0.45594000000E+02  0.51100000000E-03 0. -1.
         11   -1    0    0    0    0 -0.00000000000E+00 -0.00000000000E+00 -0.45593999997E+02  0.45594000000E+02  0.51100000000E-03 0.  1.
    9900012    2    1    2    0    0 -0.43033027905E+01 -0.29448784401E+02 -0.11444196747E+02  0.59301969253E+02  0.50000046005E+02 0.  0.
        -12    1    1    2    0    0  0.43033027905E+01  0.29448784401E+02  0.11444196747E+02  0.31886030747E+02  0.00000000000E+00 0.  1.
         11    1    3    3    0    0  0.14533843799E+02 -0.19888119303E+02 -0.19252769565E+02  0.31264021513E+02  0.51100000000E-03 0. -1.
        -11    1    3    3    0    0 -0.49923518616E+01  0.39090992949E+01 -0.16187171254E+01  0.65440721115E+01  0.51100000000E-03 0.  1.
         12    1    3    3    0    0 -0.13844794728E+02 -0.13469764393E+02  0.94272899435E+01  0.21493875629E+02  0.00000000000E+00 0. -1.
</event>
<event>
 7    1  0.7444241E-013  0.5930197E+02  0.7816164E-02  0.1266605E+00
        -11   -1    0    0    0    0  0.00000000000E+00  0.00000000000E+00  0.45593999997E+02  0.45594000000E+02  0.51100000000E-03 0. -1.
         11   -1    0    0    0    0 -0.00000000000E+00 -0.00000000000E+00 -0.45593999997E+02  0.45594000000E+02  0.51100000000E-03 0.  1.
    9900012    2    1    2    0    0  0.22744757808E+02 -0.19167733999E+02  0.11488827905E+02  0.59301965423E+02  0.50000039020E+02 0.  0.
        -12    1    1    2    0    0 -0.22744757808E+02  0.19167733999E+02 -0.11488827905E+02  0.31886034577E+02  0.00000000000E+00 0.  1.
         11    1    3    3    0    0  0.24323051018E+02  0.57653702767E+00 -0.44125748170E+01  0.24726787550E+02  0.51100000000E-03 0. -1.
        -11    1    3    3    0    0  0.78848595330E+01 -0.19176704406E+02  0.79655026483E+01  0.22211848965E+02  0.51100000000E-03 0.  1.
        -12    1    3    3    0    0 -0.94631527431E+01 -0.56756662088E+00  0.79359000738E+01  0.12363328908E+02  0.00000000000E+00 0.  1.
</event>
<event>
 7    1  0.7444241E-013  0.5930197E+02  0.7816164E-02  0.1266605E+00
        -11   -1    0    0    0    0  0.00000000000E+00  0.00000000000E+00  0.45593999997E+02  0.45594000000E+02  0.51100000000E-03 0.  1.
         11   -1    0    0    0    0 -0.00000000000E+00 -0.00000000000E+00 -0.45593999997E+02  0.45594000000E+02  0.51100000000E-03 0. -1.
    9900012    2    1    2    0    0 -0.25033443554E+02 -0.19640779574E+02  0.20701728257E+01  0.59301966475E+02  0.50000040938E+02 0.  0.
        -12    1    1    2    0    0  0.25033443554E+02  0.19640779574E+02 -0.20701728257E+01  0.31886033525E+02  0.00000000000E+00 0.  1.
         11    1    3    3    0    0 -0.15440760386E+01 -0.46401868993E+01 -0.74601219630E+01  0.89201415481E+01  0.51100000000E-03 0. -1.
        -11    1    3    3    0    0 -0.33067094464E+02 -0.21842475557E+01  0.36663134935E+01  0.33341348632E+02  0.51100000000E-03 0.  1.
         12    1    3    3    0    0  0.95777269493E+01 -0.12816345119E+02  0.58639812953E+01  0.17040476295E+02  0.00000000000E+00 0. -1.
</event>
<event>
 7    1  0.7444241E-013  0.5930194E+02  0.7816164E-02  0.1266605E+00
        -11   -1    0    0    0    0  0.00000000000E+00  0.00000000000E+00  0.45593999997E+02  0.45594000000E+02  0.51100000000E-03 0.  1.
         11   -1    0    0    0    0 -0.00000000000E+00 -0.00000000000E+00 -0.45593999997E+02  0.45594000000E+02  0.51100000000E-03 0. -1.
    9900012    2    1    2    0    0 -0.27035198439E+02 -0.13781986609E+02 -0.97915994795E+01  0.59301944585E+02  0.50000001017E+02 0.  0.
        -12    1    1    2    0    0  0.27035198439E+02  0.13781986609E+02  0.97915994795E+01  0.31886055415E+02  0.00000000000E+00 0.  1.
         11    1    3    3    0    0 -0.44853707835E+01  0.12538609520E+02  0.39511560831E+01  0.13890533266E+02  0.51100000000E-03 0. -1.
        -11    1    3    3    0    0 -0.20843264875E+01 -0.83975257731E+00  0.65616170107E+01  0.69357349541E+01  0.51100000000E-03 0.  1.
         12    1    3    3    0    0 -0.20465501168E+02 -0.25480843552E+02 -0.20304372573E+02  0.38475676365E+02  0.00000000000E+00 0. -1.
</event>
<event>
 7    1  0.7444241E-013  0.5930195E+02  0.7816164E-02  0.1266605E+00
        -11   -1    0    0    0    0  0.00000000000E+00  0.00000000000E+00  0.45593999997E+02  0.45594000000E+02  0.51100000000E-03 0.  1.
         11   -1    0    0    0    0 -0.00000000000E+00 -0.00000000000E+00 -0.45593999997E+02  0.45594000000E+02  0.51100000000E-03 0. -1.
    9900012    2    1    2    0    0  0.15188213642E+02 -0.14358561245E+02 -0.24080488134E+02  0.59301952527E+02  0.50000015501E+02 0.  0.
        -12    1    1    2    0    0 -0.15188213642E+02  0.14358561245E+02  0.24080488134E+02  0.31886047473E+02  0.00000000000E+00 0.  1.
         11    1    3    3    0    0  0.44047776424E+01  0.99833787212E+01  0.91400313363E-01  0.10912299073E+02  0.51100000000E-03 0. -1.
        -11    1    3    3    0    0 -0.74631953483E+01 -0.17685117725E+02 -0.26140868392E+01  0.19372561111E+02  0.51100000000E-03 0.  1.
         12    1    3    3    0    0  0.18246631348E+02 -0.66568222419E+01 -0.21557801608E+02  0.29017092343E+02  0.00000000000E+00 0. -1.
</event>
<event>
 7    1  0.7444241E-013  0.5930196E+02  0.7816164E-02  0.1266605E+00
        -11   -1    0    0    0    0  0.00000000000E+00  0.00000000000E+00  0.45593999997E+02  0.45594000000E+02  0.51100000000E-03 0.  1.
         11   -1    0    0    0    0 -0.00000000000E+00 -0.00000000000E+00 -0.45593999997E+02  0.45594000000E+02  0.51100000000E-03 0. -1.
    9900012    2    1    2    0    0  0.11874796578E+02  0.27046062319E+02 -0.12009144092E+02  0.59301955677E+02  0.50000021246E+02 0.  0.
        -12    1    1    2    0    0 -0.11874796578E+02 -0.27046062319E+02  0.12009144092E+02  0.31886044323E+02  0.00000000000E+00 0.  1.
         11    1    3    3    0    0  0.14096169314E+02  0.13800826863E+02  0.45201884852E+01  0.20238500825E+02  0.51100000000E-03 0. -1.
        -11    1    3    3    0    0  0.61184491732E+01 -0.57854812963E+01  0.44602946085E+01  0.95289790833E+01  0.51100000000E-03 0.  1.
         12    1    3    3    0    0 -0.83398219088E+01  0.19030716752E+02 -0.20989627186E+02  0.29534475769E+02  0.00000000000E+00 0. -1.
</event>
<event>
 7    1  0.7444241E-013  0.5930196E+02  0.7816164E-02  0.1266605E+00
        -11   -1    0    0    0    0  0.00000000000E+00  0.00000000000E+00  0.45593999997E+02  0.45594000000E+02  0.51100000000E-03 0. -1.
         11   -1    0    0    0    0 -0.00000000000E+00 -0.00000000000E+00 -0.45593999997E+02  0.45594000000E+02  0.51100000000E-03 0.  1.
    9900012    2    1    2    0    0  0.26843849485E+02 -0.16826617666E+02  0.36044649749E+01  0.59301960970E+02  0.50000030899E+02 0.  0.
        -12    1    1    2    0    0 -0.26843849485E+02  0.16826617666E+02 -0.36044649749E+01  0.31886039030E+02  0.00000000000E+00 0.  1.
         11    1    3    3    0    0 -0.47300082322E+01 -0.17854422504E+01  0.10934227176E+02  0.12046497670E+02  0.51100000000E-03 0.  1.
        -11    1    3    3    0    0  0.20573453121E+02 -0.61426149170E+01  0.10980269519E+02  0.24115659028E+02  0.51100000000E-03 0. -1.
        -12    1    3    3    0    0  0.11000404596E+02 -0.88985604983E+01 -0.18310031720E+02  0.23139804273E+02  0.00000000000E+00 0.  1.
</event>
<event>
 7    1  0.7444241E-013  0.5930193E+02  0.7816164E-02  0.1266605E+00
        -11   -1    0    0    0    0  0.00000000000E+00  0.00000000000E+00  0.45593999997E+02  0.45594000000E+02  0.51100000000E-03 0.  1.
         11   -1    0    0    0    0 -0.00000000000E+00 -0.00000000000E+00 -0.45593999997E+02  0.45594000000E+02  0.51100000000E-03 0. -1.
    9900012    2    1    2    0    0  0.47620183964E+01  0.13461713531E+02 -0.28510119659E+02  0.59301929791E+02  0.49999974036E+02 0.  0.
        -12    1    1    2    0    0 -0.47620183964E+01 -0.13461713531E+02  0.28510119659E+02  0.31886070209E+02  0.00000000000E+00 0.  1.
         11    1    3    3    0    0  0.10123783546E+02  0.13940724805E+02 -0.34683250069E+01  0.17574529296E+02  0.51100000000E-03 0. -1.
        -11    1    3    3    0    0  0.12234539608E+02  0.10837308845E+00 -0.14946304138E+01  0.12325973571E+02  0.51100000000E-03 0.  1.
         12    1    3    3    0    0 -0.17596304757E+02 -0.58738436281E+00 -0.23547164238E+02  0.29401426924E+02  0.00000000000E+00 0. -1.
</event>
<event>
 7    1  0.7444241E-013  0.5930193E+02  0.7816164E-02  0.1266605E+00
        -11   -1    0    0    0    0  0.00000000000E+00  0.00000000000E+00  0.45593999997E+02  0.45594000000E+02  0.51100000000E-03 0.  1.
         11   -1    0    0    0    0 -0.00000000000E+00 -0.00000000000E+00 -0.45593999997E+02  0.45594000000E+02  0.51100000000E-03 0. -1.
    9900012    2    1    2    0    0 -0.28943353932E+02  0.91090288654E+01 -0.97994435900E+01  0.59301933476E+02  0.49999980755E+02 0.  0.
        -12    1    1    2    0    0  0.28943353932E+02 -0.91090288654E+01  0.97994435900E+01  0.31886066524E+02  0.00000000000E+00 0.  1.
         11    1    3    3    0    0  0.32803658069E+01 -0.15917826148E+02  0.24874540232E+01  0.16441575864E+02  0.51100000000E-03 0. -1.
        -11    1    3    3    0    0 -0.72587551156E+01  0.49284176526E+01 -0.78394214622E+00  0.88087111393E+01  0.51100000000E-03 0.  1.
        -12    1    3    3    0    0 -0.24964964624E+02  0.20098437361E+02 -0.11502955467E+02  0.34051646472E+02  0.00000000000E+00 0.  1.
</event>
<event>
 7    1  0.7444241E-013  0.5930188E+02  0.7816164E-02  0.1266605E+00
        -11   -1    0    0    0    0  0.00000000000E+00  0.00000000000E+00  0.45593999997E+02  0.45594000000E+02  0.51100000000E-03 0.  1.
         11   -1    0    0    0    0 -0.00000000000E+00 -0.00000000000E+00 -0.45593999997E+02  0.45594000000E+02  0.51100000000E-03 0. -1.
    9900012    2    1    2    0    0 -0.11568141394E+02  0.21874544696E+02 -0.20109877368E+02  0.59301878117E+02  0.49999879795E+02 0.  0.
        -12    1    1    2    0    0  0.11568141394E+02 -0.21874544696E+02  0.20109877368E+02  0.31886121883E+02  0.00000000000E+00 0.  1.
         11    1    3    3    0    0  0.61122654995E+01  0.49218896080E+01 -0.12760434268E+02  0.14980436236E+02  0.51100000000E-03 0. -1.
        -11    1    3    3    0    0  0.78406439574E+01  0.15862145715E+02  0.16441829473E+00  0.17694925769E+02  0.51100000000E-03 0.  1.
         12    1    3    3    0    0 -0.25521050851E+02  0.10905093735E+01 -0.75138613942E+01  0.26626516112E+02  0.00000000000E+00 0. -1.
</event>
<event>
 7    1  0.7444241E-013  0.5930194E+02  0.7816164E-02  0.1266605E+00
        -11   -1    0    0    0    0  0.00000000000E+00  0.00000000000E+00  0.45593999997E+02  0.45594000000E+02  0.51100000000E-03 0.  1.
         11   -1    0    0    0    0 -0.00000000000E+00 -0.00000000000E+00 -0.45593999997E+02  0.45594000000E+02  0.51100000000E-03 0. -1.
    9900012    2    1    2    0    0 -0.24051333812E+02 -0.14807262860E+02  0.14798616681E+02  0.59301941178E+02  0.49999994802E+02 0.  0.
        -12    1    1    2    0    0  0.24051333812E+02  0.14807262860E+02 -0.14798616681E+02  0.31886058822E+02  0.00000000000E+00 0.  1.
         11    1    3    3    0    0  0.47078133324E+01  0.95728057502E+00 -0.55635110179E+00  0.48362608781E+01  0.51100000000E-03 0. -1.
        -11    1    3    3    0    0  0.42816647743E+01  0.24028442886E+01 -0.85221805785E+01  0.98353381227E+01  0.51100000000E-03 0.  1.
         12    1    3    3    0    0 -0.33040811918E+02 -0.18167387724E+02  0.23877148362E+02  0.44630342177E+02  0.00000000000E+00 0. -1.
</event>
<event>
 7    1  0.7444241E-013  0.5930198E+02  0.7816164E-02  0.1266605E+00
        -11   -1    0    0    0    0  0.00000000000E+00  0.00000000000E+00  0.45593999997E+02  0.45594000000E+02  0.51100000000E-03 0.  1.
         11   -1    0    0    0    0 -0.00000000000E+00 -0.00000000000E+00 -0.45593999997E+02  0.45594000000E+02  0.51100000000E-03 0. -1.
    9900012    2    1    2    0    0 -0.66133513300E+01 -0.15826317149E+02 -0.26879531750E+02  0.59301984924E+02  0.50000074585E+02 0.  0.
        -12    1    1    2    0    0  0.66133513300E+01  0.15826317149E+02  0.26879531750E+02  0.31886015076E+02  0.00000000000E+00 0.  1.
         11    1    3    3    0    0 -0.41619557395E+01 -0.50882138539E+01  0.10105906825E+01  0.66507961621E+01  0.51100000000E-03 0. -1.
        -11    1    3    3    0    0 -0.60375229349E+01  0.11752635051E+02  0.36872741652E+01  0.13717583784E+02  0.51100000000E-03 0.  1.
         12    1    3    3    0    0  0.35861273444E+01 -0.22490738347E+02 -0.31577396598E+02  0.38933604978E+02  0.00000000000E+00 0. -1.
</event>
<event>
 7    1  0.7444241E-013  0.5930196E+02  0.7816164E-02  0.1266605E+00
        -11   -1    0    0    0    0  0.00000000000E+00  0.00000000000E+00  0.45593999997E+02  0.45594000000E+02  0.51100000000E-03 0.  1.
         11   -1    0    0    0    0 -0.00000000000E+00 -0.00000000000E+00 -0.45593999997E+02  0.45594000000E+02  0.51100000000E-03 0. -1.
    9900012    2    1    2    0    0 -0.18810047732E+01 -0.59729091212E+01 -0.31265089136E+02  0.59301958837E+02  0.50000027009E+02 0.  0.
        -12    1    1    2    0    0  0.18810047732E+01  0.59729091212E+01  0.31265089136E+02  0.31886041163E+02  0.00000000000E+00 0.  1.
         11    1    3    3    0    0  0.96180563244E+01 -0.69828891177E+01 -0.11617064609E+02  0.16619986109E+02  0.51100000000E-03 0. -1.
        -11    1    3    3    0    0  0.49012523652E+01 -0.11344704367E+02 -0.18329661752E+02  0.22106584814E+02  0.51100000000E-03 0.  1.
         12    1    3    3    0    0 -0.16400313463E+02  0.12354684364E+02 -0.13183627755E+01  0.20575387914E+02  0.00000000000E+00 0. -1.
</event>
<event>
 7    1  0.7444241E-013  0.5930191E+02  0.7816164E-02  0.1266605E+00
        -11   -1    0    0    0    0  0.00000000000E+00  0.00000000000E+00  0.45593999997E+02  0.45594000000E+02  0.51100000000E-03 0.  1.
         11   -1    0    0    0    0 -0.00000000000E+00 -0.00000000000E+00 -0.45593999997E+02  0.45594000000E+02  0.51100000000E-03 0. -1.
    9900012    2    1    2    0    0  0.53941741514E+01 -0.27164501585E+02 -0.15802381597E+02  0.59301913296E+02  0.49999943952E+02 0.  0.
        -12    1    1    2    0    0 -0.53941741514E+01  0.27164501585E+02  0.15802381597E+02  0.31886086704E+02  0.00000000000E+00 0.  1.
         11    1    3    3    0    0  0.89215304831E+01 -0.34461589790E+01 -0.12356223065E+01  0.96434682877E+01  0.51100000000E-03 0. -1.
        -11    1    3    3    0    0  0.14909978835E+02 -0.14642004229E+01 -0.14368487688E+02  0.20758246324E+02  0.51100000000E-03 0.  1.
        -12    1    3    3    0    0 -0.18437335167E+02 -0.22254142183E+02 -0.19827160327E+00  0.28900198685E+02  0.00000000000E+00 0.  1.
</event>
<event>
 7    1  0.7444241E-013  0.5930195E+02  0.7816164E-02  0.1266605E+00
        -11   -1    0    0    0    0  0.00000000000E+00  0.00000000000E+00  0.45593999997E+02  0.45594000000E+02  0.51100000000E-03 0.  1.
         11   -1    0    0    0    0 -0.00000000000E+00 -0.00000000000E+00 -0.45593999997E+02  0.45594000000E+02  0.51100000000E-03 0. -1.
    9900012    2    1    2    0    0  0.31206179561E+02  0.65492485676E+01  0.44558889238E-01  0.59301948425E+02  0.50000008019E+02 0.  0.
        -12    1    1    2    0    0 -0.31206179561E+02 -0.65492485676E+01 -0.44558889238E-01  0.31886051575E+02  0.00000000000E+00 0.  1.
         11    1    3    3    0    0 -0.49869580168E+01 -0.18229742815E+01 -0.10902219147E+02  0.12126473852E+02  0.51100000000E-03 0. -1.
        -11    1    3    3    0    0  0.35912122303E+01  0.86424734697E+01  0.11168907049E+02  0.14571672447E+02  0.51100000000E-03 0.  1.
         12    1    3    3    0    0  0.32601925347E+02 -0.27025062063E+00 -0.22212901276E+00  0.32603802126E+02  0.00000000000E+00 0. -1.
</event>
<event>
 7    1  0.7444241E-013  0.5930196E+02  0.7816164E-02  0.1266605E+00
        -11   -1    0    0    0    0  0.00000000000E+00  0.00000000000E+00  0.45593999997E+02  0.45594000000E+02  0.51100000000E-03 0.  1.
         11   -1    0    0    0    0 -0.00000000000E+00 -0.00000000000E+00 -0.45593999997E+02  0.45594000000E+02  0.51100000000E-03 0. -1.
    9900012    2    1    2    0    0  0.15611916973E+02  0.76169342701E+00 -0.27792224226E+02  0.59301955154E+02  0.50000020292E+02 0.  0.
        -12    1    1    2    0    0 -0.15611916973E+02 -0.76169342701E+00  0.27792224226E+02  0.31886044846E+02  0.00000000000E+00 0.  1.
         11    1    3    3    0    0  0.98131044353E+01 -0.18075168875E+02 -0.20831634626E+02  0.29273977352E+02  0.51100000000E-03 0. -1.
        -11    1    3    3    0    0  0.34713964644E+00  0.74523278891E+01 -0.13788262608E+02  0.15677177134E+02  0.51100000000E-03 0.  1.
        -12    1    3    3    0    0  0.54516728916E+01  0.11384534413E+02  0.68276730074E+01  0.14350800668E+02  0.00000000000E+00 0.  1.
</event>
<event>
 7    1  0.7444241E-013  0.5930193E+02  0.7816164E-02  0.1266605E+00
        -11   -1    0    0    0    0  0.00000000000E+00  0.00000000000E+00  0.45593999997E+02  0.45594000000E+02  0.51100000000E-03 0.  1.
         11   -1    0    0    0    0 -0.00000000000E+00 -0.00000000000E+00 -0.45593999997E+02  0.45594000000E+02  0.51100000000E-03 0. -1.
    9900012    2    1    2    0    0  0.23394929265E+02  0.15052816220E+02 -0.15582405473E+02  0.59301931698E+02  0.49999977513E+02 0.  0.
        -12    1    1    2    0    0 -0.23394929265E+02 -0.15052816220E+02  0.15582405473E+02  0.31886068302E+02  0.00000000000E+00 0.  1.
         11    1    3    3    0    0  0.12613981874E+02  0.91902499984E+01 -0.55755034209E+01  0.16572853478E+02  0.51100000000E-03 0. -1.
        -11    1    3    3    0    0  0.23115651506E+02  0.13378181205E+02 -0.36801237319E+01  0.26960200071E+02  0.51100000000E-03 0.  1.
         12    1    3    3    0    0 -0.12334704115E+02 -0.75156149829E+01 -0.63267783201E+01  0.15768878150E+02  0.00000000000E+00 0. -1.
</event>
<event>
 7    1  0.7444241E-013  0.5930194E+02  0.7816164E-02  0.1266605E+00
        -11   -1    0    0    0    0  0.00000000000E+00  0.00000000000E+00  0.45593999997E+02  0.45594000000E+02  0.51100000000E-03 0. -1.
         11   -1    0    0    0    0 -0.00000000000E+00 -0.00000000000E+00 -0.45593999997E+02  0.45594000000E+02  0.51100000000E-03 0.  1.
    9900012    2    1    2    0    0  0.25985599049E+02  0.73440493882E+01 -0.16956843482E+02  0.59301937838E+02  0.49999988711E+02 0.  0.
        -12    1    1    2    0    0 -0.25985599049E+02 -0.73440493882E+01  0.16956843482E+02  0.31886062162E+02  0.00000000000E+00 0.  1.
         11    1    3    3    0    0 -0.73543845364E+01  0.14807390741E+01  0.24664807226E+01  0.78970302982E+01  0.51100000000E-03 0. -1.
        -11    1    3    3    0    0  0.75695181203E+01 -0.97802768978E+01 -0.17188326858E+02  0.21175221397E+02  0.51100000000E-03 0.  1.
         12    1    3    3    0    0  0.25770465465E+02  0.15643587212E+02 -0.22349973464E+01  0.30229686143E+02  0.00000000000E+00 0. -1.
</event>
<event>
 7    1  0.7444241E-013  0.5930194E+02  0.7816164E-02  0.1266605E+00
        -11   -1    0    0    0    0  0.00000000000E+00  0.00000000000E+00  0.45593999997E+02  0.45594000000E+02  0.51100000000E-03 0.  1.
         11   -1    0    0    0    0 -0.00000000000E+00 -0.00000000000E+00 -0.45593999997E+02  0.45594000000E+02  0.51100000000E-03 0. -1.
    9900012    2    1    2    0    0 -0.12339751086E+02 -0.33479909287E+01 -0.29210315842E+02  0.59301936403E+02  0.49999986094E+02 0.  0.
        -12    1    1    2    0    0  0.12339751086E+02  0.33479909287E+01  0.29210315842E+02  0.31886063597E+02  0.00000000000E+00 0.  1.
         11    1    3    3    0    0  0.29074233374E+01 -0.56466752069E+01 -0.83971513277E+00  0.64064946047E+01  0.51100000000E-03 0. -1.
        -11    1    3    3    0    0  0.81245992006E+01 -0.13045369067E+02 -0.41863869837E+01  0.15928483999E+02  0.51100000000E-03 0.  1.
         12    1    3    3    0    0 -0.23371773624E+02  0.15344053346E+02 -0.24184213726E+02  0.36966957799E+02  0.00000000000E+00 0. -1.
</event>
<event>
 7    1  0.7444241E-013  0.5930185E+02  0.7816164E-02  0.1266605E+00
        -11   -1    0    0    0    0  0.00000000000E+00  0.00000000000E+00  0.45593999997E+02  0.45594000000E+02  0.51100000000E-03 0.  1.
         11   -1    0    0    0    0 -0.00000000000E+00 -0.00000000000E+00 -0.45593999997E+02  0.45594000000E+02  0.51100000000E-03 0. -1.
    9900012    2    1    2    0    0  0.13410953124E+02 -0.25895373013E+02 -0.12895837737E+02  0.59301848804E+02  0.49999826334E+02 0.  0.
        -12    1    1    2    0    0 -0.13410953124E+02  0.25895373013E+02  0.12895837737E+02  0.31886151196E+02  0.00000000000E+00 0.  1.
         11    1    3    3    0    0  0.10741845742E+02 -0.31061494545E+02 -0.96346215922E+01  0.34249520096E+02  0.51100000000E-03 0. -1.
        -11    1    3    3    0    0  0.29342678115E+01 -0.88884876312E+00 -0.13123344994E+02  0.13476726747E+02  0.51100000000E-03 0.  1.
        -12    1    3    3    0    0 -0.26516042955E+00  0.60549702952E+01  0.98621288493E+01  0.11575601961E+02  0.00000000000E+00 0.  1.
</event>
<event>
 7    1  0.7444241E-013  0.5930190E+02  0.7816164E-02  0.1266605E+00
        -11   -1    0    0    0    0  0.00000000000E+00  0.00000000000E+00  0.45593999997E+02  0.45594000000E+02  0.51100000000E-03 0. -1.
         11   -1    0    0    0    0 -0.00000000000E+00 -0.00000000000E+00 -0.45593999997E+02  0.45594000000E+02  0.51100000000E-03 0.  1.
    9900012    2    1    2    0    0  0.11596652876E+02 -0.43614649184E+01  0.29380581709E+02  0.59301900901E+02  0.49999921348E+02 0.  0.
        -12    1    1    2    0    0 -0.11596652876E+02  0.43614649184E+01 -0.29380581709E+02  0.31886099099E+02  0.00000000000E+00 0.  1.
         11    1    3    3    0    0  0.56402308546E+01 -0.31341450261E+01 -0.70238137572E+01  0.95377685595E+01  0.51100000000E-03 0. -1.
        -11    1    3    3    0    0  0.17865277920E+02  0.55136559685E+01  0.13419904595E+02  0.23014395428E+02  0.51100000000E-03 0.  1.
         12    1    3    3    0    0 -0.11908855898E+02 -0.67409758607E+01  0.22984490871E+02  0.26749736914E+02  0.00000000000E+00 0. -1.
</event>
<event>
 7    1  0.7444241E-013  0.5930190E+02  0.7816164E-02  0.1266605E+00
        -11   -1    0    0    0    0  0.00000000000E+00  0.00000000000E+00  0.45593999997E+02  0.45594000000E+02  0.51100000000E-03 0. -1.
         11   -1    0    0    0    0 -0.00000000000E+00 -0.00000000000E+00 -0.45593999997E+02  0.45594000000E+02  0.51100000000E-03 0.  1.
    9900012    2    1    2    0    0  0.31589905656E+02  0.41951985611E+01 -0.10960572016E+01  0.59301903160E+02  0.49999925467E+02 0.  0.
        -12    1    1    2    0    0 -0.31589905656E+02 -0.41951985611E+01  0.10960572016E+01  0.31886096840E+02  0.00000000000E+00 0.  1.
         11    1    3    3    0    0  0.85348164158E+01  0.27771478016E+01 -0.60511747642E+00  0.89956549837E+01  0.51100000000E-03 0. -1.
        -11    1    3    3    0    0  0.27839176918E+02  0.17208031964E+02 -0.52227139345E+01  0.33142312482E+02  0.51100000000E-03 0.  1.
         12    1    3    3    0    0 -0.47840876785E+01 -0.15789981204E+02  0.47317742093E+01  0.17163935694E+02  0.00000000000E+00 0. -1.
</event>
<event>
 7    1  0.7444241E-013  0.5930196E+02  0.7816164E-02  0.1266605E+00
        -11   -1    0    0    0    0  0.00000000000E+00  0.00000000000E+00  0.45593999997E+02  0.45594000000E+02  0.51100000000E-03 0.  1.
         11   -1    0    0    0    0 -0.00000000000E+00 -0.00000000000E+00 -0.45593999997E+02  0.45594000000E+02  0.51100000000E-03 0. -1.
    9900012    2    1    2    0    0  0.54239930675E+01 -0.13371206636E+02 -0.28434326739E+02  0.59301955956E+02  0.50000021754E+02 0.  0.
        -12    1    1    2    0    0 -0.54239930675E+01  0.13371206636E+02  0.28434326739E+02  0.31886044044E+02  0.00000000000E+00 0.  1.
         11    1    3    3    0    0  0.12752827339E+02 -0.11376700127E+02 -0.24269381528E+01  0.17261342358E+02  0.51100000000E-03 0. -1.
        -11    1    3    3    0    0 -0.13903285673E+02 -0.12130423524E+02 -0.74531423060E+01  0.19899694919E+02  0.51100000000E-03 0.  1.
         12    1    3    3    0    0  0.65744514009E+01  0.10135917014E+02 -0.18554246280E+02  0.22140918679E+02  0.00000000000E+00 0. -1.
</event>
<event>
 7    1  0.7444241E-013  0.5930197E+02  0.7816164E-02  0.1266605E+00
        -11   -1    0    0    0    0  0.00000000000E+00  0.00000000000E+00  0.45593999997E+02  0.45594000000E+02  0.51100000000E-03 0. -1.
         11   -1    0    0    0    0 -0.00000000000E+00 -0.00000000000E+00 -0.45593999997E+02  0.45594000000E+02  0.51100000000E-03 0.  1.
    9900012    2    1    2    0    0 -0.59367772558E+00 -0.31829451228E+02  0.18034351075E+01  0.59301971760E+02  0.50000050577E+02 0.  0.
        -12    1    1    2    0    0  0.59367772558E+00  0.31829451228E+02 -0.18034351075E+01  0.31886028240E+02  0.00000000000E+00 0.  1.
         11    1    3    3    0    0  0.11770645963E+02 -0.23267703106E+01  0.93354245728E+01  0.15202372140E+02  0.51100000000E-03 0. -1.
        -11    1    3    3    0    0 -0.12585159813E+02 -0.21468937074E+00  0.30613198231E+01  0.12953919035E+02  0.51100000000E-03 0.  1.
        -12    1    3    3    0    0  0.22083612388E+00 -0.29287991547E+02 -0.10593309288E+02  0.31145680585E+02  0.00000000000E+00 0.  1.
</event>
<event>
 7    1  0.7444241E-013  0.5930194E+02  0.7816164E-02  0.1266605E+00
        -11   -1    0    0    0    0  0.00000000000E+00  0.00000000000E+00  0.45593999997E+02  0.45594000000E+02  0.51100000000E-03 0. -1.
         11   -1    0    0    0    0 -0.00000000000E+00 -0.00000000000E+00 -0.45593999997E+02  0.45594000000E+02  0.51100000000E-03 0.  1.
    9900012    2    1    2    0    0 -0.46351567132E+01  0.31510645891E+02 -0.15216880382E+01  0.59301936951E+02  0.49999987095E+02 0.  0.
        -12    1    1    2    0    0  0.46351567132E+01 -0.31510645891E+02  0.15216880382E+01  0.31886063049E+02  0.00000000000E+00 0.  1.
         11    1    3    3    0    0  0.36817596479E+00 -0.13419701213E+01  0.14525663742E+02  0.14592167240E+02  0.51100000000E-03 0. -1.
        -11    1    3    3    0    0 -0.11104927928E+02  0.33461717174E+01 -0.42739652493E+01  0.12360544837E+02  0.51100000000E-03 0.  1.
        -12    1    3    3    0    0  0.61015952503E+01  0.29506444295E+02 -0.11773386531E+02  0.32349224874E+02  0.00000000000E+00 0.  1.
</event>
<event>
 7    1  0.7444241E-013  0.5930194E+02  0.7816164E-02  0.1266605E+00
        -11   -1    0    0    0    0  0.00000000000E+00  0.00000000000E+00  0.45593999997E+02  0.45594000000E+02  0.51100000000E-03 0.  1.
         11   -1    0    0    0    0 -0.00000000000E+00 -0.00000000000E+00 -0.45593999997E+02  0.45594000000E+02  0.51100000000E-03 0. -1.
    9900012    2    1    2    0    0 -0.16521293903E+02 -0.23305011757E+02 -0.14164879365E+02  0.59301944542E+02  0.50000000938E+02 0.  0.
        -12    1    1    2    0    0  0.16521293903E+02  0.23305011757E+02  0.14164879365E+02  0.31886055458E+02  0.00000000000E+00 0.  1.
         11    1    3    3    0    0 -0.12371899353E+02 -0.79332721894E+00 -0.66462595319E+01  0.14066485976E+02  0.51100000000E-03 0. -1.
        -11    1    3    3    0    0  0.98464602341E+01  0.46681673609E+01 -0.96961837609E+01  0.14586313634E+02  0.51100000000E-03 0.  1.
        -12    1    3    3    0    0 -0.13995854783E+02 -0.27179851899E+02  0.21775639277E+01  0.30649144932E+02  0.00000000000E+00 0.  1.
</event>
<event>
 7    1  0.7444241E-013  0.5930192E+02  0.7816164E-02  0.1266605E+00
        -11   -1    0    0    0    0  0.00000000000E+00  0.00000000000E+00  0.45593999997E+02  0.45594000000E+02  0.51100000000E-03 0.  1.
         11   -1    0    0    0    0 -0.00000000000E+00 -0.00000000000E+00 -0.45593999997E+02  0.45594000000E+02  0.51100000000E-03 0. -1.
    9900012    2    1    2    0    0  0.20187724503E+02 -0.18400550488E+02 -0.16449860100E+02  0.59301915635E+02  0.49999948218E+02 0.  0.
        -12    1    1    2    0    0 -0.20187724503E+02  0.18400550488E+02  0.16449860100E+02  0.31886084365E+02  0.00000000000E+00 0.  1.
         11    1    3    3    0    0 -0.63247803559E+01 -0.23094934370E+01 -0.58766088157E+00  0.67588425088E+01  0.51100000000E-03 0. -1.
        -11    1    3    3    0    0  0.12611081586E+02  0.75385000125E+01  0.75250464664E+01  0.16507413055E+02  0.51100000000E-03 0.  1.
        -12    1    3    3    0    0  0.13901423273E+02 -0.23629557063E+02 -0.23387245685E+02  0.36035660071E+02  0.00000000000E+00 0.  1.
</event>
<event>
 7    1  0.7444241E-013  0.5930194E+02  0.7816164E-02  0.1266605E+00
        -11   -1    0    0    0    0  0.00000000000E+00  0.00000000000E+00  0.45593999997E+02  0.45594000000E+02  0.51100000000E-03 0. -1.
         11   -1    0    0    0    0 -0.00000000000E+00 -0.00000000000E+00 -0.45593999997E+02  0.45594000000E+02  0.51100000000E-03 0.  1.
    9900012    2    1    2    0    0 -0.28010798507E+00 -0.27589874183E+01  0.31765240857E+02  0.59301937233E+02  0.49999987608E+02 0.  0.
        -12    1    1    2    0    0  0.28010798507E+00  0.27589874183E+01 -0.31765240857E+02  0.31886062767E+02  0.00000000000E+00 0.  1.
         11    1    3    3    0    0  0.32660355662E+01 -0.16319802168E+02  0.40475928909E+01  0.17128512474E+02  0.51100000000E-03 0. -1.
        -11    1    3    3    0    0  0.70296712083E+00 -0.73061918892E+01  0.15366311198E+00  0.73415403907E+01  0.51100000000E-03 0.  1.
         12    1    3    3    0    0 -0.42491106721E+01  0.20867006639E+02  0.27563984855E+02  0.34831884368E+02  0.00000000000E+00 0. -1.
</event>
<event>
 7    1  0.7444241E-013  0.5930194E+02  0.7816164E-02  0.1266605E+00
        -11   -1    0    0    0    0  0.00000000000E+00  0.00000000000E+00  0.45593999997E+02  0.45594000000E+02  0.51100000000E-03 0.  1.
         11   -1    0    0    0    0 -0.00000000000E+00 -0.00000000000E+00 -0.45593999997E+02  0.45594000000E+02  0.51100000000E-03 0. -1.
    9900012    2    1    2    0    0 -0.16860216294E+02 -0.24217494701E+02 -0.12081684730E+02  0.59301936446E+02  0.49999986173E+02 0.  0.
        -12    1    1    2    0    0  0.16860216294E+02  0.24217494701E+02  0.12081684730E+02  0.31886063554E+02  0.00000000000E+00 0.  1.
         11    1    3    3    0    0 -0.15608861404E+02  0.10924543097E+02 -0.82645409666E+01  0.20767398341E+02  0.51100000000E-03 0. -1.
        -11    1    3    3    0    0 -0.11584262386E+01 -0.54451222096E+00 -0.37228521474E+01  0.39367592359E+01  0.51100000000E-03 0.  1.
        -12    1    3    3    0    0 -0.92928651295E-01 -0.34597525577E+02 -0.94291615551E-01  0.34597778869E+02  0.00000000000E+00 0.  1.
</event>
<event>
 7    1  0.7444241E-013  0.5930193E+02  0.7816164E-02  0.1266605E+00
        -11   -1    0    0    0    0  0.00000000000E+00  0.00000000000E+00  0.45593999997E+02  0.45594000000E+02  0.51100000000E-03 0.  1.
         11   -1    0    0    0    0 -0.00000000000E+00 -0.00000000000E+00 -0.45593999997E+02  0.45594000000E+02  0.51100000000E-03 0. -1.
    9900012    2    1    2    0    0 -0.82992447491E+01  0.16990115365E+01 -0.30740154906E+02  0.59301933650E+02  0.49999981073E+02 0.  0.
        -12    1    1    2    0    0  0.82992447491E+01 -0.16990115365E+01  0.30740154906E+02  0.31886066350E+02  0.00000000000E+00 0.  1.
         11    1    3    3    0    0 -0.11390327960E+02 -0.69879272441E+01 -0.69819127219E+01  0.15077062172E+02  0.51100000000E-03 0. -1.
        -11    1    3    3    0    0  0.60177111655E+01 -0.10408623493E+02 -0.21685546984E+02  0.24795468113E+02  0.51100000000E-03 0.  1.
        -12    1    3    3    0    0 -0.29266279543E+01  0.19095562274E+02 -0.20726952003E+01  0.19429403365E+02  0.00000000000E+00 0.  1.
</event>
<event>
 7    1  0.7444241E-013  0.5930192E+02  0.7816164E-02  0.1266605E+00
        -11   -1    0    0    0    0  0.00000000000E+00  0.00000000000E+00  0.45593999997E+02  0.45594000000E+02  0.51100000000E-03 0. -1.
         11   -1    0    0    0    0 -0.00000000000E+00 -0.00000000000E+00 -0.45593999997E+02  0.45594000000E+02  0.51100000000E-03 0.  1.
    9900012    2    1    2    0    0 -0.23465816315E+02 -0.10910349137E+02  0.18629054326E+02  0.59301922808E+02  0.49999961301E+02 0.  0.
        -12    1    1    2    0    0  0.23465816315E+02  0.10910349137E+02 -0.18629054326E+02  0.31886077192E+02  0.00000000000E+00 0.  1.
         11    1    3    3    0    0 -0.15815919694E+02 -0.19654730426E+01 -0.75611343748E+01  0.17640214096E+02  0.51100000000E-03 0. -1.
        -11    1    3    3    0    0 -0.21630100023E+01 -0.11094902578E+02 -0.31508551353E+01  0.11734707659E+02  0.51100000000E-03 0.  1.
         12    1    3    3    0    0 -0.54868866182E+01  0.21500264844E+01  0.29341043836E+02  0.29927001053E+02  0.00000000000E+00 0. -1.
</event>
<event>
 7    1  0.7444241E-013  0.5930191E+02  0.7816164E-02  0.1266605E+00
        -11   -1    0    0    0    0  0.00000000000E+00  0.00000000000E+00  0.45593999997E+02  0.45594000000E+02  0.51100000000E-03 0.  1.
         11   -1    0    0    0    0 -0.00000000000E+00 -0.00000000000E+00 -0.45593999997E+02  0.45594000000E+02  0.51100000000E-03 0. -1.
    9900012    2    1    2    0    0 -0.12956749784E+02 -0.11759775389E+02 -0.26656206607E+02  0.59301905337E+02  0.49999929438E+02 0.  0.
        -12    1    1    2    0    0  0.12956749784E+02  0.11759775389E+02  0.26656206607E+02  0.31886094663E+02  0.00000000000E+00 0.  1.
         11    1    3    3    0    0  0.10514253003E+02 -0.45980988638E+01 -0.24120210303E+02  0.26710982286E+02  0.51100000000E-03 0. -1.
        -11    1    3    3    0    0  0.13661484285E+01  0.33955372372E+01  0.33579372508E+01  0.49670693069E+01  0.51100000000E-03 0.  1.
         12    1    3    3    0    0 -0.24837151216E+02 -0.10557213762E+02 -0.58939335548E+01  0.27623853744E+02  0.00000000000E+00 0. -1.
</event>
<event>
 7    1  0.7444241E-013  0.5930189E+02  0.7816164E-02  0.1266605E+00
        -11   -1    0    0    0    0  0.00000000000E+00  0.00000000000E+00  0.45593999997E+02  0.45594000000E+02  0.51100000000E-03 0.  1.
         11   -1    0    0    0    0 -0.00000000000E+00 -0.00000000000E+00 -0.45593999997E+02  0.45594000000E+02  0.51100000000E-03 0. -1.
    9900012    2    1    2    0    0  0.27558663111E+02  0.14178155307E+02  0.74982502925E+01  0.59301893969E+02  0.49999908705E+02 0.  0.
        -12    1    1    2    0    0 -0.27558663111E+02 -0.14178155307E+02 -0.74982502925E+01  0.31886106031E+02  0.00000000000E+00 0.  1.
         11    1    3    3    0    0 -0.36596556382E+01  0.23297887320E+02  0.91651317724E+01  0.25301863047E+02  0.51100000000E-03 0. -1.
        -11    1    3    3    0    0  0.80885637311E+01 -0.10133990349E+01 -0.45271778624E+01  0.93245472005E+01  0.51100000000E-03 0.  1.
        -12    1    3    3    0    0  0.23129755018E+02 -0.81063329779E+01  0.28602963824E+01  0.24675483722E+02  0.00000000000E+00 0.  1.
</event>
<event>
 7    1  0.7444241E-013  0.5930195E+02  0.7816164E-02  0.1266605E+00
        -11   -1    0    0    0    0  0.00000000000E+00  0.00000000000E+00  0.45593999997E+02  0.45594000000E+02  0.51100000000E-03 0.  1.
         11   -1    0    0    0    0 -0.00000000000E+00 -0.00000000000E+00 -0.45593999997E+02  0.45594000000E+02  0.51100000000E-03 0. -1.
    9900012    2    1    2    0    0 -0.14794224513E+02  0.16290777508E+01 -0.28199240971E+02  0.59301950314E+02  0.50000011464E+02 0.  0.
        -12    1    1    2    0    0  0.14794224513E+02 -0.16290777508E+01  0.28199240971E+02  0.31886049686E+02  0.00000000000E+00 0.  1.
         11    1    3    3    0    0 -0.97521064214E+01  0.59998485806E+01  0.22269710380E+01  0.11664525833E+02  0.51100000000E-03 0. -1.
        -11    1    3    3    0    0 -0.44777735917E+01 -0.36608970635E+01  0.76277671981E+01  0.95726410325E+01  0.51100000000E-03 0.  1.
        -12    1    3    3    0    0 -0.56434449964E+00 -0.70987376633E+00 -0.38053979207E+02  0.38064783448E+02  0.00000000000E+00 0.  1.
</event>
<event>
 7    1  0.7444241E-013  0.5930195E+02  0.7816164E-02  0.1266605E+00
        -11   -1    0    0    0    0  0.00000000000E+00  0.00000000000E+00  0.45593999997E+02  0.45594000000E+02  0.51100000000E-03 0.  1.
         11   -1    0    0    0    0 -0.00000000000E+00 -0.00000000000E+00 -0.45593999997E+02  0.45594000000E+02  0.51100000000E-03 0. -1.
    9900012    2    1    2    0    0 -0.20242066709E+02  0.17949890534E+02 -0.16875442564E+02  0.59301946676E+02  0.50000004830E+02 0.  0.
        -12    1    1    2    0    0  0.20242066709E+02 -0.17949890534E+02  0.16875442564E+02  0.31886053324E+02  0.00000000000E+00 0.  1.
         11    1    3    3    0    0 -0.18590446465E+02  0.27371373823E+02 -0.14517073483E+02  0.36132287881E+02  0.51100000000E-03 0. -1.
        -11    1    3    3    0    0 -0.63471712876E+01  0.31720764175E+01 -0.59471067447E+01  0.92583330599E+01  0.51100000000E-03 0.  1.
        -12    1    3    3    0    0  0.46955510437E+01 -0.12593559707E+02  0.35887376637E+01  0.13911325735E+02  0.00000000000E+00 0.  1.
</event>
<event>
 7    1  0.7444241E-013  0.5930196E+02  0.7816164E-02  0.1266605E+00
        -11   -1    0    0    0    0  0.00000000000E+00  0.00000000000E+00  0.45593999997E+02  0.45594000000E+02  0.51100000000E-03 0. -1.
         11   -1    0    0    0    0 -0.00000000000E+00 -0.00000000000E+00 -0.45593999997E+02  0.45594000000E+02  0.51100000000E-03 0.  1.
    9900012    2    1    2    0    0 -0.87046241362E+01  0.24079092024E+02  0.19003850735E+02  0.59301960785E+02  0.50000030561E+02 0.  0.
        -12    1    1    2    0    0  0.87046241362E+01 -0.24079092024E+02 -0.19003850735E+02  0.31886039215E+02  0.00000000000E+00 0.  1.
         11    1    3    3    0    0 -0.11610814163E+02  0.19921124456E+02  0.15616282712E+02  0.27848348086E+02  0.51100000000E-03 0. -1.
        -11    1    3    3    0    0 -0.37716568202E+01  0.16172883794E+02  0.56106505061E+01  0.17529032054E+02  0.51100000000E-03 0.  1.
        -12    1    3    3    0    0  0.66778468466E+01 -0.12014916226E+02 -0.22230824830E+01  0.13924580645E+02  0.00000000000E+00 0.  1.
</event>
<event>
 7    1  0.7444241E-013  0.5930187E+02  0.7816164E-02  0.1266605E+00
        -11   -1    0    0    0    0  0.00000000000E+00  0.00000000000E+00  0.45593999997E+02  0.45594000000E+02  0.51100000000E-03 0.  1.
         11   -1    0    0    0    0 -0.00000000000E+00 -0.00000000000E+00 -0.45593999997E+02  0.45594000000E+02  0.51100000000E-03 0. -1.
    9900012    2    1    2    0    0 -0.29396100451E+00  0.23741753211E+01 -0.31796256766E+02  0.59301873458E+02  0.49999871298E+02 0.  0.
        -12    1    1    2    0    0  0.29396100451E+00 -0.23741753211E+01  0.31796256766E+02  0.31886126542E+02  0.00000000000E+00 0.  1.
         11    1    3    3    0    0  0.13149578200E+02 -0.10086303827E+00 -0.11147477731E+02  0.17239136875E+02  0.51100000000E-03 0. -1.
        -11    1    3    3    0    0 -0.32580076040E+01  0.12355303940E+00  0.95577588902E+01  0.10098546141E+02  0.51100000000E-03 0.  1.
        -12    1    3    3    0    0 -0.10185531600E+02  0.23514853200E+01 -0.30206537925E+02  0.31964190442E+02  0.00000000000E+00 0.  1.
</event>
<event>
 7    1  0.7444241E-013  0.5930192E+02  0.7816164E-02  0.1266605E+00
        -11   -1    0    0    0    0  0.00000000000E+00  0.00000000000E+00  0.45593999997E+02  0.45594000000E+02  0.51100000000E-03 0.  1.
         11   -1    0    0    0    0 -0.00000000000E+00 -0.00000000000E+00 -0.45593999997E+02  0.45594000000E+02  0.51100000000E-03 0. -1.
    9900012    2    1    2    0    0  0.23466296421E+01  0.25961928842E+02 -0.18362830125E+02  0.59301922316E+02  0.49999960403E+02 0.  0.
        -12    1    1    2    0    0 -0.23466296421E+01 -0.25961928842E+02  0.18362830125E+02  0.31886077684E+02  0.00000000000E+00 0.  1.
         11    1    3    3    0    0  0.62375452683E+01  0.99868786587E+00 -0.95101467469E+01  0.11416971570E+02  0.51100000000E-03 0. -1.
        -11    1    3    3    0    0  0.61598817541E+01 -0.36159598912E+01  0.99357354423E+01  0.12236753989E+02  0.51100000000E-03 0.  1.
        -12    1    3    3    0    0 -0.10050797380E+02  0.28579200867E+02 -0.18788418821E+02  0.35648196756E+02  0.00000000000E+00 0.  1.
</event>
<event>
 7    1  0.7444241E-013  0.5930193E+02  0.7816164E-02  0.1266605E+00
        -11   -1    0    0    0    0  0.00000000000E+00  0.00000000000E+00  0.45593999997E+02  0.45594000000E+02  0.51100000000E-03 0. -1.
         11   -1    0    0    0    0 -0.00000000000E+00 -0.00000000000E+00 -0.45593999997E+02  0.45594000000E+02  0.51100000000E-03 0.  1.
    9900012    2    1    2    0    0  0.27169561218E+02  0.14388751168E+02  0.84557761931E+01  0.59301931444E+02  0.49999977050E+02 0.  0.
        -12    1    1    2    0    0 -0.27169561218E+02 -0.14388751168E+02 -0.84557761931E+01  0.31886068556E+02  0.00000000000E+00 0.  1.
         11    1    3    3    0    0  0.19697456120E+02  0.17865087180E+00  0.11968061897E+01  0.19734589913E+02  0.51100000000E-03 0. -1.
        -11    1    3    3    0    0 -0.79631870638E+01  0.11813594054E+02 -0.91344311132E+01  0.16923687089E+02  0.51100000000E-03 0.  1.
         12    1    3    3    0    0  0.15435292162E+02  0.23965062423E+01  0.16393401117E+02  0.22643654442E+02  0.00000000000E+00 0. -1.
</event>
<event>
 7    1  0.7444241E-013  0.5930194E+02  0.7816164E-02  0.1266605E+00
        -11   -1    0    0    0    0  0.00000000000E+00  0.00000000000E+00  0.45593999997E+02  0.45594000000E+02  0.51100000000E-03 0. -1.
         11   -1    0    0    0    0 -0.00000000000E+00 -0.00000000000E+00 -0.45593999997E+02  0.45594000000E+02  0.51100000000E-03 0.  1.
    9900012    2    1    2    0    0 -0.26246911287E+02  0.59471622482E+01  0.17101218754E+02  0.59301940761E+02  0.49999994043E+02 0.  0.
        -12    1    1    2    0    0  0.26246911287E+02 -0.59471622482E+01 -0.17101218754E+02  0.31886059239E+02  0.00000000000E+00 0.  1.
         11    1    3    3    0    0  0.36870291412E+01  0.12409351289E+02  0.57425268266E+00  0.12958238680E+02  0.51100000000E-03 0. -1.
        -11    1    3    3    0    0 -0.65836019035E+01 -0.23184959718E+01 -0.90729863634E+01  0.11447197011E+02  0.51100000000E-03 0.  1.
         12    1    3    3    0    0 -0.23350338524E+02 -0.41436930684E+01  0.25599952435E+02  0.34896505070E+02  0.00000000000E+00 0. -1.
</event>
<event>
 7    1  0.7444241E-013  0.5930195E+02  0.7816164E-02  0.1266605E+00
        -11   -1    0    0    0    0  0.00000000000E+00  0.00000000000E+00  0.45593999997E+02  0.45594000000E+02  0.51100000000E-03 0.  1.
         11   -1    0    0    0    0 -0.00000000000E+00 -0.00000000000E+00 -0.45593999997E+02  0.45594000000E+02  0.51100000000E-03 0. -1.
    9900012    2    1    2    0    0  0.19664866361E+02 -0.13519754659E+02 -0.21147799435E+02  0.59301950449E+02  0.50000011711E+02 0.  0.
        -12    1    1    2    0    0 -0.19664866361E+02  0.13519754659E+02  0.21147799435E+02  0.31886049551E+02  0.00000000000E+00 0.  1.
         11    1    3    3    0    0 -0.11951453787E+02  0.12510889353E+01 -0.13020135713E+02  0.17717968433E+02  0.51100000000E-03 0.  1.
        -11    1    3    3    0    0  0.20856352768E+02 -0.39153510705E+01 -0.13763666887E+02  0.25293397384E+02  0.51100000000E-03 0. -1.
        -12    1    3    3    0    0  0.10759967380E+02 -0.10855492524E+02  0.56360031648E+01  0.16290584632E+02  0.00000000000E+00 0.  1.
</event>
<event>
 7    1  0.7444241E-013  0.5930195E+02  0.7816164E-02  0.1266605E+00
        -11   -1    0    0    0    0  0.00000000000E+00  0.00000000000E+00  0.45593999997E+02  0.45594000000E+02  0.51100000000E-03 0.  1.
         11   -1    0    0    0    0 -0.00000000000E+00 -0.00000000000E+00 -0.45593999997E+02  0.45594000000E+02  0.51100000000E-03 0. -1.
    9900012    2    1    2    0    0  0.22124975096E+02  0.14721350920E+02 -0.17620663004E+02  0.59301945672E+02  0.50000002999E+02 0.  0.
        -12    1    1    2    0    0 -0.22124975096E+02 -0.14721350920E+02  0.17620663004E+02  0.31886054328E+02  0.00000000000E+00 0.  1.
         11    1    3    3    0    0  0.23851934227E+02 -0.91628114343E+01 -0.95235745963E+01  0.27268486447E+02  0.51100000000E-03 0. -1.
        -11    1    3    3    0    0  0.77292717884E+01  0.16187499729E+02 -0.84654098368E+01  0.19835320865E+02  0.51100000000E-03 0.  1.
        -12    1    3    3    0    0 -0.94562309194E+01  0.76966626248E+01  0.36832142924E+00  0.12198138359E+02  0.00000000000E+00 0.  1.
</event>
<event>
 7    1  0.7444241E-013  0.5930194E+02  0.7816164E-02  0.1266605E+00
        -11   -1    0    0    0    0  0.00000000000E+00  0.00000000000E+00  0.45593999997E+02  0.45594000000E+02  0.51100000000E-03 0. -1.
         11   -1    0    0    0    0 -0.00000000000E+00 -0.00000000000E+00 -0.45593999997E+02  0.45594000000E+02  0.51100000000E-03 0.  1.
    9900012    2    1    2    0    0  0.13713818735E+02  0.15275273647E+02  0.24399133580E+02  0.59301944604E+02  0.50000001050E+02 0.  0.
        -12    1    1    2    0    0 -0.13713818735E+02 -0.15275273647E+02 -0.24399133580E+02  0.31886055396E+02  0.00000000000E+00 0.  1.
         11    1    3    3    0    0  0.18060923265E+02  0.15650502835E+02  0.39428478558E+01  0.24221503621E+02  0.51100000000E-03 0. -1.
        -11    1    3    3    0    0 -0.57660061223E+01  0.10163870060E+02 -0.37530423701E+00  0.11691532608E+02  0.51100000000E-03 0.  1.
        -12    1    3    3    0    0  0.14189015928E+01 -0.10539099247E+02  0.20831589961E+02  0.23388908375E+02  0.00000000000E+00 0.  1.
</event>
<event>
 7    1  0.7444241E-013  0.5930195E+02  0.7816164E-02  0.1266605E+00
        -11   -1    0    0    0    0  0.00000000000E+00  0.00000000000E+00  0.45593999997E+02  0.45594000000E+02  0.51100000000E-03 0.  1.
         11   -1    0    0    0    0 -0.00000000000E+00 -0.00000000000E+00 -0.45593999997E+02  0.45594000000E+02  0.51100000000E-03 0. -1.
    9900012    2    1    2    0    0  0.10225677569E+02 -0.30201911385E+02  0.88365863108E-02  0.59301952720E+02  0.50000015853E+02 0.  0.
        -12    1    1    2    0    0 -0.10225677569E+02  0.30201911385E+02 -0.88365863108E-02  0.31886047280E+02  0.00000000000E+00 0.  1.
         11    1    3    3    0    0  0.90728897191E+01  0.24978825740E+01 -0.25975782979E-01  0.94104952160E+01  0.51100000000E-03 0. -1.
        -11    1    3    3    0    0 -0.17635128306E+02 -0.20983274857E+02 -0.28710096953E+01  0.27559721897E+02  0.51100000000E-03 0.  1.
         12    1    3    3    0    0  0.18787916156E+02 -0.11716519102E+02  0.29058220646E+01  0.22331735607E+02  0.00000000000E+00 0. -1.
</event>
<event>
 7    1  0.7444241E-013  0.5930194E+02  0.7816164E-02  0.1266605E+00
        -11   -1    0    0    0    0  0.00000000000E+00  0.00000000000E+00  0.45593999997E+02  0.45594000000E+02  0.51100000000E-03 0.  1.
         11   -1    0    0    0    0 -0.00000000000E+00 -0.00000000000E+00 -0.45593999997E+02  0.45594000000E+02  0.51100000000E-03 0. -1.
    9900012    2    1    2    0    0 -0.26276131643E+02 -0.11594338987E+02 -0.13851242342E+02  0.59301941838E+02  0.49999996007E+02 0.  0.
        -12    1    1    2    0    0  0.26276131643E+02  0.11594338987E+02  0.13851242342E+02  0.31886058162E+02  0.00000000000E+00 0.  1.
         11    1    3    3    0    0 -0.14833380511E+02  0.17243817677E+02 -0.59982031805E+01  0.23523538575E+02  0.51100000000E-03 0. -1.
        -11    1    3    3    0    0  0.32183265642E+01 -0.27253187891E+01  0.13849992225E+01  0.44388299679E+01  0.51100000000E-03 0.  1.
        -12    1    3    3    0    0 -0.14661077697E+02 -0.26112837875E+02 -0.92380383836E+01  0.31339573295E+02  0.00000000000E+00 0.  1.
</event>
<event>
 7    1  0.7444241E-013  0.5930197E+02  0.7816164E-02  0.1266605E+00
        -11   -1    0    0    0    0  0.00000000000E+00  0.00000000000E+00  0.45593999997E+02  0.45594000000E+02  0.51100000000E-03 0. -1.
         11   -1    0    0    0    0 -0.00000000000E+00 -0.00000000000E+00 -0.45593999997E+02  0.45594000000E+02  0.51100000000E-03 0.  1.
    9900012    2    1    2    0    0  0.33225966542E+00 -0.17808616226E+02  0.26447338524E+02  0.59301969777E+02  0.50000046961E+02 0.  0.
        -12    1    1    2    0    0 -0.33225966542E+00  0.17808616226E+02 -0.26447338524E+02  0.31886030223E+02  0.00000000000E+00 0.  1.
         11    1    3    3    0    0 -0.24014476980E+00 -0.17689944544E+02  0.28268451388E+01  0.17915994563E+02  0.51100000000E-03 0. -1.
        -11    1    3    3    0    0 -0.23521873239E+01 -0.14518012647E+02  0.14365757222E+01  0.14777321357E+02  0.51100000000E-03 0.  1.
        -12    1    3    3    0    0  0.29245917591E+01  0.14399340966E+02  0.22183917663E+02  0.26608653857E+02  0.00000000000E+00 0.  1.
</event>
<event>
 7    1  0.7444241E-013  0.5930194E+02  0.7816164E-02  0.1266605E+00
        -11   -1    0    0    0    0  0.00000000000E+00  0.00000000000E+00  0.45593999997E+02  0.45594000000E+02  0.51100000000E-03 0. -1.
         11   -1    0    0    0    0 -0.00000000000E+00 -0.00000000000E+00 -0.45593999997E+02  0.45594000000E+02  0.51100000000E-03 0.  1.
    9900012    2    1    2    0    0  0.89094377551E+01 -0.23597322259E+02  0.19506646107E+02  0.59301938135E+02  0.49999989254E+02 0.  0.
        -12    1    1    2    0    0 -0.89094377551E+01  0.23597322259E+02 -0.19506646107E+02  0.31886061865E+02  0.00000000000E+00 0.  1.
         11    1    3    3    0    0  0.11204072960E+02 -0.13608202033E+02 -0.93664806539E+01  0.19961096502E+02  0.51100000000E-03 0. -1.
        -11    1    3    3    0    0  0.62136993945E+01 -0.88649939135E+01  0.18437801197E+01  0.10981698532E+02  0.51100000000E-03 0.  1.
         12    1    3    3    0    0 -0.85083345993E+01 -0.11241263127E+01  0.27029346641E+02  0.28359143102E+02  0.00000000000E+00 0. -1.
</event>
<event>
 7    1  0.7444241E-013  0.5930194E+02  0.7816164E-02  0.1266605E+00
        -11   -1    0    0    0    0  0.00000000000E+00  0.00000000000E+00  0.45593999997E+02  0.45594000000E+02  0.51100000000E-03 0. -1.
         11   -1    0    0    0    0 -0.00000000000E+00 -0.00000000000E+00 -0.45593999997E+02  0.45594000000E+02  0.51100000000E-03 0.  1.
    9900012    2    1    2    0    0 -0.24448226783E+02 -0.16494340672E+02 -0.12121941219E+02  0.59301944647E+02  0.50000001130E+02 0.  0.
        -12    1    1    2    0    0  0.24448226783E+02  0.16494340672E+02  0.12121941219E+02  0.31886055353E+02  0.00000000000E+00 0.  1.
         11    1    3    3    0    0 -0.69677821465E+00 -0.15131087040E+02 -0.27789770839E+01  0.15399935350E+02  0.51100000000E-03 0. -1.
        -11    1    3    3    0    0  0.85070228762E+01  0.52076669152E+01 -0.22992575163E+01  0.10236005974E+02  0.51100000000E-03 0.  1.
         12    1    3    3    0    0 -0.32258471445E+02 -0.65709205468E+01 -0.70437066185E+01  0.33666003323E+02  0.00000000000E+00 0. -1.
</event>
<event>
 7    1  0.7444241E-013  0.5930196E+02  0.7816164E-02  0.1266605E+00
        -11   -1    0    0    0    0  0.00000000000E+00  0.00000000000E+00  0.45593999997E+02  0.45594000000E+02  0.51100000000E-03 0.  1.
         11   -1    0    0    0    0 -0.00000000000E+00 -0.00000000000E+00 -0.45593999997E+02  0.45594000000E+02  0.51100000000E-03 0. -1.
    9900012    2    1    2    0    0  0.13047111124E+02  0.11642541598E+02 -0.26663528694E+02  0.59301958446E+02  0.50000026296E+02 0.  0.
        -12    1    1    2    0    0 -0.13047111124E+02 -0.11642541598E+02  0.26663528694E+02  0.31886041554E+02  0.00000000000E+00 0.  1.
         11    1    3    3    0    0  0.10501149087E+02  0.48667509837E+01  0.28894716157E+01  0.11929310280E+02  0.51100000000E-03 0. -1.
        -11    1    3    3    0    0 -0.10717488022E+02  0.14827913946E+02 -0.61664759535E+01  0.19306916052E+02  0.51100000000E-03 0.  1.
         12    1    3    3    0    0  0.13263450060E+02 -0.80521233319E+01 -0.23386524356E+02  0.28065732114E+02  0.00000000000E+00 0. -1.
</event>
<event>
 7    1  0.7444241E-013  0.5930197E+02  0.7816164E-02  0.1266605E+00
        -11   -1    0    0    0    0  0.00000000000E+00  0.00000000000E+00  0.45593999997E+02  0.45594000000E+02  0.51100000000E-03 0.  1.
         11   -1    0    0    0    0 -0.00000000000E+00 -0.00000000000E+00 -0.45593999997E+02  0.45594000000E+02  0.51100000000E-03 0. -1.
    9900012    2    1    2    0    0  0.44068857392E+01  0.27810958317E+02  0.14961588823E+02  0.59301965682E+02  0.50000039492E+02 0.  0.
        -12    1    1    2    0    0 -0.44068857392E+01 -0.27810958317E+02 -0.14961588823E+02  0.31886034318E+02  0.00000000000E+00 0.  1.
         11    1    3    3    0    0  0.28196089524E+01  0.22410075412E+02 -0.24374800108E+00  0.22588074020E+02  0.51100000000E-03 0. -1.
        -11    1    3    3    0    0 -0.59882547959E+01  0.14907885025E+02 -0.14090047139E+01  0.16127291340E+02  0.51100000000E-03 0.  1.
         12    1    3    3    0    0  0.75755315827E+01 -0.95070021199E+01  0.16614341538E+02  0.20586600322E+02  0.00000000000E+00 0. -1.
</event>
<event>
 7    1  0.7444241E-013  0.5930191E+02  0.7816164E-02  0.1266605E+00
        -11   -1    0    0    0    0  0.00000000000E+00  0.00000000000E+00  0.45593999997E+02  0.45594000000E+02  0.51100000000E-03 0. -1.
         11   -1    0    0    0    0 -0.00000000000E+00 -0.00000000000E+00 -0.45593999997E+02  0.45594000000E+02  0.51100000000E-03 0.  1.
    9900012    2    1    2    0    0  0.18883600967E+02 -0.25684575779E+02 -0.65927882071E+00  0.59301914210E+02  0.49999945620E+02 0.  0.
        -12    1    1    2    0    0 -0.18883600967E+02  0.25684575779E+02  0.65927882071E+00  0.31886085790E+02  0.00000000000E+00 0.  1.
         11    1    3    3    0    0 -0.25875786037E+01 -0.19944770227E+02  0.13620476568E+02  0.24290055674E+02  0.51100000000E-03 0. -1.
        -11    1    3    3    0    0 -0.47365001514E+01 -0.33266655024E+00 -0.44393510903E+01  0.65002260793E+01  0.51100000000E-03 0.  1.
         12    1    3    3    0    0  0.26207679722E+02 -0.54071390017E+01 -0.98404042985E+01  0.28511632457E+02  0.00000000000E+00 0. -1.
</event>
<event>
 7    1  0.7444241E-013  0.5930184E+02  0.7816164E-02  0.1266605E+00
        -11   -1    0    0    0    0  0.00000000000E+00  0.00000000000E+00  0.45593999997E+02  0.45594000000E+02  0.51100000000E-03 0.  1.
         11   -1    0    0    0    0 -0.00000000000E+00 -0.00000000000E+00 -0.45593999997E+02  0.45594000000E+02  0.51100000000E-03 0. -1.
    9900012    2    1    2    0    0 -0.17397923777E+02  0.16467835032E+02 -0.21043998585E+02  0.59301839697E+02  0.49999809726E+02 0.  0.
        -12    1    1    2    0    0  0.17397923777E+02 -0.16467835032E+02  0.21043998585E+02  0.31886160303E+02  0.00000000000E+00 0.  1.
         11    1    3    3    0    0 -0.24775874776E+02 -0.37291619810E+01 -0.13053074869E+02  0.28251254552E+02  0.51100000000E-03 0. -1.
        -11    1    3    3    0    0  0.25169947827E+01 -0.18569658262E+01  0.43170517006E+01  0.53310899882E+01  0.51100000000E-03 0.  1.
         12    1    3    3    0    0  0.48609562161E+01  0.22053962840E+02 -0.12307975416E+02  0.25719495157E+02  0.00000000000E+00 0. -1.
</event>
<event>
 7    1  0.7444241E-013  0.5930197E+02  0.7816164E-02  0.1266605E+00
        -11   -1    0    0    0    0  0.00000000000E+00  0.00000000000E+00  0.45593999997E+02  0.45594000000E+02  0.51100000000E-03 0.  1.
         11   -1    0    0    0    0 -0.00000000000E+00 -0.00000000000E+00 -0.45593999997E+02  0.45594000000E+02  0.51100000000E-03 0. -1.
    9900012    2    1    2    0    0 -0.22534046090E+02  0.18563210704E+02 -0.12819639051E+02  0.59301965906E+02  0.50000039901E+02 0.  0.
        -12    1    1    2    0    0  0.22534046090E+02 -0.18563210704E+02  0.12819639051E+02  0.31886034094E+02  0.00000000000E+00 0.  1.
         11    1    3    3    0    0  0.34718144841E+01  0.21291733773E+01  0.12543610823E+01  0.42614900057E+01  0.51100000000E-03 0. -1.
        -11    1    3    3    0    0 -0.14375259702E+01 -0.14602384244E+01  0.13709159059E+02  0.13861450845E+02  0.51100000000E-03 0.  1.
         12    1    3    3    0    0 -0.24568334604E+02  0.17894275751E+02 -0.27783159192E+02  0.41179025056E+02  0.00000000000E+00 0. -1.
</event>
<event>
 7    1  0.7444241E-013  0.5930194E+02  0.7816164E-02  0.1266605E+00
        -11   -1    0    0    0    0  0.00000000000E+00  0.00000000000E+00  0.45593999997E+02  0.45594000000E+02  0.51100000000E-03 0. -1.
         11   -1    0    0    0    0 -0.00000000000E+00 -0.00000000000E+00 -0.45593999997E+02  0.45594000000E+02  0.51100000000E-03 0.  1.
    9900012    2    1    2    0    0 -0.16629513839E+02  0.14701101433E+02  0.22892308676E+02  0.59301938619E+02  0.49999990136E+02 0.  0.
        -12    1    1    2    0    0  0.16629513839E+02 -0.14701101433E+02 -0.22892308676E+02  0.31886061381E+02  0.00000000000E+00 0.  1.
         11    1    3    3    0    0 -0.55816928666E+01  0.99366682691E+01 -0.72865265231E+01  0.13527236990E+02  0.51100000000E-03 0.  1.
        -11    1    3    3    0    0  0.10443077545E+02  0.19599556262E+01  0.30558318716E+01  0.11056102539E+02  0.51100000000E-03 0. -1.
         12    1    3    3    0    0 -0.21490898517E+02  0.28044775375E+01  0.27123003327E+02  0.34718599091E+02  0.00000000000E+00 0. -1.
</event>
<event>
 7    1  0.7444241E-013  0.5930193E+02  0.7816164E-02  0.1266605E+00
        -11   -1    0    0    0    0  0.00000000000E+00  0.00000000000E+00  0.45593999997E+02  0.45594000000E+02  0.51100000000E-03 0.  1.
         11   -1    0    0    0    0 -0.00000000000E+00 -0.00000000000E+00 -0.45593999997E+02  0.45594000000E+02  0.51100000000E-03 0. -1.
    9900012    2    1    2    0    0  0.31022343354E+02  0.59606505102E+01 -0.43365977386E+01  0.59301933738E+02  0.49999981235E+02 0.  0.
        -12    1    1    2    0    0 -0.31022343354E+02 -0.59606505102E+01  0.43365977386E+01  0.31886066262E+02  0.00000000000E+00 0.  1.
         11    1    3    3    0    0  0.19564907706E+02  0.19621340414E+01  0.15529891458E+02  0.25056199083E+02  0.51100000000E-03 0. -1.
        -11    1    3    3    0    0  0.42423324035E+01  0.50989227631E+01  0.50152815458E+01  0.83156146382E+01  0.51100000000E-03 0.  1.
        -12    1    3    3    0    0  0.72151032450E+01 -0.11004062943E+01 -0.24881770742E+02  0.25930120017E+02  0.00000000000E+00 0.  1.
</event>
<event>
 7    1  0.7444241E-013  0.5930195E+02  0.7816164E-02  0.1266605E+00
        -11   -1    0    0    0    0  0.00000000000E+00  0.00000000000E+00  0.45593999997E+02  0.45594000000E+02  0.51100000000E-03 0.  1.
         11   -1    0    0    0    0 -0.00000000000E+00 -0.00000000000E+00 -0.45593999997E+02  0.45594000000E+02  0.51100000000E-03 0. -1.
    9900012    2    1    2    0    0 -0.31690870773E+02  0.16784356594E+01 -0.30971054280E+01  0.59301945076E+02  0.50000001911E+02 0.  0.
        -12    1    1    2    0    0  0.31690870773E+02 -0.16784356594E+01  0.30971054280E+01  0.31886054924E+02  0.00000000000E+00 0.  1.
         11    1    3    3    0    0 -0.18891956500E+02  0.10804892418E+01  0.11133609312E+02  0.21955198336E+02  0.51100000000E-03 0. -1.
        -11    1    3    3    0    0 -0.13831344889E+02 -0.15635961586E+01  0.72764360278E+01  0.15706605487E+02  0.51100000000E-03 0.  1.
         12    1    3    3    0    0  0.10324306161E+01  0.21615425762E+01 -0.21507150768E+02  0.21640141253E+02  0.00000000000E+00 0. -1.
</event>
<event>
 7    1  0.7444241E-013  0.5930188E+02  0.7816164E-02  0.1266605E+00
        -11   -1    0    0    0    0  0.00000000000E+00  0.00000000000E+00  0.45593999997E+02  0.45594000000E+02  0.51100000000E-03 0.  1.
         11   -1    0    0    0    0 -0.00000000000E+00 -0.00000000000E+00 -0.45593999997E+02  0.45594000000E+02  0.51100000000E-03 0. -1.
    9900012    2    1    2    0    0 -0.13549396297E+02  0.23004843176E+02 -0.17433169950E+02  0.59301884463E+02  0.49999891368E+02 0.  0.
        -12    1    1    2    0    0  0.13549396297E+02 -0.23004843176E+02  0.17433169950E+02  0.31886115537E+02  0.00000000000E+00 0.  1.
         11    1    3    3    0    0 -0.83949100910E+01  0.25867714967E+02  0.28099086042E+00  0.27197282018E+02  0.51100000000E-03 0. -1.
        -11    1    3    3    0    0  0.88189997184E+01  0.19657476014E+01 -0.50396934946E-02  0.90354272353E+01  0.51100000000E-03 0.  1.
         12    1    3    3    0    0 -0.13973485924E+02 -0.48286193924E+01 -0.17709121117E+02  0.23069175210E+02  0.00000000000E+00 0. -1.
</event>
<event>
 7    1  0.7444241E-013  0.5930195E+02  0.7816164E-02  0.1266605E+00
        -11   -1    0    0    0    0  0.00000000000E+00  0.00000000000E+00  0.45593999997E+02  0.45594000000E+02  0.51100000000E-03 0. -1.
         11   -1    0    0    0    0 -0.00000000000E+00 -0.00000000000E+00 -0.45593999997E+02  0.45594000000E+02  0.51100000000E-03 0.  1.
    9900012    2    1    2    0    0 -0.24826167801E+02  0.19906305307E+02 -0.20299144948E+01  0.59301950519E+02  0.50000011839E+02 0.  0.
        -12    1    1    2    0    0  0.24826167801E+02 -0.19906305307E+02  0.20299144948E+01  0.31886049481E+02  0.00000000000E+00 0.  1.
         11    1    3    3    0    0  0.19622175447E+01  0.18656426440E+02  0.79648404797E+01  0.20380167549E+02  0.51100000000E-03 0. -1.
        -11    1    3    3    0    0  0.42577926165E+01 -0.88198863313E+00 -0.61988801580E+01  0.75718437245E+01  0.51100000000E-03 0.  1.
         12    1    3    3    0    0 -0.31046177962E+02  0.21318674996E+01 -0.37958748165E+01  0.31349939245E+02  0.00000000000E+00 0. -1.
</event>
<event>
 7    1  0.7444241E-013  0.5930204E+02  0.7816164E-02  0.1266604E+00
        -11   -1    0    0    0    0  0.00000000000E+00  0.00000000000E+00  0.45593999997E+02  0.45594000000E+02  0.51100000000E-03 0.  1.
         11   -1    0    0    0    0 -0.00000000000E+00 -0.00000000000E+00 -0.45593999997E+02  0.45594000000E+02  0.51100000000E-03 0. -1.
    9900012    2    1    2    0    0  0.17557995649E+02 -0.26478833475E+02 -0.27023345375E+01  0.59302039996E+02  0.50000175023E+02 0.  0.
        -12    1    1    2    0    0 -0.17557995649E+02  0.26478833475E+02  0.27023345375E+01  0.31885960004E+02  0.00000000000E+00 0.  1.
         11    1    3    3    0    0  0.75239082908E+01 -0.22028315469E+02 -0.10100605552E+02  0.25374753421E+02  0.51100000000E-03 0. -1.
        -11    1    3    3    0    0  0.20256141318E+02 -0.84911120198E+01  0.33708010135E+01  0.22220993321E+02  0.51100000000E-03 0.  1.
         12    1    3    3    0    0 -0.10222053960E+02  0.40405940134E+01  0.40274700014E+01  0.11706293254E+02  0.00000000000E+00 0. -1.
</event>
<event>
 7    1  0.7444241E-013  0.5930187E+02  0.7816164E-02  0.1266605E+00
        -11   -1    0    0    0    0  0.00000000000E+00  0.00000000000E+00  0.45593999997E+02  0.45594000000E+02  0.51100000000E-03 0.  1.
         11   -1    0    0    0    0 -0.00000000000E+00 -0.00000000000E+00 -0.45593999997E+02  0.45594000000E+02  0.51100000000E-03 0. -1.
    9900012    2    1    2    0    0 -0.91958971958E+01  0.94307672924E+01  0.29038278509E+02  0.59301866404E+02  0.49999858432E+02 0.  0.
        -12    1    1    2    0    0  0.91958971958E+01 -0.94307672924E+01 -0.29038278509E+02  0.31886133596E+02  0.00000000000E+00 0.  1.
         11    1    3    3    0    0 -0.68136479130E+00  0.57923166207E+01 -0.79920583244E+01  0.98938458819E+01  0.51100000000E-03 0. -1.
        -11    1    3    3    0    0 -0.89268033289E+01  0.13163503688E+02  0.60881224159E+01  0.17030293064E+02  0.51100000000E-03 0.  1.
         12    1    3    3    0    0  0.41227092445E+00 -0.95250530164E+01  0.30942214418E+02  0.32377727458E+02  0.00000000000E+00 0. -1.
</event>
<event>
 7    1  0.7444241E-013  0.5930196E+02  0.7816164E-02  0.1266605E+00
        -11   -1    0    0    0    0  0.00000000000E+00  0.00000000000E+00  0.45593999997E+02  0.45594000000E+02  0.51100000000E-03 0.  1.
         11   -1    0    0    0    0 -0.00000000000E+00 -0.00000000000E+00 -0.45593999997E+02  0.45594000000E+02  0.51100000000E-03 0. -1.
    9900012    2    1    2    0    0  0.22199705877E+02  0.13108875202E+02 -0.18763002267E+02  0.59301955966E+02  0.50000021772E+02 0.  0.
        -12    1    1    2    0    0 -0.22199705877E+02 -0.13108875202E+02  0.18763002267E+02  0.31886044034E+02  0.00000000000E+00 0.  1.
         11    1    3    3    0    0  0.45623271773E+01 -0.47579309892E+01  0.11437261680E+02  0.13200897377E+02  0.51100000000E-03 0.  1.
        -11    1    3    3    0    0 -0.15567988386E+01  0.14462756120E+02 -0.81668543142E+01  0.16682099594E+02  0.51100000000E-03 0. -1.
        -12    1    3    3    0    0  0.19194177538E+02  0.34040500713E+01 -0.22033409633E+02  0.29418958994E+02  0.00000000000E+00 0.  1.
</event>
<event>
 7    1  0.7444241E-013  0.5930195E+02  0.7816164E-02  0.1266605E+00
        -11   -1    0    0    0    0  0.00000000000E+00  0.00000000000E+00  0.45593999997E+02  0.45594000000E+02  0.51100000000E-03 0. -1.
         11   -1    0    0    0    0 -0.00000000000E+00 -0.00000000000E+00 -0.45593999997E+02  0.45594000000E+02  0.51100000000E-03 0.  1.
    9900012    2    1    2    0    0 -0.83562068021E+01  0.21976671562E+02  0.21538806368E+02  0.59301945605E+02  0.50000002877E+02 0.  0.
        -12    1    1    2    0    0  0.83562068021E+01 -0.21976671562E+02 -0.21538806368E+02  0.31886054395E+02  0.00000000000E+00 0.  1.
         11    1    3    3    0    0  0.80017859043E+01  0.26143309909E+01 -0.73652713595E+01  0.11185281697E+02  0.51100000000E-03 0. -1.
        -11    1    3    3    0    0 -0.10635647978E+02  0.14629570884E+02 -0.19183807864E+00  0.18088066626E+02  0.51100000000E-03 0.  1.
         12    1    3    3    0    0 -0.57223447281E+01  0.47327696877E+01  0.29095915807E+02  0.30028597282E+02  0.00000000000E+00 0. -1.
</event>
<event>
 7    1  0.7444241E-013  0.5930195E+02  0.7816164E-02  0.1266605E+00
        -11   -1    0    0    0    0  0.00000000000E+00  0.00000000000E+00  0.45593999997E+02  0.45594000000E+02  0.51100000000E-03 0. -1.
         11   -1    0    0    0    0 -0.00000000000E+00 -0.00000000000E+00 -0.45593999997E+02  0.45594000000E+02  0.51100000000E-03 0.  1.
    9900012    2    1    2    0    0 -0.49349491859E+01 -0.29915432399E+02  0.98708389278E+01  0.59301948501E+02  0.50000008158E+02 0.  0.
        -12    1    1    2    0    0  0.49349491859E+01  0.29915432399E+02 -0.98708389278E+01  0.31886051499E+02  0.00000000000E+00 0.  1.
         11    1    3    3    0    0  0.14923873322E+02 -0.77828133623E+01 -0.47436858631E+01  0.17487044764E+02  0.51100000000E-03 0. -1.
        -11    1    3    3    0    0 -0.43942503736E+01  0.56210736960E+01  0.46549079034E+01  0.85190418295E+01  0.51100000000E-03 0.  1.
        -12    1    3    3    0    0 -0.15464572134E+02 -0.27753692733E+02  0.99596168874E+01  0.33295861907E+02  0.00000000000E+00 0.  1.
</event>
<event>
 7    1  0.7444241E-013  0.5930195E+02  0.7816164E-02  0.1266605E+00
        -11   -1    0    0    0    0  0.00000000000E+00  0.00000000000E+00  0.45593999997E+02  0.45594000000E+02  0.51100000000E-03 0.  1.
         11   -1    0    0    0    0 -0.00000000000E+00 -0.00000000000E+00 -0.45593999997E+02  0.45594000000E+02  0.51100000000E-03 0. -1.
    9900012    2    1    2    0    0  0.43007320797E+01  0.43108750618E+01 -0.31299208125E+02  0.59301947101E+02  0.50000005606E+02 0.  0.
        -12    1    1    2    0    0 -0.43007320797E+01 -0.43108750618E+01  0.31299208125E+02  0.31886052899E+02  0.00000000000E+00 0.  1.
         11    1    3    3    0    0  0.22909429748E+01  0.24452361145E+02 -0.24783798455E+02  0.34891303377E+02  0.51100000000E-03 0. -1.
        -11    1    3    3    0    0  0.17089799506E+01  0.14286838595E+00 -0.35048066081E+01  0.39018833233E+01  0.51100000000E-03 0.  1.
        -12    1    3    3    0    0  0.30080915422E+00 -0.20284354469E+02 -0.30106030619E+01  0.20508760401E+02  0.00000000000E+00 0.  1.
</event>
<event>
 7    1  0.7444241E-013  0.5930196E+02  0.7816164E-02  0.1266605E+00
        -11   -1    0    0    0    0  0.00000000000E+00  0.00000000000E+00  0.45593999997E+02  0.45594000000E+02  0.51100000000E-03 0. -1.
         11   -1    0    0    0    0 -0.00000000000E+00 -0.00000000000E+00 -0.45593999997E+02  0.45594000000E+02  0.51100000000E-03 0.  1.
    9900012    2    1    2    0    0  0.28693169967E+02  0.66793308507E+01  0.12198688218E+02  0.59301961400E+02  0.50000031683E+02 0.  0.
        -12    1    1    2    0    0 -0.28693169967E+02 -0.66793308507E+01 -0.12198688218E+02  0.31886038600E+02  0.00000000000E+00 0.  1.
         11    1    3    3    0    0  0.82153161655E+01  0.24446435262E+01 -0.11685774036E+02  0.14492239881E+02  0.51100000000E-03 0. -1.
        -11    1    3    3    0    0  0.62191892252E+01 -0.12488718076E+02  0.25539961584E+01  0.14183416036E+02  0.51100000000E-03 0.  1.
         12    1    3    3    0    0  0.14258664577E+02  0.16723405401E+02  0.21330466095E+02  0.30626305483E+02  0.00000000000E+00 0. -1.
</event>
<event>
 7    1  0.7444241E-013  0.5930192E+02  0.7816164E-02  0.1266605E+00
        -11   -1    0    0    0    0  0.00000000000E+00  0.00000000000E+00  0.45593999997E+02  0.45594000000E+02  0.51100000000E-03 0.  1.
         11   -1    0    0    0    0 -0.00000000000E+00 -0.00000000000E+00 -0.45593999997E+02  0.45594000000E+02  0.51100000000E-03 0. -1.
    9900012    2    1    2    0    0 -0.69268531652E+01 -0.12466460640E+02 -0.28518910285E+02  0.59301918718E+02  0.49999953841E+02 0.  0.
        -12    1    1    2    0    0  0.69268531652E+01  0.12466460640E+02  0.28518910285E+02  0.31886081282E+02  0.00000000000E+00 0.  1.
         11    1    3    3    0    0  0.16684350154E+01  0.27581135565E+01  0.27878838194E+01  0.42618261629E+01  0.51100000000E-03 0. -1.
        -11    1    3    3    0    0  0.30975397951E+01  0.57400541073E+01  0.71676975402E+01  0.96911744502E+01  0.51100000000E-03 0.  1.
        -12    1    3    3    0    0 -0.11692827976E+02 -0.20964628304E+02 -0.38474491645E+02  0.45348918105E+02  0.00000000000E+00 0.  1.
</event>
<event>
 7    1  0.7444241E-013  0.5930194E+02  0.7816164E-02  0.1266605E+00
        -11   -1    0    0    0    0  0.00000000000E+00  0.00000000000E+00  0.45593999997E+02  0.45594000000E+02  0.51100000000E-03 0. -1.
         11   -1    0    0    0    0 -0.00000000000E+00 -0.00000000000E+00 -0.45593999997E+02  0.45594000000E+02  0.51100000000E-03 0.  1.
    9900012    2    1    2    0    0 -0.20521671639E+02 -0.23509473603E+01  0.24291046300E+02  0.59301938928E+02  0.49999990699E+02 0.  0.
        -12    1    1    2    0    0  0.20521671639E+02  0.23509473603E+01 -0.24291046300E+02  0.31886061072E+02  0.00000000000E+00 0.  1.
         11    1    3    3    0    0 -0.47442839260E+01 -0.51521802567E+01  0.14368670108E+02  0.15984738731E+02  0.51100000000E-03 0. -1.
        -11    1    3    3    0    0 -0.36666417569E+01  0.19162649409E+02  0.11919955656E+02  0.22863436689E+02  0.51100000000E-03 0.  1.
        -12    1    3    3    0    0 -0.12110745956E+02 -0.16361416512E+02 -0.19975794639E+01  0.20453763507E+02  0.00000000000E+00 0.  1.
</event>
<event>
 7    1  0.7444241E-013  0.5930198E+02  0.7816164E-02  0.1266605E+00
        -11   -1    0    0    0    0  0.00000000000E+00  0.00000000000E+00  0.45593999997E+02  0.45594000000E+02  0.51100000000E-03 0.  1.
         11   -1    0    0    0    0 -0.00000000000E+00 -0.00000000000E+00 -0.45593999997E+02  0.45594000000E+02  0.51100000000E-03 0. -1.
    9900012    2    1    2    0    0  0.14586755802E+02 -0.64302277636E+01 -0.27615159468E+02  0.59301979453E+02  0.50000064606E+02 0.  0.
        -12    1    1    2    0    0 -0.14586755802E+02  0.64302277636E+01  0.27615159468E+02  0.31886020547E+02  0.00000000000E+00 0.  1.
         11    1    3    3    0    0  0.35478421076E+01 -0.36517209391E+01 -0.60923145526E+01  0.79396817510E+01  0.51100000000E-03 0. -1.
        -11    1    3    3    0    0  0.16849253516E+02 -0.20292564306E+02 -0.55427772828E+01  0.26951955225E+02  0.51100000000E-03 0.  1.
        -12    1    3    3    0    0 -0.58103398220E+01  0.17514057481E+02 -0.15980067632E+02  0.24410342477E+02  0.00000000000E+00 0.  1.
</event>
<event>
 7    1  0.7444241E-013  0.5930197E+02  0.7816164E-02  0.1266605E+00
        -11   -1    0    0    0    0  0.00000000000E+00  0.00000000000E+00  0.45593999997E+02  0.45594000000E+02  0.51100000000E-03 0.  1.
         11   -1    0    0    0    0 -0.00000000000E+00 -0.00000000000E+00 -0.45593999997E+02  0.45594000000E+02  0.51100000000E-03 0. -1.
    9900012    2    1    2    0    0  0.24310296012E+02  0.20286698736E+02 -0.37654366493E+01  0.59301966209E+02  0.50000040452E+02 0.  0.
        -12    1    1    2    0    0 -0.24310296012E+02 -0.20286698736E+02  0.37654366493E+01  0.31886033791E+02  0.00000000000E+00 0.  1.
         11    1    3    3    0    0  0.18563731001E+01  0.51706355799E+01 -0.57890179063E+01  0.79808722561E+01  0.51100000000E-03 0. -1.
        -11    1    3    3    0    0  0.17812417858E+02  0.28045491842E+02 -0.81713444326E+01  0.34214071852E+02  0.51100000000E-03 0.  1.
        -12    1    3    3    0    0  0.46415050537E+01 -0.12929428686E+02  0.10194925690E+02  0.17107022100E+02  0.00000000000E+00 0.  1.
</event>
<event>
 7    1  0.7444241E-013  0.5930195E+02  0.7816164E-02  0.1266605E+00
        -11   -1    0    0    0    0  0.00000000000E+00  0.00000000000E+00  0.45593999997E+02  0.45594000000E+02  0.51100000000E-03 0.  1.
         11   -1    0    0    0    0 -0.00000000000E+00 -0.00000000000E+00 -0.45593999997E+02  0.45594000000E+02  0.51100000000E-03 0. -1.
    9900012    2    1    2    0    0  0.22752689236E+02 -0.74959947414E+01 -0.21043894936E+02  0.59301947897E+02  0.50000007056E+02 0.  0.
        -12    1    1    2    0    0 -0.22752689236E+02  0.74959947414E+01  0.21043894936E+02  0.31886052103E+02  0.00000000000E+00 0.  1.
         11    1    3    3    0    0  0.29848773058E+01 -0.10549721681E+02 -0.75789189455E+00  0.10990019130E+02  0.51100000000E-03 0. -1.
        -11    1    3    3    0    0  0.19886294101E+00 -0.13057196085E+02  0.35338777535E+01  0.13528422240E+02  0.51100000000E-03 0.  1.
         12    1    3    3    0    0  0.19568948989E+02  0.16110923025E+02 -0.23819880795E+02  0.34783506527E+02  0.00000000000E+00 0. -1.
</event>
<event>
 7    1  0.7444241E-013  0.5930193E+02  0.7816164E-02  0.1266605E+00
        -11   -1    0    0    0    0  0.00000000000E+00  0.00000000000E+00  0.45593999997E+02  0.45594000000E+02  0.51100000000E-03 0.  1.
         11   -1    0    0    0    0 -0.00000000000E+00 -0.00000000000E+00 -0.45593999997E+02  0.45594000000E+02  0.51100000000E-03 0. -1.
    9900012    2    1    2    0    0 -0.91072071169E+01  0.19913143333E+02 -0.23178590700E+02  0.59301928343E+02  0.49999971395E+02 0.  0.
        -12    1    1    2    0    0  0.91072071169E+01 -0.19913143333E+02  0.23178590700E+02  0.31886071657E+02  0.00000000000E+00 0.  1.
         11    1    3    3    0    0  0.70379278669E+01  0.15664746202E+02  0.16431616443E+01  0.17251570441E+02  0.51100000000E-03 0. -1.
        -11    1    3    3    0    0 -0.24530414393E+02  0.32918856862E+01 -0.14380598232E+02  0.28624803011E+02  0.51100000000E-03 0.  1.
         12    1    3    3    0    0  0.83852794090E+01  0.95651144465E+00 -0.10441154113E+02  0.13425554891E+02  0.00000000000E+00 0. -1.
</event>
<event>
 7    1  0.7444241E-013  0.5930182E+02  0.7816164E-02  0.1266605E+00
        -11   -1    0    0    0    0  0.00000000000E+00  0.00000000000E+00  0.45593999997E+02  0.45594000000E+02  0.51100000000E-03 0. -1.
         11   -1    0    0    0    0 -0.00000000000E+00 -0.00000000000E+00 -0.45593999997E+02  0.45594000000E+02  0.51100000000E-03 0.  1.
    9900012    2    1    2    0    0 -0.30275048776E+02  0.16198491173E+01 -0.98755187297E+01  0.59301821807E+02  0.49999777099E+02 0.  0.
        -12    1    1    2    0    0  0.30275048776E+02 -0.16198491173E+01  0.98755187297E+01  0.31886178193E+02  0.00000000000E+00 0.  1.
         11    1    3    3    0    0 -0.33840856319E+01 -0.36272107141E+01  0.29992268340E+01  0.57969004641E+01  0.51100000000E-03 0. -1.
        -11    1    3    3    0    0 -0.14084187250E+02 -0.13835981327E+02  0.90712336395E+01  0.21727539892E+02  0.51100000000E-03 0.  1.
        -12    1    3    3    0    0 -0.12806775895E+02  0.19083041159E+02 -0.21945979203E+02  0.31777381451E+02  0.00000000000E+00 0.  1.
</event>
<event>
 7    1  0.7444241E-013  0.5930155E+02  0.7816164E-02  0.1266606E+00
        -11   -1    0    0    0    0  0.00000000000E+00  0.00000000000E+00  0.45593999997E+02  0.45594000000E+02  0.51100000000E-03 0.  1.
         11   -1    0    0    0    0 -0.00000000000E+00 -0.00000000000E+00 -0.45593999997E+02  0.45594000000E+02  0.51100000000E-03 0. -1.
    9900012    2    1    2    0    0  0.15488439265E+02  0.29498123726E+01 -0.27715562730E+02  0.59301552074E+02  0.49999285165E+02 0.  0.
        -12    1    1    2    0    0 -0.15488439265E+02 -0.29498123726E+01  0.27715562730E+02  0.31886447926E+02  0.00000000000E+00 0.  1.
         11    1    3    3    0    0 -0.12063433262E+02  0.24494856684E+01  0.22105951556E+01  0.12506523630E+02  0.51100000000E-03 0. -1.
        -11    1    3    3    0    0  0.10715808133E+02 -0.36805443667E+01  0.95976268469E+00  0.11370844096E+02  0.51100000000E-03 0.  1.
         12    1    3    3    0    0  0.16836064394E+02  0.41808710709E+01 -0.30885920571E+02  0.35424184348E+02  0.00000000000E+00 0. -1.
</event>
<event>
 7    1  0.7444241E-013  0.5930195E+02  0.7816164E-02  0.1266605E+00
        -11   -1    0    0    0    0  0.00000000000E+00  0.00000000000E+00  0.45593999997E+02  0.45594000000E+02  0.51100000000E-03 0.  1.
         11   -1    0    0    0    0 -0.00000000000E+00 -0.00000000000E+00 -0.45593999997E+02  0.45594000000E+02  0.51100000000E-03 0. -1.
    9900012    2    1    2    0    0  0.53601082777E+01 -0.22274890452E+02 -0.22176992457E+02  0.59301945057E+02  0.50000001877E+02 0.  0.
        -12    1    1    2    0    0 -0.53601082777E+01  0.22274890452E+02  0.22176992457E+02  0.31886054943E+02  0.00000000000E+00 0.  1.
         11    1    3    3    0    0  0.53019909502E+01 -0.29037147441E+02 -0.25770974924E+01  0.29629520268E+02  0.51100000000E-03 0. -1.
        -11    1    3    3    0    0 -0.82399869081E+01 -0.22351413097E+01 -0.30032135921E+01  0.90505542958E+01  0.51100000000E-03 0.  1.
         12    1    3    3    0    0  0.82981042357E+01  0.89973982991E+01 -0.16596681373E+02  0.20621870493E+02  0.00000000000E+00 0. -1.
</event>
<event>
 7    1  0.7444241E-013  0.5930195E+02  0.7816164E-02  0.1266605E+00
        -11   -1    0    0    0    0  0.00000000000E+00  0.00000000000E+00  0.45593999997E+02  0.45594000000E+02  0.51100000000E-03 0.  1.
         11   -1    0    0    0    0 -0.00000000000E+00 -0.00000000000E+00 -0.45593999997E+02  0.45594000000E+02  0.51100000000E-03 0. -1.
    9900012    2    1    2    0    0 -0.27197491350E+02  0.30287823078E+01 -0.16365920233E+02  0.59301946574E+02  0.50000004643E+02 0.  0.
        -12    1    1    2    0    0  0.27197491350E+02 -0.30287823078E+01  0.16365920233E+02  0.31886053426E+02  0.00000000000E+00 0.  1.
         11    1    3    3    0    0 -0.83180318409E-01 -0.71430763833E+01 -0.84207644112E+01  0.11042632508E+02  0.51100000000E-03 0. -1.
        -11    1    3    3    0    0 -0.12628987870E+02 -0.86870716173E+01 -0.16930429852E+02  0.22838476375E+02  0.51100000000E-03 0.  1.
        -12    1    3    3    0    0 -0.14485323162E+02  0.18858930308E+02  0.89852740301E+01  0.25420837690E+02  0.00000000000E+00 0.  1.
</event>
<event>
 7    1  0.7444241E-013  0.5930194E+02  0.7816164E-02  0.1266605E+00
        -11   -1    0    0    0    0  0.00000000000E+00  0.00000000000E+00  0.45593999997E+02  0.45594000000E+02  0.51100000000E-03 0. -1.
         11   -1    0    0    0    0 -0.00000000000E+00 -0.00000000000E+00 -0.45593999997E+02  0.45594000000E+02  0.51100000000E-03 0.  1.
    9900012    2    1    2    0    0 -0.20127042405E+01 -0.27750573588E+02  0.15574836880E+02  0.59301939462E+02  0.49999991672E+02 0.  0.
        -12    1    1    2    0    0  0.20127042405E+01  0.27750573588E+02 -0.15574836880E+02  0.31886060538E+02  0.00000000000E+00 0.  1.
         11    1    3    3    0    0  0.12706491584E+02 -0.27866317825E+02  0.68010208962E+01  0.31372607207E+02  0.51100000000E-03 0. -1.
        -11    1    3    3    0    0 -0.36732424654E+01 -0.10322152388E+02  0.59639287162E+01  0.12474293011E+02  0.51100000000E-03 0.  1.
        -12    1    3    3    0    0 -0.11045953359E+02  0.10437896625E+02  0.28098872678E+01  0.15455039243E+02  0.00000000000E+00 0.  1.
</event>
<event>
 7    1  0.7444241E-013  0.5930195E+02  0.7816164E-02  0.1266605E+00
        -11   -1    0    0    0    0  0.00000000000E+00  0.00000000000E+00  0.45593999997E+02  0.45594000000E+02  0.51100000000E-03 0.  1.
         11   -1    0    0    0    0 -0.00000000000E+00 -0.00000000000E+00 -0.45593999997E+02  0.45594000000E+02  0.51100000000E-03 0. -1.
    9900012    2    1    2    0    0 -0.94205287632E+01  0.20290317970E+02  0.22721728351E+02  0.59301948116E+02  0.50000007456E+02 0.  0.
        -12    1    1    2    0    0  0.94205287632E+01 -0.20290317970E+02 -0.22721728351E+02  0.31886051884E+02  0.00000000000E+00 0.  1.
         11    1    3    3    0    0  0.13444170747E+02  0.17989004661E+02  0.25460419647E+02  0.33949712586E+02  0.51100000000E-03 0. -1.
        -11    1    3    3    0    0 -0.86850083244E+01 -0.28855313507E+01  0.22976659553E+01  0.94358322300E+01  0.51100000000E-03 0.  1.
        -12    1    3    3    0    0 -0.14179691186E+02  0.51868446591E+01 -0.50363572511E+01  0.15916403300E+02  0.00000000000E+00 0.  1.
</event>
<event>
 7    1  0.7444241E-013  0.5930192E+02  0.7816164E-02  0.1266605E+00
        -11   -1    0    0    0    0  0.00000000000E+00  0.00000000000E+00  0.45593999997E+02  0.45594000000E+02  0.51100000000E-03 0.  1.
         11   -1    0    0    0    0 -0.00000000000E+00 -0.00000000000E+00 -0.45593999997E+02  0.45594000000E+02  0.51100000000E-03 0. -1.
    9900012    2    1    2    0    0  0.30618839307E+02  0.81393791976E+01 -0.35999282955E+01  0.59301916861E+02  0.49999950454E+02 0.  0.
        -12    1    1    2    0    0 -0.30618839307E+02 -0.81393791976E+01  0.35999282955E+01  0.31886083139E+02  0.00000000000E+00 0.  1.
         11    1    3    3    0    0 -0.14809548709E+00  0.50936734927E+01  0.28109653389E+01  0.58197051748E+01  0.51100000000E-03 0. -1.
        -11    1    3    3    0    0  0.12548350354E+02 -0.18811448493E+02  0.44119871812E+01  0.23039039089E+02  0.51100000000E-03 0.  1.
         12    1    3    3    0    0  0.18218584440E+02  0.21857154198E+02 -0.10822880816E+02  0.30443172597E+02  0.00000000000E+00 0. -1.
</event>
<event>
 7    1  0.7444241E-013  0.5930194E+02  0.7816164E-02  0.1266605E+00
        -11   -1    0    0    0    0  0.00000000000E+00  0.00000000000E+00  0.45593999997E+02  0.45594000000E+02  0.51100000000E-03 0. -1.
         11   -1    0    0    0    0 -0.00000000000E+00 -0.00000000000E+00 -0.45593999997E+02  0.45594000000E+02  0.51100000000E-03 0.  1.
    9900012    2    1    2    0    0  0.16470496249E+02  0.33961372483E+01  0.27090766706E+02  0.59301942928E+02  0.49999997994E+02 0.  0.
        -12    1    1    2    0    0 -0.16470496249E+02 -0.33961372483E+01 -0.27090766706E+02  0.31886057072E+02  0.00000000000E+00 0.  1.
         11    1    3    3    0    0  0.15798049443E+02 -0.96249187640E+01  0.27144387954E+02  0.32848671587E+02  0.51100000000E-03 0. -1.
        -11    1    3    3    0    0  0.62134452080E+01 -0.40058147861E+01  0.35301074098E+01  0.81923813412E+01  0.51100000000E-03 0.  1.
        -12    1    3    3    0    0 -0.55409984019E+01  0.17026870798E+02 -0.35837286578E+01  0.18260889999E+02  0.00000000000E+00 0.  1.
</event>
<event>
 7    1  0.7444241E-013  0.5930194E+02  0.7816164E-02  0.1266605E+00
        -11   -1    0    0    0    0  0.00000000000E+00  0.00000000000E+00  0.45593999997E+02  0.45594000000E+02  0.51100000000E-03 0. -1.
         11   -1    0    0    0    0 -0.00000000000E+00 -0.00000000000E+00 -0.45593999997E+02  0.45594000000E+02  0.51100000000E-03 0.  1.
    9900012    2    1    2    0    0 -0.75684438256E+01  0.70862362295E+01  0.30153352424E+02  0.59301941161E+02  0.49999994772E+02 0.  0.
        -12    1    1    2    0    0  0.75684438256E+01 -0.70862362295E+01 -0.30153352424E+02  0.31886058839E+02  0.00000000000E+00 0.  1.
         11    1    3    3    0    0 -0.43742511968E+00  0.36464988732E+01 -0.72902149670E+01  0.81630588197E+01  0.51100000000E-03 0. -1.
        -11    1    3    3    0    0 -0.17934854510E+02 -0.20552754084E+00  0.81430793146E+01  0.19697994539E+02  0.51100000000E-03 0.  1.
         12    1    3    3    0    0  0.10803835805E+02  0.36452648971E+01  0.29300488077E+02  0.31440887802E+02  0.00000000000E+00 0. -1.
</event>
<event>
 7    1  0.7444241E-013  0.5930194E+02  0.7816164E-02  0.1266605E+00
        -11   -1    0    0    0    0  0.00000000000E+00  0.00000000000E+00  0.45593999997E+02  0.45594000000E+02  0.51100000000E-03 0. -1.
         11   -1    0    0    0    0 -0.00000000000E+00 -0.00000000000E+00 -0.45593999997E+02  0.45594000000E+02  0.51100000000E-03 0.  1.
    9900012    2    1    2    0    0  0.19714878679E+02  0.14569040523E+02  0.20390865683E+02  0.59301940563E+02  0.49999993681E+02 0.  0.
        -12    1    1    2    0    0 -0.19714878679E+02 -0.14569040523E+02 -0.20390865683E+02  0.31886059437E+02  0.00000000000E+00 0.  1.
         11    1    3    3    0    0 -0.91785613370E+01 -0.52171276286E+00  0.16480147469E+02  0.18870968001E+02  0.51100000000E-03 0. -1.
        -11    1    3    3    0    0  0.83070216567E+01  0.17567706006E+02  0.31150653905E+01  0.19680816440E+02  0.51100000000E-03 0.  1.
        -12    1    3    3    0    0  0.20586418360E+02 -0.24769527197E+01  0.79565282407E+00  0.20750156122E+02  0.00000000000E+00 0.  1.
</event>
<event>
 7    1  0.7444241E-013  0.5930176E+02  0.7816164E-02  0.1266605E+00
        -11   -1    0    0    0    0  0.00000000000E+00  0.00000000000E+00  0.45593999997E+02  0.45594000000E+02  0.51100000000E-03 0.  1.
         11   -1    0    0    0    0 -0.00000000000E+00 -0.00000000000E+00 -0.45593999997E+02  0.45594000000E+02  0.51100000000E-03 0. -1.
    9900012    2    1    2    0    0  0.25280854833E+02  0.11010293713E+02 -0.16012001607E+02  0.59301758701E+02  0.49999662008E+02 0.  0.
        -12    1    1    2    0    0 -0.25280854833E+02 -0.11010293713E+02  0.16012001607E+02  0.31886241299E+02  0.00000000000E+00 0.  1.
         11    1    3    3    0    0  0.19829450802E+02  0.46648544288E-01 -0.23843553006E+02  0.31011680306E+02  0.51100000000E-03 0. -1.
        -11    1    3    3    0    0  0.48636065852E+01 -0.32780608243E+01 -0.60268845655E+01  0.84097377848E+01  0.51100000000E-03 0.  1.
        -12    1    3    3    0    0  0.58779744530E+00  0.14241705993E+02  0.13858435964E+02  0.19880340611E+02  0.00000000000E+00 0.  1.
</event>
<event>
 7    1  0.7444241E-013  0.5930197E+02  0.7816164E-02  0.1266605E+00
        -11   -1    0    0    0    0  0.00000000000E+00  0.00000000000E+00  0.45593999997E+02  0.45594000000E+02  0.51100000000E-03 0.  1.
         11   -1    0    0    0    0 -0.00000000000E+00 -0.00000000000E+00 -0.45593999997E+02  0.45594000000E+02  0.51100000000E-03 0. -1.
    9900012    2    1    2    0    0  0.29916611891E+02  0.52037028809E+01 -0.97281383014E+01  0.59301970684E+02  0.50000048615E+02 0.  0.
        -12    1    1    2    0    0 -0.29916611891E+02 -0.52037028809E+01  0.97281383014E+01  0.31886029316E+02  0.00000000000E+00 0.  1.
         11    1    3    3    0    0  0.14528613075E+02  0.95362374281E+01 -0.50415852119E+01  0.18095248102E+02  0.51100000000E-03 0. -1.
        -11    1    3    3    0    0  0.54892093119E+01 -0.87706275829E+01  0.15297528276E+02  0.18468072414E+02  0.51100000000E-03 0.  1.
         12    1    3    3    0    0  0.98987895039E+01  0.44380930357E+01 -0.19984081366E+02  0.22738650168E+02  0.00000000000E+00 0. -1.
</event>
<event>
 7    1  0.7444241E-013  0.5930193E+02  0.7816164E-02  0.1266605E+00
        -11   -1    0    0    0    0  0.00000000000E+00  0.00000000000E+00  0.45593999997E+02  0.45594000000E+02  0.51100000000E-03 0. -1.
         11   -1    0    0    0    0 -0.00000000000E+00 -0.00000000000E+00 -0.45593999997E+02  0.45594000000E+02  0.51100000000E-03 0.  1.
    9900012    2    1    2    0    0 -0.23745591038E+02  0.19180042594E+02  0.92192423838E+01  0.59301928467E+02  0.49999971621E+02 0.  0.
        -12    1    1    2    0    0  0.23745591038E+02 -0.19180042594E+02 -0.92192423838E+01  0.31886071533E+02  0.00000000000E+00 0.  1.
         11    1    3    3    0    0 -0.12915755731E+01  0.61727436904E+01  0.23933206531E+02  0.24750137520E+02  0.51100000000E-03 0. -1.
        -11    1    3    3    0    0 -0.15937737334E+01  0.87519042791E+01 -0.86669299693E+01  0.12419807510E+02  0.51100000000E-03 0.  1.
        -12    1    3    3    0    0 -0.20860241732E+02  0.42553946244E+01 -0.60470341783E+01  0.22131983437E+02  0.00000000000E+00 0.  1.
</event>
<event>
 7    1  0.7444241E-013  0.5930163E+02  0.7816164E-02  0.1266606E+00
        -11   -1    0    0    0    0  0.00000000000E+00  0.00000000000E+00  0.45593999997E+02  0.45594000000E+02  0.51100000000E-03 0. -1.
         11   -1    0    0    0    0 -0.00000000000E+00 -0.00000000000E+00 -0.45593999997E+02  0.45594000000E+02  0.51100000000E-03 0.  1.
    9900012    2    1    2    0    0 -0.12086059418E+02  0.20707874188E+01  0.29434326220E+02  0.59301630611E+02  0.49999428400E+02 0.  0.
        -12    1    1    2    0    0  0.12086059418E+02 -0.20707874188E+01 -0.29434326220E+02  0.31886369389E+02  0.00000000000E+00 0.  1.
         11    1    3    3    0    0 -0.65482899232E+01 -0.23827403683E+01  0.12941586483E+02  0.14698374520E+02  0.51100000000E-03 0. -1.
        -11    1    3    3    0    0  0.13071549835E+02 -0.81831534228E+00  0.20994363533E+02  0.24744663172E+02  0.51100000000E-03 0.  1.
         12    1    3    3    0    0 -0.18609319330E+02  0.52718431293E+01 -0.45016237960E+01  0.19858592918E+02  0.00000000000E+00 0. -1.
</event>
<event>
 7    1  0.7444241E-013  0.5930193E+02  0.7816164E-02  0.1266605E+00
        -11   -1    0    0    0    0  0.00000000000E+00  0.00000000000E+00  0.45593999997E+02  0.45594000000E+02  0.51100000000E-03 0.  1.
         11   -1    0    0    0    0 -0.00000000000E+00 -0.00000000000E+00 -0.45593999997E+02  0.45594000000E+02  0.51100000000E-03 0. -1.
    9900012    2    1    2    0    0  0.25291483384E+02 -0.67159941138E+01 -0.18219702000E+02  0.59301933298E+02  0.49999980432E+02 0.  0.
        -12    1    1    2    0    0 -0.25291483384E+02  0.67159941138E+01  0.18219702000E+02  0.31886066702E+02  0.00000000000E+00 0.  1.
         11    1    3    3    0    0  0.18407645415E+02 -0.73718921545E+01 -0.24664334791E+02  0.31646731500E+02  0.51100000000E-03 0. -1.
        -11    1    3    3    0    0 -0.93267101612E+01 -0.38002049526E+01  0.27933520417E+01  0.10451406413E+02  0.51100000000E-03 0.  1.
        -12    1    3    3    0    0  0.16210548130E+02  0.44561029933E+01  0.36512807491E+01  0.17203795386E+02  0.00000000000E+00 0.  1.
</event>
<event>
 7    1  0.7444241E-013  0.5930195E+02  0.7816164E-02  0.1266605E+00
        -11   -1    0    0    0    0  0.00000000000E+00  0.00000000000E+00  0.45593999997E+02  0.45594000000E+02  0.51100000000E-03 0. -1.
         11   -1    0    0    0    0 -0.00000000000E+00 -0.00000000000E+00 -0.45593999997E+02  0.45594000000E+02  0.51100000000E-03 0.  1.
    9900012    2    1    2    0    0  0.47304966833E+00  0.31106772628E+02 -0.69903444242E+01  0.59301952981E+02  0.50000016329E+02 0.  0.
        -12    1    1    2    0    0 -0.47304966833E+00 -0.31106772628E+02  0.69903444242E+01  0.31886047019E+02  0.00000000000E+00 0.  1.
         11    1    3    3    0    0 -0.14148876844E+02  0.26463493779E+02  0.10530976896E+02  0.31802652304E+02  0.51100000000E-03 0. -1.
        -11    1    3    3    0    0  0.89097666992E-01  0.84657551545E+00  0.24019046614E+01  0.25482885946E+01  0.51100000000E-03 0.  1.
         12    1    3    3    0    0  0.14532828845E+02  0.37967033337E+01 -0.19923225981E+02  0.24951012082E+02  0.00000000000E+00 0. -1.
</event>
<event>
 7    1  0.7444241E-013  0.5930194E+02  0.7816164E-02  0.1266605E+00
        -11   -1    0    0    0    0  0.00000000000E+00  0.00000000000E+00  0.45593999997E+02  0.45594000000E+02  0.51100000000E-03 0.  1.
         11   -1    0    0    0    0 -0.00000000000E+00 -0.00000000000E+00 -0.45593999997E+02  0.45594000000E+02  0.51100000000E-03 0. -1.
    9900012    2    1    2    0    0 -0.10421792720E+02  0.25001298450E+02  0.16823863912E+02  0.59301935887E+02  0.49999985154E+02 0.  0.
        -12    1    1    2    0    0  0.10421792720E+02 -0.25001298450E+02 -0.16823863912E+02  0.31886064113E+02  0.00000000000E+00 0.  1.
         11    1    3    3    0    0 -0.29694304850E+02  0.13466977764E+02  0.41974656126E+01  0.32874457387E+02  0.51100000000E-03 0. -1.
        -11    1    3    3    0    0  0.45399600543E+01  0.30349535795E+01  0.39024552980E+00  0.54748947350E+01  0.51100000000E-03 0.  1.
        -12    1    3    3    0    0  0.14732552076E+02  0.84993671059E+01  0.12236152770E+02  0.20952583766E+02  0.00000000000E+00 0.  1.
</event>
<event>
 7    1  0.7444241E-013  0.5930193E+02  0.7816164E-02  0.1266605E+00
        -11   -1    0    0    0    0  0.00000000000E+00  0.00000000000E+00  0.45593999997E+02  0.45594000000E+02  0.51100000000E-03 0. -1.
         11   -1    0    0    0    0 -0.00000000000E+00 -0.00000000000E+00 -0.45593999997E+02  0.45594000000E+02  0.51100000000E-03 0.  1.
    9900012    2    1    2    0    0  0.24434899548E+02  0.15307549039E+02 -0.13613822622E+02  0.59301928748E+02  0.49999972134E+02 0.  0.
        -12    1    1    2    0    0 -0.24434899548E+02 -0.15307549039E+02  0.13613822622E+02  0.31886071252E+02  0.00000000000E+00 0.  1.
         11    1    3    3    0    0 -0.56406782187E+01  0.11679420261E+02  0.40926989468E+01  0.13600599006E+02  0.51100000000E-03 0. -1.
        -11    1    3    3    0    0 -0.20182425993E+01  0.84205301062E+01  0.15542000496E+00  0.86604148918E+01  0.51100000000E-03 0.  1.
        -12    1    3    3    0    0  0.32093820366E+02 -0.47924013276E+01 -0.17861941573E+02  0.37040914850E+02  0.00000000000E+00 0.  1.
</event>
<event>
 7    1  0.7444241E-013  0.5930197E+02  0.7816164E-02  0.1266605E+00
        -11   -1    0    0    0    0  0.00000000000E+00  0.00000000000E+00  0.45593999997E+02  0.45594000000E+02  0.51100000000E-03 0.  1.
         11   -1    0    0    0    0 -0.00000000000E+00 -0.00000000000E+00 -0.45593999997E+02  0.45594000000E+02  0.51100000000E-03 0. -1.
    9900012    2    1    2    0    0 -0.17422139609E+02  0.20544568434E+02 -0.17061911263E+02  0.59301967687E+02  0.50000043149E+02 0.  0.
        -12    1    1    2    0    0  0.17422139609E+02 -0.20544568434E+02  0.17061911263E+02  0.31886032313E+02  0.00000000000E+00 0.  1.
         11    1    3    3    0    0 -0.17524673785E+02  0.97996195534E+01  0.52045448988E+01  0.20742083370E+02  0.51100000000E-03 0. -1.
        -11    1    3    3    0    0  0.69905485830E+00 -0.77042527583E+00  0.70140246899E+01  0.70907528100E+01  0.51100000000E-03 0.  1.
         12    1    3    3    0    0 -0.59652068231E+00  0.11515374156E+02 -0.29280480852E+02  0.31469131507E+02  0.00000000000E+00 0. -1.
</event>
<event>
 7    1  0.7444241E-013  0.5930199E+02  0.7816164E-02  0.1266605E+00
        -11   -1    0    0    0    0  0.00000000000E+00  0.00000000000E+00  0.45593999997E+02  0.45594000000E+02  0.51100000000E-03 0.  1.
         11   -1    0    0    0    0 -0.00000000000E+00 -0.00000000000E+00 -0.45593999997E+02  0.45594000000E+02  0.51100000000E-03 0. -1.
    9900012    2    1    2    0    0  0.19341682677E+02  0.17024320572E+02 -0.18782686809E+02  0.59301992043E+02  0.50000087568E+02 0.  0.
        -12    1    1    2    0    0 -0.19341682677E+02 -0.17024320572E+02  0.18782686809E+02  0.31886007957E+02  0.00000000000E+00 0.  1.
         11    1    3    3    0    0 -0.60698184002E+01  0.71845974665E+01  0.67024601584E+01  0.11549203808E+02  0.51100000000E-03 0. -1.
        -11    1    3    3    0    0 -0.41804982662E+01  0.97605916476E+01 -0.87319529807E+01  0.13747462245E+02  0.51100000000E-03 0.  1.
         12    1    3    3    0    0  0.29591999343E+02  0.79131457976E-01 -0.16753193986E+02  0.34005325989E+02  0.00000000000E+00 0. -1.
</event>
<event>
 7    1  0.7444241E-013  0.5930195E+02  0.7816164E-02  0.1266605E+00
        -11   -1    0    0    0    0  0.00000000000E+00  0.00000000000E+00  0.45593999997E+02  0.45594000000E+02  0.51100000000E-03 0. -1.
         11   -1    0    0    0    0 -0.00000000000E+00 -0.00000000000E+00 -0.45593999997E+02  0.45594000000E+02  0.51100000000E-03 0.  1.
    9900012    2    1    2    0    0  0.30454973775E+01 -0.92898380715E+01  0.30350356009E+02  0.59301948888E+02  0.50000008864E+02 0.  0.
        -12    1    1    2    0    0 -0.30454973775E+01  0.92898380715E+01 -0.30350356009E+02  0.31886051112E+02  0.00000000000E+00 0.  1.
         11    1    3    3    0    0  0.56040487680E+00 -0.35254012231E+01  0.15674988196E+02  0.16076310603E+02  0.51100000000E-03 0. -1.
        -11    1    3    3    0    0  0.20613129321E+02  0.38058447818E+00  0.12118149723E+02  0.23914336661E+02  0.51100000000E-03 0.  1.
        -12    1    3    3    0    0 -0.18128036820E+02 -0.61450213266E+01  0.25572180900E+01  0.19311301624E+02  0.00000000000E+00 0.  1.
</event>
<event>
 7    1  0.7444241E-013  0.5930185E+02  0.7816164E-02  0.1266605E+00
        -11   -1    0    0    0    0  0.00000000000E+00  0.00000000000E+00  0.45593999997E+02  0.45594000000E+02  0.51100000000E-03 0.  1.
         11   -1    0    0    0    0 -0.00000000000E+00 -0.00000000000E+00 -0.45593999997E+02  0.45594000000E+02  0.51100000000E-03 0. -1.
    9900012    2    1    2    0    0  0.15006516582E+02 -0.25965223226E+02  0.10832263560E+02  0.59301854248E+02  0.49999836263E+02 0.  0.
        -12    1    1    2    0    0 -0.15006516582E+02  0.25965223226E+02 -0.10832263560E+02  0.31886145752E+02  0.00000000000E+00 0.  1.
         11    1    3    3    0    0  0.11205927860E+02 -0.12624435353E+02 -0.14077623141E+02  0.21980187914E+02  0.51100000000E-03 0. -1.
        -11    1    3    3    0    0 -0.61344550845E+01  0.37235658084E+01  0.28660405653E+01  0.77272679710E+01  0.51100000000E-03 0.  1.
        -12    1    3    3    0    0  0.99350438061E+01 -0.17064353681E+02  0.22043846136E+02  0.29594398363E+02  0.00000000000E+00 0.  1.
</event>
<event>
 7    1  0.7444241E-013  0.5930192E+02  0.7816164E-02  0.1266605E+00
        -11   -1    0    0    0    0  0.00000000000E+00  0.00000000000E+00  0.45593999997E+02  0.45594000000E+02  0.51100000000E-03 0.  1.
         11   -1    0    0    0    0 -0.00000000000E+00 -0.00000000000E+00 -0.45593999997E+02  0.45594000000E+02  0.51100000000E-03 0. -1.
    9900012    2    1    2    0    0 -0.69678231315E+01 -0.24257531087E+02 -0.19487010594E+02  0.59301922231E+02  0.49999960248E+02 0.  0.
        -12    1    1    2    0    0  0.69678231315E+01  0.24257531087E+02  0.19487010594E+02  0.31886077769E+02  0.00000000000E+00 0.  1.
         11    1    3    3    0    0 -0.42650564281E+01 -0.16499856464E+02  0.10455148099E+02  0.19993651285E+02  0.51100000000E-03 0. -1.
        -11    1    3    3    0    0 -0.12846433807E+01 -0.15206047908E+01  0.41598463564E+01  0.46116016215E+01  0.51100000000E-03 0.  1.
        -12    1    3    3    0    0 -0.14181233227E+01 -0.62370698316E+01 -0.34102005049E+02  0.34696669324E+02  0.00000000000E+00 0.  1.
</event>
<event>
 7    1  0.7444241E-013  0.5930216E+02  0.7816164E-02  0.1266604E+00
        -11   -1    0    0    0    0  0.00000000000E+00  0.00000000000E+00  0.45593999997E+02  0.45594000000E+02  0.51100000000E-03 0.  1.
         11   -1    0    0    0    0 -0.00000000000E+00 -0.00000000000E+00 -0.45593999997E+02  0.45594000000E+02  0.51100000000E-03 0. -1.
    9900012    2    1    2    0    0  0.26461597150E+02 -0.36871911430E+00 -0.17786359677E+02  0.59302161951E+02  0.50000397439E+02 0.  0.
        -12    1    1    2    0    0 -0.26461597150E+02  0.36871911430E+00  0.17786359677E+02  0.31885838049E+02  0.00000000000E+00 0.  1.
         11    1    3    3    0    0  0.24133823142E+02  0.86584985303E+01  0.34197813162E+01  0.25867081799E+02  0.51100000000E-03 0. -1.
        -11    1    3    3    0    0 -0.23130966414E+01  0.11950073077E+01  0.46039756869E+01  0.52891446307E+01  0.51100000000E-03 0.  1.
         12    1    3    3    0    0  0.46408706484E+01 -0.10222224952E+02 -0.25810116680E+02  0.28145935522E+02  0.00000000000E+00 0. -1.
</event>
<event>
 7    1  0.7444241E-013  0.5930193E+02  0.7816164E-02  0.1266605E+00
        -11   -1    0    0    0    0  0.00000000000E+00  0.00000000000E+00  0.45593999997E+02  0.45594000000E+02  0.51100000000E-03 0. -1.
         11   -1    0    0    0    0 -0.00000000000E+00 -0.00000000000E+00 -0.45593999997E+02  0.45594000000E+02  0.51100000000E-03 0.  1.
    9900012    2    1    2    0    0  0.47921509853E+01 -0.30770206533E+02 -0.68520907190E+01  0.59301929870E+02  0.49999974179E+02 0.  0.
        -12    1    1    2    0    0 -0.47921509853E+01  0.30770206533E+02  0.68520907190E+01  0.31886070130E+02  0.00000000000E+00 0.  1.
         11    1    3    3    0    0  0.61340951578E+01 -0.17079654323E+02  0.42007389174E+01  0.18627611841E+02  0.51100000000E-03 0. -1.
        -11    1    3    3    0    0  0.34185139218E+01 -0.22747198295E+02  0.30998354884E+01  0.23210563286E+02  0.51100000000E-03 0.  1.
        -12    1    3    3    0    0 -0.47604580944E+01  0.90566460851E+01 -0.14152665125E+02  0.17463754743E+02  0.00000000000E+00 0.  1.
</event>
<event>
 7    1  0.7444241E-013  0.5930194E+02  0.7816164E-02  0.1266605E+00
        -11   -1    0    0    0    0  0.00000000000E+00  0.00000000000E+00  0.45593999997E+02  0.45594000000E+02  0.51100000000E-03 0.  1.
         11   -1    0    0    0    0 -0.00000000000E+00 -0.00000000000E+00 -0.45593999997E+02  0.45594000000E+02  0.51100000000E-03 0. -1.
    9900012    2    1    2    0    0 -0.11449864335E+02  0.77693587528E+01 -0.28727315436E+02  0.59301937513E+02  0.49999988119E+02 0.  0.
        -12    1    1    2    0    0  0.11449864335E+02 -0.77693587528E+01  0.28727315436E+02  0.31886062487E+02  0.00000000000E+00 0.  1.
         11    1    3    3    0    0 -0.17482080222E+02  0.21821413907E+01 -0.28490114264E+02  0.33497335431E+02  0.51100000000E-03 0. -1.
        -11    1    3    3    0    0  0.12484897693E+01 -0.69336118857E+01 -0.77219346381E+01  0.10452845321E+02  0.51100000000E-03 0.  1.
        -12    1    3    3    0    0  0.47837261175E+01  0.12520829248E+02  0.74847334656E+01  0.15351756762E+02  0.00000000000E+00 0.  1.
</event>
<event>
 7    1  0.7444241E-013  0.5930195E+02  0.7816164E-02  0.1266605E+00
        -11   -1    0    0    0    0  0.00000000000E+00  0.00000000000E+00  0.45593999997E+02  0.45594000000E+02  0.51100000000E-03 0.  1.
         11   -1    0    0    0    0 -0.00000000000E+00 -0.00000000000E+00 -0.45593999997E+02  0.45594000000E+02  0.51100000000E-03 0. -1.
    9900012    2    1    2    0    0  0.98821602410E+01 -0.15061254929E+02 -0.26310105310E+02  0.59301950817E+02  0.50000012382E+02 0.  0.
        -12    1    1    2    0    0 -0.98821602410E+01  0.15061254929E+02  0.26310105310E+02  0.31886049183E+02  0.00000000000E+00 0.  1.
         11    1    3    3    0    0  0.13045742374E+02  0.22450323773E+01 -0.12216828344E+02  0.18013396668E+02  0.51100000000E-03 0. -1.
        -11    1    3    3    0    0  0.12248330663E+02 -0.36622796091E+01 -0.16155585277E+02  0.20601864767E+02  0.51100000000E-03 0.  1.
        -12    1    3    3    0    0 -0.15411912795E+02 -0.13644007697E+02  0.20623083106E+01  0.20686689383E+02  0.00000000000E+00 0.  1.
</event>
<event>
 7    1  0.7444241E-013  0.5930194E+02  0.7816164E-02  0.1266605E+00
        -11   -1    0    0    0    0  0.00000000000E+00  0.00000000000E+00  0.45593999997E+02  0.45594000000E+02  0.51100000000E-03 0.  1.
         11   -1    0    0    0    0 -0.00000000000E+00 -0.00000000000E+00 -0.45593999997E+02  0.45594000000E+02  0.51100000000E-03 0. -1.
    9900012    2    1    2    0    0  0.16165377858E+02 -0.12433517284E+02 -0.24511405906E+02  0.59301940149E+02  0.49999992926E+02 0.  0.
        -12    1    1    2    0    0 -0.16165377858E+02  0.12433517284E+02  0.24511405906E+02  0.31886059851E+02  0.00000000000E+00 0.  1.
         11    1    3    3    0    0  0.44375653588E+00 -0.49121833534E+00  0.13812053901E+01  0.15316474486E+01  0.51100000000E-03 0. -1.
        -11    1    3    3    0    0 -0.15788470745E+02  0.40555253023E+01 -0.84727984956E+01  0.18371483570E+02  0.51100000000E-03 0.  1.
         12    1    3    3    0    0  0.31510092068E+02 -0.15997824251E+02 -0.17419812800E+02  0.39398809130E+02  0.00000000000E+00 0. -1.
</event>
<event>
 7    1  0.7444241E-013  0.5930193E+02  0.7816164E-02  0.1266605E+00
        -11   -1    0    0    0    0  0.00000000000E+00  0.00000000000E+00  0.45593999997E+02  0.45594000000E+02  0.51100000000E-03 0.  1.
         11   -1    0    0    0    0 -0.00000000000E+00 -0.00000000000E+00 -0.45593999997E+02  0.45594000000E+02  0.51100000000E-03 0. -1.
    9900012    2    1    2    0    0 -0.26460735553E+02 -0.28083474036E+01 -0.17568839215E+02  0.59301930118E+02  0.49999974632E+02 0.  0.
        -12    1    1    2    0    0  0.26460735553E+02  0.28083474036E+01  0.17568839215E+02  0.31886069882E+02  0.00000000000E+00 0.  1.
         11    1    3    3    0    0  0.73849781354E+01 -0.19151895240E+01  0.55776272497E+01  0.94507025649E+01  0.51100000000E-03 0. -1.
        -11    1    3    3    0    0 -0.22263880912E+02 -0.10551014541E+02 -0.31980043817E+01  0.24844144851E+02  0.51100000000E-03 0.  1.
         12    1    3    3    0    0 -0.11581832777E+02  0.96578566615E+01 -0.19948462083E+02  0.25007082702E+02  0.00000000000E+00 0. -1.
</event>
<event>
 7    1  0.7444241E-013  0.5930195E+02  0.7816164E-02  0.1266605E+00
        -11   -1    0    0    0    0  0.00000000000E+00  0.00000000000E+00  0.45593999997E+02  0.45594000000E+02  0.51100000000E-03 0. -1.
         11   -1    0    0    0    0 -0.00000000000E+00 -0.00000000000E+00 -0.45593999997E+02  0.45594000000E+02  0.51100000000E-03 0.  1.
    9900012    2    1    2    0    0  0.23252838430E+02  0.77035958037E+01 -0.20412752823E+02  0.59301947231E+02  0.50000005842E+02 0.  0.
        -12    1    1    2    0    0 -0.23252838430E+02 -0.77035958037E+01  0.20412752823E+02  0.31886052769E+02  0.00000000000E+00 0.  1.
         11    1    3    3    0    0  0.36338440054E+01  0.77441913143E+01  0.66121202737E+01  0.10811912696E+02  0.51100000000E-03 0. -1.
        -11    1    3    3    0    0  0.22554144259E+02  0.13199810771E+02 -0.13822851861E+02  0.29563417622E+02  0.51100000000E-03 0.  1.
         12    1    3    3    0    0 -0.29351498348E+01 -0.13240406282E+02 -0.13202021236E+02  0.18926616913E+02  0.00000000000E+00 0. -1.
</event>
<event>
 7    1  0.7444241E-013  0.5930196E+02  0.7816164E-02  0.1266605E+00
        -11   -1    0    0    0    0  0.00000000000E+00  0.00000000000E+00  0.45593999997E+02  0.45594000000E+02  0.51100000000E-03 0. -1.
         11   -1    0    0    0    0 -0.00000000000E+00 -0.00000000000E+00 -0.45593999997E+02  0.45594000000E+02  0.51100000000E-03 0.  1.
    9900012    2    1    2    0    0  0.78440674994E+01  0.21448891652E+02  0.22251638724E+02  0.59301956439E+02  0.50000022635E+02 0.  0.
        -12    1    1    2    0    0 -0.78440674994E+01 -0.21448891652E+02 -0.22251638724E+02  0.31886043561E+02  0.00000000000E+00 0.  1.
         11    1    3    3    0    0 -0.15185261851E+02 -0.94977500683E+00  0.14666379690E+02  0.21132840403E+02  0.51100000000E-03 0. -1.
        -11    1    3    3    0    0  0.83225739685E+00  0.62932832455E+00 -0.46441707075E+01  0.47599399509E+01  0.51100000000E-03 0.  1.
         12    1    3    3    0    0  0.22197071954E+02  0.21769338335E+02  0.12229429742E+02  0.33409176085E+02  0.00000000000E+00 0. -1.
</event>
<event>
 7    1  0.7444241E-013  0.5930194E+02  0.7816164E-02  0.1266605E+00
        -11   -1    0    0    0    0  0.00000000000E+00  0.00000000000E+00  0.45593999997E+02  0.45594000000E+02  0.51100000000E-03 0.  1.
         11   -1    0    0    0    0 -0.00000000000E+00 -0.00000000000E+00 -0.45593999997E+02  0.45594000000E+02  0.51100000000E-03 0. -1.
    9900012    2    1    2    0    0 -0.28144327072E+02  0.13412354710E+02 -0.66878041913E+01  0.59301935174E+02  0.49999983853E+02 0.  0.
        -12    1    1    2    0    0  0.28144327072E+02 -0.13412354710E+02  0.66878041913E+01  0.31886064826E+02  0.00000000000E+00 0.  1.
         11    1    3    3    0    0 -0.22315876264E+01 -0.65007914499E+01 -0.11985654576E+02  0.13816518689E+02  0.51100000000E-03 0. -1.
        -11    1    3    3    0    0  0.64361944779E+01 -0.11360887157E+01  0.49774992897E-01  0.65358836234E+01  0.51100000000E-03 0.  1.
         12    1    3    3    0    0 -0.32348933924E+02  0.21049234875E+02  0.52480753914E+01  0.38949532862E+02  0.00000000000E+00 0. -1.
</event>
<event>
 7    1  0.7444241E-013  0.5930166E+02  0.7816164E-02  0.1266606E+00
        -11   -1    0    0    0    0  0.00000000000E+00  0.00000000000E+00  0.45593999997E+02  0.45594000000E+02  0.51100000000E-03 0.  1.
         11   -1    0    0    0    0 -0.00000000000E+00 -0.00000000000E+00 -0.45593999997E+02  0.45594000000E+02  0.51100000000E-03 0. -1.
    9900012    2    1    2    0    0  0.29233462698E+01 -0.21329909522E+02 -0.23520797448E+02  0.59301656431E+02  0.49999475490E+02 0.  0.
        -12    1    1    2    0    0 -0.29233462698E+01  0.21329909522E+02  0.23520797448E+02  0.31886343569E+02  0.00000000000E+00 0.  1.
         11    1    3    3    0    0 -0.22046387504E+01 -0.81559927059E+01 -0.10957310253E+01  0.85194645242E+01  0.51100000000E-03 0. -1.
        -11    1    3    3    0    0 -0.44508241537E+01  0.69335091173E+01  0.90404820128E+01  0.12231667900E+02  0.51100000000E-03 0.  1.
         12    1    3    3    0    0  0.95788091740E+01 -0.20107425933E+02 -0.31465548435E+02  0.38550524007E+02  0.00000000000E+00 0. -1.
</event>
<event>
 7    1  0.7444241E-013  0.5930194E+02  0.7816164E-02  0.1266605E+00
        -11   -1    0    0    0    0  0.00000000000E+00  0.00000000000E+00  0.45593999997E+02  0.45594000000E+02  0.51100000000E-03 0.  1.
         11   -1    0    0    0    0 -0.00000000000E+00 -0.00000000000E+00 -0.45593999997E+02  0.45594000000E+02  0.51100000000E-03 0. -1.
    9900012    2    1    2    0    0  0.37269681424E+01 -0.72310839238E+01 -0.30830857563E+02  0.59301942792E+02  0.49999997746E+02 0.  0.
        -12    1    1    2    0    0 -0.37269681424E+01  0.72310839238E+01  0.30830857563E+02  0.31886057208E+02  0.00000000000E+00 0.  1.
         11    1    3    3    0    0 -0.99306274864E+01  0.40223781346E+01 -0.22247135567E+02  0.24692750542E+02  0.51100000000E-03 0. -1.
        -11    1    3    3    0    0  0.10900568089E+02 -0.46277392748E+01 -0.18743111661E+02  0.22170759808E+02  0.51100000000E-03 0.  1.
         12    1    3    3    0    0  0.27570275398E+01 -0.66257227836E+01  0.10159389665E+02  0.12438432442E+02  0.00000000000E+00 0. -1.
</event>
<event>
 7    1  0.7444241E-013  0.5930203E+02  0.7816164E-02  0.1266604E+00
        -11   -1    0    0    0    0  0.00000000000E+00  0.00000000000E+00  0.45593999997E+02  0.45594000000E+02  0.51100000000E-03 0.  1.
         11   -1    0    0    0    0 -0.00000000000E+00 -0.00000000000E+00 -0.45593999997E+02  0.45594000000E+02  0.51100000000E-03 0. -1.
    9900012    2    1    2    0    0 -0.31300940000E+02  0.52916178320E+01 -0.29941928155E+01  0.59302027304E+02  0.50000151876E+02 0.  0.
        -12    1    1    2    0    0  0.31300940000E+02 -0.52916178320E+01  0.29941928155E+01  0.31885972696E+02  0.00000000000E+00 0.  1.
         11    1    3    3    0    0 -0.50905416022E+00 -0.33067219863E+01 -0.71762781150E+01  0.79178604609E+01  0.51100000000E-03 0. -1.
        -11    1    3    3    0    0 -0.35031904571E+02 -0.59927400379E+01 -0.30067458214E+00  0.35542055040E+02  0.51100000000E-03 0.  1.
        -12    1    3    3    0    0  0.42400187314E+01  0.14591079856E+02  0.44827598817E+01  0.15842111803E+02  0.00000000000E+00 0.  1.
</event>
<event>
 7    1  0.7444241E-013  0.5930198E+02  0.7816164E-02  0.1266605E+00
        -11   -1    0    0    0    0  0.00000000000E+00  0.00000000000E+00  0.45593999997E+02  0.45594000000E+02  0.51100000000E-03 0.  1.
         11   -1    0    0    0    0 -0.00000000000E+00 -0.00000000000E+00 -0.45593999997E+02  0.45594000000E+02  0.51100000000E-03 0. -1.
    9900012    2    1    2    0    0  0.15654443095E+02 -0.27721708844E+02 -0.17787239230E+01  0.59301975026E+02  0.50000056534E+02 0.  0.
        -12    1    1    2    0    0 -0.15654443095E+02  0.27721708844E+02  0.17787239230E+01  0.31886024974E+02  0.00000000000E+00 0.  1.
         11    1    3    3    0    0  0.52334535388E+01  0.40937624283E+00  0.18577411567E+01  0.55684672323E+01  0.51100000000E-03 0. -1.
        -11    1    3    3    0    0  0.70937679136E+01 -0.52780591406E+01  0.19272675230E+02  0.21204137857E+02  0.51100000000E-03 0.  1.
        -12    1    3    3    0    0  0.33272216423E+01 -0.22853025946E+02 -0.22909140309E+02  0.32529369937E+02  0.00000000000E+00 0.  1.
</event>
<event>
 7    1  0.7444241E-013  0.5930195E+02  0.7816164E-02  0.1266605E+00
        -11   -1    0    0    0    0  0.00000000000E+00  0.00000000000E+00  0.45593999997E+02  0.45594000000E+02  0.51100000000E-03 0.  1.
         11   -1    0    0    0    0 -0.00000000000E+00 -0.00000000000E+00 -0.45593999997E+02  0.45594000000E+02  0.51100000000E-03 0. -1.
    9900012    2    1    2    0    0 -0.18761681643E+02  0.25608956639E+02  0.29834265607E+01  0.59301949880E+02  0.50000010673E+02 0.  0.
        -12    1    1    2    0    0  0.18761681643E+02 -0.25608956639E+02 -0.29834265607E+01  0.31886050120E+02  0.00000000000E+00 0.  1.
         11    1    3    3    0    0 -0.21529354134E+02  0.88706746718E+01  0.72434404693E+01  0.24385844022E+02  0.51100000000E-03 0. -1.
        -11    1    3    3    0    0 -0.11179653273E+02 -0.17484006282E+01 -0.30846925766E+01  0.11728464546E+02  0.51100000000E-03 0.  1.
        -12    1    3    3    0    0  0.13947325765E+02  0.18486682595E+02 -0.11753213320E+01  0.23187641312E+02  0.00000000000E+00 0.  1.
</event>
<event>
 7    1  0.7444241E-013  0.5930196E+02  0.7816164E-02  0.1266605E+00
        -11   -1    0    0    0    0  0.00000000000E+00  0.00000000000E+00  0.45593999997E+02  0.45594000000E+02  0.51100000000E-03 0.  1.
         11   -1    0    0    0    0 -0.00000000000E+00 -0.00000000000E+00 -0.45593999997E+02  0.45594000000E+02  0.51100000000E-03 0. -1.
    9900012    2    1    2    0    0  0.21324488901E+02 -0.22411587419E+02 -0.77269998599E+01  0.59301959099E+02  0.50000027486E+02 0.  0.
        -12    1    1    2    0    0 -0.21324488901E+02  0.22411587419E+02  0.77269998599E+01  0.31886040901E+02  0.00000000000E+00 0.  1.
         11    1    3    3    0    0  0.80490245991E+01  0.11901430213E+02 -0.48314170127E+01  0.15158279214E+02  0.51100000000E-03 0. -1.
        -11    1    3    3    0    0  0.56194078255E+00 -0.86315484075E+00  0.69528655301E+01  0.70287376578E+01  0.51100000000E-03 0.  1.
        -12    1    3    3    0    0  0.12713523520E+02 -0.33449862791E+02 -0.98484483772E+01  0.37114942227E+02  0.00000000000E+00 0.  1.
</event>
<event>
 7    1  0.7444241E-013  0.5930194E+02  0.7816164E-02  0.1266605E+00
        -11   -1    0    0    0    0  0.00000000000E+00  0.00000000000E+00  0.45593999997E+02  0.45594000000E+02  0.51100000000E-03 0.  1.
         11   -1    0    0    0    0 -0.00000000000E+00 -0.00000000000E+00 -0.45593999997E+02  0.45594000000E+02  0.51100000000E-03 0. -1.
    9900012    2    1    2    0    0 -0.17615033371E+02  0.11386738542E+02 -0.24016107464E+02  0.59301942969E+02  0.49999998069E+02 0.  0.
        -12    1    1    2    0    0  0.17615033371E+02 -0.11386738542E+02  0.24016107464E+02  0.31886057031E+02  0.00000000000E+00 0.  1.
         11    1    3    3    0    0 -0.15150660102E+02 -0.45647923850E+01 -0.96000382279E+01  0.18507851450E+02  0.51100000000E-03 0. -1.
        -11    1    3    3    0    0 -0.15989684837E+02  0.17041168228E+02 -0.40455556287E+01  0.23715774420E+02  0.51100000000E-03 0.  1.
         12    1    3    3    0    0  0.13525311568E+02 -0.10896373011E+01 -0.10370513607E+02  0.17078317099E+02  0.00000000000E+00 0. -1.
</event>
<event>
 7    1  0.7444241E-013  0.5930195E+02  0.7816164E-02  0.1266605E+00
        -11   -1    0    0    0    0  0.00000000000E+00  0.00000000000E+00  0.45593999997E+02  0.45594000000E+02  0.51100000000E-03 0.  1.
         11   -1    0    0    0    0 -0.00000000000E+00 -0.00000000000E+00 -0.45593999997E+02  0.45594000000E+02  0.51100000000E-03 0. -1.
    9900012    2    1    2    0    0 -0.16406659076E+02 -0.15464075018E+02 -0.22547821967E+02  0.59301947349E+02  0.50000006057E+02 0.  0.
        -12    1    1    2    0    0  0.16406659076E+02  0.15464075018E+02  0.22547821967E+02  0.31886052651E+02  0.00000000000E+00 0.  1.
         11    1    3    3    0    0 -0.13664920229E+02 -0.49541091423E+01 -0.31500878532E+02  0.34692630209E+02  0.51100000000E-03 0. -1.
        -11    1    3    3    0    0 -0.54229265890E+01 -0.65249079466E+01 -0.50032647435E+01  0.98496301888E+01  0.51100000000E-03 0.  1.
        -12    1    3    3    0    0  0.26811877422E+01 -0.39850579293E+01  0.13956321309E+02  0.14759686951E+02  0.00000000000E+00 0.  1.
</event>
<event>
 7    1  0.7444241E-013  0.5930197E+02  0.7816164E-02  0.1266605E+00
        -11   -1    0    0    0    0  0.00000000000E+00  0.00000000000E+00  0.45593999997E+02  0.45594000000E+02  0.51100000000E-03 0.  1.
         11   -1    0    0    0    0 -0.00000000000E+00 -0.00000000000E+00 -0.45593999997E+02  0.45594000000E+02  0.51100000000E-03 0. -1.
    9900012    2    1    2    0    0 -0.19407291047E+02 -0.75969014228E+01 -0.24132194811E+02  0.59301973540E+02  0.50000053823E+02 0.  0.
        -12    1    1    2    0    0  0.19407291047E+02  0.75969014228E+01  0.24132194811E+02  0.31886026460E+02  0.00000000000E+00 0.  1.
         11    1    3    3    0    0 -0.16468356673E+02 -0.86769164991E+01 -0.15006169140E+02  0.23909846590E+02  0.51100000000E-03 0. -1.
        -11    1    3    3    0    0 -0.41552235844E+01 -0.28907417477E+01  0.12439729730E+02  0.13430158112E+02  0.51100000000E-03 0.  1.
         12    1    3    3    0    0  0.12162892102E+01  0.39707568240E+01 -0.21565755401E+02  0.21961968837E+02  0.00000000000E+00 0. -1.
</event>
<event>
 7    1  0.7444241E-013  0.5930194E+02  0.7816164E-02  0.1266605E+00
        -11   -1    0    0    0    0  0.00000000000E+00  0.00000000000E+00  0.45593999997E+02  0.45594000000E+02  0.51100000000E-03 0. -1.
         11   -1    0    0    0    0 -0.00000000000E+00 -0.00000000000E+00 -0.45593999997E+02  0.45594000000E+02  0.51100000000E-03 0.  1.
    9900012    2    1    2    0    0  0.81947745690E+01  0.16286142064E+02  0.26159664493E+02  0.59301940351E+02  0.49999993294E+02 0.  0.
        -12    1    1    2    0    0 -0.81947745690E+01 -0.16286142064E+02 -0.26159664493E+02  0.31886059649E+02  0.00000000000E+00 0.  1.
         11    1    3    3    0    0 -0.45119147786E+01 -0.11798796700E+02 -0.21266702523E+01  0.12809828460E+02  0.51100000000E-03 0. -1.
        -11    1    3    3    0    0  0.14380168279E+01 -0.32685691051E+01  0.30508914510E+01  0.46967409231E+01  0.51100000000E-03 0.  1.
        -12    1    3    3    0    0  0.11268672520E+02  0.31353507869E+02  0.25235443295E+02  0.41795370968E+02  0.00000000000E+00 0.  1.
</event>
<event>
 7    1  0.7444241E-013  0.5930207E+02  0.7816164E-02  0.1266604E+00
        -11   -1    0    0    0    0  0.00000000000E+00  0.00000000000E+00  0.45593999997E+02  0.45594000000E+02  0.51100000000E-03 0.  1.
         11   -1    0    0    0    0 -0.00000000000E+00 -0.00000000000E+00 -0.45593999997E+02  0.45594000000E+02  0.51100000000E-03 0. -1.
    9900012    2    1    2    0    0  0.31112967303E+02 -0.42657721268E+01 -0.55226144504E+01  0.59302065536E+02  0.50000221602E+02 0.  0.
        -12    1    1    2    0    0 -0.31112967303E+02  0.42657721268E+01  0.55226144504E+01  0.31885934464E+02  0.00000000000E+00 0.  1.
         11    1    3    3    0    0  0.44701971221E+01 -0.92880904915E+01 -0.11679649021E+02  0.15577724122E+02  0.51100000000E-03 0. -1.
        -11    1    3    3    0    0  0.14059561132E+02 -0.47696344262E+01 -0.12338940060E+02  0.19304665598E+02  0.51100000000E-03 0.  1.
        -12    1    3    3    0    0  0.12583209049E+02  0.97919527909E+01  0.18495974631E+02  0.24419675816E+02  0.00000000000E+00 0.  1.
</event>
<event>
 7    1  0.7444241E-013  0.5930194E+02  0.7816164E-02  0.1266605E+00
        -11   -1    0    0    0    0  0.00000000000E+00  0.00000000000E+00  0.45593999997E+02  0.45594000000E+02  0.51100000000E-03 0.  1.
         11   -1    0    0    0    0 -0.00000000000E+00 -0.00000000000E+00 -0.45593999997E+02  0.45594000000E+02  0.51100000000E-03 0. -1.
    9900012    2    1    2    0    0  0.99871915909E+01 -0.17388506908E+02 -0.24791463130E+02  0.59301940154E+02  0.49999992936E+02 0.  0.
        -12    1    1    2    0    0 -0.99871915909E+01  0.17388506908E+02  0.24791463130E+02  0.31886059846E+02  0.00000000000E+00 0.  1.
         11    1    3    3    0    0  0.44366720217E+00  0.17251480964E+01 -0.17168324512E+02  0.17260485026E+02  0.51100000000E-03 0. -1.
        -11    1    3    3    0    0 -0.17635393500E+01  0.76596595147E+01  0.60537422647E+01  0.99211012790E+01  0.51100000000E-03 0.  1.
        -12    1    3    3    0    0  0.11307063739E+02 -0.26773314519E+02 -0.13676880883E+02  0.32120353849E+02  0.00000000000E+00 0.  1.
</event>
<event>
 7    1  0.7444241E-013  0.5930196E+02  0.7816164E-02  0.1266605E+00
        -11   -1    0    0    0    0  0.00000000000E+00  0.00000000000E+00  0.45593999997E+02  0.45594000000E+02  0.51100000000E-03 0.  1.
         11   -1    0    0    0    0 -0.00000000000E+00 -0.00000000000E+00 -0.45593999997E+02  0.45594000000E+02  0.51100000000E-03 0. -1.
    9900012    2    1    2    0    0 -0.22071786632E+01  0.31741256406E+02 -0.20834662851E+01  0.59301955598E+02  0.50000021101E+02 0.  0.
        -12    1    1    2    0    0  0.22071786632E+01 -0.31741256406E+02  0.20834662851E+01  0.31886044402E+02  0.00000000000E+00 0.  1.
         11    1    3    3    0    0 -0.62644256919E+01  0.75166184803E+01 -0.71858438436E+01  0.12139972596E+02  0.51100000000E-03 0. -1.
        -11    1    3    3    0    0 -0.50756165472E+01  0.24682711075E+02 -0.11891478208E+02  0.27864051457E+02  0.51100000000E-03 0.  1.
        -12    1    3    3    0    0  0.91328635759E+01 -0.45807315003E+00  0.16993855766E+02  0.19297931545E+02  0.00000000000E+00 0.  1.
</event>
<event>
 7    1  0.7444241E-013  0.5930195E+02  0.7816164E-02  0.1266605E+00
        -11   -1    0    0    0    0  0.00000000000E+00  0.00000000000E+00  0.45593999997E+02  0.45594000000E+02  0.51100000000E-03 0.  1.
         11   -1    0    0    0    0 -0.00000000000E+00 -0.00000000000E+00 -0.45593999997E+02  0.45594000000E+02  0.51100000000E-03 0. -1.
    9900012    2    1    2    0    0 -0.29358629969E+02 -0.98581722965E+01 -0.75899789380E+01  0.59301945134E+02  0.50000002017E+02 0.  0.
        -12    1    1    2    0    0  0.29358629969E+02  0.98581722965E+01  0.75899789380E+01  0.31886054866E+02  0.00000000000E+00 0.  1.
         11    1    3    3    0    0 -0.34149928838E+00 -0.20658643564E+02  0.26717295112E+01  0.20833490214E+02  0.51100000000E-03 0. -1.
        -11    1    3    3    0    0 -0.51539701849E+01 -0.55128335725E+01 -0.50906546137E+01  0.91032690459E+01  0.51100000000E-03 0.  1.
        -12    1    3    3    0    0 -0.23863160495E+02  0.16313304840E+02 -0.51710538355E+01  0.29365185874E+02  0.00000000000E+00 0.  1.
</event>
<event>
 7    1  0.7444241E-013  0.5930195E+02  0.7816164E-02  0.1266605E+00
        -11   -1    0    0    0    0  0.00000000000E+00  0.00000000000E+00  0.45593999997E+02  0.45594000000E+02  0.51100000000E-03 0.  1.
         11   -1    0    0    0    0 -0.00000000000E+00 -0.00000000000E+00 -0.45593999997E+02  0.45594000000E+02  0.51100000000E-03 0. -1.
    9900012    2    1    2    0    0  0.13807971446E+01  0.48437189801E+01 -0.31485742773E+02  0.59301949566E+02  0.50000010101E+02 0.  0.
        -12    1    1    2    0    0 -0.13807971446E+01 -0.48437189801E+01  0.31485742773E+02  0.31886050434E+02  0.00000000000E+00 0.  1.
         11    1    3    3    0    0  0.15172579885E+02 -0.61256582588E+01 -0.11780077332E+02  0.20161872227E+02  0.51100000000E-03 0.  1.
        -11    1    3    3    0    0  0.56489985803E+01  0.72898029278E+01 -0.16768576029E+02  0.19137334035E+02  0.51100000000E-03 0. -1.
        -12    1    3    3    0    0 -0.19440781321E+02  0.36795743111E+01 -0.29370894119E+01  0.20002743304E+02  0.00000000000E+00 0.  1.
</event>
<event>
 7    1  0.7444241E-013  0.5930202E+02  0.7816164E-02  0.1266604E+00
        -11   -1    0    0    0    0  0.00000000000E+00  0.00000000000E+00  0.45593999997E+02  0.45594000000E+02  0.51100000000E-03 0.  1.
         11   -1    0    0    0    0 -0.00000000000E+00 -0.00000000000E+00 -0.45593999997E+02  0.45594000000E+02  0.51100000000E-03 0. -1.
    9900012    2    1    2    0    0 -0.91562847791E+00  0.25525201582E+02 -0.19087721761E+02  0.59302024818E+02  0.50000147341E+02 0.  0.
        -12    1    1    2    0    0  0.91562847791E+00 -0.25525201582E+02  0.19087721761E+02  0.31885975182E+02  0.00000000000E+00 0.  1.
         11    1    3    3    0    0  0.25482184721E+01  0.31226411670E+02 -0.19408296073E+02  0.36854635528E+02  0.51100000000E-03 0. -1.
        -11    1    3    3    0    0  0.87608272857E+01 -0.26390338018E+01 -0.25982233384E+01  0.95114330631E+01  0.51100000000E-03 0.  1.
        -12    1    3    3    0    0 -0.12224674236E+02 -0.30621762861E+01  0.29187976506E+01  0.12935956227E+02  0.00000000000E+00 0.  1.
</event>
<event>
 7    1  0.7444241E-013  0.5930196E+02  0.7816164E-02  0.1266605E+00
        -11   -1    0    0    0    0  0.00000000000E+00  0.00000000000E+00  0.45593999997E+02  0.45594000000E+02  0.51100000000E-03 0. -1.
         11   -1    0    0    0    0 -0.00000000000E+00 -0.00000000000E+00 -0.45593999997E+02  0.45594000000E+02  0.51100000000E-03 0.  1.
    9900012    2    1    2    0    0  0.25504527836E+02 -0.18441521559E+02  0.51136230587E+01  0.59301956057E+02  0.50000021939E+02 0.  0.
        -12    1    1    2    0    0 -0.25504527836E+02  0.18441521559E+02 -0.51136230587E+01  0.31886043943E+02  0.00000000000E+00 0.  1.
         11    1    3    3    0    0  0.65090843490E+01  0.12621073090E+02 -0.93934115286E+01  0.17026328007E+02  0.51100000000E-03 0. -1.
        -11    1    3    3    0    0  0.20304384538E+01 -0.45939065806E+00 -0.25967100036E+01  0.33281561255E+01  0.51100000000E-03 0.  1.
         12    1    3    3    0    0  0.16965005033E+02 -0.30603203991E+02  0.17103744591E+02  0.38947471925E+02  0.00000000000E+00 0. -1.
</event>
<event>
 7    1  0.7444241E-013  0.5930196E+02  0.7816164E-02  0.1266605E+00
        -11   -1    0    0    0    0  0.00000000000E+00  0.00000000000E+00  0.45593999997E+02  0.45594000000E+02  0.51100000000E-03 0.  1.
         11   -1    0    0    0    0 -0.00000000000E+00 -0.00000000000E+00 -0.45593999997E+02  0.45594000000E+02  0.51100000000E-03 0. -1.
    9900012    2    1    2    0    0 -0.27699022802E+02 -0.13254526013E+02 -0.85907713997E+01  0.59301957956E+02  0.50000025401E+02 0.  0.
        -12    1    1    2    0    0  0.27699022802E+02  0.13254526013E+02  0.85907713997E+01  0.31886042044E+02  0.00000000000E+00 0.  1.
         11    1    3    3    0    0 -0.20658542327E+02 -0.17584958585E+01 -0.20650628929E+02  0.29262880142E+02  0.51100000000E-03 0. -1.
        -11    1    3    3    0    0 -0.45829345305E+01  0.16044547033E+01 -0.59205173857E+01  0.76570288090E+01  0.51100000000E-03 0.  1.
        -12    1    3    3    0    0 -0.24575459439E+01 -0.13100484858E+02  0.17980374915E+02  0.22382049005E+02  0.00000000000E+00 0.  1.
</event>
<event>
 7    1  0.7444241E-013  0.5930183E+02  0.7816164E-02  0.1266605E+00
        -11   -1    0    0    0    0  0.00000000000E+00  0.00000000000E+00  0.45593999997E+02  0.45594000000E+02  0.51100000000E-03 0.  1.
         11   -1    0    0    0    0 -0.00000000000E+00 -0.00000000000E+00 -0.45593999997E+02  0.45594000000E+02  0.51100000000E-03 0. -1.
    9900012    2    1    2    0    0  0.12808497789E+02 -0.13280379661E+02 -0.26005796126E+02  0.59301834792E+02  0.49999800779E+02 0.  0.
        -12    1    1    2    0    0 -0.12808497789E+02  0.13280379661E+02  0.26005796126E+02  0.31886165208E+02  0.00000000000E+00 0.  1.
         11    1    3    3    0    0  0.26244189094E+01 -0.44143668084E+01 -0.19689016817E+02  0.20347766275E+02  0.51100000000E-03 0. -1.
        -11    1    3    3    0    0  0.20453075684E+02 -0.14928891547E+02 -0.87348841287E+01  0.26786158903E+02  0.51100000000E-03 0.  1.
         12    1    3    3    0    0 -0.10268996805E+02  0.60628786947E+01  0.24181048190E+01  0.12167909613E+02  0.00000000000E+00 0. -1.
</event>
<event>
 7    1  0.7444241E-013  0.5930201E+02  0.7816164E-02  0.1266605E+00
        -11   -1    0    0    0    0  0.00000000000E+00  0.00000000000E+00  0.45593999997E+02  0.45594000000E+02  0.51100000000E-03 0. -1.
         11   -1    0    0    0    0 -0.00000000000E+00 -0.00000000000E+00 -0.45593999997E+02  0.45594000000E+02  0.51100000000E-03 0.  1.
    9900012    2    1    2    0    0  0.10665770233E+02 -0.17174208184E+01  0.30000139557E+02  0.59302006800E+02  0.50000114481E+02 0.  0.
        -12    1    1    2    0    0 -0.10665770233E+02  0.17174208184E+01 -0.30000139557E+02  0.31885993200E+02  0.00000000000E+00 0.  1.
         11    1    3    3    0    0  0.79544762983E+01  0.18513686387E+02  0.10859566127E+02  0.22890182471E+02  0.51100000000E-03 0. -1.
        -11    1    3    3    0    0  0.13256365974E+01  0.50821793908E+01  0.55746135490E+01  0.76591237248E+01  0.51100000000E-03 0.  1.
        -12    1    3    3    0    0  0.13856573369E+01 -0.25313286596E+02  0.13565959881E+02  0.28752700604E+02  0.00000000000E+00 0.  1.
</event>
<event>
 7    1  0.7444241E-013  0.5930190E+02  0.7816164E-02  0.1266605E+00
        -11   -1    0    0    0    0  0.00000000000E+00  0.00000000000E+00  0.45593999997E+02  0.45594000000E+02  0.51100000000E-03 0. -1.
         11   -1    0    0    0    0 -0.00000000000E+00 -0.00000000000E+00 -0.45593999997E+02  0.45594000000E+02  0.51100000000E-03 0.  1.
    9900012    2    1    2    0    0 -0.30606291577E+02  0.16126144628E+01  0.87964467195E+01  0.59301904529E+02  0.49999927963E+02 0.  0.
        -12    1    1    2    0    0  0.30606291577E+02 -0.16126144628E+01 -0.87964467195E+01  0.31886095471E+02  0.00000000000E+00 0.  1.
         11    1    3    3    0    0 -0.20020730068E+01  0.10956969617E+02  0.87272024375E+00  0.11172516297E+02  0.51100000000E-03 0. -1.
        -11    1    3    3    0    0 -0.11167915262E+02 -0.21813277184E+02 -0.18392904142E+01  0.24574872987E+02  0.51100000000E-03 0.  1.
         12    1    3    3    0    0 -0.17436303309E+02  0.12468922030E+02  0.97630168899E+01  0.23554515245E+02  0.00000000000E+00 0. -1.
</event>
<event>
 7    1  0.7444241E-013  0.5930193E+02  0.7816164E-02  0.1266605E+00
        -11   -1    0    0    0    0  0.00000000000E+00  0.00000000000E+00  0.45593999997E+02  0.45594000000E+02  0.51100000000E-03 0. -1.
         11   -1    0    0    0    0 -0.00000000000E+00 -0.00000000000E+00 -0.45593999997E+02  0.45594000000E+02  0.51100000000E-03 0.  1.
    9900012    2    1    2    0    0  0.12029519955E+02  0.16746084816E+02  0.24322431276E+02  0.59301931409E+02  0.49999976986E+02 0.  0.
        -12    1    1    2    0    0 -0.12029519955E+02 -0.16746084816E+02 -0.24322431276E+02  0.31886068591E+02  0.00000000000E+00 0.  1.
         11    1    3    3    0    0 -0.13845349516E+02  0.18678954527E+02  0.14233256522E+02  0.27261376284E+02  0.51100000000E-03 0. -1.
        -11    1    3    3    0    0  0.22380133977E+01 -0.59135881779E+01  0.32768726340E+01  0.71215955815E+01  0.51100000000E-03 0.  1.
        -12    1    3    3    0    0  0.23636856073E+02  0.39807184673E+01  0.68123021200E+01  0.24918959543E+02  0.00000000000E+00 0.  1.
</event>
<event>
 7    1  0.7444241E-013  0.5930197E+02  0.7816164E-02  0.1266605E+00
        -11   -1    0    0    0    0  0.00000000000E+00  0.00000000000E+00  0.45593999997E+02  0.45594000000E+02  0.51100000000E-03 0.  1.
         11   -1    0    0    0    0 -0.00000000000E+00 -0.00000000000E+00 -0.45593999997E+02  0.45594000000E+02  0.51100000000E-03 0. -1.
    9900012    2    1    2    0    0  0.98929638283E+01 -0.26791032648E+02 -0.14180572827E+02  0.59301971565E+02  0.50000050222E+02 0.  0.
        -12    1    1    2    0    0 -0.98929638283E+01  0.26791032648E+02  0.14180572827E+02  0.31886028435E+02  0.00000000000E+00 0.  1.
         11    1    3    3    0    0  0.83491934600E+01 -0.39559752773E+02 -0.87296802482E+01  0.41362910782E+02  0.51100000000E-03 0. -1.
        -11    1    3    3    0    0 -0.16182260563E+01  0.14058477081E+01 -0.57542298998E+01  0.61405394998E+01  0.51100000000E-03 0.  1.
        -12    1    3    3    0    0  0.31619964246E+01  0.11362872417E+02  0.30333732129E+00  0.11798521283E+02  0.00000000000E+00 0.  1.
</event>
<event>
 7    1  0.7444241E-013  0.5930210E+02  0.7816164E-02  0.1266604E+00
        -11   -1    0    0    0    0  0.00000000000E+00  0.00000000000E+00  0.45593999997E+02  0.45594000000E+02  0.51100000000E-03 0.  1.
         11   -1    0    0    0    0 -0.00000000000E+00 -0.00000000000E+00 -0.45593999997E+02  0.45594000000E+02  0.51100000000E-03 0. -1.
    9900012    2    1    2    0    0  0.11035136160E+02  0.17274296842E+02 -0.24424067721E+02  0.59302099582E+02  0.50000283692E+02 0.  0.
        -12    1    1    2    0    0 -0.11035136160E+02 -0.17274296842E+02  0.24424067721E+02  0.31885900418E+02  0.00000000000E+00 0.  1.
         11    1    3    3    0    0  0.10855403495E+01 -0.94194496798E+00 -0.17483956880E+02  0.17542930389E+02  0.51100000000E-03 0. -1.
        -11    1    3    3    0    0  0.16722087633E+02  0.77452922405E+01 -0.17503396498E+02  0.25416267545E+02  0.51100000000E-03 0.  1.
        -12    1    3    3    0    0 -0.67724918227E+01  0.10470949570E+02  0.10563285658E+02  0.16342901648E+02  0.00000000000E+00 0.  1.
</event>
<event>
 7    1  0.7444241E-013  0.5930195E+02  0.7816164E-02  0.1266605E+00
        -11   -1    0    0    0    0  0.00000000000E+00  0.00000000000E+00  0.45593999997E+02  0.45594000000E+02  0.51100000000E-03 0. -1.
         11   -1    0    0    0    0 -0.00000000000E+00 -0.00000000000E+00 -0.45593999997E+02  0.45594000000E+02  0.51100000000E-03 0.  1.
    9900012    2    1    2    0    0  0.24179138041E+02 -0.14179926863E+02  0.15199311095E+02  0.59301951327E+02  0.50000013311E+02 0.  0.
        -12    1    1    2    0    0 -0.24179138041E+02  0.14179926863E+02 -0.15199311095E+02  0.31886048673E+02  0.00000000000E+00 0.  1.
         11    1    3    3    0    0  0.28993438713E+02 -0.18953080865E+02  0.18936693006E+02  0.39477045291E+02  0.51100000000E-03 0. -1.
        -11    1    3    3    0    0 -0.50039734341E+01  0.15200869179E+01  0.69237425905E+01  0.86769018715E+01  0.51100000000E-03 0.  1.
        -12    1    3    3    0    0  0.18967276172E+00  0.32530670836E+01 -0.10661124501E+02  0.11148004164E+02  0.00000000000E+00 0.  1.
</event>
<event>
 7    1  0.7444241E-013  0.5930194E+02  0.7816164E-02  0.1266605E+00
        -11   -1    0    0    0    0  0.00000000000E+00  0.00000000000E+00  0.45593999997E+02  0.45594000000E+02  0.51100000000E-03 0. -1.
         11   -1    0    0    0    0 -0.00000000000E+00 -0.00000000000E+00 -0.45593999997E+02  0.45594000000E+02  0.51100000000E-03 0.  1.
    9900012    2    1    2    0    0  0.14495158608E+02 -0.10937256809E+02  0.26210450821E+02  0.59301938126E+02  0.49999989237E+02 0.  0.
        -12    1    1    2    0    0 -0.14495158608E+02  0.10937256809E+02 -0.26210450821E+02  0.31886061874E+02  0.00000000000E+00 0.  1.
         11    1    3    3    0    0  0.88576069436E+01  0.43559668962E+01 -0.35089207827E+01  0.10475885342E+02  0.51100000000E-03 0. -1.
        -11    1    3    3    0    0 -0.10215428897E+02 -0.27596827328E+00 -0.19049309036E+01  0.10395186773E+02  0.51100000000E-03 0.  1.
        -12    1    3    3    0    0  0.15852980561E+02 -0.15017255432E+02  0.31624302507E+02  0.38430866012E+02  0.00000000000E+00 0.  1.
</event>
<event>
 7    1  0.7444241E-013  0.5930189E+02  0.7816164E-02  0.1266605E+00
        -11   -1    0    0    0    0  0.00000000000E+00  0.00000000000E+00  0.45593999997E+02  0.45594000000E+02  0.51100000000E-03 0.  1.
         11   -1    0    0    0    0 -0.00000000000E+00 -0.00000000000E+00 -0.45593999997E+02  0.45594000000E+02  0.51100000000E-03 0. -1.
    9900012    2    1    2    0    0  0.20294566996E+02 -0.21151026696E+02  0.12549444364E+02  0.59301891211E+02  0.49999903675E+02 0.  0.
        -12    1    1    2    0    0 -0.20294566996E+02  0.21151026696E+02 -0.12549444364E+02  0.31886108789E+02  0.00000000000E+00 0.  1.
         11    1    3    3    0    0  0.87527361152E+01 -0.18727951812E+02 -0.54884646166E+01  0.21388543959E+02  0.51100000000E-03 0. -1.
        -11    1    3    3    0    0 -0.27066474167E+01 -0.14435821240E+02  0.72455867588E+01  0.16377344194E+02  0.51100000000E-03 0.  1.
        -12    1    3    3    0    0  0.14248478298E+02  0.12012746355E+02  0.10792322221E+02  0.21536003058E+02  0.00000000000E+00 0.  1.
</event>
<event>
 7    1  0.7444241E-013  0.5930195E+02  0.7816164E-02  0.1266605E+00
        -11   -1    0    0    0    0  0.00000000000E+00  0.00000000000E+00  0.45593999997E+02  0.45594000000E+02  0.51100000000E-03 0. -1.
         11   -1    0    0    0    0 -0.00000000000E+00 -0.00000000000E+00 -0.45593999997E+02  0.45594000000E+02  0.51100000000E-03 0.  1.
    9900012    2    1    2    0    0  0.61053517219E+01  0.26423818414E+02 -0.16769822708E+02  0.59301945793E+02  0.50000003220E+02 0.  0.
        -12    1    1    2    0    0 -0.61053517219E+01 -0.26423818414E+02  0.16769822708E+02  0.31886054207E+02  0.00000000000E+00 0.  1.
         11    1    3    3    0    0 -0.12868587361E+01  0.95880637227E+00  0.71086723231E+01  0.72875604645E+01  0.51100000000E-03 0. -1.
        -11    1    3    3    0    0  0.87690060072E+01 -0.81194766665E+01 -0.25929113198E+01  0.12228841199E+02  0.51100000000E-03 0.  1.
        -12    1    3    3    0    0 -0.13767955492E+01  0.33584488708E+02 -0.21285583712E+02  0.39785544130E+02  0.00000000000E+00 0.  1.
</event>
<event>
 7    1  0.7444241E-013  0.5930192E+02  0.7816164E-02  0.1266605E+00
        -11   -1    0    0    0    0  0.00000000000E+00  0.00000000000E+00  0.45593999997E+02  0.45594000000E+02  0.51100000000E-03 0. -1.
         11   -1    0    0    0    0 -0.00000000000E+00 -0.00000000000E+00 -0.45593999997E+02  0.45594000000E+02  0.51100000000E-03 0.  1.
    9900012    2    1    2    0    0 -0.21716604427E+02 -0.35823453136E+01  0.23071156980E+02  0.59301915415E+02  0.49999947817E+02 0.  0.
        -12    1    1    2    0    0  0.21716604427E+02  0.35823453136E+01 -0.23071156980E+02  0.31886084585E+02  0.00000000000E+00 0.  1.
         11    1    3    3    0    0 -0.87569914346E+01 -0.56986181527E+01  0.14155858850E+02  0.17593961688E+02  0.51100000000E-03 0. -1.
        -11    1    3    3    0    0 -0.92087147873E+01 -0.16300702372E+02  0.12584041226E+02  0.22558178554E+02  0.51100000000E-03 0.  1.
         12    1    3    3    0    0 -0.37508982050E+01  0.18416975211E+02 -0.36687430959E+01  0.19149775173E+02  0.00000000000E+00 0. -1.
</event>
<event>
 7    1  0.7444241E-013  0.5930198E+02  0.7816164E-02  0.1266605E+00
        -11   -1    0    0    0    0  0.00000000000E+00  0.00000000000E+00  0.45593999997E+02  0.45594000000E+02  0.51100000000E-03 0. -1.
         11   -1    0    0    0    0 -0.00000000000E+00 -0.00000000000E+00 -0.45593999997E+02  0.45594000000E+02  0.51100000000E-03 0.  1.
    9900012    2    1    2    0    0  0.64520513917E+01  0.26291396118E+02  0.16847900774E+02  0.59301980533E+02  0.50000066576E+02 0.  0.
        -12    1    1    2    0    0 -0.64520513917E+01 -0.26291396118E+02 -0.16847900774E+02  0.31886019467E+02  0.00000000000E+00 0.  1.
         11    1    3    3    0    0  0.47183660124E+01 -0.10659282546E+02  0.99611404698E+01  0.15333218903E+02  0.51100000000E-03 0. -1.
        -11    1    3    3    0    0  0.10694545355E+01 -0.24470654447E+01  0.35248409503E+01  0.44222580522E+01  0.51100000000E-03 0.  1.
         12    1    3    3    0    0  0.66423084384E+00  0.39397744108E+02  0.33619193541E+01  0.39546503577E+02  0.00000000000E+00 0. -1.
</event>
<event>
 7    1  0.7444241E-013  0.5930196E+02  0.7816164E-02  0.1266605E+00
        -11   -1    0    0    0    0  0.00000000000E+00  0.00000000000E+00  0.45593999997E+02  0.45594000000E+02  0.51100000000E-03 0.  1.
         11   -1    0    0    0    0 -0.00000000000E+00 -0.00000000000E+00 -0.45593999997E+02  0.45594000000E+02  0.51100000000E-03 0. -1.
    9900012    2    1    2    0    0 -0.30189732994E+02  0.84321760217E+01 -0.58479304085E+01  0.59301955078E+02  0.50000020152E+02 0.  0.
        -12    1    1    2    0    0  0.30189732994E+02 -0.84321760217E+01  0.58479304085E+01  0.31886044922E+02  0.00000000000E+00 0.  1.
         11    1    3    3    0    0 -0.32185955147E+02  0.17942031634E+02 -0.11019101192E+02  0.38461315620E+02  0.51100000000E-03 0. -1.
        -11    1    3    3    0    0 -0.75091898809E+01 -0.41413997093E+01  0.49917166425E+01  0.99225178014E+01  0.51100000000E-03 0.  1.
        -12    1    3    3    0    0  0.95054120338E+01 -0.53684559026E+01  0.17945414095E+00  0.10918121656E+02  0.00000000000E+00 0.  1.
</event>
<event>
 7    1  0.7444241E-013  0.5930195E+02  0.7816164E-02  0.1266605E+00
        -11   -1    0    0    0    0  0.00000000000E+00  0.00000000000E+00  0.45593999997E+02  0.45594000000E+02  0.51100000000E-03 0. -1.
         11   -1    0    0    0    0 -0.00000000000E+00 -0.00000000000E+00 -0.45593999997E+02  0.45594000000E+02  0.51100000000E-03 0.  1.
    9900012    2    1    2    0    0  0.31323726179E+02 -0.46921108922E+01  0.36781155827E+01  0.59301948808E+02  0.50000008718E+02 0.  0.
        -12    1    1    2    0    0 -0.31323726179E+02  0.46921108922E+01 -0.36781155827E+01  0.31886051192E+02  0.00000000000E+00 0.  1.
         11    1    3    3    0    0  0.17612220914E+02  0.96235956525E+01  0.25977606706E+01  0.20237398043E+02  0.51100000000E-03 0. -1.
        -11    1    3    3    0    0  0.43586439940E+01 -0.13594471305E+01 -0.15427879591E+02  0.16089292803E+02  0.51100000000E-03 0.  1.
         12    1    3    3    0    0  0.93528612715E+01 -0.12956259414E+02  0.16508234503E+02  0.22975257961E+02  0.00000000000E+00 0. -1.
</event>
<event>
 7    1  0.7444241E-013  0.5930194E+02  0.7816164E-02  0.1266605E+00
        -11   -1    0    0    0    0  0.00000000000E+00  0.00000000000E+00  0.45593999997E+02  0.45594000000E+02  0.51100000000E-03 0.  1.
         11   -1    0    0    0    0 -0.00000000000E+00 -0.00000000000E+00 -0.45593999997E+02  0.45594000000E+02  0.51100000000E-03 0. -1.
    9900012    2    1    2    0    0  0.31735974011E+02  0.38744940279E+00 -0.30657176707E+01  0.59301940534E+02  0.49999993628E+02 0.  0.
        -12    1    1    2    0    0 -0.31735974011E+02 -0.38744940279E+00  0.30657176707E+01  0.31886059466E+02  0.00000000000E+00 0.  1.
         11    1    3    3    0    0  0.10938058552E+02 -0.20030839256E+02 -0.13722911890E+02  0.26630695770E+02  0.51100000000E-03 0. -1.
        -11    1    3    3    0    0  0.49776128685E+01  0.72974861164E+01 -0.12445355707E+01  0.89206951823E+01  0.51100000000E-03 0.  1.
        -12    1    3    3    0    0  0.15820302590E+02  0.13120802543E+02  0.11901729790E+02  0.23750549581E+02  0.00000000000E+00 0.  1.
</event>
<event>
 7    1  0.7444241E-013  0.5930192E+02  0.7816164E-02  0.1266605E+00
        -11   -1    0    0    0    0  0.00000000000E+00  0.00000000000E+00  0.45593999997E+02  0.45594000000E+02  0.51100000000E-03 0.  1.
         11   -1    0    0    0    0 -0.00000000000E+00 -0.00000000000E+00 -0.45593999997E+02  0.45594000000E+02  0.51100000000E-03 0. -1.
    9900012    2    1    2    0    0 -0.30871837925E+02  0.42875515202E+01 -0.67281868464E+01  0.59301921954E+02  0.49999959743E+02 0.  0.
        -12    1    1    2    0    0  0.30871837925E+02 -0.42875515202E+01  0.67281868464E+01  0.31886078046E+02  0.00000000000E+00 0.  1.
         11    1    3    3    0    0 -0.10341469604E+02  0.23593267986E+00  0.10338811466E+02  0.14625070276E+02  0.51100000000E-03 0. -1.
        -11    1    3    3    0    0 -0.12683488528E+02  0.96077138953E+01  0.80142035703E+01  0.17815906002E+02  0.51100000000E-03 0.  1.
         12    1    3    3    0    0 -0.78468797930E+01 -0.55560950549E+01 -0.25081201882E+02  0.26860945676E+02  0.00000000000E+00 0. -1.
</event>
<event>
 7    1  0.7444241E-013  0.5930213E+02  0.7816164E-02  0.1266604E+00
        -11   -1    0    0    0    0  0.00000000000E+00  0.00000000000E+00  0.45593999997E+02  0.45594000000E+02  0.51100000000E-03 0.  1.
         11   -1    0    0    0    0 -0.00000000000E+00 -0.00000000000E+00 -0.45593999997E+02  0.45594000000E+02  0.51100000000E-03 0. -1.
    9900012    2    1    2    0    0  0.10556523938E+02 -0.26497200808E+02 -0.14253653279E+02  0.59302133537E+02  0.50000345618E+02 0.  0.
        -12    1    1    2    0    0 -0.10556523938E+02  0.26497200808E+02  0.14253653279E+02  0.31885866463E+02  0.00000000000E+00 0.  1.
         11    1    3    3    0    0  0.88535269058E+01  0.63876673201E+01  0.74124032010E+00  0.10942425231E+02  0.51100000000E-03 0. -1.
        -11    1    3    3    0    0  0.14486060840E+02 -0.75587059251E+01 -0.11031505395E+02  0.19714819438E+02  0.51100000000E-03 0.  1.
         12    1    3    3    0    0 -0.12783063808E+02 -0.25326162203E+02 -0.39633882042E+01  0.28644888868E+02  0.00000000000E+00 0. -1.
</event>
<event>
 7    1  0.7444241E-013  0.5930170E+02  0.7816164E-02  0.1266606E+00
        -11   -1    0    0    0    0  0.00000000000E+00  0.00000000000E+00  0.45593999997E+02  0.45594000000E+02  0.51100000000E-03 0. -1.
         11   -1    0    0    0    0 -0.00000000000E+00 -0.00000000000E+00 -0.45593999997E+02  0.45594000000E+02  0.51100000000E-03 0.  1.
    9900012    2    1    2    0    0 -0.11438585422E+02 -0.27203487184E+02  0.12077458873E+02  0.59301702563E+02  0.49999559624E+02 0.  0.
        -12    1    1    2    0    0  0.11438585422E+02  0.27203487184E+02 -0.12077458873E+02  0.31886297437E+02  0.00000000000E+00 0.  1.
         11    1    3    3    0    0 -0.22240743495E+02 -0.40814300309E+01  0.84203440922E+01  0.24129047582E+02  0.51100000000E-03 0. -1.
        -11    1    3    3    0    0 -0.72770616017E+01 -0.34557457450E+01  0.24959906489E+01  0.84337283445E+01  0.51100000000E-03 0.  1.
        -12    1    3    3    0    0  0.18079219675E+02 -0.19666311408E+02  0.11611241316E+01  0.26738926637E+02  0.00000000000E+00 0.  1.
</event>
<event>
 7    1  0.7444241E-013  0.5930196E+02  0.7816164E-02  0.1266605E+00
        -11   -1    0    0    0    0  0.00000000000E+00  0.00000000000E+00  0.45593999997E+02  0.45594000000E+02  0.51100000000E-03 0.  1.
         11   -1    0    0    0    0 -0.00000000000E+00 -0.00000000000E+00 -0.45593999997E+02  0.45594000000E+02  0.51100000000E-03 0. -1.
    9900012    2    1    2    0    0  0.11433064905E+02  0.25274676834E+02 -0.15722445264E+02  0.59301959994E+02  0.50000029119E+02 0.  0.
        -12    1    1    2    0    0 -0.11433064905E+02 -0.25274676834E+02  0.15722445264E+02  0.31886040006E+02  0.00000000000E+00 0.  1.
         11    1    3    3    0    0  0.46760909120E+01  0.11758877215E+02  0.10669092115E+02  0.16551934824E+02  0.51100000000E-03 0. -1.
        -11    1    3    3    0    0  0.55383806391E+01 -0.42964311687E+01  0.35746235724E+01  0.78683489270E+01  0.51100000000E-03 0.  1.
         12    1    3    3    0    0  0.12185933543E+01  0.17812230787E+02 -0.29966160952E+02  0.34881676243E+02  0.00000000000E+00 0. -1.
</event>
<event>
 7    1  0.7444241E-013  0.5930207E+02  0.7816164E-02  0.1266604E+00
        -11   -1    0    0    0    0  0.00000000000E+00  0.00000000000E+00  0.45593999997E+02  0.45594000000E+02  0.51100000000E-03 0.  1.
         11   -1    0    0    0    0 -0.00000000000E+00 -0.00000000000E+00 -0.45593999997E+02  0.45594000000E+02  0.51100000000E-03 0. -1.
    9900012    2    1    2    0    0 -0.19254216288E+02 -0.25402717899E+02  0.83034228996E+00  0.59302072228E+02  0.50000233807E+02 0.  0.
        -12    1    1    2    0    0  0.19254216288E+02  0.25402717899E+02 -0.83034228996E+00  0.31885927772E+02  0.00000000000E+00 0.  1.
         11    1    3    3    0    0 -0.15107964587E+02  0.62503983544E+01 -0.79841194672E+01  0.18195170719E+02  0.51100000000E-03 0. -1.
        -11    1    3    3    0    0 -0.57638721785E+01 -0.17881601521E+02 -0.70227418283E+01  0.20057238057E+02  0.51100000000E-03 0.  1.
        -12    1    3    3    0    0  0.16176204775E+01 -0.13771514733E+02  0.15837203585E+02  0.21049663452E+02  0.00000000000E+00 0.  1.
</event>
<event>
 7    1  0.7444241E-013  0.5930195E+02  0.7816164E-02  0.1266605E+00
        -11   -1    0    0    0    0  0.00000000000E+00  0.00000000000E+00  0.45593999997E+02  0.45594000000E+02  0.51100000000E-03 0. -1.
         11   -1    0    0    0    0 -0.00000000000E+00 -0.00000000000E+00 -0.45593999997E+02  0.45594000000E+02  0.51100000000E-03 0.  1.
    9900012    2    1    2    0    0 -0.19277954096E+02  0.19996456180E+02 -0.15659579948E+02  0.59301949476E+02  0.50000009936E+02 0.  0.
        -12    1    1    2    0    0  0.19277954096E+02 -0.19996456180E+02  0.15659579948E+02  0.31886050524E+02  0.00000000000E+00 0.  1.
         11    1    3    3    0    0  0.66506077347E+01  0.78756637845E+00  0.69661595366E+01  0.96632408121E+01  0.51100000000E-03 0. -1.
        -11    1    3    3    0    0  0.48311121884E+01 -0.34705759576E+01 -0.25817018531E+01  0.64845760982E+01  0.51100000000E-03 0.  1.
        -12    1    3    3    0    0 -0.30759674019E+02  0.22679465760E+02 -0.20044037631E+02  0.43154132565E+02  0.00000000000E+00 0.  1.
</event>
<event>
 7    1  0.7444241E-013  0.5930194E+02  0.7816164E-02  0.1266605E+00
        -11   -1    0    0    0    0  0.00000000000E+00  0.00000000000E+00  0.45593999997E+02  0.45594000000E+02  0.51100000000E-03 0.  1.
         11   -1    0    0    0    0 -0.00000000000E+00 -0.00000000000E+00 -0.45593999997E+02  0.45594000000E+02  0.51100000000E-03 0. -1.
    9900012    2    1    2    0    0  0.13548606882E+02 -0.28791893170E+02 -0.20451824925E+01  0.59301942982E+02  0.49999998093E+02 0.  0.
        -12    1    1    2    0    0 -0.13548606882E+02  0.28791893170E+02  0.20451824925E+01  0.31886057018E+02  0.00000000000E+00 0.  1.
         11    1    3    3    0    0  0.20197008668E+02 -0.20387441665E+00 -0.14444165376E+02  0.24831323718E+02  0.51100000000E-03 0. -1.
        -11    1    3    3    0    0 -0.38991064153E+01 -0.18835239897E+01 -0.10336782690E+01  0.44518742663E+01  0.51100000000E-03 0.  1.
        -12    1    3    3    0    0 -0.27492953710E+01 -0.26704494763E+02  0.13432661153E+02  0.30018744998E+02  0.00000000000E+00 0.  1.
</event>
<event>
 7    1  0.7444241E-013  0.5930194E+02  0.7816164E-02  0.1266605E+00
        -11   -1    0    0    0    0  0.00000000000E+00  0.00000000000E+00  0.45593999997E+02  0.45594000000E+02  0.51100000000E-03 0. -1.
         11   -1    0    0    0    0 -0.00000000000E+00 -0.00000000000E+00 -0.45593999997E+02  0.45594000000E+02  0.51100000000E-03 0.  1.
    9900012    2    1    2    0    0  0.28048630107E+02 -0.14668233963E+02 -0.38519949222E+01  0.59301943434E+02  0.49999998916E+02 0.  0.
        -12    1    1    2    0    0 -0.28048630107E+02  0.14668233963E+02  0.38519949222E+01  0.31886056566E+02  0.00000000000E+00 0.  1.
         11    1    3    3    0    0  0.29956247674E+02  0.47261650130E+01  0.66197870447E+01  0.31040860027E+02  0.51100000000E-03 0. -1.
        -11    1    3    3    0    0  0.73469495134E+01 -0.12528993349E+02 -0.40912880248E+01  0.15089465844E+02  0.51100000000E-03 0.  1.
        -12    1    3    3    0    0 -0.92545670805E+01 -0.68654056278E+01 -0.63804939422E+01  0.13171617563E+02  0.00000000000E+00 0.  1.
</event>
<event>
 7    1  0.7444241E-013  0.5930195E+02  0.7816164E-02  0.1266605E+00
        -11   -1    0    0    0    0  0.00000000000E+00  0.00000000000E+00  0.45593999997E+02  0.45594000000E+02  0.51100000000E-03 0.  1.
         11   -1    0    0    0    0 -0.00000000000E+00 -0.00000000000E+00 -0.45593999997E+02  0.45594000000E+02  0.51100000000E-03 0. -1.
    9900012    2    1    2    0    0  0.23235204852E+02 -0.16842052500E+01 -0.21771751599E+02  0.59301945689E+02  0.50000003029E+02 0.  0.
        -12    1    1    2    0    0 -0.23235204852E+02  0.16842052500E+01  0.21771751599E+02  0.31886054311E+02  0.00000000000E+00 0.  1.
         11    1    3    3    0    0 -0.11717156188E+02  0.52843770832E+01 -0.14072043551E+02  0.19058824734E+02  0.51100000000E-03 0. -1.
        -11    1    3    3    0    0  0.60136232053E+00 -0.42707983646E+01 -0.34544581940E+01  0.55258155042E+01  0.51100000000E-03 0.  1.
        -12    1    3    3    0    0  0.34350998720E+02 -0.26977839686E+01 -0.42452498545E+01  0.34717305450E+02  0.00000000000E+00 0.  1.
</event>
<event>
 7    1  0.7444241E-013  0.5930193E+02  0.7816164E-02  0.1266605E+00
        -11   -1    0    0    0    0  0.00000000000E+00  0.00000000000E+00  0.45593999997E+02  0.45594000000E+02  0.51100000000E-03 0.  1.
         11   -1    0    0    0    0 -0.00000000000E+00 -0.00000000000E+00 -0.45593999997E+02  0.45594000000E+02  0.51100000000E-03 0. -1.
    9900012    2    1    2    0    0 -0.15270692518E+02 -0.36642300443E+01 -0.27750689653E+02  0.59301930816E+02  0.49999975905E+02 0.  0.
        -12    1    1    2    0    0  0.15270692518E+02  0.36642300443E+01  0.27750689653E+02  0.31886069184E+02  0.00000000000E+00 0.  1.
         11    1    3    3    0    0 -0.82242644803E+01  0.13566368829E+01 -0.23684585610E+02  0.25108536112E+02  0.51100000000E-03 0. -1.
        -11    1    3    3    0    0 -0.73771971294E+01  0.39701139880E+01 -0.16699867417E+02  0.18683426200E+02  0.51100000000E-03 0.  1.
        -12    1    3    3    0    0  0.33076909188E+00 -0.89909809151E+01  0.12633763374E+02  0.15509968504E+02  0.00000000000E+00 0.  1.
</event>
<event>
 7    1  0.7444241E-013  0.5930197E+02  0.7816164E-02  0.1266605E+00
        -11   -1    0    0    0    0  0.00000000000E+00  0.00000000000E+00  0.45593999997E+02  0.45594000000E+02  0.51100000000E-03 0.  1.
         11   -1    0    0    0    0 -0.00000000000E+00 -0.00000000000E+00 -0.45593999997E+02  0.45594000000E+02  0.51100000000E-03 0. -1.
    9900012    2    1    2    0    0  0.19857778568E+02 -0.10335169267E+02 -0.22706202135E+02  0.59301973141E+02  0.50000053096E+02 0.  0.
        -12    1    1    2    0    0 -0.19857778568E+02  0.10335169267E+02  0.22706202135E+02  0.31886026859E+02  0.00000000000E+00 0.  1.
         11    1    3    3    0    0  0.90238717572E+01 -0.63515646693E+01 -0.13909406266E+01  0.11122380650E+02  0.51100000000E-03 0. -1.
        -11    1    3    3    0    0  0.23640083382E+02 -0.12470530728E+02 -0.18639314735E+02  0.32585145895E+02  0.51100000000E-03 0.  1.
        -12    1    3    3    0    0 -0.12806176571E+02  0.84869261308E+01 -0.26759467738E+01  0.15594446596E+02  0.00000000000E+00 0.  1.
</event>
<event>
 7    1  0.7444241E-013  0.5930195E+02  0.7816164E-02  0.1266605E+00
        -11   -1    0    0    0    0  0.00000000000E+00  0.00000000000E+00  0.45593999997E+02  0.45594000000E+02  0.51100000000E-03 0.  1.
         11   -1    0    0    0    0 -0.00000000000E+00 -0.00000000000E+00 -0.45593999997E+02  0.45594000000E+02  0.51100000000E-03 0. -1.
    9900012    2    1    2    0    0  0.13806022732E+02  0.25986945868E+02  0.12279756122E+02  0.59301952430E+02  0.50000015323E+02 0.  0.
        -12    1    1    2    0    0 -0.13806022732E+02 -0.25986945868E+02 -0.12279756122E+02  0.31886047570E+02  0.00000000000E+00 0.  1.
         11    1    3    3    0    0  0.13422616659E+02  0.13690636583E+01 -0.16366202531E+01  0.13591155190E+02  0.51100000000E-03 0. -1.
        -11    1    3    3    0    0  0.41837081567E+01  0.31510730626E+02  0.25556729731E+01  0.31889826326E+02  0.51100000000E-03 0.  1.
        -12    1    3    3    0    0 -0.38003020831E+01 -0.68928484163E+01  0.11360703402E+02  0.13820970914E+02  0.00000000000E+00 0.  1.
</event>
<event>
 7    1  0.7444241E-013  0.5930196E+02  0.7816164E-02  0.1266605E+00
        -11   -1    0    0    0    0  0.00000000000E+00  0.00000000000E+00  0.45593999997E+02  0.45594000000E+02  0.51100000000E-03 0. -1.
         11   -1    0    0    0    0 -0.00000000000E+00 -0.00000000000E+00 -0.45593999997E+02  0.45594000000E+02  0.51100000000E-03 0.  1.
    9900012    2    1    2    0    0 -0.98247485202E+01 -0.11086829018E+01  0.30314434291E+02  0.59301956225E+02  0.50000022245E+02 0.  0.
        -12    1    1    2    0    0  0.98247485202E+01  0.11086829018E+01 -0.30314434291E+02  0.31886043775E+02  0.00000000000E+00 0.  1.
         11    1    3    3    0    0 -0.14312771134E+02  0.31592960336E+01  0.92058490903E+01  0.17308501573E+02  0.51100000000E-03 0.  1.
        -11    1    3    3    0    0  0.85964159609E+01 -0.15172263146E+02 -0.49749333573E+00  0.17445441703E+02  0.51100000000E-03 0. -1.
         12    1    3    3    0    0 -0.41083933467E+01  0.10904284210E+02  0.21606078536E+02  0.24548012949E+02  0.00000000000E+00 0. -1.
</event>
<event>
 7    1  0.7444241E-013  0.5930194E+02  0.7816164E-02  0.1266605E+00
        -11   -1    0    0    0    0  0.00000000000E+00  0.00000000000E+00  0.45593999997E+02  0.45594000000E+02  0.51100000000E-03 0.  1.
         11   -1    0    0    0    0 -0.00000000000E+00 -0.00000000000E+00 -0.45593999997E+02  0.45594000000E+02  0.51100000000E-03 0. -1.
    9900012    2    1    2    0    0 -0.26727265230E+02 -0.55002219041E+01 -0.16496113466E+02  0.59301938670E+02  0.49999990229E+02 0.  0.
        -12    1    1    2    0    0  0.26727265230E+02  0.55002219041E+01  0.16496113466E+02  0.31886061330E+02  0.00000000000E+00 0.  1.
         11    1    3    3    0    0 -0.26215284816E+01 -0.10339859072E+02  0.57787739921E+00  0.10682651345E+02  0.51100000000E-03 0. -1.
        -11    1    3    3    0    0  0.62393390961E+01 -0.56711108911E+01 -0.14020651645E+02  0.16360608910E+02  0.51100000000E-03 0.  1.
         12    1    3    3    0    0 -0.30345075844E+02  0.10510748059E+02 -0.30533392204E+01  0.32258678416E+02  0.00000000000E+00 0. -1.
</event>
<event>
 7    1  0.7444241E-013  0.5930194E+02  0.7816164E-02  0.1266605E+00
        -11   -1    0    0    0    0  0.00000000000E+00  0.00000000000E+00  0.45593999997E+02  0.45594000000E+02  0.51100000000E-03 0.  1.
         11   -1    0    0    0    0 -0.00000000000E+00 -0.00000000000E+00 -0.45593999997E+02  0.45594000000E+02  0.51100000000E-03 0. -1.
    9900012    2    1    2    0    0 -0.29920231514E+02  0.10973865908E+02  0.10368126568E+01  0.59301937726E+02  0.49999988508E+02 0.  0.
        -12    1    1    2    0    0  0.29920231514E+02 -0.10973865908E+02 -0.10368126568E+01  0.31886062274E+02  0.00000000000E+00 0.  1.
         11    1    3    3    0    0 -0.48574058086E+01  0.64192133377E+01  0.35124585037E+01  0.87828273390E+01  0.51100000000E-03 0. -1.
        -11    1    3    3    0    0 -0.26455725191E+02 -0.12085250140E+02  0.87799888420E+01  0.30381686435E+02  0.51100000000E-03 0.  1.
         12    1    3    3    0    0  0.13928994853E+01  0.16639902710E+02 -0.11255634689E+02  0.20137423952E+02  0.00000000000E+00 0. -1.
</event>
<event>
 7    1  0.7444241E-013  0.5930194E+02  0.7816164E-02  0.1266605E+00
        -11   -1    0    0    0    0  0.00000000000E+00  0.00000000000E+00  0.45593999997E+02  0.45594000000E+02  0.51100000000E-03 0.  1.
         11   -1    0    0    0    0 -0.00000000000E+00 -0.00000000000E+00 -0.45593999997E+02  0.45594000000E+02  0.51100000000E-03 0. -1.
    9900012    2    1    2    0    0  0.28264793939E+02 -0.11204985078E+02 -0.96057422687E+01  0.59301944246E+02  0.50000000398E+02 0.  0.
        -12    1    1    2    0    0 -0.28264793939E+02  0.11204985078E+02  0.96057422687E+01  0.31886055754E+02  0.00000000000E+00 0.  1.
         11    1    3    3    0    0 -0.55070042896E+01 -0.80864210313E+01  0.36310564057E+01  0.10435605983E+02  0.51100000000E-03 0.  1.
        -11    1    3    3    0    0  0.38336322729E+01 -0.12781192006E+02  0.26797692181E+01  0.13610171521E+02  0.51100000000E-03 0. -1.
         12    1    3    3    0    0  0.29938165956E+02  0.96626279592E+01 -0.15916567893E+02  0.35256166742E+02  0.00000000000E+00 0. -1.
</event>
<event>
 7    1  0.7444241E-013  0.5930195E+02  0.7816164E-02  0.1266605E+00
        -11   -1    0    0    0    0  0.00000000000E+00  0.00000000000E+00  0.45593999997E+02  0.45594000000E+02  0.51100000000E-03 0. -1.
         11   -1    0    0    0    0 -0.00000000000E+00 -0.00000000000E+00 -0.45593999997E+02  0.45594000000E+02  0.51100000000E-03 0.  1.
    9900012    2    1    2    0    0  0.28725000861E+02 -0.12222763684E+02 -0.64960660689E+01  0.59301945040E+02  0.50000001846E+02 0.  0.
        -12    1    1    2    0    0 -0.28725000861E+02  0.12222763684E+02  0.64960660689E+01  0.31886054960E+02  0.00000000000E+00 0.  1.
         11    1    3    3    0    0  0.44209849892E+01  0.37928803812E+01  0.35529426148E+01  0.68230822467E+01  0.51100000000E-03 0. -1.
        -11    1    3    3    0    0  0.22258574561E+02  0.54127865631E+01  0.81264768865E+01  0.24306008038E+02  0.51100000000E-03 0.  1.
        -12    1    3    3    0    0  0.20454413103E+01 -0.21428430629E+02 -0.18175485570E+02  0.28172854755E+02  0.00000000000E+00 0.  1.
</event>
<event>
 7    1  0.7444241E-013  0.5930217E+02  0.7816164E-02  0.1266604E+00
        -11   -1    0    0    0    0  0.00000000000E+00  0.00000000000E+00  0.45593999997E+02  0.45594000000E+02  0.51100000000E-03 0. -1.
         11   -1    0    0    0    0 -0.00000000000E+00 -0.00000000000E+00 -0.45593999997E+02  0.45594000000E+02  0.51100000000E-03 0.  1.
    9900012    2    1    2    0    0  0.25949671220E+02 -0.14126957100E+02  0.11989557897E+02  0.59302174750E+02  0.50000420780E+02 0.  0.
        -12    1    1    2    0    0 -0.25949671220E+02  0.14126957100E+02 -0.11989557897E+02  0.31885825250E+02  0.00000000000E+00 0.  1.
         11    1    3    3    0    0 -0.92007271286E+00 -0.13676362794E+01 -0.12167719350E+01  0.20487793909E+01  0.51100000000E-03 0. -1.
        -11    1    3    3    0    0 -0.73568935437E+01  0.50002636239E+01 -0.90843155946E+01  0.12714216807E+02  0.51100000000E-03 0.  1.
         12    1    3    3    0    0  0.34226637476E+02 -0.17759584444E+02  0.22290645427E+02  0.44539178552E+02  0.00000000000E+00 0. -1.
</event>
<event>
 7    1  0.7444241E-013  0.5930176E+02  0.7816164E-02  0.1266605E+00
        -11   -1    0    0    0    0  0.00000000000E+00  0.00000000000E+00  0.45593999997E+02  0.45594000000E+02  0.51100000000E-03 0. -1.
         11   -1    0    0    0    0 -0.00000000000E+00 -0.00000000000E+00 -0.45593999997E+02  0.45594000000E+02  0.51100000000E-03 0.  1.
    9900012    2    1    2    0    0 -0.41941670449E+00 -0.20218842215E+02  0.24652680426E+02  0.59301762482E+02  0.49999668903E+02 0.  0.
        -12    1    1    2    0    0  0.41941670449E+00  0.20218842215E+02 -0.24652680426E+02  0.31886237518E+02  0.00000000000E+00 0.  1.
         11    1    3    3    0    0  0.28420718801E+01  0.11126204041E+02 -0.10568387743E+01  0.11531985839E+02  0.51100000000E-03 0. -1.
        -11    1    3    3    0    0 -0.18558557990E+01  0.16915490219E+01 -0.30468760953E+01  0.39482898882E+01  0.51100000000E-03 0.  1.
         12    1    3    3    0    0 -0.14056327856E+01 -0.33036595277E+02  0.28756395295E+02  0.43821486755E+02  0.00000000000E+00 0. -1.
</event>
<event>
 7    1  0.7444241E-013  0.5930194E+02  0.7816164E-02  0.1266605E+00
        -11   -1    0    0    0    0  0.00000000000E+00  0.00000000000E+00  0.45593999997E+02  0.45594000000E+02  0.51100000000E-03 0. -1.
         11   -1    0    0    0    0 -0.00000000000E+00 -0.00000000000E+00 -0.45593999997E+02  0.45594000000E+02  0.51100000000E-03 0.  1.
    9900012    2    1    2    0    0  0.18485688322E+02 -0.25960616676E+02  0.10230089003E+01  0.59301939752E+02  0.49999992203E+02 0.  0.
        -12    1    1    2    0    0 -0.18485688322E+02  0.25960616676E+02 -0.10230089003E+01  0.31886060248E+02  0.00000000000E+00 0.  1.
         11    1    3    3    0    0 -0.49316632219E+01 -0.49173804745E+01  0.16745819096E+02  0.18136272779E+02  0.51100000000E-03 0. -1.
        -11    1    3    3    0    0 -0.38659572731E+01 -0.14868386459E+01 -0.10825929234E+00  0.41434327715E+01  0.51100000000E-03 0.  1.
         12    1    3    3    0    0  0.27283308817E+02 -0.19556397555E+02 -0.15614550904E+02  0.37022234201E+02  0.00000000000E+00 0. -1.
</event>
<event>
 7    1  0.7444241E-013  0.5930194E+02  0.7816164E-02  0.1266605E+00
        -11   -1    0    0    0    0  0.00000000000E+00  0.00000000000E+00  0.45593999997E+02  0.45594000000E+02  0.51100000000E-03 0.  1.
         11   -1    0    0    0    0 -0.00000000000E+00 -0.00000000000E+00 -0.45593999997E+02  0.45594000000E+02  0.51100000000E-03 0. -1.
    9900012    2    1    2    0    0  0.59000827085E+01 -0.27154794073E+02 -0.15637361968E+02  0.59301938681E+02  0.49999990248E+02 0.  0.
        -12    1    1    2    0    0 -0.59000827085E+01  0.27154794073E+02  0.15637361968E+02  0.31886061319E+02  0.00000000000E+00 0.  1.
         11    1    3    3    0    0  0.84550098782E+01 -0.22775338307E+02 -0.63378881024E+01  0.25107211174E+02  0.51100000000E-03 0. -1.
        -11    1    3    3    0    0 -0.13479212713E-01 -0.13491897188E+02  0.71121816831E+01  0.15251708100E+02  0.51100000000E-03 0.  1.
        -12    1    3    3    0    0 -0.25414479570E+01  0.91124414219E+01 -0.16411655549E+02  0.18943019407E+02  0.00000000000E+00 0.  1.
</event>
<event>
 7    1  0.7444241E-013  0.5930205E+02  0.7816164E-02  0.1266604E+00
        -11   -1    0    0    0    0  0.00000000000E+00  0.00000000000E+00  0.45593999997E+02  0.45594000000E+02  0.51100000000E-03 0.  1.
         11   -1    0    0    0    0 -0.00000000000E+00 -0.00000000000E+00 -0.45593999997E+02  0.45594000000E+02  0.51100000000E-03 0. -1.
    9900012    2    1    2    0    0 -0.29194771151E+02 -0.89908744463E+01 -0.91402105598E+01  0.59302048000E+02  0.50000189620E+02 0.  0.
        -12    1    1    2    0    0  0.29194771151E+02  0.89908744463E+01  0.91402105598E+01  0.31885952000E+02  0.00000000000E+00 0.  1.
         11    1    3    3    0    0 -0.27129753053E+02  0.13627399118E+01  0.84397042261E+01  0.28444844322E+02  0.51100000000E-03 0. -1.
        -11    1    3    3    0    0 -0.49699031981E+01  0.18000136385E+01  0.35087082631E+01  0.63443692227E+01  0.51100000000E-03 0.  1.
         12    1    3    3    0    0  0.29048851002E+01 -0.12153627997E+02 -0.21088623049E+02  0.24512834455E+02  0.00000000000E+00 0. -1.
</event>
<event>
 7    1  0.7444241E-013  0.5930194E+02  0.7816164E-02  0.1266605E+00
        -11   -1    0    0    0    0  0.00000000000E+00  0.00000000000E+00  0.45593999997E+02  0.45594000000E+02  0.51100000000E-03 0.  1.
         11   -1    0    0    0    0 -0.00000000000E+00 -0.00000000000E+00 -0.45593999997E+02  0.45594000000E+02  0.51100000000E-03 0. -1.
    9900012    2    1    2    0    0 -0.44198232838E+01 -0.15182988593E+02 -0.27688679755E+02  0.59301937730E+02  0.49999988515E+02 0.  0.
        -12    1    1    2    0    0  0.44198232838E+01  0.15182988593E+02  0.27688679755E+02  0.31886062270E+02  0.00000000000E+00 0.  1.
         11    1    3    3    0    0  0.67409529987E+01 -0.59017403515E+01 -0.31756278961E+01  0.95055562332E+01  0.51100000000E-03 0. -1.
        -11    1    3    3    0    0 -0.14986620851E+02 -0.21036549664E+02 -0.44192020525E+01  0.26204285400E+02  0.51100000000E-03 0.  1.
         12    1    3    3    0    0  0.38258445687E+01  0.11755301422E+02 -0.20093849807E+02  0.23592096097E+02  0.00000000000E+00 0. -1.
</event>
<event>
 7    1  0.7444241E-013  0.5930195E+02  0.7816164E-02  0.1266605E+00
        -11   -1    0    0    0    0  0.00000000000E+00  0.00000000000E+00  0.45593999997E+02  0.45594000000E+02  0.51100000000E-03 0.  1.
         11   -1    0    0    0    0 -0.00000000000E+00 -0.00000000000E+00 -0.45593999997E+02  0.45594000000E+02  0.51100000000E-03 0. -1.
    9900012    2    1    2    0    0 -0.16323513469E+02 -0.54905217856E+01 -0.26834995520E+02  0.59301954368E+02  0.50000018859E+02 0.  0.
        -12    1    1    2    0    0  0.16323513469E+02  0.54905217856E+01  0.26834995520E+02  0.31886045632E+02  0.00000000000E+00 0.  1.
         11    1    3    3    0    0 -0.19024909088E+02 -0.12682111847E+02 -0.15451884931E+02  0.27596084412E+02  0.51100000000E-03 0. -1.
        -11    1    3    3    0    0  0.48553912584E+01  0.84399187690E+01 -0.20264378748E+02  0.22482261883E+02  0.51100000000E-03 0.  1.
        -12    1    3    3    0    0 -0.21539956397E+01 -0.12483287074E+01  0.88812681584E+01  0.92236080728E+01  0.00000000000E+00 0.  1.
</event>
<event>
 7    1  0.7444241E-013  0.5930194E+02  0.7816164E-02  0.1266605E+00
        -11   -1    0    0    0    0  0.00000000000E+00  0.00000000000E+00  0.45593999997E+02  0.45594000000E+02  0.51100000000E-03 0.  1.
         11   -1    0    0    0    0 -0.00000000000E+00 -0.00000000000E+00 -0.45593999997E+02  0.45594000000E+02  0.51100000000E-03 0. -1.
    9900012    2    1    2    0    0  0.17458609919E+02 -0.18068594081E+02 -0.19632721148E+02  0.59301938906E+02  0.49999990660E+02 0.  0.
        -12    1    1    2    0    0 -0.17458609919E+02  0.18068594081E+02  0.19632721148E+02  0.31886061094E+02  0.00000000000E+00 0.  1.
         11    1    3    3    0    0  0.11451484630E+02 -0.52832391272E+01 -0.52766915850E+01  0.13670866477E+02  0.51100000000E-03 0. -1.
        -11    1    3    3    0    0  0.16215983657E+02 -0.19784515239E+02 -0.19561702200E+02  0.32203188699E+02  0.51100000000E-03 0.  1.
        -12    1    3    3    0    0 -0.10208858367E+02  0.69991602850E+01  0.52056726363E+01  0.13427883730E+02  0.00000000000E+00 0.  1.
</event>
<event>
 7    1  0.7444241E-013  0.5930191E+02  0.7816164E-02  0.1266605E+00
        -11   -1    0    0    0    0  0.00000000000E+00  0.00000000000E+00  0.45593999997E+02  0.45594000000E+02  0.51100000000E-03 0. -1.
         11   -1    0    0    0    0 -0.00000000000E+00 -0.00000000000E+00 -0.45593999997E+02  0.45594000000E+02  0.51100000000E-03 0.  1.
    9900012    2    1    2    0    0  0.25294406085E+01 -0.26516013432E+02  0.17527853055E+02  0.59301911013E+02  0.49999939790E+02 0.  0.
        -12    1    1    2    0    0 -0.25294406085E+01  0.26516013432E+02 -0.17527853055E+02  0.31886088987E+02  0.00000000000E+00 0.  1.
         11    1    3    3    0    0  0.84195388665E+01 -0.16969855082E+02  0.30905750937E+01  0.19194172837E+02  0.51100000000E-03 0. -1.
        -11    1    3    3    0    0  0.13057108184E+02 -0.12480645595E+02  0.89885192467E+01  0.20175432266E+02  0.51100000000E-03 0.  1.
         12    1    3    3    0    0 -0.18947206442E+02  0.29344872449E+01  0.54487587149E+01  0.19932305910E+02  0.00000000000E+00 0. -1.
</event>
<event>
 7    1  0.7444241E-013  0.5930194E+02  0.7816164E-02  0.1266605E+00
        -11   -1    0    0    0    0  0.00000000000E+00  0.00000000000E+00  0.45593999997E+02  0.45594000000E+02  0.51100000000E-03 0. -1.
         11   -1    0    0    0    0 -0.00000000000E+00 -0.00000000000E+00 -0.45593999997E+02  0.45594000000E+02  0.51100000000E-03 0.  1.
    9900012    2    1    2    0    0  0.48098878318E+01  0.24281221595E+02  0.20099958489E+02  0.59301936048E+02  0.49999985447E+02 0.  0.
        -12    1    1    2    0    0 -0.48098878318E+01 -0.24281221595E+02 -0.20099958489E+02  0.31886063952E+02  0.00000000000E+00 0.  1.
         11    1    3    3    0    0 -0.10416849703E+02  0.26302778428E+01 -0.73350496293E+01  0.13008922807E+02  0.51100000000E-03 0. -1.
        -11    1    3    3    0    0 -0.20062209018E+01  0.19281124468E+02  0.18239059905E+02  0.26616723870E+02  0.51100000000E-03 0.  1.
         12    1    3    3    0    0  0.17232958437E+02  0.23698192842E+01  0.91959482128E+01  0.19676289372E+02  0.00000000000E+00 0. -1.
</event>
<event>
 7    1  0.7444241E-013  0.5930181E+02  0.7816164E-02  0.1266605E+00
        -11   -1    0    0    0    0  0.00000000000E+00  0.00000000000E+00  0.45593999997E+02  0.45594000000E+02  0.51100000000E-03 0. -1.
         11   -1    0    0    0    0 -0.00000000000E+00 -0.00000000000E+00 -0.45593999997E+02  0.45594000000E+02  0.51100000000E-03 0.  1.
    9900012    2    1    2    0    0  0.14929856785E+02 -0.27277518095E+02  0.70544826675E+01  0.59301806393E+02  0.49999748987E+02 0.  0.
        -12    1    1    2    0    0 -0.14929856785E+02  0.27277518095E+02 -0.70544826675E+01  0.31886193607E+02  0.00000000000E+00 0.  1.
         11    1    3    3    0    0  0.14757056113E+02 -0.18528385597E+02  0.10779955533E+01  0.23711470908E+02  0.51100000000E-03 0. -1.
        -11    1    3    3    0    0 -0.47884297273E+01 -0.79826154973E+01 -0.12984246148E+02  0.15976290487E+02  0.51100000000E-03 0.  1.
        -12    1    3    3    0    0  0.49612303987E+01 -0.76651700071E+00  0.18960733262E+02  0.19614044999E+02  0.00000000000E+00 0.  1.
</event>
<event>
 7    1  0.7444241E-013  0.5930193E+02  0.7816164E-02  0.1266605E+00
        -11   -1    0    0    0    0  0.00000000000E+00  0.00000000000E+00  0.45593999997E+02  0.45594000000E+02  0.51100000000E-03 0.  1.
         11   -1    0    0    0    0 -0.00000000000E+00 -0.00000000000E+00 -0.45593999997E+02  0.45594000000E+02  0.51100000000E-03 0. -1.
    9900012    2    1    2    0    0  0.12243910595E+02 -0.15896277435E+02 -0.24781368725E+02  0.59301933782E+02  0.49999981314E+02 0.  0.
        -12    1    1    2    0    0 -0.12243910595E+02  0.15896277435E+02  0.24781368725E+02  0.31886066218E+02  0.00000000000E+00 0.  1.
         11    1    3    3    0    0 -0.12667429433E+02 -0.56255890203E+01 -0.97523972543E+00  0.13894679307E+02  0.51100000000E-03 0. -1.
        -11    1    3    3    0    0  0.45315400575E+01  0.93414484055E+01 -0.63732415381E+01  0.12182599130E+02  0.51100000000E-03 0.  1.
         12    1    3    3    0    0  0.20379799971E+02 -0.19612136820E+02 -0.17432887462E+02  0.33224655344E+02  0.00000000000E+00 0. -1.
</event>
<event>
 7    1  0.7444241E-013  0.5930195E+02  0.7816164E-02  0.1266605E+00
        -11   -1    0    0    0    0  0.00000000000E+00  0.00000000000E+00  0.45593999997E+02  0.45594000000E+02  0.51100000000E-03 0.  1.
         11   -1    0    0    0    0 -0.00000000000E+00 -0.00000000000E+00 -0.45593999997E+02  0.45594000000E+02  0.51100000000E-03 0. -1.
    9900012    2    1    2    0    0 -0.24291509716E+02  0.49010795754E+00 -0.20649522992E+02  0.59301945840E+02  0.50000003305E+02 0.  0.
        -12    1    1    2    0    0  0.24291509716E+02 -0.49010795754E+00  0.20649522992E+02  0.31886054160E+02  0.00000000000E+00 0.  1.
         11    1    3    3    0    0 -0.26760136334E+01  0.17880534751E+02 -0.57677457032E+01  0.18977393464E+02  0.51100000000E-03 0. -1.
        -11    1    3    3    0    0 -0.91517545200E+01  0.16579410719E+01  0.45875560482E+01  0.10370585815E+02  0.51100000000E-03 0.  1.
        -12    1    3    3    0    0 -0.12463741563E+02 -0.19048367865E+02 -0.19469333337E+02  0.29953966560E+02  0.00000000000E+00 0.  1.
</event>
<event>
 7    1  0.7444241E-013  0.5930195E+02  0.7816164E-02  0.1266605E+00
        -11   -1    0    0    0    0  0.00000000000E+00  0.00000000000E+00  0.45593999997E+02  0.45594000000E+02  0.51100000000E-03 0.  1.
         11   -1    0    0    0    0 -0.00000000000E+00 -0.00000000000E+00 -0.45593999997E+02  0.45594000000E+02  0.51100000000E-03 0. -1.
    9900012    2    1    2    0    0 -0.45927136445E+01  0.16141672413E+02 -0.27112241155E+02  0.59301949330E+02  0.50000009669E+02 0.  0.
        -12    1    1    2    0    0  0.45927136445E+01 -0.16141672413E+02  0.27112241155E+02  0.31886050670E+02  0.00000000000E+00 0.  1.
         11    1    3    3    0    0 -0.23220865561E+01 -0.13325206199E+02 -0.11566208064E+02  0.17796920392E+02  0.51100000000E-03 0. -1.
        -11    1    3    3    0    0 -0.77041258187E+01  0.13488213257E+02 -0.18726885317E+02  0.24330673757E+02  0.51100000000E-03 0.  1.
        -12    1    3    3    0    0  0.54334987303E+01  0.15978665355E+02  0.31808522262E+01  0.17174355181E+02  0.00000000000E+00 0.  1.
</event>
<event>
 7    1  0.7444241E-013  0.5930197E+02  0.7816164E-02  0.1266605E+00
        -11   -1    0    0    0    0  0.00000000000E+00  0.00000000000E+00  0.45593999997E+02  0.45594000000E+02  0.51100000000E-03 0. -1.
         11   -1    0    0    0    0 -0.00000000000E+00 -0.00000000000E+00 -0.45593999997E+02  0.45594000000E+02  0.51100000000E-03 0.  1.
    9900012    2    1    2    0    0  0.13978210329E+02  0.13614549852E+02  0.25218497692E+02  0.59301969242E+02  0.50000045984E+02 0.  0.
        -12    1    1    2    0    0 -0.13978210329E+02 -0.13614549852E+02 -0.25218497692E+02  0.31886030758E+02  0.00000000000E+00 0.  1.
         11    1    3    3    0    0  0.22261870738E+02  0.10326300525E+02  0.23669644326E+02  0.34095093988E+02  0.51100000000E-03 0. -1.
        -11    1    3    3    0    0  0.62454870337E+01  0.61827296699E+01  0.48374358136E+01  0.10031602064E+02  0.51100000000E-03 0.  1.
        -12    1    3    3    0    0 -0.14529147443E+02 -0.28944803433E+01 -0.32885824470E+01  0.15175273190E+02  0.00000000000E+00 0.  1.
</event>
<event>
 7    1  0.7444241E-013  0.5930195E+02  0.7816164E-02  0.1266605E+00
        -11   -1    0    0    0    0  0.00000000000E+00  0.00000000000E+00  0.45593999997E+02  0.45594000000E+02  0.51100000000E-03 0.  1.
         11   -1    0    0    0    0 -0.00000000000E+00 -0.00000000000E+00 -0.45593999997E+02  0.45594000000E+02  0.51100000000E-03 0. -1.
    9900012    2    1    2    0    0  0.26317709939E+02 -0.52147771399E+00 -0.17995182137E+02  0.59301947006E+02  0.50000005431E+02 0.  0.
        -12    1    1    2    0    0 -0.26317709939E+02  0.52147771399E+00  0.17995182137E+02  0.31886052994E+02  0.00000000000E+00 0.  1.
         11    1    3    3    0    0  0.13668052343E+02 -0.89222717159E+01  0.52730548253E+01  0.17153066632E+02  0.51100000000E-03 0. -1.
        -11    1    3    3    0    0  0.15024859609E+02 -0.46018795846E+01 -0.38027438827E+00  0.15718406753E+02  0.51100000000E-03 0.  1.
         12    1    3    3    0    0 -0.23752020141E+01  0.13002673587E+02 -0.22887962574E+02  0.26430473620E+02  0.00000000000E+00 0. -1.
</event>
<event>
 7    1  0.7444241E-013  0.5930201E+02  0.7816164E-02  0.1266605E+00
        -11   -1    0    0    0    0  0.00000000000E+00  0.00000000000E+00  0.45593999997E+02  0.45594000000E+02  0.51100000000E-03 0. -1.
         11   -1    0    0    0    0 -0.00000000000E+00 -0.00000000000E+00 -0.45593999997E+02  0.45594000000E+02  0.51100000000E-03 0.  1.
    9900012    2    1    2    0    0  0.22805502235E+02  0.21592411540E+02  0.55130044396E+01  0.59302009562E+02  0.50000119518E+02 0.  0.
        -12    1    1    2    0    0 -0.22805502235E+02 -0.21592411540E+02 -0.55130044396E+01  0.31885990438E+02  0.00000000000E+00 0.  1.
         11    1    3    3    0    0 -0.10399589492E+02  0.13423054559E+02  0.28253181459E+01  0.17213723542E+02  0.51100000000E-03 0. -1.
        -11    1    3    3    0    0  0.17154021587E+02  0.12553959746E+02 -0.75428126610E+01  0.22555628677E+02  0.51100000000E-03 0.  1.
        -12    1    3    3    0    0  0.16051070139E+02 -0.43846027649E+01  0.10230498955E+02  0.19532657343E+02  0.00000000000E+00 0.  1.
</event>
<event>
 7    1  0.7444241E-013  0.5930193E+02  0.7816164E-02  0.1266605E+00
        -11   -1    0    0    0    0  0.00000000000E+00  0.00000000000E+00  0.45593999997E+02  0.45594000000E+02  0.51100000000E-03 0. -1.
         11   -1    0    0    0    0 -0.00000000000E+00 -0.00000000000E+00 -0.45593999997E+02  0.45594000000E+02  0.51100000000E-03 0.  1.
    9900012    2    1    2    0    0 -0.60778544688E+01 -0.30390118356E+02  0.74981423634E+01  0.59301925492E+02  0.49999966194E+02 0.  0.
        -12    1    1    2    0    0  0.60778544688E+01  0.30390118356E+02 -0.74981423634E+01  0.31886074508E+02  0.00000000000E+00 0.  1.
         11    1    3    3    0    0 -0.28165761186E+01 -0.11522741113E+01 -0.35696209625E+01  0.46907388263E+01  0.51100000000E-03 0.  1.
        -11    1    3    3    0    0 -0.20012759574E+02 -0.28308249868E+02  0.28776681692E+00  0.34669155835E+02  0.51100000000E-03 0. -1.
        -12    1    3    3    0    0  0.16751481224E+02 -0.92959437743E+00  0.10779996509E+02  0.19942030830E+02  0.00000000000E+00 0.  1.
</event>
<event>
 7    1  0.7444241E-013  0.5930195E+02  0.7816164E-02  0.1266605E+00
        -11   -1    0    0    0    0  0.00000000000E+00  0.00000000000E+00  0.45593999997E+02  0.45594000000E+02  0.51100000000E-03 0.  1.
         11   -1    0    0    0    0 -0.00000000000E+00 -0.00000000000E+00 -0.45593999997E+02  0.45594000000E+02  0.51100000000E-03 0. -1.
    9900012    2    1    2    0    0 -0.26885158144E+02  0.37959532149E+01 -0.16718236682E+02  0.59301946199E+02  0.50000003960E+02 0.  0.
        -12    1    1    2    0    0  0.26885158144E+02 -0.37959532149E+01  0.16718236682E+02  0.31886053801E+02  0.00000000000E+00 0.  1.
         11    1    3    3    0    0 -0.66255822320E+01  0.12713396406E+02 -0.19441321572E+01  0.14467495920E+02  0.51100000000E-03 0. -1.
        -11    1    3    3    0    0 -0.68272077518E+01  0.13425519019E+02 -0.10635260504E+02  0.18438115219E+02  0.51100000000E-03 0.  1.
        -12    1    3    3    0    0 -0.13432368161E+02 -0.22342962210E+02 -0.41388440208E+01  0.26396335059E+02  0.00000000000E+00 0.  1.
</event>
<event>
 7    1  0.7444241E-013  0.5930195E+02  0.7816164E-02  0.1266605E+00
        -11   -1    0    0    0    0  0.00000000000E+00  0.00000000000E+00  0.45593999997E+02  0.45594000000E+02  0.51100000000E-03 0. -1.
         11   -1    0    0    0    0 -0.00000000000E+00 -0.00000000000E+00 -0.45593999997E+02  0.45594000000E+02  0.51100000000E-03 0.  1.
    9900012    2    1    2    0    0 -0.18675892264E+02 -0.12387592679E+02  0.22682129693E+02  0.59301946440E+02  0.50000004399E+02 0.  0.
        -12    1    1    2    0    0  0.18675892264E+02  0.12387592679E+02 -0.22682129693E+02  0.31886053560E+02  0.00000000000E+00 0.  1.
         11    1    3    3    0    0 -0.50751251123E+01  0.73539714637E+01  0.11449480696E+02  0.14523374252E+02  0.51100000000E-03 0. -1.
        -11    1    3    3    0    0  0.80652914287E+01  0.56294216168E+01  0.10257935954E+01  0.98889618429E+01  0.51100000000E-03 0.  1.
        -12    1    3    3    0    0 -0.21666058581E+02 -0.25370985759E+02  0.10206855401E+02  0.34889610345E+02  0.00000000000E+00 0.  1.
</event>
<event>
 7    1  0.7444241E-013  0.5930196E+02  0.7816164E-02  0.1266605E+00
        -11   -1    0    0    0    0  0.00000000000E+00  0.00000000000E+00  0.45593999997E+02  0.45594000000E+02  0.51100000000E-03 0.  1.
         11   -1    0    0    0    0 -0.00000000000E+00 -0.00000000000E+00 -0.45593999997E+02  0.45594000000E+02  0.51100000000E-03 0. -1.
    9900012    2    1    2    0    0 -0.21863757799E+02  0.23182699356E+02  0.11217388854E+01  0.59301956773E+02  0.50000023245E+02 0.  0.
        -12    1    1    2    0    0  0.21863757799E+02 -0.23182699356E+02 -0.11217388854E+01  0.31886043227E+02  0.00000000000E+00 0.  1.
         11    1    3    3    0    0 -0.12963054853E+02 -0.72444404851E+01  0.85219296371E+00  0.14874439222E+02  0.51100000000E-03 0. -1.
        -11    1    3    3    0    0 -0.12298526008E+02  0.84788807281E+01 -0.11903340171E+02  0.19100645745E+02  0.51100000000E-03 0.  1.
         12    1    3    3    0    0  0.33978230620E+01  0.21948259113E+02  0.12172886093E+02  0.25326871806E+02  0.00000000000E+00 0. -1.
</event>
<event>
 7    1  0.7444241E-013  0.5930193E+02  0.7816164E-02  0.1266605E+00
        -11   -1    0    0    0    0  0.00000000000E+00  0.00000000000E+00  0.45593999997E+02  0.45594000000E+02  0.51100000000E-03 0. -1.
         11   -1    0    0    0    0 -0.00000000000E+00 -0.00000000000E+00 -0.45593999997E+02  0.45594000000E+02  0.51100000000E-03 0.  1.
    9900012    2    1    2    0    0 -0.87742838417E+01  0.30643467321E+02 -0.84336053519E+00  0.59301930889E+02  0.49999976038E+02 0.  0.
        -12    1    1    2    0    0  0.87742838417E+01 -0.30643467321E+02  0.84336053519E+00  0.31886069111E+02  0.00000000000E+00 0.  1.
         11    1    3    3    0    0 -0.11585025255E+02  0.15083020361E+02 -0.33401817195E+01  0.19309767672E+02  0.51100000000E-03 0. -1.
        -11    1    3    3    0    0 -0.10689968402E+01  0.25066838103E+02 -0.69557676528E+01  0.26035971859E+02  0.51100000000E-03 0.  1.
        -12    1    3    3    0    0  0.38797382538E+01 -0.95063911434E+01  0.94525888371E+01  0.13956191358E+02  0.00000000000E+00 0.  1.
</event>
<event>
 7    1  0.7444241E-013  0.5930195E+02  0.7816164E-02  0.1266605E+00
        -11   -1    0    0    0    0  0.00000000000E+00  0.00000000000E+00  0.45593999997E+02  0.45594000000E+02  0.51100000000E-03 0.  1.
         11   -1    0    0    0    0 -0.00000000000E+00 -0.00000000000E+00 -0.45593999997E+02  0.45594000000E+02  0.51100000000E-03 0. -1.
    9900012    2    1    2    0    0  0.27288245682E+02 -0.93842735191E+01 -0.13564933662E+02  0.59301947138E+02  0.50000005672E+02 0.  0.
        -12    1    1    2    0    0 -0.27288245682E+02  0.93842735191E+01  0.13564933662E+02  0.31886052862E+02  0.00000000000E+00 0.  1.
         11    1    3    3    0    0  0.12501154831E+02 -0.16106235451E+02 -0.33576241794E+01  0.20663091079E+02  0.51100000000E-03 0. -1.
        -11    1    3    3    0    0 -0.25281360107E+01  0.47951539581E+01  0.10355074101E+02  0.11688136424E+02  0.51100000000E-03 0.  1.
         12    1    3    3    0    0  0.17315226861E+02  0.19268079743E+01 -0.20562383583E+02  0.26950719635E+02  0.00000000000E+00 0. -1.
</event>
<event>
 7    1  0.7444241E-013  0.5930180E+02  0.7816164E-02  0.1266605E+00
        -11   -1    0    0    0    0  0.00000000000E+00  0.00000000000E+00  0.45593999997E+02  0.45594000000E+02  0.51100000000E-03 0. -1.
         11   -1    0    0    0    0 -0.00000000000E+00 -0.00000000000E+00 -0.45593999997E+02  0.45594000000E+02  0.51100000000E-03 0.  1.
    9900012    2    1    2    0    0 -0.20271196514E+02 -0.45471292963E+01  0.24189495324E+02  0.59301804288E+02  0.49999745148E+02 0.  0.
        -12    1    1    2    0    0  0.20271196514E+02  0.45471292963E+01 -0.24189495324E+02  0.31886195712E+02  0.00000000000E+00 0.  1.
         11    1    3    3    0    0  0.69660748281E+01 -0.18996474251E+01  0.10830680594E+02  0.13016854506E+02  0.51100000000E-03 0. -1.
        -11    1    3    3    0    0  0.53543641676E+01  0.57007636317E+01  0.96738504802E+01  0.12439907757E+02  0.51100000000E-03 0.  1.
         12    1    3    3    0    0 -0.32591635510E+02 -0.83482455029E+01  0.36849642499E+01  0.33845042025E+02  0.00000000000E+00 0. -1.
</event>
<event>
 7    1  0.7444241E-013  0.5930196E+02  0.7816164E-02  0.1266605E+00
        -11   -1    0    0    0    0  0.00000000000E+00  0.00000000000E+00  0.45593999997E+02  0.45594000000E+02  0.51100000000E-03 0. -1.
         11   -1    0    0    0    0 -0.00000000000E+00 -0.00000000000E+00 -0.45593999997E+02  0.45594000000E+02  0.51100000000E-03 0.  1.
    9900012    2    1    2    0    0  0.25660496778E+02 -0.26923261774E+01  0.18735262221E+02  0.59301956570E+02  0.50000022873E+02 0.  0.
        -12    1    1    2    0    0 -0.25660496778E+02  0.26923261774E+01 -0.18735262221E+02  0.31886043430E+02  0.00000000000E+00 0.  1.
         11    1    3    3    0    0  0.66212598438E+01 -0.73463040901E+00  0.85799803585E+01  0.10862634440E+02  0.51100000000E-03 0. -1.
        -11    1    3    3    0    0  0.31215995808E+02  0.34995020760E+01  0.14234089942E+02  0.34486145419E+02  0.51100000000E-03 0.  1.
        -12    1    3    3    0    0 -0.12176758874E+02 -0.54571978444E+01 -0.40788080798E+01  0.13953176711E+02  0.00000000000E+00 0.  1.
</event>
<event>
 7    1  0.7444241E-013  0.5930200E+02  0.7816164E-02  0.1266605E+00
        -11   -1    0    0    0    0  0.00000000000E+00  0.00000000000E+00  0.45593999997E+02  0.45594000000E+02  0.51100000000E-03 0.  1.
         11   -1    0    0    0    0 -0.00000000000E+00 -0.00000000000E+00 -0.45593999997E+02  0.45594000000E+02  0.51100000000E-03 0. -1.
    9900012    2    1    2    0    0  0.23454808473E+02  0.10670320385E+02 -0.18781188758E+02  0.59302002622E+02  0.50000106861E+02 0.  0.
        -12    1    1    2    0    0 -0.23454808473E+02 -0.10670320385E+02  0.18781188758E+02  0.31885997378E+02  0.00000000000E+00 0.  1.
         11    1    3    3    0    0  0.61270367807E+01 -0.89939756415E+01 -0.51397388108E+01  0.12035326870E+02  0.51100000000E-03 0. -1.
        -11    1    3    3    0    0 -0.15004696397E+01  0.21774595086E+01  0.11210874845E+02  0.11518526560E+02  0.51100000000E-03 0.  1.
         12    1    3    3    0    0  0.18828241332E+02  0.17486836518E+02 -0.24852324793E+02  0.35748149192E+02  0.00000000000E+00 0. -1.
</event>
<event>
 7    1  0.7444241E-013  0.5930214E+02  0.7816164E-02  0.1266604E+00
        -11   -1    0    0    0    0  0.00000000000E+00  0.00000000000E+00  0.45593999997E+02  0.45594000000E+02  0.51100000000E-03 0.  1.
         11   -1    0    0    0    0 -0.00000000000E+00 -0.00000000000E+00 -0.45593999997E+02  0.45594000000E+02  0.51100000000E-03 0. -1.
    9900012    2    1    2    0    0 -0.11819464436E+02 -0.23276989934E+02  0.18308204059E+02  0.59302135799E+02  0.50000349744E+02 0.  0.
        -12    1    1    2    0    0  0.11819464436E+02  0.23276989934E+02 -0.18308204059E+02  0.31885864201E+02  0.00000000000E+00 0.  1.
         11    1    3    3    0    0  0.43521247973E+01 -0.77835417482E+01  0.54149902440E+01  0.10432958928E+02  0.51100000000E-03 0. -1.
        -11    1    3    3    0    0  0.99539477403E+01 -0.17312346935E+02  0.70309873465E+00  0.19982311681E+02  0.51100000000E-03 0.  1.
         12    1    3    3    0    0 -0.26125536974E+02  0.18188987490E+01  0.12190115081E+02  0.28886865190E+02  0.00000000000E+00 0. -1.
</event>
<event>
 7    1  0.7444241E-013  0.5930190E+02  0.7816164E-02  0.1266605E+00
        -11   -1    0    0    0    0  0.00000000000E+00  0.00000000000E+00  0.45593999997E+02  0.45594000000E+02  0.51100000000E-03 0.  1.
         11   -1    0    0    0    0 -0.00000000000E+00 -0.00000000000E+00 -0.45593999997E+02  0.45594000000E+02  0.51100000000E-03 0. -1.
    9900012    2    1    2    0    0 -0.25521525223E+02 -0.16899968415E+02 -0.89311898235E+01  0.59301900618E+02  0.49999920831E+02 0.  0.
        -12    1    1    2    0    0  0.25521525223E+02  0.16899968415E+02  0.89311898235E+01  0.31886099382E+02  0.00000000000E+00 0.  1.
         11    1    3    3    0    0 -0.22353015606E+02 -0.13945552663E+02  0.56892592237E+01  0.26953727322E+02  0.51100000000E-03 0. -1.
        -11    1    3    3    0    0 -0.10958280101E+02 -0.12302421000E+02 -0.10329105650E+02  0.19445407916E+02  0.51100000000E-03 0.  1.
        -12    1    3    3    0    0  0.77897704845E+01  0.93480052473E+01 -0.42913433973E+01  0.12902765380E+02  0.00000000000E+00 0.  1.
</event>
<event>
 7    1  0.7444241E-013  0.5930201E+02  0.7816164E-02  0.1266605E+00
        -11   -1    0    0    0    0  0.00000000000E+00  0.00000000000E+00  0.45593999997E+02  0.45594000000E+02  0.51100000000E-03 0.  1.
         11   -1    0    0    0    0 -0.00000000000E+00 -0.00000000000E+00 -0.45593999997E+02  0.45594000000E+02  0.51100000000E-03 0. -1.
    9900012    2    1    2    0    0  0.24492009701E+02  0.16221630014E+02 -0.12398242128E+02  0.59302012053E+02  0.50000124061E+02 0.  0.
        -12    1    1    2    0    0 -0.24492009701E+02 -0.16221630014E+02  0.12398242128E+02  0.31885987947E+02  0.00000000000E+00 0.  1.
         11    1    3    3    0    0  0.20774411202E+02 -0.30538934573E+01 -0.19166286702E+02  0.28429719876E+02  0.51100000000E-03 0. -1.
        -11    1    3    3    0    0  0.13396352795E+01  0.44319794363E+01 -0.83528908767E+01  0.95502801354E+01  0.51100000000E-03 0.  1.
        -12    1    3    3    0    0  0.23779632195E+01  0.14843544035E+02  0.15120935450E+02  0.21322012041E+02  0.00000000000E+00 0.  1.
</event>
<event>
 7    1  0.7444241E-013  0.5930198E+02  0.7816164E-02  0.1266605E+00
        -11   -1    0    0    0    0  0.00000000000E+00  0.00000000000E+00  0.45593999997E+02  0.45594000000E+02  0.51100000000E-03 0.  1.
         11   -1    0    0    0    0 -0.00000000000E+00 -0.00000000000E+00 -0.45593999997E+02  0.45594000000E+02  0.51100000000E-03 0. -1.
    9900012    2    1    2    0    0 -0.26529300724E+02 -0.13375808879E+02 -0.11575935270E+02  0.59301978965E+02  0.50000063717E+02 0.  0.
        -12    1    1    2    0    0  0.26529300724E+02  0.13375808879E+02  0.11575935270E+02  0.31886021035E+02  0.00000000000E+00 0.  1.
         11    1    3    3    0    0  0.69055775355E+01  0.92247516983E+01 -0.10693883412E+02  0.15720756588E+02  0.51100000000E-03 0. -1.
        -11    1    3    3    0    0  0.61643837046E+00 -0.53780682456E+01 -0.87423121945E-01  0.54139871982E+01  0.51100000000E-03 0.  1.
         12    1    3    3    0    0 -0.34051316630E+02 -0.17222492332E+02 -0.79462873582E+00  0.38167235179E+02  0.00000000000E+00 0. -1.
</event>
<event>
 7    1  0.7444241E-013  0.5930193E+02  0.7816164E-02  0.1266605E+00
        -11   -1    0    0    0    0  0.00000000000E+00  0.00000000000E+00  0.45593999997E+02  0.45594000000E+02  0.51100000000E-03 0. -1.
         11   -1    0    0    0    0 -0.00000000000E+00 -0.00000000000E+00 -0.45593999997E+02  0.45594000000E+02  0.51100000000E-03 0.  1.
    9900012    2    1    2    0    0 -0.20632338916E+02 -0.22571182442E+02 -0.90315977617E+01  0.59301930250E+02  0.49999974873E+02 0.  0.
        -12    1    1    2    0    0  0.20632338916E+02  0.22571182442E+02  0.90315977617E+01  0.31886069750E+02  0.00000000000E+00 0.  1.
         11    1    3    3    0    0 -0.15591233866E+02 -0.67350950395E+01  0.39978230244E+00  0.16988463874E+02  0.51100000000E-03 0. -1.
        -11    1    3    3    0    0 -0.16768161997E+02 -0.18801106486E+02 -0.14647028804E+02  0.29140835865E+02  0.51100000000E-03 0.  1.
        -12    1    3    3    0    0  0.11727056947E+02  0.29650190831E+01  0.52156487402E+01  0.13172630511E+02  0.00000000000E+00 0.  1.
</event>
<event>
 7    1  0.7444241E-013  0.5930181E+02  0.7816164E-02  0.1266605E+00
        -11   -1    0    0    0    0  0.00000000000E+00  0.00000000000E+00  0.45593999997E+02  0.45594000000E+02  0.51100000000E-03 0. -1.
         11   -1    0    0    0    0 -0.00000000000E+00 -0.00000000000E+00 -0.45593999997E+02  0.45594000000E+02  0.51100000000E-03 0.  1.
    9900012    2    1    2    0    0  0.84451907684E+01  0.17795612933E+02  0.25074373585E+02  0.59301807103E+02  0.49999750282E+02 0.  0.
        -12    1    1    2    0    0 -0.84451907684E+01 -0.17795612933E+02 -0.25074373585E+02  0.31886192897E+02  0.00000000000E+00 0.  1.
         11    1    3    3    0    0 -0.84615275549E+01  0.19776384213E+00  0.25134287958E+02  0.26521104625E+02  0.51100000000E-03 0. -1.
        -11    1    3    3    0    0  0.18906288906E+01  0.16931844997E+02 -0.34246150035E+01  0.17377854896E+02  0.51100000000E-03 0.  1.
        -12    1    3    3    0    0  0.15016089433E+02  0.66600409416E+00  0.33647006303E+01  0.15402847582E+02  0.00000000000E+00 0.  1.
</event>
<event>
 7    1  0.7444241E-013  0.5930190E+02  0.7816164E-02  0.1266605E+00
        -11   -1    0    0    0    0  0.00000000000E+00  0.00000000000E+00  0.45593999997E+02  0.45594000000E+02  0.51100000000E-03 0.  1.
         11   -1    0    0    0    0 -0.00000000000E+00 -0.00000000000E+00 -0.45593999997E+02  0.45594000000E+02  0.51100000000E-03 0. -1.
    9900012    2    1    2    0    0 -0.22254215573E+02 -0.18704228749E+02 -0.13100575075E+02  0.59301900345E+02  0.49999920333E+02 0.  0.
        -12    1    1    2    0    0  0.22254215573E+02  0.18704228749E+02  0.13100575075E+02  0.31886099655E+02  0.00000000000E+00 0.  1.
         11    1    3    3    0    0 -0.17868659691E+01  0.25220569092E+01 -0.62944645215E+01  0.70124136300E+01  0.51100000000E-03 0. -1.
        -11    1    3    3    0    0  0.50156586063E+01  0.27764506005E+01  0.11452092022E+02  0.12806870076E+02  0.51100000000E-03 0.  1.
         12    1    3    3    0    0 -0.25483008210E+02 -0.24002736259E+02 -0.18258202576E+02  0.39482616639E+02  0.00000000000E+00 0. -1.
</event>
<event>
 7    1  0.7444241E-013  0.5930195E+02  0.7816164E-02  0.1266605E+00
        -11   -1    0    0    0    0  0.00000000000E+00  0.00000000000E+00  0.45593999997E+02  0.45594000000E+02  0.51100000000E-03 0.  1.
         11   -1    0    0    0    0 -0.00000000000E+00 -0.00000000000E+00 -0.45593999997E+02  0.45594000000E+02  0.51100000000E-03 0. -1.
    9900012    2    1    2    0    0 -0.15063183440E+02 -0.90580638907E+01 -0.26603990127E+02  0.59301948073E+02  0.50000007377E+02 0.  0.
        -12    1    1    2    0    0  0.15063183440E+02  0.90580638907E+01  0.26603990127E+02  0.31886051927E+02  0.00000000000E+00 0.  1.
         11    1    3    3    0    0 -0.11835771647E+02  0.13391349757E+02 -0.79379363917E+01  0.19555678797E+02  0.51100000000E-03 0. -1.
        -11    1    3    3    0    0  0.61401801125E+01 -0.28269587240E+01  0.43855049062E+01  0.80576771457E+01  0.51100000000E-03 0.  1.
         12    1    3    3    0    0 -0.93675919058E+01 -0.19622454924E+02 -0.23051558642E+02  0.31688592130E+02  0.00000000000E+00 0. -1.
</event>
<event>
 7    1  0.7444241E-013  0.5930191E+02  0.7816164E-02  0.1266605E+00
        -11   -1    0    0    0    0  0.00000000000E+00  0.00000000000E+00  0.45593999997E+02  0.45594000000E+02  0.51100000000E-03 0. -1.
         11   -1    0    0    0    0 -0.00000000000E+00 -0.00000000000E+00 -0.45593999997E+02  0.45594000000E+02  0.51100000000E-03 0.  1.
    9900012    2    1    2    0    0  0.43637075465E+01 -0.56037423351E+01  0.31085027875E+02  0.59301908522E+02  0.49999935247E+02 0.  0.
        -12    1    1    2    0    0 -0.43637075465E+01  0.56037423351E+01 -0.31085027875E+02  0.31886091478E+02  0.00000000000E+00 0.  1.
         11    1    3    3    0    0 -0.98526831263E+01  0.25822820639E+01  0.29157561853E+02  0.30885384228E+02  0.51100000000E-03 0. -1.
        -11    1    3    3    0    0 -0.14771940881E+01 -0.68910513517E+01  0.87668992870E+01  0.11248431645E+02  0.51100000000E-03 0.  1.
        -12    1    3    3    0    0  0.15693584761E+02 -0.12949730473E+01 -0.68394332643E+01  0.17168092649E+02  0.00000000000E+00 0.  1.
</event>
<event>
 7    1  0.7444241E-013  0.5930193E+02  0.7816164E-02  0.1266605E+00
        -11   -1    0    0    0    0  0.00000000000E+00  0.00000000000E+00  0.45593999997E+02  0.45594000000E+02  0.51100000000E-03 0. -1.
         11   -1    0    0    0    0 -0.00000000000E+00 -0.00000000000E+00 -0.45593999997E+02  0.45594000000E+02  0.51100000000E-03 0.  1.
    9900012    2    1    2    0    0 -0.10845891993E+02 -0.17380081599E+02  0.24434009435E+02  0.59301930525E+02  0.49999975374E+02 0.  0.
        -12    1    1    2    0    0  0.10845891993E+02  0.17380081599E+02 -0.24434009435E+02  0.31886069475E+02  0.00000000000E+00 0.  1.
         11    1    3    3    0    0 -0.16349873175E+02 -0.96595513384E+01  0.33583819779E+02  0.38581060588E+02  0.51100000000E-03 0. -1.
        -11    1    3    3    0    0 -0.46191069977E+01 -0.45860941396E+01  0.30877056894E+00  0.65164214443E+01  0.51100000000E-03 0.  1.
        -12    1    3    3    0    0  0.10123088180E+02 -0.31344361214E+01 -0.94585809131E+01  0.14204448493E+02  0.00000000000E+00 0.  1.
</event>
<event>
 7    1  0.7444241E-013  0.5930194E+02  0.7816164E-02  0.1266605E+00
        -11   -1    0    0    0    0  0.00000000000E+00  0.00000000000E+00  0.45593999997E+02  0.45594000000E+02  0.51100000000E-03 0. -1.
         11   -1    0    0    0    0 -0.00000000000E+00 -0.00000000000E+00 -0.45593999997E+02  0.45594000000E+02  0.51100000000E-03 0.  1.
    9900012    2    1    2    0    0 -0.18810248167E+02  0.21779205842E+02  0.13731762910E+02  0.59301944179E+02  0.50000000275E+02 0.  0.
        -12    1    1    2    0    0  0.18810248167E+02 -0.21779205842E+02 -0.13731762910E+02  0.31886055821E+02  0.00000000000E+00 0.  1.
         11    1    3    3    0    0 -0.64801642657E+01 -0.12353452127E+02 -0.36499143516E+01  0.14419507044E+02  0.51100000000E-03 0. -1.
        -11    1    3    3    0    0  0.11527049644E+01 -0.98276747155E+00 -0.20467903439E+01  0.25463526093E+01  0.51100000000E-03 0.  1.
        -12    1    3    3    0    0 -0.13482788866E+02  0.35115425440E+02  0.19428467605E+02  0.42336084525E+02  0.00000000000E+00 0.  1.
</event>
<event>
 7    1  0.7444241E-013  0.5930195E+02  0.7816164E-02  0.1266605E+00
        -11   -1    0    0    0    0  0.00000000000E+00  0.00000000000E+00  0.45593999997E+02  0.45594000000E+02  0.51100000000E-03 0. -1.
         11   -1    0    0    0    0 -0.00000000000E+00 -0.00000000000E+00 -0.45593999997E+02  0.45594000000E+02  0.51100000000E-03 0.  1.
    9900012    2    1    2    0    0  0.62449710947E+01 -0.28627671672E+02 -0.12576830966E+02  0.59301954047E+02  0.50000018274E+02 0.  0.
        -12    1    1    2    0    0 -0.62449710947E+01  0.28627671672E+02  0.12576830966E+02  0.31886045953E+02  0.00000000000E+00 0.  1.
         11    1    3    3    0    0 -0.28762519485E+01 -0.24279154617E+02  0.91874813199E+01  0.26118192653E+02  0.51100000000E-03 0. -1.
        -11    1    3    3    0    0 -0.61372449395E+01 -0.52842040217E+01 -0.13662452635E+02  0.15882417948E+02  0.51100000000E-03 0.  1.
        -12    1    3    3    0    0  0.15258467983E+02  0.93568696639E+00 -0.81018596503E+01  0.17301343447E+02  0.00000000000E+00 0.  1.
</event>
<event>
 7    1  0.7444241E-013  0.5930195E+02  0.7816164E-02  0.1266605E+00
        -11   -1    0    0    0    0  0.00000000000E+00  0.00000000000E+00  0.45593999997E+02  0.45594000000E+02  0.51100000000E-03 0.  1.
         11   -1    0    0    0    0 -0.00000000000E+00 -0.00000000000E+00 -0.45593999997E+02  0.45594000000E+02  0.51100000000E-03 0. -1.
    9900012    2    1    2    0    0 -0.75530310933E+01  0.23561787838E+02 -0.20112528402E+02  0.59301954094E+02  0.50000018358E+02 0.  0.
        -12    1    1    2    0    0  0.75530310933E+01 -0.23561787838E+02  0.20112528402E+02  0.31886045906E+02  0.00000000000E+00 0.  1.
         11    1    3    3    0    0 -0.14634776661E+02  0.16745564231E+02 -0.19393763414E+02  0.29507773026E+02  0.51100000000E-03 0.  1.
        -11    1    3    3    0    0  0.20794325920E+01  0.16623250053E+02 -0.57198861614E+01  0.17702360865E+02  0.51100000000E-03 0. -1.
        -12    1    3    3    0    0  0.50023129754E+01 -0.98070264458E+01  0.50011211739E+01  0.12091820202E+02  0.00000000000E+00 0.  1.
</event>
<event>
 7    1  0.7444241E-013  0.5930196E+02  0.7816164E-02  0.1266605E+00
        -11   -1    0    0    0    0  0.00000000000E+00  0.00000000000E+00  0.45593999997E+02  0.45594000000E+02  0.51100000000E-03 0.  1.
         11   -1    0    0    0    0 -0.00000000000E+00 -0.00000000000E+00 -0.45593999997E+02  0.45594000000E+02  0.51100000000E-03 0. -1.
    9900012    2    1    2    0    0  0.28872362467E+02  0.60293078880E+01 -0.12114197293E+02  0.59301958476E+02  0.50000026350E+02 0.  0.
        -12    1    1    2    0    0 -0.28872362467E+02 -0.60293078880E+01  0.12114197293E+02  0.31886041524E+02  0.00000000000E+00 0.  1.
         11    1    3    3    0    0 -0.79067901178E+01  0.52827378431E+01 -0.15367488059E+02  0.18071644601E+02  0.51100000000E-03 0. -1.
        -11    1    3    3    0    0  0.96450777852E+00 -0.53118805804E+00 -0.44416249812E+01  0.45760756924E+01  0.51100000000E-03 0.  1.
        -12    1    3    3    0    0  0.35814644806E+02  0.12777581029E+01  0.76949157476E+01  0.36654238182E+02  0.00000000000E+00 0.  1.
</event>
<event>
 7    1  0.7444241E-013  0.5930194E+02  0.7816164E-02  0.1266605E+00
        -11   -1    0    0    0    0  0.00000000000E+00  0.00000000000E+00  0.45593999997E+02  0.45594000000E+02  0.51100000000E-03 0.  1.
         11   -1    0    0    0    0 -0.00000000000E+00 -0.00000000000E+00 -0.45593999997E+02  0.45594000000E+02  0.51100000000E-03 0. -1.
    9900012    2    1    2    0    0 -0.26823537918E+02  0.35699255453E+01 -0.16866357101E+02  0.59301944166E+02  0.50000000252E+02 0.  0.
        -12    1    1    2    0    0  0.26823537918E+02 -0.35699255453E+01  0.16866357101E+02  0.31886055834E+02  0.00000000000E+00 0.  1.
         11    1    3    3    0    0 -0.10560552356E+02  0.98750460014E+01 -0.12507172017E+02  0.19117299802E+02  0.51100000000E-03 0. -1.
        -11    1    3    3    0    0  0.18017530116E+01  0.11480654281E+02 -0.86318377456E+01  0.14476199769E+02  0.51100000000E-03 0.  1.
        -12    1    3    3    0    0 -0.18064738573E+02 -0.17785774737E+02  0.42726526621E+01  0.25708444595E+02  0.00000000000E+00 0.  1.
</event>
<event>
 7    1  0.7444241E-013  0.5930196E+02  0.7816164E-02  0.1266605E+00
        -11   -1    0    0    0    0  0.00000000000E+00  0.00000000000E+00  0.45593999997E+02  0.45594000000E+02  0.51100000000E-03 0.  1.
         11   -1    0    0    0    0 -0.00000000000E+00 -0.00000000000E+00 -0.45593999997E+02  0.45594000000E+02  0.51100000000E-03 0. -1.
    9900012    2    1    2    0    0  0.17234274553E+02  0.26022884459E+02 -0.65198781204E+01  0.59301960019E+02  0.50000029164E+02 0.  0.
        -12    1    1    2    0    0 -0.17234274553E+02 -0.26022884459E+02  0.65198781204E+01  0.31886039981E+02  0.00000000000E+00 0.  1.
         11    1    3    3    0    0  0.45311057130E+01  0.15067624861E+02  0.52530686100E+00  0.15742940815E+02  0.51100000000E-03 0. -1.
        -11    1    3    3    0    0 -0.12424081751E+02  0.48178391440E+01  0.59716771492E+01  0.14602407665E+02  0.51100000000E-03 0.  1.
        -12    1    3    3    0    0  0.25127250591E+02  0.61374204541E+01 -0.13016862131E+02  0.28956611539E+02  0.00000000000E+00 0.  1.
</event>
<event>
 7    1  0.7444241E-013  0.5930192E+02  0.7816164E-02  0.1266605E+00
        -11   -1    0    0    0    0  0.00000000000E+00  0.00000000000E+00  0.45593999997E+02  0.45594000000E+02  0.51100000000E-03 0. -1.
         11   -1    0    0    0    0 -0.00000000000E+00 -0.00000000000E+00 -0.45593999997E+02  0.45594000000E+02  0.51100000000E-03 0.  1.
    9900012    2    1    2    0    0  0.20999976809E+02  0.19382695308E+02  0.14143353275E+02  0.59301916119E+02  0.49999949102E+02 0.  0.
        -12    1    1    2    0    0 -0.20999976809E+02 -0.19382695308E+02 -0.14143353275E+02  0.31886083881E+02  0.00000000000E+00 0.  1.
         11    1    3    3    0    0  0.19045070787E+02  0.98778674594E+01  0.30025239255E+01  0.21663382400E+02  0.51100000000E-03 0. -1.
        -11    1    3    3    0    0  0.10192615421E+02 -0.82098393298E+01  0.12443076648E+02  0.18058821326E+02  0.51100000000E-03 0.  1.
         12    1    3    3    0    0 -0.82377093990E+01  0.17714667178E+02 -0.13022472986E+01  0.19579712393E+02  0.00000000000E+00 0. -1.
</event>
<event>
 7    1  0.1352044E-012  0.5930193E+02  0.7816164E-02  0.1266605E+00
        -11   -1    0    0    0    0  0.00000000000E+00  0.00000000000E+00  0.45593999997E+02  0.45594000000E+02  0.51100000000E-03 0. -1.
         11   -1    0    0    0    0 -0.00000000000E+00 -0.00000000000E+00 -0.45593999997E+02  0.45594000000E+02  0.51100000000E-03 0.  1.
    9900012    2    1    2    0    0  0.37385814064E+01 -0.94929793707E+01  0.30209726470E+02  0.59301933738E+02  0.49999981234E+02 0.  0.
        -12    1    1    2    0    0 -0.37385814064E+01  0.94929793707E+01 -0.30209726470E+02  0.31886066262E+02  0.00000000000E+00 0.  1.
         11    1    3    3    0    0 -0.39577729601E-01  0.12575830192E+02  0.12900540156E+02  0.18016020870E+02  0.51100000000E-03 0. -1.
        -11    1    3    3    0    0 -0.12425839274E+00 -0.78298755223E+01 -0.84968231389E+01  0.11555015991E+02  0.51100000000E-03 0.  1.
         12    1    3    3    0    0  0.39024175287E+01 -0.14238934041E+02  0.25806009453E+02  0.29730896876E+02  0.00000000000E+00 0. -1.
</event>
<event>
 7    1  0.7444241E-013  0.5930195E+02  0.7816164E-02  0.1266605E+00
        -11   -1    0    0    0    0  0.00000000000E+00  0.00000000000E+00  0.45593999997E+02  0.45594000000E+02  0.51100000000E-03 0. -1.
         11   -1    0    0    0    0 -0.00000000000E+00 -0.00000000000E+00 -0.45593999997E+02  0.45594000000E+02  0.51100000000E-03 0.  1.
    9900012    2    1    2    0    0 -0.43250782003E+01  0.19937989988E+02  0.24504909946E+02  0.59301947286E+02  0.50000005942E+02 0.  0.
        -12    1    1    2    0    0  0.43250782003E+01 -0.19937989988E+02 -0.24504909946E+02  0.31886052714E+02  0.00000000000E+00 0.  1.
         11    1    3    3    0    0 -0.56407982260E+01 -0.53388125045E+01  0.30227723317E+02  0.31209562329E+02  0.51100000000E-03 0. -1.
        -11    1    3    3    0    0 -0.79262259314E-01  0.16310158351E+00  0.18233669335E+01  0.18323623734E+01  0.51100000000E-03 0.  1.
        -12    1    3    3    0    0  0.13949822850E+01  0.25113700909E+02 -0.75461803037E+01  0.26260022584E+02  0.00000000000E+00 0.  1.
</event>
<event>
 7    1  0.7444241E-013  0.5930193E+02  0.7816164E-02  0.1266605E+00
        -11   -1    0    0    0    0  0.00000000000E+00  0.00000000000E+00  0.45593999997E+02  0.45594000000E+02  0.51100000000E-03 0. -1.
         11   -1    0    0    0    0 -0.00000000000E+00 -0.00000000000E+00 -0.45593999997E+02  0.45594000000E+02  0.51100000000E-03 0.  1.
    9900012    2    1    2    0    0 -0.16636319062E+01 -0.27004314444E+02  0.16873676531E+02  0.59301927345E+02  0.49999969575E+02 0.  0.
        -12    1    1    2    0    0  0.16636319062E+01  0.27004314444E+02 -0.16873676531E+02  0.31886072655E+02  0.00000000000E+00 0.  1.
         11    1    3    3    0    0 -0.65578827726E+01 -0.14861787096E+02  0.20872611364E+02  0.26448902578E+02  0.51100000000E-03 0. -1.
        -11    1    3    3    0    0 -0.25727775893E+01 -0.20819372798E+02 -0.91610809727E+00  0.20997731366E+02  0.51100000000E-03 0.  1.
         12    1    3    3    0    0  0.74670284558E+01  0.86768454506E+01 -0.30828267365E+01  0.11855293401E+02  0.00000000000E+00 0. -1.
</event>
<event>
 7    1  0.7444241E-013  0.5930198E+02  0.7816164E-02  0.1266605E+00
        -11   -1    0    0    0    0  0.00000000000E+00  0.00000000000E+00  0.45593999997E+02  0.45594000000E+02  0.51100000000E-03 0. -1.
         11   -1    0    0    0    0 -0.00000000000E+00 -0.00000000000E+00 -0.45593999997E+02  0.45594000000E+02  0.51100000000E-03 0.  1.
    9900012    2    1    2    0    0 -0.13528908146E+02 -0.80641426535E+01  0.27724653479E+02  0.59301981702E+02  0.50000068708E+02 0.  0.
        -12    1    1    2    0    0  0.13528908146E+02  0.80641426535E+01 -0.27724653479E+02  0.31886018298E+02  0.00000000000E+00 0.  1.
         11    1    3    3    0    0 -0.12018537252E+02  0.25732241915E+01 -0.10585058335E+02  0.16220671399E+02  0.51100000000E-03 0.  1.
        -11    1    3    3    0    0  0.29758227921E+01  0.28115104209E+01  0.17002515225E+02  0.17488442937E+02  0.51100000000E-03 0. -1.
        -12    1    3    3    0    0 -0.44861936861E+01 -0.13448877266E+02  0.21307196589E+02  0.25592867366E+02  0.00000000000E+00 0.  1.
</event>
<event>
 7    1  0.7444241E-013  0.5930198E+02  0.7816164E-02  0.1266605E+00
        -11   -1    0    0    0    0  0.00000000000E+00  0.00000000000E+00  0.45593999997E+02  0.45594000000E+02  0.51100000000E-03 0. -1.
         11   -1    0    0    0    0 -0.00000000000E+00 -0.00000000000E+00 -0.45593999997E+02  0.45594000000E+02  0.51100000000E-03 0.  1.
    9900012    2    1    2    0    0  0.10623643000E+02 -0.17314769595E+02  0.24577531816E+02  0.59301982580E+02  0.50000070311E+02 0.  0.
        -12    1    1    2    0    0 -0.10623643000E+02  0.17314769595E+02 -0.24577531816E+02  0.31886017420E+02  0.00000000000E+00 0.  1.
         11    1    3    3    0    0 -0.55700609503E+01 -0.10727142978E+00  0.83540869155E+01  0.10041307415E+02  0.51100000000E-03 0. -1.
        -11    1    3    3    0    0 -0.12136685071E+02  0.18230021830E+01  0.28084178094E+01  0.12590062443E+02  0.51100000000E-03 0.  1.
         12    1    3    3    0    0  0.28330389021E+02 -0.19030500348E+02  0.13415027091E+02  0.36670612722E+02  0.00000000000E+00 0. -1.
</event>
<event>
 7    1  0.7444241E-013  0.5930189E+02  0.7816164E-02  0.1266605E+00
        -11   -1    0    0    0    0  0.00000000000E+00  0.00000000000E+00  0.45593999997E+02  0.45594000000E+02  0.51100000000E-03 0.  1.
         11   -1    0    0    0    0 -0.00000000000E+00 -0.00000000000E+00 -0.45593999997E+02  0.45594000000E+02  0.51100000000E-03 0. -1.
    9900012    2    1    2    0    0  0.90623084224E+01 -0.29530296615E+00 -0.30569778568E+02  0.59301890179E+02  0.49999901793E+02 0.  0.
        -12    1    1    2    0    0 -0.90623084224E+01  0.29530296615E+00  0.30569778568E+02  0.31886109821E+02  0.00000000000E+00 0.  1.
         11    1    3    3    0    0  0.11267018401E+02  0.11781161781E+01 -0.16943808298E+02  0.20382009256E+02  0.51100000000E-03 0. -1.
        -11    1    3    3    0    0  0.15186809348E+02 -0.17517318304E+01  0.21494100119E+01  0.15437865987E+02  0.51100000000E-03 0.  1.
         12    1    3    3    0    0 -0.17391519327E+02  0.27831268618E+00 -0.15775380282E+02  0.23482014937E+02  0.00000000000E+00 0. -1.
</event>
<event>
 7    1  0.7444241E-013  0.5930197E+02  0.7816164E-02  0.1266605E+00
        -11   -1    0    0    0    0  0.00000000000E+00  0.00000000000E+00  0.45593999997E+02  0.45594000000E+02  0.51100000000E-03 0. -1.
         11   -1    0    0    0    0 -0.00000000000E+00 -0.00000000000E+00 -0.45593999997E+02  0.45594000000E+02  0.51100000000E-03 0.  1.
    9900012    2    1    2    0    0 -0.97403712444E+01 -0.18804858210E+02  0.23837392205E+02  0.59301971846E+02  0.50000050734E+02 0.  0.
        -12    1    1    2    0    0  0.97403712444E+01  0.18804858210E+02 -0.23837392205E+02  0.31886028154E+02  0.00000000000E+00 0.  1.
         11    1    3    3    0    0 -0.15987720426E+02  0.49223522977E+01  0.19001421429E+02  0.25315820610E+02  0.51100000000E-03 0. -1.
        -11    1    3    3    0    0  0.85585111582E+01 -0.49421714000E+01  0.10311980794E+02  0.14283211108E+02  0.51100000000E-03 0.  1.
         12    1    3    3    0    0 -0.23111619765E+01 -0.18785039108E+02 -0.54760100183E+01  0.19702940128E+02  0.00000000000E+00 0. -1.
</event>
<event>
 7    1  0.7444241E-013  0.5930194E+02  0.7816164E-02  0.1266605E+00
        -11   -1    0    0    0    0  0.00000000000E+00  0.00000000000E+00  0.45593999997E+02  0.45594000000E+02  0.51100000000E-03 0.  1.
         11   -1    0    0    0    0 -0.00000000000E+00 -0.00000000000E+00 -0.45593999997E+02  0.45594000000E+02  0.51100000000E-03 0. -1.
    9900012    2    1    2    0    0  0.22023396299E+02 -0.23748973117E+01 -0.22935792364E+02  0.59301942026E+02  0.49999996349E+02 0.  0.
        -12    1    1    2    0    0 -0.22023396299E+02  0.23748973117E+01  0.22935792364E+02  0.31886057974E+02  0.00000000000E+00 0.  1.
         11    1    3    3    0    0  0.23646425161E+01 -0.93542694380E+00 -0.78604349200E+01  0.82615370960E+01  0.51100000000E-03 0. -1.
        -11    1    3    3    0    0  0.14130946535E+02  0.11254242016E+02 -0.27189493951E+02  0.32643685375E+02  0.51100000000E-03 0.  1.
        -12    1    3    3    0    0  0.55278072477E+01 -0.12693712384E+02  0.12114136507E+02  0.18396719554E+02  0.00000000000E+00 0.  1.
</event>
<event>
 7    1  0.7444241E-013  0.5930194E+02  0.7816164E-02  0.1266605E+00
        -11   -1    0    0    0    0  0.00000000000E+00  0.00000000000E+00  0.45593999997E+02  0.45594000000E+02  0.51100000000E-03 0. -1.
         11   -1    0    0    0    0 -0.00000000000E+00 -0.00000000000E+00 -0.45593999997E+02  0.45594000000E+02  0.51100000000E-03 0.  1.
    9900012    2    1    2    0    0 -0.18652734349E+02  0.21601433323E+02 -0.14218803732E+02  0.59301940352E+02  0.49999993296E+02 0.  0.
        -12    1    1    2    0    0  0.18652734349E+02 -0.21601433323E+02  0.14218803732E+02  0.31886059648E+02  0.00000000000E+00 0.  1.
         11    1    3    3    0    0 -0.13452406930E+02 -0.60122797584E+01 -0.66430425272E+01  0.16163068223E+02  0.51100000000E-03 0. -1.
        -11    1    3    3    0    0 -0.15688142846E+02  0.39772219493E+01  0.30932874787E-01  0.16184470256E+02  0.51100000000E-03 0.  1.
        -12    1    3    3    0    0  0.10487815427E+02  0.23636491132E+02 -0.76066940794E+01  0.26954401872E+02  0.00000000000E+00 0.  1.
</event>
<event>
 7    1  0.7444241E-013  0.5930194E+02  0.7816164E-02  0.1266605E+00
        -11   -1    0    0    0    0  0.00000000000E+00  0.00000000000E+00  0.45593999997E+02  0.45594000000E+02  0.51100000000E-03 0.  1.
         11   -1    0    0    0    0 -0.00000000000E+00 -0.00000000000E+00 -0.45593999997E+02  0.45594000000E+02  0.51100000000E-03 0. -1.
    9900012    2    1    2    0    0 -0.18949493523E+02 -0.17946861514E+02 -0.18317960951E+02  0.59301939779E+02  0.49999992252E+02 0.  0.
        -12    1    1    2    0    0  0.18949493523E+02  0.17946861514E+02  0.18317960951E+02  0.31886060221E+02  0.00000000000E+00 0.  1.
         11    1    3    3    0    0 -0.50170910933E+01 -0.20598406616E+02 -0.10140112637E+02  0.23500796640E+02  0.51100000000E-03 0. -1.
        -11    1    3    3    0    0  0.32370378830E+01 -0.11902440739E+02 -0.33431393596E+01  0.12779792285E+02  0.51100000000E-03 0.  1.
         12    1    3    3    0    0 -0.17169440313E+02  0.14553985841E+02 -0.48347089552E+01  0.23021350855E+02  0.00000000000E+00 0. -1.
</event>
<event>
 7    1  0.7444241E-013  0.5930196E+02  0.7816164E-02  0.1266605E+00
        -11   -1    0    0    0    0  0.00000000000E+00  0.00000000000E+00  0.45593999997E+02  0.45594000000E+02  0.51100000000E-03 0.  1.
         11   -1    0    0    0    0 -0.00000000000E+00 -0.00000000000E+00 -0.45593999997E+02  0.45594000000E+02  0.51100000000E-03 0. -1.
    9900012    2    1    2    0    0  0.31274634240E+02  0.60136275085E+01  0.15662922672E+01  0.59301957064E+02  0.50000023775E+02 0.  0.
        -12    1    1    2    0    0 -0.31274634240E+02 -0.60136275085E+01 -0.15662922672E+01  0.31886042936E+02  0.00000000000E+00 0.  1.
         11    1    3    3    0    0  0.52258172414E+01 -0.28433678903E+01 -0.13133180491E+02  0.14417847859E+02  0.51100000000E-03 0. -1.
        -11    1    3    3    0    0  0.16728708552E+01 -0.10395122803E+02  0.76985734189E+01  0.13043201598E+02  0.51100000000E-03 0.  1.
         12    1    3    3    0    0  0.24375946144E+02  0.19252118202E+02  0.70008993396E+01  0.31840907607E+02  0.00000000000E+00 0. -1.
</event>
<event>
 7    1  0.7444241E-013  0.5930194E+02  0.7816164E-02  0.1266605E+00
        -11   -1    0    0    0    0  0.00000000000E+00  0.00000000000E+00  0.45593999997E+02  0.45594000000E+02  0.51100000000E-03 0.  1.
         11   -1    0    0    0    0 -0.00000000000E+00 -0.00000000000E+00 -0.45593999997E+02  0.45594000000E+02  0.51100000000E-03 0. -1.
    9900012    2    1    2    0    0 -0.16335489348E+02  0.19119921126E+02 -0.19603606200E+02  0.59301937650E+02  0.49999988369E+02 0.  0.
        -12    1    1    2    0    0  0.16335489348E+02 -0.19119921126E+02  0.19603606200E+02  0.31886062350E+02  0.00000000000E+00 0.  1.
         11    1    3    3    0    0 -0.10279351358E+02  0.47736282038E+01 -0.12065034799E+02  0.16553478654E+02  0.51100000000E-03 0. -1.
        -11    1    3    3    0    0 -0.16849810194E+01  0.26598233535E+02 -0.11677431893E+02  0.29097553232E+02  0.51100000000E-03 0.  1.
        -12    1    3    3    0    0 -0.43711569699E+01 -0.12251940612E+02  0.41388604921E+01  0.13650905765E+02  0.00000000000E+00 0.  1.
</event>
<event>
 7    1  0.7444241E-013  0.5930198E+02  0.7816164E-02  0.1266605E+00
        -11   -1    0    0    0    0  0.00000000000E+00  0.00000000000E+00  0.45593999997E+02  0.45594000000E+02  0.51100000000E-03 0. -1.
         11   -1    0    0    0    0 -0.00000000000E+00 -0.00000000000E+00 -0.45593999997E+02  0.45594000000E+02  0.51100000000E-03 0.  1.
    9900012    2    1    2    0    0 -0.58862580334E+01 -0.30734427146E+02  0.61208860767E+01  0.59301979678E+02  0.50000065017E+02 0.  0.
        -12    1    1    2    0    0  0.58862580334E+01  0.30734427146E+02 -0.61208860767E+01  0.31886020322E+02  0.00000000000E+00 0.  1.
         11    1    3    3    0    0  0.27257996651E+01 -0.47098286514E+01 -0.30549523906E+01  0.62406092739E+01  0.51100000000E-03 0. -1.
        -11    1    3    3    0    0 -0.28585664305E+00 -0.83868499559E+01 -0.17854862191E+02  0.19728585107E+02  0.51100000000E-03 0.  1.
         12    1    3    3    0    0 -0.83262010554E+01 -0.17637748539E+02  0.27030700658E+02  0.33332785296E+02  0.00000000000E+00 0. -1.
</event>
<event>
 7    1  0.7444241E-013  0.5930197E+02  0.7816164E-02  0.1266605E+00
        -11   -1    0    0    0    0  0.00000000000E+00  0.00000000000E+00  0.45593999997E+02  0.45594000000E+02  0.51100000000E-03 0. -1.
         11   -1    0    0    0    0 -0.00000000000E+00 -0.00000000000E+00 -0.45593999997E+02  0.45594000000E+02  0.51100000000E-03 0.  1.
    9900012    2    1    2    0    0 -0.14572802587E+02 -0.10964065878E+02  0.26156100057E+02  0.59301970363E+02  0.50000048029E+02 0.  0.
        -12    1    1    2    0    0  0.14572802587E+02  0.10964065878E+02 -0.26156100057E+02  0.31886029637E+02  0.00000000000E+00 0.  1.
         11    1    3    3    0    0  0.52465823257E+00 -0.89530616785E+01  0.49694820519E+01  0.10253210805E+02  0.51100000000E-03 0. -1.
        -11    1    3    3    0    0  0.84621584949E+01  0.12977517107E+02  0.12185060916E+02  0.19710397927E+02  0.51100000000E-03 0.  1.
         12    1    3    3    0    0 -0.23559619314E+02 -0.14988521306E+02  0.90015570897E+01  0.29338361631E+02  0.00000000000E+00 0. -1.
</event>
<event>
 7    1  0.7444241E-013  0.5930195E+02  0.7816164E-02  0.1266605E+00
        -11   -1    0    0    0    0  0.00000000000E+00  0.00000000000E+00  0.45593999997E+02  0.45594000000E+02  0.51100000000E-03 0. -1.
         11   -1    0    0    0    0 -0.00000000000E+00 -0.00000000000E+00 -0.45593999997E+02  0.45594000000E+02  0.51100000000E-03 0.  1.
    9900012    2    1    2    0    0  0.18744925077E+02  0.25343028482E+02  0.48040768023E+01  0.59301945639E+02  0.50000002939E+02 0.  0.
        -12    1    1    2    0    0 -0.18744925077E+02 -0.25343028482E+02 -0.48040768023E+01  0.31886054361E+02  0.00000000000E+00 0.  1.
         11    1    3    3    0    0 -0.11724746171E+00  0.40281196491E+01  0.12099528366E+02  0.12752963648E+02  0.51100000000E-03 0. -1.
        -11    1    3    3    0    0  0.25791830861E+02  0.13449542537E+02  0.59165802286E+01  0.29683575517E+02  0.51100000000E-03 0.  1.
         12    1    3    3    0    0 -0.69296583228E+01  0.78653662958E+01 -0.13212031792E+02  0.16865406474E+02  0.00000000000E+00 0. -1.
</event>
<event>
 7    1  0.7444241E-013  0.5930196E+02  0.7816164E-02  0.1266605E+00
        -11   -1    0    0    0    0  0.00000000000E+00  0.00000000000E+00  0.45593999997E+02  0.45594000000E+02  0.51100000000E-03 0.  1.
         11   -1    0    0    0    0 -0.00000000000E+00 -0.00000000000E+00 -0.45593999997E+02  0.45594000000E+02  0.51100000000E-03 0. -1.
    9900012    2    1    2    0    0 -0.61841342400E+01  0.52356533821E+01 -0.30839323017E+02  0.59301961883E+02  0.50000032564E+02 0.  0.
        -12    1    1    2    0    0  0.61841342400E+01 -0.52356533821E+01  0.30839323017E+02  0.31886038117E+02  0.00000000000E+00 0.  1.
         11    1    3    3    0    0  0.88312932202E+01  0.15628064363E+02 -0.16045376808E+02  0.24076591388E+02  0.51100000000E-03 0. -1.
        -11    1    3    3    0    0  0.58805638706E+01  0.33632698925E+01 -0.47172258201E+01  0.82549885224E+01  0.51100000000E-03 0.  1.
        -12    1    3    3    0    0 -0.20895991331E+02 -0.13755680873E+02 -0.10076720389E+02  0.26970381973E+02  0.00000000000E+00 0.  1.
</event>
<event>
 7    1  0.7444241E-013  0.5930193E+02  0.7816164E-02  0.1266605E+00
        -11   -1    0    0    0    0  0.00000000000E+00  0.00000000000E+00  0.45593999997E+02  0.45594000000E+02  0.51100000000E-03 0.  1.
         11   -1    0    0    0    0 -0.00000000000E+00 -0.00000000000E+00 -0.45593999997E+02  0.45594000000E+02  0.51100000000E-03 0. -1.
    9900012    2    1    2    0    0  0.15746333062E+01  0.31564097043E+02 -0.42367311586E+01  0.59301928070E+02  0.49999970897E+02 0.  0.
        -12    1    1    2    0    0 -0.15746333062E+01 -0.31564097043E+02  0.42367311586E+01  0.31886071930E+02  0.00000000000E+00 0.  1.
         11    1    3    3    0    0  0.19530338661E+02  0.24772416557E+02 -0.41736469546E+01  0.31820214950E+02  0.51100000000E-03 0. -1.
        -11    1    3    3    0    0  0.18207559468E+01  0.76977904273E+00 -0.57173424937E+01  0.60494394322E+01  0.51100000000E-03 0.  1.
         12    1    3    3    0    0 -0.19776461302E+02  0.60219014435E+01  0.56542582897E+01  0.21432273688E+02  0.00000000000E+00 0. -1.
</event>
<event>
 7    1  0.7444241E-013  0.5930193E+02  0.7816164E-02  0.1266605E+00
        -11   -1    0    0    0    0  0.00000000000E+00  0.00000000000E+00  0.45593999997E+02  0.45594000000E+02  0.51100000000E-03 0.  1.
         11   -1    0    0    0    0 -0.00000000000E+00 -0.00000000000E+00 -0.45593999997E+02  0.45594000000E+02  0.51100000000E-03 0. -1.
    9900012    2    1    2    0    0 -0.10176411442E+02 -0.10394265068E+02 -0.28374661647E+02  0.59301929064E+02  0.49999972710E+02 0.  0.
        -12    1    1    2    0    0  0.10176411442E+02  0.10394265068E+02  0.28374661647E+02  0.31886070936E+02  0.00000000000E+00 0.  1.
         11    1    3    3    0    0 -0.43068343722E+01 -0.99517867136E+01 -0.16647198731E+01  0.10970787284E+02  0.51100000000E-03 0. -1.
        -11    1    3    3    0    0  0.74627307198E+01  0.40756749742E+01  0.74999807020E+01  0.11338129788E+02  0.51100000000E-03 0.  1.
         12    1    3    3    0    0 -0.13332307790E+02 -0.45181533285E+01 -0.34209922476E+02  0.36993011993E+02  0.00000000000E+00 0. -1.
</event>
<event>
 7    1  0.7444241E-013  0.5930194E+02  0.7816164E-02  0.1266605E+00
        -11   -1    0    0    0    0  0.00000000000E+00  0.00000000000E+00  0.45593999997E+02  0.45594000000E+02  0.51100000000E-03 0.  1.
         11   -1    0    0    0    0 -0.00000000000E+00 -0.00000000000E+00 -0.45593999997E+02  0.45594000000E+02  0.51100000000E-03 0. -1.
    9900012    2    1    2    0    0  0.18281842582E+02 -0.17678239905E+02 -0.19234725246E+02  0.59301943649E+02  0.49999999309E+02 0.  0.
        -12    1    1    2    0    0 -0.18281842582E+02  0.17678239905E+02  0.19234725246E+02  0.31886056351E+02  0.00000000000E+00 0.  1.
         11    1    3    3    0    0 -0.55714415482E-01 -0.66877056455E+01  0.28044828483E+01  0.72521469375E+01  0.51100000000E-03 0. -1.
        -11    1    3    3    0    0 -0.90501218387E+01 -0.16063509727E+02 -0.40043301234E+01  0.18867318571E+02  0.51100000000E-03 0.  1.
         12    1    3    3    0    0  0.27387678836E+02  0.50729754682E+01 -0.18034877971E+02  0.33182478141E+02  0.00000000000E+00 0. -1.
</event>
<event>
 7    1  0.7444241E-013  0.5930195E+02  0.7816164E-02  0.1266605E+00
        -11   -1    0    0    0    0  0.00000000000E+00  0.00000000000E+00  0.45593999997E+02  0.45594000000E+02  0.51100000000E-03 0. -1.
         11   -1    0    0    0    0 -0.00000000000E+00 -0.00000000000E+00 -0.45593999997E+02  0.45594000000E+02  0.51100000000E-03 0.  1.
    9900012    2    1    2    0    0  0.21390286461E+02  0.23320733879E+02  0.39140003398E+01  0.59301946901E+02  0.50000005240E+02 0.  0.
        -12    1    1    2    0    0 -0.21390286461E+02 -0.23320733879E+02 -0.39140003398E+01  0.31886053099E+02  0.00000000000E+00 0.  1.
         11    1    3    3    0    0  0.27655354908E+02  0.18198736293E+02  0.12354407680E+01  0.33129125734E+02  0.51100000000E-03 0. -1.
        -11    1    3    3    0    0  0.22266939379E+00  0.13515919224E+02  0.63654861004E+01  0.14941521599E+02  0.51100000000E-03 0.  1.
        -12    1    3    3    0    0 -0.64877378407E+01 -0.83939216381E+01 -0.36869265285E+01  0.11231299568E+02  0.00000000000E+00 0.  1.
</event>
<event>
 7    1  0.7444241E-013  0.5930193E+02  0.7816164E-02  0.1266605E+00
        -11   -1    0    0    0    0  0.00000000000E+00  0.00000000000E+00  0.45593999997E+02  0.45594000000E+02  0.51100000000E-03 0.  1.
         11   -1    0    0    0    0 -0.00000000000E+00 -0.00000000000E+00 -0.45593999997E+02  0.45594000000E+02  0.51100000000E-03 0. -1.
    9900012    2    1    2    0    0  0.75204524062E+00  0.31360405984E+02 -0.57167400891E+01  0.59301925409E+02  0.49999966045E+02 0.  0.
        -12    1    1    2    0    0 -0.75204524062E+00 -0.31360405984E+02  0.57167400891E+01  0.31886074591E+02  0.00000000000E+00 0.  1.
         11    1    3    3    0    0  0.15348839145E+02  0.19927853897E+02  0.16750229168E+01  0.25209361874E+02  0.51100000000E-03 0. -1.
        -11    1    3    3    0    0 -0.99614107433E+01  0.55476472421E+01  0.99937110281E+01  0.15161805773E+02  0.51100000000E-03 0.  1.
         12    1    3    3    0    0 -0.46353831612E+01  0.58849048454E+01 -0.17385474034E+02  0.18930757763E+02  0.00000000000E+00 0. -1.
</event>
