<event>
 7    1  0.1101380E-011  0.5930196E+02  0.7816164E-02  0.1266605E+00
        -11   -1    0    0    0    0  0.00000000000E+00  0.00000000000E+00  0.45593999997E+02  0.45594000000E+02  0.51100000000E-03 0. -1.
         11   -1    0    0    0    0 -0.00000000000E+00 -0.00000000000E+00 -0.45593999997E+02  0.45594000000E+02  0.51100000000E-03 0.  1.
    9900012    2    1    2    0    0  0.27030506132E+02  0.38173823902E+01  0.16477214403E+02  0.59301964427E+02  0.50000037204E+02 0.  0.
        -12    1    1    2    0    0 -0.27030506132E+02 -0.38173823902E+01 -0.16477214403E+02  0.31886035573E+02  0.00000000000E+00 0.  1.
         11    1    3    3    0    0  0.48587149407E+01  0.39410538180E+00  0.14314046326E+02  0.15121321120E+02  0.51100000000E-03 0. -1.
        -11    1    3    3    0    0 -0.51190804293E+01  0.64690159399E+01  0.12383851846E+02  0.14879950890E+02  0.51100000000E-03 0.  1.
         12    1    3    3    0    0  0.27290871620E+02 -0.30457389315E+01 -0.10220683769E+02  0.29300692418E+02  0.00000000000E+00 0. -1.
</event>
<event>
 7    1  0.1101380E-011  0.5930191E+02  0.7816164E-02  0.1266605E+00
        -11   -1    0    0    0    0  0.00000000000E+00  0.00000000000E+00  0.45593999997E+02  0.45594000000E+02  0.51100000000E-03 0.  1.
         11   -1    0    0    0    0 -0.00000000000E+00 -0.00000000000E+00 -0.45593999997E+02  0.45594000000E+02  0.51100000000E-03 0. -1.
    9900012    2    1    2    0    0  0.29327584834E+02  0.11157903721E+02 -0.56671514670E+01  0.59301911287E+02  0.49999940289E+02 0.  0.
        -12    1    1    2    0    0 -0.29327584834E+02 -0.11157903721E+02  0.56671514670E+01  0.31886088713E+02  0.00000000000E+00 0.  1.
         11    1    3    3    0    0 -0.85614944222E+01 -0.26036120193E+01  0.80067541245E+01  0.12007751420E+02  0.51100000000E-03 0. -1.
        -11    1    3    3    0    0  0.21156042915E+01  0.35199879599E+01  0.43205620330E+01  0.59609859334E+01  0.51100000000E-03 0.  1.
         12    1    3    3    0    0  0.35773474965E+02  0.10241527781E+02 -0.17994467625E+02  0.41333173934E+02  0.00000000000E+00 0. -1.
</event>
<event>
 7    1  0.1101380E-011  0.5930196E+02  0.7816164E-02  0.1266605E+00
        -11   -1    0    0    0    0  0.00000000000E+00  0.00000000000E+00  0.45593999997E+02  0.45594000000E+02  0.51100000000E-03 0.  1.
         11   -1    0    0    0    0 -0.00000000000E+00 -0.00000000000E+00 -0.45593999997E+02  0.45594000000E+02  0.51100000000E-03 0. -1.
    9900012    2    1    2    0    0  0.29940897086E+02  0.47914239267E+01 -0.98643070414E+01  0.59301958932E+02  0.50000027182E+02 0.  0.
        -12    1    1    2    0    0 -0.29940897086E+02 -0.47914239267E+01  0.98643070414E+01  0.31886041068E+02  0.00000000000E+00 0.  1.
         11    1    3    3    0    0 -0.96350000620E-01  0.22856722898E+01 -0.13573065025E+02  0.13764507822E+02  0.51100000000E-03 0. -1.
        -11    1    3    3    0    0  0.20072688227E+02 -0.13319270993E+02 -0.54737062819E+01  0.24703790259E+02  0.51100000000E-03 0.  1.
        -12    1    3    3    0    0  0.99645588594E+01  0.15825022630E+02  0.91824642654E+01  0.20833660852E+02  0.00000000000E+00 0.  1.
</event>
<event>
 7    1  0.1101380E-011  0.5930193E+02  0.7816164E-02  0.1266605E+00
        -11   -1    0    0    0    0  0.00000000000E+00  0.00000000000E+00  0.45593999997E+02  0.45594000000E+02  0.51100000000E-03 0.  1.
         11   -1    0    0    0    0 -0.00000000000E+00 -0.00000000000E+00 -0.45593999997E+02  0.45594000000E+02  0.51100000000E-03 0. -1.
    9900012    2    1    2    0    0 -0.23433284419E+02 -0.73089238037E+01 -0.20351475247E+02  0.59301925758E+02  0.49999966681E+02 0.  0.
        -12    1    1    2    0    0  0.23433284419E+02  0.73089238037E+01  0.20351475247E+02  0.31886074242E+02  0.00000000000E+00 0.  1.
         11    1    3    3    0    0 -0.10591843607E+02 -0.75007161531E+01 -0.10340736187E+02  0.16594538829E+02  0.51100000000E-03 0. -1.
        -11    1    3    3    0    0 -0.21151602697E+02  0.15309103655E+01  0.81276406161E+01  0.22711066145E+02  0.51100000000E-03 0.  1.
        -12    1    3    3    0    0  0.83101618848E+01 -0.13391180161E+01 -0.18138379677E+02  0.19996320784E+02  0.00000000000E+00 0.  1.
</event>
<event>
 7    1  0.1101380E-011  0.5930194E+02  0.7816164E-02  0.1266605E+00
        -11   -1    0    0    0    0  0.00000000000E+00  0.00000000000E+00  0.45593999997E+02  0.45594000000E+02  0.51100000000E-03 0. -1.
         11   -1    0    0    0    0 -0.00000000000E+00 -0.00000000000E+00 -0.45593999997E+02  0.45594000000E+02  0.51100000000E-03 0.  1.
    9900012    2    1    2    0    0 -0.26964896851E+02  0.16996927287E+02  0.84816955775E+00  0.59301943628E+02  0.49999999271E+02 0.  0.
        -12    1    1    2    0    0  0.26964896851E+02 -0.16996927287E+02 -0.84816955775E+00  0.31886056372E+02  0.00000000000E+00 0.  1.
         11    1    3    3    0    0 -0.99730194437E+01  0.20094781432E+02  0.14391139991E+01  0.22479599796E+02  0.51100000000E-03 0. -1.
        -11    1    3    3    0    0  0.95377990208E+01  0.39530350629E+00  0.25480362550E+01  0.98802006073E+01  0.51100000000E-03 0.  1.
        -12    1    3    3    0    0 -0.26529676428E+02 -0.34931576511E+01 -0.31389806964E+01  0.26942143225E+02  0.00000000000E+00 0.  1.
</event>
<event>
 7    1  0.1101380E-011  0.5930194E+02  0.7816164E-02  0.1266605E+00
        -11   -1    0    0    0    0  0.00000000000E+00  0.00000000000E+00  0.45593999997E+02  0.45594000000E+02  0.51100000000E-03 0.  1.
         11   -1    0    0    0    0 -0.00000000000E+00 -0.00000000000E+00 -0.45593999997E+02  0.45594000000E+02  0.51100000000E-03 0. -1.
    9900012    2    1    2    0    0  0.17171526973E+02  0.15915968213E+02 -0.21645823648E+02  0.59301936208E+02  0.49999985739E+02 0.  0.
        -12    1    1    2    0    0 -0.17171526973E+02 -0.15915968213E+02  0.21645823648E+02  0.31886063792E+02  0.00000000000E+00 0.  1.
         11    1    3    3    0    0  0.66929806899E+01  0.10027674999E+01 -0.49796690311E+01  0.84022995123E+01  0.51100000000E-03 0. -1.
        -11    1    3    3    0    0  0.23870936118E+02 -0.45779692940E+01 -0.65124830601E+01  0.25163303239E+02  0.51100000000E-03 0.  1.
         12    1    3    3    0    0 -0.13392389835E+02  0.19491170007E+02 -0.10153671557E+02  0.25736333457E+02  0.00000000000E+00 0. -1.
</event>
<event>
 7    1  0.1101380E-011  0.5930195E+02  0.7816164E-02  0.1266605E+00
        -11   -1    0    0    0    0  0.00000000000E+00  0.00000000000E+00  0.45593999997E+02  0.45594000000E+02  0.51100000000E-03 0.  1.
         11   -1    0    0    0    0 -0.00000000000E+00 -0.00000000000E+00 -0.45593999997E+02  0.45594000000E+02  0.51100000000E-03 0. -1.
    9900012    2    1    2    0    0 -0.53219932722E+01 -0.10270168091E+02 -0.29713978743E+02  0.59301945090E+02  0.50000001938E+02 0.  0.
        -12    1    1    2    0    0  0.53219932722E+01  0.10270168091E+02  0.29713978743E+02  0.31886054910E+02  0.00000000000E+00 0.  1.
         11    1    3    3    0    0  0.16505883669E+01 -0.61706217464E+01 -0.16726371017E+02  0.17904538597E+02  0.51100000000E-03 0. -1.
        -11    1    3    3    0    0  0.13853700250E+02 -0.10530382411E+02 -0.73021762883E+01  0.18871559107E+02  0.51100000000E-03 0.  1.
        -12    1    3    3    0    0 -0.20826281889E+02  0.64308360670E+01 -0.56854314372E+01  0.22525847386E+02  0.00000000000E+00 0.  1.
</event>
<event>
 7    1  0.1101380E-011  0.5930209E+02  0.7816164E-02  0.1266604E+00
        -11   -1    0    0    0    0  0.00000000000E+00  0.00000000000E+00  0.45593999997E+02  0.45594000000E+02  0.51100000000E-03 0.  1.
         11   -1    0    0    0    0 -0.00000000000E+00 -0.00000000000E+00 -0.45593999997E+02  0.45594000000E+02  0.51100000000E-03 0. -1.
    9900012    2    1    2    0    0  0.20090455107E+02  0.21727404372E+02 -0.11874540658E+02  0.59302090840E+02  0.50000267749E+02 0.  0.
        -12    1    1    2    0    0 -0.20090455107E+02 -0.21727404372E+02  0.11874540658E+02  0.31885909160E+02  0.00000000000E+00 0.  1.
         11    1    3    3    0    0  0.14629985519E+02  0.70845608703E+01 -0.23986206981E+02  0.28975258491E+02  0.51100000000E-03 0. -1.
        -11    1    3    3    0    0  0.83912489765E+01  0.13381728076E+02 -0.19434106208E+01  0.15914161957E+02  0.51100000000E-03 0.  1.
        -12    1    3    3    0    0 -0.29307793883E+01  0.12611154257E+01  0.14055076944E+02  0.14412670393E+02  0.00000000000E+00 0.  1.
</event>
<event>
 7    1  0.1101380E-011  0.5930195E+02  0.7816164E-02  0.1266605E+00
        -11   -1    0    0    0    0  0.00000000000E+00  0.00000000000E+00  0.45593999997E+02  0.45594000000E+02  0.51100000000E-03 0.  1.
         11   -1    0    0    0    0 -0.00000000000E+00 -0.00000000000E+00 -0.45593999997E+02  0.45594000000E+02  0.51100000000E-03 0. -1.
    9900012    2    1    2    0    0  0.30037206020E+02  0.80593009453E+01  0.70380552185E+01  0.59301948215E+02  0.50000007636E+02 0.  0.
        -12    1    1    2    0    0 -0.30037206020E+02 -0.80593009453E+01 -0.70380552185E+01  0.31886051785E+02  0.00000000000E+00 0.  1.
         11    1    3    3    0    0  0.25371243396E+02  0.85162740864E+00 -0.11373375386E+02  0.27816882080E+02  0.51100000000E-03 0. -1.
        -11    1    3    3    0    0  0.92338938825E+01 -0.58876477395E+01  0.11871806731E+02  0.16151439176E+02  0.51100000000E-03 0.  1.
        -12    1    3    3    0    0 -0.45679312591E+01  0.13095321276E+02  0.65396238735E+01  0.15333626959E+02  0.00000000000E+00 0.  1.
</event>
<event>
 7    1  0.1101380E-011  0.5930194E+02  0.7816164E-02  0.1266605E+00
        -11   -1    0    0    0    0  0.00000000000E+00  0.00000000000E+00  0.45593999997E+02  0.45594000000E+02  0.51100000000E-03 0.  1.
         11   -1    0    0    0    0 -0.00000000000E+00 -0.00000000000E+00 -0.45593999997E+02  0.45594000000E+02  0.51100000000E-03 0. -1.
    9900012    2    1    2    0    0 -0.19841120054E+02  0.24960960267E+02 -0.33708857582E-01  0.59301941624E+02  0.49999995616E+02 0.  0.
        -12    1    1    2    0    0  0.19841120054E+02 -0.24960960267E+02  0.33708857582E-01  0.31886058376E+02  0.00000000000E+00 0.  1.
         11    1    3    3    0    0 -0.11465230800E+02  0.16903578287E+02 -0.76102373226E+01  0.21796747201E+02  0.51100000000E-03 0. -1.
        -11    1    3    3    0    0 -0.21783685858E+02  0.23320484654E+01  0.66568023645E+01  0.22897170952E+02  0.51100000000E-03 0.  1.
         12    1    3    3    0    0  0.13407796604E+02  0.57253335152E+01  0.91972610049E+00  0.14608023471E+02  0.00000000000E+00 0. -1.
</event>
<event>
 7    1  0.1101380E-011  0.5930195E+02  0.7816164E-02  0.1266605E+00
        -11   -1    0    0    0    0  0.00000000000E+00  0.00000000000E+00  0.45593999997E+02  0.45594000000E+02  0.51100000000E-03 0. -1.
         11   -1    0    0    0    0 -0.00000000000E+00 -0.00000000000E+00 -0.45593999997E+02  0.45594000000E+02  0.51100000000E-03 0.  1.
    9900012    2    1    2    0    0  0.27232291367E+01 -0.20714123625E+02  0.24087950311E+02  0.59301949058E+02  0.50000009174E+02 0.  0.
        -12    1    1    2    0    0 -0.27232291367E+01  0.20714123625E+02 -0.24087950311E+02  0.31886050942E+02  0.00000000000E+00 0.  1.
         11    1    3    3    0    0 -0.44750197168E+01 -0.11178923206E+01  0.15568375715E+02  0.16237296800E+02  0.51100000000E-03 0. -1.
        -11    1    3    3    0    0  0.28225643141E+01  0.76441905132E+01  0.12771168685E+02  0.15149365259E+02  0.51100000000E-03 0.  1.
        -12    1    3    3    0    0  0.43756845394E+01 -0.27240421817E+02 -0.42515940883E+01  0.27915287000E+02  0.00000000000E+00 0.  1.
</event>
<event>
 7    1  0.1101380E-011  0.5930196E+02  0.7816164E-02  0.1266605E+00
        -11   -1    0    0    0    0  0.00000000000E+00  0.00000000000E+00  0.45593999997E+02  0.45594000000E+02  0.51100000000E-03 0.  1.
         11   -1    0    0    0    0 -0.00000000000E+00 -0.00000000000E+00 -0.45593999997E+02  0.45594000000E+02  0.51100000000E-03 0. -1.
    9900012    2    1    2    0    0 -0.14547711871E+02 -0.27536883864E+02  0.68413185347E+01  0.59301960219E+02  0.50000029529E+02 0.  0.
        -12    1    1    2    0    0  0.14547711871E+02  0.27536883864E+02 -0.68413185347E+01  0.31886039781E+02  0.00000000000E+00 0.  1.
         11    1    3    3    0    0 -0.16012549017E+02 -0.83890727945E+01 -0.70716527829E+00  0.18090836116E+02  0.51100000000E-03 0. -1.
        -11    1    3    3    0    0 -0.50434791875E+01  0.34047924581E+01  0.15320681864E+02  0.16484919989E+02  0.51100000000E-03 0.  1.
        -12    1    3    3    0    0  0.65083163340E+01 -0.22552603528E+02 -0.77721980508E+01  0.24726204115E+02  0.00000000000E+00 0.  1.
</event>
<event>
 7    1  0.1101380E-011  0.5930196E+02  0.7816164E-02  0.1266605E+00
        -11   -1    0    0    0    0  0.00000000000E+00  0.00000000000E+00  0.45593999997E+02  0.45594000000E+02  0.51100000000E-03 0.  1.
         11   -1    0    0    0    0 -0.00000000000E+00 -0.00000000000E+00 -0.45593999997E+02  0.45594000000E+02  0.51100000000E-03 0. -1.
    9900012    2    1    2    0    0 -0.23334362174E+01 -0.19566140971E+02 -0.25068725243E+02  0.59301956308E+02  0.50000022396E+02 0.  0.
        -12    1    1    2    0    0  0.23334362174E+01  0.19566140971E+02  0.25068725243E+02  0.31886043692E+02  0.00000000000E+00 0.  1.
         11    1    3    3    0    0  0.36275610968E+01 -0.90632652736E+01 -0.19434732662E+02  0.21748811711E+02  0.51100000000E-03 0. -1.
        -11    1    3    3    0    0  0.65550517798E+01 -0.20217194758E+02 -0.24657399035E+01  0.21395876735E+02  0.51100000000E-03 0.  1.
        -12    1    3    3    0    0 -0.12516049094E+02  0.97143190608E+01 -0.31682526766E+01  0.16157267862E+02  0.00000000000E+00 0.  1.
</event>
<event>
 7    1  0.1101380E-011  0.5930196E+02  0.7816164E-02  0.1266605E+00
        -11   -1    0    0    0    0  0.00000000000E+00  0.00000000000E+00  0.45593999997E+02  0.45594000000E+02  0.51100000000E-03 0.  1.
         11   -1    0    0    0    0 -0.00000000000E+00 -0.00000000000E+00 -0.45593999997E+02  0.45594000000E+02  0.51100000000E-03 0. -1.
    9900012    2    1    2    0    0 -0.93554887046E+00  0.29099137121E+02 -0.13003246543E+02  0.59301961464E+02  0.50000031799E+02 0.  0.
        -12    1    1    2    0    0  0.93554887046E+00 -0.29099137121E+02  0.13003246543E+02  0.31886038536E+02  0.00000000000E+00 0.  1.
         11    1    3    3    0    0  0.47219908497E+01  0.16572832107E+01 -0.34502130085E+01  0.60784665246E+01  0.51100000000E-03 0. -1.
        -11    1    3    3    0    0  0.31367652433E+01  0.20586905262E+02 -0.26025821042E+02  0.33331716511E+02  0.51100000000E-03 0.  1.
         12    1    3    3    0    0 -0.87943049635E+01  0.68549486487E+01  0.16472787507E+02  0.19891778428E+02  0.00000000000E+00 0. -1.
</event>
<event>
 7    1  0.1101380E-011  0.5930196E+02  0.7816164E-02  0.1266605E+00
        -11   -1    0    0    0    0  0.00000000000E+00  0.00000000000E+00  0.45593999997E+02  0.45594000000E+02  0.51100000000E-03 0. -1.
         11   -1    0    0    0    0 -0.00000000000E+00 -0.00000000000E+00 -0.45593999997E+02  0.45594000000E+02  0.51100000000E-03 0.  1.
    9900012    2    1    2    0    0 -0.20503769876E+02 -0.24034029934E+02  0.43220764552E+01  0.59301960439E+02  0.50000029930E+02 0.  0.
        -12    1    1    2    0    0  0.20503769876E+02  0.24034029934E+02 -0.43220764552E+01  0.31886039561E+02  0.00000000000E+00 0.  1.
         11    1    3    3    0    0 -0.71933908434E+01 -0.15584573226E+02 -0.46458410979E+00  0.17170894943E+02  0.51100000000E-03 0. -1.
        -11    1    3    3    0    0  0.73749059561E+01 -0.17207747708E+02 -0.15662644784E+01  0.18786937050E+02  0.51100000000E-03 0.  1.
        -12    1    3    3    0    0 -0.20685284988E+02  0.87582910005E+01  0.63529250434E+01  0.23344128446E+02  0.00000000000E+00 0.  1.
</event>
<event>
 7    1  0.1101380E-011  0.5930201E+02  0.7816164E-02  0.1266605E+00
        -11   -1    0    0    0    0  0.00000000000E+00  0.00000000000E+00  0.45593999997E+02  0.45594000000E+02  0.51100000000E-03 0. -1.
         11   -1    0    0    0    0 -0.00000000000E+00 -0.00000000000E+00 -0.45593999997E+02  0.45594000000E+02  0.51100000000E-03 0.  1.
    9900012    2    1    2    0    0  0.29112373183E+02  0.34013689422E+00  0.13002696048E+02  0.59302014521E+02  0.50000128563E+02 0.  0.
        -12    1    1    2    0    0 -0.29112373183E+02 -0.34013689422E+00 -0.13002696048E+02  0.31885985479E+02  0.00000000000E+00 0.  1.
         11    1    3    3    0    0  0.80061528571E+01  0.26742962393E+01  0.66161584808E+01  0.10724919452E+02  0.51100000000E-03 0. -1.
        -11    1    3    3    0    0  0.85599061527E+00 -0.58483043153E+01  0.21991128949E+02  0.22771586154E+02  0.51100000000E-03 0.  1.
        -12    1    3    3    0    0  0.20250229710E+02  0.35141449702E+01 -0.15604591381E+02  0.25805508915E+02  0.00000000000E+00 0.  1.
</event>
<event>
 7    1  0.1101380E-011  0.5930193E+02  0.7816164E-02  0.1266605E+00
        -11   -1    0    0    0    0  0.00000000000E+00  0.00000000000E+00  0.45593999997E+02  0.45594000000E+02  0.51100000000E-03 0.  1.
         11   -1    0    0    0    0 -0.00000000000E+00 -0.00000000000E+00 -0.45593999997E+02  0.45594000000E+02  0.51100000000E-03 0. -1.
    9900012    2    1    2    0    0  0.71233069917E+01  0.11174018104E+02 -0.29002095535E+02  0.59301925791E+02  0.49999966740E+02 0.  0.
        -12    1    1    2    0    0 -0.71233069917E+01 -0.11174018104E+02  0.29002095535E+02  0.31886074209E+02  0.00000000000E+00 0.  1.
         11    1    3    3    0    0  0.10280736295E+02  0.12105925069E+02 -0.11797176433E+01  0.15926038256E+02  0.51100000000E-03 0. -1.
        -11    1    3    3    0    0 -0.30287477445E+01 -0.26235553249E+01  0.72387138283E+01  0.82737738422E+01  0.51100000000E-03 0.  1.
         12    1    3    3    0    0 -0.12868155900E+00  0.16916483604E+01 -0.35061091720E+02  0.35102113693E+02  0.00000000000E+00 0. -1.
</event>
<event>
 7    1  0.1101380E-011  0.5930194E+02  0.7816164E-02  0.1266605E+00
        -11   -1    0    0    0    0  0.00000000000E+00  0.00000000000E+00  0.45593999997E+02  0.45594000000E+02  0.51100000000E-03 0.  1.
         11   -1    0    0    0    0 -0.00000000000E+00 -0.00000000000E+00 -0.45593999997E+02  0.45594000000E+02  0.51100000000E-03 0. -1.
    9900012    2    1    2    0    0  0.24441715817E+02  0.93533056377E+01 -0.18216443300E+02  0.59301943408E+02  0.49999998870E+02 0.  0.
        -12    1    1    2    0    0 -0.24441715817E+02 -0.93533056377E+01  0.18216443300E+02  0.31886056592E+02  0.00000000000E+00 0.  1.
         11    1    3    3    0    0  0.13688998716E+02  0.44003166123E+01  0.35239743422E+01  0.14804386767E+02  0.51100000000E-03 0. -1.
        -11    1    3    3    0    0  0.19811465922E+02  0.88832252323E+01 -0.25887814686E+02  0.33787347070E+02  0.51100000000E-03 0.  1.
        -12    1    3    3    0    0 -0.90587488205E+01 -0.39302362069E+01  0.41473970434E+01  0.10710209572E+02  0.00000000000E+00 0.  1.
</event>
<event>
 7    1  0.1101380E-011  0.5930193E+02  0.7816164E-02  0.1266605E+00
        -11   -1    0    0    0    0  0.00000000000E+00  0.00000000000E+00  0.45593999997E+02  0.45594000000E+02  0.51100000000E-03 0.  1.
         11   -1    0    0    0    0 -0.00000000000E+00 -0.00000000000E+00 -0.45593999997E+02  0.45594000000E+02  0.51100000000E-03 0. -1.
    9900012    2    1    2    0    0 -0.19392754061E+02  0.25309829659E+02  0.23439718480E+00  0.59301932048E+02  0.49999978151E+02 0.  0.
        -12    1    1    2    0    0  0.19392754061E+02 -0.25309829659E+02 -0.23439718480E+00  0.31886067952E+02  0.00000000000E+00 0.  1.
         11    1    3    3    0    0 -0.14793802110E+02  0.25245240373E+02  0.63797984833E+01  0.29947964393E+02  0.51100000000E-03 0. -1.
        -11    1    3    3    0    0 -0.71928160708E+01  0.37574137536E+01 -0.16318459748E+02  0.18224897530E+02  0.51100000000E-03 0.  1.
        -12    1    3    3    0    0  0.25938641201E+01 -0.36928244675E+01  0.10173058450E+02  0.11129070125E+02  0.00000000000E+00 0.  1.
</event>
<event>
 7    1  0.1101380E-011  0.5930203E+02  0.7816164E-02  0.1266604E+00
        -11   -1    0    0    0    0  0.00000000000E+00  0.00000000000E+00  0.45593999997E+02  0.45594000000E+02  0.51100000000E-03 0. -1.
         11   -1    0    0    0    0 -0.00000000000E+00 -0.00000000000E+00 -0.45593999997E+02  0.45594000000E+02  0.51100000000E-03 0.  1.
    9900012    2    1    2    0    0 -0.31187480693E+02  0.10664652055E+01  0.65512283555E+01  0.59302032977E+02  0.50000162222E+02 0.  0.
        -12    1    1    2    0    0  0.31187480693E+02 -0.10664652055E+01 -0.65512283555E+01  0.31885967023E+02  0.00000000000E+00 0.  1.
         11    1    3    3    0    0 -0.82214159128E+01  0.15884950567E+02  0.88395090072E+01  0.19951447413E+02  0.51100000000E-03 0. -1.
        -11    1    3    3    0    0 -0.19187685123E+02 -0.21213249287E+01 -0.12172690566E+02  0.22821956001E+02  0.51100000000E-03 0.  1.
         12    1    3    3    0    0 -0.37783796568E+01 -0.12697160433E+02  0.98844099140E+01  0.16528629563E+02  0.00000000000E+00 0. -1.
</event>
<event>
 7    1  0.1101380E-011  0.5930189E+02  0.7816164E-02  0.1266605E+00
        -11   -1    0    0    0    0  0.00000000000E+00  0.00000000000E+00  0.45593999997E+02  0.45594000000E+02  0.51100000000E-03 0.  1.
         11   -1    0    0    0    0 -0.00000000000E+00 -0.00000000000E+00 -0.45593999997E+02  0.45594000000E+02  0.51100000000E-03 0. -1.
    9900012    2    1    2    0    0 -0.23136893317E+02 -0.19925438428E+02  0.91861456186E+01  0.59301887032E+02  0.49999896053E+02 0.  0.
        -12    1    1    2    0    0  0.23136893317E+02  0.19925438428E+02 -0.91861456186E+01  0.31886112968E+02  0.00000000000E+00 0.  1.
         11    1    3    3    0    0 -0.16498988747E+00 -0.18928313620E+01  0.14579845209E+02  0.14703126157E+02  0.51100000000E-03 0. -1.
        -11    1    3    3    0    0 -0.60040588350E-01  0.86137589068E+01 -0.38150951936E+01  0.94210083841E+01  0.51100000000E-03 0.  1.
         12    1    3    3    0    0 -0.22911862841E+02 -0.26646365973E+02 -0.15786043967E+01  0.35177752490E+02  0.00000000000E+00 0. -1.
</event>
<event>
 7    1  0.1101380E-011  0.5930195E+02  0.7816164E-02  0.1266605E+00
        -11   -1    0    0    0    0  0.00000000000E+00  0.00000000000E+00  0.45593999997E+02  0.45594000000E+02  0.51100000000E-03 0. -1.
         11   -1    0    0    0    0 -0.00000000000E+00 -0.00000000000E+00 -0.45593999997E+02  0.45594000000E+02  0.51100000000E-03 0.  1.
    9900012    2    1    2    0    0 -0.44274917611E+01  0.27019339451E+02  0.16342366844E+02  0.59301947537E+02  0.50000006399E+02 0.  0.
        -12    1    1    2    0    0  0.44274917611E+01 -0.27019339451E+02 -0.16342366844E+02  0.31886052463E+02  0.00000000000E+00 0.  1.
         11    1    3    3    0    0 -0.40090030119E+01  0.39607115384E+01 -0.30066020506E+01  0.63874092707E+01  0.51100000000E-03 0. -1.
        -11    1    3    3    0    0  0.21275760281E+02  0.75233366853E+01  0.87880685895E+01  0.24217529193E+02  0.51100000000E-03 0.  1.
         12    1    3    3    0    0 -0.21694249030E+02  0.15535291227E+02  0.10560900305E+02  0.28697009073E+02  0.00000000000E+00 0. -1.
</event>
<event>
 7    1  0.1101380E-011  0.5930192E+02  0.7816164E-02  0.1266605E+00
        -11   -1    0    0    0    0  0.00000000000E+00  0.00000000000E+00  0.45593999997E+02  0.45594000000E+02  0.51100000000E-03 0. -1.
         11   -1    0    0    0    0 -0.00000000000E+00 -0.00000000000E+00 -0.45593999997E+02  0.45594000000E+02  0.51100000000E-03 0.  1.
    9900012    2    1    2    0    0 -0.18135747868E+02  0.64916709476E+01  0.25410139464E+02  0.59301916358E+02  0.49999949538E+02 0.  0.
        -12    1    1    2    0    0  0.18135747868E+02 -0.64916709476E+01 -0.25410139464E+02  0.31886083642E+02  0.00000000000E+00 0.  1.
         11    1    3    3    0    0 -0.20529611703E+02  0.10688962862E+02  0.24999455871E+02  0.34068925399E+02  0.51100000000E-03 0. -1.
        -11    1    3    3    0    0 -0.10180330220E+02  0.30906397042E+01  0.10108381549E+01  0.10687046889E+02  0.51100000000E-03 0.  1.
        -12    1    3    3    0    0  0.12574194055E+02 -0.72879316190E+01 -0.60015456182E+00  0.14545944071E+02  0.00000000000E+00 0.  1.
</event>
<event>
 7    1  0.1101380E-011  0.5930195E+02  0.7816164E-02  0.1266605E+00
        -11   -1    0    0    0    0  0.00000000000E+00  0.00000000000E+00  0.45593999997E+02  0.45594000000E+02  0.51100000000E-03 0. -1.
         11   -1    0    0    0    0 -0.00000000000E+00 -0.00000000000E+00 -0.45593999997E+02  0.45594000000E+02  0.51100000000E-03 0.  1.
    9900012    2    1    2    0    0 -0.27649741123E+02 -0.49864169031E+01  0.15078044618E+02  0.59301953409E+02  0.50000017109E+02 0.  0.
        -12    1    1    2    0    0  0.27649741123E+02  0.49864169031E+01 -0.15078044618E+02  0.31886046591E+02  0.00000000000E+00 0.  1.
         11    1    3    3    0    0 -0.64235675760E+01 -0.14483112360E+02  0.71199914900E+01  0.17370004120E+02  0.51100000000E-03 0. -1.
        -11    1    3    3    0    0 -0.22388806796E+02  0.33842476905E+01 -0.86171467611E+01  0.24227402270E+02  0.51100000000E-03 0.  1.
         12    1    3    3    0    0  0.11626332491E+01  0.61124477664E+01  0.16575199889E+02  0.17704547019E+02  0.00000000000E+00 0. -1.
</event>
<event>
 7    1  0.1101380E-011  0.5930197E+02  0.7816164E-02  0.1266605E+00
        -11   -1    0    0    0    0  0.00000000000E+00  0.00000000000E+00  0.45593999997E+02  0.45594000000E+02  0.51100000000E-03 0.  1.
         11   -1    0    0    0    0 -0.00000000000E+00 -0.00000000000E+00 -0.45593999997E+02  0.45594000000E+02  0.51100000000E-03 0. -1.
    9900012    2    1    2    0    0 -0.23354389822E+02  0.97137572668E+01 -0.19414804012E+02  0.59301965141E+02  0.50000038506E+02 0.  0.
        -12    1    1    2    0    0  0.23354389822E+02 -0.97137572668E+01  0.19414804012E+02  0.31886034859E+02  0.00000000000E+00 0.  1.
         11    1    3    3    0    0  0.48786668548E+01  0.10725243215E+02  0.48389687007E-02  0.11782710044E+02  0.51100000000E-03 0. -1.
        -11    1    3    3    0    0 -0.20314183919E+02 -0.16348697492E+02 -0.12593680564E+02  0.28957672013E+02  0.51100000000E-03 0.  1.
         12    1    3    3    0    0 -0.79188727575E+01  0.15337211543E+02 -0.68259624166E+01  0.18561583084E+02  0.00000000000E+00 0. -1.
</event>
<event>
 7    1  0.1101380E-011  0.5930195E+02  0.7816164E-02  0.1266605E+00
        -11   -1    0    0    0    0  0.00000000000E+00  0.00000000000E+00  0.45593999997E+02  0.45594000000E+02  0.51100000000E-03 0.  1.
         11   -1    0    0    0    0 -0.00000000000E+00 -0.00000000000E+00 -0.45593999997E+02  0.45594000000E+02  0.51100000000E-03 0. -1.
    9900012    2    1    2    0    0 -0.99886295193E+01 -0.13749779869E+02  0.26979456829E+02  0.59301948867E+02  0.50000008825E+02 0.  0.
        -12    1    1    2    0    0  0.99886295193E+01  0.13749779869E+02 -0.26979456829E+02  0.31886051133E+02  0.00000000000E+00 0.  1.
         11    1    3    3    0    0  0.40008288305E+01  0.77635408812E+01  0.35929397176E+01  0.94439617968E+01  0.51100000000E-03 0. -1.
        -11    1    3    3    0    0  0.94762774806E+01 -0.52857159395E+00 -0.16530151277E+01  0.96338819846E+01  0.51100000000E-03 0.  1.
         12    1    3    3    0    0 -0.23465735830E+02 -0.20984749156E+02  0.25039532239E+02  0.40224105085E+02  0.00000000000E+00 0. -1.
</event>
<event>
 7    1  0.1101380E-011  0.5930193E+02  0.7816164E-02  0.1266605E+00
        -11   -1    0    0    0    0  0.00000000000E+00  0.00000000000E+00  0.45593999997E+02  0.45594000000E+02  0.51100000000E-03 0. -1.
         11   -1    0    0    0    0 -0.00000000000E+00 -0.00000000000E+00 -0.45593999997E+02  0.45594000000E+02  0.51100000000E-03 0.  1.
    9900012    2    1    2    0    0  0.16299690879E+02 -0.59798542553E+01  0.26744772590E+02  0.59301930306E+02  0.49999974974E+02 0.  0.
        -12    1    1    2    0    0 -0.16299690879E+02  0.59798542553E+01 -0.26744772590E+02  0.31886069694E+02  0.00000000000E+00 0.  1.
         11    1    3    3    0    0  0.10790671002E+02  0.10125012837E+02  0.16976941166E+02  0.22520457306E+02  0.51100000000E-03 0.  1.
        -11    1    3    3    0    0  0.16330331236E+02 -0.12663071399E+01  0.82874834529E+01  0.18356623717E+02  0.51100000000E-03 0. -1.
        -12    1    3    3    0    0 -0.10821311359E+02 -0.14838559952E+02  0.14803479707E+01  0.18424849283E+02  0.00000000000E+00 0.  1.
</event>
<event>
 7    1  0.1101380E-011  0.5930190E+02  0.7816164E-02  0.1266605E+00
        -11   -1    0    0    0    0  0.00000000000E+00  0.00000000000E+00  0.45593999997E+02  0.45594000000E+02  0.51100000000E-03 0. -1.
         11   -1    0    0    0    0 -0.00000000000E+00 -0.00000000000E+00 -0.45593999997E+02  0.45594000000E+02  0.51100000000E-03 0.  1.
    9900012    2    1    2    0    0  0.82700174282E+01  0.21543679647E+02  0.22004553160E+02  0.59301895177E+02  0.49999910908E+02 0.  0.
        -12    1    1    2    0    0 -0.82700174282E+01 -0.21543679647E+02 -0.22004553160E+02  0.31886104823E+02  0.00000000000E+00 0.  1.
         11    1    3    3    0    0  0.46805911139E+01  0.18307829259E+02  0.23419409652E+02  0.30092412566E+02  0.51100000000E-03 0. -1.
        -11    1    3    3    0    0  0.11454858591E+02  0.90667437511E+01  0.70917779619E+01  0.16239240823E+02  0.51100000000E-03 0.  1.
         12    1    3    3    0    0 -0.78654322771E+01 -0.58308933625E+01 -0.85066344538E+01  0.12970241788E+02  0.00000000000E+00 0. -1.
</event>
<event>
 7    1  0.1101380E-011  0.5930198E+02  0.7816164E-02  0.1266605E+00
        -11   -1    0    0    0    0  0.00000000000E+00  0.00000000000E+00  0.45593999997E+02  0.45594000000E+02  0.51100000000E-03 0. -1.
         11   -1    0    0    0    0 -0.00000000000E+00 -0.00000000000E+00 -0.45593999997E+02  0.45594000000E+02  0.51100000000E-03 0.  1.
    9900012    2    1    2    0    0 -0.22846811111E+02 -0.15139897206E+02  0.16294946823E+02  0.59301975518E+02  0.50000057430E+02 0.  0.
        -12    1    1    2    0    0  0.22846811111E+02  0.15139897206E+02 -0.16294946823E+02  0.31886024482E+02  0.00000000000E+00 0.  1.
         11    1    3    3    0    0 -0.94163846437E+01 -0.20102354253E+01 -0.23655344893E+01  0.99148928337E+01  0.51100000000E-03 0. -1.
        -11    1    3    3    0    0 -0.12350846996E+02  0.11766912218E+02 -0.17866863738E+01  0.17152139608E+02  0.51100000000E-03 0.  1.
        -12    1    3    3    0    0 -0.10795794708E+01 -0.24896573999E+02  0.20447167686E+02  0.32234943076E+02  0.00000000000E+00 0.  1.
</event>
<event>
 7    1  0.1101380E-011  0.5930210E+02  0.7816164E-02  0.1266604E+00
        -11   -1    0    0    0    0  0.00000000000E+00  0.00000000000E+00  0.45593999997E+02  0.45594000000E+02  0.51100000000E-03 0.  1.
         11   -1    0    0    0    0 -0.00000000000E+00 -0.00000000000E+00 -0.45593999997E+02  0.45594000000E+02  0.51100000000E-03 0. -1.
    9900012    2    1    2    0    0  0.26575137800E+02 -0.16862684610E+02  0.51110087545E+01  0.59302101991E+02  0.50000288087E+02 0.  0.
        -12    1    1    2    0    0 -0.26575137800E+02  0.16862684610E+02 -0.51110087545E+01  0.31885898009E+02  0.00000000000E+00 0.  1.
         11    1    3    3    0    0  0.16239747040E+02 -0.18100195242E+02 -0.99248352406E+01  0.26264972997E+02  0.51100000000E-03 0. -1.
        -11    1    3    3    0    0 -0.36574294947E+01  0.84045333258E+01 -0.24850928073E+01  0.94967708962E+01  0.51100000000E-03 0.  1.
        -12    1    3    3    0    0  0.13992820254E+02 -0.71670226941E+01  0.17520936802E+02  0.23540358098E+02  0.00000000000E+00 0.  1.
</event>
<event>
 7    1  0.1101380E-011  0.5930195E+02  0.7816164E-02  0.1266605E+00
        -11   -1    0    0    0    0  0.00000000000E+00  0.00000000000E+00  0.45593999997E+02  0.45594000000E+02  0.51100000000E-03 0.  1.
         11   -1    0    0    0    0 -0.00000000000E+00 -0.00000000000E+00 -0.45593999997E+02  0.45594000000E+02  0.51100000000E-03 0. -1.
    9900012    2    1    2    0    0  0.17853848945E+02  0.17466363398E+00 -0.26418360669E+02  0.59301949603E+02  0.50000010167E+02 0.  0.
        -12    1    1    2    0    0 -0.17853848945E+02 -0.17466363398E+00  0.26418360669E+02  0.31886050397E+02  0.00000000000E+00 0.  1.
         11    1    3    3    0    0  0.10825031847E+02 -0.70251999476E+01 -0.13380236460E+02  0.18589391512E+02  0.51100000000E-03 0. -1.
        -11    1    3    3    0    0  0.19174618220E+02  0.27844114543E+01 -0.18400483958E+02  0.26720717452E+02  0.51100000000E-03 0.  1.
        -12    1    3    3    0    0 -0.12145801122E+02  0.44154521273E+01  0.53623597490E+01  0.13991840639E+02  0.00000000000E+00 0.  1.
</event>
<event>
 7    1  0.1101380E-011  0.5930192E+02  0.7816164E-02  0.1266605E+00
        -11   -1    0    0    0    0  0.00000000000E+00  0.00000000000E+00  0.45593999997E+02  0.45594000000E+02  0.51100000000E-03 0.  1.
         11   -1    0    0    0    0 -0.00000000000E+00 -0.00000000000E+00 -0.45593999997E+02  0.45594000000E+02  0.51100000000E-03 0. -1.
    9900012    2    1    2    0    0  0.10301588740E+02  0.19071858422E+02 -0.23385109406E+02  0.59301923788E+02  0.49999963088E+02 0.  0.
        -12    1    1    2    0    0 -0.10301588740E+02 -0.19071858422E+02  0.23385109406E+02  0.31886076212E+02  0.00000000000E+00 0.  1.
         11    1    3    3    0    0 -0.57966718782E+01  0.66121188228E+01  0.69403055218E+01  0.11202203408E+02  0.51100000000E-03 0. -1.
        -11    1    3    3    0    0 -0.29547320809E+00 -0.39887649483E+01  0.46393268230E+01  0.61254309123E+01  0.51100000000E-03 0.  1.
        -12    1    3    3    0    0  0.16393733826E+02  0.16448504548E+02 -0.34964741751E+02  0.41974289468E+02  0.00000000000E+00 0.  1.
</event>
<event>
 7    1  0.1101380E-011  0.5930194E+02  0.7816164E-02  0.1266605E+00
        -11   -1    0    0    0    0  0.00000000000E+00  0.00000000000E+00  0.45593999997E+02  0.45594000000E+02  0.51100000000E-03 0. -1.
         11   -1    0    0    0    0 -0.00000000000E+00 -0.00000000000E+00 -0.45593999997E+02  0.45594000000E+02  0.51100000000E-03 0.  1.
    9900012    2    1    2    0    0  0.35605356716E+01 -0.11288284570E+02  0.29607741344E+02  0.59301935171E+02  0.49999983847E+02 0.  0.
        -12    1    1    2    0    0 -0.35605356716E+01  0.11288284570E+02 -0.29607741344E+02  0.31886064829E+02  0.00000000000E+00 0.  1.
         11    1    3    3    0    0  0.80052666232E+01 -0.28925737708E+01  0.46355022504E+01  0.96922215257E+01  0.51100000000E-03 0. -1.
        -11    1    3    3    0    0  0.10054348635E+02 -0.15305407408E+02 -0.17879752164E+01  0.18399518419E+02  0.51100000000E-03 0.  1.
        -12    1    3    3    0    0 -0.14499079587E+02  0.69096966096E+01  0.26760214310E+02  0.31210195226E+02  0.00000000000E+00 0.  1.
</event>
<event>
 7    1  0.1101380E-011  0.5930193E+02  0.7816164E-02  0.1266605E+00
        -11   -1    0    0    0    0  0.00000000000E+00  0.00000000000E+00  0.45593999997E+02  0.45594000000E+02  0.51100000000E-03 0. -1.
         11   -1    0    0    0    0 -0.00000000000E+00 -0.00000000000E+00 -0.45593999997E+02  0.45594000000E+02  0.51100000000E-03 0.  1.
    9900012    2    1    2    0    0  0.39059973256E+01 -0.31228923306E+02  0.51204224566E+01  0.59301934202E+02  0.49999982080E+02 0.  0.
        -12    1    1    2    0    0 -0.39059973256E+01  0.31228923306E+02 -0.51204224566E+01  0.31886065798E+02  0.00000000000E+00 0.  1.
         11    1    3    3    0    0  0.74406200223E+01 -0.99810919159E+01  0.21909671450E+02  0.25199577883E+02  0.51100000000E-03 0. -1.
        -11    1    3    3    0    0 -0.18174467749E+00  0.40817393575E+01 -0.16720998446E+01  0.44146965311E+01  0.51100000000E-03 0.  1.
        -12    1    3    3    0    0 -0.33528780192E+01 -0.25329570748E+02 -0.15117149149E+02  0.29687659788E+02  0.00000000000E+00 0.  1.
</event>
<event>
 7    1  0.1101380E-011  0.5930194E+02  0.7816164E-02  0.1266605E+00
        -11   -1    0    0    0    0  0.00000000000E+00  0.00000000000E+00  0.45593999997E+02  0.45594000000E+02  0.51100000000E-03 0.  1.
         11   -1    0    0    0    0 -0.00000000000E+00 -0.00000000000E+00 -0.45593999997E+02  0.45594000000E+02  0.51100000000E-03 0. -1.
    9900012    2    1    2    0    0  0.43647288818E+01 -0.29268281483E+02 -0.11875929061E+02  0.59301939562E+02  0.49999991855E+02 0.  0.
        -12    1    1    2    0    0 -0.43647288818E+01  0.29268281483E+02  0.11875929061E+02  0.31886060438E+02  0.00000000000E+00 0.  1.
         11    1    3    3    0    0  0.97606845839E+01 -0.24657394106E+01 -0.12302492054E+02  0.15896607983E+02  0.51100000000E-03 0. -1.
        -11    1    3    3    0    0 -0.27024187005E+00 -0.32529387979E+02  0.70195746814E+01  0.33279250922E+02  0.51100000000E-03 0.  1.
         12    1    3    3    0    0 -0.51257138320E+01  0.57268459067E+01 -0.65930116888E+01  0.10126080656E+02  0.00000000000E+00 0. -1.
</event>
<event>
 7    1  0.1101380E-011  0.5930199E+02  0.7816164E-02  0.1266605E+00
        -11   -1    0    0    0    0  0.00000000000E+00  0.00000000000E+00  0.45593999997E+02  0.45594000000E+02  0.51100000000E-03 0.  1.
         11   -1    0    0    0    0 -0.00000000000E+00 -0.00000000000E+00 -0.45593999997E+02  0.45594000000E+02  0.51100000000E-03 0. -1.
    9900012    2    1    2    0    0 -0.26119888972E+02  0.79064998143E+01 -0.16491088572E+02  0.59301994582E+02  0.50000092199E+02 0.  0.
        -12    1    1    2    0    0  0.26119888972E+02 -0.79064998143E+01  0.16491088572E+02  0.31886005418E+02  0.00000000000E+00 0.  1.
         11    1    3    3    0    0 -0.64108130093E+01 -0.16975022244E+02 -0.13193172923E+01  0.18193144368E+02  0.51100000000E-03 0. -1.
        -11    1    3    3    0    0  0.18833209440E+01 -0.88853081543E+00 -0.58656267174E+01  0.62243041247E+01  0.51100000000E-03 0.  1.
         12    1    3    3    0    0 -0.21592396907E+02  0.25770052873E+02 -0.93061445622E+01  0.34884546090E+02  0.00000000000E+00 0. -1.
</event>
<event>
 7    1  0.1101380E-011  0.5930195E+02  0.7816164E-02  0.1266605E+00
        -11   -1    0    0    0    0  0.00000000000E+00  0.00000000000E+00  0.45593999997E+02  0.45594000000E+02  0.51100000000E-03 0.  1.
         11   -1    0    0    0    0 -0.00000000000E+00 -0.00000000000E+00 -0.45593999997E+02  0.45594000000E+02  0.51100000000E-03 0. -1.
    9900012    2    1    2    0    0  0.10041534192E+02  0.29914280994E+02  0.45851344380E+01  0.59301951733E+02  0.50000014052E+02 0.  0.
        -12    1    1    2    0    0 -0.10041534192E+02 -0.29914280994E+02 -0.45851344380E+01  0.31886048267E+02  0.00000000000E+00 0.  1.
         11    1    3    3    0    0  0.13954922219E+02 -0.18696327032E+01 -0.28293948114E+01  0.14361088254E+02  0.51100000000E-03 0. -1.
        -11    1    3    3    0    0 -0.67722095913E+00 -0.55040927436E+01  0.49469793246E+01  0.74314379400E+01  0.51100000000E-03 0.  1.
         12    1    3    3    0    0 -0.32361670679E+01  0.37288006440E+02  0.24675499248E+01  0.37509425538E+02  0.00000000000E+00 0. -1.
</event>
<event>
 7    1  0.1101380E-011  0.5930199E+02  0.7816164E-02  0.1266605E+00
        -11   -1    0    0    0    0  0.00000000000E+00  0.00000000000E+00  0.45593999997E+02  0.45594000000E+02  0.51100000000E-03 0.  1.
         11   -1    0    0    0    0 -0.00000000000E+00 -0.00000000000E+00 -0.45593999997E+02  0.45594000000E+02  0.51100000000E-03 0. -1.
    9900012    2    1    2    0    0  0.28851515403E+02  0.24446752042E+01 -0.13354081506E+02  0.59301986283E+02  0.50000077064E+02 0.  0.
        -12    1    1    2    0    0 -0.28851515403E+02 -0.24446752042E+01  0.13354081506E+02  0.31886013717E+02  0.00000000000E+00 0.  1.
         11    1    3    3    0    0  0.30356244297E+01 -0.13135098932E+02 -0.11900355000E+02  0.17982332691E+02  0.51100000000E-03 0. -1.
        -11    1    3    3    0    0 -0.51957408192E+01  0.68054975856E+01  0.23188238526E+01  0.88705954912E+01  0.51100000000E-03 0.  1.
         12    1    3    3    0    0  0.31011631792E+02  0.87742765506E+01 -0.37725503582E+01  0.32449058101E+02  0.00000000000E+00 0. -1.
</event>
<event>
 7    1  0.1101380E-011  0.5930195E+02  0.7816164E-02  0.1266605E+00
        -11   -1    0    0    0    0  0.00000000000E+00  0.00000000000E+00  0.45593999997E+02  0.45594000000E+02  0.51100000000E-03 0.  1.
         11   -1    0    0    0    0 -0.00000000000E+00 -0.00000000000E+00 -0.45593999997E+02  0.45594000000E+02  0.51100000000E-03 0. -1.
    9900012    2    1    2    0    0 -0.88359731943E+01  0.26447773014E+02 -0.15464836197E+02  0.59301948531E+02  0.50000008213E+02 0.  0.
        -12    1    1    2    0    0  0.88359731943E+01 -0.26447773014E+02  0.15464836197E+02  0.31886051469E+02  0.00000000000E+00 0.  1.
         11    1    3    3    0    0 -0.57798347130E+01 -0.10604248121E+01  0.10519812234E+02  0.12049790031E+02  0.51100000000E-03 0. -1.
        -11    1    3    3    0    0 -0.11966568325E+02  0.19337005942E+02 -0.53886825241E+01  0.23369990498E+02  0.51100000000E-03 0.  1.
        -12    1    3    3    0    0  0.89104298436E+01  0.81711918836E+01 -0.20595965907E+02  0.23882168001E+02  0.00000000000E+00 0.  1.
</event>
<event>
 7    1  0.1101380E-011  0.5930196E+02  0.7816164E-02  0.1266605E+00
        -11   -1    0    0    0    0  0.00000000000E+00  0.00000000000E+00  0.45593999997E+02  0.45594000000E+02  0.51100000000E-03 0. -1.
         11   -1    0    0    0    0 -0.00000000000E+00 -0.00000000000E+00 -0.45593999997E+02  0.45594000000E+02  0.51100000000E-03 0.  1.
    9900012    2    1    2    0    0  0.20023553616E+02  0.22477111477E+02  0.10514568660E+02  0.59301962399E+02  0.50000033504E+02 0.  0.
        -12    1    1    2    0    0 -0.20023553616E+02 -0.22477111477E+02 -0.10514568660E+02  0.31886037601E+02  0.00000000000E+00 0.  1.
         11    1    3    3    0    0  0.13878257126E+02  0.47895929260E+01 -0.10989765613E+01  0.14722566726E+02  0.51100000000E-03 0. -1.
        -11    1    3    3    0    0  0.51548369759E+01 -0.12443863707E+01 -0.12691702292E+02  0.13755004508E+02  0.51100000000E-03 0.  1.
        -12    1    3    3    0    0  0.99045951424E+00  0.18931904922E+02  0.24305247513E+02  0.30824391165E+02  0.00000000000E+00 0.  1.
</event>
<event>
 7    1  0.1101380E-011  0.5930199E+02  0.7816164E-02  0.1266605E+00
        -11   -1    0    0    0    0  0.00000000000E+00  0.00000000000E+00  0.45593999997E+02  0.45594000000E+02  0.51100000000E-03 0.  1.
         11   -1    0    0    0    0 -0.00000000000E+00 -0.00000000000E+00 -0.45593999997E+02  0.45594000000E+02  0.51100000000E-03 0. -1.
    9900012    2    1    2    0    0 -0.13686089826E+02  0.27818068009E+02  0.74540889797E+01  0.59301993587E+02  0.50000090384E+02 0.  0.
        -12    1    1    2    0    0  0.13686089826E+02 -0.27818068009E+02 -0.74540889797E+01  0.31886006413E+02  0.00000000000E+00 0.  1.
         11    1    3    3    0    0 -0.75650205747E+01 -0.11650021095E+02  0.25830859287E+01  0.14128866231E+02  0.51100000000E-03 0. -1.
        -11    1    3    3    0    0 -0.11218479702E+02  0.12047432585E+02 -0.16072956861E+01  0.16540203094E+02  0.51100000000E-03 0.  1.
        -12    1    3    3    0    0  0.50974104515E+01  0.27420656519E+02  0.64782987371E+01  0.28632924261E+02  0.00000000000E+00 0.  1.
</event>
<event>
 7    1  0.1101380E-011  0.5930196E+02  0.7816164E-02  0.1266605E+00
        -11   -1    0    0    0    0  0.00000000000E+00  0.00000000000E+00  0.45593999997E+02  0.45594000000E+02  0.51100000000E-03 0. -1.
         11   -1    0    0    0    0 -0.00000000000E+00 -0.00000000000E+00 -0.45593999997E+02  0.45594000000E+02  0.51100000000E-03 0.  1.
    9900012    2    1    2    0    0  0.14866768658E+02 -0.28038137215E+02  0.30921598857E+01  0.59301962278E+02  0.50000033285E+02 0.  0.
        -12    1    1    2    0    0 -0.14866768658E+02  0.28038137215E+02 -0.30921598857E+01  0.31886037722E+02  0.00000000000E+00 0.  1.
         11    1    3    3    0    0 -0.90570583013E+00 -0.67155151162E+01  0.44800306563E+01  0.81233688374E+01  0.51100000000E-03 0. -1.
        -11    1    3    3    0    0 -0.14741728430E+02 -0.12490440274E+02 -0.18354961909E+01  0.19408727467E+02  0.51100000000E-03 0.  1.
        -12    1    3    3    0    0  0.30514202918E+02 -0.88321818248E+01  0.44762542030E+00  0.31769865974E+02  0.00000000000E+00 0.  1.
</event>
<event>
 7    1  0.1101380E-011  0.5930196E+02  0.7816164E-02  0.1266605E+00
        -11   -1    0    0    0    0  0.00000000000E+00  0.00000000000E+00  0.45593999997E+02  0.45594000000E+02  0.51100000000E-03 0.  1.
         11   -1    0    0    0    0 -0.00000000000E+00 -0.00000000000E+00 -0.45593999997E+02  0.45594000000E+02  0.51100000000E-03 0. -1.
    9900012    2    1    2    0    0  0.14644261645E+02  0.21399315064E+02 -0.18556258013E+02  0.59301956097E+02  0.50000022012E+02 0.  0.
        -12    1    1    2    0    0 -0.14644261645E+02 -0.21399315064E+02  0.18556258013E+02  0.31886043903E+02  0.00000000000E+00 0.  1.
         11    1    3    3    0    0  0.66355491662E+01  0.72850508546E+01 -0.26602493422E+02  0.28368911421E+02  0.51100000000E-03 0. -1.
        -11    1    3    3    0    0  0.66702066178E+01 -0.60736821318E+01  0.54377901200E+01  0.10533320114E+02  0.51100000000E-03 0.  1.
        -12    1    3    3    0    0  0.13385058606E+01  0.20187946341E+02  0.26084452888E+01  0.20399724562E+02  0.00000000000E+00 0.  1.
</event>
<event>
 7    1  0.1101380E-011  0.5930194E+02  0.7816164E-02  0.1266605E+00
        -11   -1    0    0    0    0  0.00000000000E+00  0.00000000000E+00  0.45593999997E+02  0.45594000000E+02  0.51100000000E-03 0. -1.
         11   -1    0    0    0    0 -0.00000000000E+00 -0.00000000000E+00 -0.45593999997E+02  0.45594000000E+02  0.51100000000E-03 0.  1.
    9900012    2    1    2    0    0  0.24546366074E+02 -0.14676530889E+02  0.14099509985E+02  0.59301939907E+02  0.49999992485E+02 0.  0.
        -12    1    1    2    0    0 -0.24546366074E+02  0.14676530889E+02 -0.14099509985E+02  0.31886060093E+02  0.00000000000E+00 0.  1.
         11    1    3    3    0    0  0.78821083482E+01  0.83802884302E+01 -0.28501434345E+01  0.11852433676E+02  0.51100000000E-03 0. -1.
        -11    1    3    3    0    0  0.17294852442E+01  0.80627743963E+01  0.86441449401E+01  0.11946576588E+02  0.51100000000E-03 0.  1.
         12    1    3    3    0    0  0.14934772482E+02 -0.31119593716E+02  0.83055084798E+01  0.35502929643E+02  0.00000000000E+00 0. -1.
</event>
<event>
 7    1  0.1101380E-011  0.5930195E+02  0.7816164E-02  0.1266605E+00
        -11   -1    0    0    0    0  0.00000000000E+00  0.00000000000E+00  0.45593999997E+02  0.45594000000E+02  0.51100000000E-03 0.  1.
         11   -1    0    0    0    0 -0.00000000000E+00 -0.00000000000E+00 -0.45593999997E+02  0.45594000000E+02  0.51100000000E-03 0. -1.
    9900012    2    1    2    0    0  0.28938163532E+02 -0.79215284727E+01 -0.10795949840E+02  0.59301945762E+02  0.50000003163E+02 0.  0.
        -12    1    1    2    0    0 -0.28938163532E+02  0.79215284727E+01  0.10795949840E+02  0.31886054238E+02  0.00000000000E+00 0.  1.
         11    1    3    3    0    0  0.92497160517E+01 -0.62019395920E+01 -0.13383580878E+01  0.11216617332E+02  0.51100000000E-03 0. -1.
        -11    1    3    3    0    0  0.30777212582E+02 -0.90925808817E+01 -0.12474803996E+02  0.34431563665E+02  0.51100000000E-03 0.  1.
         12    1    3    3    0    0 -0.11088765102E+02  0.73729920010E+01  0.30172122437E+01  0.13653764765E+02  0.00000000000E+00 0. -1.
</event>
<event>
 7    1  0.1101380E-011  0.5930195E+02  0.7816164E-02  0.1266605E+00
        -11   -1    0    0    0    0  0.00000000000E+00  0.00000000000E+00  0.45593999997E+02  0.45594000000E+02  0.51100000000E-03 0. -1.
         11   -1    0    0    0    0 -0.00000000000E+00 -0.00000000000E+00 -0.45593999997E+02  0.45594000000E+02  0.51100000000E-03 0.  1.
    9900012    2    1    2    0    0  0.88188280245E+00  0.30915761010E+01  0.31723565569E+02  0.59301950190E+02  0.50000011239E+02 0.  0.
        -12    1    1    2    0    0 -0.88188280245E+00 -0.30915761010E+01 -0.31723565569E+02  0.31886049810E+02  0.00000000000E+00 0.  1.
         11    1    3    3    0    0  0.37620006075E+01  0.13341276340E+02  0.22424722813E+02  0.26363051729E+02  0.51100000000E-03 0. -1.
        -11    1    3    3    0    0 -0.56051003929E+01  0.97640063547E+01  0.18426844651E+01  0.11408262655E+02  0.51100000000E-03 0.  1.
        -12    1    3    3    0    0  0.27249825878E+01 -0.20013706594E+02  0.74561582907E+01  0.21530635806E+02  0.00000000000E+00 0.  1.
</event>
<event>
 7    1  0.1101380E-011  0.5930192E+02  0.7816164E-02  0.1266605E+00
        -11   -1    0    0    0    0  0.00000000000E+00  0.00000000000E+00  0.45593999997E+02  0.45594000000E+02  0.51100000000E-03 0.  1.
         11   -1    0    0    0    0 -0.00000000000E+00 -0.00000000000E+00 -0.45593999997E+02  0.45594000000E+02  0.51100000000E-03 0. -1.
    9900012    2    1    2    0    0 -0.17923943657E+02  0.21997726447E+02 -0.14544897888E+02  0.59301924989E+02  0.49999965278E+02 0.  0.
        -12    1    1    2    0    0  0.17923943657E+02 -0.21997726447E+02  0.14544897888E+02  0.31886075011E+02  0.00000000000E+00 0.  1.
         11    1    3    3    0    0 -0.21990561369E+01  0.98716308805E+01 -0.23478066629E+02  0.25563735193E+02  0.51100000000E-03 0. -1.
        -11    1    3    3    0    0 -0.13677938816E+02 -0.38384855026E+01 -0.19056904481E+01  0.14333584253E+02  0.51100000000E-03 0.  1.
         12    1    3    3    0    0 -0.20469487046E+01  0.15964581069E+02  0.10838859190E+02  0.19404605542E+02  0.00000000000E+00 0. -1.
</event>
<event>
 7    1  0.1101380E-011  0.5930194E+02  0.7816164E-02  0.1266605E+00
        -11   -1    0    0    0    0  0.00000000000E+00  0.00000000000E+00  0.45593999997E+02  0.45594000000E+02  0.51100000000E-03 0. -1.
         11   -1    0    0    0    0 -0.00000000000E+00 -0.00000000000E+00 -0.45593999997E+02  0.45594000000E+02  0.51100000000E-03 0.  1.
    9900012    2    1    2    0    0  0.17100274660E+02 -0.23822481433E+02 -0.12521611646E+02  0.59301940769E+02  0.49999994057E+02 0.  0.
        -12    1    1    2    0    0 -0.17100274660E+02  0.23822481433E+02  0.12521611646E+02  0.31886059231E+02  0.00000000000E+00 0.  1.
         11    1    3    3    0    0  0.65359559772E+01  0.25198334359E+01  0.89453011704E+01  0.11361632557E+02  0.51100000000E-03 0. -1.
        -11    1    3    3    0    0  0.15779259226E+02 -0.28101682216E+02 -0.77312778846E+01  0.33143056936E+02  0.51100000000E-03 0.  1.
        -12    1    3    3    0    0 -0.52149405434E+01  0.17593673470E+01 -0.13735634932E+02  0.14797251276E+02  0.00000000000E+00 0.  1.
</event>
<event>
 7    1  0.1101380E-011  0.5930194E+02  0.7816164E-02  0.1266605E+00
        -11   -1    0    0    0    0  0.00000000000E+00  0.00000000000E+00  0.45593999997E+02  0.45594000000E+02  0.51100000000E-03 0.  1.
         11   -1    0    0    0    0 -0.00000000000E+00 -0.00000000000E+00 -0.45593999997E+02  0.45594000000E+02  0.51100000000E-03 0. -1.
    9900012    2    1    2    0    0  0.16681588381E+02 -0.84938892814E-01 -0.27174214848E+02  0.59301944142E+02  0.50000000209E+02 0.  0.
        -12    1    1    2    0    0 -0.16681588381E+02  0.84938892814E-01  0.27174214848E+02  0.31886055858E+02  0.00000000000E+00 0.  1.
         11    1    3    3    0    0 -0.21565970972E+00 -0.61195519366E+01 -0.32178497198E+01  0.69173681481E+01  0.51100000000E-03 0. -1.
        -11    1    3    3    0    0  0.15591249277E+02 -0.11614614591E+02  0.34649850071E+01  0.19748226439E+02  0.51100000000E-03 0.  1.
         12    1    3    3    0    0  0.13059988140E+01  0.17649227635E+02 -0.27421350136E+02  0.32636349555E+02  0.00000000000E+00 0. -1.
</event>
<event>
 7    1  0.1101380E-011  0.5930201E+02  0.7816164E-02  0.1266605E+00
        -11   -1    0    0    0    0  0.00000000000E+00  0.00000000000E+00  0.45593999997E+02  0.45594000000E+02  0.51100000000E-03 0. -1.
         11   -1    0    0    0    0 -0.00000000000E+00 -0.00000000000E+00 -0.45593999997E+02  0.45594000000E+02  0.51100000000E-03 0.  1.
    9900012    2    1    2    0    0 -0.27563471182E+02 -0.10362674403E+02 -0.12230540894E+02  0.59302014129E+02  0.50000127849E+02 0.  0.
        -12    1    1    2    0    0  0.27563471182E+02  0.10362674403E+02  0.12230540894E+02  0.31885985871E+02  0.00000000000E+00 0.  1.
         11    1    3    3    0    0  0.56587615532E+01  0.54790683383E+01 -0.14321725804E+01  0.80058035657E+01  0.51100000000E-03 0.  1.
        -11    1    3    3    0    0 -0.60815065056E+01 -0.39097066277E+01  0.11922564973E+02  0.13943388508E+02  0.51100000000E-03 0. -1.
         12    1    3    3    0    0 -0.27140726230E+02 -0.11932036113E+02 -0.22720933287E+02  0.37352822055E+02  0.00000000000E+00 0. -1.
</event>
<event>
 7    1  0.1101380E-011  0.5930193E+02  0.7816164E-02  0.1266605E+00
        -11   -1    0    0    0    0  0.00000000000E+00  0.00000000000E+00  0.45593999997E+02  0.45594000000E+02  0.51100000000E-03 0.  1.
         11   -1    0    0    0    0 -0.00000000000E+00 -0.00000000000E+00 -0.45593999997E+02  0.45594000000E+02  0.51100000000E-03 0. -1.
    9900012    2    1    2    0    0  0.23871081957E+02  0.10401713986E+02  0.18403722505E+02  0.59301933926E+02  0.49999981576E+02 0.  0.
        -12    1    1    2    0    0 -0.23871081957E+02 -0.10401713986E+02 -0.18403722505E+02  0.31886066074E+02  0.00000000000E+00 0.  1.
         11    1    3    3    0    0  0.19954166434E+02 -0.27582534534E+01  0.29046509780E+02  0.35347934180E+02  0.51100000000E-03 0.  1.
        -11    1    3    3    0    0  0.75388091766E+01  0.12044348920E+01 -0.82396927792E+01  0.11232846681E+02  0.51100000000E-03 0. -1.
        -12    1    3    3    0    0 -0.36218936530E+01  0.11955532548E+02 -0.24030944953E+01  0.12721153064E+02  0.00000000000E+00 0.  1.
</event>
<event>
 7    1  0.1101380E-011  0.5930195E+02  0.7816164E-02  0.1266605E+00
        -11   -1    0    0    0    0  0.00000000000E+00  0.00000000000E+00  0.45593999997E+02  0.45594000000E+02  0.51100000000E-03 0.  1.
         11   -1    0    0    0    0 -0.00000000000E+00 -0.00000000000E+00 -0.45593999997E+02  0.45594000000E+02  0.51100000000E-03 0. -1.
    9900012    2    1    2    0    0  0.17336774256E+01  0.81525967318E+01 -0.30777417824E+02  0.59301954168E+02  0.50000018494E+02 0.  0.
        -12    1    1    2    0    0 -0.17336774256E+01 -0.81525967318E+01  0.30777417824E+02  0.31886045832E+02  0.00000000000E+00 0.  1.
         11    1    3    3    0    0 -0.13760817199E+02 -0.12474915999E+02 -0.13409786273E+02  0.22908644380E+02  0.51100000000E-03 0. -1.
        -11    1    3    3    0    0  0.50092661116E+01 -0.22555627642E+01  0.51347502287E+00  0.55176052070E+01  0.51100000000E-03 0.  1.
        -12    1    3    3    0    0  0.10485228513E+02  0.22883075495E+02 -0.17881106574E+02  0.30875704581E+02  0.00000000000E+00 0.  1.
</event>
<event>
 7    1  0.1101380E-011  0.5930193E+02  0.7816164E-02  0.1266605E+00
        -11   -1    0    0    0    0  0.00000000000E+00  0.00000000000E+00  0.45593999997E+02  0.45594000000E+02  0.51100000000E-03 0.  1.
         11   -1    0    0    0    0 -0.00000000000E+00 -0.00000000000E+00 -0.45593999997E+02  0.45594000000E+02  0.51100000000E-03 0. -1.
    9900012    2    1    2    0    0 -0.48223795128E+01  0.11501889485E+02 -0.29345745391E+02  0.59301928144E+02  0.49999971031E+02 0.  0.
        -12    1    1    2    0    0  0.48223795128E+01 -0.11501889485E+02  0.29345745391E+02  0.31886071856E+02  0.00000000000E+00 0.  1.
         11    1    3    3    0    0 -0.55163204122E+01  0.50055936415E+01 -0.33225437519E+01  0.81562893425E+01  0.51100000000E-03 0. -1.
        -11    1    3    3    0    0  0.15756524908E+02  0.18617870272E+02 -0.11507459902E+02  0.26968774616E+02  0.51100000000E-03 0.  1.
        -12    1    3    3    0    0 -0.15062584009E+02 -0.12121574429E+02 -0.14515741737E+02  0.24176864185E+02  0.00000000000E+00 0.  1.
</event>
<event>
 7    1  0.1101380E-011  0.5930194E+02  0.7816164E-02  0.1266605E+00
        -11   -1    0    0    0    0  0.00000000000E+00  0.00000000000E+00  0.45593999997E+02  0.45594000000E+02  0.51100000000E-03 0.  1.
         11   -1    0    0    0    0 -0.00000000000E+00 -0.00000000000E+00 -0.45593999997E+02  0.45594000000E+02  0.51100000000E-03 0. -1.
    9900012    2    1    2    0    0  0.18985606257E+02  0.99687643247E+01 -0.23598545866E+02  0.59301939189E+02  0.49999991175E+02 0.  0.
        -12    1    1    2    0    0 -0.18985606257E+02 -0.99687643247E+01  0.23598545866E+02  0.31886060811E+02  0.00000000000E+00 0.  1.
         11    1    3    3    0    0  0.62771794590E+01 -0.71095103027E+01 -0.13747047313E+01  0.95832109475E+01  0.51100000000E-03 0. -1.
        -11    1    3    3    0    0  0.17966539238E+01  0.11454256380E+02  0.99525789609E+01  0.15280110693E+02  0.51100000000E-03 0.  1.
         12    1    3    3    0    0  0.10911772874E+02  0.56240182472E+01 -0.32176420095E+02  0.34438617548E+02  0.00000000000E+00 0. -1.
</event>
<event>
 7    1  0.1101380E-011  0.5930194E+02  0.7816164E-02  0.1266605E+00
        -11   -1    0    0    0    0  0.00000000000E+00  0.00000000000E+00  0.45593999997E+02  0.45594000000E+02  0.51100000000E-03 0. -1.
         11   -1    0    0    0    0 -0.00000000000E+00 -0.00000000000E+00 -0.45593999997E+02  0.45594000000E+02  0.51100000000E-03 0.  1.
    9900012    2    1    2    0    0  0.27421360241E+02 -0.25096609879E+01  0.16077667553E+02  0.59301940512E+02  0.49999993588E+02 0.  0.
        -12    1    1    2    0    0 -0.27421360241E+02  0.25096609879E+01 -0.16077667553E+02  0.31886059488E+02  0.00000000000E+00 0.  1.
         11    1    3    3    0    0  0.12638989715E+02  0.16982443514E+02  0.12377752980E+02  0.24522565482E+02  0.51100000000E-03 0. -1.
        -11    1    3    3    0    0 -0.43057565929E+00 -0.68180779184E+01  0.11598947909E+02  0.13461321434E+02  0.51100000000E-03 0.  1.
         12    1    3    3    0    0  0.15212946185E+02 -0.12674026583E+02 -0.78990333359E+01  0.21318053596E+02  0.00000000000E+00 0. -1.
</event>
<event>
 7    1  0.1101380E-011  0.5930194E+02  0.7816164E-02  0.1266605E+00
        -11   -1    0    0    0    0  0.00000000000E+00  0.00000000000E+00  0.45593999997E+02  0.45594000000E+02  0.51100000000E-03 0.  1.
         11   -1    0    0    0    0 -0.00000000000E+00 -0.00000000000E+00 -0.45593999997E+02  0.45594000000E+02  0.51100000000E-03 0. -1.
    9900012    2    1    2    0    0  0.12698089775E+02  0.54850162102E+01 -0.28729666233E+02  0.59301943351E+02  0.49999998765E+02 0.  0.
        -12    1    1    2    0    0 -0.12698089775E+02 -0.54850162102E+01  0.28729666233E+02  0.31886056649E+02  0.00000000000E+00 0.  1.
         11    1    3    3    0    0  0.12774053111E+02  0.26807205107E+01 -0.62292411242E+01  0.14462577245E+02  0.51100000000E-03 0. -1.
        -11    1    3    3    0    0  0.19263486635E+02  0.17341506679E+01 -0.98497385343E+01  0.21704988950E+02  0.51100000000E-03 0.  1.
        -12    1    3    3    0    0 -0.19339449971E+02  0.10701450315E+01 -0.12650686575E+02  0.23134377155E+02  0.00000000000E+00 0.  1.
</event>
<event>
 7    1  0.1101380E-011  0.5930194E+02  0.7816164E-02  0.1266605E+00
        -11   -1    0    0    0    0  0.00000000000E+00  0.00000000000E+00  0.45593999997E+02  0.45594000000E+02  0.51100000000E-03 0. -1.
         11   -1    0    0    0    0 -0.00000000000E+00 -0.00000000000E+00 -0.45593999997E+02  0.45594000000E+02  0.51100000000E-03 0.  1.
    9900012    2    1    2    0    0  0.94238496745E+01 -0.22823908286E+02  0.20173776454E+02  0.59301937393E+02  0.49999987900E+02 0.  0.
        -12    1    1    2    0    0 -0.94238496745E+01  0.22823908286E+02 -0.20173776454E+02  0.31886062607E+02  0.00000000000E+00 0.  1.
         11    1    3    3    0    0 -0.36093816367E+01 -0.19747275686E+02  0.25956275654E+02  0.32813271384E+02  0.51100000000E-03 0. -1.
        -11    1    3    3    0    0  0.64846648765E+01  0.76383718280E+01  0.37753553374E+01  0.10707423169E+02  0.51100000000E-03 0.  1.
         12    1    3    3    0    0  0.65485664347E+01 -0.10715004428E+02 -0.95578545369E+01  0.15781242840E+02  0.00000000000E+00 0. -1.
</event>
<event>
 7    1  0.1101380E-011  0.5930191E+02  0.7816164E-02  0.1266605E+00
        -11   -1    0    0    0    0  0.00000000000E+00  0.00000000000E+00  0.45593999997E+02  0.45594000000E+02  0.51100000000E-03 0.  1.
         11   -1    0    0    0    0 -0.00000000000E+00 -0.00000000000E+00 -0.45593999997E+02  0.45594000000E+02  0.51100000000E-03 0. -1.
    9900012    2    1    2    0    0  0.19139443719E+02  0.10965647509E+02 -0.23025183891E+02  0.59301908606E+02  0.49999935399E+02 0.  0.
        -12    1    1    2    0    0 -0.19139443719E+02 -0.10965647509E+02  0.23025183891E+02  0.31886091394E+02  0.00000000000E+00 0.  1.
         11    1    3    3    0    0  0.12689055853E+02  0.28199651920E+01 -0.20187870751E+02  0.24010715688E+02  0.51100000000E-03 0. -1.
        -11    1    3    3    0    0  0.11587545975E+02 -0.98080365178E+01  0.34844374869E+01  0.15575946421E+02  0.51100000000E-03 0.  1.
        -12    1    3    3    0    0 -0.51371581089E+01  0.17953718835E+02 -0.63217506264E+01  0.19715246497E+02  0.00000000000E+00 0.  1.
</event>
<event>
 7    1  0.1101380E-011  0.5930195E+02  0.7816164E-02  0.1266605E+00
        -11   -1    0    0    0    0  0.00000000000E+00  0.00000000000E+00  0.45593999997E+02  0.45594000000E+02  0.51100000000E-03 0.  1.
         11   -1    0    0    0    0 -0.00000000000E+00 -0.00000000000E+00 -0.45593999997E+02  0.45594000000E+02  0.51100000000E-03 0. -1.
    9900012    2    1    2    0    0 -0.21821825129E+02 -0.29020305271E+01 -0.23067424447E+02  0.59301954404E+02  0.50000018923E+02 0.  0.
        -12    1    1    2    0    0  0.21821825129E+02  0.29020305271E+01  0.23067424447E+02  0.31886045596E+02  0.00000000000E+00 0.  1.
         11    1    3    3    0    0  0.10124520169E+02 -0.49128878306E+01 -0.83355782687E+01  0.14004436469E+02  0.51100000000E-03 0. -1.
        -11    1    3    3    0    0  0.50032848472E+00  0.56986333552E+00  0.64679688252E+01  0.65122725526E+01  0.51100000000E-03 0.  1.
         12    1    3    3    0    0 -0.32446673782E+02  0.14409939680E+01 -0.21199815004E+02  0.38785245382E+02  0.00000000000E+00 0. -1.
</event>
<event>
 7    1  0.1101380E-011  0.5930196E+02  0.7816164E-02  0.1266605E+00
        -11   -1    0    0    0    0  0.00000000000E+00  0.00000000000E+00  0.45593999997E+02  0.45594000000E+02  0.51100000000E-03 0. -1.
         11   -1    0    0    0    0 -0.00000000000E+00 -0.00000000000E+00 -0.45593999997E+02  0.45594000000E+02  0.51100000000E-03 0.  1.
    9900012    2    1    2    0    0  0.12714238062E+02  0.28800405153E+02  0.50601020118E+01  0.59301955736E+02  0.50000021352E+02 0.  0.
        -12    1    1    2    0    0 -0.12714238062E+02 -0.28800405153E+02 -0.50601020118E+01  0.31886044264E+02  0.00000000000E+00 0.  1.
         11    1    3    3    0    0 -0.58122085654E+01  0.75178137698E+01 -0.62916189019E+00  0.95233994577E+01  0.51100000000E-03 0. -1.
        -11    1    3    3    0    0 -0.11418156873E+02  0.80800362319E+01 -0.57321332020E+01  0.15116833108E+02  0.51100000000E-03 0.  1.
         12    1    3    3    0    0  0.29944603501E+02  0.13202555151E+02  0.11421397104E+02  0.34661723170E+02  0.00000000000E+00 0. -1.
</event>
<event>
 7    1  0.1101380E-011  0.5930193E+02  0.7816164E-02  0.1266605E+00
        -11   -1    0    0    0    0  0.00000000000E+00  0.00000000000E+00  0.45593999997E+02  0.45594000000E+02  0.51100000000E-03 0. -1.
         11   -1    0    0    0    0 -0.00000000000E+00 -0.00000000000E+00 -0.45593999997E+02  0.45594000000E+02  0.51100000000E-03 0.  1.
    9900012    2    1    2    0    0  0.13794608188E+02  0.91668359324E+01  0.27247007072E+02  0.59301929523E+02  0.49999973548E+02 0.  0.
        -12    1    1    2    0    0 -0.13794608188E+02 -0.91668359324E+01 -0.27247007072E+02  0.31886070477E+02  0.00000000000E+00 0.  1.
         11    1    3    3    0    0  0.80540057287E+01 -0.19275823012E+01  0.17199465987E+02  0.19089374330E+02  0.51100000000E-03 0. -1.
        -11    1    3    3    0    0 -0.28443119598E+01 -0.11854274768E+02 -0.28556911090E+01  0.12520739306E+02  0.51100000000E-03 0.  1.
        -12    1    3    3    0    0  0.85849144188E+01  0.22948693002E+02  0.12903232194E+02  0.27691815887E+02  0.00000000000E+00 0.  1.
</event>
<event>
 7    1  0.1101380E-011  0.5930196E+02  0.7816164E-02  0.1266605E+00
        -11   -1    0    0    0    0  0.00000000000E+00  0.00000000000E+00  0.45593999997E+02  0.45594000000E+02  0.51100000000E-03 0. -1.
         11   -1    0    0    0    0 -0.00000000000E+00 -0.00000000000E+00 -0.45593999997E+02  0.45594000000E+02  0.51100000000E-03 0.  1.
    9900012    2    1    2    0    0 -0.70783435635E+01 -0.21798568631E+02  0.22168419369E+02  0.59301962942E+02  0.50000034495E+02 0.  0.
        -12    1    1    2    0    0  0.70783435635E+01  0.21798568631E+02 -0.22168419369E+02  0.31886037058E+02  0.00000000000E+00 0.  1.
         11    1    3    3    0    0 -0.11481818360E+02 -0.10265353996E+02  0.21108548533E+02  0.26130068254E+02  0.51100000000E-03 0. -1.
        -11    1    3    3    0    0 -0.69156974947E+01 -0.19672247388E+01 -0.11622112572E+02  0.13666394766E+02  0.51100000000E-03 0.  1.
        -12    1    3    3    0    0  0.11319172291E+02 -0.95659898959E+01  0.12681983408E+02  0.19505499922E+02  0.00000000000E+00 0.  1.
</event>
<event>
 7    1  0.1101380E-011  0.5930194E+02  0.7816164E-02  0.1266605E+00
        -11   -1    0    0    0    0  0.00000000000E+00  0.00000000000E+00  0.45593999997E+02  0.45594000000E+02  0.51100000000E-03 0. -1.
         11   -1    0    0    0    0 -0.00000000000E+00 -0.00000000000E+00 -0.45593999997E+02  0.45594000000E+02  0.51100000000E-03 0.  1.
    9900012    2    1    2    0    0  0.18585208682E+02  0.25071061564E+02  0.65385382940E+01  0.59301943601E+02  0.49999999221E+02 0.  0.
        -12    1    1    2    0    0 -0.18585208682E+02 -0.25071061564E+02 -0.65385382940E+01  0.31886056399E+02  0.00000000000E+00 0.  1.
         11    1    3    3    0    0  0.64303042377E+01 -0.30703290990E+01  0.14186431933E+02  0.15875471162E+02  0.51100000000E-03 0. -1.
        -11    1    3    3    0    0  0.47477812096E+01 -0.36066802292E+01 -0.90022112891E+01  0.10797656090E+02  0.51100000000E-03 0.  1.
         12    1    3    3    0    0  0.74071232346E+01  0.31748070892E+02  0.13543176500E+01  0.32628816348E+02  0.00000000000E+00 0. -1.
</event>
<event>
 7    1  0.1101380E-011  0.5930203E+02  0.7816164E-02  0.1266604E+00
        -11   -1    0    0    0    0  0.00000000000E+00  0.00000000000E+00  0.45593999997E+02  0.45594000000E+02  0.51100000000E-03 0.  1.
         11   -1    0    0    0    0 -0.00000000000E+00 -0.00000000000E+00 -0.45593999997E+02  0.45594000000E+02  0.51100000000E-03 0. -1.
    9900012    2    1    2    0    0 -0.14026819002E+02 -0.17302085750E+02 -0.22816693265E+02  0.59302026373E+02  0.50000150178E+02 0.  0.
        -12    1    1    2    0    0  0.14026819002E+02  0.17302085750E+02  0.22816693265E+02  0.31885973627E+02  0.00000000000E+00 0.  1.
         11    1    3    3    0    0  0.21528661836E+01 -0.17969052656E+02 -0.10017888858E+02  0.20685255221E+02  0.51100000000E-03 0. -1.
        -11    1    3    3    0    0 -0.20497256739E+02 -0.80340278825E+01  0.65229616268E+00  0.22025181688E+02  0.51100000000E-03 0.  1.
         12    1    3    3    0    0  0.43175715531E+01  0.87009947884E+01 -0.13451100569E+02  0.16591589464E+02  0.00000000000E+00 0. -1.
</event>
<event>
 7    1  0.1101380E-011  0.5930195E+02  0.7816164E-02  0.1266605E+00
        -11   -1    0    0    0    0  0.00000000000E+00  0.00000000000E+00  0.45593999997E+02  0.45594000000E+02  0.51100000000E-03 0. -1.
         11   -1    0    0    0    0 -0.00000000000E+00 -0.00000000000E+00 -0.45593999997E+02  0.45594000000E+02  0.51100000000E-03 0.  1.
    9900012    2    1    2    0    0 -0.22356514185E+02  0.22471671840E+02  0.34540666554E+01  0.59301947591E+02  0.50000006498E+02 0.  0.
        -12    1    1    2    0    0  0.22356514185E+02 -0.22471671840E+02 -0.34540666554E+01  0.31886052409E+02  0.00000000000E+00 0.  1.
         11    1    3    3    0    0 -0.64360002675E+01  0.47667298373E+01  0.16889120770E+01  0.81851229099E+01  0.51100000000E-03 0. -1.
        -11    1    3    3    0    0 -0.37742107262E+01  0.13440646900E+02 -0.20851348733E+02  0.25093313849E+02  0.51100000000E-03 0.  1.
         12    1    3    3    0    0 -0.12146303192E+02  0.42642951024E+01  0.22616503311E+02  0.26023510831E+02  0.00000000000E+00 0. -1.
</event>
<event>
 7    1  0.1101380E-011  0.5930194E+02  0.7816164E-02  0.1266605E+00
        -11   -1    0    0    0    0  0.00000000000E+00  0.00000000000E+00  0.45593999997E+02  0.45594000000E+02  0.51100000000E-03 0. -1.
         11   -1    0    0    0    0 -0.00000000000E+00 -0.00000000000E+00 -0.45593999997E+02  0.45594000000E+02  0.51100000000E-03 0.  1.
    9900012    2    1    2    0    0 -0.30839893304E+02 -0.61930414395E+01 -0.52218704886E+01  0.59301941719E+02  0.49999995790E+02 0.  0.
        -12    1    1    2    0    0  0.30839893304E+02  0.61930414395E+01  0.52218704886E+01  0.31886058281E+02  0.00000000000E+00 0.  1.
         11    1    3    3    0    0 -0.13948733913E+02  0.19988326922E+01  0.66760157587E+01  0.15592680866E+02  0.51100000000E-03 0. -1.
        -11    1    3    3    0    0 -0.25634448571E+02 -0.12692676085E+02 -0.43732788483E+00  0.28608044946E+02  0.51100000000E-03 0.  1.
        -12    1    3    3    0    0  0.87432891797E+01  0.45008019529E+01 -0.11460558362E+02  0.15101215907E+02  0.00000000000E+00 0.  1.
</event>
<event>
 7    1  0.1101380E-011  0.5930193E+02  0.7816164E-02  0.1266605E+00
        -11   -1    0    0    0    0  0.00000000000E+00  0.00000000000E+00  0.45593999997E+02  0.45594000000E+02  0.51100000000E-03 0.  1.
         11   -1    0    0    0    0 -0.00000000000E+00 -0.00000000000E+00 -0.45593999997E+02  0.45594000000E+02  0.51100000000E-03 0. -1.
    9900012    2    1    2    0    0  0.14989398983E+02  0.15497569518E+02 -0.23491797118E+02  0.59301932907E+02  0.49999979719E+02 0.  0.
        -12    1    1    2    0    0 -0.14989398983E+02 -0.15497569518E+02  0.23491797118E+02  0.31886067093E+02  0.00000000000E+00 0.  1.
         11    1    3    3    0    0  0.14498446247E+02  0.42813282605E+00 -0.14430749367E+02  0.20460566191E+02  0.51100000000E-03 0. -1.
        -11    1    3    3    0    0  0.13320868186E+02 -0.46106760360E+01 -0.15714617939E+01  0.14183559327E+02  0.51100000000E-03 0.  1.
         12    1    3    3    0    0 -0.12829915450E+02  0.19680112728E+02 -0.74895859564E+01  0.24657807389E+02  0.00000000000E+00 0. -1.
</event>
<event>
 7    1  0.1101380E-011  0.5930195E+02  0.7816164E-02  0.1266605E+00
        -11   -1    0    0    0    0  0.00000000000E+00  0.00000000000E+00  0.45593999997E+02  0.45594000000E+02  0.51100000000E-03 0. -1.
         11   -1    0    0    0    0 -0.00000000000E+00 -0.00000000000E+00 -0.45593999997E+02  0.45594000000E+02  0.51100000000E-03 0.  1.
    9900012    2    1    2    0    0  0.16851963691E+02  0.44364895932E+01  0.26702975559E+02  0.59301952521E+02  0.50000015490E+02 0.  0.
        -12    1    1    2    0    0 -0.16851963691E+02 -0.44364895932E+01 -0.26702975559E+02  0.31886047479E+02  0.00000000000E+00 0.  1.
         11    1    3    3    0    0  0.51191372922E+01 -0.11867206868E+02  0.18068414376E+02  0.22214944605E+02  0.51100000000E-03 0. -1.
        -11    1    3    3    0    0  0.10179078864E+02 -0.76213035975E+00 -0.81786297215E+01  0.13079926360E+02  0.51100000000E-03 0.  1.
         12    1    3    3    0    0  0.15537475348E+01  0.17065826821E+02  0.16813190904E+02  0.24007081557E+02  0.00000000000E+00 0. -1.
</event>
<event>
 7    1  0.1101380E-011  0.5930194E+02  0.7816164E-02  0.1266605E+00
        -11   -1    0    0    0    0  0.00000000000E+00  0.00000000000E+00  0.45593999997E+02  0.45594000000E+02  0.51100000000E-03 0.  1.
         11   -1    0    0    0    0 -0.00000000000E+00 -0.00000000000E+00 -0.45593999997E+02  0.45594000000E+02  0.51100000000E-03 0. -1.
    9900012    2    1    2    0    0  0.17177190475E+02 -0.11021495913E+02 -0.24498805372E+02  0.59301941770E+02  0.49999995883E+02 0.  0.
        -12    1    1    2    0    0 -0.17177190475E+02  0.11021495913E+02  0.24498805372E+02  0.31886058230E+02  0.00000000000E+00 0.  1.
         11    1    3    3    0    0  0.18019752270E+02  0.22606137727E+01 -0.22564091699E+02  0.28964807628E+02  0.51100000000E-03 0. -1.
        -11    1    3    3    0    0  0.71314890654E+01 -0.15634479931E+02 -0.90255054855E+01  0.19410173841E+02  0.51100000000E-03 0.  1.
        -12    1    3    3    0    0 -0.79740508602E+01  0.23523702453E+01  0.70907918125E+01  0.10926960301E+02  0.00000000000E+00 0.  1.
</event>
<event>
 7    1  0.1101380E-011  0.5930194E+02  0.7816164E-02  0.1266605E+00
        -11   -1    0    0    0    0  0.00000000000E+00  0.00000000000E+00  0.45593999997E+02  0.45594000000E+02  0.51100000000E-03 0.  1.
         11   -1    0    0    0    0 -0.00000000000E+00 -0.00000000000E+00 -0.45593999997E+02  0.45594000000E+02  0.51100000000E-03 0. -1.
    9900012    2    1    2    0    0  0.20833974574E+02  0.64332234235E+01 -0.23265417471E+02  0.59301944893E+02  0.50000001578E+02 0.  0.
        -12    1    1    2    0    0 -0.20833974574E+02 -0.64332234235E+01  0.23265417471E+02  0.31886055107E+02  0.00000000000E+00 0.  1.
         11    1    3    3    0    0 -0.26894159444E+01 -0.69584504224E+01 -0.28004733789E+01  0.79684152634E+01  0.51100000000E-03 0. -1.
        -11    1    3    3    0    0  0.96888280919E+01 -0.12292585209E+02 -0.14948290316E+02  0.21643299761E+02  0.51100000000E-03 0.  1.
        -12    1    3    3    0    0  0.13834562427E+02  0.25684259055E+02 -0.55166537768E+01  0.29690229869E+02  0.00000000000E+00 0.  1.
</event>
<event>
 7    1  0.1101380E-011  0.5930194E+02  0.7816164E-02  0.1266605E+00
        -11   -1    0    0    0    0  0.00000000000E+00  0.00000000000E+00  0.45593999997E+02  0.45594000000E+02  0.51100000000E-03 0. -1.
         11   -1    0    0    0    0 -0.00000000000E+00 -0.00000000000E+00 -0.45593999997E+02  0.45594000000E+02  0.51100000000E-03 0.  1.
    9900012    2    1    2    0    0  0.19500067811E+01 -0.30700503470E+02 -0.83903028240E+01  0.59301943153E+02  0.49999998405E+02 0.  0.
        -12    1    1    2    0    0 -0.19500067811E+01  0.30700503470E+02  0.83903028240E+01  0.31886056847E+02  0.00000000000E+00 0.  1.
         11    1    3    3    0    0 -0.34397308726E+01 -0.17494829849E+02 -0.17770666802E+01  0.17918113354E+02  0.51100000000E-03 0. -1.
        -11    1    3    3    0    0  0.19314692245E+02 -0.13980729574E+02 -0.11673272583E+02  0.26547757514E+02  0.51100000000E-03 0.  1.
        -12    1    3    3    0    0 -0.13924954591E+02  0.77505595301E+00  0.50600364396E+01  0.14836072285E+02  0.00000000000E+00 0.  1.
</event>
<event>
 7    1  0.1101380E-011  0.5930195E+02  0.7816164E-02  0.1266605E+00
        -11   -1    0    0    0    0  0.00000000000E+00  0.00000000000E+00  0.45593999997E+02  0.45594000000E+02  0.51100000000E-03 0. -1.
         11   -1    0    0    0    0 -0.00000000000E+00 -0.00000000000E+00 -0.45593999997E+02  0.45594000000E+02  0.51100000000E-03 0.  1.
    9900012    2    1    2    0    0 -0.10143570554E+01  0.31563004726E+02 -0.44122356295E+01  0.59301952725E+02  0.50000015862E+02 0.  0.
        -12    1    1    2    0    0  0.10143570554E+01 -0.31563004726E+02  0.44122356295E+01  0.31886047275E+02  0.00000000000E+00 0.  1.
         11    1    3    3    0    0 -0.16122316450E+02  0.20125106286E+02 -0.93020519341E+01  0.27413083759E+02  0.51100000000E-03 0. -1.
        -11    1    3    3    0    0  0.58810276340E+01  0.65574739134E+01 -0.10240334851E+02  0.13507457506E+02  0.51100000000E-03 0.  1.
         12    1    3    3    0    0  0.92269317604E+01  0.48804245269E+01  0.15130151156E+02  0.18381411460E+02  0.00000000000E+00 0. -1.
</event>
<event>
 7    1  0.1101380E-011  0.5930194E+02  0.7816164E-02  0.1266605E+00
        -11   -1    0    0    0    0  0.00000000000E+00  0.00000000000E+00  0.45593999997E+02  0.45594000000E+02  0.51100000000E-03 0. -1.
         11   -1    0    0    0    0 -0.00000000000E+00 -0.00000000000E+00 -0.45593999997E+02  0.45594000000E+02  0.51100000000E-03 0.  1.
    9900012    2    1    2    0    0 -0.87218547613E+01 -0.14254935900E+02  0.27155970723E+02  0.59301942014E+02  0.49999996328E+02 0.  0.
        -12    1    1    2    0    0  0.87218547613E+01  0.14254935900E+02 -0.27155970723E+02  0.31886057986E+02  0.00000000000E+00 0.  1.
         11    1    3    3    0    0  0.32378497619E+01 -0.37561628696E+01  0.22854215968E+02  0.23386056067E+02  0.51100000000E-03 0. -1.
        -11    1    3    3    0    0  0.93395394209E+00 -0.38311599805E+01  0.16494251955E+02  0.16959080299E+02  0.51100000000E-03 0.  1.
        -12    1    3    3    0    0 -0.12893658465E+02 -0.66676130498E+01 -0.12192497201E+02  0.18956805648E+02  0.00000000000E+00 0.  1.
</event>
<event>
 7    1  0.1101380E-011  0.5930195E+02  0.7816164E-02  0.1266605E+00
        -11   -1    0    0    0    0  0.00000000000E+00  0.00000000000E+00  0.45593999997E+02  0.45594000000E+02  0.51100000000E-03 0.  1.
         11   -1    0    0    0    0 -0.00000000000E+00 -0.00000000000E+00 -0.45593999997E+02  0.45594000000E+02  0.51100000000E-03 0. -1.
    9900012    2    1    2    0    0 -0.22808510720E+01  0.31697723823E+02 -0.26023629972E+01  0.59301948656E+02  0.50000008440E+02 0.  0.
        -12    1    1    2    0    0  0.22808510720E+01 -0.31697723823E+02  0.26023629972E+01  0.31886051344E+02  0.00000000000E+00 0.  1.
         11    1    3    3    0    0  0.69103328802E+01  0.15532108720E+02 -0.21137228876E+02  0.27125293485E+02  0.51100000000E-03 0. -1.
        -11    1    3    3    0    0  0.49805160714E+01  0.81627208137E+01  0.40331188330E+01  0.10377938100E+02  0.51100000000E-03 0.  1.
         12    1    3    3    0    0 -0.14171700024E+02  0.80028942887E+01  0.14501747046E+02  0.21798717071E+02  0.00000000000E+00 0. -1.
</event>
<event>
 7    1  0.1101380E-011  0.5930194E+02  0.7816164E-02  0.1266605E+00
        -11   -1    0    0    0    0  0.00000000000E+00  0.00000000000E+00  0.45593999997E+02  0.45594000000E+02  0.51100000000E-03 0. -1.
         11   -1    0    0    0    0 -0.00000000000E+00 -0.00000000000E+00 -0.45593999997E+02  0.45594000000E+02  0.51100000000E-03 0.  1.
    9900012    2    1    2    0    0 -0.65300537553E+01 -0.31196451792E+02  0.92755508479E+00  0.59301944037E+02  0.50000000016E+02 0.  0.
        -12    1    1    2    0    0  0.65300537553E+01  0.31196451792E+02 -0.92755508479E+00  0.31886055963E+02  0.00000000000E+00 0.  1.
         11    1    3    3    0    0 -0.10014674471E+02 -0.32177919958E+02  0.88565305857E+01  0.34844660593E+02  0.51100000000E-03 0. -1.
        -11    1    3    3    0    0 -0.42129752664E+01 -0.67168793494E+01  0.35055110470E+01  0.86691543273E+01  0.51100000000E-03 0.  1.
        -12    1    3    3    0    0  0.76975959824E+01  0.76983475151E+01 -0.11434486548E+02  0.15788129116E+02  0.00000000000E+00 0.  1.
</event>
<event>
 7    1  0.1101380E-011  0.5930187E+02  0.7816164E-02  0.1266605E+00
        -11   -1    0    0    0    0  0.00000000000E+00  0.00000000000E+00  0.45593999997E+02  0.45594000000E+02  0.51100000000E-03 0. -1.
         11   -1    0    0    0    0 -0.00000000000E+00 -0.00000000000E+00 -0.45593999997E+02  0.45594000000E+02  0.51100000000E-03 0.  1.
    9900012    2    1    2    0    0  0.16839357746E+02  0.18680152787E+02  0.19601355798E+02  0.59301870938E+02  0.49999866702E+02 0.  0.
        -12    1    1    2    0    0 -0.16839357746E+02 -0.18680152787E+02 -0.19601355798E+02  0.31886129062E+02  0.00000000000E+00 0.  1.
         11    1    3    3    0    0  0.78226841363E+01  0.19449214719E+02  0.44079440417E+01  0.21421865260E+02  0.51100000000E-03 0.  1.
        -11    1    3    3    0    0  0.12947670025E+02  0.13328892389E+02  0.29842463196E+01  0.18820394729E+02  0.51100000000E-03 0. -1.
        -12    1    3    3    0    0 -0.39309964150E+01 -0.14097954322E+02  0.12209165437E+02  0.19059610949E+02  0.00000000000E+00 0.  1.
</event>
<event>
 7    1  0.1101380E-011  0.5930196E+02  0.7816164E-02  0.1266605E+00
        -11   -1    0    0    0    0  0.00000000000E+00  0.00000000000E+00  0.45593999997E+02  0.45594000000E+02  0.51100000000E-03 0.  1.
         11   -1    0    0    0    0 -0.00000000000E+00 -0.00000000000E+00 -0.45593999997E+02  0.45594000000E+02  0.51100000000E-03 0. -1.
    9900012    2    1    2    0    0 -0.83760338553E+01  0.16460408579E+02  0.25992628378E+02  0.59301957227E+02  0.50000024072E+02 0.  0.
        -12    1    1    2    0    0  0.83760338553E+01 -0.16460408579E+02 -0.25992628378E+02  0.31886042773E+02  0.00000000000E+00 0.  1.
         11    1    3    3    0    0 -0.18063266318E+02 -0.29487181364E+01 -0.35551875842E+01  0.18644459974E+02  0.51100000000E-03 0.  1.
        -11    1    3    3    0    0  0.95997245001E+01  0.74155367078E+01  0.45943574615E+01  0.12971238024E+02  0.51100000000E-03 0. -1.
        -12    1    3    3    0    0  0.87507962389E-01  0.11993590008E+02  0.24953458501E+02  0.27686259228E+02  0.00000000000E+00 0.  1.
</event>
<event>
 7    1  0.1101380E-011  0.5930201E+02  0.7816164E-02  0.1266605E+00
        -11   -1    0    0    0    0  0.00000000000E+00  0.00000000000E+00  0.45593999997E+02  0.45594000000E+02  0.51100000000E-03 0. -1.
         11   -1    0    0    0    0 -0.00000000000E+00 -0.00000000000E+00 -0.45593999997E+02  0.45594000000E+02  0.51100000000E-03 0.  1.
    9900012    2    1    2    0    0  0.33545541936E+01 -0.18339566792E+02  0.25867424607E+02  0.59302009350E+02  0.50000119132E+02 0.  0.
        -12    1    1    2    0    0 -0.33545541936E+01  0.18339566792E+02 -0.25867424607E+02  0.31885990650E+02  0.00000000000E+00 0.  1.
         11    1    3    3    0    0 -0.18398839649E+01 -0.66228578370E+01  0.33463588259E+01  0.76449680566E+01  0.51100000000E-03 0. -1.
        -11    1    3    3    0    0 -0.72824588859E+01 -0.19302723857E+02 -0.43411321011E+01  0.21082570619E+02  0.51100000000E-03 0.  1.
        -12    1    3    3    0    0  0.12476897044E+02  0.75860149029E+01  0.26862197882E+02  0.30574470674E+02  0.00000000000E+00 0.  1.
</event>
<event>
 7    1  0.1101380E-011  0.5930194E+02  0.7816164E-02  0.1266605E+00
        -11   -1    0    0    0    0  0.00000000000E+00  0.00000000000E+00  0.45593999997E+02  0.45594000000E+02  0.51100000000E-03 0.  1.
         11   -1    0    0    0    0 -0.00000000000E+00 -0.00000000000E+00 -0.45593999997E+02  0.45594000000E+02  0.51100000000E-03 0. -1.
    9900012    2    1    2    0    0 -0.24694954490E+02 -0.29128945694E+01 -0.19959841748E+02  0.59301936984E+02  0.49999987154E+02 0.  0.
        -12    1    1    2    0    0  0.24694954490E+02  0.29128945694E+01  0.19959841748E+02  0.31886063016E+02  0.00000000000E+00 0.  1.
         11    1    3    3    0    0 -0.93503500282E+01 -0.94785592540E+01  0.96652098818E+01  0.16452611145E+02  0.51100000000E-03 0. -1.
        -11    1    3    3    0    0  0.12853911363E+01  0.19363829831E+01  0.42418085048E+01  0.48368118718E+01  0.51100000000E-03 0.  1.
         12    1    3    3    0    0 -0.16629995598E+02  0.46292817015E+01 -0.33866860135E+02  0.38012513967E+02  0.00000000000E+00 0. -1.
</event>
<event>
 7    1  0.1101380E-011  0.5930193E+02  0.7816164E-02  0.1266605E+00
        -11   -1    0    0    0    0  0.00000000000E+00  0.00000000000E+00  0.45593999997E+02  0.45594000000E+02  0.51100000000E-03 0.  1.
         11   -1    0    0    0    0 -0.00000000000E+00 -0.00000000000E+00 -0.45593999997E+02  0.45594000000E+02  0.51100000000E-03 0. -1.
    9900012    2    1    2    0    0 -0.10286329592E+02 -0.11490694388E+02 -0.27908369435E+02  0.59301925947E+02  0.49999967026E+02 0.  0.
        -12    1    1    2    0    0  0.10286329592E+02  0.11490694388E+02  0.27908369435E+02  0.31886074053E+02  0.00000000000E+00 0.  1.
         11    1    3    3    0    0 -0.14610818620E+02 -0.14738281993E+02 -0.16077235120E+02  0.26252056419E+02  0.51100000000E-03 0. -1.
        -11    1    3    3    0    0 -0.35937133935E+00 -0.13440636573E+02 -0.63603018569E+01  0.14873913379E+02  0.51100000000E-03 0.  1.
         12    1    3    3    0    0  0.46838603679E+01  0.16688224178E+02 -0.54708324572E+01  0.18175956149E+02  0.00000000000E+00 0. -1.
</event>
<event>
 7    1  0.1101380E-011  0.5930194E+02  0.7816164E-02  0.1266605E+00
        -11   -1    0    0    0    0  0.00000000000E+00  0.00000000000E+00  0.45593999997E+02  0.45594000000E+02  0.51100000000E-03 0.  1.
         11   -1    0    0    0    0 -0.00000000000E+00 -0.00000000000E+00 -0.45593999997E+02  0.45594000000E+02  0.51100000000E-03 0. -1.
    9900012    2    1    2    0    0  0.31467388651E+02 -0.94678221531E+00 -0.50624053818E+01  0.59301938887E+02  0.49999990624E+02 0.  0.
        -12    1    1    2    0    0 -0.31467388651E+02  0.94678221531E+00  0.50624053818E+01  0.31886061113E+02  0.00000000000E+00 0.  1.
         11    1    3    3    0    0 -0.49229075316E+01  0.57476835896E+01  0.17012874532E+01  0.77566271323E+01  0.51100000000E-03 0.  1.
        -11    1    3    3    0    0 -0.66344530680E+00 -0.29527628949E+01 -0.13381727388E+02  0.13719679170E+02  0.51100000000E-03 0. -1.
        -12    1    3    3    0    0  0.37053741489E+02 -0.37417029100E+01  0.66180345530E+01  0.37825632584E+02  0.00000000000E+00 0.  1.
</event>
<event>
 7    1  0.1101380E-011  0.5930196E+02  0.7816164E-02  0.1266605E+00
        -11   -1    0    0    0    0  0.00000000000E+00  0.00000000000E+00  0.45593999997E+02  0.45594000000E+02  0.51100000000E-03 0.  1.
         11   -1    0    0    0    0 -0.00000000000E+00 -0.00000000000E+00 -0.45593999997E+02  0.45594000000E+02  0.51100000000E-03 0. -1.
    9900012    2    1    2    0    0 -0.15118985868E+02  0.26104167840E+02 -0.10329973058E+02  0.59301958294E+02  0.50000026018E+02 0.  0.
        -12    1    1    2    0    0  0.15118985868E+02 -0.26104167840E+02  0.10329973058E+02  0.31886041706E+02  0.00000000000E+00 0.  1.
         11    1    3    3    0    0  0.65552720352E+01  0.78810078571E+01 -0.43618306638E+01  0.11140352028E+02  0.51100000000E-03 0. -1.
        -11    1    3    3    0    0 -0.88602750607E+01  0.28441527474E+02 -0.97441268141E+01  0.31342829592E+02  0.51100000000E-03 0.  1.
        -12    1    3    3    0    0 -0.12813982843E+02 -0.10218367491E+02  0.37759844196E+01  0.16818776674E+02  0.00000000000E+00 0.  1.
</event>
<event>
 7    1  0.1101380E-011  0.5930196E+02  0.7816164E-02  0.1266605E+00
        -11   -1    0    0    0    0  0.00000000000E+00  0.00000000000E+00  0.45593999997E+02  0.45594000000E+02  0.51100000000E-03 0.  1.
         11   -1    0    0    0    0 -0.00000000000E+00 -0.00000000000E+00 -0.45593999997E+02  0.45594000000E+02  0.51100000000E-03 0. -1.
    9900012    2    1    2    0    0 -0.24376643520E+02 -0.13268696122E+02 -0.15698425907E+02  0.59301958821E+02  0.50000026980E+02 0.  0.
        -12    1    1    2    0    0  0.24376643520E+02  0.13268696122E+02  0.15698425907E+02  0.31886041179E+02  0.00000000000E+00 0.  1.
         11    1    3    3    0    0 -0.57666159947E+01  0.20026264647E+01 -0.21756203952E+02  0.22596388725E+02  0.51100000000E-03 0. -1.
        -11    1    3    3    0    0  0.70988947964E+00 -0.97751168066E+01 -0.76113256391E+01  0.12409235670E+02  0.51100000000E-03 0.  1.
        -12    1    3    3    0    0 -0.19319917005E+02 -0.54962057800E+01  0.13669103683E+02  0.24296334426E+02  0.00000000000E+00 0.  1.
</event>
<event>
 7    1  0.1101380E-011  0.5930196E+02  0.7816164E-02  0.1266605E+00
        -11   -1    0    0    0    0  0.00000000000E+00  0.00000000000E+00  0.45593999997E+02  0.45594000000E+02  0.51100000000E-03 0.  1.
         11   -1    0    0    0    0 -0.00000000000E+00 -0.00000000000E+00 -0.45593999997E+02  0.45594000000E+02  0.51100000000E-03 0. -1.
    9900012    2    1    2    0    0 -0.19397499486E+02 -0.15497229049E+02 -0.20007310373E+02  0.59301959750E+02  0.50000028673E+02 0.  0.
        -12    1    1    2    0    0  0.19397499486E+02  0.15497229049E+02  0.20007310373E+02  0.31886040250E+02  0.00000000000E+00 0.  1.
         11    1    3    3    0    0  0.39438766431E+01 -0.89928462722E+01  0.82875860641E+01  0.12849495324E+02  0.51100000000E-03 0. -1.
        -11    1    3    3    0    0 -0.10700481533E+02  0.10371439901E+02 -0.69279747368E+01  0.16433621173E+02  0.51100000000E-03 0.  1.
         12    1    3    3    0    0 -0.12640894596E+02 -0.16875822678E+02 -0.21366921700E+02  0.30018843252E+02  0.00000000000E+00 0. -1.
</event>
<event>
 7    1  0.1101380E-011  0.5930195E+02  0.7816164E-02  0.1266605E+00
        -11   -1    0    0    0    0  0.00000000000E+00  0.00000000000E+00  0.45593999997E+02  0.45594000000E+02  0.51100000000E-03 0.  1.
         11   -1    0    0    0    0 -0.00000000000E+00 -0.00000000000E+00 -0.45593999997E+02  0.45594000000E+02  0.51100000000E-03 0. -1.
    9900012    2    1    2    0    0 -0.18433194907E+02  0.25927740410E+02 -0.21655649433E+01  0.59301951816E+02  0.50000014204E+02 0.  0.
        -12    1    1    2    0    0  0.18433194907E+02 -0.25927740410E+02  0.21655649433E+01  0.31886048184E+02  0.00000000000E+00 0.  1.
         11    1    3    3    0    0 -0.69254481633E+01  0.70802625876E+01  0.12950397503E+02  0.16303519446E+02  0.51100000000E-03 0. -1.
        -11    1    3    3    0    0  0.75095651972E+01 -0.51349616599E+01 -0.65656429244E+01  0.11219138468E+02  0.51100000000E-03 0.  1.
         12    1    3    3    0    0 -0.19017311941E+02  0.23982439483E+02 -0.85503195220E+01  0.31779293902E+02  0.00000000000E+00 0. -1.
</event>
<event>
 7    1  0.1101380E-011  0.5930195E+02  0.7816164E-02  0.1266605E+00
        -11   -1    0    0    0    0  0.00000000000E+00  0.00000000000E+00  0.45593999997E+02  0.45594000000E+02  0.51100000000E-03 0.  1.
         11   -1    0    0    0    0 -0.00000000000E+00 -0.00000000000E+00 -0.45593999997E+02  0.45594000000E+02  0.51100000000E-03 0. -1.
    9900012    2    1    2    0    0  0.22466775731E+02 -0.14315542370E+02 -0.17522252072E+02  0.59301951597E+02  0.50000013804E+02 0.  0.
        -12    1    1    2    0    0 -0.22466775731E+02  0.14315542370E+02  0.17522252072E+02  0.31886048403E+02  0.00000000000E+00 0.  1.
         11    1    3    3    0    0 -0.29510458391E+01  0.95115078804E+01 -0.33194258251E+01  0.10497430246E+02  0.51100000000E-03 0. -1.
        -11    1    3    3    0    0  0.83963402185E+01 -0.28942283997E+01 -0.19393074090E+02  0.21329941632E+02  0.51100000000E-03 0.  1.
        -12    1    3    3    0    0  0.17021481351E+02 -0.20932821851E+02  0.51902478436E+01  0.27474579719E+02  0.00000000000E+00 0.  1.
</event>
<event>
 7    1  0.1101380E-011  0.5930192E+02  0.7816164E-02  0.1266605E+00
        -11   -1    0    0    0    0  0.00000000000E+00  0.00000000000E+00  0.45593999997E+02  0.45594000000E+02  0.51100000000E-03 0. -1.
         11   -1    0    0    0    0 -0.00000000000E+00 -0.00000000000E+00 -0.45593999997E+02  0.45594000000E+02  0.51100000000E-03 0.  1.
    9900012    2    1    2    0    0 -0.30054410608E+02 -0.36402996722E+01  0.10010121480E+02  0.59301922933E+02  0.49999961528E+02 0.  0.
        -12    1    1    2    0    0  0.30054410608E+02  0.36402996722E+01 -0.10010121480E+02  0.31886077067E+02  0.00000000000E+00 0.  1.
         11    1    3    3    0    0 -0.53420071246E+01 -0.83193518005E+01 -0.66476507361E+00  0.99091153674E+01  0.51100000000E-03 0. -1.
        -11    1    3    3    0    0 -0.36331459346E+02  0.26345582459E+01  0.82038716496E+01  0.37339246721E+02  0.51100000000E-03 0.  1.
         12    1    3    3    0    0  0.11619055863E+02  0.20444938824E+01  0.24710149037E+01  0.12053560845E+02  0.00000000000E+00 0. -1.
</event>
<event>
 7    1  0.1101380E-011  0.5930193E+02  0.7816164E-02  0.1266605E+00
        -11   -1    0    0    0    0  0.00000000000E+00  0.00000000000E+00  0.45593999997E+02  0.45594000000E+02  0.51100000000E-03 0. -1.
         11   -1    0    0    0    0 -0.00000000000E+00 -0.00000000000E+00 -0.45593999997E+02  0.45594000000E+02  0.51100000000E-03 0.  1.
    9900012    2    1    2    0    0  0.20874105095E+01 -0.24510816709E+02  0.20287533389E+02  0.59301930481E+02  0.49999975294E+02 0.  0.
        -12    1    1    2    0    0 -0.20874105095E+01  0.24510816709E+02 -0.20287533389E+02  0.31886069519E+02  0.00000000000E+00 0.  1.
         11    1    3    3    0    0  0.47117972240E+01 -0.18171746055E+02  0.24165814857E+02  0.30600653518E+02  0.51100000000E-03 0. -1.
        -11    1    3    3    0    0  0.11009205586E+02 -0.72263351225E+01  0.28470963187E+01  0.13473250708E+02  0.51100000000E-03 0.  1.
        -12    1    3    3    0    0 -0.13633592300E+02  0.88726446917E+00 -0.67253777861E+01  0.15228026255E+02  0.00000000000E+00 0.  1.
</event>
<event>
 7    1  0.1101380E-011  0.5930195E+02  0.7816164E-02  0.1266605E+00
        -11   -1    0    0    0    0  0.00000000000E+00  0.00000000000E+00  0.45593999997E+02  0.45594000000E+02  0.51100000000E-03 0. -1.
         11   -1    0    0    0    0 -0.00000000000E+00 -0.00000000000E+00 -0.45593999997E+02  0.45594000000E+02  0.51100000000E-03 0.  1.
    9900012    2    1    2    0    0 -0.30177637361E+02  0.62705780555E+01  0.81676223523E+01  0.59301952883E+02  0.50000016150E+02 0.  0.
        -12    1    1    2    0    0  0.30177637361E+02 -0.62705780555E+01 -0.81676223523E+01  0.31886047117E+02  0.00000000000E+00 0.  1.
         11    1    3    3    0    0 -0.19420771864E+02  0.16635114648E+02 -0.70888586099E+01  0.26535736956E+02  0.51100000000E-03 0. -1.
        -11    1    3    3    0    0 -0.72325914700E+01 -0.13181131905E+02 -0.17822614242E+01  0.15140312867E+02  0.51100000000E-03 0.  1.
         12    1    3    3    0    0 -0.35242740267E+01  0.28165953118E+01  0.17038742386E+02  0.17625903060E+02  0.00000000000E+00 0. -1.
</event>
<event>
 7    1  0.1101380E-011  0.5930197E+02  0.7816164E-02  0.1266605E+00
        -11   -1    0    0    0    0  0.00000000000E+00  0.00000000000E+00  0.45593999997E+02  0.45594000000E+02  0.51100000000E-03 0. -1.
         11   -1    0    0    0    0 -0.00000000000E+00 -0.00000000000E+00 -0.45593999997E+02  0.45594000000E+02  0.51100000000E-03 0.  1.
    9900012    2    1    2    0    0  0.22830445783E+02  0.16258325363E+00 -0.22259003476E+02  0.59301969772E+02  0.50000046951E+02 0.  0.
        -12    1    1    2    0    0 -0.22830445783E+02 -0.16258325363E+00  0.22259003476E+02  0.31886030228E+02  0.00000000000E+00 0.  1.
         11    1    3    3    0    0  0.52410365828E+01  0.72190484860E+01 -0.51050820984E+00  0.89355326869E+01  0.51100000000E-03 0. -1.
        -11    1    3    3    0    0  0.26577166894E+02 -0.11454703677E+01 -0.27421709177E+02  0.38204816933E+02  0.51100000000E-03 0.  1.
         12    1    3    3    0    0 -0.89877576935E+01 -0.59109948646E+01  0.56732139102E+01  0.12161620152E+02  0.00000000000E+00 0. -1.
</event>
<event>
 7    1  0.1101380E-011  0.5930193E+02  0.7816164E-02  0.1266605E+00
        -11   -1    0    0    0    0  0.00000000000E+00  0.00000000000E+00  0.45593999997E+02  0.45594000000E+02  0.51100000000E-03 0.  1.
         11   -1    0    0    0    0 -0.00000000000E+00 -0.00000000000E+00 -0.45593999997E+02  0.45594000000E+02  0.51100000000E-03 0. -1.
    9900012    2    1    2    0    0  0.18501950157E+02 -0.22102980440E+02  0.13632956320E+02  0.59301930911E+02  0.49999976078E+02 0.  0.
        -12    1    1    2    0    0 -0.18501950157E+02  0.22102980440E+02 -0.13632956320E+02  0.31886069089E+02  0.00000000000E+00 0.  1.
         11    1    3    3    0    0  0.15346835996E+02  0.70488393987E+01  0.14903227202E+02  0.22523714020E+02  0.51100000000E-03 0. -1.
        -11    1    3    3    0    0 -0.19318286417E+01 -0.22136000311E+02  0.84347706907E+01  0.23767200688E+02  0.51100000000E-03 0.  1.
        -12    1    3    3    0    0  0.50869428021E+01 -0.70158195281E+01 -0.97050415722E+01  0.13011016203E+02  0.00000000000E+00 0.  1.
</event>
<event>
 7    1  0.1101380E-011  0.5930187E+02  0.7816164E-02  0.1266605E+00
        -11   -1    0    0    0    0  0.00000000000E+00  0.00000000000E+00  0.45593999997E+02  0.45594000000E+02  0.51100000000E-03 0.  1.
         11   -1    0    0    0    0 -0.00000000000E+00 -0.00000000000E+00 -0.45593999997E+02  0.45594000000E+02  0.51100000000E-03 0. -1.
    9900012    2    1    2    0    0  0.15419599177E+02 -0.96939522471E+01 -0.26172289719E+02  0.59301866680E+02  0.49999858937E+02 0.  0.
        -12    1    1    2    0    0 -0.15419599177E+02  0.96939522471E+01  0.26172289719E+02  0.31886133320E+02  0.00000000000E+00 0.  1.
         11    1    3    3    0    0 -0.74604202480E+01 -0.27146499116E+01  0.68288037252E+01  0.10471855375E+02  0.51100000000E-03 0.  1.
        -11    1    3    3    0    0  0.12554506793E+02 -0.12344407973E+02 -0.46898142032E+01  0.18220713668E+02  0.51100000000E-03 0. -1.
         12    1    3    3    0    0  0.10325512632E+02  0.53651056377E+01 -0.28311279241E+02  0.30609297638E+02  0.00000000000E+00 0. -1.
</event>
<event>
 7    1  0.1101380E-011  0.5930195E+02  0.7816164E-02  0.1266605E+00
        -11   -1    0    0    0    0  0.00000000000E+00  0.00000000000E+00  0.45593999997E+02  0.45594000000E+02  0.51100000000E-03 0.  1.
         11   -1    0    0    0    0 -0.00000000000E+00 -0.00000000000E+00 -0.45593999997E+02  0.45594000000E+02  0.51100000000E-03 0. -1.
    9900012    2    1    2    0    0  0.23272187170E+02  0.24950906358E+01 -0.21654095014E+02  0.59301952835E+02  0.50000016063E+02 0.  0.
        -12    1    1    2    0    0 -0.23272187170E+02 -0.24950906358E+01  0.21654095014E+02  0.31886047165E+02  0.00000000000E+00 0.  1.
         11    1    3    3    0    0  0.94135301468E+01 -0.64602231949E+01 -0.17544604511E+02  0.20932323838E+02  0.51100000000E-03 0. -1.
        -11    1    3    3    0    0  0.16615943264E+01 -0.12778681565E+02 -0.38376711748E+01  0.13445568733E+02  0.51100000000E-03 0.  1.
        -12    1    3    3    0    0  0.12197062697E+02  0.21733995396E+02 -0.27181932817E+00  0.24924060264E+02  0.00000000000E+00 0.  1.
</event>
<event>
 7    1  0.1101380E-011  0.5930195E+02  0.7816164E-02  0.1266605E+00
        -11   -1    0    0    0    0  0.00000000000E+00  0.00000000000E+00  0.45593999997E+02  0.45594000000E+02  0.51100000000E-03 0.  1.
         11   -1    0    0    0    0 -0.00000000000E+00 -0.00000000000E+00 -0.45593999997E+02  0.45594000000E+02  0.51100000000E-03 0. -1.
    9900012    2    1    2    0    0 -0.31504284514E+02 -0.34702194900E+01  0.34867867463E+01  0.59301952144E+02  0.50000014802E+02 0.  0.
        -12    1    1    2    0    0  0.31504284514E+02  0.34702194900E+01 -0.34867867463E+01  0.31886047856E+02  0.00000000000E+00 0.  1.
         11    1    3    3    0    0 -0.33486280541E+01  0.61827401691E+01 -0.96440835207E+01  0.11935155343E+02  0.51100000000E-03 0. -1.
        -11    1    3    3    0    0  0.20760998256E+01  0.94966893735E+01  0.30273141504E+01  0.10181450327E+02  0.51100000000E-03 0.  1.
         12    1    3    3    0    0 -0.30231756286E+02 -0.19149649033E+02  0.10103556117E+02  0.37185346474E+02  0.00000000000E+00 0. -1.
</event>
<event>
 7    1  0.1101380E-011  0.5930192E+02  0.7816164E-02  0.1266605E+00
        -11   -1    0    0    0    0  0.00000000000E+00  0.00000000000E+00  0.45593999997E+02  0.45594000000E+02  0.51100000000E-03 0. -1.
         11   -1    0    0    0    0 -0.00000000000E+00 -0.00000000000E+00 -0.45593999997E+02  0.45594000000E+02  0.51100000000E-03 0.  1.
    9900012    2    1    2    0    0 -0.18475177767E+02  0.20032722882E+02  0.16555364841E+02  0.59301917070E+02  0.49999950835E+02 0.  0.
        -12    1    1    2    0    0  0.18475177767E+02 -0.20032722882E+02 -0.16555364841E+02  0.31886082930E+02  0.00000000000E+00 0.  1.
         11    1    3    3    0    0 -0.49317511163E+01  0.24728296438E+01 -0.54133630699E+00  0.55434737105E+01  0.51100000000E-03 0. -1.
        -11    1    3    3    0    0 -0.21635996668E+02  0.27114574964E+02  0.28714888202E+01  0.34807498841E+02  0.51100000000E-03 0.  1.
        -12    1    3    3    0    0  0.80925700172E+01 -0.95546817250E+01  0.14225212328E+02  0.18950944518E+02  0.00000000000E+00 0.  1.
</event>
<event>
 7    1  0.1101380E-011  0.5930197E+02  0.7816164E-02  0.1266605E+00
        -11   -1    0    0    0    0  0.00000000000E+00  0.00000000000E+00  0.45593999997E+02  0.45594000000E+02  0.51100000000E-03 0. -1.
         11   -1    0    0    0    0 -0.00000000000E+00 -0.00000000000E+00 -0.45593999997E+02  0.45594000000E+02  0.51100000000E-03 0.  1.
    9900012    2    1    2    0    0 -0.29660569320E+02  0.65744165554E+01  0.96822729675E+01  0.59301972727E+02  0.50000052341E+02 0.  0.
        -12    1    1    2    0    0  0.29660569320E+02 -0.65744165554E+01 -0.96822729675E+01  0.31886027273E+02  0.00000000000E+00 0.  1.
         11    1    3    3    0    0 -0.20660940945E+02  0.50333856841E+01  0.27256986833E+02  0.34570981815E+02  0.51100000000E-03 0. -1.
        -11    1    3    3    0    0 -0.35929203046E+00  0.35648023151E+01  0.13501403387E+01  0.38288099332E+01  0.51100000000E-03 0.  1.
         12    1    3    3    0    0 -0.86403363448E+01 -0.20237714439E+01 -0.18924854205E+02  0.20902180979E+02  0.00000000000E+00 0. -1.
</event>
<event>
 7    1  0.1101380E-011  0.5930194E+02  0.7816164E-02  0.1266605E+00
        -11   -1    0    0    0    0  0.00000000000E+00  0.00000000000E+00  0.45593999997E+02  0.45594000000E+02  0.51100000000E-03 0. -1.
         11   -1    0    0    0    0 -0.00000000000E+00 -0.00000000000E+00 -0.45593999997E+02  0.45594000000E+02  0.51100000000E-03 0.  1.
    9900012    2    1    2    0    0 -0.24258241035E+01 -0.20919704990E+02 -0.23941639427E+02  0.59301940697E+02  0.49999993925E+02 0.  0.
        -12    1    1    2    0    0  0.24258241035E+01  0.20919704990E+02  0.23941639427E+02  0.31886059303E+02  0.00000000000E+00 0.  1.
         11    1    3    3    0    0  0.14411380473E+02 -0.64948218439E+01  0.24109826603E+01  0.15990104301E+02  0.51100000000E-03 0. -1.
        -11    1    3    3    0    0  0.27566914314E+01 -0.93435387479E+01 -0.19747055729E+02  0.22019247812E+02  0.51100000000E-03 0.  1.
        -12    1    3    3    0    0 -0.19593896008E+02 -0.50813443984E+01 -0.66055663586E+01  0.21292588583E+02  0.00000000000E+00 0.  1.
</event>
<event>
 7    1  0.1101380E-011  0.5930206E+02  0.7816164E-02  0.1266604E+00
        -11   -1    0    0    0    0  0.00000000000E+00  0.00000000000E+00  0.45593999997E+02  0.45594000000E+02  0.51100000000E-03 0. -1.
         11   -1    0    0    0    0 -0.00000000000E+00 -0.00000000000E+00 -0.45593999997E+02  0.45594000000E+02  0.51100000000E-03 0.  1.
    9900012    2    1    2    0    0 -0.97335598156E+01  0.56224581644E+01  0.29838884969E+02  0.59302058291E+02  0.50000208388E+02 0.  0.
        -12    1    1    2    0    0  0.97335598156E+01 -0.56224581644E+01 -0.29838884969E+02  0.31885941709E+02  0.00000000000E+00 0.  1.
         11    1    3    3    0    0 -0.10721032539E+02  0.10806571723E+02 -0.79587930695E-01  0.15222643188E+02  0.51100000000E-03 0. -1.
        -11    1    3    3    0    0 -0.20344422552E+01 -0.12611701177E+02 -0.33715812773E+00  0.12779187679E+02  0.51100000000E-03 0.  1.
         12    1    3    3    0    0  0.30219149790E+01  0.74275876181E+01  0.30255631027E+02  0.31300227424E+02  0.00000000000E+00 0. -1.
</event>
<event>
 7    1  0.1101380E-011  0.5930199E+02  0.7816164E-02  0.1266605E+00
        -11   -1    0    0    0    0  0.00000000000E+00  0.00000000000E+00  0.45593999997E+02  0.45594000000E+02  0.51100000000E-03 0. -1.
         11   -1    0    0    0    0 -0.00000000000E+00 -0.00000000000E+00 -0.45593999997E+02  0.45594000000E+02  0.51100000000E-03 0.  1.
    9900012    2    1    2    0    0 -0.36857554363E+01  0.23395837496E+02  0.21348713628E+02  0.59301990861E+02  0.50000085412E+02 0.  0.
        -12    1    1    2    0    0  0.36857554363E+01 -0.23395837496E+02 -0.21348713628E+02  0.31886009139E+02  0.00000000000E+00 0.  1.
         11    1    3    3    0    0 -0.14643225984E+02  0.26461002842E+02  0.20161730802E+02  0.36346996132E+02  0.51100000000E-03 0. -1.
        -11    1    3    3    0    0  0.43339993915E+01  0.85311708853E+01  0.40371741526E+00  0.95774430519E+01  0.51100000000E-03 0.  1.
        -12    1    3    3    0    0  0.66234711566E+01 -0.11596336232E+02  0.78326541095E+00  0.13377551677E+02  0.00000000000E+00 0.  1.
</event>
<event>
 7    1  0.1101380E-011  0.5930200E+02  0.7816164E-02  0.1266605E+00
        -11   -1    0    0    0    0  0.00000000000E+00  0.00000000000E+00  0.45593999997E+02  0.45594000000E+02  0.51100000000E-03 0.  1.
         11   -1    0    0    0    0 -0.00000000000E+00 -0.00000000000E+00 -0.45593999997E+02  0.45594000000E+02  0.51100000000E-03 0. -1.
    9900012    2    1    2    0    0 -0.76984154739E+01 -0.30917294917E+02  0.12539435639E+01  0.59301998365E+02  0.50000099098E+02 0.  0.
        -12    1    1    2    0    0  0.76984154739E+01  0.30917294917E+02 -0.12539435639E+01  0.31886001635E+02  0.00000000000E+00 0.  1.
         11    1    3    3    0    0  0.82726084467E+01 -0.34956363513E+00 -0.10217662471E+01  0.83427964000E+01  0.51100000000E-03 0. -1.
        -11    1    3    3    0    0  0.11604264532E+02 -0.15270111628E+02  0.30241701076E+01  0.19415995198E+02  0.51100000000E-03 0.  1.
         12    1    3    3    0    0 -0.27575288452E+02 -0.15297619654E+02 -0.74846029649E+00  0.31543206767E+02  0.00000000000E+00 0. -1.
</event>
<event>
 7    1  0.1101380E-011  0.5930192E+02  0.7816164E-02  0.1266605E+00
        -11   -1    0    0    0    0  0.00000000000E+00  0.00000000000E+00  0.45593999997E+02  0.45594000000E+02  0.51100000000E-03 0.  1.
         11   -1    0    0    0    0 -0.00000000000E+00 -0.00000000000E+00 -0.45593999997E+02  0.45594000000E+02  0.51100000000E-03 0. -1.
    9900012    2    1    2    0    0 -0.12170550767E+02 -0.27336108791E+02 -0.11015299508E+02  0.59301921955E+02  0.49999959746E+02 0.  0.
        -12    1    1    2    0    0  0.12170550767E+02  0.27336108791E+02  0.11015299508E+02  0.31886078045E+02  0.00000000000E+00 0.  1.
         11    1    3    3    0    0 -0.12200028745E+02 -0.24830053684E+02  0.77455690543E+01  0.28729185640E+02  0.51100000000E-03 0. -1.
        -11    1    3    3    0    0  0.11176413911E+02 -0.19921275849E+01 -0.39317160610E+01  0.12014124673E+02  0.51100000000E-03 0.  1.
         12    1    3    3    0    0 -0.11146935933E+02 -0.51392752249E+00 -0.14829152501E+02  0.18558611642E+02  0.00000000000E+00 0. -1.
</event>
<event>
 7    1  0.1101380E-011  0.5930206E+02  0.7816164E-02  0.1266604E+00
        -11   -1    0    0    0    0  0.00000000000E+00  0.00000000000E+00  0.45593999997E+02  0.45594000000E+02  0.51100000000E-03 0. -1.
         11   -1    0    0    0    0 -0.00000000000E+00 -0.00000000000E+00 -0.45593999997E+02  0.45594000000E+02  0.51100000000E-03 0.  1.
    9900012    2    1    2    0    0  0.13457370079E+02  0.28854861101E+02  0.17347701532E+01  0.59302058802E+02  0.50000209320E+02 0.  0.
        -12    1    1    2    0    0 -0.13457370079E+02 -0.28854861101E+02 -0.17347701532E+01  0.31885941198E+02  0.00000000000E+00 0.  1.
         11    1    3    3    0    0 -0.28344177071E+01 -0.27298594988E+01  0.26378554727E+00  0.39440638557E+01  0.51100000000E-03 0. -1.
        -11    1    3    3    0    0  0.14904399382E+02 -0.67479241957E+01  0.42373864853E+01  0.16900622662E+02  0.51100000000E-03 0.  1.
        -12    1    3    3    0    0  0.13873884042E+01  0.38332644796E+02 -0.27664018794E+01  0.38457372284E+02  0.00000000000E+00 0.  1.
</event>
<event>
 7    1  0.1101380E-011  0.5930198E+02  0.7816164E-02  0.1266605E+00
        -11   -1    0    0    0    0  0.00000000000E+00  0.00000000000E+00  0.45593999997E+02  0.45594000000E+02  0.51100000000E-03 0.  1.
         11   -1    0    0    0    0 -0.00000000000E+00 -0.00000000000E+00 -0.45593999997E+02  0.45594000000E+02  0.51100000000E-03 0. -1.
    9900012    2    1    2    0    0 -0.25041936915E+02 -0.16577669789E+02 -0.10714497381E+02  0.59301981211E+02  0.50000067813E+02 0.  0.
        -12    1    1    2    0    0  0.25041936915E+02  0.16577669789E+02  0.10714497381E+02  0.31886018789E+02  0.00000000000E+00 0.  1.
         11    1    3    3    0    0 -0.14857945030E+02 -0.31792915446E+01 -0.14429927118E+02  0.20954455902E+02  0.51100000000E-03 0. -1.
        -11    1    3    3    0    0  0.55541486692E-01  0.87688670562E+01 -0.74419606489E+01  0.11501256143E+02  0.51100000000E-03 0.  1.
         12    1    3    3    0    0 -0.10239533372E+02 -0.22167245301E+02  0.11157390387E+02  0.26846269166E+02  0.00000000000E+00 0. -1.
</event>
<event>
 7    1  0.1101380E-011  0.5930193E+02  0.7816164E-02  0.1266605E+00
        -11   -1    0    0    0    0  0.00000000000E+00  0.00000000000E+00  0.45593999997E+02  0.45594000000E+02  0.51100000000E-03 0.  1.
         11   -1    0    0    0    0 -0.00000000000E+00 -0.00000000000E+00 -0.45593999997E+02  0.45594000000E+02  0.51100000000E-03 0. -1.
    9900012    2    1    2    0    0 -0.27336679781E+02  0.12736390990E+02 -0.10354296529E+02  0.59301934493E+02  0.49999982610E+02 0.  0.
        -12    1    1    2    0    0  0.27336679781E+02 -0.12736390990E+02  0.10354296529E+02  0.31886065507E+02  0.00000000000E+00 0.  1.
         11    1    3    3    0    0 -0.22266987265E+02 -0.93011687858E+01 -0.16821147202E+02  0.29415666847E+02  0.51100000000E-03 0. -1.
        -11    1    3    3    0    0  0.12696717321E+01  0.23227880395E+01 -0.54030983173E+01  0.60167169014E+01  0.51100000000E-03 0.  1.
        -12    1    3    3    0    0 -0.63393642490E+01  0.19714771736E+02  0.11869948990E+02  0.23869550744E+02  0.00000000000E+00 0.  1.
</event>
<event>
 7    1  0.1101380E-011  0.5930196E+02  0.7816164E-02  0.1266605E+00
        -11   -1    0    0    0    0  0.00000000000E+00  0.00000000000E+00  0.45593999997E+02  0.45594000000E+02  0.51100000000E-03 0.  1.
         11   -1    0    0    0    0 -0.00000000000E+00 -0.00000000000E+00 -0.45593999997E+02  0.45594000000E+02  0.51100000000E-03 0. -1.
    9900012    2    1    2    0    0 -0.41279685106E+01  0.15019489942E+02 -0.27822549049E+02  0.59301961712E+02  0.50000032251E+02 0.  0.
        -12    1    1    2    0    0  0.41279685106E+01 -0.15019489942E+02  0.27822549049E+02  0.31886038288E+02  0.00000000000E+00 0.  1.
         11    1    3    3    0    0 -0.10739187783E+02  0.11194661101E+02 -0.80772187197E+01  0.17489769979E+02  0.51100000000E-03 0. -1.
        -11    1    3    3    0    0 -0.92489497683E+01 -0.75118182035E+01  0.25609986591E+01  0.12187255595E+02  0.51100000000E-03 0.  1.
        -12    1    3    3    0    0  0.15860169041E+02  0.11336647045E+02 -0.22306328989E+02  0.29624936138E+02  0.00000000000E+00 0.  1.
</event>
<event>
 7    1  0.1101380E-011  0.5930201E+02  0.7816164E-02  0.1266605E+00
        -11   -1    0    0    0    0  0.00000000000E+00  0.00000000000E+00  0.45593999997E+02  0.45594000000E+02  0.51100000000E-03 0.  1.
         11   -1    0    0    0    0 -0.00000000000E+00 -0.00000000000E+00 -0.45593999997E+02  0.45594000000E+02  0.51100000000E-03 0. -1.
    9900012    2    1    2    0    0 -0.15128661102E+02 -0.62210270726E+01 -0.27370394935E+02  0.59302014309E+02  0.50000128177E+02 0.  0.
        -12    1    1    2    0    0  0.15128661102E+02  0.62210270726E+01  0.27370394935E+02  0.31885985691E+02  0.00000000000E+00 0.  1.
         11    1    3    3    0    0 -0.77454544342E+01 -0.35208240662E+01  0.59281544798E+01  0.10369729133E+02  0.51100000000E-03 0. -1.
        -11    1    3    3    0    0 -0.72523334998E+01 -0.14664081970E+02 -0.33729792217E+01  0.16703551428E+02  0.51100000000E-03 0.  1.
        -12    1    3    3    0    0 -0.13087316779E+00  0.11963878964E+02 -0.29925570193E+02  0.32228733748E+02  0.00000000000E+00 0.  1.
</event>
<event>
 7    1  0.1101380E-011  0.5930205E+02  0.7816164E-02  0.1266604E+00
        -11   -1    0    0    0    0  0.00000000000E+00  0.00000000000E+00  0.45593999997E+02  0.45594000000E+02  0.51100000000E-03 0.  1.
         11   -1    0    0    0    0 -0.00000000000E+00 -0.00000000000E+00 -0.45593999997E+02  0.45594000000E+02  0.51100000000E-03 0. -1.
    9900012    2    1    2    0    0  0.13936345901E+02 -0.32125161789E+01 -0.28498628883E+02  0.59302049402E+02  0.50000192178E+02 0.  0.
        -12    1    1    2    0    0 -0.13936345901E+02  0.32125161789E+01  0.28498628883E+02  0.31885950598E+02  0.00000000000E+00 0.  1.
         11    1    3    3    0    0  0.13065899713E+02 -0.67418572475E+01 -0.60079732357E+01  0.15882887556E+02  0.51100000000E-03 0. -1.
        -11    1    3    3    0    0  0.53322346944E+01 -0.82289282427E+01  0.65366425468E+01  0.11784552724E+02  0.51100000000E-03 0.  1.
        -12    1    3    3    0    0 -0.44617885060E+01  0.11758269311E+02 -0.29027298194E+02  0.31634609123E+02  0.00000000000E+00 0.  1.
</event>
<event>
 7    1  0.1101380E-011  0.5930232E+02  0.7816164E-02  0.1266603E+00
        -11   -1    0    0    0    0  0.00000000000E+00  0.00000000000E+00  0.45593999997E+02  0.45594000000E+02  0.51100000000E-03 0. -1.
         11   -1    0    0    0    0 -0.00000000000E+00 -0.00000000000E+00 -0.45593999997E+02  0.45594000000E+02  0.51100000000E-03 0.  1.
    9900012    2    1    2    0    0  0.22507034061E+02 -0.21121847496E+02  0.79998674845E+01  0.59302315068E+02  0.50000676683E+02 0.  0.
        -12    1    1    2    0    0 -0.22507034061E+02  0.21121847496E+02 -0.79998674845E+01  0.31885684932E+02  0.00000000000E+00 0.  1.
         11    1    3    3    0    0  0.74499366907E+00  0.81889602168E+01  0.93168409406E+00  0.82753924687E+01  0.51100000000E-03 0. -1.
        -11    1    3    3    0    0  0.10303810291E+02  0.49117713166E+01 -0.56824991403E+01  0.12750874508E+02  0.51100000000E-03 0.  1.
         12    1    3    3    0    0  0.11458230100E+02 -0.34222579029E+02  0.12750682531E+02  0.38276048090E+02  0.00000000000E+00 0. -1.
</event>
<event>
 7    1  0.1101380E-011  0.5930194E+02  0.7816164E-02  0.1266605E+00
        -11   -1    0    0    0    0  0.00000000000E+00  0.00000000000E+00  0.45593999997E+02  0.45594000000E+02  0.51100000000E-03 0. -1.
         11   -1    0    0    0    0 -0.00000000000E+00 -0.00000000000E+00 -0.45593999997E+02  0.45594000000E+02  0.51100000000E-03 0.  1.
    9900012    2    1    2    0    0 -0.30557656994E+02  0.90058074630E+01  0.13587174659E+01  0.59301935926E+02  0.49999985224E+02 0.  0.
        -12    1    1    2    0    0  0.30557656994E+02 -0.90058074630E+01 -0.13587174659E+01  0.31886064074E+02  0.00000000000E+00 0.  1.
         11    1    3    3    0    0 -0.37100986875E+01 -0.50849455595E+01  0.14592828721E+02  0.15892518805E+02  0.51100000000E-03 0. -1.
        -11    1    3    3    0    0 -0.12214204853E+02 -0.72126164944E+01  0.39622701118E+00  0.14190335901E+02  0.51100000000E-03 0.  1.
         12    1    3    3    0    0 -0.14633353453E+02  0.21303369517E+02 -0.13630338266E+02  0.29219081220E+02  0.00000000000E+00 0. -1.
</event>
<event>
 7    1  0.1101380E-011  0.5930197E+02  0.7816164E-02  0.1266605E+00
        -11   -1    0    0    0    0  0.00000000000E+00  0.00000000000E+00  0.45593999997E+02  0.45594000000E+02  0.51100000000E-03 0.  1.
         11   -1    0    0    0    0 -0.00000000000E+00 -0.00000000000E+00 -0.45593999997E+02  0.45594000000E+02  0.51100000000E-03 0. -1.
    9900012    2    1    2    0    0  0.21773586514E+01 -0.21565609378E+02 -0.23385944775E+02  0.59301971530E+02  0.50000050158E+02 0.  0.
        -12    1    1    2    0    0 -0.21773586514E+01  0.21565609378E+02  0.23385944775E+02  0.31886028470E+02  0.00000000000E+00 0.  1.
         11    1    3    3    0    0  0.34100188034E+01 -0.30142568811E+01  0.63845874310E+01  0.78407225247E+01  0.51100000000E-03 0. -1.
        -11    1    3    3    0    0 -0.96798552991E+01 -0.27784830403E+02 -0.21886617632E+02  0.36670429923E+02  0.51100000000E-03 0.  1.
        -12    1    3    3    0    0  0.84471951471E+01  0.92334779064E+01 -0.78839145745E+01  0.14790819082E+02  0.00000000000E+00 0.  1.
</event>
<event>
 7    1  0.1101380E-011  0.5930188E+02  0.7816164E-02  0.1266605E+00
        -11   -1    0    0    0    0  0.00000000000E+00  0.00000000000E+00  0.45593999997E+02  0.45594000000E+02  0.51100000000E-03 0.  1.
         11   -1    0    0    0    0 -0.00000000000E+00 -0.00000000000E+00 -0.45593999997E+02  0.45594000000E+02  0.51100000000E-03 0. -1.
    9900012    2    1    2    0    0  0.96978113968E+01 -0.21970737581E+02 -0.20975318747E+02  0.59301876807E+02  0.49999877405E+02 0.  0.
        -12    1    1    2    0    0 -0.96978113968E+01  0.21970737581E+02  0.20975318747E+02  0.31886123193E+02  0.00000000000E+00 0.  1.
         11    1    3    3    0    0  0.37777316639E+01 -0.50129231725E+01 -0.66681645339E+01  0.91577876023E+01  0.51100000000E-03 0. -1.
        -11    1    3    3    0    0  0.24059744123E+02 -0.17984827622E+01 -0.99886540756E+01  0.26112813675E+02  0.51100000000E-03 0.  1.
         12    1    3    3    0    0 -0.18139664390E+02 -0.15159331646E+02 -0.43185001378E+01  0.24031275530E+02  0.00000000000E+00 0. -1.
</event>
<event>
 7    1  0.1101380E-011  0.5930194E+02  0.7816164E-02  0.1266605E+00
        -11   -1    0    0    0    0  0.00000000000E+00  0.00000000000E+00  0.45593999997E+02  0.45594000000E+02  0.51100000000E-03 0.  1.
         11   -1    0    0    0    0 -0.00000000000E+00 -0.00000000000E+00 -0.45593999997E+02  0.45594000000E+02  0.51100000000E-03 0. -1.
    9900012    2    1    2    0    0  0.29047955080E+02  0.12813068245E+02 -0.29601591605E+01  0.59301937928E+02  0.49999988876E+02 0.  0.
        -12    1    1    2    0    0 -0.29047955080E+02 -0.12813068245E+02  0.29601591605E+01  0.31886062072E+02  0.00000000000E+00 0.  1.
         11    1    3    3    0    0  0.68355969747E+01 -0.14484856502E+01 -0.85205786190E+01  0.11019244845E+02  0.51100000000E-03 0. -1.
        -11    1    3    3    0    0  0.26195320607E+02 -0.56154372916E+01  0.77597889973E+01  0.27891616719E+02  0.51100000000E-03 0.  1.
         12    1    3    3    0    0 -0.39829625017E+01  0.19876991187E+02 -0.21993695388E+01  0.20391076365E+02  0.00000000000E+00 0. -1.
</event>
<event>
 7    1  0.1101380E-011  0.5930189E+02  0.7816164E-02  0.1266605E+00
        -11   -1    0    0    0    0  0.00000000000E+00  0.00000000000E+00  0.45593999997E+02  0.45594000000E+02  0.51100000000E-03 0. -1.
         11   -1    0    0    0    0 -0.00000000000E+00 -0.00000000000E+00 -0.45593999997E+02  0.45594000000E+02  0.51100000000E-03 0.  1.
    9900012    2    1    2    0    0 -0.25260182263E+01  0.10718854971E+02  0.29924057473E+02  0.59301892749E+02  0.49999906479E+02 0.  0.
        -12    1    1    2    0    0  0.25260182263E+01 -0.10718854971E+02 -0.29924057473E+02  0.31886107251E+02  0.00000000000E+00 0.  1.
         11    1    3    3    0    0 -0.22758065955E+01 -0.25816049190E+00  0.92881217034E+01  0.95663549766E+01  0.51100000000E-03 0. -1.
        -11    1    3    3    0    0 -0.15616762580E+02  0.17409012801E+02  0.23128150388E+02  0.32891767068E+02  0.51100000000E-03 0.  1.
         12    1    3    3    0    0  0.15366550950E+02 -0.64319973381E+01 -0.24922146181E+01  0.16843770704E+02  0.00000000000E+00 0. -1.
</event>
<event>
 7    1  0.1101380E-011  0.5930196E+02  0.7816164E-02  0.1266605E+00
        -11   -1    0    0    0    0  0.00000000000E+00  0.00000000000E+00  0.45593999997E+02  0.45594000000E+02  0.51100000000E-03 0.  1.
         11   -1    0    0    0    0 -0.00000000000E+00 -0.00000000000E+00 -0.45593999997E+02  0.45594000000E+02  0.51100000000E-03 0. -1.
    9900012    2    1    2    0    0  0.29590721669E+02  0.94211631462E+01 -0.72353670325E+01  0.59301958226E+02  0.50000025895E+02 0.  0.
        -12    1    1    2    0    0 -0.29590721669E+02 -0.94211631462E+01  0.72353670325E+01  0.31886041774E+02  0.00000000000E+00 0.  1.
         11    1    3    3    0    0  0.31401370429E+02  0.45778639813E+01 -0.14689844496E+02  0.34968477734E+02  0.51100000000E-03 0. -1.
        -11    1    3    3    0    0  0.11461494337E+01 -0.55707674230E+01 -0.51818048623E+01  0.76940373081E+01  0.51100000000E-03 0.  1.
        -12    1    3    3    0    0 -0.29567981943E+01  0.10414066588E+02  0.12636282326E+02  0.16639443184E+02  0.00000000000E+00 0.  1.
</event>
<event>
 7    1  0.1101380E-011  0.5930194E+02  0.7816164E-02  0.1266605E+00
        -11   -1    0    0    0    0  0.00000000000E+00  0.00000000000E+00  0.45593999997E+02  0.45594000000E+02  0.51100000000E-03 0.  1.
         11   -1    0    0    0    0 -0.00000000000E+00 -0.00000000000E+00 -0.45593999997E+02  0.45594000000E+02  0.51100000000E-03 0. -1.
    9900012    2    1    2    0    0  0.18271918266E+02  0.26978428935E+01 -0.25991911863E+02  0.59301939790E+02  0.49999992271E+02 0.  0.
        -12    1    1    2    0    0 -0.18271918266E+02 -0.26978428935E+01  0.25991911863E+02  0.31886060210E+02  0.00000000000E+00 0.  1.
         11    1    3    3    0    0 -0.11545543188E+02  0.26412976036E+01 -0.16444850614E+02  0.20265959945E+02  0.51100000000E-03 0. -1.
        -11    1    3    3    0    0 -0.22794238022E+01 -0.31182382734E+01  0.25056376626E+01  0.46040637656E+01  0.51100000000E-03 0.  1.
        -12    1    3    3    0    0  0.32096885256E+02  0.31747835633E+01 -0.12052698912E+02  0.34431916079E+02  0.00000000000E+00 0.  1.
</event>
<event>
 7    1  0.1101380E-011  0.5930199E+02  0.7816164E-02  0.1266605E+00
        -11   -1    0    0    0    0  0.00000000000E+00  0.00000000000E+00  0.45593999997E+02  0.45594000000E+02  0.51100000000E-03 0. -1.
         11   -1    0    0    0    0 -0.00000000000E+00 -0.00000000000E+00 -0.45593999997E+02  0.45594000000E+02  0.51100000000E-03 0.  1.
    9900012    2    1    2    0    0 -0.19061923233E+02  0.25055494562E+02  0.50579593175E+01  0.59301989313E+02  0.50000082589E+02 0.  0.
        -12    1    1    2    0    0  0.19061923233E+02 -0.25055494562E+02 -0.50579593175E+01  0.31886010687E+02  0.00000000000E+00 0.  1.
         11    1    3    3    0    0 -0.11000808029E+02 -0.25811927003E+01 -0.14622459576E+02  0.18479628172E+02  0.51100000000E-03 0. -1.
        -11    1    3    3    0    0 -0.32565214557E+01  0.12614803528E+02 -0.28344058400E+01  0.13333118793E+02  0.51100000000E-03 0.  1.
         12    1    3    3    0    0 -0.48045937484E+01  0.15021883735E+02  0.22514824734E+02  0.27489242347E+02  0.00000000000E+00 0. -1.
</event>
<event>
 7    1  0.1101380E-011  0.5930192E+02  0.7816164E-02  0.1266605E+00
        -11   -1    0    0    0    0  0.00000000000E+00  0.00000000000E+00  0.45593999997E+02  0.45594000000E+02  0.51100000000E-03 0.  1.
         11   -1    0    0    0    0 -0.00000000000E+00 -0.00000000000E+00 -0.45593999997E+02  0.45594000000E+02  0.51100000000E-03 0. -1.
    9900012    2    1    2    0    0  0.24580101876E+02  0.12106836746E+02 -0.16308440848E+02  0.59301919226E+02  0.49999954768E+02 0.  0.
        -12    1    1    2    0    0 -0.24580101876E+02 -0.12106836746E+02  0.16308440848E+02  0.31886080774E+02  0.00000000000E+00 0.  1.
         11    1    3    3    0    0  0.50564772237E+01  0.43110776078E+01 -0.31882978025E+01  0.73701150054E+01  0.51100000000E-03 0. -1.
        -11    1    3    3    0    0  0.73013452526E+01  0.89009848010E+01 -0.29383168579E+02  0.31558006416E+02  0.51100000000E-03 0.  1.
        -12    1    3    3    0    0  0.12222279400E+02 -0.11052256632E+01  0.16263025533E+02  0.20373797805E+02  0.00000000000E+00 0.  1.
</event>
<event>
 7    1  0.1101380E-011  0.5930182E+02  0.7816164E-02  0.1266605E+00
        -11   -1    0    0    0    0  0.00000000000E+00  0.00000000000E+00  0.45593999997E+02  0.45594000000E+02  0.51100000000E-03 0. -1.
         11   -1    0    0    0    0 -0.00000000000E+00 -0.00000000000E+00 -0.45593999997E+02  0.45594000000E+02  0.51100000000E-03 0.  1.
    9900012    2    1    2    0    0  0.13214692695E+01  0.28309798565E+02  0.14612916038E+02  0.59301822886E+02  0.49999779066E+02 0.  0.
        -12    1    1    2    0    0 -0.13214692695E+01 -0.28309798565E+02 -0.14612916038E+02  0.31886177114E+02  0.00000000000E+00 0.  1.
         11    1    3    3    0    0 -0.47441127333E+01  0.16773174619E+02  0.24147128931E+02  0.29781367133E+02  0.51100000000E-03 0. -1.
        -11    1    3    3    0    0  0.12919359321E+02  0.11594233424E+02  0.50298882850E+00  0.17366320623E+02  0.51100000000E-03 0.  1.
        -12    1    3    3    0    0 -0.68537773179E+01 -0.57609478616E-01 -0.10037201721E+02  0.12154135130E+02  0.00000000000E+00 0.  1.
</event>
<event>
 7    1  0.1101380E-011  0.5930201E+02  0.7816164E-02  0.1266605E+00
        -11   -1    0    0    0    0  0.00000000000E+00  0.00000000000E+00  0.45593999997E+02  0.45594000000E+02  0.51100000000E-03 0. -1.
         11   -1    0    0    0    0 -0.00000000000E+00 -0.00000000000E+00 -0.45593999997E+02  0.45594000000E+02  0.51100000000E-03 0.  1.
    9900012    2    1    2    0    0 -0.18710406627E+02 -0.79274217771E+01  0.24572201670E+02  0.59302008921E+02  0.50000118349E+02 0.  0.
        -12    1    1    2    0    0  0.18710406627E+02  0.79274217771E+01 -0.24572201670E+02  0.31885991079E+02  0.00000000000E+00 0.  1.
         11    1    3    3    0    0 -0.10003074661E+02 -0.11246989008E+01  0.84389169311E+01  0.13135515579E+02  0.51100000000E-03 0. -1.
        -11    1    3    3    0    0 -0.14700806192E+02 -0.19201733385E+01 -0.10672969402E+02  0.18267814442E+02  0.51100000000E-03 0.  1.
         12    1    3    3    0    0  0.59934742259E+01 -0.48825495378E+01  0.26806254141E+02  0.27898678900E+02  0.00000000000E+00 0. -1.
</event>
<event>
 7    1  0.1101380E-011  0.5930193E+02  0.7816164E-02  0.1266605E+00
        -11   -1    0    0    0    0  0.00000000000E+00  0.00000000000E+00  0.45593999997E+02  0.45594000000E+02  0.51100000000E-03 0.  1.
         11   -1    0    0    0    0 -0.00000000000E+00 -0.00000000000E+00 -0.45593999997E+02  0.45594000000E+02  0.51100000000E-03 0. -1.
    9900012    2    1    2    0    0 -0.19300917121E+02  0.25130260522E+02 -0.35589349774E+01  0.59301930725E+02  0.49999975740E+02 0.  0.
        -12    1    1    2    0    0  0.19300917121E+02 -0.25130260522E+02  0.35589349774E+01  0.31886069275E+02  0.00000000000E+00 0.  1.
         11    1    3    3    0    0 -0.14661057010E+01 -0.10714825716E+02 -0.13901487479E+02  0.17612731487E+02  0.51100000000E-03 0.  1.
        -11    1    3    3    0    0 -0.89125036388E+01  0.12165548753E+02  0.39403957459E+01  0.15587174743E+02  0.51100000000E-03 0. -1.
        -12    1    3    3    0    0 -0.89223077816E+01  0.23679537485E+02  0.64021567555E+01  0.26102024495E+02  0.00000000000E+00 0.  1.
</event>
<event>
 7    1  0.1101380E-011  0.5930197E+02  0.7816164E-02  0.1266605E+00
        -11   -1    0    0    0    0  0.00000000000E+00  0.00000000000E+00  0.45593999997E+02  0.45594000000E+02  0.51100000000E-03 0. -1.
         11   -1    0    0    0    0 -0.00000000000E+00 -0.00000000000E+00 -0.45593999997E+02  0.45594000000E+02  0.51100000000E-03 0.  1.
    9900012    2    1    2    0    0 -0.26269810800E+02 -0.13558900861E+02  0.11948724905E+02  0.59301972043E+02  0.50000051093E+02 0.  0.
        -12    1    1    2    0    0  0.26269810800E+02  0.13558900861E+02 -0.11948724905E+02  0.31886027957E+02  0.00000000000E+00 0.  1.
         11    1    3    3    0    0  0.88790339688E+01 -0.13045692212E+01 -0.33289467721E+01  0.95718875852E+01  0.51100000000E-03 0. -1.
        -11    1    3    3    0    0 -0.24611934638E+02 -0.87355374842E+01 -0.50171653360E+01  0.26593775400E+02  0.51100000000E-03 0.  1.
         12    1    3    3    0    0 -0.10536910130E+02 -0.35187941558E+01  0.20294837013E+02  0.23136309058E+02  0.00000000000E+00 0. -1.
</event>
<event>
 7    1  0.1101380E-011  0.5930197E+02  0.7816164E-02  0.1266605E+00
        -11   -1    0    0    0    0  0.00000000000E+00  0.00000000000E+00  0.45593999997E+02  0.45594000000E+02  0.51100000000E-03 0.  1.
         11   -1    0    0    0    0 -0.00000000000E+00 -0.00000000000E+00 -0.45593999997E+02  0.45594000000E+02  0.51100000000E-03 0. -1.
    9900012    2    1    2    0    0 -0.27688941108E+02  0.11958655473E+02 -0.10345636953E+02  0.59301966939E+02  0.50000041785E+02 0.  0.
        -12    1    1    2    0    0  0.27688941108E+02 -0.11958655473E+02  0.10345636953E+02  0.31886033061E+02  0.00000000000E+00 0.  1.
         11    1    3    3    0    0 -0.22910553748E+02 -0.38007445224E+01 -0.97579347675E+01  0.25190403394E+02  0.51100000000E-03 0. -1.
        -11    1    3    3    0    0 -0.29168645742E+01 -0.70124431526E+01 -0.70550053321E+01  0.10366077291E+02  0.51100000000E-03 0.  1.
        -12    1    3    3    0    0 -0.18615227851E+01  0.22771843148E+02  0.64673031465E+01  0.23745486254E+02  0.00000000000E+00 0.  1.
</event>
<event>
 7    1  0.1101380E-011  0.5930196E+02  0.7816164E-02  0.1266605E+00
        -11   -1    0    0    0    0  0.00000000000E+00  0.00000000000E+00  0.45593999997E+02  0.45594000000E+02  0.51100000000E-03 0. -1.
         11   -1    0    0    0    0 -0.00000000000E+00 -0.00000000000E+00 -0.45593999997E+02  0.45594000000E+02  0.51100000000E-03 0.  1.
    9900012    2    1    2    0    0 -0.77798790224E+01  0.29497245472E+02  0.92792946172E+01  0.59301963611E+02  0.50000035715E+02 0.  0.
        -12    1    1    2    0    0  0.77798790224E+01 -0.29497245472E+02 -0.92792946172E+01  0.31886036389E+02  0.00000000000E+00 0.  1.
         11    1    3    3    0    0 -0.77353788769E+01  0.60231537311E+01 -0.36532656286E+01  0.10462352377E+02  0.51100000000E-03 0. -1.
        -11    1    3    3    0    0 -0.18383524727E+02  0.22037331396E+01  0.86288124407E+01  0.20427110063E+02  0.51100000000E-03 0.  1.
         12    1    3    3    0    0  0.18339024581E+02  0.21270358601E+02  0.43037478051E+01  0.28412501171E+02  0.00000000000E+00 0. -1.
</event>
<event>
 7    1  0.1101380E-011  0.5930195E+02  0.7816164E-02  0.1266605E+00
        -11   -1    0    0    0    0  0.00000000000E+00  0.00000000000E+00  0.45593999997E+02  0.45594000000E+02  0.51100000000E-03 0.  1.
         11   -1    0    0    0    0 -0.00000000000E+00 -0.00000000000E+00 -0.45593999997E+02  0.45594000000E+02  0.51100000000E-03 0. -1.
    9900012    2    1    2    0    0  0.66366326390E+01 -0.31186954637E+02 -0.22127018556E+00  0.59301953007E+02  0.50000016376E+02 0.  0.
        -12    1    1    2    0    0 -0.66366326390E+01  0.31186954637E+02  0.22127018556E+00  0.31886046993E+02  0.00000000000E+00 0.  1.
         11    1    3    3    0    0 -0.69973952776E+01 -0.17729280370E+02  0.68830525321E+01  0.20264928708E+02  0.51100000000E-03 0. -1.
        -11    1    3    3    0    0 -0.70829772827E+01 -0.15735725873E+02 -0.55943642228E+01  0.18140522243E+02  0.51100000000E-03 0.  1.
        -12    1    3    3    0    0  0.20717005199E+02  0.22780516054E+01 -0.15099584948E+01  0.20896502057E+02  0.00000000000E+00 0.  1.
</event>
<event>
 7    1  0.1101380E-011  0.5930192E+02  0.7816164E-02  0.1266605E+00
        -11   -1    0    0    0    0  0.00000000000E+00  0.00000000000E+00  0.45593999997E+02  0.45594000000E+02  0.51100000000E-03 0.  1.
         11   -1    0    0    0    0 -0.00000000000E+00 -0.00000000000E+00 -0.45593999997E+02  0.45594000000E+02  0.51100000000E-03 0. -1.
    9900012    2    1    2    0    0 -0.27778394900E+02  0.57298199150E+01 -0.14568864931E+02  0.59301923339E+02  0.49999962269E+02 0.  0.
        -12    1    1    2    0    0  0.27778394900E+02 -0.57298199150E+01  0.14568864931E+02  0.31886076661E+02  0.00000000000E+00 0.  1.
         11    1    3    3    0    0 -0.14485081032E+02  0.18631714070E+02 -0.21584422005E+02  0.31981957652E+02  0.51100000000E-03 0. -1.
        -11    1    3    3    0    0 -0.74995429433E+00  0.46699893725E+01  0.43473802448E+00  0.47497610039E+01  0.51100000000E-03 0.  1.
         12    1    3    3    0    0 -0.12543359573E+02 -0.17571883527E+02  0.65808190501E+01  0.22570204684E+02  0.00000000000E+00 0. -1.
</event>
<event>
 7    1  0.1101380E-011  0.5930194E+02  0.7816164E-02  0.1266605E+00
        -11   -1    0    0    0    0  0.00000000000E+00  0.00000000000E+00  0.45593999997E+02  0.45594000000E+02  0.51100000000E-03 0.  1.
         11   -1    0    0    0    0 -0.00000000000E+00 -0.00000000000E+00 -0.45593999997E+02  0.45594000000E+02  0.51100000000E-03 0. -1.
    9900012    2    1    2    0    0 -0.10294430115E+02 -0.49964456197E+01 -0.29762077774E+02  0.59301936686E+02  0.49999986611E+02 0.  0.
        -12    1    1    2    0    0  0.10294430115E+02  0.49964456197E+01  0.29762077774E+02  0.31886063314E+02  0.00000000000E+00 0.  1.
         11    1    3    3    0    0 -0.13935702588E+02  0.25572317871E+01 -0.21778385630E+02  0.25981557343E+02  0.51100000000E-03 0. -1.
        -11    1    3    3    0    0 -0.12017085760E+02 -0.99605515942E+01 -0.63367932542E-01  0.15608553872E+02  0.51100000000E-03 0.  1.
        -12    1    3    3    0    0  0.15658358233E+02  0.24068741874E+01 -0.79203242113E+01  0.17711825471E+02  0.00000000000E+00 0.  1.
</event>
<event>
 7    1  0.1101380E-011  0.5930192E+02  0.7816164E-02  0.1266605E+00
        -11   -1    0    0    0    0  0.00000000000E+00  0.00000000000E+00  0.45593999997E+02  0.45594000000E+02  0.51100000000E-03 0. -1.
         11   -1    0    0    0    0 -0.00000000000E+00 -0.00000000000E+00 -0.45593999997E+02  0.45594000000E+02  0.51100000000E-03 0.  1.
    9900012    2    1    2    0    0  0.23415315278E+02  0.95238112599E+00  0.21622628998E+02  0.59301919900E+02  0.49999955996E+02 0.  0.
        -12    1    1    2    0    0 -0.23415315278E+02 -0.95238112599E+00 -0.21622628998E+02  0.31886080100E+02  0.00000000000E+00 0.  1.
         11    1    3    3    0    0 -0.23805430255E+01  0.69212713506E+00 -0.37396440892E+01  0.44867541990E+01  0.51100000000E-03 0. -1.
        -11    1    3    3    0    0  0.10647941929E+02  0.19114138604E+02  0.33930607430E+01  0.22141405180E+02  0.51100000000E-03 0.  1.
         12    1    3    3    0    0  0.15147916375E+02 -0.18853884613E+02  0.21969212344E+02  0.32673760520E+02  0.00000000000E+00 0. -1.
</event>
<event>
 7    1  0.1101380E-011  0.5930187E+02  0.7816164E-02  0.1266605E+00
        -11   -1    0    0    0    0  0.00000000000E+00  0.00000000000E+00  0.45593999997E+02  0.45594000000E+02  0.51100000000E-03 0.  1.
         11   -1    0    0    0    0 -0.00000000000E+00 -0.00000000000E+00 -0.45593999997E+02  0.45594000000E+02  0.51100000000E-03 0. -1.
    9900012    2    1    2    0    0 -0.10700486377E+02 -0.28851329591E+02 -0.83561612909E+01  0.59301873559E+02  0.49999871483E+02 0.  0.
        -12    1    1    2    0    0  0.10700486377E+02  0.28851329591E+02  0.83561612909E+01  0.31886126441E+02  0.00000000000E+00 0.  1.
         11    1    3    3    0    0  0.39922625366E+01 -0.61579779913E+01  0.29974114239E+01  0.79273784196E+01  0.51100000000E-03 0. -1.
        -11    1    3    3    0    0 -0.21125541479E+02 -0.31414873740E+02 -0.35570205914E+01  0.38024139577E+02  0.51100000000E-03 0.  1.
        -12    1    3    3    0    0  0.64327925651E+01  0.87215221403E+01 -0.77965521235E+01  0.13350355562E+02  0.00000000000E+00 0.  1.
</event>
<event>
 7    1  0.1101380E-011  0.5930197E+02  0.7816164E-02  0.1266605E+00
        -11   -1    0    0    0    0  0.00000000000E+00  0.00000000000E+00  0.45593999997E+02  0.45594000000E+02  0.51100000000E-03 0. -1.
         11   -1    0    0    0    0 -0.00000000000E+00 -0.00000000000E+00 -0.45593999997E+02  0.45594000000E+02  0.51100000000E-03 0.  1.
    9900012    2    1    2    0    0 -0.26512560998E+02  0.17631832869E+02 -0.17091877763E+01  0.59301972593E+02  0.50000052095E+02 0.  0.
        -12    1    1    2    0    0  0.26512560998E+02 -0.17631832869E+02  0.17091877763E+01  0.31886027407E+02  0.00000000000E+00 0.  1.
         11    1    3    3    0    0  0.19232635506E+01 -0.50354401339E+00 -0.50244875160E+01  0.54035149966E+01  0.51100000000E-03 0.  1.
        -11    1    3    3    0    0 -0.25563745518E+02  0.21614104825E+01 -0.14766379050E+02  0.29601059621E+02  0.51100000000E-03 0. -1.
        -12    1    3    3    0    0 -0.28720790301E+01  0.15973966400E+02  0.18081678790E+02  0.24297397975E+02  0.00000000000E+00 0.  1.
</event>
<event>
 7    1  0.1101380E-011  0.5930197E+02  0.7816164E-02  0.1266605E+00
        -11   -1    0    0    0    0  0.00000000000E+00  0.00000000000E+00  0.45593999997E+02  0.45594000000E+02  0.51100000000E-03 0.  1.
         11   -1    0    0    0    0 -0.00000000000E+00 -0.00000000000E+00 -0.45593999997E+02  0.45594000000E+02  0.51100000000E-03 0. -1.
    9900012    2    1    2    0    0  0.15589947031E+02 -0.16857341280E+02 -0.22124709551E+02  0.59301965813E+02  0.50000039731E+02 0.  0.
        -12    1    1    2    0    0 -0.15589947031E+02  0.16857341280E+02  0.22124709551E+02  0.31886034187E+02  0.00000000000E+00 0.  1.
         11    1    3    3    0    0  0.50726016004E+01  0.13951971456E+02 -0.30196188300E+01  0.15149484897E+02  0.51100000000E-03 0. -1.
        -11    1    3    3    0    0  0.32668924976E+01 -0.45875859328E+01  0.52042881567E+01  0.76683209871E+01  0.51100000000E-03 0.  1.
         12    1    3    3    0    0  0.72504529332E+01 -0.26221726803E+02 -0.24309378878E+02  0.36484159929E+02  0.00000000000E+00 0. -1.
</event>
<event>
 7    1  0.1101380E-011  0.5930193E+02  0.7816164E-02  0.1266605E+00
        -11   -1    0    0    0    0  0.00000000000E+00  0.00000000000E+00  0.45593999997E+02  0.45594000000E+02  0.51100000000E-03 0. -1.
         11   -1    0    0    0    0 -0.00000000000E+00 -0.00000000000E+00 -0.45593999997E+02  0.45594000000E+02  0.51100000000E-03 0.  1.
    9900012    2    1    2    0    0  0.20188443218E+02  0.24391148011E+02  0.37709234236E+01  0.59301934010E+02  0.49999981730E+02 0.  0.
        -12    1    1    2    0    0 -0.20188443218E+02 -0.24391148011E+02 -0.37709234236E+01  0.31886065990E+02  0.00000000000E+00 0.  1.
         11    1    3    3    0    0  0.46636073153E+01  0.22185524387E+02  0.24682973833E+01  0.22804368391E+02  0.51100000000E-03 0. -1.
        -11    1    3    3    0    0 -0.26501260245E+01  0.12385747200E+02  0.75544464788E+01  0.14747866405E+02  0.51100000000E-03 0.  1.
         12    1    3    3    0    0  0.18174961927E+02 -0.10180123575E+02 -0.62518204385E+01  0.21749699213E+02  0.00000000000E+00 0. -1.
</event>
<event>
 7    1  0.1101380E-011  0.5930194E+02  0.7816164E-02  0.1266605E+00
        -11   -1    0    0    0    0  0.00000000000E+00  0.00000000000E+00  0.45593999997E+02  0.45594000000E+02  0.51100000000E-03 0. -1.
         11   -1    0    0    0    0 -0.00000000000E+00 -0.00000000000E+00 -0.45593999997E+02  0.45594000000E+02  0.51100000000E-03 0.  1.
    9900012    2    1    2    0    0 -0.28196882494E+02  0.13462376731E+02 -0.63577674029E+01  0.59301937590E+02  0.49999988260E+02 0.  0.
        -12    1    1    2    0    0  0.28196882494E+02 -0.13462376731E+02  0.63577674029E+01  0.31886062410E+02  0.00000000000E+00 0.  1.
         11    1    3    3    0    0 -0.89805880312E+01  0.31758010771E+01  0.12788045019E+02  0.15945869984E+02  0.51100000000E-03 0. -1.
        -11    1    3    3    0    0 -0.26646430386E+02  0.57832015376E+00 -0.13794145571E+02  0.30010750720E+02  0.51100000000E-03 0.  1.
         12    1    3    3    0    0  0.74301359232E+01  0.97082555005E+01 -0.53516668515E+01  0.13345316886E+02  0.00000000000E+00 0. -1.
</event>
<event>
 7    1  0.1101380E-011  0.5930194E+02  0.7816164E-02  0.1266605E+00
        -11   -1    0    0    0    0  0.00000000000E+00  0.00000000000E+00  0.45593999997E+02  0.45594000000E+02  0.51100000000E-03 0. -1.
         11   -1    0    0    0    0 -0.00000000000E+00 -0.00000000000E+00 -0.45593999997E+02  0.45594000000E+02  0.51100000000E-03 0.  1.
    9900012    2    1    2    0    0 -0.15315482948E+02  0.92553536896E+01  0.26391197469E+02  0.59301938881E+02  0.49999990613E+02 0.  0.
        -12    1    1    2    0    0  0.15315482948E+02 -0.92553536896E+01 -0.26391197469E+02  0.31886061119E+02  0.00000000000E+00 0.  1.
         11    1    3    3    0    0 -0.49678342975E+01  0.12576792009E+02  0.14406562256E+02  0.19758646491E+02  0.51100000000E-03 0.  1.
        -11    1    3    3    0    0 -0.16414450587E+02  0.11686760329E+02  0.11807140554E+02  0.23354295609E+02  0.51100000000E-03 0. -1.
        -12    1    3    3    0    0  0.60668019361E+01 -0.15008198649E+02  0.17749465884E+00  0.16188996781E+02  0.00000000000E+00 0.  1.
</event>
<event>
 7    1  0.1101380E-011  0.5930191E+02  0.7816164E-02  0.1266605E+00
        -11   -1    0    0    0    0  0.00000000000E+00  0.00000000000E+00  0.45593999997E+02  0.45594000000E+02  0.51100000000E-03 0.  1.
         11   -1    0    0    0    0 -0.00000000000E+00 -0.00000000000E+00 -0.45593999997E+02  0.45594000000E+02  0.51100000000E-03 0. -1.
    9900012    2    1    2    0    0 -0.33684846551E+01  0.31697260410E+02 -0.81227051941E+00  0.59301909149E+02  0.49999936389E+02 0.  0.
        -12    1    1    2    0    0  0.33684846551E+01 -0.31697260410E+02  0.81227051941E+00  0.31886090851E+02  0.00000000000E+00 0.  1.
         11    1    3    3    0    0 -0.13306862432E+02  0.22292780477E+02 -0.18703637765E+02  0.31997917356E+02  0.51100000000E-03 0. -1.
        -11    1    3    3    0    0 -0.33797401423E+01  0.26669515924E+00  0.27095489350E+00  0.34010566818E+01  0.51100000000E-03 0.  1.
        -12    1    3    3    0    0  0.13318117919E+02  0.91377847735E+01  0.17620412352E+02  0.23902935111E+02  0.00000000000E+00 0.  1.
</event>
<event>
 7    1  0.1101380E-011  0.5930196E+02  0.7816164E-02  0.1266605E+00
        -11   -1    0    0    0    0  0.00000000000E+00  0.00000000000E+00  0.45593999997E+02  0.45594000000E+02  0.51100000000E-03 0. -1.
         11   -1    0    0    0    0 -0.00000000000E+00 -0.00000000000E+00 -0.45593999997E+02  0.45594000000E+02  0.51100000000E-03 0.  1.
    9900012    2    1    2    0    0 -0.43177609153E+01 -0.27338582481E+02  0.15832827052E+02  0.59301959733E+02  0.50000028644E+02 0.  0.
        -12    1    1    2    0    0  0.43177609153E+01  0.27338582481E+02 -0.15832827052E+02  0.31886040267E+02  0.00000000000E+00 0.  1.
         11    1    3    3    0    0 -0.65310006523E+01 -0.88861198259E+01 -0.12435763429E+02  0.16621230622E+02  0.51100000000E-03 0. -1.
        -11    1    3    3    0    0  0.42719760559E+01 -0.26076043848E+00 -0.38200382161E+01  0.57367645639E+01  0.51100000000E-03 0.  1.
         12    1    3    3    0    0 -0.20587363189E+01 -0.18191702217E+02  0.32088628697E+02  0.36943964547E+02  0.00000000000E+00 0. -1.
</event>
<event>
 7    1  0.1101380E-011  0.5930196E+02  0.7816164E-02  0.1266605E+00
        -11   -1    0    0    0    0  0.00000000000E+00  0.00000000000E+00  0.45593999997E+02  0.45594000000E+02  0.51100000000E-03 0.  1.
         11   -1    0    0    0    0 -0.00000000000E+00 -0.00000000000E+00 -0.45593999997E+02  0.45594000000E+02  0.51100000000E-03 0. -1.
    9900012    2    1    2    0    0  0.26735026075E+02 -0.17053145820E+02  0.33389276368E+01  0.59301955414E+02  0.50000020766E+02 0.  0.
        -12    1    1    2    0    0 -0.26735026075E+02  0.17053145820E+02 -0.33389276368E+01  0.31886044586E+02  0.00000000000E+00 0.  1.
         11    1    3    3    0    0  0.12535824399E+02 -0.10201491739E+02 -0.10178154457E+02  0.19100056426E+02  0.51100000000E-03 0. -1.
        -11    1    3    3    0    0  0.78470113279E+01 -0.10744795916E+01 -0.11380522125E+02  0.13865293984E+02  0.51100000000E-03 0.  1.
        -12    1    3    3    0    0  0.63521903483E+01 -0.57771744889E+01  0.24897604219E+02  0.26336605004E+02  0.00000000000E+00 0.  1.
</event>
<event>
 7    1  0.1101380E-011  0.5930195E+02  0.7816164E-02  0.1266605E+00
        -11   -1    0    0    0    0  0.00000000000E+00  0.00000000000E+00  0.45593999997E+02  0.45594000000E+02  0.51100000000E-03 0. -1.
         11   -1    0    0    0    0 -0.00000000000E+00 -0.00000000000E+00 -0.45593999997E+02  0.45594000000E+02  0.51100000000E-03 0.  1.
    9900012    2    1    2    0    0 -0.93849631789E+01  0.28838234851E+02 -0.98487873399E+01  0.59301953910E+02  0.50000018023E+02 0.  0.
        -12    1    1    2    0    0  0.93849631789E+01 -0.28838234851E+02  0.98487873399E+01  0.31886046090E+02  0.00000000000E+00 0.  1.
         11    1    3    3    0    0 -0.18361678205E+02  0.10340699346E+02 -0.18658982800E+02  0.28146739223E+02  0.51100000000E-03 0. -1.
        -11    1    3    3    0    0 -0.49252368240E+01  0.87972536095E+01  0.99501003695E+01  0.14165243608E+02  0.51100000000E-03 0.  1.
        -12    1    3    3    0    0  0.13901951850E+02  0.97002818955E+01 -0.11399049090E+01  0.16989971080E+02  0.00000000000E+00 0.  1.
</event>
<event>
 7    1  0.1101380E-011  0.5930193E+02  0.7816164E-02  0.1266605E+00
        -11   -1    0    0    0    0  0.00000000000E+00  0.00000000000E+00  0.45593999997E+02  0.45594000000E+02  0.51100000000E-03 0.  1.
         11   -1    0    0    0    0 -0.00000000000E+00 -0.00000000000E+00 -0.45593999997E+02  0.45594000000E+02  0.51100000000E-03 0. -1.
    9900012    2    1    2    0    0 -0.23449337711E+02 -0.21605259359E+02 -0.25035866745E+00  0.59301931717E+02  0.49999977549E+02 0.  0.
        -12    1    1    2    0    0  0.23449337711E+02  0.21605259359E+02  0.25035866745E+00  0.31886068283E+02  0.00000000000E+00 0.  1.
         11    1    3    3    0    0 -0.16803255432E+02 -0.23551977888E+02  0.66854508001E+01  0.29694112349E+02  0.51100000000E-03 0. -1.
        -11    1    3    3    0    0 -0.10856947678E+02 -0.65865220542E+01  0.55924290854E+01  0.13875548601E+02  0.51100000000E-03 0.  1.
         12    1    3    3    0    0  0.42108653980E+01  0.85332405830E+01 -0.12528238553E+02  0.15732270767E+02  0.00000000000E+00 0. -1.
</event>
<event>
 7    1  0.1101380E-011  0.5930195E+02  0.7816164E-02  0.1266605E+00
        -11   -1    0    0    0    0  0.00000000000E+00  0.00000000000E+00  0.45593999997E+02  0.45594000000E+02  0.51100000000E-03 0. -1.
         11   -1    0    0    0    0 -0.00000000000E+00 -0.00000000000E+00 -0.45593999997E+02  0.45594000000E+02  0.51100000000E-03 0.  1.
    9900012    2    1    2    0    0 -0.14402271572E+02 -0.95043846663E+01  0.26813457113E+02  0.59301949183E+02  0.50000009403E+02 0.  0.
        -12    1    1    2    0    0  0.14402271572E+02  0.95043846663E+01 -0.26813457113E+02  0.31886050817E+02  0.00000000000E+00 0.  1.
         11    1    3    3    0    0 -0.27572628563E-01 -0.14304075872E+02  0.11038741335E+02  0.18068236143E+02  0.51100000000E-03 0. -1.
        -11    1    3    3    0    0 -0.21390533353E+02  0.16592539617E+01 -0.23143285093E+01  0.21579252942E+02  0.51100000000E-03 0.  1.
         12    1    3    3    0    0  0.70158344087E+01  0.31404372437E+01  0.18089044288E+02  0.19654460099E+02  0.00000000000E+00 0. -1.
</event>
<event>
 7    1  0.1101380E-011  0.5930194E+02  0.7816164E-02  0.1266605E+00
        -11   -1    0    0    0    0  0.00000000000E+00  0.00000000000E+00  0.45593999997E+02  0.45594000000E+02  0.51100000000E-03 0.  1.
         11   -1    0    0    0    0 -0.00000000000E+00 -0.00000000000E+00 -0.45593999997E+02  0.45594000000E+02  0.51100000000E-03 0. -1.
    9900012    2    1    2    0    0  0.18618132065E+02  0.22183660182E+01 -0.25790784111E+02  0.59301944514E+02  0.50000000887E+02 0.  0.
        -12    1    1    2    0    0 -0.18618132065E+02 -0.22183660182E+01  0.25790784111E+02  0.31886055486E+02  0.00000000000E+00 0.  1.
         11    1    3    3    0    0  0.47381442537E+01 -0.19490862883E+02 -0.21487643256E+02  0.29394941059E+02  0.51100000000E-03 0. -1.
        -11    1    3    3    0    0 -0.31060270645E+01  0.33214447846E+01 -0.10141811993E+01  0.46591805448E+01  0.51100000000E-03 0.  1.
        -12    1    3    3    0    0  0.16986014876E+02  0.18387784117E+02 -0.32889596557E+01  0.25247822910E+02  0.00000000000E+00 0.  1.
</event>
<event>
 7    1  0.1101380E-011  0.5930195E+02  0.7816164E-02  0.1266605E+00
        -11   -1    0    0    0    0  0.00000000000E+00  0.00000000000E+00  0.45593999997E+02  0.45594000000E+02  0.51100000000E-03 0. -1.
         11   -1    0    0    0    0 -0.00000000000E+00 -0.00000000000E+00 -0.45593999997E+02  0.45594000000E+02  0.51100000000E-03 0.  1.
    9900012    2    1    2    0    0  0.88489511220E+01 -0.24857604959E+02  0.17902945674E+02  0.59301954085E+02  0.50000018342E+02 0.  0.
        -12    1    1    2    0    0 -0.88489511220E+01  0.24857604959E+02 -0.17902945674E+02  0.31886045915E+02  0.00000000000E+00 0.  1.
         11    1    3    3    0    0  0.14619814066E+02  0.79676819264E+01 -0.38780548694E+01  0.17095678648E+02  0.51100000000E-03 0.  1.
        -11    1    3    3    0    0  0.46226601697E+01 -0.11897069770E+02  0.70056963753E+01  0.14559843341E+02  0.51100000000E-03 0. -1.
        -12    1    3    3    0    0 -0.10393523114E+02 -0.20928217115E+02  0.14775304168E+02  0.27646432096E+02  0.00000000000E+00 0.  1.
</event>
<event>
 7    1  0.1101380E-011  0.5930189E+02  0.7816164E-02  0.1266605E+00
        -11   -1    0    0    0    0  0.00000000000E+00  0.00000000000E+00  0.45593999997E+02  0.45594000000E+02  0.51100000000E-03 0. -1.
         11   -1    0    0    0    0 -0.00000000000E+00 -0.00000000000E+00 -0.45593999997E+02  0.45594000000E+02  0.51100000000E-03 0.  1.
    9900012    2    1    2    0    0 -0.19212459576E+02  0.13212760436E+02 -0.21749215628E+02  0.59301889830E+02  0.49999901157E+02 0.  0.
        -12    1    1    2    0    0  0.19212459576E+02 -0.13212760436E+02  0.21749215628E+02  0.31886110170E+02  0.00000000000E+00 0.  1.
         11    1    3    3    0    0  0.66190559835E+01  0.60574450429E+00 -0.88314317445E+01  0.11053190283E+02  0.51100000000E-03 0. -1.
        -11    1    3    3    0    0 -0.41824653718E+01  0.22349944700E+02 -0.67936304366E+01  0.23731128491E+02  0.51100000000E-03 0.  1.
         12    1    3    3    0    0 -0.21649050188E+02 -0.97429287684E+01 -0.61241534469E+01  0.24517571056E+02  0.00000000000E+00 0. -1.
</event>
<event>
 7    1  0.1101380E-011  0.5930196E+02  0.7816164E-02  0.1266605E+00
        -11   -1    0    0    0    0  0.00000000000E+00  0.00000000000E+00  0.45593999997E+02  0.45594000000E+02  0.51100000000E-03 0. -1.
         11   -1    0    0    0    0 -0.00000000000E+00 -0.00000000000E+00 -0.45593999997E+02  0.45594000000E+02  0.51100000000E-03 0.  1.
    9900012    2    1    2    0    0 -0.12016404783E+02 -0.47864464912E+01  0.29144730000E+02  0.59301963233E+02  0.50000035026E+02 0.  0.
        -12    1    1    2    0    0  0.12016404783E+02  0.47864464912E+01 -0.29144730000E+02  0.31886036767E+02  0.00000000000E+00 0.  1.
         11    1    3    3    0    0  0.45029721880E+01 -0.43089115759E+00 -0.21319659980E+01  0.50007704400E+01  0.51100000000E-03 0. -1.
        -11    1    3    3    0    0 -0.27689018747E+02  0.68705626985E+01  0.19250065776E+02  0.34415860059E+02  0.51100000000E-03 0.  1.
         12    1    3    3    0    0  0.11169641775E+02 -0.11226118032E+02  0.12026630222E+02  0.19885332734E+02  0.00000000000E+00 0. -1.
</event>
<event>
 7    1  0.1101380E-011  0.5930196E+02  0.7816164E-02  0.1266605E+00
        -11   -1    0    0    0    0  0.00000000000E+00  0.00000000000E+00  0.45593999997E+02  0.45594000000E+02  0.51100000000E-03 0.  1.
         11   -1    0    0    0    0 -0.00000000000E+00 -0.00000000000E+00 -0.45593999997E+02  0.45594000000E+02  0.51100000000E-03 0. -1.
    9900012    2    1    2    0    0 -0.10648952154E+02 -0.47866620510E+01 -0.29671656648E+02  0.59301960362E+02  0.50000029789E+02 0.  0.
        -12    1    1    2    0    0  0.10648952154E+02  0.47866620510E+01  0.29671656648E+02  0.31886039638E+02  0.00000000000E+00 0.  1.
         11    1    3    3    0    0  0.65670730864E+01 -0.18160789388E+01 -0.14049985654E+02  0.15614950809E+02  0.51100000000E-03 0. -1.
        -11    1    3    3    0    0  0.56712909323E+01 -0.67008667162E+01  0.70478994913E+01  0.11257799212E+02  0.51100000000E-03 0.  1.
        -12    1    3    3    0    0 -0.22887316172E+02  0.37302836039E+01 -0.22669570485E+02  0.32429210341E+02  0.00000000000E+00 0.  1.
</event>
<event>
 7    1  0.1101380E-011  0.5930193E+02  0.7816164E-02  0.1266605E+00
        -11   -1    0    0    0    0  0.00000000000E+00  0.00000000000E+00  0.45593999997E+02  0.45594000000E+02  0.51100000000E-03 0.  1.
         11   -1    0    0    0    0 -0.00000000000E+00 -0.00000000000E+00 -0.45593999997E+02  0.45594000000E+02  0.51100000000E-03 0. -1.
    9900012    2    1    2    0    0 -0.10969268666E+02  0.10853549991E+02 -0.27903346849E+02  0.59301934582E+02  0.49999982773E+02 0.  0.
        -12    1    1    2    0    0  0.10969268666E+02 -0.10853549991E+02  0.27903346849E+02  0.31886065418E+02  0.00000000000E+00 0.  1.
         11    1    3    3    0    0 -0.65642935925E+01  0.97933109611E+01 -0.13741109383E+02  0.18105716702E+02  0.51100000000E-03 0. -1.
        -11    1    3    3    0    0  0.12029659281E+02  0.12476974479E+02 -0.12409021940E+01  0.17376059193E+02  0.51100000000E-03 0.  1.
         12    1    3    3    0    0 -0.16434634354E+02 -0.11416735449E+02 -0.12921335272E+02  0.23820158687E+02  0.00000000000E+00 0. -1.
</event>
<event>
 7    1  0.1101380E-011  0.5930197E+02  0.7816164E-02  0.1266605E+00
        -11   -1    0    0    0    0  0.00000000000E+00  0.00000000000E+00  0.45593999997E+02  0.45594000000E+02  0.51100000000E-03 0. -1.
         11   -1    0    0    0    0 -0.00000000000E+00 -0.00000000000E+00 -0.45593999997E+02  0.45594000000E+02  0.51100000000E-03 0.  1.
    9900012    2    1    2    0    0  0.13343816727E+02 -0.28873275201E+02  0.22351051747E+01  0.59301966054E+02  0.50000040171E+02 0.  0.
        -12    1    1    2    0    0 -0.13343816727E+02  0.28873275201E+02 -0.22351051747E+01  0.31886033946E+02  0.00000000000E+00 0.  1.
         11    1    3    3    0    0  0.65595179032E+00  0.15230292418E+01 -0.50523856308E+01  0.53175644468E+01  0.51100000000E-03 0.  1.
        -11    1    3    3    0    0 -0.15417663082E+02 -0.12020191357E+02 -0.32578920355E+00  0.19552377708E+02  0.51100000000E-03 0. -1.
         12    1    3    3    0    0  0.28105528019E+02 -0.18376113085E+02  0.76132800090E+01  0.34432023900E+02  0.00000000000E+00 0. -1.
</event>
<event>
 7    1  0.1101380E-011  0.5930194E+02  0.7816164E-02  0.1266605E+00
        -11   -1    0    0    0    0  0.00000000000E+00  0.00000000000E+00  0.45593999997E+02  0.45594000000E+02  0.51100000000E-03 0.  1.
         11   -1    0    0    0    0 -0.00000000000E+00 -0.00000000000E+00 -0.45593999997E+02  0.45594000000E+02  0.51100000000E-03 0. -1.
    9900012    2    1    2    0    0 -0.16831749166E+02  0.10121317871E+02 -0.25119160910E+02  0.59301935642E+02  0.49999984706E+02 0.  0.
        -12    1    1    2    0    0  0.16831749166E+02 -0.10121317871E+02  0.25119160910E+02  0.31886064358E+02  0.00000000000E+00 0.  1.
         11    1    3    3    0    0 -0.56582943783E+01 -0.69403281620E+01 -0.26731700477E+01  0.93450676098E+01  0.51100000000E-03 0.  1.
        -11    1    3    3    0    0 -0.94712137667E+01  0.26568485545E+02 -0.27206734915E+02  0.39189217131E+02  0.51100000000E-03 0. -1.
         12    1    3    3    0    0 -0.17022410207E+01 -0.95068395116E+01  0.47607440520E+01  0.10767650901E+02  0.00000000000E+00 0. -1.
</event>
<event>
 7    1  0.1101380E-011  0.5930195E+02  0.7816164E-02  0.1266605E+00
        -11   -1    0    0    0    0  0.00000000000E+00  0.00000000000E+00  0.45593999997E+02  0.45594000000E+02  0.51100000000E-03 0.  1.
         11   -1    0    0    0    0 -0.00000000000E+00 -0.00000000000E+00 -0.45593999997E+02  0.45594000000E+02  0.51100000000E-03 0. -1.
    9900012    2    1    2    0    0  0.13668663946E+01 -0.17724204917E+02 -0.26470817690E+02  0.59301953634E+02  0.50000017520E+02 0.  0.
        -12    1    1    2    0    0 -0.13668663946E+01  0.17724204917E+02  0.26470817690E+02  0.31886046366E+02  0.00000000000E+00 0.  1.
         11    1    3    3    0    0 -0.12453641655E+01  0.11453994141E+01 -0.97601658114E+01  0.99057411964E+01  0.51100000000E-03 0. -1.
        -11    1    3    3    0    0 -0.11455597909E+02 -0.13842579393E+02 -0.26147652087E+02  0.31726131779E+02  0.51100000000E-03 0.  1.
        -12    1    3    3    0    0  0.14067828469E+02 -0.50270249379E+01  0.94370002093E+01  0.17670080659E+02  0.00000000000E+00 0.  1.
</event>
<event>
 7    1  0.1101380E-011  0.5930193E+02  0.7816164E-02  0.1266605E+00
        -11   -1    0    0    0    0  0.00000000000E+00  0.00000000000E+00  0.45593999997E+02  0.45594000000E+02  0.51100000000E-03 0.  1.
         11   -1    0    0    0    0 -0.00000000000E+00 -0.00000000000E+00 -0.45593999997E+02  0.45594000000E+02  0.51100000000E-03 0. -1.
    9900012    2    1    2    0    0 -0.84488144033E+01 -0.44018759701E+01 -0.30429635057E+02  0.59301926761E+02  0.49999968511E+02 0.  0.
        -12    1    1    2    0    0  0.84488144033E+01  0.44018759701E+01  0.30429635057E+02  0.31886073239E+02  0.00000000000E+00 0.  1.
         11    1    3    3    0    0  0.75728489043E+01  0.56865331289E+01 -0.22481953058E+02  0.24395141178E+02  0.51100000000E-03 0. -1.
        -11    1    3    3    0    0 -0.15123638053E+01  0.81063765485E+01 -0.82062308379E+01  0.11633692873E+02  0.51100000000E-03 0.  1.
         12    1    3    3    0    0 -0.14509299502E+02 -0.18194785648E+02  0.25854883899E+00  0.23273092711E+02  0.00000000000E+00 0. -1.
</event>
<event>
 7    1  0.1101380E-011  0.5930192E+02  0.7816164E-02  0.1266605E+00
        -11   -1    0    0    0    0  0.00000000000E+00  0.00000000000E+00  0.45593999997E+02  0.45594000000E+02  0.51100000000E-03 0. -1.
         11   -1    0    0    0    0 -0.00000000000E+00 -0.00000000000E+00 -0.45593999997E+02  0.45594000000E+02  0.51100000000E-03 0.  1.
    9900012    2    1    2    0    0  0.17620062715E+02  0.12664173197E+02  0.23363949027E+02  0.59301921424E+02  0.49999958776E+02 0.  0.
        -12    1    1    2    0    0 -0.17620062715E+02 -0.12664173197E+02 -0.23363949027E+02  0.31886078576E+02  0.00000000000E+00 0.  1.
         11    1    3    3    0    0  0.53818683668E+01 -0.34605018717E+01  0.40551041494E+01  0.75751864825E+01  0.51100000000E-03 0. -1.
        -11    1    3    3    0    0  0.12312874710E+02 -0.45401177299E+01 -0.95512664930E+01  0.16231027217E+02  0.51100000000E-03 0.  1.
        -12    1    3    3    0    0 -0.74680362204E-01  0.20664792799E+02  0.28860111370E+02  0.35495707725E+02  0.00000000000E+00 0.  1.
</event>
<event>
 7    1  0.1101380E-011  0.5930192E+02  0.7816164E-02  0.1266605E+00
        -11   -1    0    0    0    0  0.00000000000E+00  0.00000000000E+00  0.45593999997E+02  0.45594000000E+02  0.51100000000E-03 0. -1.
         11   -1    0    0    0    0 -0.00000000000E+00 -0.00000000000E+00 -0.45593999997E+02  0.45594000000E+02  0.51100000000E-03 0.  1.
    9900012    2    1    2    0    0  0.23615610347E+02 -0.18618180128E+02 -0.10601344948E+02  0.59301918427E+02  0.49999953311E+02 0.  0.
        -12    1    1    2    0    0 -0.23615610347E+02  0.18618180128E+02  0.10601344948E+02  0.31886081573E+02  0.00000000000E+00 0.  1.
         11    1    3    3    0    0  0.42986893882E+01 -0.14100392453E+02  0.88675184188E+01  0.17202694003E+02  0.51100000000E-03 0. -1.
        -11    1    3    3    0    0  0.21920587546E+02  0.27635205247E+01 -0.10455101435E+01  0.22118822206E+02  0.51100000000E-03 0.  1.
         12    1    3    3    0    0 -0.26036665877E+01 -0.72813081997E+01 -0.18423353224E+02  0.19980402218E+02  0.00000000000E+00 0. -1.
</event>
<event>
 7    1  0.1101380E-011  0.5930197E+02  0.7816164E-02  0.1266605E+00
        -11   -1    0    0    0    0  0.00000000000E+00  0.00000000000E+00  0.45593999997E+02  0.45594000000E+02  0.51100000000E-03 0.  1.
         11   -1    0    0    0    0 -0.00000000000E+00 -0.00000000000E+00 -0.45593999997E+02  0.45594000000E+02  0.51100000000E-03 0. -1.
    9900012    2    1    2    0    0  0.99107705541E+01  0.31630453681E+01 -0.30141182040E+02  0.59301967262E+02  0.50000042375E+02 0.  0.
        -12    1    1    2    0    0 -0.99107705541E+01 -0.31630453681E+01  0.30141182040E+02  0.31886032738E+02  0.00000000000E+00 0.  1.
         11    1    3    3    0    0  0.60924545238E+01 -0.12396460838E+02 -0.17409801921E+02  0.22223668613E+02  0.51100000000E-03 0. -1.
        -11    1    3    3    0    0 -0.81877445947E+01 -0.59893770072E+01 -0.41482066400E+01  0.10959900413E+02  0.51100000000E-03 0.  1.
        -12    1    3    3    0    0  0.12006060625E+02  0.21548883213E+02 -0.85831734791E+01  0.26118398236E+02  0.00000000000E+00 0.  1.
</event>
<event>
 7    1  0.1101380E-011  0.5930196E+02  0.7816164E-02  0.1266605E+00
        -11   -1    0    0    0    0  0.00000000000E+00  0.00000000000E+00  0.45593999997E+02  0.45594000000E+02  0.51100000000E-03 0.  1.
         11   -1    0    0    0    0 -0.00000000000E+00 -0.00000000000E+00 -0.45593999997E+02  0.45594000000E+02  0.51100000000E-03 0. -1.
    9900012    2    1    2    0    0 -0.28216465051E+02 -0.48618132351E+01 -0.14032581715E+02  0.59301961088E+02  0.50000031114E+02 0.  0.
        -12    1    1    2    0    0  0.28216465051E+02  0.48618132351E+01  0.14032581715E+02  0.31886038912E+02  0.00000000000E+00 0.  1.
         11    1    3    3    0    0 -0.69828577436E+01  0.16938364477E+01  0.11875419097E+02  0.13880020287E+02  0.51100000000E-03 0. -1.
        -11    1    3    3    0    0 -0.27093550545E+02 -0.42930641986E+01 -0.11576503530E+02  0.29774255920E+02  0.51100000000E-03 0.  1.
         12    1    3    3    0    0  0.58599432376E+01 -0.22625854842E+01 -0.14331497281E+02  0.15647684881E+02  0.00000000000E+00 0. -1.
</event>
<event>
 7    1  0.1101380E-011  0.5930192E+02  0.7816164E-02  0.1266605E+00
        -11   -1    0    0    0    0  0.00000000000E+00  0.00000000000E+00  0.45593999997E+02  0.45594000000E+02  0.51100000000E-03 0.  1.
         11   -1    0    0    0    0 -0.00000000000E+00 -0.00000000000E+00 -0.45593999997E+02  0.45594000000E+02  0.51100000000E-03 0. -1.
    9900012    2    1    2    0    0 -0.23065485155E+02  0.18350549945E+01 -0.21939411514E+02  0.59301924515E+02  0.49999964413E+02 0.  0.
        -12    1    1    2    0    0  0.23065485155E+02 -0.18350549945E+01  0.21939411514E+02  0.31886075485E+02  0.00000000000E+00 0.  1.
         11    1    3    3    0    0  0.73834334627E+01  0.13344203843E+02 -0.10537992041E+02  0.18537317562E+02  0.51100000000E-03 0. -1.
        -11    1    3    3    0    0 -0.16895612471E+02  0.51361810472E+01 -0.56765834777E+01  0.18549007433E+02  0.51100000000E-03 0.  1.
         12    1    3    3    0    0 -0.13553306146E+02 -0.16645329895E+02 -0.57248359955E+01  0.22215599519E+02  0.00000000000E+00 0. -1.
</event>
<event>
 7    1  0.1101380E-011  0.5930193E+02  0.7816164E-02  0.1266605E+00
        -11   -1    0    0    0    0  0.00000000000E+00  0.00000000000E+00  0.45593999997E+02  0.45594000000E+02  0.51100000000E-03 0. -1.
         11   -1    0    0    0    0 -0.00000000000E+00 -0.00000000000E+00 -0.45593999997E+02  0.45594000000E+02  0.51100000000E-03 0.  1.
    9900012    2    1    2    0    0 -0.80208388780E+01  0.26912586253E+02  0.15102993491E+02  0.59301928315E+02  0.49999971343E+02 0.  0.
        -12    1    1    2    0    0  0.80208388780E+01 -0.26912586253E+02 -0.15102993491E+02  0.31886071685E+02  0.00000000000E+00 0.  1.
         11    1    3    3    0    0  0.10816153819E+01  0.30258075882E+01  0.22536755746E+02  0.22764682366E+02  0.51100000000E-03 0. -1.
        -11    1    3    3    0    0 -0.37760619797E+01  0.77205966126E+01  0.93034445576E+01  0.12665715022E+02  0.51100000000E-03 0.  1.
        -12    1    3    3    0    0 -0.53263922802E+01  0.16166182052E+02 -0.16737206813E+02  0.23871530927E+02  0.00000000000E+00 0.  1.
</event>
<event>
 7    1  0.1101380E-011  0.5930188E+02  0.7816164E-02  0.1266605E+00
        -11   -1    0    0    0    0  0.00000000000E+00  0.00000000000E+00  0.45593999997E+02  0.45594000000E+02  0.51100000000E-03 0. -1.
         11   -1    0    0    0    0 -0.00000000000E+00 -0.00000000000E+00 -0.45593999997E+02  0.45594000000E+02  0.51100000000E-03 0.  1.
    9900012    2    1    2    0    0  0.63861235872E+01 -0.28288864494E+02 -0.13254509073E+02  0.59301883279E+02  0.49999889208E+02 0.  0.
        -12    1    1    2    0    0 -0.63861235872E+01  0.28288864494E+02  0.13254509073E+02  0.31886116721E+02  0.00000000000E+00 0.  1.
         11    1    3    3    0    0  0.11129186066E+01 -0.18402067755E+02 -0.73415554738E+01  0.19843717457E+02  0.51100000000E-03 0. -1.
        -11    1    3    3    0    0 -0.12191086681E+02 -0.58816988208E+01  0.89089694211E+01  0.16204527512E+02  0.51100000000E-03 0.  1.
        -12    1    3    3    0    0  0.17464291662E+02 -0.40050979176E+01 -0.14821923020E+02  0.23253638309E+02  0.00000000000E+00 0.  1.
</event>
<event>
 7    1  0.1101380E-011  0.5930195E+02  0.7816164E-02  0.1266605E+00
        -11   -1    0    0    0    0  0.00000000000E+00  0.00000000000E+00  0.45593999997E+02  0.45594000000E+02  0.51100000000E-03 0.  1.
         11   -1    0    0    0    0 -0.00000000000E+00 -0.00000000000E+00 -0.45593999997E+02  0.45594000000E+02  0.51100000000E-03 0. -1.
    9900012    2    1    2    0    0  0.18488092450E+02  0.17421743681E+02 -0.19271576936E+02  0.59301946734E+02  0.50000004935E+02 0.  0.
        -12    1    1    2    0    0 -0.18488092450E+02 -0.17421743681E+02  0.19271576936E+02  0.31886053266E+02  0.00000000000E+00 0.  1.
         11    1    3    3    0    0  0.16641311379E+02  0.16775223792E+02 -0.46670232810E+01  0.24085731964E+02  0.51100000000E-03 0. -1.
        -11    1    3    3    0    0  0.53906487248E+01 -0.32185542788E+00  0.94492257576E+01  0.10883499082E+02  0.51100000000E-03 0.  1.
        -12    1    3    3    0    0 -0.35438676539E+01  0.96837531620E+00 -0.24053779412E+02  0.24332715687E+02  0.00000000000E+00 0.  1.
</event>
<event>
 7    1  0.1189340E-011  0.5930195E+02  0.7816164E-02  0.1266605E+00
        -11   -1    0    0    0    0  0.00000000000E+00  0.00000000000E+00  0.45593999997E+02  0.45594000000E+02  0.51100000000E-03 0. -1.
         11   -1    0    0    0    0 -0.00000000000E+00 -0.00000000000E+00 -0.45593999997E+02  0.45594000000E+02  0.51100000000E-03 0.  1.
    9900012    2    1    2    0    0 -0.31374872168E+02 -0.31723210301E+01  0.47195254441E+01  0.59301950626E+02  0.50000012033E+02 0.  0.
        -12    1    1    2    0    0  0.31374872168E+02  0.31723210301E+01 -0.47195254441E+01  0.31886049374E+02  0.00000000000E+00 0.  1.
         11    1    3    3    0    0 -0.33831388638E+02  0.63730375355E+01  0.86718757525E+01  0.35501829445E+02  0.51100000000E-03 0. -1.
        -11    1    3    3    0    0 -0.10917998331E-01  0.62634586735E+01 -0.46246546848E+01  0.77857860857E+01  0.51100000000E-03 0.  1.
        -12    1    3    3    0    0  0.24674344684E+01 -0.15808817239E+02  0.67230437645E+00  0.16014335095E+02  0.00000000000E+00 0.  1.
</event>
<event>
 7    1  0.1101380E-011  0.5930195E+02  0.7816164E-02  0.1266605E+00
        -11   -1    0    0    0    0  0.00000000000E+00  0.00000000000E+00  0.45593999997E+02  0.45594000000E+02  0.51100000000E-03 0. -1.
         11   -1    0    0    0    0 -0.00000000000E+00 -0.00000000000E+00 -0.45593999997E+02  0.45594000000E+02  0.51100000000E-03 0.  1.
    9900012    2    1    2    0    0 -0.12476885649E+02 -0.17989091808E+01  0.29288422774E+02  0.59301945708E+02  0.50000003065E+02 0.  0.
        -12    1    1    2    0    0  0.12476885649E+02  0.17989091808E+01 -0.29288422774E+02  0.31886054292E+02  0.00000000000E+00 0.  1.
         11    1    3    3    0    0 -0.46843924883E+01  0.15456700512E+02  0.93321400696E+01  0.18653202466E+02  0.51100000000E-03 0. -1.
        -11    1    3    3    0    0 -0.85497721232E+01  0.57285279722E+01  0.14061125071E+00  0.10292444213E+02  0.51100000000E-03 0.  1.
         12    1    3    3    0    0  0.75727896252E+00 -0.22984137665E+02  0.19815671453E+02  0.30356299029E+02  0.00000000000E+00 0. -1.
</event>
<event>
 7    1  0.1101380E-011  0.5930209E+02  0.7816164E-02  0.1266604E+00
        -11   -1    0    0    0    0  0.00000000000E+00  0.00000000000E+00  0.45593999997E+02  0.45594000000E+02  0.51100000000E-03 0. -1.
         11   -1    0    0    0    0 -0.00000000000E+00 -0.00000000000E+00 -0.45593999997E+02  0.45594000000E+02  0.51100000000E-03 0.  1.
    9900012    2    1    2    0    0 -0.21466464393E+01  0.31490969880E+01  0.31657323826E+02  0.59302093167E+02  0.50000271993E+02 0.  0.
        -12    1    1    2    0    0  0.21466464393E+01 -0.31490969880E+01 -0.31657323826E+02  0.31885906833E+02  0.00000000000E+00 0.  1.
         11    1    3    3    0    0  0.54947672515E+01 -0.65271238900E+01 -0.13784040993E+01  0.86426738655E+01  0.51100000000E-03 0. -1.
        -11    1    3    3    0    0 -0.75255546836E+01 -0.94754502777E+01 -0.42223212724E+00  0.12107700504E+02  0.51100000000E-03 0.  1.
         12    1    3    3    0    0 -0.11585900720E+00  0.19151671156E+02  0.33457960052E+02  0.38551718797E+02  0.00000000000E+00 0. -1.
</event>
<event>
 7    1  0.1101380E-011  0.5930195E+02  0.7816164E-02  0.1266605E+00
        -11   -1    0    0    0    0  0.00000000000E+00  0.00000000000E+00  0.45593999997E+02  0.45594000000E+02  0.51100000000E-03 0.  1.
         11   -1    0    0    0    0 -0.00000000000E+00 -0.00000000000E+00 -0.45593999997E+02  0.45594000000E+02  0.51100000000E-03 0. -1.
    9900012    2    1    2    0    0  0.39716389945E+01  0.12166617755E+02 -0.29204792418E+02  0.59301946559E+02  0.50000004616E+02 0.  0.
        -12    1    1    2    0    0 -0.39716389945E+01 -0.12166617755E+02  0.29204792418E+02  0.31886053441E+02  0.00000000000E+00 0.  1.
         11    1    3    3    0    0  0.13127117097E+02 -0.14176561761E+02 -0.32876948519E+01  0.19598598019E+02  0.51100000000E-03 0.  1.
        -11    1    3    3    0    0 -0.29886919776E+01  0.16315290620E+02 -0.21443043707E+02  0.27109502235E+02  0.51100000000E-03 0. -1.
        -12    1    3    3    0    0 -0.61667861246E+01  0.10027888895E+02 -0.44740538591E+01  0.12593846304E+02  0.00000000000E+00 0.  1.
</event>
<event>
 7    1  0.1101380E-011  0.5930194E+02  0.7816164E-02  0.1266605E+00
        -11   -1    0    0    0    0  0.00000000000E+00  0.00000000000E+00  0.45593999997E+02  0.45594000000E+02  0.51100000000E-03 0.  1.
         11   -1    0    0    0    0 -0.00000000000E+00 -0.00000000000E+00 -0.45593999997E+02  0.45594000000E+02  0.51100000000E-03 0. -1.
    9900012    2    1    2    0    0  0.24907101252E+02 -0.19213837322E+02 -0.52139989981E+01  0.59301936854E+02  0.49999986917E+02 0.  0.
        -12    1    1    2    0    0 -0.24907101252E+02  0.19213837322E+02  0.52139989981E+01  0.31886063146E+02  0.00000000000E+00 0.  1.
         11    1    3    3    0    0  0.93459698688E+01 -0.87844737651E+01  0.19092051492E+02  0.23000447007E+02  0.51100000000E-03 0. -1.
        -11    1    3    3    0    0  0.73808548419E+01  0.10345009637E+01  0.81977031353E+00  0.74979486574E+01  0.51100000000E-03 0.  1.
         12    1    3    3    0    0  0.81802765410E+01 -0.11463864520E+02 -0.25125820803E+02  0.28803541190E+02  0.00000000000E+00 0. -1.
</event>
<event>
 7    1  0.1101380E-011  0.5930199E+02  0.7816164E-02  0.1266605E+00
        -11   -1    0    0    0    0  0.00000000000E+00  0.00000000000E+00  0.45593999997E+02  0.45594000000E+02  0.51100000000E-03 0.  1.
         11   -1    0    0    0    0 -0.00000000000E+00 -0.00000000000E+00 -0.45593999997E+02  0.45594000000E+02  0.51100000000E-03 0. -1.
    9900012    2    1    2    0    0 -0.12811016618E+02  0.13833938610E+02 -0.25714156039E+02  0.59301986999E+02  0.50000078370E+02 0.  0.
        -12    1    1    2    0    0  0.12811016618E+02 -0.13833938610E+02  0.25714156039E+02  0.31886013001E+02  0.00000000000E+00 0.  1.
         11    1    3    3    0    0  0.14083203589E+01  0.17268459142E+02 -0.17439773796E+02  0.24583099025E+02  0.51100000000E-03 0. -1.
        -11    1    3    3    0    0  0.77621976797E+01  0.58495064296E+01 -0.98843435877E+00  0.97696182643E+01  0.51100000000E-03 0.  1.
        -12    1    3    3    0    0 -0.21981534657E+02 -0.92840269609E+01 -0.72859478839E+01  0.24949269710E+02  0.00000000000E+00 0.  1.
</event>
<event>
 7    1  0.1101380E-011  0.5930189E+02  0.7816164E-02  0.1266605E+00
        -11   -1    0    0    0    0  0.00000000000E+00  0.00000000000E+00  0.45593999997E+02  0.45594000000E+02  0.51100000000E-03 0.  1.
         11   -1    0    0    0    0 -0.00000000000E+00 -0.00000000000E+00 -0.45593999997E+02  0.45594000000E+02  0.51100000000E-03 0. -1.
    9900012    2    1    2    0    0  0.15024208638E+02 -0.62429840302E+01 -0.27423029933E+02  0.59301886008E+02  0.49999894185E+02 0.  0.
        -12    1    1    2    0    0 -0.15024208638E+02  0.62429840302E+01  0.27423029933E+02  0.31886113992E+02  0.00000000000E+00 0.  1.
         11    1    3    3    0    0  0.92591645544E+01  0.10726563163E+02 -0.51220979101E+01  0.15067420908E+02  0.51100000000E-03 0. -1.
        -11    1    3    3    0    0 -0.11934634230E+02  0.90478131347E+00 -0.25144103627E+01  0.12230142401E+02  0.51100000000E-03 0.  1.
        -12    1    3    3    0    0  0.17699678314E+02 -0.17874328507E+02 -0.19786521661E+02  0.32004322699E+02  0.00000000000E+00 0.  1.
</event>
<event>
 7    1  0.1101380E-011  0.5930193E+02  0.7816164E-02  0.1266605E+00
        -11   -1    0    0    0    0  0.00000000000E+00  0.00000000000E+00  0.45593999997E+02  0.45594000000E+02  0.51100000000E-03 0.  1.
         11   -1    0    0    0    0 -0.00000000000E+00 -0.00000000000E+00 -0.45593999997E+02  0.45594000000E+02  0.51100000000E-03 0. -1.
    9900012    2    1    2    0    0 -0.30447440403E+01 -0.27118272424E+02 -0.16493949207E+02  0.59301928966E+02  0.49999972531E+02 0.  0.
        -12    1    1    2    0    0  0.30447440403E+01  0.27118272424E+02  0.16493949207E+02  0.31886071034E+02  0.00000000000E+00 0.  1.
         11    1    3    3    0    0  0.13899458301E+02 -0.41119075062E+00 -0.18865722202E+02  0.23436712512E+02  0.51100000000E-03 0. -1.
        -11    1    3    3    0    0 -0.14197534979E+02 -0.12735441216E+02 -0.51581668795E+01  0.19757736416E+02  0.51100000000E-03 0.  1.
        -12    1    3    3    0    0 -0.27466673618E+01 -0.13971640458E+02  0.75299398745E+01  0.16107480038E+02  0.00000000000E+00 0.  1.
</event>
<event>
 7    1  0.1101380E-011  0.5930201E+02  0.7816164E-02  0.1266605E+00
        -11   -1    0    0    0    0  0.00000000000E+00  0.00000000000E+00  0.45593999997E+02  0.45594000000E+02  0.51100000000E-03 0. -1.
         11   -1    0    0    0    0 -0.00000000000E+00 -0.00000000000E+00 -0.45593999997E+02  0.45594000000E+02  0.51100000000E-03 0.  1.
    9900012    2    1    2    0    0 -0.24333481308E+02 -0.98996838744E+01  0.18071926867E+02  0.59302006303E+02  0.50000113575E+02 0.  0.
        -12    1    1    2    0    0  0.24333481308E+02  0.98996838744E+01 -0.18071926867E+02  0.31885993697E+02  0.00000000000E+00 0.  1.
         11    1    3    3    0    0 -0.61488475398E+01 -0.18107299421E+02  0.22126609815E+02  0.29244990692E+02  0.51100000000E-03 0. -1.
        -11    1    3    3    0    0 -0.31939319794E+01 -0.50298769459E+01 -0.76924045675E+01  0.97300540528E+01  0.51100000000E-03 0.  1.
        -12    1    3    3    0    0 -0.14990701788E+02  0.13237492493E+02  0.36377216198E+01  0.20326961558E+02  0.00000000000E+00 0.  1.
</event>
<event>
 7    1  0.1101380E-011  0.5930209E+02  0.7816164E-02  0.1266604E+00
        -11   -1    0    0    0    0  0.00000000000E+00  0.00000000000E+00  0.45593999997E+02  0.45594000000E+02  0.51100000000E-03 0.  1.
         11   -1    0    0    0    0 -0.00000000000E+00 -0.00000000000E+00 -0.45593999997E+02  0.45594000000E+02  0.51100000000E-03 0. -1.
    9900012    2    1    2    0    0 -0.49122394200E+01  0.25939272750E+02  0.17881146604E+02  0.59302088209E+02  0.50000262950E+02 0.  0.
        -12    1    1    2    0    0  0.49122394200E+01 -0.25939272750E+02 -0.17881146604E+02  0.31885911791E+02  0.00000000000E+00 0.  1.
         11    1    3    3    0    0 -0.74994930425E+01  0.59220515192E+01 -0.68618447595E+01  0.11764268097E+02  0.51100000000E-03 0. -1.
        -11    1    3    3    0    0  0.13453129093E+02  0.20006091266E+02  0.44458856592E+01  0.24515225263E+02  0.51100000000E-03 0.  1.
        -12    1    3    3    0    0 -0.10865875470E+02  0.11129964593E-01  0.20297105704E+02  0.23022594849E+02  0.00000000000E+00 0.  1.
</event>
<event>
 7    1  0.1101380E-011  0.5930194E+02  0.7816164E-02  0.1266605E+00
        -11   -1    0    0    0    0  0.00000000000E+00  0.00000000000E+00  0.45593999997E+02  0.45594000000E+02  0.51100000000E-03 0.  1.
         11   -1    0    0    0    0 -0.00000000000E+00 -0.00000000000E+00 -0.45593999997E+02  0.45594000000E+02  0.51100000000E-03 0. -1.
    9900012    2    1    2    0    0  0.24661719362E+02  0.12909305264E+02 -0.15552182930E+02  0.59301937869E+02  0.49999988769E+02 0.  0.
        -12    1    1    2    0    0 -0.24661719362E+02 -0.12909305264E+02  0.15552182930E+02  0.31886062131E+02  0.00000000000E+00 0.  1.
         11    1    3    3    0    0  0.66693004285E+01  0.18837899503E+02 -0.14902380894E+02  0.24928437224E+02  0.51100000000E-03 0. -1.
        -11    1    3    3    0    0  0.50950740346E+01  0.38981436141E+01  0.12134131947E+02  0.13725613335E+02  0.51100000000E-03 0.  1.
         12    1    3    3    0    0  0.12897344899E+02 -0.98267378523E+01 -0.12783933984E+02  0.20647887310E+02  0.00000000000E+00 0. -1.
</event>
<event>
 7    1  0.1101380E-011  0.5930195E+02  0.7816164E-02  0.1266605E+00
        -11   -1    0    0    0    0  0.00000000000E+00  0.00000000000E+00  0.45593999997E+02  0.45594000000E+02  0.51100000000E-03 0.  1.
         11   -1    0    0    0    0 -0.00000000000E+00 -0.00000000000E+00 -0.45593999997E+02  0.45594000000E+02  0.51100000000E-03 0. -1.
    9900012    2    1    2    0    0 -0.22528424197E+02  0.17593628638E+02 -0.14129911034E+02  0.59301952091E+02  0.50000014705E+02 0.  0.
        -12    1    1    2    0    0  0.22528424197E+02 -0.17593628638E+02  0.14129911034E+02  0.31886047909E+02  0.00000000000E+00 0.  1.
         11    1    3    3    0    0 -0.10429050006E+02  0.13498276002E+01 -0.90034516075E+01  0.13843744424E+02  0.51100000000E-03 0. -1.
        -11    1    3    3    0    0 -0.20734517726E+02  0.18104788439E+01  0.97683844454E+01  0.22991724466E+02  0.51100000000E-03 0.  1.
        -12    1    3    3    0    0  0.86351435356E+01  0.14433322194E+02 -0.14894843872E+02  0.22466483201E+02  0.00000000000E+00 0.  1.
</event>
<event>
 7    1  0.1101380E-011  0.5930189E+02  0.7816164E-02  0.1266605E+00
        -11   -1    0    0    0    0  0.00000000000E+00  0.00000000000E+00  0.45593999997E+02  0.45594000000E+02  0.51100000000E-03 0. -1.
         11   -1    0    0    0    0 -0.00000000000E+00 -0.00000000000E+00 -0.45593999997E+02  0.45594000000E+02  0.51100000000E-03 0.  1.
    9900012    2    1    2    0    0 -0.30002130665E+01  0.95765903487E+01  0.30265683170E+02  0.59301891129E+02  0.49999903526E+02 0.  0.
        -12    1    1    2    0    0  0.30002130665E+01 -0.95765903487E+01 -0.30265683170E+02  0.31886108871E+02  0.00000000000E+00 0.  1.
         11    1    3    3    0    0  0.33179879791E+01  0.56867258010E+00  0.59948256629E+01  0.68753449166E+01  0.51100000000E-03 0. -1.
        -11    1    3    3    0    0  0.12403567267E+01  0.13234633702E-01 -0.13148092516E+02  0.13206475572E+02  0.51100000000E-03 0.  1.
         12    1    3    3    0    0 -0.75585577723E+01  0.89946831349E+01  0.37418950023E+02  0.39220070641E+02  0.00000000000E+00 0. -1.
</event>
<event>
 7    1  0.1101380E-011  0.5930194E+02  0.7816164E-02  0.1266605E+00
        -11   -1    0    0    0    0  0.00000000000E+00  0.00000000000E+00  0.45593999997E+02  0.45594000000E+02  0.51100000000E-03 0. -1.
         11   -1    0    0    0    0 -0.00000000000E+00 -0.00000000000E+00 -0.45593999997E+02  0.45594000000E+02  0.51100000000E-03 0.  1.
    9900012    2    1    2    0    0  0.55727353551E+01 -0.25449932458E+02  0.18383854059E+02  0.59301944560E+02  0.50000000971E+02 0.  0.
        -12    1    1    2    0    0 -0.55727353551E+01  0.25449932458E+02 -0.18383854059E+02  0.31886055440E+02  0.00000000000E+00 0.  1.
         11    1    3    3    0    0 -0.32701791305E+01 -0.81737414003E+01 -0.66594400931E+01  0.11038671235E+02  0.51100000000E-03 0. -1.
        -11    1    3    3    0    0 -0.13432479495E+02 -0.26088485048E+01  0.38996169758E+01  0.14228303087E+02  0.51100000000E-03 0.  1.
        -12    1    3    3    0    0  0.22275393981E+02 -0.14667342553E+02  0.21143677176E+02  0.34034970238E+02  0.00000000000E+00 0.  1.
</event>
<event>
 7    1  0.1101380E-011  0.5930195E+02  0.7816164E-02  0.1266605E+00
        -11   -1    0    0    0    0  0.00000000000E+00  0.00000000000E+00  0.45593999997E+02  0.45594000000E+02  0.51100000000E-03 0.  1.
         11   -1    0    0    0    0 -0.00000000000E+00 -0.00000000000E+00 -0.45593999997E+02  0.45594000000E+02  0.51100000000E-03 0. -1.
    9900012    2    1    2    0    0  0.22797319441E+02 -0.30206546144E+01 -0.22087966517E+02  0.59301946735E+02  0.50000004937E+02 0.  0.
        -12    1    1    2    0    0 -0.22797319441E+02  0.30206546144E+01  0.22087966517E+02  0.31886053265E+02  0.00000000000E+00 0.  1.
         11    1    3    3    0    0  0.75076130068E+01 -0.14472751429E+02 -0.12891325044E+02  0.20784875478E+02  0.51100000000E-03 0. -1.
        -11    1    3    3    0    0 -0.64493363528E+01 -0.65393398806E+01 -0.22803251844E+01  0.94634448629E+01  0.51100000000E-03 0.  1.
         12    1    3    3    0    0  0.21739042787E+02  0.17991436695E+02 -0.69163162885E+01  0.29053626394E+02  0.00000000000E+00 0. -1.
</event>
<event>
 7    1  0.1101380E-011  0.5930194E+02  0.7816164E-02  0.1266605E+00
        -11   -1    0    0    0    0  0.00000000000E+00  0.00000000000E+00  0.45593999997E+02  0.45594000000E+02  0.51100000000E-03 0.  1.
         11   -1    0    0    0    0 -0.00000000000E+00 -0.00000000000E+00 -0.45593999997E+02  0.45594000000E+02  0.51100000000E-03 0. -1.
    9900012    2    1    2    0    0  0.25343764494E+02  0.68671938220E+01 -0.18090222189E+02  0.59301938961E+02  0.49999990760E+02 0.  0.
        -12    1    1    2    0    0 -0.25343764494E+02 -0.68671938220E+01  0.18090222189E+02  0.31886061039E+02  0.00000000000E+00 0.  1.
         11    1    3    3    0    0  0.11884761841E+01 -0.44907296028E+01 -0.70963589941E+01  0.84815941449E+01  0.51100000000E-03 0. -1.
        -11    1    3    3    0    0  0.31916638935E+02 -0.31106063542E+01 -0.12308730627E+02  0.34348981975E+02  0.51100000000E-03 0.  1.
         12    1    3    3    0    0 -0.77613506249E+01  0.14468529779E+02  0.13148674322E+01  0.16471362841E+02  0.00000000000E+00 0. -1.
</event>
<event>
 7    1  0.1101380E-011  0.5930196E+02  0.7816164E-02  0.1266605E+00
        -11   -1    0    0    0    0  0.00000000000E+00  0.00000000000E+00  0.45593999997E+02  0.45594000000E+02  0.51100000000E-03 0. -1.
         11   -1    0    0    0    0 -0.00000000000E+00 -0.00000000000E+00 -0.45593999997E+02  0.45594000000E+02  0.51100000000E-03 0.  1.
    9900012    2    1    2    0    0  0.13893237998E+02  0.27833565352E+02 -0.69992932871E+01  0.59301960283E+02  0.50000029646E+02 0.  0.
        -12    1    1    2    0    0 -0.13893237998E+02 -0.27833565352E+02  0.69992932871E+01  0.31886039717E+02  0.00000000000E+00 0.  1.
         11    1    3    3    0    0 -0.46433542488E+01 -0.67200543283E+01 -0.26036511912E+01  0.85731481173E+01  0.51100000000E-03 0. -1.
        -11    1    3    3    0    0  0.14663806736E+02  0.23239437377E+02 -0.17819277953E+02  0.32750959446E+02  0.51100000000E-03 0.  1.
         12    1    3    3    0    0  0.38727855115E+01  0.11314182303E+02  0.13423635857E+02  0.17977852720E+02  0.00000000000E+00 0. -1.
</event>
<event>
 7    1  0.1101380E-011  0.5930193E+02  0.7816164E-02  0.1266605E+00
        -11   -1    0    0    0    0  0.00000000000E+00  0.00000000000E+00  0.45593999997E+02  0.45594000000E+02  0.51100000000E-03 0.  1.
         11   -1    0    0    0    0 -0.00000000000E+00 -0.00000000000E+00 -0.45593999997E+02  0.45594000000E+02  0.51100000000E-03 0. -1.
    9900012    2    1    2    0    0 -0.12262740753E+02  0.27205878884E+01 -0.29307764375E+02  0.59301929971E+02  0.49999974363E+02 0.  0.
        -12    1    1    2    0    0  0.12262740753E+02 -0.27205878884E+01  0.29307764375E+02  0.31886070029E+02  0.00000000000E+00 0.  1.
         11    1    3    3    0    0 -0.69732266962E+01 -0.12180367568E+02 -0.11001511162E+02  0.17833129079E+02  0.51100000000E-03 0. -1.
        -11    1    3    3    0    0 -0.12168139583E+01 -0.36517500105E+01 -0.21815855846E+02  0.22152821059E+02  0.51100000000E-03 0.  1.
         12    1    3    3    0    0 -0.40727000980E+01  0.18552705467E+02  0.35096026317E+01  0.19315979832E+02  0.00000000000E+00 0. -1.
</event>
<event>
 7    1  0.1101380E-011  0.5930194E+02  0.7816164E-02  0.1266605E+00
        -11   -1    0    0    0    0  0.00000000000E+00  0.00000000000E+00  0.45593999997E+02  0.45594000000E+02  0.51100000000E-03 0.  1.
         11   -1    0    0    0    0 -0.00000000000E+00 -0.00000000000E+00 -0.45593999997E+02  0.45594000000E+02  0.51100000000E-03 0. -1.
    9900012    2    1    2    0    0  0.70198786312E+01 -0.12091323576E+02 -0.28657319762E+02  0.59301940698E+02  0.49999993928E+02 0.  0.
        -12    1    1    2    0    0 -0.70198786312E+01  0.12091323576E+02  0.28657319762E+02  0.31886059302E+02  0.00000000000E+00 0.  1.
         11    1    3    3    0    0 -0.88507013251E+01  0.12487042243E+01 -0.82562837993E+01  0.12168007175E+02  0.51100000000E-03 0. -1.
        -11    1    3    3    0    0 -0.14977229577E+01  0.33889784851E+01 -0.22616229586E+02  0.22917726549E+02  0.51100000000E-03 0.  1.
        -12    1    3    3    0    0  0.17368302914E+02 -0.16729006286E+02  0.22151936230E+01  0.24216206974E+02  0.00000000000E+00 0.  1.
</event>
<event>
 7    1  0.1101380E-011  0.5930194E+02  0.7816164E-02  0.1266605E+00
        -11   -1    0    0    0    0  0.00000000000E+00  0.00000000000E+00  0.45593999997E+02  0.45594000000E+02  0.51100000000E-03 0.  1.
         11   -1    0    0    0    0 -0.00000000000E+00 -0.00000000000E+00 -0.45593999997E+02  0.45594000000E+02  0.51100000000E-03 0. -1.
    9900012    2    1    2    0    0  0.23680593520E+02  0.21335166014E+02 -0.87219781892E+00  0.59301944312E+02  0.50000000519E+02 0.  0.
        -12    1    1    2    0    0 -0.23680593520E+02 -0.21335166014E+02  0.87219781892E+00  0.31886055688E+02  0.00000000000E+00 0.  1.
         11    1    3    3    0    0 -0.10027914544E+01  0.10594806201E+02 -0.57076055115E+01  0.12076103265E+02  0.51100000000E-03 0. -1.
        -11    1    3    3    0    0 -0.55086441096E+01  0.15050959006E+02  0.47892015012E+01  0.16727611252E+02  0.51100000000E-03 0.  1.
         12    1    3    3    0    0  0.30192029084E+02 -0.43105991927E+01  0.46206191345E-01  0.30498229795E+02  0.00000000000E+00 0. -1.
</event>
<event>
 7    1  0.1101380E-011  0.5930195E+02  0.7816164E-02  0.1266605E+00
        -11   -1    0    0    0    0  0.00000000000E+00  0.00000000000E+00  0.45593999997E+02  0.45594000000E+02  0.51100000000E-03 0.  1.
         11   -1    0    0    0    0 -0.00000000000E+00 -0.00000000000E+00 -0.45593999997E+02  0.45594000000E+02  0.51100000000E-03 0. -1.
    9900012    2    1    2    0    0  0.28001296854E+02 -0.14446871504E+02  0.48923870590E+01  0.59301950184E+02  0.50000011227E+02 0.  0.
        -12    1    1    2    0    0 -0.28001296854E+02  0.14446871504E+02 -0.48923870590E+01  0.31886049816E+02  0.00000000000E+00 0.  1.
         11    1    3    3    0    0  0.82150535812E+01 -0.28188169510E+01 -0.19802152756E+02  0.21623091554E+02  0.51100000000E-03 0. -1.
        -11    1    3    3    0    0 -0.23740971411E+01  0.13591337321E+01  0.29719854184E+01  0.40393414470E+01  0.51100000000E-03 0.  1.
        -12    1    3    3    0    0  0.22160340414E+02 -0.12987188285E+02  0.21722554396E+02  0.33639517183E+02  0.00000000000E+00 0.  1.
</event>
<event>
 7    1  0.1101380E-011  0.5930193E+02  0.7816164E-02  0.1266605E+00
        -11   -1    0    0    0    0  0.00000000000E+00  0.00000000000E+00  0.45593999997E+02  0.45594000000E+02  0.51100000000E-03 0.  1.
         11   -1    0    0    0    0 -0.00000000000E+00 -0.00000000000E+00 -0.45593999997E+02  0.45594000000E+02  0.51100000000E-03 0. -1.
    9900012    2    1    2    0    0  0.59987966264E+01 -0.16388764530E+02 -0.26686031188E+02  0.59301930560E+02  0.49999975438E+02 0.  0.
        -12    1    1    2    0    0 -0.59987966264E+01  0.16388764530E+02  0.26686031188E+02  0.31886069440E+02  0.00000000000E+00 0.  1.
         11    1    3    3    0    0  0.61775763339E+01 -0.46964445070E+01 -0.20820481926E+02  0.22219619895E+02  0.51100000000E-03 0. -1.
        -11    1    3    3    0    0 -0.35719047225E+01 -0.20573144833E+02 -0.13520946025E+02  0.24876269281E+02  0.51100000000E-03 0.  1.
         12    1    3    3    0    0  0.33931250150E+01  0.88808248097E+01  0.76553967632E+01  0.12206041384E+02  0.00000000000E+00 0. -1.
</event>
<event>
 7    1  0.1101380E-011  0.5930195E+02  0.7816164E-02  0.1266605E+00
        -11   -1    0    0    0    0  0.00000000000E+00  0.00000000000E+00  0.45593999997E+02  0.45594000000E+02  0.51100000000E-03 0. -1.
         11   -1    0    0    0    0 -0.00000000000E+00 -0.00000000000E+00 -0.45593999997E+02  0.45594000000E+02  0.51100000000E-03 0.  1.
    9900012    2    1    2    0    0  0.10302693132E+02 -0.29672229147E+02  0.54893962962E+01  0.59301950699E+02  0.50000012166E+02 0.  0.
        -12    1    1    2    0    0 -0.10302693132E+02  0.29672229147E+02 -0.54893962962E+01  0.31886049301E+02  0.00000000000E+00 0.  1.
         11    1    3    3    0    0  0.76840018879E+01 -0.16355414383E+02  0.20093280884E+00  0.18071630776E+02  0.51100000000E-03 0. -1.
        -11    1    3    3    0    0  0.21355058436E+01  0.84316378394E+01 -0.11022306050E+02  0.14040802426E+02  0.51100000000E-03 0.  1.
         12    1    3    3    0    0  0.48318540010E+00 -0.21748452604E+02  0.16310769537E+02  0.27189517496E+02  0.00000000000E+00 0. -1.
</event>
<event>
 7    1  0.1101380E-011  0.5930194E+02  0.7816164E-02  0.1266605E+00
        -11   -1    0    0    0    0  0.00000000000E+00  0.00000000000E+00  0.45593999997E+02  0.45594000000E+02  0.51100000000E-03 0. -1.
         11   -1    0    0    0    0 -0.00000000000E+00 -0.00000000000E+00 -0.45593999997E+02  0.45594000000E+02  0.51100000000E-03 0.  1.
    9900012    2    1    2    0    0 -0.22345280921E+02  0.12606804265E+02  0.18933513686E+02  0.59301936686E+02  0.49999986610E+02 0.  0.
        -12    1    1    2    0    0  0.22345280921E+02 -0.12606804265E+02 -0.18933513686E+02  0.31886063314E+02  0.00000000000E+00 0.  1.
         11    1    3    3    0    0 -0.13814205141E+02  0.21204806229E+02 -0.22305580144E+01  0.25405736758E+02  0.51100000000E-03 0. -1.
        -11    1    3    3    0    0 -0.48366416315E+01  0.78368196002E+01  0.10467973217E+02  0.13942284865E+02  0.51100000000E-03 0.  1.
        -12    1    3    3    0    0 -0.36944341482E+01 -0.16434821565E+02  0.10696098483E+02  0.19953915062E+02  0.00000000000E+00 0.  1.
</event>
<event>
 7    1  0.1101380E-011  0.5930194E+02  0.7816164E-02  0.1266605E+00
        -11   -1    0    0    0    0  0.00000000000E+00  0.00000000000E+00  0.45593999997E+02  0.45594000000E+02  0.51100000000E-03 0.  1.
         11   -1    0    0    0    0 -0.00000000000E+00 -0.00000000000E+00 -0.45593999997E+02  0.45594000000E+02  0.51100000000E-03 0. -1.
    9900012    2    1    2    0    0  0.24311998079E+02 -0.20587431373E+02  0.13436057629E+01  0.59301939447E+02  0.49999991647E+02 0.  0.
        -12    1    1    2    0    0 -0.24311998079E+02  0.20587431373E+02 -0.13436057629E+01  0.31886060553E+02  0.00000000000E+00 0.  1.
         11    1    3    3    0    0  0.18277871000E+02  0.87383685671E+00 -0.13394445401E+02  0.22677198394E+02  0.51100000000E-03 0. -1.
        -11    1    3    3    0    0  0.19600403767E+01  0.52358115893E+01 -0.50552807833E+00  0.56134695311E+01  0.51100000000E-03 0.  1.
         12    1    3    3    0    0  0.40740867021E+01 -0.26697079819E+02  0.15243579242E+02  0.31011271522E+02  0.00000000000E+00 0. -1.
</event>
<event>
 7    1  0.1101380E-011  0.5930196E+02  0.7816164E-02  0.1266605E+00
        -11   -1    0    0    0    0  0.00000000000E+00  0.00000000000E+00  0.45593999997E+02  0.45594000000E+02  0.51100000000E-03 0.  1.
         11   -1    0    0    0    0 -0.00000000000E+00 -0.00000000000E+00 -0.45593999997E+02  0.45594000000E+02  0.51100000000E-03 0. -1.
    9900012    2    1    2    0    0 -0.17019597649E+02 -0.87990091376E+01 -0.25487847626E+02  0.59301958500E+02  0.50000026394E+02 0.  0.
        -12    1    1    2    0    0  0.17019597649E+02  0.87990091376E+01  0.25487847626E+02  0.31886041500E+02  0.00000000000E+00 0.  1.
         11    1    3    3    0    0 -0.14098708043E+02  0.14850076694E+01  0.69978564338E+01  0.15809769486E+02  0.51100000000E-03 0. -1.
        -11    1    3    3    0    0 -0.12099321808E+02 -0.43717462419E+01 -0.47994239095E+01  0.13730994994E+02  0.51100000000E-03 0.  1.
         12    1    3    3    0    0  0.91784322019E+01 -0.59122705651E+01 -0.27686280150E+02  0.29761194020E+02  0.00000000000E+00 0. -1.
</event>
<event>
 7    1  0.1101380E-011  0.5930194E+02  0.7816164E-02  0.1266605E+00
        -11   -1    0    0    0    0  0.00000000000E+00  0.00000000000E+00  0.45593999997E+02  0.45594000000E+02  0.51100000000E-03 0.  1.
         11   -1    0    0    0    0 -0.00000000000E+00 -0.00000000000E+00 -0.45593999997E+02  0.45594000000E+02  0.51100000000E-03 0. -1.
    9900012    2    1    2    0    0 -0.14004790397E+01  0.55141132547E+01 -0.31374418760E+02  0.59301938170E+02  0.49999989316E+02 0.  0.
        -12    1    1    2    0    0  0.14004790397E+01 -0.55141132547E+01  0.31374418760E+02  0.31886061830E+02  0.00000000000E+00 0.  1.
         11    1    3    3    0    0  0.74873881466E+01  0.79030763284E+01 -0.20489388667E+02  0.23202039671E+02  0.51100000000E-03 0. -1.
        -11    1    3    3    0    0  0.67321874573E+01 -0.10765281777E+02 -0.13093270875E+02  0.18238623363E+02  0.51100000000E-03 0.  1.
         12    1    3    3    0    0 -0.15620054644E+02  0.83763187038E+01  0.22082407820E+01  0.17861275135E+02  0.00000000000E+00 0. -1.
</event>
<event>
 7    1  0.1101380E-011  0.5930200E+02  0.7816164E-02  0.1266605E+00
        -11   -1    0    0    0    0  0.00000000000E+00  0.00000000000E+00  0.45593999997E+02  0.45594000000E+02  0.51100000000E-03 0.  1.
         11   -1    0    0    0    0 -0.00000000000E+00 -0.00000000000E+00 -0.45593999997E+02  0.45594000000E+02  0.51100000000E-03 0. -1.
    9900012    2    1    2    0    0  0.11397590394E+02  0.13256536030E+02 -0.26666017487E+02  0.59301995187E+02  0.50000093303E+02 0.  0.
        -12    1    1    2    0    0 -0.11397590394E+02 -0.13256536030E+02  0.26666017487E+02  0.31886004813E+02  0.00000000000E+00 0.  1.
         11    1    3    3    0    0  0.23401602766E+02  0.17433377976E+02 -0.15253625035E+02  0.32927659446E+02  0.51100000000E-03 0. -1.
        -11    1    3    3    0    0  0.55358165565E+01 -0.13210260946E+01 -0.46894035659E+01  0.73743393572E+01  0.51100000000E-03 0.  1.
        -12    1    3    3    0    0 -0.17539828929E+02 -0.28558158517E+01 -0.67229888860E+01  0.18999996384E+02  0.00000000000E+00 0.  1.
</event>
<event>
 7    1  0.1101380E-011  0.5930197E+02  0.7816164E-02  0.1266605E+00
        -11   -1    0    0    0    0  0.00000000000E+00  0.00000000000E+00  0.45593999997E+02  0.45594000000E+02  0.51100000000E-03 0. -1.
         11   -1    0    0    0    0 -0.00000000000E+00 -0.00000000000E+00 -0.45593999997E+02  0.45594000000E+02  0.51100000000E-03 0.  1.
    9900012    2    1    2    0    0 -0.17538093222E+01 -0.15860205912E+01  0.31798233114E+02  0.59301969553E+02  0.50000046552E+02 0.  0.
        -12    1    1    2    0    0  0.17538093222E+01  0.15860205912E+01 -0.31798233114E+02  0.31886030447E+02  0.00000000000E+00 0.  1.
         11    1    3    3    0    0  0.10162862953E+02  0.12726720469E+02  0.23389876929E+02  0.28501570839E+02  0.51100000000E-03 0. -1.
        -11    1    3    3    0    0 -0.12321810514E+02  0.11116626085E+01  0.90953382608E+01  0.15355389492E+02  0.51100000000E-03 0.  1.
         12    1    3    3    0    0  0.40513823853E+00 -0.15424403668E+02 -0.68698207503E+00  0.15445009222E+02  0.00000000000E+00 0. -1.
</event>
<event>
 7    1  0.1101380E-011  0.5930195E+02  0.7816164E-02  0.1266605E+00
        -11   -1    0    0    0    0  0.00000000000E+00  0.00000000000E+00  0.45593999997E+02  0.45594000000E+02  0.51100000000E-03 0. -1.
         11   -1    0    0    0    0 -0.00000000000E+00 -0.00000000000E+00 -0.45593999997E+02  0.45594000000E+02  0.51100000000E-03 0.  1.
    9900012    2    1    2    0    0  0.30726413650E+02  0.19510814223E+01  0.82946379442E+01  0.59301949239E+02  0.50000009504E+02 0.  0.
        -12    1    1    2    0    0 -0.30726413650E+02 -0.19510814223E+01 -0.82946379442E+01  0.31886050761E+02  0.00000000000E+00 0.  1.
         11    1    3    3    0    0  0.39046020692E+02  0.14849803461E+01  0.12518869012E+02  0.41030707770E+02  0.51100000000E-03 0. -1.
        -11    1    3    3    0    0  0.10068919773E+01  0.35490202006E+01  0.40135177265E+01  0.54513943758E+01  0.51100000000E-03 0.  1.
        -12    1    3    3    0    0 -0.93264990195E+01 -0.30829191244E+01 -0.82377487943E+01  0.12819847093E+02  0.00000000000E+00 0.  1.
</event>
<event>
 7    1  0.1101380E-011  0.5930195E+02  0.7816164E-02  0.1266605E+00
        -11   -1    0    0    0    0  0.00000000000E+00  0.00000000000E+00  0.45593999997E+02  0.45594000000E+02  0.51100000000E-03 0.  1.
         11   -1    0    0    0    0 -0.00000000000E+00 -0.00000000000E+00 -0.45593999997E+02  0.45594000000E+02  0.51100000000E-03 0. -1.
    9900012    2    1    2    0    0  0.92276190356E+01 -0.23400528099E+02 -0.19595574762E+02  0.59301949466E+02  0.50000009919E+02 0.  0.
        -12    1    1    2    0    0 -0.92276190356E+01  0.23400528099E+02  0.19595574762E+02  0.31886050534E+02  0.00000000000E+00 0.  1.
         11    1    3    3    0    0 -0.48250022028E+01  0.15137824384E+01 -0.10701315293E+02  0.11835976208E+02  0.51100000000E-03 0. -1.
        -11    1    3    3    0    0 -0.31747789370E+01 -0.26850468127E+02  0.17992214263E+01  0.27097307208E+02  0.51100000000E-03 0.  1.
         12    1    3    3    0    0  0.17227400175E+02  0.19361575893E+01 -0.10693480895E+02  0.20368666050E+02  0.00000000000E+00 0. -1.
</event>
<event>
 7    1  0.1101380E-011  0.5930195E+02  0.7816164E-02  0.1266605E+00
        -11   -1    0    0    0    0  0.00000000000E+00  0.00000000000E+00  0.45593999997E+02  0.45594000000E+02  0.51100000000E-03 0. -1.
         11   -1    0    0    0    0 -0.00000000000E+00 -0.00000000000E+00 -0.45593999997E+02  0.45594000000E+02  0.51100000000E-03 0.  1.
    9900012    2    1    2    0    0  0.14751591878E+02 -0.64123291811E+01  0.27531671081E+02  0.59301947548E+02  0.50000006420E+02 0.  0.
        -12    1    1    2    0    0 -0.14751591878E+02  0.64123291811E+01 -0.27531671081E+02  0.31886052452E+02  0.00000000000E+00 0.  1.
         11    1    3    3    0    0  0.49628995015E+01  0.69838034319E+01 -0.14918728729E+01  0.86965261321E+01  0.51100000000E-03 0. -1.
        -11    1    3    3    0    0  0.16833856845E+02  0.17944931476E+01 -0.19326442753E+00  0.16930336481E+02  0.51100000000E-03 0.  1.
         12    1    3    3    0    0 -0.70451644686E+01 -0.15190625761E+02  0.29216808381E+02  0.33675084935E+02  0.00000000000E+00 0. -1.
</event>
<event>
 7    1  0.1101380E-011  0.5930196E+02  0.7816164E-02  0.1266605E+00
        -11   -1    0    0    0    0  0.00000000000E+00  0.00000000000E+00  0.45593999997E+02  0.45594000000E+02  0.51100000000E-03 0. -1.
         11   -1    0    0    0    0 -0.00000000000E+00 -0.00000000000E+00 -0.45593999997E+02  0.45594000000E+02  0.51100000000E-03 0.  1.
    9900012    2    1    2    0    0  0.18953475602E+02  0.22961849088E+02  0.11412229312E+02  0.59301957148E+02  0.50000023927E+02 0.  0.
        -12    1    1    2    0    0 -0.18953475602E+02 -0.22961849088E+02 -0.11412229312E+02  0.31886042852E+02  0.00000000000E+00 0.  1.
         11    1    3    3    0    0  0.30592444964E+02  0.13193420666E+02  0.12183192494E+02  0.35473852587E+02  0.51100000000E-03 0. -1.
        -11    1    3    3    0    0 -0.50352521933E+01  0.79041818628E+01  0.82556961700E+01  0.12489450552E+02  0.51100000000E-03 0.  1.
        -12    1    3    3    0    0 -0.66037171689E+01  0.18642465587E+01 -0.90266593519E+01  0.11338654009E+02  0.00000000000E+00 0.  1.
</event>
<event>
 7    1  0.1101380E-011  0.5930198E+02  0.7816164E-02  0.1266605E+00
        -11   -1    0    0    0    0  0.00000000000E+00  0.00000000000E+00  0.45593999997E+02  0.45594000000E+02  0.51100000000E-03 0.  1.
         11   -1    0    0    0    0 -0.00000000000E+00 -0.00000000000E+00 -0.45593999997E+02  0.45594000000E+02  0.51100000000E-03 0. -1.
    9900012    2    1    2    0    0  0.18489959711E+01  0.29666642874E+02 -0.11540779288E+02  0.59301983126E+02  0.50000071305E+02 0.  0.
        -12    1    1    2    0    0 -0.18489959711E+01 -0.29666642874E+02  0.11540779288E+02  0.31886016874E+02  0.00000000000E+00 0.  1.
         11    1    3    3    0    0 -0.45716953076E+01  0.14383786197E+01 -0.15758669859E+01  0.50450657139E+01  0.51100000000E-03 0. -1.
        -11    1    3    3    0    0 -0.89697769744E+01  0.12625062200E+02  0.14636554001E+02  0.21309101525E+02  0.51100000000E-03 0.  1.
        -12    1    3    3    0    0  0.15390468253E+02  0.15603202054E+02 -0.24601466303E+02  0.32947815886E+02  0.00000000000E+00 0.  1.
</event>
<event>
 7    1  0.1101380E-011  0.5930196E+02  0.7816164E-02  0.1266605E+00
        -11   -1    0    0    0    0  0.00000000000E+00  0.00000000000E+00  0.45593999997E+02  0.45594000000E+02  0.51100000000E-03 0.  1.
         11   -1    0    0    0    0 -0.00000000000E+00 -0.00000000000E+00 -0.45593999997E+02  0.45594000000E+02  0.51100000000E-03 0. -1.
    9900012    2    1    2    0    0 -0.18783570111E+02 -0.15252446220E+02 -0.20766792306E+02  0.59301964114E+02  0.50000036633E+02 0.  0.
        -12    1    1    2    0    0  0.18783570111E+02  0.15252446220E+02  0.20766792306E+02  0.31886035886E+02  0.00000000000E+00 0.  1.
         11    1    3    3    0    0 -0.19130898008E+01 -0.14496227950E+02 -0.22227182747E+02  0.26605416563E+02  0.51100000000E-03 0. -1.
        -11    1    3    3    0    0  0.78012117584E+01 -0.85162326592E+00  0.16722958585E+01  0.80237610125E+01  0.51100000000E-03 0.  1.
        -12    1    3    3    0    0 -0.24671692069E+02  0.95404996272E-01 -0.21190541757E+00  0.24672786538E+02  0.00000000000E+00 0.  1.
</event>
<event>
 7    1  0.1101380E-011  0.5930214E+02  0.7816164E-02  0.1266604E+00
        -11   -1    0    0    0    0  0.00000000000E+00  0.00000000000E+00  0.45593999997E+02  0.45594000000E+02  0.51100000000E-03 0.  1.
         11   -1    0    0    0    0 -0.00000000000E+00 -0.00000000000E+00 -0.45593999997E+02  0.45594000000E+02  0.51100000000E-03 0. -1.
    9900012    2    1    2    0    0 -0.47938020265E+01 -0.11629059134E+02 -0.29300044726E+02  0.59302138319E+02  0.50000354339E+02 0.  0.
        -12    1    1    2    0    0  0.47938020265E+01  0.11629059134E+02  0.29300044726E+02  0.31885861681E+02  0.00000000000E+00 0.  1.
         11    1    3    3    0    0 -0.31631888642E+01 -0.40118592444E+00 -0.27603760248E+01  0.42173913734E+01  0.51100000000E-03 0. -1.
        -11    1    3    3    0    0  0.20483019812E+01  0.43966345136E+01 -0.36084841131E+02  0.36409362748E+02  0.51100000000E-03 0.  1.
        -12    1    3    3    0    0 -0.36789151435E+01 -0.15624507723E+02  0.95451724293E+01  0.18675384197E+02  0.00000000000E+00 0.  1.
</event>
<event>
 7    1  0.1101380E-011  0.5930192E+02  0.7816164E-02  0.1266605E+00
        -11   -1    0    0    0    0  0.00000000000E+00  0.00000000000E+00  0.45593999997E+02  0.45594000000E+02  0.51100000000E-03 0.  1.
         11   -1    0    0    0    0 -0.00000000000E+00 -0.00000000000E+00 -0.45593999997E+02  0.45594000000E+02  0.51100000000E-03 0. -1.
    9900012    2    1    2    0    0 -0.79247949620E+01  0.24195629188E+02 -0.19196131037E+02  0.59301916926E+02  0.49999950572E+02 0.  0.
        -12    1    1    2    0    0  0.79247949620E+01 -0.24195629188E+02  0.19196131037E+02  0.31886083074E+02  0.00000000000E+00 0.  1.
         11    1    3    3    0    0 -0.66529604971E+01  0.21138943937E+02 -0.28787471356E+02  0.36329538140E+02  0.51100000000E-03 0. -1.
        -11    1    3    3    0    0  0.77743844068E+01  0.60900522023E+01  0.65121558232E+00  0.98971647822E+01  0.51100000000E-03 0.  1.
        -12    1    3    3    0    0 -0.90462188717E+01 -0.30333669510E+01  0.89401247361E+01  0.13075214003E+02  0.00000000000E+00 0.  1.
</event>
<event>
 7    1  0.1101380E-011  0.5930195E+02  0.7816164E-02  0.1266605E+00
        -11   -1    0    0    0    0  0.00000000000E+00  0.00000000000E+00  0.45593999997E+02  0.45594000000E+02  0.51100000000E-03 0.  1.
         11   -1    0    0    0    0 -0.00000000000E+00 -0.00000000000E+00 -0.45593999997E+02  0.45594000000E+02  0.51100000000E-03 0. -1.
    9900012    2    1    2    0    0 -0.83409741375E+01  0.19355341254E+02 -0.23927376968E+02  0.59301945789E+02  0.50000003211E+02 0.  0.
        -12    1    1    2    0    0  0.83409741375E+01 -0.19355341254E+02  0.23927376968E+02  0.31886054211E+02  0.00000000000E+00 0.  1.
         11    1    3    3    0    0  0.65602152746E+01 -0.35403137063E+01 -0.81908802441E+01  0.11075232053E+02  0.51100000000E-03 0. -1.
        -11    1    3    3    0    0  0.67213021693E+01  0.10047031820E+02  0.72985923150E+01  0.14120488706E+02  0.51100000000E-03 0.  1.
         12    1    3    3    0    0 -0.21622491581E+02  0.12848623140E+02 -0.23035089038E+02  0.34106225030E+02  0.00000000000E+00 0. -1.
</event>
<event>
 7    1  0.1101380E-011  0.5930195E+02  0.7816164E-02  0.1266605E+00
        -11   -1    0    0    0    0  0.00000000000E+00  0.00000000000E+00  0.45593999997E+02  0.45594000000E+02  0.51100000000E-03 0. -1.
         11   -1    0    0    0    0 -0.00000000000E+00 -0.00000000000E+00 -0.45593999997E+02  0.45594000000E+02  0.51100000000E-03 0.  1.
    9900012    2    1    2    0    0  0.22290977224E+01  0.25256362475E+02  0.19335653090E+02  0.59301949719E+02  0.50000010380E+02 0.  0.
        -12    1    1    2    0    0 -0.22290977224E+01 -0.25256362475E+02 -0.19335653090E+02  0.31886050281E+02  0.00000000000E+00 0.  1.
         11    1    3    3    0    0 -0.11190034264E+01  0.92722283771E+01  0.13989373516E+02  0.16820492245E+02  0.51100000000E-03 0. -1.
        -11    1    3    3    0    0  0.11208290764E+02  0.15216383841E+02  0.18942553911E+02  0.26757886089E+02  0.51100000000E-03 0.  1.
        -12    1    3    3    0    0 -0.78601896152E+01  0.76775025691E+00 -0.13596274337E+02  0.15723571385E+02  0.00000000000E+00 0.  1.
</event>
<event>
 7    1  0.1101380E-011  0.5930193E+02  0.7816164E-02  0.1266605E+00
        -11   -1    0    0    0    0  0.00000000000E+00  0.00000000000E+00  0.45593999997E+02  0.45594000000E+02  0.51100000000E-03 0.  1.
         11   -1    0    0    0    0 -0.00000000000E+00 -0.00000000000E+00 -0.45593999997E+02  0.45594000000E+02  0.51100000000E-03 0. -1.
    9900012    2    1    2    0    0 -0.13958996703E+02  0.21299037192E+02 -0.19189033909E+02  0.59301927858E+02  0.49999970511E+02 0.  0.
        -12    1    1    2    0    0  0.13958996703E+02 -0.21299037192E+02  0.19189033909E+02  0.31886072142E+02  0.00000000000E+00 0.  1.
         11    1    3    3    0    0  0.32071558508E+01  0.10901633380E+02  0.10075579378E+01  0.11408182689E+02  0.51100000000E-03 0. -1.
        -11    1    3    3    0    0 -0.11018138694E+02 -0.12334191358E+02  0.49507445634E+00  0.16546200644E+02  0.51100000000E-03 0.  1.
         12    1    3    3    0    0 -0.61480138594E+01  0.22731595171E+02 -0.20691666303E+02  0.31347544526E+02  0.00000000000E+00 0. -1.
</event>
<event>
 7    1  0.1101380E-011  0.5930197E+02  0.7816164E-02  0.1266605E+00
        -11   -1    0    0    0    0  0.00000000000E+00  0.00000000000E+00  0.45593999997E+02  0.45594000000E+02  0.51100000000E-03 0.  1.
         11   -1    0    0    0    0 -0.00000000000E+00 -0.00000000000E+00 -0.45593999997E+02  0.45594000000E+02  0.51100000000E-03 0. -1.
    9900012    2    1    2    0    0 -0.17213571813E+02  0.20436566787E+02 -0.17399957900E+02  0.59301970904E+02  0.50000049016E+02 0.  0.
        -12    1    1    2    0    0  0.17213571813E+02 -0.20436566787E+02  0.17399957900E+02  0.31886029096E+02  0.00000000000E+00 0.  1.
         11    1    3    3    0    0 -0.17293577368E+02  0.19460705743E+02  0.45124272389E+01  0.26422507187E+02  0.51100000000E-03 0. -1.
        -11    1    3    3    0    0  0.46282076640E+00  0.12730565822E+02 -0.10848359390E+02  0.16732256600E+02  0.51100000000E-03 0.  1.
        -12    1    3    3    0    0 -0.38281521139E+00 -0.11754704778E+02 -0.11064025749E+02  0.16147207118E+02  0.00000000000E+00 0.  1.
</event>
<event>
 7    1  0.1101380E-011  0.5930194E+02  0.7816164E-02  0.1266605E+00
        -11   -1    0    0    0    0  0.00000000000E+00  0.00000000000E+00  0.45593999997E+02  0.45594000000E+02  0.51100000000E-03 0. -1.
         11   -1    0    0    0    0 -0.00000000000E+00 -0.00000000000E+00 -0.45593999997E+02  0.45594000000E+02  0.51100000000E-03 0.  1.
    9900012    2    1    2    0    0 -0.14012595173E+02 -0.26118789372E+02  0.11754870238E+02  0.59301937903E+02  0.49999988831E+02 0.  0.
        -12    1    1    2    0    0  0.14012595173E+02  0.26118789372E+02 -0.11754870238E+02  0.31886062097E+02  0.00000000000E+00 0.  1.
         11    1    3    3    0    0 -0.13242060577E+02  0.96260855312E+01  0.91850321558E+01  0.18771747573E+02  0.51100000000E-03 0.  1.
        -11    1    3    3    0    0 -0.21393857904E+01 -0.83682500230E+01  0.88954644747E+01  0.12398946265E+02  0.51100000000E-03 0. -1.
        -12    1    3    3    0    0  0.13688511940E+01 -0.27376624880E+02 -0.63256263927E+01  0.28131244065E+02  0.00000000000E+00 0.  1.
</event>
<event>
 7    1  0.1101380E-011  0.5930193E+02  0.7816164E-02  0.1266605E+00
        -11   -1    0    0    0    0  0.00000000000E+00  0.00000000000E+00  0.45593999997E+02  0.45594000000E+02  0.51100000000E-03 0.  1.
         11   -1    0    0    0    0 -0.00000000000E+00 -0.00000000000E+00 -0.45593999997E+02  0.45594000000E+02  0.51100000000E-03 0. -1.
    9900012    2    1    2    0    0  0.27336668679E+02 -0.15164608525E+02 -0.62819426600E+01  0.59301927652E+02  0.49999970134E+02 0.  0.
        -12    1    1    2    0    0 -0.27336668679E+02  0.15164608525E+02  0.62819426600E+01  0.31886072348E+02  0.00000000000E+00 0.  1.
         11    1    3    3    0    0  0.18008871846E+02 -0.95657426209E+01 -0.58906013733E+01  0.21225505456E+02  0.51100000000E-03 0. -1.
        -11    1    3    3    0    0  0.15787626423E+02  0.67639036798E+01  0.10717061652E+02  0.20244874704E+02  0.51100000000E-03 0.  1.
        -12    1    3    3    0    0 -0.64598295890E+01 -0.12362769584E+02 -0.11108402939E+02  0.17831547492E+02  0.00000000000E+00 0.  1.
</event>
<event>
 7    1  0.1101380E-011  0.5930195E+02  0.7816164E-02  0.1266605E+00
        -11   -1    0    0    0    0  0.00000000000E+00  0.00000000000E+00  0.45593999997E+02  0.45594000000E+02  0.51100000000E-03 0.  1.
         11   -1    0    0    0    0 -0.00000000000E+00 -0.00000000000E+00 -0.45593999997E+02  0.45594000000E+02  0.51100000000E-03 0. -1.
    9900012    2    1    2    0    0 -0.20403713845E+02  0.23861435285E+02 -0.55713782656E+01  0.59301954646E+02  0.50000019366E+02 0.  0.
        -12    1    1    2    0    0  0.20403713845E+02 -0.23861435285E+02  0.55713782656E+01  0.31886045354E+02  0.00000000000E+00 0.  1.
         11    1    3    3    0    0 -0.17801282541E+02  0.98471646646E+01 -0.13494128925E+02  0.24411960752E+02  0.51100000000E-03 0. -1.
        -11    1    3    3    0    0 -0.70354483594E+01  0.22942429019E+02  0.51486393320E+01  0.24543045250E+02  0.51100000000E-03 0.  1.
         12    1    3    3    0    0  0.44330170561E+01 -0.89281583984E+01  0.27741113270E+01  0.10346948645E+02  0.00000000000E+00 0. -1.
</event>
<event>
 7    1  0.1101380E-011  0.5930197E+02  0.7816164E-02  0.1266605E+00
        -11   -1    0    0    0    0  0.00000000000E+00  0.00000000000E+00  0.45593999997E+02  0.45594000000E+02  0.51100000000E-03 0.  1.
         11   -1    0    0    0    0 -0.00000000000E+00 -0.00000000000E+00 -0.45593999997E+02  0.45594000000E+02  0.51100000000E-03 0. -1.
    9900012    2    1    2    0    0  0.14211262110E+02  0.20432740191E+02 -0.19931431843E+02  0.59301971433E+02  0.50000049980E+02 0.  0.
        -12    1    1    2    0    0 -0.14211262110E+02 -0.20432740191E+02  0.19931431843E+02  0.31886028567E+02  0.00000000000E+00 0.  1.
         11    1    3    3    0    0 -0.69572983285E+00  0.17136397003E+02  0.15452585252E+01  0.17219987410E+02  0.51100000000E-03 0. -1.
        -11    1    3    3    0    0 -0.87839942920E+01 -0.34099113356E+01 -0.19872619913E-01  0.94226560067E+01  0.51100000000E-03 0.  1.
         12    1    3    3    0    0  0.23690986235E+02  0.67062545239E+01 -0.21456817749E+02  0.32659328015E+02  0.00000000000E+00 0. -1.
</event>
<event>
 7    1  0.1101380E-011  0.5930197E+02  0.7816164E-02  0.1266605E+00
        -11   -1    0    0    0    0  0.00000000000E+00  0.00000000000E+00  0.45593999997E+02  0.45594000000E+02  0.51100000000E-03 0.  1.
         11   -1    0    0    0    0 -0.00000000000E+00 -0.00000000000E+00 -0.45593999997E+02  0.45594000000E+02  0.51100000000E-03 0. -1.
    9900012    2    1    2    0    0  0.21591978371E+02 -0.10465404726E+02 -0.20999547178E+02  0.59301965318E+02  0.50000038829E+02 0.  0.
        -12    1    1    2    0    0 -0.21591978371E+02  0.10465404726E+02  0.20999547178E+02  0.31886034682E+02  0.00000000000E+00 0.  1.
         11    1    3    3    0    0  0.10769743932E+02 -0.38950191028E+01 -0.21592845261E+02  0.24441962378E+02  0.51100000000E-03 0. -1.
        -11    1    3    3    0    0  0.12709637999E+01 -0.90826529173E+01  0.14887603791E+02  0.17485727892E+02  0.51100000000E-03 0.  1.
         12    1    3    3    0    0  0.95512706397E+01  0.25122672944E+01 -0.14294305708E+02  0.17374275049E+02  0.00000000000E+00 0. -1.
</event>
<event>
 7    1  0.1101380E-011  0.5930195E+02  0.7816164E-02  0.1266605E+00
        -11   -1    0    0    0    0  0.00000000000E+00  0.00000000000E+00  0.45593999997E+02  0.45594000000E+02  0.51100000000E-03 0.  1.
         11   -1    0    0    0    0 -0.00000000000E+00 -0.00000000000E+00 -0.45593999997E+02  0.45594000000E+02  0.51100000000E-03 0. -1.
    9900012    2    1    2    0    0 -0.20116333230E+02 -0.22235745336E+02  0.10845494638E+02  0.59301953095E+02  0.50000016537E+02 0.  0.
        -12    1    1    2    0    0  0.20116333230E+02  0.22235745336E+02 -0.10845494638E+02  0.31886046905E+02  0.00000000000E+00 0.  1.
         11    1    3    3    0    0  0.28883292887E+01 -0.89605966999E+01  0.15056145304E+02  0.17757315421E+02  0.51100000000E-03 0. -1.
        -11    1    3    3    0    0 -0.10282715773E+02 -0.74390582001E+01  0.13790847488E+02  0.18741966420E+02  0.51100000000E-03 0.  1.
         12    1    3    3    0    0 -0.12721946745E+02 -0.58360904361E+01 -0.18001498154E+02  0.22802671254E+02  0.00000000000E+00 0. -1.
</event>
<event>
 7    1  0.1101380E-011  0.5930193E+02  0.7816164E-02  0.1266605E+00
        -11   -1    0    0    0    0  0.00000000000E+00  0.00000000000E+00  0.45593999997E+02  0.45594000000E+02  0.51100000000E-03 0. -1.
         11   -1    0    0    0    0 -0.00000000000E+00 -0.00000000000E+00 -0.45593999997E+02  0.45594000000E+02  0.51100000000E-03 0.  1.
    9900012    2    1    2    0    0  0.13412495769E+01  0.19084123078E+02  0.25509190016E+02  0.59301929697E+02  0.49999973864E+02 0.  0.
        -12    1    1    2    0    0 -0.13412495769E+01 -0.19084123078E+02 -0.25509190016E+02  0.31886070303E+02  0.00000000000E+00 0.  1.
         11    1    3    3    0    0  0.10139602950E+01  0.10057258462E+02 -0.12426748838E+02  0.16018759322E+02  0.51100000000E-03 0.  1.
        -11    1    3    3    0    0  0.51945914552E+00  0.10073039807E+02  0.68809556340E+01  0.12209976227E+02  0.51100000000E-03 0. -1.
         12    1    3    3    0    0 -0.19216986355E+00 -0.10461751906E+01  0.31054983220E+02  0.31073194149E+02  0.00000000000E+00 0. -1.
</event>
<event>
 7    1  0.1101380E-011  0.5930197E+02  0.7816164E-02  0.1266605E+00
        -11   -1    0    0    0    0  0.00000000000E+00  0.00000000000E+00  0.45593999997E+02  0.45594000000E+02  0.51100000000E-03 0.  1.
         11   -1    0    0    0    0 -0.00000000000E+00 -0.00000000000E+00 -0.45593999997E+02  0.45594000000E+02  0.51100000000E-03 0. -1.
    9900012    2    1    2    0    0 -0.31139403587E+02 -0.65104922372E+01 -0.21610650848E+01  0.59301965953E+02  0.50000039987E+02 0.  0.
        -12    1    1    2    0    0  0.31139403587E+02  0.65104922372E+01  0.21610650848E+01  0.31886034047E+02  0.00000000000E+00 0.  1.
         11    1    3    3    0    0 -0.12087067208E+01 -0.21778855049E+01 -0.70957097093E+01  0.75201897415E+01  0.51100000000E-03 0. -1.
        -11    1    3    3    0    0 -0.10402414411E+02  0.11787278604E+02 -0.13288020276E+02  0.20584500130E+02  0.51100000000E-03 0.  1.
         12    1    3    3    0    0 -0.19528282455E+02 -0.16119885336E+02  0.18222664900E+02  0.31197276082E+02  0.00000000000E+00 0. -1.
</event>
<event>
 7    1  0.1101380E-011  0.5930191E+02  0.7816164E-02  0.1266605E+00
        -11   -1    0    0    0    0  0.00000000000E+00  0.00000000000E+00  0.45593999997E+02  0.45594000000E+02  0.51100000000E-03 0.  1.
         11   -1    0    0    0    0 -0.00000000000E+00 -0.00000000000E+00 -0.45593999997E+02  0.45594000000E+02  0.51100000000E-03 0. -1.
    9900012    2    1    2    0    0  0.35723444960E+01  0.31597831621E+02 -0.23532741665E+01  0.59301913572E+02  0.49999944457E+02 0.  0.
        -12    1    1    2    0    0 -0.35723444960E+01 -0.31597831621E+02  0.23532741665E+01  0.31886086428E+02  0.00000000000E+00 0.  1.
         11    1    3    3    0    0 -0.11383352224E+00  0.21783899969E+02  0.34585351848E+01  0.22057033387E+02  0.51100000000E-03 0. -1.
        -11    1    3    3    0    0  0.19229624453E+02  0.83274693996E+01 -0.53325467729E+01  0.21623164860E+02  0.51100000000E-03 0.  1.
         12    1    3    3    0    0 -0.15543446435E+02  0.14864622525E+01 -0.47926257849E+00  0.15621715326E+02  0.00000000000E+00 0. -1.
</event>
<event>
 7    1  0.1101380E-011  0.5930192E+02  0.7816164E-02  0.1266605E+00
        -11   -1    0    0    0    0  0.00000000000E+00  0.00000000000E+00  0.45593999997E+02  0.45594000000E+02  0.51100000000E-03 0.  1.
         11   -1    0    0    0    0 -0.00000000000E+00 -0.00000000000E+00 -0.45593999997E+02  0.45594000000E+02  0.51100000000E-03 0. -1.
    9900012    2    1    2    0    0  0.15648162674E+02  0.22971107629E+02  0.15626438562E+02  0.59301915842E+02  0.49999948596E+02 0.  0.
        -12    1    1    2    0    0 -0.15648162674E+02 -0.22971107629E+02 -0.15626438562E+02  0.31886084158E+02  0.00000000000E+00 0.  1.
         11    1    3    3    0    0  0.45114959272E+01  0.11361468364E+00 -0.12988334926E+01  0.46961124880E+01  0.51100000000E-03 0. -1.
        -11    1    3    3    0    0  0.27238636998E+02  0.54746867554E+01  0.12653823542E+02  0.30529244850E+02  0.51100000000E-03 0.  1.
         12    1    3    3    0    0 -0.16101970251E+02  0.17382806190E+02  0.42714485129E+01  0.24076558504E+02  0.00000000000E+00 0. -1.
</event>
<event>
 7    1  0.1101380E-011  0.5930193E+02  0.7816164E-02  0.1266605E+00
        -11   -1    0    0    0    0  0.00000000000E+00  0.00000000000E+00  0.45593999997E+02  0.45594000000E+02  0.51100000000E-03 0.  1.
         11   -1    0    0    0    0 -0.00000000000E+00 -0.00000000000E+00 -0.45593999997E+02  0.45594000000E+02  0.51100000000E-03 0. -1.
    9900012    2    1    2    0    0  0.22649783982E+02 -0.22158547955E+02 -0.35647782742E+01  0.59301927711E+02  0.49999970242E+02 0.  0.
        -12    1    1    2    0    0 -0.22649783982E+02  0.22158547955E+02  0.35647782742E+01  0.31886072289E+02  0.00000000000E+00 0.  1.
         11    1    3    3    0    0  0.11070311618E+02  0.35476146810E+01  0.14507245305E+02  0.18590253786E+02  0.51100000000E-03 0. -1.
        -11    1    3    3    0    0  0.46702601925E+01 -0.22599260209E+02 -0.22707271741E+01  0.23188231809E+02  0.51100000000E-03 0.  1.
        -12    1    3    3    0    0  0.69092121713E+01 -0.31069024265E+01 -0.15801296405E+02  0.17523442116E+02  0.00000000000E+00 0.  1.
</event>
<event>
 7    1  0.1101380E-011  0.5930194E+02  0.7816164E-02  0.1266605E+00
        -11   -1    0    0    0    0  0.00000000000E+00  0.00000000000E+00  0.45593999997E+02  0.45594000000E+02  0.51100000000E-03 0. -1.
         11   -1    0    0    0    0 -0.00000000000E+00 -0.00000000000E+00 -0.45593999997E+02  0.45594000000E+02  0.51100000000E-03 0.  1.
    9900012    2    1    2    0    0 -0.15233661548E+02  0.27067089525E+02 -0.72131292276E+01  0.59301937014E+02  0.49999987209E+02 0.  0.
        -12    1    1    2    0    0  0.15233661548E+02 -0.27067089525E+02  0.72131292276E+01  0.31886062986E+02  0.00000000000E+00 0.  1.
         11    1    3    3    0    0 -0.17328267765E+02 -0.49253453357E+01 -0.76881807108E+01  0.19586628431E+02  0.51100000000E-03 0. -1.
        -11    1    3    3    0    0  0.23423441701E+01  0.23829825433E+01 -0.82045825459E+01  0.88589139868E+01  0.51100000000E-03 0.  1.
         12    1    3    3    0    0 -0.24773795302E+00  0.29609452317E+02  0.86796340292E+01  0.30856394596E+02  0.00000000000E+00 0. -1.
</event>
<event>
 7    1  0.1101380E-011  0.5930197E+02  0.7816164E-02  0.1266605E+00
        -11   -1    0    0    0    0  0.00000000000E+00  0.00000000000E+00  0.45593999997E+02  0.45594000000E+02  0.51100000000E-03 0.  1.
         11   -1    0    0    0    0 -0.00000000000E+00 -0.00000000000E+00 -0.45593999997E+02  0.45594000000E+02  0.51100000000E-03 0. -1.
    9900012    2    1    2    0    0  0.57518754369E+01  0.20852702693E+02 -0.23426467915E+02  0.59301973599E+02  0.50000053931E+02 0.  0.
        -12    1    1    2    0    0 -0.57518754369E+01 -0.20852702693E+02  0.23426467915E+02  0.31886026401E+02  0.00000000000E+00 0.  1.
         11    1    3    3    0    0  0.16857130187E+01 -0.58950351246E+01 -0.90419061525E+01  0.10924702954E+02  0.51100000000E-03 0. -1.
        -11    1    3    3    0    0 -0.18305100987E+01 -0.87338461583E+01  0.15154942907E+01  0.90513843772E+01  0.51100000000E-03 0.  1.
        -12    1    3    3    0    0  0.58966725169E+01  0.35481583976E+02 -0.15900056053E+02  0.39325886268E+02  0.00000000000E+00 0.  1.
</event>
<event>
 7    1  0.1101380E-011  0.5930195E+02  0.7816164E-02  0.1266605E+00
        -11   -1    0    0    0    0  0.00000000000E+00  0.00000000000E+00  0.45593999997E+02  0.45594000000E+02  0.51100000000E-03 0.  1.
         11   -1    0    0    0    0 -0.00000000000E+00 -0.00000000000E+00 -0.45593999997E+02  0.45594000000E+02  0.51100000000E-03 0. -1.
    9900012    2    1    2    0    0  0.13840503622E+02 -0.15303869226E+02 -0.24309515612E+02  0.59301945006E+02  0.50000001784E+02 0.  0.
        -12    1    1    2    0    0 -0.13840503622E+02  0.15303869226E+02  0.24309515612E+02  0.31886054994E+02  0.00000000000E+00 0.  1.
         11    1    3    3    0    0  0.18331935848E+02 -0.86817009754E+01 -0.17698288743E+01  0.20360847190E+02  0.51100000000E-03 0. -1.
        -11    1    3    3    0    0 -0.46606013226E+01 -0.81636119441E+01  0.54783578373E+01  0.10880173230E+02  0.51100000000E-03 0.  1.
        -12    1    3    3    0    0  0.16916909592E+00  0.15414436935E+01 -0.28018044575E+02  0.28060924587E+02  0.00000000000E+00 0.  1.
</event>
<event>
 7    1  0.1101380E-011  0.5930194E+02  0.7816164E-02  0.1266605E+00
        -11   -1    0    0    0    0  0.00000000000E+00  0.00000000000E+00  0.45593999997E+02  0.45594000000E+02  0.51100000000E-03 0.  1.
         11   -1    0    0    0    0 -0.00000000000E+00 -0.00000000000E+00 -0.45593999997E+02  0.45594000000E+02  0.51100000000E-03 0. -1.
    9900012    2    1    2    0    0 -0.14452018284E+02 -0.21502199748E+02 -0.18588049205E+02  0.59301937218E+02  0.49999987581E+02 0.  0.
        -12    1    1    2    0    0  0.14452018284E+02  0.21502199748E+02  0.18588049205E+02  0.31886062782E+02  0.00000000000E+00 0.  1.
         11    1    3    3    0    0  0.14301147529E+02 -0.18731002895E+01 -0.67125817317E+01  0.15908805081E+02  0.51100000000E-03 0.  1.
        -11    1    3    3    0    0 -0.13465894061E+02 -0.14469301562E+02 -0.17405590749E+02  0.26337152088E+02  0.51100000000E-03 0. -1.
        -12    1    3    3    0    0 -0.15287271753E+02 -0.51597978967E+01  0.55301232756E+01  0.17055980048E+02  0.00000000000E+00 0.  1.
</event>
<event>
 7    1  0.1101380E-011  0.5930195E+02  0.7816164E-02  0.1266605E+00
        -11   -1    0    0    0    0  0.00000000000E+00  0.00000000000E+00  0.45593999997E+02  0.45594000000E+02  0.51100000000E-03 0. -1.
         11   -1    0    0    0    0 -0.00000000000E+00 -0.00000000000E+00 -0.45593999997E+02  0.45594000000E+02  0.51100000000E-03 0.  1.
    9900012    2    1    2    0    0 -0.96950492548E+00  0.24427179900E+02 -0.20471758125E+02  0.59301953861E+02  0.50000017933E+02 0.  0.
        -12    1    1    2    0    0  0.96950492548E+00 -0.24427179900E+02  0.20471758125E+02  0.31886046139E+02  0.00000000000E+00 0.  1.
         11    1    3    3    0    0  0.88266468339E-01  0.14690685829E+02 -0.13592963527E+01  0.14753702177E+02  0.51100000000E-03 0. -1.
        -11    1    3    3    0    0  0.91570913474E+01  0.80042389320E+01 -0.28235427544E+02  0.30743446971E+02  0.51100000000E-03 0.  1.
        -12    1    3    3    0    0 -0.10214862741E+02  0.17322551395E+01  0.91229657719E+01  0.13804804713E+02  0.00000000000E+00 0.  1.
</event>
<event>
 7    1  0.1101380E-011  0.5930195E+02  0.7816164E-02  0.1266605E+00
        -11   -1    0    0    0    0  0.00000000000E+00  0.00000000000E+00  0.45593999997E+02  0.45594000000E+02  0.51100000000E-03 0. -1.
         11   -1    0    0    0    0 -0.00000000000E+00 -0.00000000000E+00 -0.45593999997E+02  0.45594000000E+02  0.51100000000E-03 0.  1.
    9900012    2    1    2    0    0 -0.20304958104E+02  0.22880752242E+02  0.89944475354E+01  0.59301949237E+02  0.50000009501E+02 0.  0.
        -12    1    1    2    0    0  0.20304958104E+02 -0.22880752242E+02 -0.89944475354E+01  0.31886050763E+02  0.00000000000E+00 0.  1.
         11    1    3    3    0    0 -0.30416224335E+02  0.17525471695E+02  0.91807399396E+01  0.36284636515E+02  0.51100000000E-03 0. -1.
        -11    1    3    3    0    0  0.31389875838E-01 -0.55142981631E+01  0.48676596843E+01  0.73554456438E+01  0.51100000000E-03 0.  1.
        -12    1    3    3    0    0  0.10079876355E+02  0.10869578711E+02 -0.50539520885E+01  0.15661867079E+02  0.00000000000E+00 0.  1.
</event>
<event>
 7    1  0.1101380E-011  0.5930180E+02  0.7816164E-02  0.1266605E+00
        -11   -1    0    0    0    0  0.00000000000E+00  0.00000000000E+00  0.45593999997E+02  0.45594000000E+02  0.51100000000E-03 0.  1.
         11   -1    0    0    0    0 -0.00000000000E+00 -0.00000000000E+00 -0.45593999997E+02  0.45594000000E+02  0.51100000000E-03 0. -1.
    9900012    2    1    2    0    0 -0.69461221252E+01  0.29748051884E+02 -0.91397202418E+01  0.59301800955E+02  0.49999739068E+02 0.  0.
        -12    1    1    2    0    0  0.69461221252E+01 -0.29748051884E+02  0.91397202418E+01  0.31886199045E+02  0.00000000000E+00 0.  1.
         11    1    3    3    0    0  0.29915922165E+01 -0.34314512432E+01  0.31346266686E+01  0.55272385724E+01  0.51100000000E-03 0. -1.
        -11    1    3    3    0    0  0.88120911088E+01  0.25451091058E+02  0.46848757430E+01  0.27337868365E+02  0.51100000000E-03 0.  1.
         12    1    3    3    0    0 -0.18749805450E+02  0.77284120688E+01 -0.16959222653E+02  0.26436694017E+02  0.00000000000E+00 0. -1.
</event>
<event>
 7    1  0.1101380E-011  0.5930195E+02  0.7816164E-02  0.1266605E+00
        -11   -1    0    0    0    0  0.00000000000E+00  0.00000000000E+00  0.45593999997E+02  0.45594000000E+02  0.51100000000E-03 0. -1.
         11   -1    0    0    0    0 -0.00000000000E+00 -0.00000000000E+00 -0.45593999997E+02  0.45594000000E+02  0.51100000000E-03 0.  1.
    9900012    2    1    2    0    0  0.88601280937E+01  0.29578303471E+02 -0.79587949955E+01  0.59301947817E+02  0.50000006910E+02 0.  0.
        -12    1    1    2    0    0 -0.88601280937E+01 -0.29578303471E+02  0.79587949955E+01  0.31886052183E+02  0.00000000000E+00 0.  1.
         11    1    3    3    0    0  0.12981545029E+02  0.33922984799E+01  0.86621905465E+01  0.15970652637E+02  0.51100000000E-03 0. -1.
        -11    1    3    3    0    0 -0.40998322660E+01 -0.62967223031E+01 -0.36662715206E+01  0.83605552145E+01  0.51100000000E-03 0.  1.
        -12    1    3    3    0    0 -0.21584669438E-01  0.32482727294E+02 -0.12954714021E+02  0.34970739965E+02  0.00000000000E+00 0.  1.
</event>
<event>
 7    1  0.1101380E-011  0.5930194E+02  0.7816164E-02  0.1266605E+00
        -11   -1    0    0    0    0  0.00000000000E+00  0.00000000000E+00  0.45593999997E+02  0.45594000000E+02  0.51100000000E-03 0.  1.
         11   -1    0    0    0    0 -0.00000000000E+00 -0.00000000000E+00 -0.45593999997E+02  0.45594000000E+02  0.51100000000E-03 0. -1.
    9900012    2    1    2    0    0  0.30487471530E+00  0.15009301744E+02 -0.28130924362E+02  0.59301937325E+02  0.49999987776E+02 0.  0.
        -12    1    1    2    0    0 -0.30487471530E+00 -0.15009301744E+02  0.28130924362E+02  0.31886062675E+02  0.00000000000E+00 0.  1.
         11    1    3    3    0    0 -0.53912441459E+01  0.14083253413E+02 -0.13450148568E+02  0.20206682976E+02  0.51100000000E-03 0. -1.
        -11    1    3    3    0    0  0.17369698084E+02 -0.10312625487E+01 -0.19659837760E+02  0.26254126057E+02  0.51100000000E-03 0.  1.
         12    1    3    3    0    0 -0.11673579223E+02  0.19573108797E+01  0.49790619663E+01  0.12841128292E+02  0.00000000000E+00 0. -1.
</event>
<event>
 7    1  0.1101380E-011  0.5930194E+02  0.7816164E-02  0.1266605E+00
        -11   -1    0    0    0    0  0.00000000000E+00  0.00000000000E+00  0.45593999997E+02  0.45594000000E+02  0.51100000000E-03 0.  1.
         11   -1    0    0    0    0 -0.00000000000E+00 -0.00000000000E+00 -0.45593999997E+02  0.45594000000E+02  0.51100000000E-03 0. -1.
    9900012    2    1    2    0    0  0.18730854317E+02  0.13359479432E+02 -0.22077138957E+02  0.59301942566E+02  0.49999997335E+02 0.  0.
        -12    1    1    2    0    0 -0.18730854317E+02 -0.13359479432E+02  0.22077138957E+02  0.31886057434E+02  0.00000000000E+00 0.  1.
         11    1    3    3    0    0 -0.56054732788E+01 -0.13063506533E+01 -0.19742159793E+02  0.20564064682E+02  0.51100000000E-03 0. -1.
        -11    1    3    3    0    0 -0.24224628526E+01  0.93704968956E+01  0.44141374387E+01  0.10637628868E+02  0.51100000000E-03 0.  1.
        -12    1    3    3    0    0  0.26758790449E+02  0.52953331893E+01 -0.67491166028E+01  0.28100249016E+02  0.00000000000E+00 0.  1.
</event>
<event>
 7    1  0.1101380E-011  0.5930192E+02  0.7816164E-02  0.1266605E+00
        -11   -1    0    0    0    0  0.00000000000E+00  0.00000000000E+00  0.45593999997E+02  0.45594000000E+02  0.51100000000E-03 0.  1.
         11   -1    0    0    0    0 -0.00000000000E+00 -0.00000000000E+00 -0.45593999997E+02  0.45594000000E+02  0.51100000000E-03 0. -1.
    9900012    2    1    2    0    0  0.18011154459E+02 -0.12232452237E+02 -0.23295661106E+02  0.59301915276E+02  0.49999947563E+02 0.  0.
        -12    1    1    2    0    0 -0.18011154459E+02  0.12232452237E+02  0.23295661106E+02  0.31886084724E+02  0.00000000000E+00 0.  1.
         11    1    3    3    0    0  0.13542179470E+02 -0.40551449486E+01 -0.60699911113E+01  0.15384395266E+02  0.51100000000E-03 0. -1.
        -11    1    3    3    0    0  0.13697503293E+02 -0.77272879110E+01  0.75718115008E+01  0.17454652807E+02  0.51100000000E-03 0.  1.
         12    1    3    3    0    0 -0.92285283042E+01 -0.45001937732E+00 -0.24797481496E+02  0.26462867203E+02  0.00000000000E+00 0. -1.
</event>
<event>
 7    1  0.1101380E-011  0.5930194E+02  0.7816164E-02  0.1266605E+00
        -11   -1    0    0    0    0  0.00000000000E+00  0.00000000000E+00  0.45593999997E+02  0.45594000000E+02  0.51100000000E-03 0.  1.
         11   -1    0    0    0    0 -0.00000000000E+00 -0.00000000000E+00 -0.45593999997E+02  0.45594000000E+02  0.51100000000E-03 0. -1.
    9900012    2    1    2    0    0  0.25105545183E+02  0.15278497013E+02 -0.12369324795E+02  0.59301936182E+02  0.49999985691E+02 0.  0.
        -12    1    1    2    0    0 -0.25105545183E+02 -0.15278497013E+02  0.12369324795E+02  0.31886063818E+02  0.00000000000E+00 0.  1.
         11    1    3    3    0    0  0.22520445209E+02  0.17411972065E+02 -0.22496033928E+02  0.36282485669E+02  0.51100000000E-03 0. -1.
        -11    1    3    3    0    0  0.91157865956E+01 -0.20098387659E+01 -0.17195110404E+01  0.94917719948E+01  0.51100000000E-03 0.  1.
        -12    1    3    3    0    0 -0.65306866212E+01 -0.12363628572E+00  0.11846220174E+02  0.13527678518E+02  0.00000000000E+00 0.  1.
</event>
<event>
 7    1  0.1101380E-011  0.5930193E+02  0.7816164E-02  0.1266605E+00
        -11   -1    0    0    0    0  0.00000000000E+00  0.00000000000E+00  0.45593999997E+02  0.45594000000E+02  0.51100000000E-03 0. -1.
         11   -1    0    0    0    0 -0.00000000000E+00 -0.00000000000E+00 -0.45593999997E+02  0.45594000000E+02  0.51100000000E-03 0.  1.
    9900012    2    1    2    0    0  0.18779182492E+02 -0.16748299292E+02  0.19584649760E+02  0.59301925759E+02  0.49999966683E+02 0.  0.
        -12    1    1    2    0    0 -0.18779182492E+02  0.16748299292E+02 -0.19584649760E+02  0.31886074241E+02  0.00000000000E+00 0.  1.
         11    1    3    3    0    0  0.11475595073E+01 -0.31116374382E+01 -0.39660097987E+01  0.51699530321E+01  0.51100000000E-03 0. -1.
        -11    1    3    3    0    0 -0.97568189437E+01 -0.18507766583E+02  0.10032768160E+02  0.23203219109E+02  0.51100000000E-03 0.  1.
         12    1    3    3    0    0  0.27388441928E+02  0.48711047290E+01  0.13517891399E+02  0.30928753619E+02  0.00000000000E+00 0. -1.
</event>
<event>
 7    1  0.1101380E-011  0.5930193E+02  0.7816164E-02  0.1266605E+00
        -11   -1    0    0    0    0  0.00000000000E+00  0.00000000000E+00  0.45593999997E+02  0.45594000000E+02  0.51100000000E-03 0.  1.
         11   -1    0    0    0    0 -0.00000000000E+00 -0.00000000000E+00 -0.45593999997E+02  0.45594000000E+02  0.51100000000E-03 0. -1.
    9900012    2    1    2    0    0  0.17652267955E+02 -0.23331345210E+02 -0.12679395839E+02  0.59301932319E+02  0.49999978647E+02 0.  0.
        -12    1    1    2    0    0 -0.17652267955E+02  0.23331345210E+02  0.12679395839E+02  0.31886067681E+02  0.00000000000E+00 0.  1.
         11    1    3    3    0    0  0.32141118327E+01  0.34442922523E+01 -0.11247796288E+02  0.12194530971E+02  0.51100000000E-03 0. -1.
        -11    1    3    3    0    0 -0.20177834825E+01  0.69283970829E+01  0.53620314392E+01  0.89903013151E+01  0.51100000000E-03 0.  1.
         12    1    3    3    0    0  0.16455939605E+02 -0.33704034546E+02 -0.67936309898E+01  0.38117100033E+02  0.00000000000E+00 0. -1.
</event>
<event>
 7    1  0.1101380E-011  0.5930195E+02  0.7816164E-02  0.1266605E+00
        -11   -1    0    0    0    0  0.00000000000E+00  0.00000000000E+00  0.45593999997E+02  0.45594000000E+02  0.51100000000E-03 0. -1.
         11   -1    0    0    0    0 -0.00000000000E+00 -0.00000000000E+00 -0.45593999997E+02  0.45594000000E+02  0.51100000000E-03 0.  1.
    9900012    2    1    2    0    0 -0.16236772014E+02 -0.23989487392E+02  0.13326368636E+02  0.59301947064E+02  0.50000005538E+02 0.  0.
        -12    1    1    2    0    0  0.16236772014E+02  0.23989487392E+02 -0.13326368636E+02  0.31886052936E+02  0.00000000000E+00 0.  1.
         11    1    3    3    0    0 -0.30557670290E+00  0.87605555409E+01  0.10168471553E+02  0.13425294205E+02  0.51100000000E-03 0. -1.
        -11    1    3    3    0    0 -0.61131229266E+01 -0.20204765263E+01  0.10937667437E+02  0.12691933128E+02  0.51100000000E-03 0.  1.
        -12    1    3    3    0    0 -0.98180723843E+01 -0.30729566407E+02 -0.77797703531E+01  0.33184719731E+02  0.00000000000E+00 0.  1.
</event>
<event>
 7    1  0.1101380E-011  0.5930196E+02  0.7816164E-02  0.1266605E+00
        -11   -1    0    0    0    0  0.00000000000E+00  0.00000000000E+00  0.45593999997E+02  0.45594000000E+02  0.51100000000E-03 0.  1.
         11   -1    0    0    0    0 -0.00000000000E+00 -0.00000000000E+00 -0.45593999997E+02  0.45594000000E+02  0.51100000000E-03 0. -1.
    9900012    2    1    2    0    0 -0.32952647525E+01  0.17687483855E+01 -0.31665951520E+02  0.59301957186E+02  0.50000023998E+02 0.  0.
        -12    1    1    2    0    0  0.32952647525E+01 -0.17687483855E+01  0.31665951520E+02  0.31886042814E+02  0.00000000000E+00 0.  1.
         11    1    3    3    0    0  0.17225211673E+01 -0.24522471708E+01 -0.19096949621E+01  0.35535236692E+01  0.51100000000E-03 0. -1.
        -11    1    3    3    0    0  0.37515962988E+00 -0.26058819952E+01 -0.41249644901E+02  0.41333576792E+02  0.51100000000E-03 0.  1.
        -12    1    3    3    0    0 -0.53929455496E+01  0.68268775515E+01  0.11493388343E+02  0.14414856725E+02  0.00000000000E+00 0.  1.
</event>
<event>
 7    1  0.1101380E-011  0.5930193E+02  0.7816164E-02  0.1266605E+00
        -11   -1    0    0    0    0  0.00000000000E+00  0.00000000000E+00  0.45593999997E+02  0.45594000000E+02  0.51100000000E-03 0.  1.
         11   -1    0    0    0    0 -0.00000000000E+00 -0.00000000000E+00 -0.45593999997E+02  0.45594000000E+02  0.51100000000E-03 0. -1.
    9900012    2    1    2    0    0  0.27440092607E+02  0.76034809838E+01 -0.14350942993E+02  0.59301934546E+02  0.49999982708E+02 0.  0.
        -12    1    1    2    0    0 -0.27440092607E+02 -0.76034809838E+01  0.14350942993E+02  0.31886065454E+02  0.00000000000E+00 0.  1.
         11    1    3    3    0    0  0.32589405329E+02 -0.12520429195E+02 -0.11515648153E+02  0.36761945536E+02  0.51100000000E-03 0. -1.
        -11    1    3    3    0    0 -0.74200049287E+00  0.10266142132E+01 -0.26529948216E+01  0.29398781027E+01  0.51100000000E-03 0.  1.
        -12    1    3    3    0    0 -0.44073122298E+01  0.19097295965E+02 -0.18230001862E+00  0.19600110907E+02  0.00000000000E+00 0.  1.
</event>
<event>
 7    1  0.1101380E-011  0.5930186E+02  0.7816164E-02  0.1266605E+00
        -11   -1    0    0    0    0  0.00000000000E+00  0.00000000000E+00  0.45593999997E+02  0.45594000000E+02  0.51100000000E-03 0.  1.
         11   -1    0    0    0    0 -0.00000000000E+00 -0.00000000000E+00 -0.45593999997E+02  0.45594000000E+02  0.51100000000E-03 0. -1.
    9900012    2    1    2    0    0  0.56009102305E+00  0.30845127531E+02 -0.80616388483E+01  0.59301864843E+02  0.49999855586E+02 0.  0.
        -12    1    1    2    0    0 -0.56009102305E+00 -0.30845127531E+02  0.80616388483E+01  0.31886135157E+02  0.00000000000E+00 0.  1.
         11    1    3    3    0    0  0.13335432327E+02  0.19616382994E+02 -0.70057245379E+01  0.24732901441E+02  0.51100000000E-03 0. -1.
        -11    1    3    3    0    0  0.32992667300E+00 -0.27834870548E-01  0.12564923385E+02  0.12569285036E+02  0.51100000000E-03 0.  1.
         12    1    3    3    0    0 -0.13105267977E+02  0.11256579407E+02 -0.13620837695E+02  0.21999678366E+02  0.00000000000E+00 0. -1.
</event>
<event>
 7    1  0.1101380E-011  0.5930194E+02  0.7816164E-02  0.1266605E+00
        -11   -1    0    0    0    0  0.00000000000E+00  0.00000000000E+00  0.45593999997E+02  0.45594000000E+02  0.51100000000E-03 0.  1.
         11   -1    0    0    0    0 -0.00000000000E+00 -0.00000000000E+00 -0.45593999997E+02  0.45594000000E+02  0.51100000000E-03 0. -1.
    9900012    2    1    2    0    0  0.82574510844E+01  0.70440655957E+01 -0.29981940756E+02  0.59301935175E+02  0.49999983854E+02 0.  0.
        -12    1    1    2    0    0 -0.82574510844E+01 -0.70440655957E+01  0.29981940756E+02  0.31886064825E+02  0.00000000000E+00 0.  1.
         11    1    3    3    0    0 -0.11782012594E+02 -0.82428868772E+01 -0.13295366572E+02  0.19583865231E+02  0.51100000000E-03 0. -1.
        -11    1    3    3    0    0 -0.56349772004E+01  0.11998045758E+01  0.46473693089E+00  0.57800068983E+01  0.51100000000E-03 0.  1.
         12    1    3    3    0    0  0.25674440879E+02  0.14087147897E+02 -0.17151311116E+02  0.33938063046E+02  0.00000000000E+00 0. -1.
</event>
<event>
 7    1  0.1101380E-011  0.5930191E+02  0.7816164E-02  0.1266605E+00
        -11   -1    0    0    0    0  0.00000000000E+00  0.00000000000E+00  0.45593999997E+02  0.45594000000E+02  0.51100000000E-03 0. -1.
         11   -1    0    0    0    0 -0.00000000000E+00 -0.00000000000E+00 -0.45593999997E+02  0.45594000000E+02  0.51100000000E-03 0.  1.
    9900012    2    1    2    0    0  0.18715046531E+02 -0.19102053956E+02  0.17366096389E+02  0.59301909995E+02  0.49999937933E+02 0.  0.
        -12    1    1    2    0    0 -0.18715046531E+02  0.19102053956E+02 -0.17366096389E+02  0.31886090005E+02  0.00000000000E+00 0.  1.
         11    1    3    3    0    0 -0.85229491137E+00 -0.10098965524E+02  0.13179713978E+02  0.16625894625E+02  0.51100000000E-03 0. -1.
        -11    1    3    3    0    0  0.18208237622E+02 -0.21339608284E+02  0.88539701590E+01  0.29416178998E+02  0.51100000000E-03 0.  1.
        -12    1    3    3    0    0  0.13591038210E+01  0.12336519852E+02 -0.46675877478E+01  0.13259836373E+02  0.00000000000E+00 0.  1.
</event>
<event>
 7    1  0.1101380E-011  0.5930194E+02  0.7816164E-02  0.1266605E+00
        -11   -1    0    0    0    0  0.00000000000E+00  0.00000000000E+00  0.45593999997E+02  0.45594000000E+02  0.51100000000E-03 0.  1.
         11   -1    0    0    0    0 -0.00000000000E+00 -0.00000000000E+00 -0.45593999997E+02  0.45594000000E+02  0.51100000000E-03 0. -1.
    9900012    2    1    2    0    0 -0.19700549870E+02  0.25069773677E+02  0.34001302086E+00  0.59301939938E+02  0.49999992541E+02 0.  0.
        -12    1    1    2    0    0  0.19700549870E+02 -0.25069773677E+02 -0.34001302086E+00  0.31886060062E+02  0.00000000000E+00 0.  1.
         11    1    3    3    0    0 -0.14382064170E+02  0.23334255050E+02 -0.13823071495E+02  0.30698673169E+02  0.51100000000E-03 0. -1.
        -11    1    3    3    0    0 -0.40895730429E+01  0.12828483560E+02  0.58191886858E+01  0.14668249907E+02  0.51100000000E-03 0.  1.
        -12    1    3    3    0    0 -0.12289126575E+01 -0.11092964933E+02  0.83438958300E+01  0.13935016862E+02  0.00000000000E+00 0.  1.
</event>
<event>
 7    1  0.1101380E-011  0.5930192E+02  0.7816164E-02  0.1266605E+00
        -11   -1    0    0    0    0  0.00000000000E+00  0.00000000000E+00  0.45593999997E+02  0.45594000000E+02  0.51100000000E-03 0.  1.
         11   -1    0    0    0    0 -0.00000000000E+00 -0.00000000000E+00 -0.45593999997E+02  0.45594000000E+02  0.51100000000E-03 0. -1.
    9900012    2    1    2    0    0 -0.69456724932E+01 -0.21237065816E+02 -0.22747898645E+02  0.59301918027E+02  0.49999952581E+02 0.  0.
        -12    1    1    2    0    0  0.69456724932E+01  0.21237065816E+02  0.22747898645E+02  0.31886081973E+02  0.00000000000E+00 0.  1.
         11    1    3    3    0    0 -0.15291638063E+02  0.41922673022E+01  0.36076899119E+01  0.16261141613E+02  0.51100000000E-03 0.  1.
        -11    1    3    3    0    0  0.70485793124E+00 -0.49278229860E+01 -0.19481057646E+02  0.20107010503E+02  0.51100000000E-03 0. -1.
        -12    1    3    3    0    0  0.76411076391E+01 -0.20501510132E+02 -0.68745309107E+01  0.22933765911E+02  0.00000000000E+00 0.  1.
</event>
<event>
 7    1  0.1101380E-011  0.5930196E+02  0.7816164E-02  0.1266605E+00
        -11   -1    0    0    0    0  0.00000000000E+00  0.00000000000E+00  0.45593999997E+02  0.45594000000E+02  0.51100000000E-03 0.  1.
         11   -1    0    0    0    0 -0.00000000000E+00 -0.00000000000E+00 -0.45593999997E+02  0.45594000000E+02  0.51100000000E-03 0. -1.
    9900012    2    1    2    0    0  0.94366407359E+01  0.29361989301E+02  0.80958756319E+01  0.59301955931E+02  0.50000021709E+02 0.  0.
        -12    1    1    2    0    0 -0.94366407359E+01 -0.29361989301E+02 -0.80958756319E+01  0.31886044069E+02  0.00000000000E+00 0.  1.
         11    1    3    3    0    0 -0.17691888039E+02  0.63565574704E+00  0.11525046495E+01  0.17740778671E+02  0.51100000000E-03 0. -1.
        -11    1    3    3    0    0  0.43385398087E+01  0.10999388416E+02 -0.16950435972E+00  0.11825320511E+02  0.51100000000E-03 0.  1.
        -12    1    3    3    0    0  0.22789988966E+02  0.17726945139E+02  0.71128753422E+01  0.29735856750E+02  0.00000000000E+00 0.  1.
</event>
<event>
 7    1  0.1101380E-011  0.5930175E+02  0.7816164E-02  0.1266605E+00
        -11   -1    0    0    0    0  0.00000000000E+00  0.00000000000E+00  0.45593999997E+02  0.45594000000E+02  0.51100000000E-03 0. -1.
         11   -1    0    0    0    0 -0.00000000000E+00 -0.00000000000E+00 -0.45593999997E+02  0.45594000000E+02  0.51100000000E-03 0.  1.
    9900012    2    1    2    0    0 -0.30300450124E+02  0.81185193245E+01  0.57188324139E+01  0.59301754095E+02  0.49999653607E+02 0.  0.
        -12    1    1    2    0    0  0.30300450124E+02 -0.81185193245E+01 -0.57188324139E+01  0.31886245905E+02  0.00000000000E+00 0.  1.
         11    1    3    3    0    0  0.90002811802E+00  0.62524815682E+00  0.18379728985E+01  0.21398903027E+01  0.51100000000E-03 0. -1.
        -11    1    3    3    0    0 -0.13174170695E+02 -0.20073076419E+02  0.31571966746E+01  0.24216834259E+02  0.51100000000E-03 0.  1.
         12    1    3    3    0    0 -0.18026307546E+02  0.27566347587E+02  0.72366284083E+00  0.32945029533E+02  0.00000000000E+00 0. -1.
</event>
<event>
 7    1  0.1101380E-011  0.5930192E+02  0.7816164E-02  0.1266605E+00
        -11   -1    0    0    0    0  0.00000000000E+00  0.00000000000E+00  0.45593999997E+02  0.45594000000E+02  0.51100000000E-03 0.  1.
         11   -1    0    0    0    0 -0.00000000000E+00 -0.00000000000E+00 -0.45593999997E+02  0.45594000000E+02  0.51100000000E-03 0. -1.
    9900012    2    1    2    0    0 -0.21470152958E+02  0.16034570573E+02 -0.17281404320E+02  0.59301923779E+02  0.49999963071E+02 0.  0.
        -12    1    1    2    0    0  0.21470152958E+02 -0.16034570573E+02  0.17281404320E+02  0.31886076221E+02  0.00000000000E+00 0.  1.
         11    1    3    3    0    0 -0.19319461113E+01  0.21361168135E+01 -0.19377083981E+01  0.34713289840E+01  0.51100000000E-03 0. -1.
        -11    1    3    3    0    0 -0.20059648779E+02 -0.77434360823E+01  0.89503157147E+01  0.23290737712E+02  0.51100000000E-03 0.  1.
        -12    1    3    3    0    0  0.52144193214E+00  0.21641889842E+02 -0.24294011636E+02  0.32539857083E+02  0.00000000000E+00 0.  1.
</event>
<event>
 7    1  0.1101380E-011  0.5930194E+02  0.7816164E-02  0.1266605E+00
        -11   -1    0    0    0    0  0.00000000000E+00  0.00000000000E+00  0.45593999997E+02  0.45594000000E+02  0.51100000000E-03 0. -1.
         11   -1    0    0    0    0 -0.00000000000E+00 -0.00000000000E+00 -0.45593999997E+02  0.45594000000E+02  0.51100000000E-03 0.  1.
    9900012    2    1    2    0    0 -0.58376377724E+01 -0.94213691954E+01  0.29897838332E+02  0.59301938011E+02  0.49999989027E+02 0.  0.
        -12    1    1    2    0    0  0.58376377724E+01  0.94213691954E+01 -0.29897838332E+02  0.31886061989E+02  0.00000000000E+00 0.  1.
         11    1    3    3    0    0  0.28365922379E+01  0.88884415185E+01  0.15831939792E+01  0.94634640375E+01  0.51100000000E-03 0. -1.
        -11    1    3    3    0    0 -0.17717556132E+02 -0.31640872384E+01  0.19313108534E+01  0.18101193475E+02  0.51100000000E-03 0.  1.
         12    1    3    3    0    0  0.90433261215E+01 -0.15145723476E+02  0.26383333499E+02  0.31737280499E+02  0.00000000000E+00 0. -1.
</event>
<event>
 7    1  0.1101380E-011  0.5930200E+02  0.7816164E-02  0.1266605E+00
        -11   -1    0    0    0    0  0.00000000000E+00  0.00000000000E+00  0.45593999997E+02  0.45594000000E+02  0.51100000000E-03 0. -1.
         11   -1    0    0    0    0 -0.00000000000E+00 -0.00000000000E+00 -0.45593999997E+02  0.45594000000E+02  0.51100000000E-03 0.  1.
    9900012    2    1    2    0    0 -0.20031099790E+02 -0.21079270829E+02  0.13081905043E+02  0.59302002179E+02  0.50000106054E+02 0.  0.
        -12    1    1    2    0    0  0.20031099790E+02  0.21079270829E+02 -0.13081905043E+02  0.31885997821E+02  0.00000000000E+00 0.  1.
         11    1    3    3    0    0  0.28228279100E+01  0.81401956145E+01 -0.41131175379E+00  0.86255619917E+01  0.51100000000E-03 0. -1.
        -11    1    3    3    0    0  0.44997302051E+01 -0.33333285786E+01 -0.60526850430E+01  0.82458260849E+01  0.51100000000E-03 0.  1.
        -12    1    3    3    0    0 -0.27353657905E+02 -0.25886137865E+02  0.19545901840E+02  0.42430614102E+02  0.00000000000E+00 0.  1.
</event>
<event>
 7    1  0.1101380E-011  0.5930194E+02  0.7816164E-02  0.1266605E+00
        -11   -1    0    0    0    0  0.00000000000E+00  0.00000000000E+00  0.45593999997E+02  0.45594000000E+02  0.51100000000E-03 0.  1.
         11   -1    0    0    0    0 -0.00000000000E+00 -0.00000000000E+00 -0.45593999997E+02  0.45594000000E+02  0.51100000000E-03 0. -1.
    9900012    2    1    2    0    0 -0.10221764520E+02 -0.28766693128E+02 -0.92040175049E+01  0.59301936561E+02  0.49999986383E+02 0.  0.
        -12    1    1    2    0    0  0.10221764520E+02  0.28766693128E+02  0.92040175049E+01  0.31886063439E+02  0.00000000000E+00 0.  1.
         11    1    3    3    0    0  0.11562633367E+02 -0.25427488757E+02  0.74495748201E+01  0.28909303695E+02  0.51100000000E-03 0. -1.
        -11    1    3    3    0    0 -0.28371053426E+01  0.98883639163E+00 -0.90280694598E+01  0.95148832135E+01  0.51100000000E-03 0.  1.
        -12    1    3    3    0    0 -0.18947292544E+02 -0.43280407623E+01 -0.76255228652E+01  0.20877749653E+02  0.00000000000E+00 0.  1.
</event>
<event>
 7    1  0.1101380E-011  0.5930194E+02  0.7816164E-02  0.1266605E+00
        -11   -1    0    0    0    0  0.00000000000E+00  0.00000000000E+00  0.45593999997E+02  0.45594000000E+02  0.51100000000E-03 0. -1.
         11   -1    0    0    0    0 -0.00000000000E+00 -0.00000000000E+00 -0.45593999997E+02  0.45594000000E+02  0.51100000000E-03 0.  1.
    9900012    2    1    2    0    0  0.23034098475E+02  0.50794576554E+01  0.21455768065E+02  0.59301944021E+02  0.49999999987E+02 0.  0.
        -12    1    1    2    0    0 -0.23034098475E+02 -0.50794576554E+01 -0.21455768065E+02  0.31886055979E+02  0.00000000000E+00 0.  1.
         11    1    3    3    0    0  0.45063810806E+01 -0.71760654547E+01  0.29854806617E+02  0.31034059745E+02  0.51100000000E-03 0. -1.
        -11    1    3    3    0    0  0.14314762344E+02  0.14525910747E+02 -0.23117583722E+01  0.20524588449E+02  0.51100000000E-03 0.  1.
        -12    1    3    3    0    0  0.42129550507E+01 -0.22703876366E+01 -0.60872801791E+01  0.77432958266E+01  0.00000000000E+00 0.  1.
</event>
<event>
 7    1  0.1101380E-011  0.5930194E+02  0.7816164E-02  0.1266605E+00
        -11   -1    0    0    0    0  0.00000000000E+00  0.00000000000E+00  0.45593999997E+02  0.45594000000E+02  0.51100000000E-03 0. -1.
         11   -1    0    0    0    0 -0.00000000000E+00 -0.00000000000E+00 -0.45593999997E+02  0.45594000000E+02  0.51100000000E-03 0.  1.
    9900012    2    1    2    0    0 -0.14448820925E+02 -0.64803802036E+01  0.27675927132E+02  0.59301941976E+02  0.49999996258E+02 0.  0.
        -12    1    1    2    0    0  0.14448820925E+02  0.64803802036E+01 -0.27675927132E+02  0.31886058024E+02  0.00000000000E+00 0.  1.
         11    1    3    3    0    0  0.69885991052E+01  0.87522210374E+01  0.32252229217E+01  0.11655211439E+02  0.51100000000E-03 0. -1.
        -11    1    3    3    0    0  0.78776591717E+01 -0.25946443436E+01  0.17538383761E+01  0.84773605920E+01  0.51100000000E-03 0.  1.
         12    1    3    3    0    0 -0.29315079202E+02 -0.12637956897E+02  0.22696865834E+02  0.39169369945E+02  0.00000000000E+00 0. -1.
</event>
<event>
 7    1  0.1101380E-011  0.5930189E+02  0.7816164E-02  0.1266605E+00
        -11   -1    0    0    0    0  0.00000000000E+00  0.00000000000E+00  0.45593999997E+02  0.45594000000E+02  0.51100000000E-03 0. -1.
         11   -1    0    0    0    0 -0.00000000000E+00 -0.00000000000E+00 -0.45593999997E+02  0.45594000000E+02  0.51100000000E-03 0.  1.
    9900012    2    1    2    0    0 -0.12337162694E+02  0.18008019995E+02  0.23242836114E+02  0.59301893338E+02  0.49999907553E+02 0.  0.
        -12    1    1    2    0    0  0.12337162694E+02 -0.18008019995E+02 -0.23242836114E+02  0.31886106662E+02  0.00000000000E+00 0.  1.
         11    1    3    3    0    0  0.13074362595E+00 -0.80804043244E+01  0.22710106800E+02  0.24105164988E+02  0.51100000000E-03 0. -1.
        -11    1    3    3    0    0 -0.90073335329E+01  0.62708199243E+00  0.26615891960E+01  0.94132537684E+01  0.51100000000E-03 0.  1.
        -12    1    3    3    0    0 -0.34605727872E+01  0.25461342327E+02 -0.21288598826E+01  0.25783474582E+02  0.00000000000E+00 0.  1.
</event>
<event>
 7    1  0.1101380E-011  0.5930195E+02  0.7816164E-02  0.1266605E+00
        -11   -1    0    0    0    0  0.00000000000E+00  0.00000000000E+00  0.45593999997E+02  0.45594000000E+02  0.51100000000E-03 0.  1.
         11   -1    0    0    0    0 -0.00000000000E+00 -0.00000000000E+00 -0.45593999997E+02  0.45594000000E+02  0.51100000000E-03 0. -1.
    9900012    2    1    2    0    0 -0.78762965625E+01 -0.30845433903E+02  0.18008434752E+01  0.59301954816E+02  0.50000019676E+02 0.  0.
        -12    1    1    2    0    0  0.78762965625E+01  0.30845433903E+02 -0.18008434752E+01  0.31886045184E+02  0.00000000000E+00 0.  1.
         11    1    3    3    0    0 -0.11343364290E+02 -0.16669525902E+02 -0.19715098498E+01  0.20259117912E+02  0.51100000000E-03 0. -1.
        -11    1    3    3    0    0  0.10760186497E+02 -0.22669942168E+02  0.90365944274E+01  0.26671481595E+02  0.51100000000E-03 0.  1.
        -12    1    3    3    0    0 -0.72931187699E+01  0.84940341667E+01 -0.52642411024E+01  0.12371355310E+02  0.00000000000E+00 0.  1.
</event>
<event>
 7    1  0.1101380E-011  0.5930176E+02  0.7816164E-02  0.1266605E+00
        -11   -1    0    0    0    0  0.00000000000E+00  0.00000000000E+00  0.45593999997E+02  0.45594000000E+02  0.51100000000E-03 0.  1.
         11   -1    0    0    0    0 -0.00000000000E+00 -0.00000000000E+00 -0.45593999997E+02  0.45594000000E+02  0.51100000000E-03 0. -1.
    9900012    2    1    2    0    0  0.25338836147E+02 -0.15461568899E+02  0.11645404406E+02  0.59301761999E+02  0.49999668022E+02 0.  0.
        -12    1    1    2    0    0 -0.25338836147E+02  0.15461568899E+02 -0.11645404406E+02  0.31886238001E+02  0.00000000000E+00 0.  1.
         11    1    3    3    0    0 -0.63143870962E+01  0.46852186317E+01 -0.20264806613E+01  0.81196910137E+01  0.51100000000E-03 0. -1.
        -11    1    3    3    0    0  0.12016810940E+01 -0.18172168871E+02  0.13138685754E+01  0.18259189736E+02  0.51100000000E-03 0.  1.
        -12    1    3    3    0    0  0.30451542149E+02 -0.19746186596E+01  0.12358016492E+02  0.32922881249E+02  0.00000000000E+00 0.  1.
</event>
<event>
 7    1  0.1101380E-011  0.5930195E+02  0.7816164E-02  0.1266605E+00
        -11   -1    0    0    0    0  0.00000000000E+00  0.00000000000E+00  0.45593999997E+02  0.45594000000E+02  0.51100000000E-03 0.  1.
         11   -1    0    0    0    0 -0.00000000000E+00 -0.00000000000E+00 -0.45593999997E+02  0.45594000000E+02  0.51100000000E-03 0. -1.
    9900012    2    1    2    0    0  0.26101775545E+02 -0.36098449512E+01 -0.17955124974E+02  0.59301950072E+02  0.50000011024E+02 0.  0.
        -12    1    1    2    0    0 -0.26101775545E+02  0.36098449512E+01  0.17955124974E+02  0.31886049928E+02  0.00000000000E+00 0.  1.
         11    1    3    3    0    0  0.93481383711E+01  0.37270476223E+01 -0.10598616885E+02  0.14615377351E+02  0.51100000000E-03 0. -1.
        -11    1    3    3    0    0  0.37707235607E+01 -0.44652962077E+00 -0.22947584391E+02  0.23259608219E+02  0.51100000000E-03 0.  1.
        -12    1    3    3    0    0  0.12982913613E+02 -0.68903629528E+01  0.15591076302E+02  0.21426964502E+02  0.00000000000E+00 0.  1.
</event>
<event>
 7    1  0.1101380E-011  0.5930191E+02  0.7816164E-02  0.1266605E+00
        -11   -1    0    0    0    0  0.00000000000E+00  0.00000000000E+00  0.45593999997E+02  0.45594000000E+02  0.51100000000E-03 0. -1.
         11   -1    0    0    0    0 -0.00000000000E+00 -0.00000000000E+00 -0.45593999997E+02  0.45594000000E+02  0.51100000000E-03 0.  1.
    9900012    2    1    2    0    0 -0.14598177854E+02 -0.10837040243E+02  0.26194929756E+02  0.59301912394E+02  0.49999942307E+02 0.  0.
        -12    1    1    2    0    0  0.14598177854E+02  0.10837040243E+02 -0.26194929756E+02  0.31886087606E+02  0.00000000000E+00 0.  1.
         11    1    3    3    0    0 -0.27205154874E+02  0.22694925352E+01  0.22718176755E+02  0.35516004891E+02  0.51100000000E-03 0. -1.
        -11    1    3    3    0    0  0.28068373653E+01 -0.13428229618E+02  0.23046602905E+01  0.13910684598E+02  0.51100000000E-03 0.  1.
        -12    1    3    3    0    0  0.98001396540E+01  0.32169684052E+00  0.11720927111E+01  0.98752229048E+01  0.00000000000E+00 0.  1.
</event>
<event>
 7    1  0.1101380E-011  0.5930195E+02  0.7816164E-02  0.1266605E+00
        -11   -1    0    0    0    0  0.00000000000E+00  0.00000000000E+00  0.45593999997E+02  0.45594000000E+02  0.51100000000E-03 0.  1.
         11   -1    0    0    0    0 -0.00000000000E+00 -0.00000000000E+00 -0.45593999997E+02  0.45594000000E+02  0.51100000000E-03 0. -1.
    9900012    2    1    2    0    0  0.27320505715E+02  0.10370890881E+02 -0.12757547493E+02  0.59301946180E+02  0.50000003925E+02 0.  0.
        -12    1    1    2    0    0 -0.27320505715E+02 -0.10370890881E+02  0.12757547493E+02  0.31886053820E+02  0.00000000000E+00 0.  1.
         11    1    3    3    0    0  0.13152758359E+02 -0.45317411910E+01 -0.51277637369E+00  0.13921015428E+02  0.51100000000E-03 0. -1.
        -11    1    3    3    0    0  0.46676673097E+01  0.25152795495E+01 -0.24792014536E+02  0.25352667204E+02  0.51100000000E-03 0.  1.
         12    1    3    3    0    0  0.95000800461E+01  0.12387352522E+02  0.12547243417E+02  0.20028263548E+02  0.00000000000E+00 0. -1.
</event>
<event>
 7    1  0.1101380E-011  0.5930194E+02  0.7816164E-02  0.1266605E+00
        -11   -1    0    0    0    0  0.00000000000E+00  0.00000000000E+00  0.45593999997E+02  0.45594000000E+02  0.51100000000E-03 0.  1.
         11   -1    0    0    0    0 -0.00000000000E+00 -0.00000000000E+00 -0.45593999997E+02  0.45594000000E+02  0.51100000000E-03 0. -1.
    9900012    2    1    2    0    0  0.78671831826E+01  0.15782466382E+02 -0.26565801482E+02  0.59301943099E+02  0.49999998306E+02 0.  0.
        -12    1    1    2    0    0 -0.78671831826E+01 -0.15782466382E+02  0.26565801482E+02  0.31886056901E+02  0.00000000000E+00 0.  1.
         11    1    3    3    0    0 -0.10339739323E+02 -0.10445557006E+02 -0.11693851966E+02  0.18782067098E+02  0.51100000000E-03 0. -1.
        -11    1    3    3    0    0  0.38679843642E+01 -0.31307591494E+01 -0.26300615266E+01  0.56285148830E+01  0.51100000000E-03 0.  1.
        -12    1    3    3    0    0  0.14338938141E+02  0.29358782537E+02 -0.12241887990E+02  0.34891361118E+02  0.00000000000E+00 0.  1.
</event>
<event>
 7    1  0.1101380E-011  0.5930193E+02  0.7816164E-02  0.1266605E+00
        -11   -1    0    0    0    0  0.00000000000E+00  0.00000000000E+00  0.45593999997E+02  0.45594000000E+02  0.51100000000E-03 0. -1.
         11   -1    0    0    0    0 -0.00000000000E+00 -0.00000000000E+00 -0.45593999997E+02  0.45594000000E+02  0.51100000000E-03 0.  1.
    9900012    2    1    2    0    0 -0.17365809523E+02 -0.57502697868E+00  0.26736108772E+02  0.59301929237E+02  0.49999973025E+02 0.  0.
        -12    1    1    2    0    0  0.17365809523E+02  0.57502697868E+00 -0.26736108772E+02  0.31886070763E+02  0.00000000000E+00 0.  1.
         11    1    3    3    0    0 -0.21044021707E+01 -0.13070677245E+02  0.20430883670E+02  0.24345268943E+02  0.51100000000E-03 0. -1.
        -11    1    3    3    0    0  0.10487146754E+01 -0.30146446527E+01 -0.77771480728E+01  0.84066591022E+01  0.51100000000E-03 0.  1.
         12    1    3    3    0    0 -0.16310122028E+02  0.15510294919E+02  0.14082373175E+02  0.26550001192E+02  0.00000000000E+00 0. -1.
</event>
<event>
 7    1  0.1101380E-011  0.5930179E+02  0.7816164E-02  0.1266605E+00
        -11   -1    0    0    0    0  0.00000000000E+00  0.00000000000E+00  0.45593999997E+02  0.45594000000E+02  0.51100000000E-03 0. -1.
         11   -1    0    0    0    0 -0.00000000000E+00 -0.00000000000E+00 -0.45593999997E+02  0.45594000000E+02  0.51100000000E-03 0.  1.
    9900012    2    1    2    0    0 -0.30416125134E+02 -0.35889306943E+01  0.88718100888E+01  0.59301794425E+02  0.49999727160E+02 0.  0.
        -12    1    1    2    0    0  0.30416125134E+02  0.35889306943E+01 -0.88718100888E+01  0.31886205575E+02  0.00000000000E+00 0.  1.
         11    1    3    3    0    0 -0.97892458525E+01 -0.20854171629E+02  0.14051776965E+02  0.26984778020E+02  0.51100000000E-03 0. -1.
        -11    1    3    3    0    0 -0.15732322744E+02  0.33479956262E+01 -0.68250555182E+01  0.17472734094E+02  0.51100000000E-03 0.  1.
        -12    1    3    3    0    0 -0.48945565374E+01  0.13917245308E+02  0.16450886425E+01  0.14844282310E+02  0.00000000000E+00 0.  1.
</event>
<event>
 7    1  0.1101380E-011  0.5930194E+02  0.7816164E-02  0.1266605E+00
        -11   -1    0    0    0    0  0.00000000000E+00  0.00000000000E+00  0.45593999997E+02  0.45594000000E+02  0.51100000000E-03 0.  1.
         11   -1    0    0    0    0 -0.00000000000E+00 -0.00000000000E+00 -0.45593999997E+02  0.45594000000E+02  0.51100000000E-03 0. -1.
    9900012    2    1    2    0    0  0.38454513368E+01 -0.18384910360E+02 -0.25766809864E+02  0.59301938539E+02  0.49999989989E+02 0.  0.
        -12    1    1    2    0    0 -0.38454513368E+01  0.18384910360E+02  0.25766809864E+02  0.31886061461E+02  0.00000000000E+00 0.  1.
         11    1    3    3    0    0  0.55379942189E+01  0.26774817965E+01 -0.18379987727E+01  0.64200100069E+01  0.51100000000E-03 0. -1.
        -11    1    3    3    0    0  0.13868018657E+02 -0.11644315862E+02  0.49317962550E+01  0.18767915386E+02  0.51100000000E-03 0.  1.
        -12    1    3    3    0    0 -0.15560561539E+02 -0.94180762946E+01 -0.28860607347E+02  0.34114013146E+02  0.00000000000E+00 0.  1.
</event>
<event>
 7    1  0.1101380E-011  0.5930194E+02  0.7816164E-02  0.1266605E+00
        -11   -1    0    0    0    0  0.00000000000E+00  0.00000000000E+00  0.45593999997E+02  0.45594000000E+02  0.51100000000E-03 0.  1.
         11   -1    0    0    0    0 -0.00000000000E+00 -0.00000000000E+00 -0.45593999997E+02  0.45594000000E+02  0.51100000000E-03 0. -1.
    9900012    2    1    2    0    0 -0.27579523354E+02  0.15554749658E+02 -0.37604083437E+01  0.59301936959E+02  0.49999987108E+02 0.  0.
        -12    1    1    2    0    0  0.27579523354E+02 -0.15554749658E+02  0.37604083437E+01  0.31886063041E+02  0.00000000000E+00 0.  1.
         11    1    3    3    0    0 -0.13771055489E+02  0.22524265818E+02  0.59336039248E+01  0.27059049794E+02  0.51100000000E-03 0.  1.
        -11    1    3    3    0    0 -0.13482070034E+02  0.70346246442E+01 -0.10054448192E+02  0.18230306772E+02  0.51100000000E-03 0. -1.
        -12    1    3    3    0    0 -0.32639783093E+00 -0.14004140805E+02  0.36043592336E+00  0.14012580393E+02  0.00000000000E+00 0.  1.
</event>
<event>
 7    1  0.1101380E-011  0.5930195E+02  0.7816164E-02  0.1266605E+00
        -11   -1    0    0    0    0  0.00000000000E+00  0.00000000000E+00  0.45593999997E+02  0.45594000000E+02  0.51100000000E-03 0. -1.
         11   -1    0    0    0    0 -0.00000000000E+00 -0.00000000000E+00 -0.45593999997E+02  0.45594000000E+02  0.51100000000E-03 0.  1.
    9900012    2    1    2    0    0 -0.20961792262E+02  0.83341744904E+01 -0.22535853783E+02  0.59301954384E+02  0.50000018888E+02 0.  0.
        -12    1    1    2    0    0  0.20961792262E+02 -0.83341744904E+01  0.22535853783E+02  0.31886045616E+02  0.00000000000E+00 0.  1.
         11    1    3    3    0    0 -0.13459311145E+02 -0.13209089487E+02 -0.58255297104E+01  0.19737525130E+02  0.51100000000E-03 0. -1.
        -11    1    3    3    0    0 -0.16860174180E+02  0.17742774609E+02 -0.16394827784E+02  0.29459495965E+02  0.51100000000E-03 0.  1.
         12    1    3    3    0    0  0.93576930619E+01  0.38004893687E+01 -0.31549628859E+00  0.10104933290E+02  0.00000000000E+00 0. -1.
</event>
<event>
 7    1  0.1101380E-011  0.5930187E+02  0.7816164E-02  0.1266605E+00
        -11   -1    0    0    0    0  0.00000000000E+00  0.00000000000E+00  0.45593999997E+02  0.45594000000E+02  0.51100000000E-03 0. -1.
         11   -1    0    0    0    0 -0.00000000000E+00 -0.00000000000E+00 -0.45593999997E+02  0.45594000000E+02  0.51100000000E-03 0.  1.
    9900012    2    1    2    0    0  0.20966948383E+02 -0.22840078349E+02  0.74460296247E+01  0.59301867267E+02  0.49999860007E+02 0.  0.
        -12    1    1    2    0    0 -0.20966948383E+02  0.22840078349E+02 -0.74460296247E+01  0.31886132733E+02  0.00000000000E+00 0.  1.
         11    1    3    3    0    0 -0.41643030786E+01 -0.17390468678E+01  0.81797727888E+01  0.93420761759E+01  0.51100000000E-03 0. -1.
        -11    1    3    3    0    0  0.27814447170E+02 -0.26948949581E+02 -0.87262116061E+01  0.39699321457E+02  0.51100000000E-03 0.  1.
         12    1    3    3    0    0 -0.26831957083E+01  0.58479180998E+01  0.79924684420E+01  0.10260469634E+02  0.00000000000E+00 0. -1.
</event>
<event>
 7    1  0.1101380E-011  0.5930194E+02  0.7816164E-02  0.1266605E+00
        -11   -1    0    0    0    0  0.00000000000E+00  0.00000000000E+00  0.45593999997E+02  0.45594000000E+02  0.51100000000E-03 0.  1.
         11   -1    0    0    0    0 -0.00000000000E+00 -0.00000000000E+00 -0.45593999997E+02  0.45594000000E+02  0.51100000000E-03 0. -1.
    9900012    2    1    2    0    0  0.86238248920E+01 -0.11141458401E+02 -0.28604519721E+02  0.59301937221E+02  0.49999987586E+02 0.  0.
        -12    1    1    2    0    0 -0.86238248920E+01  0.11141458401E+02  0.28604519721E+02  0.31886062779E+02  0.00000000000E+00 0.  1.
         11    1    3    3    0    0 -0.30403259406E+01 -0.16093206186E+02 -0.15601527445E+02  0.22619516485E+02  0.51100000000E-03 0. -1.
        -11    1    3    3    0    0 -0.89820332618E+01  0.27859483844E+01 -0.12848486782E+02  0.15922375537E+02  0.51100000000E-03 0.  1.
        -12    1    3    3    0    0  0.20646184094E+02  0.21657993997E+01 -0.15450549469E+00  0.20760045199E+02  0.00000000000E+00 0.  1.
</event>
<event>
 7    1  0.1101380E-011  0.5930195E+02  0.7816164E-02  0.1266605E+00
        -11   -1    0    0    0    0  0.00000000000E+00  0.00000000000E+00  0.45593999997E+02  0.45594000000E+02  0.51100000000E-03 0.  1.
         11   -1    0    0    0    0 -0.00000000000E+00 -0.00000000000E+00 -0.45593999997E+02  0.45594000000E+02  0.51100000000E-03 0. -1.
    9900012    2    1    2    0    0 -0.26152281698E+02 -0.12572468050E+01 -0.18198837492E+02  0.59301949859E+02  0.50000010635E+02 0.  0.
        -12    1    1    2    0    0  0.26152281698E+02  0.12572468050E+01  0.18198837492E+02  0.31886050141E+02  0.00000000000E+00 0.  1.
         11    1    3    3    0    0  0.11001153894E+01 -0.99564288228E+01 -0.81434618642E+01  0.12909558481E+02  0.51100000000E-03 0. -1.
        -11    1    3    3    0    0 -0.10076915660E+02 -0.12738600447E+02  0.20547753955E+01  0.16371874443E+02  0.51100000000E-03 0.  1.
         12    1    3    3    0    0 -0.17175481427E+02  0.21437782465E+02 -0.12110151023E+02  0.30020516936E+02  0.00000000000E+00 0. -1.
</event>
<event>
 7    1  0.1101380E-011  0.5930195E+02  0.7816164E-02  0.1266605E+00
        -11   -1    0    0    0    0  0.00000000000E+00  0.00000000000E+00  0.45593999997E+02  0.45594000000E+02  0.51100000000E-03 0.  1.
         11   -1    0    0    0    0 -0.00000000000E+00 -0.00000000000E+00 -0.45593999997E+02  0.45594000000E+02  0.51100000000E-03 0. -1.
    9900012    2    1    2    0    0  0.28776806240E+02 -0.10997354944E+02 -0.82264135579E+01  0.59301948611E+02  0.50000008359E+02 0.  0.
        -12    1    1    2    0    0 -0.28776806240E+02  0.10997354944E+02  0.82264135579E+01  0.31886051389E+02  0.00000000000E+00 0.  1.
         11    1    3    3    0    0  0.20850792273E+01  0.68556006353E+00  0.48528263792E+01  0.53261122887E+01  0.51100000000E-03 0. -1.
        -11    1    3    3    0    0  0.21410159533E+02  0.13022640785E+02  0.95093804167E+00  0.25077647172E+02  0.51100000000E-03 0.  1.
         12    1    3    3    0    0  0.52815674803E+01 -0.24705555793E+02 -0.14030177979E+02  0.28898189151E+02  0.00000000000E+00 0. -1.
</event>
<event>
 7    1  0.1101380E-011  0.5930193E+02  0.7816164E-02  0.1266605E+00
        -11   -1    0    0    0    0  0.00000000000E+00  0.00000000000E+00  0.45593999997E+02  0.45594000000E+02  0.51100000000E-03 0. -1.
         11   -1    0    0    0    0 -0.00000000000E+00 -0.00000000000E+00 -0.45593999997E+02  0.45594000000E+02  0.51100000000E-03 0.  1.
    9900012    2    1    2    0    0 -0.29835191274E+02  0.80565593275E+01  0.78533025227E+01  0.59301934908E+02  0.49999983367E+02 0.  0.
        -12    1    1    2    0    0  0.29835191274E+02 -0.80565593275E+01 -0.78533025227E+01  0.31886065092E+02  0.00000000000E+00 0.  1.
         11    1    3    3    0    0 -0.36318381329E+02  0.52440674503E+01 -0.29447514998E+01  0.36812995361E+02  0.51100000000E-03 0. -1.
        -11    1    3    3    0    0  0.48996656402E+00  0.96830475348E+01  0.21677035918E+01  0.99348082980E+01  0.51100000000E-03 0.  1.
        -12    1    3    3    0    0  0.59932234910E+01 -0.68705556576E+01  0.86303504308E+01  0.12554131249E+02  0.00000000000E+00 0.  1.
</event>
<event>
 7    1  0.1101380E-011  0.5930195E+02  0.7816164E-02  0.1266605E+00
        -11   -1    0    0    0    0  0.00000000000E+00  0.00000000000E+00  0.45593999997E+02  0.45594000000E+02  0.51100000000E-03 0.  1.
         11   -1    0    0    0    0 -0.00000000000E+00 -0.00000000000E+00 -0.45593999997E+02  0.45594000000E+02  0.51100000000E-03 0. -1.
    9900012    2    1    2    0    0  0.13492563471E+02 -0.59617899153E+01 -0.28268848642E+02  0.59301952713E+02  0.50000015840E+02 0.  0.
        -12    1    1    2    0    0 -0.13492563471E+02  0.59617899153E+01  0.28268848642E+02  0.31886047287E+02  0.00000000000E+00 0.  1.
         11    1    3    3    0    0 -0.28913104501E+01 -0.23407793033E+01 -0.19691020776E+01  0.42090720021E+01  0.51100000000E-03 0. -1.
        -11    1    3    3    0    0  0.90906202122E+01  0.16368667817E+02  0.29162913782E+01  0.18949338184E+02  0.51100000000E-03 0.  1.
         12    1    3    3    0    0  0.72932537090E+01 -0.19989678429E+02 -0.29216037943E+02  0.36143542527E+02  0.00000000000E+00 0. -1.
</event>
<event>
 7    1  0.1101380E-011  0.5930192E+02  0.7816164E-02  0.1266605E+00
        -11   -1    0    0    0    0  0.00000000000E+00  0.00000000000E+00  0.45593999997E+02  0.45594000000E+02  0.51100000000E-03 0.  1.
         11   -1    0    0    0    0 -0.00000000000E+00 -0.00000000000E+00 -0.45593999997E+02  0.45594000000E+02  0.51100000000E-03 0. -1.
    9900012    2    1    2    0    0 -0.25909306986E+02 -0.80506784556E+01 -0.16751613768E+02  0.59301918774E+02  0.49999953944E+02 0.  0.
        -12    1    1    2    0    0  0.25909306986E+02  0.80506784556E+01  0.16751613768E+02  0.31886081226E+02  0.00000000000E+00 0.  1.
         11    1    3    3    0    0  0.22326069571E+01 -0.33470744647E+01  0.99069292884E+01  0.10692740036E+02  0.51100000000E-03 0. -1.
        -11    1    3    3    0    0 -0.78268219434E+01  0.71595898592E+01  0.27409643414E+01  0.10955900441E+02  0.51100000000E-03 0.  1.
         12    1    3    3    0    0 -0.20315092000E+02 -0.11863193850E+02 -0.29399507398E+02  0.37653278297E+02  0.00000000000E+00 0. -1.
</event>
<event>
 7    1  0.1101380E-011  0.5930193E+02  0.7816164E-02  0.1266605E+00
        -11   -1    0    0    0    0  0.00000000000E+00  0.00000000000E+00  0.45593999997E+02  0.45594000000E+02  0.51100000000E-03 0. -1.
         11   -1    0    0    0    0 -0.00000000000E+00 -0.00000000000E+00 -0.45593999997E+02  0.45594000000E+02  0.51100000000E-03 0.  1.
    9900012    2    1    2    0    0  0.26556204711E+02  0.11995642231E+02 -0.12945801023E+02  0.59301933995E+02  0.49999981702E+02 0.  0.
        -12    1    1    2    0    0 -0.26556204711E+02 -0.11995642231E+02  0.12945801023E+02  0.31886066005E+02  0.00000000000E+00 0.  1.
         11    1    3    3    0    0  0.21441057383E+02  0.26532725408E+02 -0.15732629993E+02  0.37566209631E+02  0.51100000000E-03 0. -1.
        -11    1    3    3    0    0  0.88736004785E+01 -0.38324811164E+01 -0.11338621865E+01  0.97321292983E+01  0.51100000000E-03 0.  1.
         12    1    3    3    0    0 -0.37584531507E+01 -0.10704602060E+02  0.39206911563E+01  0.12003595066E+02  0.00000000000E+00 0. -1.
</event>
<event>
 7    1  0.1101380E-011  0.5930194E+02  0.7816164E-02  0.1266605E+00
        -11   -1    0    0    0    0  0.00000000000E+00  0.00000000000E+00  0.45593999997E+02  0.45594000000E+02  0.51100000000E-03 0. -1.
         11   -1    0    0    0    0 -0.00000000000E+00 -0.00000000000E+00 -0.45593999997E+02  0.45594000000E+02  0.51100000000E-03 0.  1.
    9900012    2    1    2    0    0 -0.22264113694E+01  0.20351229681E+02  0.24445678406E+02  0.59301942705E+02  0.49999997587E+02 0.  0.
        -12    1    1    2    0    0  0.22264113694E+01 -0.20351229681E+02 -0.24445678406E+02  0.31886057295E+02  0.00000000000E+00 0.  1.
         11    1    3    3    0    0 -0.15082387930E+01 -0.12203966825E+02  0.91859472688E+01  0.15349046159E+02  0.51100000000E-03 0.  1.
        -11    1    3    3    0    0 -0.12411549552E+02  0.22581688219E+02  0.82092740331E+01  0.27043878892E+02  0.51100000000E-03 0. -1.
        -12    1    3    3    0    0  0.11693376976E+02  0.99735082865E+01  0.70504571043E+01  0.16909017654E+02  0.00000000000E+00 0.  1.
</event>
<event>
 7    1  0.1101380E-011  0.5930197E+02  0.7816164E-02  0.1266605E+00
        -11   -1    0    0    0    0  0.00000000000E+00  0.00000000000E+00  0.45593999997E+02  0.45594000000E+02  0.51100000000E-03 0. -1.
         11   -1    0    0    0    0 -0.00000000000E+00 -0.00000000000E+00 -0.45593999997E+02  0.45594000000E+02  0.51100000000E-03 0.  1.
    9900012    2    1    2    0    0  0.35227328751E+01 -0.15992546041E+02  0.27359594787E+02  0.59301974806E+02  0.50000056132E+02 0.  0.
        -12    1    1    2    0    0 -0.35227328751E+01  0.15992546041E+02 -0.27359594787E+02  0.31886025194E+02  0.00000000000E+00 0.  1.
         11    1    3    3    0    0 -0.11250296427E+02 -0.88143447818E+01  0.16023148896E+02  0.21470983779E+02  0.51100000000E-03 0. -1.
        -11    1    3    3    0    0  0.16536227043E+02  0.14937019705E+01  0.19624857709E+02  0.25706283099E+02  0.51100000000E-03 0.  1.
        -12    1    3    3    0    0 -0.17631977413E+01 -0.86719032294E+01 -0.82884118173E+01  0.12124707928E+02  0.00000000000E+00 0.  1.
</event>
<event>
 7    1  0.1101380E-011  0.5930197E+02  0.7816164E-02  0.1266605E+00
        -11   -1    0    0    0    0  0.00000000000E+00  0.00000000000E+00  0.45593999997E+02  0.45594000000E+02  0.51100000000E-03 0. -1.
         11   -1    0    0    0    0 -0.00000000000E+00 -0.00000000000E+00 -0.45593999997E+02  0.45594000000E+02  0.51100000000E-03 0.  1.
    9900012    2    1    2    0    0 -0.18957332195E+01 -0.25632740578E+02  0.18870291796E+02  0.59301966906E+02  0.50000041725E+02 0.  0.
        -12    1    1    2    0    0  0.18957332195E+01  0.25632740578E+02 -0.18870291796E+02  0.31886033094E+02  0.00000000000E+00 0.  1.
         11    1    3    3    0    0  0.55870120888E+01 -0.23216176499E+02  0.21279010539E+01  0.23973600448E+02  0.51100000000E-03 0. -1.
        -11    1    3    3    0    0 -0.59684422214E+01 -0.55757063737E+01 -0.73468188379E+01  0.10985743098E+02  0.51100000000E-03 0.  1.
         12    1    3    3    0    0 -0.15143030870E+01  0.31591422942E+01  0.24089209580E+02  0.24342623360E+02  0.00000000000E+00 0. -1.
</event>
<event>
 7    1  0.1101380E-011  0.5930193E+02  0.7816164E-02  0.1266605E+00
        -11   -1    0    0    0    0  0.00000000000E+00  0.00000000000E+00  0.45593999997E+02  0.45594000000E+02  0.51100000000E-03 0.  1.
         11   -1    0    0    0    0 -0.00000000000E+00 -0.00000000000E+00 -0.45593999997E+02  0.45594000000E+02  0.51100000000E-03 0. -1.
    9900012    2    1    2    0    0 -0.54175838801E+01  0.87593358559E+00 -0.31410256142E+02  0.59301926776E+02  0.49999968537E+02 0.  0.
        -12    1    1    2    0    0  0.54175838801E+01 -0.87593358559E+00  0.31410256142E+02  0.31886073224E+02  0.00000000000E+00 0.  1.
         11    1    3    3    0    0  0.81454172021E+01  0.69646821093E+01 -0.60183222431E+01  0.12291249780E+02  0.51100000000E-03 0. -1.
        -11    1    3    3    0    0  0.37856754203E+01 -0.20809176121E+01  0.80432574281E+01  0.91299258930E+01  0.51100000000E-03 0.  1.
         12    1    3    3    0    0 -0.17348676502E+02 -0.40078309116E+01 -0.33435191327E+02  0.37880751102E+02  0.00000000000E+00 0. -1.
</event>
<event>
 7    1  0.1101380E-011  0.5930192E+02  0.7816164E-02  0.1266605E+00
        -11   -1    0    0    0    0  0.00000000000E+00  0.00000000000E+00  0.45593999997E+02  0.45594000000E+02  0.51100000000E-03 0. -1.
         11   -1    0    0    0    0 -0.00000000000E+00 -0.00000000000E+00 -0.45593999997E+02  0.45594000000E+02  0.51100000000E-03 0.  1.
    9900012    2    1    2    0    0 -0.11086643673E+01 -0.31214250567E+02  0.64158739303E+01  0.59301921322E+02  0.49999958591E+02 0.  0.
        -12    1    1    2    0    0  0.11086643673E+01  0.31214250567E+02 -0.64158739303E+01  0.31886078678E+02  0.00000000000E+00 0.  1.
         11    1    3    3    0    0 -0.49744041172E+01 -0.10460693475E+02 -0.84447424121E+01  0.14334729819E+02  0.51100000000E-03 0. -1.
        -11    1    3    3    0    0 -0.20996070938E+01  0.32963422161E+01 -0.94672113010E+01  0.10242182972E+02  0.51100000000E-03 0.  1.
         12    1    3    3    0    0  0.59653468437E+01 -0.24049899308E+02  0.24327827643E+02  0.34725008532E+02  0.00000000000E+00 0. -1.
</event>
<event>
 7    1  0.1101380E-011  0.5930209E+02  0.7816164E-02  0.1266604E+00
        -11   -1    0    0    0    0  0.00000000000E+00  0.00000000000E+00  0.45593999997E+02  0.45594000000E+02  0.51100000000E-03 0. -1.
         11   -1    0    0    0    0 -0.00000000000E+00 -0.00000000000E+00 -0.45593999997E+02  0.45594000000E+02  0.51100000000E-03 0.  1.
    9900012    2    1    2    0    0 -0.15611219636E+02  0.83963225099E+00  0.27790221495E+02  0.59302085059E+02  0.50000257207E+02 0.  0.
        -12    1    1    2    0    0  0.15611219636E+02 -0.83963225099E+00 -0.27790221495E+02  0.31885914941E+02  0.00000000000E+00 0.  1.
         11    1    3    3    0    0 -0.17199344120E+01 -0.11609986998E+02  0.91334123130E+01  0.14871758242E+02  0.51100000000E-03 0. -1.
        -11    1    3    3    0    0 -0.20956352306E+02  0.48853744858E+01 -0.17081699693E+01  0.21585954478E+02  0.51100000000E-03 0.  1.
         12    1    3    3    0    0  0.70650670817E+01  0.75642447631E+01  0.20364979152E+02  0.22844372339E+02  0.00000000000E+00 0. -1.
</event>
<event>
 7    1  0.1101380E-011  0.5930194E+02  0.7816164E-02  0.1266605E+00
        -11   -1    0    0    0    0  0.00000000000E+00  0.00000000000E+00  0.45593999997E+02  0.45594000000E+02  0.51100000000E-03 0.  1.
         11   -1    0    0    0    0 -0.00000000000E+00 -0.00000000000E+00 -0.45593999997E+02  0.45594000000E+02  0.51100000000E-03 0. -1.
    9900012    2    1    2    0    0 -0.17103649329E+02  0.16204850320E+02  0.21484611451E+02  0.59301944686E+02  0.50000001201E+02 0.  0.
        -12    1    1    2    0    0  0.17103649329E+02 -0.16204850320E+02 -0.21484611451E+02  0.31886055314E+02  0.00000000000E+00 0.  1.
         11    1    3    3    0    0  0.32143315355E+00  0.14869122464E+02  0.15084642655E+02  0.21183497502E+02  0.51100000000E-03 0. -1.
        -11    1    3    3    0    0  0.10048792765E+02 -0.28435883698E+00  0.15020305327E+01  0.10164408098E+02  0.51100000000E-03 0.  1.
        -12    1    3    3    0    0 -0.27473875248E+02  0.16200866920E+01  0.48979382642E+01  0.27954039087E+02  0.00000000000E+00 0.  1.
</event>
<event>
 7    1  0.1101380E-011  0.5930194E+02  0.7816164E-02  0.1266605E+00
        -11   -1    0    0    0    0  0.00000000000E+00  0.00000000000E+00  0.45593999997E+02  0.45594000000E+02  0.51100000000E-03 0.  1.
         11   -1    0    0    0    0 -0.00000000000E+00 -0.00000000000E+00 -0.45593999997E+02  0.45594000000E+02  0.51100000000E-03 0. -1.
    9900012    2    1    2    0    0 -0.17991141783E+02  0.25791511271E+02  0.52761045781E+01  0.59301944807E+02  0.50000001421E+02 0.  0.
        -12    1    1    2    0    0  0.17991141783E+02 -0.25791511271E+02 -0.52761045781E+01  0.31886055193E+02  0.00000000000E+00 0.  1.
         11    1    3    3    0    0 -0.43487747893E+01  0.15020703010E+02 -0.13707820792E+02  0.20795136744E+02  0.51100000000E-03 0. -1.
        -11    1    3    3    0    0  0.89916423587E+01  0.29977962673E+01  0.66965373037E+01  0.11605172420E+02  0.51100000000E-03 0.  1.
        -12    1    3    3    0    0 -0.22634009352E+02  0.77730119934E+01  0.12287388066E+02  0.26901635643E+02  0.00000000000E+00 0.  1.
</event>
<event>
 7    1  0.1101380E-011  0.5930194E+02  0.7816164E-02  0.1266605E+00
        -11   -1    0    0    0    0  0.00000000000E+00  0.00000000000E+00  0.45593999997E+02  0.45594000000E+02  0.51100000000E-03 0. -1.
         11   -1    0    0    0    0 -0.00000000000E+00 -0.00000000000E+00 -0.45593999997E+02  0.45594000000E+02  0.51100000000E-03 0.  1.
    9900012    2    1    2    0    0 -0.12731838373E+02 -0.27760681294E+02  0.91632720163E+01  0.59301942101E+02  0.49999996487E+02 0.  0.
        -12    1    1    2    0    0  0.12731838373E+02  0.27760681294E+02 -0.91632720163E+01  0.31886057899E+02  0.00000000000E+00 0.  1.
         11    1    3    3    0    0  0.94363968023E+00 -0.23726768120E+02  0.18982594787E+02  0.30400475101E+02  0.51100000000E-03 0. -1.
        -11    1    3    3    0    0 -0.17223133508E+02 -0.13342456280E+01  0.89375561915E+00  0.17297842021E+02  0.51100000000E-03 0.  1.
        -12    1    3    3    0    0  0.35476554543E+01 -0.26996675458E+01 -0.10713078389E+02  0.11603624979E+02  0.00000000000E+00 0.  1.
</event>
<event>
 7    1  0.1101380E-011  0.5930195E+02  0.7816164E-02  0.1266605E+00
        -11   -1    0    0    0    0  0.00000000000E+00  0.00000000000E+00  0.45593999997E+02  0.45594000000E+02  0.51100000000E-03 0.  1.
         11   -1    0    0    0    0 -0.00000000000E+00 -0.00000000000E+00 -0.45593999997E+02  0.45594000000E+02  0.51100000000E-03 0. -1.
    9900012    2    1    2    0    0 -0.26917291180E+02  0.15060681864E+00 -0.17092606593E+02  0.59301945885E+02  0.50000003387E+02 0.  0.
        -12    1    1    2    0    0  0.26917291180E+02 -0.15060681864E+00  0.17092606593E+02  0.31886054115E+02  0.00000000000E+00 0.  1.
         11    1    3    3    0    0 -0.35088109839E+01  0.98576648716E+01  0.19730893404E+01  0.10647929050E+02  0.51100000000E-03 0. -1.
        -11    1    3    3    0    0 -0.11190826471E+02  0.13901355720E+02 -0.10596689110E+02  0.20755050188E+02  0.51100000000E-03 0.  1.
        -12    1    3    3    0    0 -0.12217653725E+02 -0.23608413773E+02 -0.84690068235E+01  0.27898966647E+02  0.00000000000E+00 0.  1.
</event>
<event>
 7    1  0.1345389E-011  0.5930195E+02  0.7816164E-02  0.1266605E+00
        -11   -1    0    0    0    0  0.00000000000E+00  0.00000000000E+00  0.45593999997E+02  0.45594000000E+02  0.51100000000E-03 0. -1.
         11   -1    0    0    0    0 -0.00000000000E+00 -0.00000000000E+00 -0.45593999997E+02  0.45594000000E+02  0.51100000000E-03 0.  1.
    9900012    2    1    2    0    0  0.18653346487E+02  0.11620029431E+02  0.23102988423E+02  0.59301945161E+02  0.50000002066E+02 0.  0.
        -12    1    1    2    0    0 -0.18653346487E+02 -0.11620029431E+02 -0.23102988423E+02  0.31886054839E+02  0.00000000000E+00 0.  1.
         11    1    3    3    0    0  0.19292488877E+02 -0.21352612337E+01  0.16406919417E+02  0.25415477029E+02  0.51100000000E-03 0. -1.
        -11    1    3    3    0    0  0.34476594508E+01  0.49610038023E+01 -0.11656666684E+02  0.13129196200E+02  0.51100000000E-03 0.  1.
         12    1    3    3    0    0 -0.40868018412E+01  0.87942868622E+01  0.18352735691E+02  0.20757271931E+02  0.00000000000E+00 0. -1.
</event>
<event>
 7    1  0.1101380E-011  0.5930198E+02  0.7816164E-02  0.1266605E+00
        -11   -1    0    0    0    0  0.00000000000E+00  0.00000000000E+00  0.45593999997E+02  0.45594000000E+02  0.51100000000E-03 0.  1.
         11   -1    0    0    0    0 -0.00000000000E+00 -0.00000000000E+00 -0.45593999997E+02  0.45594000000E+02  0.51100000000E-03 0. -1.
    9900012    2    1    2    0    0 -0.13504023892E+02 -0.59682526990E+01 -0.28261985797E+02  0.59301975746E+02  0.50000057846E+02 0.  0.
        -12    1    1    2    0    0  0.13504023892E+02  0.59682526990E+01  0.28261985797E+02  0.31886024254E+02  0.00000000000E+00 0.  1.
         11    1    3    3    0    0 -0.30837553942E+01  0.41321576863E+01 -0.17171194198E+01  0.54344064845E+01  0.51100000000E-03 0. -1.
        -11    1    3    3    0    0 -0.23697789637E+02 -0.82042871512E+01 -0.10972206862E+01  0.25101781906E+02  0.51100000000E-03 0.  1.
        -12    1    3    3    0    0  0.13277521140E+02 -0.18961232342E+01 -0.25447645691E+02  0.28765787355E+02  0.00000000000E+00 0.  1.
</event>
<event>
 7    1  0.1101380E-011  0.5930195E+02  0.7816164E-02  0.1266605E+00
        -11   -1    0    0    0    0  0.00000000000E+00  0.00000000000E+00  0.45593999997E+02  0.45594000000E+02  0.51100000000E-03 0.  1.
         11   -1    0    0    0    0 -0.00000000000E+00 -0.00000000000E+00 -0.45593999997E+02  0.45594000000E+02  0.51100000000E-03 0. -1.
    9900012    2    1    2    0    0 -0.26824571375E+02  0.15473466763E+02 -0.75983055142E+01  0.59301952113E+02  0.50000014746E+02 0.  0.
        -12    1    1    2    0    0  0.26824571375E+02 -0.15473466763E+02  0.75983055142E+01  0.31886047887E+02  0.00000000000E+00 0.  1.
         11    1    3    3    0    0 -0.22314436801E+02 -0.70551339972E+01 -0.10623386462E+02  0.25701465827E+02  0.51100000000E-03 0. -1.
        -11    1    3    3    0    0 -0.55823170035E+01 -0.71584710130E+00  0.80234529351E+01  0.98005355702E+01  0.51100000000E-03 0.  1.
         12    1    3    3    0    0  0.10721824298E+01  0.23244447862E+02 -0.49983719875E+01  0.23799950716E+02  0.00000000000E+00 0. -1.
</event>
<event>
 7    1  0.1101380E-011  0.5930200E+02  0.7816164E-02  0.1266605E+00
        -11   -1    0    0    0    0  0.00000000000E+00  0.00000000000E+00  0.45593999997E+02  0.45594000000E+02  0.51100000000E-03 0.  1.
         11   -1    0    0    0    0 -0.00000000000E+00 -0.00000000000E+00 -0.45593999997E+02  0.45594000000E+02  0.51100000000E-03 0. -1.
    9900012    2    1    2    0    0  0.27949764044E+02  0.24534868424E+01 -0.15149528310E+02  0.59301998121E+02  0.50000098653E+02 0.  0.
        -12    1    1    2    0    0 -0.27949764044E+02 -0.24534868424E+01  0.15149528310E+02  0.31886001879E+02  0.00000000000E+00 0.  1.
         11    1    3    3    0    0 -0.98864814881E+00 -0.12003219756E+01  0.23461356724E+01  0.28147026240E+01  0.51100000000E-03 0. -1.
        -11    1    3    3    0    0  0.12981468676E+02 -0.19528090784E+02 -0.15835643346E+02  0.28295449441E+02  0.51100000000E-03 0.  1.
         12    1    3    3    0    0  0.15956943517E+02  0.23181899601E+02 -0.16600206363E+01  0.28191846056E+02  0.00000000000E+00 0. -1.
</event>
<event>
 7    1  0.1101380E-011  0.5930194E+02  0.7816164E-02  0.1266605E+00
        -11   -1    0    0    0    0  0.00000000000E+00  0.00000000000E+00  0.45593999997E+02  0.45594000000E+02  0.51100000000E-03 0. -1.
         11   -1    0    0    0    0 -0.00000000000E+00 -0.00000000000E+00 -0.45593999997E+02  0.45594000000E+02  0.51100000000E-03 0.  1.
    9900012    2    1    2    0    0  0.28618974569E+02 -0.38633937305E+01  0.13518469836E+02  0.59301944377E+02  0.50000000637E+02 0.  0.
        -12    1    1    2    0    0 -0.28618974569E+02  0.38633937305E+01 -0.13518469836E+02  0.31886055623E+02  0.00000000000E+00 0.  1.
         11    1    3    3    0    0 -0.41995520904E+00  0.52096945762E+01 -0.44559182198E+01  0.68682230160E+01  0.51100000000E-03 0.  1.
        -11    1    3    3    0    0  0.64892393224E+00 -0.10278676902E+02 -0.86833330067E+01  0.13471175653E+02  0.51100000000E-03 0. -1.
        -12    1    3    3    0    0  0.28390005846E+02  0.12055885948E+01  0.26657721063E+02  0.38962545708E+02  0.00000000000E+00 0.  1.
</event>
<event>
 7    1  0.1101380E-011  0.5930194E+02  0.7816164E-02  0.1266605E+00
        -11   -1    0    0    0    0  0.00000000000E+00  0.00000000000E+00  0.45593999997E+02  0.45594000000E+02  0.51100000000E-03 0.  1.
         11   -1    0    0    0    0 -0.00000000000E+00 -0.00000000000E+00 -0.45593999997E+02  0.45594000000E+02  0.51100000000E-03 0. -1.
    9900012    2    1    2    0    0 -0.30162278777E+02 -0.80367560316E+01  0.65091119876E+01  0.59301936470E+02  0.49999986217E+02 0.  0.
        -12    1    1    2    0    0  0.30162278777E+02  0.80367560316E+01 -0.65091119876E+01  0.31886063530E+02  0.00000000000E+00 0.  1.
         11    1    3    3    0    0 -0.15663941289E+02 -0.14468445707E+02  0.52199378365E+01  0.21953194054E+02  0.51100000000E-03 0. -1.
        -11    1    3    3    0    0 -0.18282012838E+02  0.45724011489E+01  0.14309942984E+02  0.23662487488E+02  0.51100000000E-03 0.  1.
         12    1    3    3    0    0  0.37836753500E+01  0.18592885261E+01 -0.13020768833E+02  0.13686254929E+02  0.00000000000E+00 0. -1.
</event>
<event>
 7    1  0.1101380E-011  0.5930194E+02  0.7816164E-02  0.1266605E+00
        -11   -1    0    0    0    0  0.00000000000E+00  0.00000000000E+00  0.45593999997E+02  0.45594000000E+02  0.51100000000E-03 0.  1.
         11   -1    0    0    0    0 -0.00000000000E+00 -0.00000000000E+00 -0.45593999997E+02  0.45594000000E+02  0.51100000000E-03 0. -1.
    9900012    2    1    2    0    0  0.68675987290E+01  0.27489427109E+02 -0.14624923405E+02  0.59301938787E+02  0.49999990442E+02 0.  0.
        -12    1    1    2    0    0 -0.68675987290E+01 -0.27489427109E+02  0.14624923405E+02  0.31886061213E+02  0.00000000000E+00 0.  1.
         11    1    3    3    0    0 -0.53661136811E+01  0.17149312209E+02  0.10792106991E+02  0.20961003288E+02  0.51100000000E-03 0. -1.
        -11    1    3    3    0    0 -0.45309357313E+00 -0.41010239355E+01  0.22130491479E+01  0.46820164350E+01  0.51100000000E-03 0.  1.
        -12    1    3    3    0    0  0.12686805983E+02  0.14441138835E+02 -0.27630079544E+02  0.33658919064E+02  0.00000000000E+00 0.  1.
</event>
<event>
 7    1  0.1101380E-011  0.5930197E+02  0.7816164E-02  0.1266605E+00
        -11   -1    0    0    0    0  0.00000000000E+00  0.00000000000E+00  0.45593999997E+02  0.45594000000E+02  0.51100000000E-03 0. -1.
         11   -1    0    0    0    0 -0.00000000000E+00 -0.00000000000E+00 -0.45593999997E+02  0.45594000000E+02  0.51100000000E-03 0.  1.
    9900012    2    1    2    0    0 -0.77669936410E+01 -0.18518157079E+02  0.24768344212E+02  0.59301965332E+02  0.50000038854E+02 0.  0.
        -12    1    1    2    0    0  0.77669936410E+01  0.18518157079E+02 -0.24768344212E+02  0.31886034668E+02  0.00000000000E+00 0.  1.
         11    1    3    3    0    0 -0.72151737643E+01 -0.27836789684E+02  0.60002709831E+01  0.29375990953E+02  0.51100000000E-03 0. -1.
        -11    1    3    3    0    0 -0.32142822064E+00  0.88879048154E+01 -0.20297685198E+01  0.91223970870E+01  0.51100000000E-03 0.  1.
        -12    1    3    3    0    0 -0.23039165614E+00  0.43072778941E+00  0.20797841749E+02  0.20803577292E+02  0.00000000000E+00 0.  1.
</event>
<event>
 7    1  0.1101380E-011  0.5930197E+02  0.7816164E-02  0.1266605E+00
        -11   -1    0    0    0    0  0.00000000000E+00  0.00000000000E+00  0.45593999997E+02  0.45594000000E+02  0.51100000000E-03 0.  1.
         11   -1    0    0    0    0 -0.00000000000E+00 -0.00000000000E+00 -0.45593999997E+02  0.45594000000E+02  0.51100000000E-03 0. -1.
    9900012    2    1    2    0    0 -0.86564821326E+00 -0.25919352249E+02 -0.18551459685E+02  0.59301971331E+02  0.50000049795E+02 0.  0.
        -12    1    1    2    0    0  0.86564821326E+00  0.25919352249E+02  0.18551459685E+02  0.31886028669E+02  0.00000000000E+00 0.  1.
         11    1    3    3    0    0 -0.75063268603E+01 -0.32767653891E+02 -0.33047342707E+01  0.33778474703E+02  0.51100000000E-03 0. -1.
        -11    1    3    3    0    0 -0.62590388640E+01  0.30522807948E+01 -0.61333021935E+01  0.92795140826E+01  0.51100000000E-03 0.  1.
        -12    1    3    3    0    0  0.12899717511E+02  0.37960208471E+01 -0.91134232205E+01  0.16243982545E+02  0.00000000000E+00 0.  1.
</event>
<event>
 7    1  0.1101380E-011  0.5930180E+02  0.7816164E-02  0.1266605E+00
        -11   -1    0    0    0    0  0.00000000000E+00  0.00000000000E+00  0.45593999997E+02  0.45594000000E+02  0.51100000000E-03 0.  1.
         11   -1    0    0    0    0 -0.00000000000E+00 -0.00000000000E+00 -0.45593999997E+02  0.45594000000E+02  0.51100000000E-03 0. -1.
    9900012    2    1    2    0    0 -0.24437146267E+02  0.16728245506E+01 -0.20414634761E+02  0.59301799660E+02  0.49999736708E+02 0.  0.
        -12    1    1    2    0    0  0.24437146267E+02 -0.16728245506E+01  0.20414634761E+02  0.31886200340E+02  0.00000000000E+00 0.  1.
         11    1    3    3    0    0 -0.24735986856E+02  0.87294420877E+01 -0.19895395306E+01  0.26306472069E+02  0.51100000000E-03 0. -1.
        -11    1    3    3    0    0 -0.16137507921E+01 -0.43826483041E+00  0.67192979453E+01  0.69242496214E+01  0.51100000000E-03 0.  1.
         12    1    3    3    0    0  0.19125913808E+01 -0.66183527066E+01 -0.25144393176E+02  0.26071077970E+02  0.00000000000E+00 0. -1.
</event>
<event>
 7    1  0.1101380E-011  0.5930183E+02  0.7816164E-02  0.1266605E+00
        -11   -1    0    0    0    0  0.00000000000E+00  0.00000000000E+00  0.45593999997E+02  0.45594000000E+02  0.51100000000E-03 0.  1.
         11   -1    0    0    0    0 -0.00000000000E+00 -0.00000000000E+00 -0.45593999997E+02  0.45594000000E+02  0.51100000000E-03 0. -1.
    9900012    2    1    2    0    0  0.46109732211E+01 -0.19214350792E+02 -0.25025491991E+02  0.59301833724E+02  0.49999798832E+02 0.  0.
        -12    1    1    2    0    0 -0.46109732211E+01  0.19214350792E+02  0.25025491991E+02  0.31886166276E+02  0.00000000000E+00 0.  1.
         11    1    3    3    0    0 -0.11860151618E+02  0.29379631861E+01 -0.61420913686E+01  0.13675529633E+02  0.51100000000E-03 0. -1.
        -11    1    3    3    0    0 -0.52764239736E+01 -0.17164250826E+02 -0.14040628730E+02  0.22794547852E+02  0.51100000000E-03 0.  1.
        -12    1    3    3    0    0  0.21747548813E+02 -0.49880631516E+01 -0.48427718921E+01  0.22831756240E+02  0.00000000000E+00 0.  1.
</event>
<event>
 7    1  0.1101380E-011  0.5930194E+02  0.7816164E-02  0.1266605E+00
        -11   -1    0    0    0    0  0.00000000000E+00  0.00000000000E+00  0.45593999997E+02  0.45594000000E+02  0.51100000000E-03 0.  1.
         11   -1    0    0    0    0 -0.00000000000E+00 -0.00000000000E+00 -0.45593999997E+02  0.45594000000E+02  0.51100000000E-03 0. -1.
    9900012    2    1    2    0    0 -0.29116998656E+02 -0.68791031940E+01 -0.11027203538E+02  0.59301938949E+02  0.49999990738E+02 0.  0.
        -12    1    1    2    0    0  0.29116998656E+02  0.68791031940E+01  0.11027203538E+02  0.31886061051E+02  0.00000000000E+00 0.  1.
         11    1    3    3    0    0 -0.57521321779E+00 -0.28610262020E+01  0.10994176259E+02  0.11374895738E+02  0.51100000000E-03 0.  1.
        -11    1    3    3    0    0 -0.30741954100E+02 -0.72758556876E+01 -0.27018284218E+02  0.41569141202E+02  0.51100000000E-03 0. -1.
         12    1    3    3    0    0  0.22001686620E+01  0.32577786956E+01  0.49969044212E+01  0.63579020098E+01  0.00000000000E+00 0. -1.
</event>
<event>
 7    1  0.1101380E-011  0.5930194E+02  0.7816164E-02  0.1266605E+00
        -11   -1    0    0    0    0  0.00000000000E+00  0.00000000000E+00  0.45593999997E+02  0.45594000000E+02  0.51100000000E-03 0.  1.
         11   -1    0    0    0    0 -0.00000000000E+00 -0.00000000000E+00 -0.45593999997E+02  0.45594000000E+02  0.51100000000E-03 0. -1.
    9900012    2    1    2    0    0  0.26722065221E+01  0.17261304305E+01 -0.31726974646E+02  0.59301935111E+02  0.49999983737E+02 0.  0.
        -12    1    1    2    0    0 -0.26722065221E+01 -0.17261304305E+01  0.31726974646E+02  0.31886064889E+02  0.00000000000E+00 0.  1.
         11    1    3    3    0    0  0.71315653916E+01 -0.10147319722E+02 -0.11478712400E+02  0.16899353866E+02  0.51100000000E-03 0. -1.
        -11    1    3    3    0    0  0.53845602964E+01  0.13527585910E+02 -0.26773993506E+02  0.30476807554E+02  0.51100000000E-03 0.  1.
         12    1    3    3    0    0 -0.98439191659E+01 -0.16541357583E+01  0.65257312600E+01  0.11925773691E+02  0.00000000000E+00 0. -1.
</event>
<event>
 7    1  0.1101380E-011  0.5930193E+02  0.7816164E-02  0.1266605E+00
        -11   -1    0    0    0    0  0.00000000000E+00  0.00000000000E+00  0.45593999997E+02  0.45594000000E+02  0.51100000000E-03 0. -1.
         11   -1    0    0    0    0 -0.00000000000E+00 -0.00000000000E+00 -0.45593999997E+02  0.45594000000E+02  0.51100000000E-03 0.  1.
    9900012    2    1    2    0    0  0.23566129062E+02  0.20117819125E+02  0.75254309996E+01  0.59301934124E+02  0.49999981938E+02 0.  0.
        -12    1    1    2    0    0 -0.23566129062E+02 -0.20117819125E+02 -0.75254309996E+01  0.31886065876E+02  0.00000000000E+00 0.  1.
         11    1    3    3    0    0  0.32283787296E+02  0.22556222195E+02  0.16572854777E+02  0.42728042286E+02  0.51100000000E-03 0. -1.
        -11    1    3    3    0    0 -0.30179975937E+01 -0.14114997877E+01  0.21515274367E+01  0.39660700571E+01  0.51100000000E-03 0.  1.
        -12    1    3    3    0    0 -0.56996606404E+01 -0.10269032822E+01 -0.11198951214E+02  0.12607821781E+02  0.00000000000E+00 0.  1.
</event>
<event>
 7    1  0.1101380E-011  0.5930195E+02  0.7816164E-02  0.1266605E+00
        -11   -1    0    0    0    0  0.00000000000E+00  0.00000000000E+00  0.45593999997E+02  0.45594000000E+02  0.51100000000E-03 0.  1.
         11   -1    0    0    0    0 -0.00000000000E+00 -0.00000000000E+00 -0.45593999997E+02  0.45594000000E+02  0.51100000000E-03 0. -1.
    9900012    2    1    2    0    0  0.23254246566E+00 -0.20455431796E+02 -0.24458975422E+02  0.59301949058E+02  0.50000009175E+02 0.  0.
        -12    1    1    2    0    0 -0.23254246566E+00  0.20455431796E+02  0.24458975422E+02  0.31886050942E+02  0.00000000000E+00 0.  1.
         11    1    3    3    0    0  0.50972613809E+01  0.37028416452E+01 -0.42294960295E+01  0.75882637513E+01  0.51100000000E-03 0.  1.
        -11    1    3    3    0    0  0.27719423244E+01 -0.34569022351E+02 -0.14559439274E+02  0.37612208693E+02  0.51100000000E-03 0. -1.
         12    1    3    3    0    0 -0.76366612397E+01  0.10410748910E+02 -0.56700401186E+01  0.14101476614E+02  0.00000000000E+00 0. -1.
</event>
<event>
 7    1  0.1101380E-011  0.5930193E+02  0.7816164E-02  0.1266605E+00
        -11   -1    0    0    0    0  0.00000000000E+00  0.00000000000E+00  0.45593999997E+02  0.45594000000E+02  0.51100000000E-03 0.  1.
         11   -1    0    0    0    0 -0.00000000000E+00 -0.00000000000E+00 -0.45593999997E+02  0.45594000000E+02  0.51100000000E-03 0. -1.
    9900012    2    1    2    0    0  0.20637387684E+02  0.23640970986E+02 -0.56501439051E+01  0.59301930851E+02  0.49999975970E+02 0.  0.
        -12    1    1    2    0    0 -0.20637387684E+02 -0.23640970986E+02  0.56501439051E+01  0.31886069149E+02  0.00000000000E+00 0.  1.
         11    1    3    3    0    0 -0.85491917244E+00 -0.72212921988E+01 -0.30529377009E+01  0.78865947454E+01  0.51100000000E-03 0. -1.
        -11    1    3    3    0    0  0.11900174871E+02  0.29438456650E+01  0.13133135744E+02  0.17965512628E+02  0.51100000000E-03 0.  1.
         12    1    3    3    0    0  0.95921319857E+01  0.27918417520E+02 -0.15730341949E+02  0.33449823478E+02  0.00000000000E+00 0. -1.
</event>
<event>
 7    1  0.1101380E-011  0.5930193E+02  0.7816164E-02  0.1266605E+00
        -11   -1    0    0    0    0  0.00000000000E+00  0.00000000000E+00  0.45593999997E+02  0.45594000000E+02  0.51100000000E-03 0. -1.
         11   -1    0    0    0    0 -0.00000000000E+00 -0.00000000000E+00 -0.45593999997E+02  0.45594000000E+02  0.51100000000E-03 0.  1.
    9900012    2    1    2    0    0 -0.70113727642E+01  0.21469892440E+02  0.22507907757E+02  0.59301928730E+02  0.49999972100E+02 0.  0.
        -12    1    1    2    0    0  0.70113727642E+01 -0.21469892440E+02 -0.22507907757E+02  0.31886071270E+02  0.00000000000E+00 0.  1.
         11    1    3    3    0    0  0.38706309491E+01 -0.13935458904E+02  0.16270404692E+01  0.14554245421E+02  0.51100000000E-03 0.  1.
        -11    1    3    3    0    0 -0.10306281495E+02  0.18594012092E+02  0.55108125519E+01  0.21961916564E+02  0.51100000000E-03 0. -1.
        -12    1    3    3    0    0 -0.57572221843E+00  0.16811339253E+02  0.15370054736E+02  0.22785766745E+02  0.00000000000E+00 0.  1.
</event>
<event>
 7    1  0.1101380E-011  0.5930200E+02  0.7816164E-02  0.1266605E+00
        -11   -1    0    0    0    0  0.00000000000E+00  0.00000000000E+00  0.45593999997E+02  0.45594000000E+02  0.51100000000E-03 0.  1.
         11   -1    0    0    0    0 -0.00000000000E+00 -0.00000000000E+00 -0.45593999997E+02  0.45594000000E+02  0.51100000000E-03 0. -1.
    9900012    2    1    2    0    0  0.28466906707E+02  0.99132663689E+01 -0.10396122709E+02  0.59302000016E+02  0.50000102110E+02 0.  0.
        -12    1    1    2    0    0 -0.28466906707E+02 -0.99132663689E+01  0.10396122709E+02  0.31885999984E+02  0.00000000000E+00 0.  1.
         11    1    3    3    0    0  0.17500600921E+02  0.17440460869E+01 -0.42848196546E+01  0.18101723925E+02  0.51100000000E-03 0. -1.
        -11    1    3    3    0    0 -0.33090516138E+00 -0.14860265485E+02 -0.43560107144E+01  0.15489087066E+02  0.51100000000E-03 0.  1.
         12    1    3    3    0    0  0.11297210948E+02  0.23029485767E+02 -0.17552923403E+01  0.25711189026E+02  0.00000000000E+00 0. -1.
</event>
<event>
 7    1  0.1101380E-011  0.5930195E+02  0.7816164E-02  0.1266605E+00
        -11   -1    0    0    0    0  0.00000000000E+00  0.00000000000E+00  0.45593999997E+02  0.45594000000E+02  0.51100000000E-03 0.  1.
         11   -1    0    0    0    0 -0.00000000000E+00 -0.00000000000E+00 -0.45593999997E+02  0.45594000000E+02  0.51100000000E-03 0. -1.
    9900012    2    1    2    0    0  0.74445718816E+01 -0.13482755543E+01 -0.30975484870E+02  0.59301950380E+02  0.50000011585E+02 0.  0.
        -12    1    1    2    0    0 -0.74445718816E+01  0.13482755543E+01  0.30975484870E+02  0.31886049620E+02  0.00000000000E+00 0.  1.
         11    1    3    3    0    0  0.15832023480E+02 -0.85361335888E+01 -0.61424611009E+01  0.19006535002E+02  0.51100000000E-03 0. -1.
        -11    1    3    3    0    0 -0.75161155916E+01 -0.40628182409E+01  0.39252503850E+01  0.94024505578E+01  0.51100000000E-03 0.  1.
         12    1    3    3    0    0 -0.87133600722E+00  0.11250676275E+02 -0.28758274154E+02  0.30892964820E+02  0.00000000000E+00 0. -1.
</event>
<event>
 7    1  0.1101380E-011  0.5930188E+02  0.7816164E-02  0.1266605E+00
        -11   -1    0    0    0    0  0.00000000000E+00  0.00000000000E+00  0.45593999997E+02  0.45594000000E+02  0.51100000000E-03 0. -1.
         11   -1    0    0    0    0 -0.00000000000E+00 -0.00000000000E+00 -0.45593999997E+02  0.45594000000E+02  0.51100000000E-03 0.  1.
    9900012    2    1    2    0    0 -0.57675107094E+01  0.18425706244E+02  0.25376249983E+02  0.59301876160E+02  0.49999876225E+02 0.  0.
        -12    1    1    2    0    0  0.57675107094E+01 -0.18425706244E+02 -0.25376249983E+02  0.31886123840E+02  0.00000000000E+00 0.  1.
         11    1    3    3    0    0  0.10716110276E+01 -0.38985806096E+01  0.76004862935E+01  0.86089879268E+01  0.51100000000E-03 0. -1.
        -11    1    3    3    0    0  0.14844962942E+02  0.10088817926E+01 -0.10737424545E+01  0.14917898322E+02  0.51100000000E-03 0.  1.
         12    1    3    3    0    0 -0.21684084679E+02  0.21315405061E+02  0.18849506144E+02  0.35774989911E+02  0.00000000000E+00 0. -1.
</event>
<event>
 7    1  0.1101380E-011  0.5930195E+02  0.7816164E-02  0.1266605E+00
        -11   -1    0    0    0    0  0.00000000000E+00  0.00000000000E+00  0.45593999997E+02  0.45594000000E+02  0.51100000000E-03 0.  1.
         11   -1    0    0    0    0 -0.00000000000E+00 -0.00000000000E+00 -0.45593999997E+02  0.45594000000E+02  0.51100000000E-03 0. -1.
    9900012    2    1    2    0    0  0.86234386865E+01  0.27154456349E+02 -0.14317541827E+02  0.59301949784E+02  0.50000010499E+02 0.  0.
        -12    1    1    2    0    0 -0.86234386865E+01 -0.27154456349E+02  0.14317541827E+02  0.31886050216E+02  0.00000000000E+00 0.  1.
         11    1    3    3    0    0 -0.80707407347E+00 -0.50583072597E+01 -0.69898007339E+01  0.86657460992E+01  0.51100000000E-03 0. -1.
        -11    1    3    3    0    0  0.16494523975E+02  0.26480265206E+01 -0.11024169875E+02  0.20015336302E+02  0.51100000000E-03 0.  1.
         12    1    3    3    0    0 -0.70640112147E+01  0.29564737088E+02  0.36964287818E+01  0.30620867383E+02  0.00000000000E+00 0. -1.
</event>
<event>
 7    1  0.1101380E-011  0.5930190E+02  0.7816164E-02  0.1266605E+00
        -11   -1    0    0    0    0  0.00000000000E+00  0.00000000000E+00  0.45593999997E+02  0.45594000000E+02  0.51100000000E-03 0.  1.
         11   -1    0    0    0    0 -0.00000000000E+00 -0.00000000000E+00 -0.45593999997E+02  0.45594000000E+02  0.51100000000E-03 0. -1.
    9900012    2    1    2    0    0 -0.24562365892E+02 -0.31691528538E+01 -0.20084070233E+02  0.59301902322E+02  0.49999923938E+02 0.  0.
        -12    1    1    2    0    0  0.24562365892E+02  0.31691528538E+01  0.20084070233E+02  0.31886097678E+02  0.00000000000E+00 0.  1.
         11    1    3    3    0    0  0.74824364162E-01  0.14773236976E+02  0.83086616777E+01  0.16949571929E+02  0.51100000000E-03 0.  1.
        -11    1    3    3    0    0 -0.11181371998E+02 -0.41063133722E+01 -0.84835699283E+01  0.14623811003E+02  0.51100000000E-03 0. -1.
        -12    1    3    3    0    0 -0.13455818258E+02 -0.13836076457E+02 -0.19909161982E+02  0.27728519390E+02  0.00000000000E+00 0.  1.
</event>
<event>
 7    1  0.1101380E-011  0.5930194E+02  0.7816164E-02  0.1266605E+00
        -11   -1    0    0    0    0  0.00000000000E+00  0.00000000000E+00  0.45593999997E+02  0.45594000000E+02  0.51100000000E-03 0.  1.
         11   -1    0    0    0    0 -0.00000000000E+00 -0.00000000000E+00 -0.45593999997E+02  0.45594000000E+02  0.51100000000E-03 0. -1.
    9900012    2    1    2    0    0 -0.18249188664E+02  0.21637646601E+02 -0.14679920848E+02  0.59301941707E+02  0.49999995768E+02 0.  0.
        -12    1    1    2    0    0  0.18249188664E+02 -0.21637646601E+02  0.14679920848E+02  0.31886058293E+02  0.00000000000E+00 0.  1.
         11    1    3    3    0    0  0.17452718659E+01  0.14283635872E+01 -0.82088684424E+01  0.85130322324E+01  0.51100000000E-03 0.  1.
        -11    1    3    3    0    0 -0.26681718599E+02  0.85083689650E+01 -0.17799365403E+02  0.33183186387E+02  0.51100000000E-03 0. -1.
         12    1    3    3    0    0  0.66872580683E+01  0.11700914049E+02  0.11328312998E+02  0.17605723087E+02  0.00000000000E+00 0. -1.
</event>
<event>
 7    1  0.1101380E-011  0.5930197E+02  0.7816164E-02  0.1266605E+00
        -11   -1    0    0    0    0  0.00000000000E+00  0.00000000000E+00  0.45593999997E+02  0.45594000000E+02  0.51100000000E-03 0. -1.
         11   -1    0    0    0    0 -0.00000000000E+00 -0.00000000000E+00 -0.45593999997E+02  0.45594000000E+02  0.51100000000E-03 0.  1.
    9900012    2    1    2    0    0 -0.27970209508E+02  0.14511423831E+02 -0.48790557850E+01  0.59301965018E+02  0.50000038281E+02 0.  0.
        -12    1    1    2    0    0  0.27970209508E+02 -0.14511423831E+02  0.48790557850E+01  0.31886034982E+02  0.00000000000E+00 0.  1.
         11    1    3    3    0    0 -0.64503441264E+01 -0.34647281882E+01  0.28210515225E+01  0.78466306604E+01  0.51100000000E-03 0. -1.
        -11    1    3    3    0    0 -0.21947662787E+02  0.42681080521E+01 -0.22192191983E+02  0.31502540111E+02  0.51100000000E-03 0.  1.
         12    1    3    3    0    0  0.42779740541E+00  0.13708043967E+02  0.14492084675E+02  0.19952794247E+02  0.00000000000E+00 0. -1.
</event>
<event>
 7    1  0.1101380E-011  0.5930199E+02  0.7816164E-02  0.1266605E+00
        -11   -1    0    0    0    0  0.00000000000E+00  0.00000000000E+00  0.45593999997E+02  0.45594000000E+02  0.51100000000E-03 0.  1.
         11   -1    0    0    0    0 -0.00000000000E+00 -0.00000000000E+00 -0.45593999997E+02  0.45594000000E+02  0.51100000000E-03 0. -1.
    9900012    2    1    2    0    0  0.21472553232E+02  0.23267184939E+02 -0.37795787524E+01  0.59301989700E+02  0.50000083296E+02 0.  0.
        -12    1    1    2    0    0 -0.21472553232E+02 -0.23267184939E+02  0.37795787524E+01  0.31886010300E+02  0.00000000000E+00 0.  1.
         11    1    3    3    0    0  0.45129317108E+01  0.34008653176E+01  0.97164779990E+00  0.57338065230E+01  0.51100000000E-03 0. -1.
        -11    1    3    3    0    0 -0.88493855464E+00  0.31202262536E+02 -0.78878402994E+01  0.32195998641E+02  0.51100000000E-03 0.  1.
        -12    1    3    3    0    0  0.17844560076E+02 -0.11335942915E+02  0.31366137470E+01  0.21372184537E+02  0.00000000000E+00 0.  1.
</event>
<event>
 7    1  0.1101380E-011  0.5930181E+02  0.7816164E-02  0.1266605E+00
        -11   -1    0    0    0    0  0.00000000000E+00  0.00000000000E+00  0.45593999997E+02  0.45594000000E+02  0.51100000000E-03 0. -1.
         11   -1    0    0    0    0 -0.00000000000E+00 -0.00000000000E+00 -0.45593999997E+02  0.45594000000E+02  0.51100000000E-03 0.  1.
    9900012    2    1    2    0    0  0.66434079799E+01 -0.24606791109E+02  0.19159859520E+02  0.59301807768E+02  0.49999751494E+02 0.  0.
        -12    1    1    2    0    0 -0.66434079799E+01  0.24606791109E+02 -0.19159859520E+02  0.31886192232E+02  0.00000000000E+00 0.  1.
         11    1    3    3    0    0  0.22324554337E+01  0.73850450230E+00 -0.38806894504E+01  0.45375100038E+01  0.51100000000E-03 0. -1.
        -11    1    3    3    0    0 -0.93041971021E+01  0.87964804224E+01  0.45740632047E+01  0.13596624802E+02  0.51100000000E-03 0.  1.
         12    1    3    3    0    0  0.13715149648E+02 -0.34141776033E+02  0.18466485766E+02  0.41167672962E+02  0.00000000000E+00 0. -1.
</event>
<event>
 7    1  0.1101380E-011  0.5930194E+02  0.7816164E-02  0.1266605E+00
        -11   -1    0    0    0    0  0.00000000000E+00  0.00000000000E+00  0.45593999997E+02  0.45594000000E+02  0.51100000000E-03 0. -1.
         11   -1    0    0    0    0 -0.00000000000E+00 -0.00000000000E+00 -0.45593999997E+02  0.45594000000E+02  0.51100000000E-03 0.  1.
    9900012    2    1    2    0    0  0.22482072889E+02  0.13518992302E+00  0.22611030443E+02  0.59301943872E+02  0.49999999717E+02 0.  0.
        -12    1    1    2    0    0 -0.22482072889E+02 -0.13518992302E+00 -0.22611030443E+02  0.31886056128E+02  0.00000000000E+00 0.  1.
         11    1    3    3    0    0  0.21284908393E+02 -0.12580172556E+02  0.81385493593E+01  0.26029676386E+02  0.51100000000E-03 0. -1.
        -11    1    3    3    0    0  0.69476671850E+01 -0.60026342400E+01  0.45904566099E+00  0.91930637066E+01  0.51100000000E-03 0.  1.
        -12    1    3    3    0    0 -0.57505026887E+01  0.18717996719E+02  0.14013435422E+02  0.24079203780E+02  0.00000000000E+00 0.  1.
</event>
<event>
 7    1  0.1101380E-011  0.5930194E+02  0.7816164E-02  0.1266605E+00
        -11   -1    0    0    0    0  0.00000000000E+00  0.00000000000E+00  0.45593999997E+02  0.45594000000E+02  0.51100000000E-03 0.  1.
         11   -1    0    0    0    0 -0.00000000000E+00 -0.00000000000E+00 -0.45593999997E+02  0.45594000000E+02  0.51100000000E-03 0. -1.
    9900012    2    1    2    0    0 -0.36446475092E+01 -0.25068826293E+02 -0.19364698559E+02  0.59301936313E+02  0.49999985929E+02 0.  0.
        -12    1    1    2    0    0  0.36446475092E+01  0.25068826293E+02  0.19364698559E+02  0.31886063687E+02  0.00000000000E+00 0.  1.
         11    1    3    3    0    0 -0.14092785468E+02 -0.16369358385E+02 -0.13601741624E+01  0.21642841085E+02  0.51100000000E-03 0. -1.
        -11    1    3    3    0    0  0.27600130807E+01  0.10550973741E+02 -0.11952449837E+01  0.10971295727E+02  0.51100000000E-03 0.  1.
        -12    1    3    3    0    0  0.76881248784E+01 -0.19250441649E+02 -0.16809279413E+02  0.26687799501E+02  0.00000000000E+00 0.  1.
</event>
<event>
 7    1  0.1101380E-011  0.5930196E+02  0.7816164E-02  0.1266605E+00
        -11   -1    0    0    0    0  0.00000000000E+00  0.00000000000E+00  0.45593999997E+02  0.45594000000E+02  0.51100000000E-03 0. -1.
         11   -1    0    0    0    0 -0.00000000000E+00 -0.00000000000E+00 -0.45593999997E+02  0.45594000000E+02  0.51100000000E-03 0.  1.
    9900012    2    1    2    0    0 -0.23320910528E+02 -0.13111979929E+02  0.17347347845E+02  0.59301962887E+02  0.50000034395E+02 0.  0.
        -12    1    1    2    0    0  0.23320910528E+02  0.13111979929E+02 -0.17347347845E+02  0.31886037113E+02  0.00000000000E+00 0.  1.
         11    1    3    3    0    0 -0.13387220190E+02  0.19510509520E+01  0.14187954115E+02  0.19604140034E+02  0.51100000000E-03 0. -1.
        -11    1    3    3    0    0 -0.86944451489E+01  0.10469409163E+02 -0.15779286221E+01  0.13700064367E+02  0.51100000000E-03 0.  1.
        -12    1    3    3    0    0 -0.12392451888E+01 -0.25532440044E+02  0.47373223520E+01  0.25997758486E+02  0.00000000000E+00 0.  1.
</event>
<event>
 7    1  0.1101380E-011  0.5930194E+02  0.7816164E-02  0.1266605E+00
        -11   -1    0    0    0    0  0.00000000000E+00  0.00000000000E+00  0.45593999997E+02  0.45594000000E+02  0.51100000000E-03 0.  1.
         11   -1    0    0    0    0 -0.00000000000E+00 -0.00000000000E+00 -0.45593999997E+02  0.45594000000E+02  0.51100000000E-03 0. -1.
    9900012    2    1    2    0    0  0.13789097358E+00 -0.72112700211E+01 -0.31059611841E+02  0.59301938517E+02  0.49999989949E+02 0.  0.
        -12    1    1    2    0    0 -0.13789097358E+00  0.72112700211E+01  0.31059611841E+02  0.31886061483E+02  0.00000000000E+00 0.  1.
         11    1    3    3    0    0 -0.36766203148E+01 -0.24100043927E+02 -0.77272471043E+01  0.25574205800E+02  0.51100000000E-03 0. -1.
        -11    1    3    3    0    0  0.32572616323E+01  0.39745738067E+01  0.18173109906E+01  0.54506522347E+01  0.51100000000E-03 0.  1.
        -12    1    3    3    0    0  0.55724965608E+00  0.12914200100E+02 -0.25149675727E+02  0.28277080482E+02  0.00000000000E+00 0.  1.
</event>
<event>
 7    1  0.1101380E-011  0.5930193E+02  0.7816164E-02  0.1266605E+00
        -11   -1    0    0    0    0  0.00000000000E+00  0.00000000000E+00  0.45593999997E+02  0.45594000000E+02  0.51100000000E-03 0.  1.
         11   -1    0    0    0    0 -0.00000000000E+00 -0.00000000000E+00 -0.45593999997E+02  0.45594000000E+02  0.51100000000E-03 0. -1.
    9900012    2    1    2    0    0  0.17311118040E+02 -0.12737847763E+02 -0.23554060914E+02  0.59301931585E+02  0.49999977308E+02 0.  0.
        -12    1    1    2    0    0 -0.17311118040E+02  0.12737847763E+02  0.23554060914E+02  0.31886068415E+02  0.00000000000E+00 0.  1.
         11    1    3    3    0    0 -0.79869431460E+01 -0.17957739351E+00 -0.59195963287E+01  0.99430945793E+01  0.51100000000E-03 0. -1.
        -11    1    3    3    0    0 -0.18661526171E+01 -0.17477026586E+02 -0.21518431652E+01  0.17707608905E+02  0.51100000000E-03 0.  1.
        -12    1    3    3    0    0  0.27164213803E+02  0.49187562160E+01 -0.15482621420E+02  0.31651228101E+02  0.00000000000E+00 0.  1.
</event>
<event>
 7    1  0.1101380E-011  0.5930195E+02  0.7816164E-02  0.1266605E+00
        -11   -1    0    0    0    0  0.00000000000E+00  0.00000000000E+00  0.45593999997E+02  0.45594000000E+02  0.51100000000E-03 0. -1.
         11   -1    0    0    0    0 -0.00000000000E+00 -0.00000000000E+00 -0.45593999997E+02  0.45594000000E+02  0.51100000000E-03 0.  1.
    9900012    2    1    2    0    0  0.20746968853E+02 -0.35906102548E+01  0.23945584207E+02  0.59301949733E+02  0.50000010406E+02 0.  0.
        -12    1    1    2    0    0 -0.20746968853E+02  0.35906102548E+01 -0.23945584207E+02  0.31886050267E+02  0.00000000000E+00 0.  1.
         11    1    3    3    0    0 -0.10774653444E+02  0.49308538539E+01  0.51029563066E+01  0.12901420072E+02  0.51100000000E-03 0. -1.
        -11    1    3    3    0    0  0.12173470001E+02 -0.15989032126E+02  0.30348682430E+01  0.20323704035E+02  0.51100000000E-03 0.  1.
        -12    1    3    3    0    0  0.19348152296E+02  0.74675680172E+01  0.15807759657E+02  0.26076825626E+02  0.00000000000E+00 0.  1.
</event>
<event>
 7    1  0.1101380E-011  0.5930196E+02  0.7816164E-02  0.1266605E+00
        -11   -1    0    0    0    0  0.00000000000E+00  0.00000000000E+00  0.45593999997E+02  0.45594000000E+02  0.51100000000E-03 0.  1.
         11   -1    0    0    0    0 -0.00000000000E+00 -0.00000000000E+00 -0.45593999997E+02  0.45594000000E+02  0.51100000000E-03 0. -1.
    9900012    2    1    2    0    0 -0.30096319773E+01  0.21619003590E+02 -0.23243930796E+02  0.59301960426E+02  0.50000029907E+02 0.  0.
        -12    1    1    2    0    0  0.30096319773E+01 -0.21619003590E+02  0.23243930796E+02  0.31886039574E+02  0.00000000000E+00 0.  1.
         11    1    3    3    0    0 -0.11763793811E+02  0.61682745318E+01  0.10276374179E+02  0.16793996607E+02  0.51100000000E-03 0. -1.
        -11    1    3    3    0    0  0.28183523548E+01  0.17310592217E+02 -0.15366388877E+02  0.23317924870E+02  0.51100000000E-03 0.  1.
        -12    1    3    3    0    0  0.59358094790E+01 -0.18598631586E+01 -0.18153916098E+02  0.19190038948E+02  0.00000000000E+00 0.  1.
</event>
<event>
 7    1  0.1101380E-011  0.5930194E+02  0.7816164E-02  0.1266605E+00
        -11   -1    0    0    0    0  0.00000000000E+00  0.00000000000E+00  0.45593999997E+02  0.45594000000E+02  0.51100000000E-03 0.  1.
         11   -1    0    0    0    0 -0.00000000000E+00 -0.00000000000E+00 -0.45593999997E+02  0.45594000000E+02  0.51100000000E-03 0. -1.
    9900012    2    1    2    0    0  0.77563572928E+01 -0.29516625852E+02 -0.92373607747E+01  0.59301935423E+02  0.49999984307E+02 0.  0.
        -12    1    1    2    0    0 -0.77563572928E+01  0.29516625852E+02  0.92373607747E+01  0.31886064577E+02  0.00000000000E+00 0.  1.
         11    1    3    3    0    0 -0.66767882548E+00 -0.11576933885E+02 -0.23756475508E+01  0.11837013759E+02  0.51100000000E-03 0. -1.
        -11    1    3    3    0    0  0.14846688382E+02 -0.25976142568E+02  0.64841574266E+01  0.30614186849E+02  0.51100000000E-03 0.  1.
         12    1    3    3    0    0 -0.64226522639E+01  0.80364506014E+01 -0.13345870651E+02  0.16850734815E+02  0.00000000000E+00 0. -1.
</event>
<event>
 7    1  0.1101380E-011  0.5930194E+02  0.7816164E-02  0.1266605E+00
        -11   -1    0    0    0    0  0.00000000000E+00  0.00000000000E+00  0.45593999997E+02  0.45594000000E+02  0.51100000000E-03 0.  1.
         11   -1    0    0    0    0 -0.00000000000E+00 -0.00000000000E+00 -0.45593999997E+02  0.45594000000E+02  0.51100000000E-03 0. -1.
    9900012    2    1    2    0    0  0.45467416116E+01  0.12352996964E+02 -0.29042234510E+02  0.59301940685E+02  0.49999993904E+02 0.  0.
        -12    1    1    2    0    0 -0.45467416116E+01 -0.12352996964E+02  0.29042234510E+02  0.31886059315E+02  0.00000000000E+00 0.  1.
         11    1    3    3    0    0  0.58982155537E+01 -0.79660916028E+00 -0.14243649762E+02  0.15437133532E+02  0.51100000000E-03 0. -1.
        -11    1    3    3    0    0 -0.13951854675E+02 -0.75728070965E+01 -0.11007931939E+02  0.19317769592E+02  0.51100000000E-03 0.  1.
        -12    1    3    3    0    0  0.12600380733E+02  0.20722413221E+02 -0.37906528094E+01  0.24547037561E+02  0.00000000000E+00 0.  1.
</event>
<event>
 7    1  0.1101380E-011  0.5930194E+02  0.7816164E-02  0.1266605E+00
        -11   -1    0    0    0    0  0.00000000000E+00  0.00000000000E+00  0.45593999997E+02  0.45594000000E+02  0.51100000000E-03 0.  1.
         11   -1    0    0    0    0 -0.00000000000E+00 -0.00000000000E+00 -0.45593999997E+02  0.45594000000E+02  0.51100000000E-03 0. -1.
    9900012    2    1    2    0    0 -0.38263548014E+01 -0.67389281508E+01 -0.30930024449E+02  0.59301944174E+02  0.50000000267E+02 0.  0.
        -12    1    1    2    0    0  0.38263548014E+01  0.67389281508E+01  0.30930024449E+02  0.31886055826E+02  0.00000000000E+00 0.  1.
         11    1    3    3    0    0  0.74847894186E+01 -0.10353002418E+02 -0.10684116180E+02  0.16654040666E+02  0.51100000000E-03 0. -1.
        -11    1    3    3    0    0 -0.11970026281E+02 -0.11581670705E+02 -0.21715003993E+02  0.27367097474E+02  0.51100000000E-03 0.  1.
        -12    1    3    3    0    0  0.65888206107E+00  0.15195744972E+02  0.14690957228E+01  0.15280806034E+02  0.00000000000E+00 0.  1.
</event>
<event>
 7    1  0.1101380E-011  0.5930195E+02  0.7816164E-02  0.1266605E+00
        -11   -1    0    0    0    0  0.00000000000E+00  0.00000000000E+00  0.45593999997E+02  0.45594000000E+02  0.51100000000E-03 0.  1.
         11   -1    0    0    0    0 -0.00000000000E+00 -0.00000000000E+00 -0.45593999997E+02  0.45594000000E+02  0.51100000000E-03 0. -1.
    9900012    2    1    2    0    0 -0.23563177556E+02 -0.16763943867E+02 -0.13433800995E+02  0.59301950391E+02  0.50000011604E+02 0.  0.
        -12    1    1    2    0    0  0.23563177556E+02  0.16763943867E+02  0.13433800995E+02  0.31886049609E+02  0.00000000000E+00 0.  1.
         11    1    3    3    0    0  0.18475505815E+00  0.52910672368E+01  0.11297680827E+02  0.12476662986E+02  0.51100000000E-03 0. -1.
        -11    1    3    3    0    0 -0.52621374292E+01  0.43540635688E+01 -0.79559474586E+01  0.10485468998E+02  0.51100000000E-03 0.  1.
         12    1    3    3    0    0 -0.18485795185E+02 -0.26409074673E+02 -0.16775534363E+02  0.36339818407E+02  0.00000000000E+00 0. -1.
</event>
<event>
 7    1  0.1101380E-011  0.5930194E+02  0.7816164E-02  0.1266605E+00
        -11   -1    0    0    0    0  0.00000000000E+00  0.00000000000E+00  0.45593999997E+02  0.45594000000E+02  0.51100000000E-03 0.  1.
         11   -1    0    0    0    0 -0.00000000000E+00 -0.00000000000E+00 -0.45593999997E+02  0.45594000000E+02  0.51100000000E-03 0. -1.
    9900012    2    1    2    0    0  0.29823483431E+02 -0.10212189812E+02  0.47949635249E+01  0.59301942546E+02  0.49999997298E+02 0.  0.
        -12    1    1    2    0    0 -0.29823483431E+02  0.10212189812E+02 -0.47949635249E+01  0.31886057454E+02  0.00000000000E+00 0.  1.
         11    1    3    3    0    0 -0.57896860101E+01 -0.96672735128E+01  0.25135589654E+01  0.11545328934E+02  0.51100000000E-03 0. -1.
        -11    1    3    3    0    0  0.33819025606E+01  0.12089964715E+02  0.37622068937E+01  0.13105674829E+02  0.51100000000E-03 0.  1.
         12    1    3    3    0    0  0.32231266881E+02 -0.12634881014E+02 -0.14808023342E+01  0.34650938783E+02  0.00000000000E+00 0. -1.
</event>
<event>
 7    1  0.1101380E-011  0.5930196E+02  0.7816164E-02  0.1266605E+00
        -11   -1    0    0    0    0  0.00000000000E+00  0.00000000000E+00  0.45593999997E+02  0.45594000000E+02  0.51100000000E-03 0.  1.
         11   -1    0    0    0    0 -0.00000000000E+00 -0.00000000000E+00 -0.45593999997E+02  0.45594000000E+02  0.51100000000E-03 0. -1.
    9900012    2    1    2    0    0  0.28065330339E+02 -0.15112054164E+02 -0.82617033146E+00  0.59301960649E+02  0.50000030314E+02 0.  0.
        -12    1    1    2    0    0 -0.28065330339E+02  0.15112054164E+02  0.82617033146E+00  0.31886039351E+02  0.00000000000E+00 0.  1.
         11    1    3    3    0    0  0.31861565370E+02 -0.43989986132E+01  0.16188665170E+02  0.36008102101E+02  0.51100000000E-03 0.  1.
        -11    1    3    3    0    0  0.19483155186E+01 -0.86030724888E+00 -0.92606753530E+01  0.95024296986E+01  0.51100000000E-03 0. -1.
        -12    1    3    3    0    0 -0.57445505502E+01 -0.98527483016E+01 -0.77541601485E+01  0.13791428850E+02  0.00000000000E+00 0.  1.
</event>
<event>
 7    1  0.1101380E-011  0.5930196E+02  0.7816164E-02  0.1266605E+00
        -11   -1    0    0    0    0  0.00000000000E+00  0.00000000000E+00  0.45593999997E+02  0.45594000000E+02  0.51100000000E-03 0. -1.
         11   -1    0    0    0    0 -0.00000000000E+00 -0.00000000000E+00 -0.45593999997E+02  0.45594000000E+02  0.51100000000E-03 0.  1.
    9900012    2    1    2    0    0 -0.68073379219E-01  0.31761000568E+02  0.28202576903E+01  0.59301958469E+02  0.50000026338E+02 0.  0.
        -12    1    1    2    0    0  0.68073379219E-01 -0.31761000568E+02 -0.28202576903E+01  0.31886041531E+02  0.00000000000E+00 0.  1.
         11    1    3    3    0    0  0.12030913996E+02  0.43858943124E+01  0.10160023112E+02  0.16346407263E+02  0.51100000000E-03 0. -1.
        -11    1    3    3    0    0 -0.97840656888E+01  0.24182445722E+02  0.78658744331E+01  0.27246845751E+02  0.51100000000E-03 0.  1.
        -12    1    3    3    0    0 -0.23149216864E+01  0.31926605332E+01 -0.15205639855E+02  0.15708705456E+02  0.00000000000E+00 0.  1.
</event>
<event>
 7    1  0.1101380E-011  0.5930192E+02  0.7816164E-02  0.1266605E+00
        -11   -1    0    0    0    0  0.00000000000E+00  0.00000000000E+00  0.45593999997E+02  0.45594000000E+02  0.51100000000E-03 0.  1.
         11   -1    0    0    0    0 -0.00000000000E+00 -0.00000000000E+00 -0.45593999997E+02  0.45594000000E+02  0.51100000000E-03 0. -1.
    9900012    2    1    2    0    0 -0.26573012883E+02 -0.13623030308E+02 -0.11180794205E+02  0.59301919534E+02  0.49999955329E+02 0.  0.
        -12    1    1    2    0    0  0.26573012883E+02  0.13623030308E+02  0.11180794205E+02  0.31886080466E+02  0.00000000000E+00 0.  1.
         11    1    3    3    0    0 -0.11829266409E+02 -0.17067919367E+02  0.56416825142E+01  0.21519154192E+02  0.51100000000E-03 0. -1.
        -11    1    3    3    0    0  0.47134191339E+01 -0.29855650433E+01  0.52522074999E+01  0.76626106806E+01  0.51100000000E-03 0.  1.
         12    1    3    3    0    0 -0.19457165608E+02  0.64304541026E+01 -0.22074684219E+02  0.30120154661E+02  0.00000000000E+00 0. -1.
</event>
<event>
 7    1  0.1101380E-011  0.5930195E+02  0.7816164E-02  0.1266605E+00
        -11   -1    0    0    0    0  0.00000000000E+00  0.00000000000E+00  0.45593999997E+02  0.45594000000E+02  0.51100000000E-03 0.  1.
         11   -1    0    0    0    0 -0.00000000000E+00 -0.00000000000E+00 -0.45593999997E+02  0.45594000000E+02  0.51100000000E-03 0. -1.
    9900012    2    1    2    0    0  0.76609446510E+00  0.31098926693E+02 -0.69992833954E+01  0.59301951166E+02  0.50000013018E+02 0.  0.
        -12    1    1    2    0    0 -0.76609446510E+00 -0.31098926693E+02  0.69992833954E+01  0.31886048834E+02  0.00000000000E+00 0.  1.
         11    1    3    3    0    0 -0.93567085261E+00  0.21487153284E+02 -0.13699109046E+02  0.25499780884E+02  0.51100000000E-03 0. -1.
        -11    1    3    3    0    0 -0.12602806423E+02  0.12434150366E+02  0.74378917126E+01  0.19203152305E+02  0.51100000000E-03 0.  1.
        -12    1    3    3    0    0  0.14304571741E+02 -0.28223769572E+01 -0.73806606190E+00  0.14599017977E+02  0.00000000000E+00 0.  1.
</event>
<event>
 7    1  0.1101380E-011  0.5930193E+02  0.7816164E-02  0.1266605E+00
        -11   -1    0    0    0    0  0.00000000000E+00  0.00000000000E+00  0.45593999997E+02  0.45594000000E+02  0.51100000000E-03 0. -1.
         11   -1    0    0    0    0 -0.00000000000E+00 -0.00000000000E+00 -0.45593999997E+02  0.45594000000E+02  0.51100000000E-03 0.  1.
    9900012    2    1    2    0    0  0.12851361617E+02 -0.27453691944E+02  0.98923547368E+01  0.59301931271E+02  0.49999976735E+02 0.  0.
        -12    1    1    2    0    0 -0.12851361617E+02  0.27453691944E+02 -0.98923547368E+01  0.31886068729E+02  0.00000000000E+00 0.  1.
         11    1    3    3    0    0  0.12718093335E+02 -0.18668789545E+02 -0.37755342934E+00  0.22592391374E+02  0.51100000000E-03 0. -1.
        -11    1    3    3    0    0  0.26199671067E+01 -0.36570557296E+01 -0.12475082420E+02  0.13261446599E+02  0.51100000000E-03 0.  1.
         12    1    3    3    0    0 -0.24866988251E+01 -0.51278466693E+01  0.22744990586E+02  0.23448093297E+02  0.00000000000E+00 0. -1.
</event>
<event>
 7    1  0.1101380E-011  0.5930196E+02  0.7816164E-02  0.1266605E+00
        -11   -1    0    0    0    0  0.00000000000E+00  0.00000000000E+00  0.45593999997E+02  0.45594000000E+02  0.51100000000E-03 0. -1.
         11   -1    0    0    0    0 -0.00000000000E+00 -0.00000000000E+00 -0.45593999997E+02  0.45594000000E+02  0.51100000000E-03 0.  1.
    9900012    2    1    2    0    0  0.10493924575E+02  0.21178363882E+02  0.21402667010E+02  0.59301957523E+02  0.50000024612E+02 0.  0.
        -12    1    1    2    0    0 -0.10493924575E+02 -0.21178363882E+02 -0.21402667010E+02  0.31886042477E+02  0.00000000000E+00 0.  1.
         11    1    3    3    0    0 -0.39961238664E+01  0.49711665934E+00 -0.12752159729E+02  0.13372872128E+02  0.51100000000E-03 0.  1.
        -11    1    3    3    0    0  0.10159184996E+02  0.31114805592E+01  0.53099798639E+01  0.11877972784E+02  0.51100000000E-03 0. -1.
        -12    1    3    3    0    0  0.43308634458E+01  0.17569766664E+02  0.28844846875E+02  0.34051112611E+02  0.00000000000E+00 0.  1.
</event>
<event>
 7    1  0.1101380E-011  0.5930193E+02  0.7816164E-02  0.1266605E+00
        -11   -1    0    0    0    0  0.00000000000E+00  0.00000000000E+00  0.45593999997E+02  0.45594000000E+02  0.51100000000E-03 0.  1.
         11   -1    0    0    0    0 -0.00000000000E+00 -0.00000000000E+00 -0.45593999997E+02  0.45594000000E+02  0.51100000000E-03 0. -1.
    9900012    2    1    2    0    0 -0.17943258505E+02  0.12860035876E+02 -0.23008267706E+02  0.59301930450E+02  0.49999975238E+02 0.  0.
        -12    1    1    2    0    0  0.17943258505E+02 -0.12860035876E+02  0.23008267706E+02  0.31886069550E+02  0.00000000000E+00 0.  1.
         11    1    3    3    0    0 -0.85413066858E+01  0.42817204011E+01  0.17424804582E+01  0.97120177050E+01  0.51100000000E-03 0. -1.
        -11    1    3    3    0    0 -0.24012770799E+02 -0.11261835466E+01 -0.20375087848E+02  0.31512309593E+02  0.51100000000E-03 0.  1.
         12    1    3    3    0    0  0.14610818980E+02  0.97044990210E+01 -0.43756603167E+01  0.18077603152E+02  0.00000000000E+00 0. -1.
</event>
<event>
 7    1  0.1101380E-011  0.5930196E+02  0.7816164E-02  0.1266605E+00
        -11   -1    0    0    0    0  0.00000000000E+00  0.00000000000E+00  0.45593999997E+02  0.45594000000E+02  0.51100000000E-03 0.  1.
         11   -1    0    0    0    0 -0.00000000000E+00 -0.00000000000E+00 -0.45593999997E+02  0.45594000000E+02  0.51100000000E-03 0. -1.
    9900012    2    1    2    0    0 -0.75289534200E+01 -0.28279345326E+02 -0.12661480518E+02  0.59301959158E+02  0.50000027594E+02 0.  0.
        -12    1    1    2    0    0  0.75289534200E+01  0.28279345326E+02  0.12661480518E+02  0.31886040842E+02  0.00000000000E+00 0.  1.
         11    1    3    3    0    0 -0.11050922615E+02 -0.63841643905E+01 -0.88446344154E+01  0.15527652875E+02  0.51100000000E-03 0. -1.
        -11    1    3    3    0    0  0.13224963743E+01  0.10778751148E+02 -0.99644681371E+00  0.10905199653E+02  0.51100000000E-03 0.  1.
        -12    1    3    3    0    0  0.21994728205E+01 -0.32673932083E+02 -0.28203992892E+01  0.32869106630E+02  0.00000000000E+00 0.  1.
</event>
<event>
 7    1  0.1101380E-011  0.5930194E+02  0.7816164E-02  0.1266605E+00
        -11   -1    0    0    0    0  0.00000000000E+00  0.00000000000E+00  0.45593999997E+02  0.45594000000E+02  0.51100000000E-03 0.  1.
         11   -1    0    0    0    0 -0.00000000000E+00 -0.00000000000E+00 -0.45593999997E+02  0.45594000000E+02  0.51100000000E-03 0. -1.
    9900012    2    1    2    0    0  0.15340261510E+02 -0.61425140867E+00 -0.27946736623E+02  0.59301936966E+02  0.49999987120E+02 0.  0.
        -12    1    1    2    0    0 -0.15340261510E+02  0.61425140867E+00  0.27946736623E+02  0.31886063034E+02  0.00000000000E+00 0.  1.
         11    1    3    3    0    0  0.21042794913E+02 -0.24070298187E+01 -0.12881823506E+02  0.24789804102E+02  0.51100000000E-03 0. -1.
        -11    1    3    3    0    0 -0.30195359063E+01 -0.14203399838E+02 -0.46954497919E+01  0.15261107858E+02  0.51100000000E-03 0.  1.
        -12    1    3    3    0    0 -0.26829974970E+01  0.15996178248E+02 -0.10369463325E+02  0.19251025005E+02  0.00000000000E+00 0.  1.
</event>
<event>
 7    1  0.1101380E-011  0.5930196E+02  0.7816164E-02  0.1266605E+00
        -11   -1    0    0    0    0  0.00000000000E+00  0.00000000000E+00  0.45593999997E+02  0.45594000000E+02  0.51100000000E-03 0.  1.
         11   -1    0    0    0    0 -0.00000000000E+00 -0.00000000000E+00 -0.45593999997E+02  0.45594000000E+02  0.51100000000E-03 0. -1.
    9900012    2    1    2    0    0 -0.21099204725E+01 -0.31363892749E+02 -0.53454880612E+01  0.59301956417E+02  0.50000022595E+02 0.  0.
        -12    1    1    2    0    0  0.21099204725E+01  0.31363892749E+02  0.53454880612E+01  0.31886043583E+02  0.00000000000E+00 0.  1.
         11    1    3    3    0    0 -0.37739603863E+01  0.29990336859E+00 -0.33630885717E+01  0.50639000809E+01  0.51100000000E-03 0.  1.
        -11    1    3    3    0    0  0.41921459375E+01 -0.26292157756E+02  0.18820470644E+02  0.32604627931E+02  0.51100000000E-03 0. -1.
         12    1    3    3    0    0 -0.25281060238E+01 -0.53716383616E+01 -0.20802870134E+02  0.21633428405E+02  0.00000000000E+00 0. -1.
</event>
<event>
 7    1  0.1101380E-011  0.5930195E+02  0.7816164E-02  0.1266605E+00
        -11   -1    0    0    0    0  0.00000000000E+00  0.00000000000E+00  0.45593999997E+02  0.45594000000E+02  0.51100000000E-03 0.  1.
         11   -1    0    0    0    0 -0.00000000000E+00 -0.00000000000E+00 -0.45593999997E+02  0.45594000000E+02  0.51100000000E-03 0. -1.
    9900012    2    1    2    0    0  0.28030108662E+02 -0.99481785315E+00 -0.15167182826E+02  0.59301951498E+02  0.50000013625E+02 0.  0.
        -12    1    1    2    0    0 -0.28030108662E+02  0.99481785315E+00  0.15167182826E+02  0.31886048502E+02  0.00000000000E+00 0.  1.
         11    1    3    3    0    0  0.81866204258E+01 -0.30808139672E+01  0.54507460727E+01  0.10306444669E+02  0.51100000000E-03 0.  1.
        -11    1    3    3    0    0  0.31292769676E+02  0.33133589889E+01 -0.20355784192E+02  0.37477643097E+02  0.51100000000E-03 0. -1.
         12    1    3    3    0    0 -0.11449281440E+02 -0.12273628748E+01 -0.26214470669E+00  0.11517863733E+02  0.00000000000E+00 0. -1.
</event>
<event>
 7    1  0.1101380E-011  0.5930192E+02  0.7816164E-02  0.1266605E+00
        -11   -1    0    0    0    0  0.00000000000E+00  0.00000000000E+00  0.45593999997E+02  0.45594000000E+02  0.51100000000E-03 0.  1.
         11   -1    0    0    0    0 -0.00000000000E+00 -0.00000000000E+00 -0.45593999997E+02  0.45594000000E+02  0.51100000000E-03 0. -1.
    9900012    2    1    2    0    0 -0.84180787946E+01 -0.24894015443E+02 -0.18059508003E+02  0.59301923340E+02  0.49999962270E+02 0.  0.
        -12    1    1    2    0    0  0.84180787946E+01  0.24894015443E+02  0.18059508003E+02  0.31886076660E+02  0.00000000000E+00 0.  1.
         11    1    3    3    0    0  0.43378241361E+01 -0.58115842099E+01 -0.10414800146E+02  0.12690913742E+02  0.51100000000E-03 0. -1.
        -11    1    3    3    0    0  0.28127544176E+01  0.95902571998E+01  0.55329244184E+01  0.11423566582E+02  0.51100000000E-03 0.  1.
        -12    1    3    3    0    0 -0.15568657348E+02 -0.28672688433E+02 -0.13177632275E+02  0.35187443016E+02  0.00000000000E+00 0.  1.
</event>
<event>
 7    1  0.1101380E-011  0.5930195E+02  0.7816164E-02  0.1266605E+00
        -11   -1    0    0    0    0  0.00000000000E+00  0.00000000000E+00  0.45593999997E+02  0.45594000000E+02  0.51100000000E-03 0.  1.
         11   -1    0    0    0    0 -0.00000000000E+00 -0.00000000000E+00 -0.45593999997E+02  0.45594000000E+02  0.51100000000E-03 0. -1.
    9900012    2    1    2    0    0  0.62607519601E+01  0.42535873202E+01 -0.30974672121E+02  0.59301947670E+02  0.50000006642E+02 0.  0.
        -12    1    1    2    0    0 -0.62607519601E+01 -0.42535873202E+01  0.30974672121E+02  0.31886052330E+02  0.00000000000E+00 0.  1.
         11    1    3    3    0    0  0.29101880817E+01  0.10876675573E+02  0.81182529960E+01  0.13880824837E+02  0.51100000000E-03 0. -1.
        -11    1    3    3    0    0 -0.14487341600E+01 -0.99291543547E+01 -0.57342003974E+01  0.11557161906E+02  0.51100000000E-03 0.  1.
         12    1    3    3    0    0  0.47992980384E+01  0.33060661020E+01 -0.33358724720E+02  0.33863960927E+02  0.00000000000E+00 0. -1.
</event>
<event>
 7    1  0.1101380E-011  0.5930195E+02  0.7816164E-02  0.1266605E+00
        -11   -1    0    0    0    0  0.00000000000E+00  0.00000000000E+00  0.45593999997E+02  0.45594000000E+02  0.51100000000E-03 0.  1.
         11   -1    0    0    0    0 -0.00000000000E+00 -0.00000000000E+00 -0.45593999997E+02  0.45594000000E+02  0.51100000000E-03 0. -1.
    9900012    2    1    2    0    0  0.30985872792E+02  0.27918510446E+01 -0.69858055424E+01  0.59301949382E+02  0.50000009766E+02 0.  0.
        -12    1    1    2    0    0 -0.30985872792E+02 -0.27918510446E+01  0.69858055424E+01  0.31886050618E+02  0.00000000000E+00 0.  1.
         11    1    3    3    0    0  0.14578341913E+01  0.38895648917E+00 -0.29590438116E+01  0.33215219734E+01  0.51100000000E-03 0. -1.
        -11    1    3    3    0    0  0.16079181209E+02 -0.22082453029E+02 -0.60270131866E+01  0.27973195890E+02  0.51100000000E-03 0.  1.
        -12    1    3    3    0    0  0.13448857392E+02  0.24485347584E+02  0.20002514557E+01  0.28007231519E+02  0.00000000000E+00 0.  1.
</event>
<event>
 7    1  0.1101380E-011  0.5930194E+02  0.7816164E-02  0.1266605E+00
        -11   -1    0    0    0    0  0.00000000000E+00  0.00000000000E+00  0.45593999997E+02  0.45594000000E+02  0.51100000000E-03 0.  1.
         11   -1    0    0    0    0 -0.00000000000E+00 -0.00000000000E+00 -0.45593999997E+02  0.45594000000E+02  0.51100000000E-03 0. -1.
    9900012    2    1    2    0    0 -0.10243365692E+02 -0.25810644059E+02 -0.15671779121E+02  0.59301944298E+02  0.50000000492E+02 0.  0.
        -12    1    1    2    0    0  0.10243365692E+02  0.25810644059E+02  0.15671779121E+02  0.31886055702E+02  0.00000000000E+00 0.  1.
         11    1    3    3    0    0 -0.50391212517E+01 -0.16842882554E+02  0.12496726892E+02  0.21569506694E+02  0.51100000000E-03 0. -1.
        -11    1    3    3    0    0 -0.13013017305E+02 -0.22611852209E+01 -0.90247980161E+01  0.15996829607E+02  0.51100000000E-03 0.  1.
         12    1    3    3    0    0  0.78087728654E+01 -0.67065762838E+01 -0.19143707997E+02  0.21735607997E+02  0.00000000000E+00 0. -1.
</event>
<event>
 7    1  0.1101380E-011  0.5930196E+02  0.7816164E-02  0.1266605E+00
        -11   -1    0    0    0    0  0.00000000000E+00  0.00000000000E+00  0.45593999997E+02  0.45594000000E+02  0.51100000000E-03 0. -1.
         11   -1    0    0    0    0 -0.00000000000E+00 -0.00000000000E+00 -0.45593999997E+02  0.45594000000E+02  0.51100000000E-03 0.  1.
    9900012    2    1    2    0    0  0.25031122454E+02 -0.50562395707E+01  0.19094421472E+02  0.59301959461E+02  0.50000028146E+02 0.  0.
        -12    1    1    2    0    0 -0.25031122454E+02  0.50562395707E+01 -0.19094421472E+02  0.31886040539E+02  0.00000000000E+00 0.  1.
         11    1    3    3    0    0  0.23867979016E+02  0.40069907890E+01  0.11757318014E+02  0.26906707800E+02  0.51100000000E-03 0. -1.
        -11    1    3    3    0    0  0.97797719747E+01 -0.15068730885E+02 -0.23374367583E+01  0.18115578964E+02  0.51100000000E-03 0.  1.
         12    1    3    3    0    0 -0.86166285371E+01  0.60055005252E+01  0.96745402166E+01  0.14279672696E+02  0.00000000000E+00 0. -1.
</event>
<event>
 7    1  0.1101380E-011  0.5930192E+02  0.7816164E-02  0.1266605E+00
        -11   -1    0    0    0    0  0.00000000000E+00  0.00000000000E+00  0.45593999997E+02  0.45594000000E+02  0.51100000000E-03 0.  1.
         11   -1    0    0    0    0 -0.00000000000E+00 -0.00000000000E+00 -0.45593999997E+02  0.45594000000E+02  0.51100000000E-03 0. -1.
    9900012    2    1    2    0    0  0.92040136165E+01  0.19373385041E+02 -0.23594065263E+02  0.59301924195E+02  0.49999963830E+02 0.  0.
        -12    1    1    2    0    0 -0.92040136165E+01 -0.19373385041E+02  0.23594065263E+02  0.31886075805E+02  0.00000000000E+00 0.  1.
         11    1    3    3    0    0  0.13274388199E+01 -0.55657599671E+01 -0.74625605669E+01  0.94037007772E+01  0.51100000000E-03 0. -1.
        -11    1    3    3    0    0 -0.15445883002E+02  0.12633221097E+02 -0.22021942010E+01  0.20075438639E+02  0.51100000000E-03 0.  1.
         12    1    3    3    0    0  0.23322457799E+02  0.12305923911E+02 -0.13929310495E+02  0.29822784779E+02  0.00000000000E+00 0. -1.
</event>
<event>
 7    1  0.1101380E-011  0.5930194E+02  0.7816164E-02  0.1266605E+00
        -11   -1    0    0    0    0  0.00000000000E+00  0.00000000000E+00  0.45593999997E+02  0.45594000000E+02  0.51100000000E-03 0. -1.
         11   -1    0    0    0    0 -0.00000000000E+00 -0.00000000000E+00 -0.45593999997E+02  0.45594000000E+02  0.51100000000E-03 0.  1.
    9900012    2    1    2    0    0 -0.54074918613E+01  0.84964390960E+01  0.30253768564E+02  0.59301937875E+02  0.49999988778E+02 0.  0.
        -12    1    1    2    0    0  0.54074918613E+01 -0.84964390960E+01 -0.30253768564E+02  0.31886062125E+02  0.00000000000E+00 0.  1.
         11    1    3    3    0    0 -0.38359057633E+00  0.74775720057E+01  0.24543559183E+01  0.78794091191E+01  0.51100000000E-03 0. -1.
        -11    1    3    3    0    0  0.10953255305E+02 -0.62624714486E+01 -0.55107630906E+01  0.13768110274E+02  0.51100000000E-03 0.  1.
         12    1    3    3    0    0 -0.15977156589E+02  0.72813385388E+01  0.33310175736E+02  0.37654418482E+02  0.00000000000E+00 0. -1.
</event>
<event>
 7    1  0.1101380E-011  0.5930195E+02  0.7816164E-02  0.1266605E+00
        -11   -1    0    0    0    0  0.00000000000E+00  0.00000000000E+00  0.45593999997E+02  0.45594000000E+02  0.51100000000E-03 0. -1.
         11   -1    0    0    0    0 -0.00000000000E+00 -0.00000000000E+00 -0.45593999997E+02  0.45594000000E+02  0.51100000000E-03 0.  1.
    9900012    2    1    2    0    0 -0.25343782946E+02 -0.16943881354E+02 -0.93443986858E+01  0.59301949191E+02  0.50000009417E+02 0.  0.
        -12    1    1    2    0    0  0.25343782946E+02  0.16943881354E+02  0.93443986858E+01  0.31886050809E+02  0.00000000000E+00 0.  1.
         11    1    3    3    0    0 -0.28408203430E+02 -0.65936725529E+01  0.52727045719E+01  0.29636193305E+02  0.51100000000E-03 0. -1.
        -11    1    3    3    0    0 -0.91886212221E+01  0.61946398683E+00 -0.36935792470E+01  0.99225512601E+01  0.51100000000E-03 0.  1.
        -12    1    3    3    0    0  0.12253041705E+02 -0.10969672788E+02 -0.10923524011E+02  0.19743204627E+02  0.00000000000E+00 0.  1.
</event>
<event>
 7    1  0.1101380E-011  0.5930181E+02  0.7816164E-02  0.1266605E+00
        -11   -1    0    0    0    0  0.00000000000E+00  0.00000000000E+00  0.45593999997E+02  0.45594000000E+02  0.51100000000E-03 0. -1.
         11   -1    0    0    0    0 -0.00000000000E+00 -0.00000000000E+00 -0.45593999997E+02  0.45594000000E+02  0.51100000000E-03 0.  1.
    9900012    2    1    2    0    0 -0.98754546636E+01 -0.14139860818E+02  0.26819185915E+02  0.59301811737E+02  0.49999758733E+02 0.  0.
        -12    1    1    2    0    0  0.98754546636E+01  0.14139860818E+02 -0.26819185915E+02  0.31886188263E+02  0.00000000000E+00 0.  1.
         11    1    3    3    0    0 -0.92700562833E+01  0.51199266389E+01  0.26873267447E+02  0.28884599631E+02  0.51100000000E-03 0. -1.
        -11    1    3    3    0    0  0.77386107831E+01 -0.10606094530E+02  0.85201803950E+01  0.15651479555E+02  0.51100000000E-03 0.  1.
         12    1    3    3    0    0 -0.83440091634E+01 -0.86536929277E+01 -0.85742619268E+01  0.14765732552E+02  0.00000000000E+00 0. -1.
</event>
<event>
 7    1  0.1101380E-011  0.5930174E+02  0.7816164E-02  0.1266605E+00
        -11   -1    0    0    0    0  0.00000000000E+00  0.00000000000E+00  0.45593999997E+02  0.45594000000E+02  0.51100000000E-03 0. -1.
         11   -1    0    0    0    0 -0.00000000000E+00 -0.00000000000E+00 -0.45593999997E+02  0.45594000000E+02  0.51100000000E-03 0.  1.
    9900012    2    1    2    0    0  0.37198455376E+01  0.64166714495E+01  0.31011651081E+02  0.59301742363E+02  0.49999632210E+02 0.  0.
        -12    1    1    2    0    0 -0.37198455376E+01 -0.64166714495E+01 -0.31011651081E+02  0.31886257637E+02  0.00000000000E+00 0.  1.
         11    1    3    3    0    0 -0.53162872088E+01  0.13271708303E+02  0.15065311263E+02  0.20769322441E+02  0.51100000000E-03 0. -1.
        -11    1    3    3    0    0 -0.10463168266E+02  0.37527603002E+01  0.11304974453E+02  0.15854448829E+02  0.51100000000E-03 0.  1.
        -12    1    3    3    0    0  0.19499301012E+02 -0.10607797153E+02  0.46413653647E+01  0.22677971092E+02  0.00000000000E+00 0.  1.
</event>
<event>
 7    1  0.1101380E-011  0.5930193E+02  0.7816164E-02  0.1266605E+00
        -11   -1    0    0    0    0  0.00000000000E+00  0.00000000000E+00  0.45593999997E+02  0.45594000000E+02  0.51100000000E-03 0. -1.
         11   -1    0    0    0    0 -0.00000000000E+00 -0.00000000000E+00 -0.45593999997E+02  0.45594000000E+02  0.51100000000E-03 0.  1.
    9900012    2    1    2    0    0 -0.83770051480E+01  0.29197686909E+02  0.96975370948E+01  0.59301931541E+02  0.49999977226E+02 0.  0.
        -12    1    1    2    0    0  0.83770051480E+01 -0.29197686909E+02 -0.96975370948E+01  0.31886068459E+02  0.00000000000E+00 0.  1.
         11    1    3    3    0    0 -0.78178413992E+01  0.24299103414E+01 -0.12169640890E+02  0.14667081103E+02  0.51100000000E-03 0. -1.
        -11    1    3    3    0    0  0.36168586224E+01 -0.53050468223E+01  0.22310220270E+01  0.67972529471E+01  0.51100000000E-03 0.  1.
         12    1    3    3    0    0 -0.41760223713E+01  0.32072823390E+02  0.19636155958E+02  0.37837597491E+02  0.00000000000E+00 0. -1.
</event>
<event>
 7    1  0.1101380E-011  0.5930195E+02  0.7816164E-02  0.1266605E+00
        -11   -1    0    0    0    0  0.00000000000E+00  0.00000000000E+00  0.45593999997E+02  0.45594000000E+02  0.51100000000E-03 0.  1.
         11   -1    0    0    0    0 -0.00000000000E+00 -0.00000000000E+00 -0.45593999997E+02  0.45594000000E+02  0.51100000000E-03 0. -1.
    9900012    2    1    2    0    0  0.64612723629E+01  0.19072681939E+02 -0.24722556763E+02  0.59301952114E+02  0.50000014747E+02 0.  0.
        -12    1    1    2    0    0 -0.64612723629E+01 -0.19072681939E+02  0.24722556763E+02  0.31886047886E+02  0.00000000000E+00 0.  1.
         11    1    3    3    0    0 -0.59465871113E+01  0.22247173512E+02 -0.67504822817E+01  0.23997242317E+02  0.51100000000E-03 0.  1.
        -11    1    3    3    0    0 -0.23464399784E+01  0.22928145776E+01 -0.19241231210E+02  0.19518907705E+02  0.51100000000E-03 0. -1.
        -12    1    3    3    0    0  0.14754299453E+02 -0.54673061503E+01  0.12691567287E+01  0.15785802092E+02  0.00000000000E+00 0.  1.
</event>
<event>
 7    1  0.1101380E-011  0.5930196E+02  0.7816164E-02  0.1266605E+00
        -11   -1    0    0    0    0  0.00000000000E+00  0.00000000000E+00  0.45593999997E+02  0.45594000000E+02  0.51100000000E-03 0. -1.
         11   -1    0    0    0    0 -0.00000000000E+00 -0.00000000000E+00 -0.45593999997E+02  0.45594000000E+02  0.51100000000E-03 0.  1.
    9900012    2    1    2    0    0  0.82095870253E+01 -0.30528994210E+02  0.41596544641E+01  0.59301960235E+02  0.50000029559E+02 0.  0.
        -12    1    1    2    0    0 -0.82095870253E+01  0.30528994210E+02 -0.41596544641E+01  0.31886039765E+02  0.00000000000E+00 0.  1.
         11    1    3    3    0    0 -0.19482177980E+00 -0.12772700508E+02 -0.90967071730E+01  0.15682152768E+02  0.51100000000E-03 0. -1.
        -11    1    3    3    0    0 -0.73737785257E+01  0.89145102327E+00 -0.82310185085E+01  0.11086792170E+02  0.51100000000E-03 0.  1.
         12    1    3    3    0    0  0.15778187331E+02 -0.18647744726E+02  0.21487380146E+02  0.32533015297E+02  0.00000000000E+00 0. -1.
</event>
<event>
 7    1  0.1101380E-011  0.5930195E+02  0.7816164E-02  0.1266605E+00
        -11   -1    0    0    0    0  0.00000000000E+00  0.00000000000E+00  0.45593999997E+02  0.45594000000E+02  0.51100000000E-03 0.  1.
         11   -1    0    0    0    0 -0.00000000000E+00 -0.00000000000E+00 -0.45593999997E+02  0.45594000000E+02  0.51100000000E-03 0. -1.
    9900012    2    1    2    0    0  0.39588827712E+01  0.56303406334E+01 -0.31134334937E+02  0.59301948184E+02  0.50000007580E+02 0.  0.
        -12    1    1    2    0    0 -0.39588827712E+01 -0.56303406334E+01  0.31134334937E+02  0.31886051816E+02  0.00000000000E+00 0.  1.
         11    1    3    3    0    0 -0.77080339647E+01 -0.12220784751E+02 -0.14991682603E+02  0.20820948947E+02  0.51100000000E-03 0. -1.
        -11    1    3    3    0    0 -0.43240684902E+01 -0.40166411035E+01  0.15781487018E+01  0.61091347709E+01  0.51100000000E-03 0.  1.
         12    1    3    3    0    0  0.15990985226E+02  0.21867766488E+02 -0.17720801036E+02  0.32371864466E+02  0.00000000000E+00 0. -1.
</event>
<event>
 7    1  0.1101380E-011  0.5930193E+02  0.7816164E-02  0.1266605E+00
        -11   -1    0    0    0    0  0.00000000000E+00  0.00000000000E+00  0.45593999997E+02  0.45594000000E+02  0.51100000000E-03 0.  1.
         11   -1    0    0    0    0 -0.00000000000E+00 -0.00000000000E+00 -0.45593999997E+02  0.45594000000E+02  0.51100000000E-03 0. -1.
    9900012    2    1    2    0    0 -0.31568558214E+02 -0.41739125681E+01  0.16509937097E+01  0.59301934170E+02  0.49999982023E+02 0.  0.
        -12    1    1    2    0    0  0.31568558214E+02  0.41739125681E+01 -0.16509937097E+01  0.31886065830E+02  0.00000000000E+00 0.  1.
         11    1    3    3    0    0 -0.19683044578E+02 -0.13648045844E+02 -0.93916934979E+01  0.25727326061E+02  0.51100000000E-03 0. -1.
        -11    1    3    3    0    0 -0.17524697588E+02 -0.47138691255E+00 -0.21083466131E+00  0.17532303975E+02  0.51100000000E-03 0.  1.
        -12    1    3    3    0    0  0.56391839521E+01  0.99455201886E+01  0.11253521869E+02  0.16042304134E+02  0.00000000000E+00 0.  1.
</event>
<event>
 7    1  0.1101380E-011  0.5930196E+02  0.7816164E-02  0.1266605E+00
        -11   -1    0    0    0    0  0.00000000000E+00  0.00000000000E+00  0.45593999997E+02  0.45594000000E+02  0.51100000000E-03 0. -1.
         11   -1    0    0    0    0 -0.00000000000E+00 -0.00000000000E+00 -0.45593999997E+02  0.45594000000E+02  0.51100000000E-03 0.  1.
    9900012    2    1    2    0    0 -0.46169197944E+01 -0.32362434742E+01  0.31383602837E+02  0.59301956858E+02  0.50000023399E+02 0.  0.
        -12    1    1    2    0    0  0.46169197944E+01  0.32362434742E+01 -0.31383602837E+02  0.31886043142E+02  0.00000000000E+00 0.  1.
         11    1    3    3    0    0  0.82006284848E+01  0.12308142514E+02  0.21355045905E+01  0.14943261351E+02  0.51100000000E-03 0. -1.
        -11    1    3    3    0    0  0.39309249271E+01 -0.22886236351E+01 -0.31645084523E+01  0.55411265038E+01  0.51100000000E-03 0.  1.
         12    1    3    3    0    0 -0.16748473206E+02 -0.13255762353E+02  0.32412606699E+02  0.38817569003E+02  0.00000000000E+00 0. -1.
</event>
<event>
 7    1  0.1101380E-011  0.5930196E+02  0.7816164E-02  0.1266605E+00
        -11   -1    0    0    0    0  0.00000000000E+00  0.00000000000E+00  0.45593999997E+02  0.45594000000E+02  0.51100000000E-03 0.  1.
         11   -1    0    0    0    0 -0.00000000000E+00 -0.00000000000E+00 -0.45593999997E+02  0.45594000000E+02  0.51100000000E-03 0. -1.
    9900012    2    1    2    0    0 -0.13638396446E+02  0.26726227607E+02  0.10789936934E+02  0.59301955423E+02  0.50000020782E+02 0.  0.
        -12    1    1    2    0    0  0.13638396446E+02 -0.26726227607E+02 -0.10789936934E+02  0.31886044577E+02  0.00000000000E+00 0.  1.
         11    1    3    3    0    0  0.35466819518E+00  0.31263582470E+01 -0.48685818236E+01  0.57968090059E+01  0.51100000000E-03 0. -1.
        -11    1    3    3    0    0 -0.28020988965E+02  0.17095738159E+02  0.20186309859E+01  0.32886394711E+02  0.51100000000E-03 0.  1.
        -12    1    3    3    0    0  0.14027924323E+02  0.65041312017E+01  0.13639887771E+02  0.20618751706E+02  0.00000000000E+00 0.  1.
</event>
<event>
 7    1  0.1101380E-011  0.5930193E+02  0.7816164E-02  0.1266605E+00
        -11   -1    0    0    0    0  0.00000000000E+00  0.00000000000E+00  0.45593999997E+02  0.45594000000E+02  0.51100000000E-03 0. -1.
         11   -1    0    0    0    0 -0.00000000000E+00 -0.00000000000E+00 -0.45593999997E+02  0.45594000000E+02  0.51100000000E-03 0.  1.
    9900012    2    1    2    0    0  0.19029844353E+02  0.24604297977E+02  0.70153231503E+01  0.59301933859E+02  0.49999981455E+02 0.  0.
        -12    1    1    2    0    0 -0.19029844353E+02 -0.24604297977E+02 -0.70153231503E+01  0.31886066141E+02  0.00000000000E+00 0.  1.
         11    1    3    3    0    0  0.19955250082E+02  0.15828097002E+02 -0.59308831488E+01  0.26151788385E+02  0.51100000000E-03 0. -1.
        -11    1    3    3    0    0  0.97317578311E+01  0.35262646351E+01 -0.51042245006E+01  0.11541003456E+02  0.51100000000E-03 0.  1.
        -12    1    3    3    0    0 -0.10657163560E+02  0.52499363399E+01  0.18050430800E+02  0.21609142019E+02  0.00000000000E+00 0.  1.
</event>
<event>
 7    1  0.1101380E-011  0.5930193E+02  0.7816164E-02  0.1266605E+00
        -11   -1    0    0    0    0  0.00000000000E+00  0.00000000000E+00  0.45593999997E+02  0.45594000000E+02  0.51100000000E-03 0. -1.
         11   -1    0    0    0    0 -0.00000000000E+00 -0.00000000000E+00 -0.45593999997E+02  0.45594000000E+02  0.51100000000E-03 0.  1.
    9900012    2    1    2    0    0 -0.15317225177E+02 -0.21427341001E+02  0.17971450381E+02  0.59301931595E+02  0.49999977326E+02 0.  0.
        -12    1    1    2    0    0  0.15317225177E+02  0.21427341001E+02 -0.17971450381E+02  0.31886068405E+02  0.00000000000E+00 0.  1.
         11    1    3    3    0    0 -0.12153763578E+02 -0.13898591957E+02  0.62542913552E+01  0.19493614034E+02  0.51100000000E-03 0. -1.
        -11    1    3    3    0    0  0.48670710202E+00 -0.21122159354E+02  0.14281262531E+02  0.25501705028E+02  0.51100000000E-03 0.  1.
        -12    1    3    3    0    0 -0.36501687014E+01  0.13593410310E+02 -0.25641035049E+01  0.14306612534E+02  0.00000000000E+00 0.  1.
</event>
<event>
 7    1  0.1101380E-011  0.5930190E+02  0.7816164E-02  0.1266605E+00
        -11   -1    0    0    0    0  0.00000000000E+00  0.00000000000E+00  0.45593999997E+02  0.45594000000E+02  0.51100000000E-03 0.  1.
         11   -1    0    0    0    0 -0.00000000000E+00 -0.00000000000E+00 -0.45593999997E+02  0.45594000000E+02  0.51100000000E-03 0. -1.
    9900012    2    1    2    0    0  0.20311680635E+02  0.99604232065E+01 -0.22471067803E+02  0.59301901323E+02  0.49999922117E+02 0.  0.
        -12    1    1    2    0    0 -0.20311680635E+02 -0.99604232065E+01  0.22471067803E+02  0.31886098677E+02  0.00000000000E+00 0.  1.
         11    1    3    3    0    0 -0.72005864329E+01  0.17076782769E+02 -0.64606063799E+00  0.18544065070E+02  0.51100000000E-03 0.  1.
        -11    1    3    3    0    0  0.90858077491E+01 -0.29357508843E+01 -0.19510753402E+02  0.21721879161E+02  0.51100000000E-03 0. -1.
        -12    1    3    3    0    0  0.18426459318E+02 -0.41806086781E+01 -0.23142537627E+01  0.19035957092E+02  0.00000000000E+00 0.  1.
</event>
<event>
 7    1  0.1101380E-011  0.5930194E+02  0.7816164E-02  0.1266605E+00
        -11   -1    0    0    0    0  0.00000000000E+00  0.00000000000E+00  0.45593999997E+02  0.45594000000E+02  0.51100000000E-03 0. -1.
         11   -1    0    0    0    0 -0.00000000000E+00 -0.00000000000E+00 -0.45593999997E+02  0.45594000000E+02  0.51100000000E-03 0.  1.
    9900012    2    1    2    0    0  0.56589918096E+01  0.31373958861E+02 -0.60943585777E+00  0.59301938861E+02  0.49999990577E+02 0.  0.
        -12    1    1    2    0    0 -0.56589918096E+01 -0.31373958861E+02  0.60943585777E+00  0.31886061139E+02  0.00000000000E+00 0.  1.
         11    1    3    3    0    0  0.91714559563E+01  0.12034776781E+02  0.92304697399E+00  0.15159270183E+02  0.51100000000E-03 0. -1.
        -11    1    3    3    0    0 -0.26255846104E+01  0.84782447017E+01 -0.20460138604E+02  0.22302277905E+02  0.51100000000E-03 0.  1.
         12    1    3    3    0    0 -0.88687953627E+00  0.10860937379E+02  0.18927655773E+02  0.21840390773E+02  0.00000000000E+00 0. -1.
</event>
<event>
 7    1  0.1101380E-011  0.5930182E+02  0.7816164E-02  0.1266605E+00
        -11   -1    0    0    0    0  0.00000000000E+00  0.00000000000E+00  0.45593999997E+02  0.45594000000E+02  0.51100000000E-03 0.  1.
         11   -1    0    0    0    0 -0.00000000000E+00 -0.00000000000E+00 -0.45593999997E+02  0.45594000000E+02  0.51100000000E-03 0. -1.
    9900012    2    1    2    0    0  0.28060696963E+01  0.74398135003E+01 -0.30878857497E+02  0.59301816591E+02  0.49999767586E+02 0.  0.
        -12    1    1    2    0    0 -0.28060696963E+01 -0.74398135003E+01  0.30878857497E+02  0.31886183409E+02  0.00000000000E+00 0.  1.
         11    1    3    3    0    0 -0.92882609352E+01 -0.36315620795E+01 -0.24021196186E+02  0.26009188777E+02  0.51100000000E-03 0. -1.
        -11    1    3    3    0    0 -0.49954286543E+01 -0.37047650273E+01 -0.86230328112E+01  0.10631852448E+02  0.51100000000E-03 0.  1.
        -12    1    3    3    0    0  0.17089759286E+02  0.14776140607E+02  0.17653715007E+01  0.22660775367E+02  0.00000000000E+00 0.  1.
</event>
<event>
 7    1  0.1101380E-011  0.5930195E+02  0.7816164E-02  0.1266605E+00
        -11   -1    0    0    0    0  0.00000000000E+00  0.00000000000E+00  0.45593999997E+02  0.45594000000E+02  0.51100000000E-03 0. -1.
         11   -1    0    0    0    0 -0.00000000000E+00 -0.00000000000E+00 -0.45593999997E+02  0.45594000000E+02  0.51100000000E-03 0.  1.
    9900012    2    1    2    0    0  0.13647227963E+02  0.15688104788E+02  0.24173471260E+02  0.59301950140E+02  0.50000011148E+02 0.  0.
        -12    1    1    2    0    0 -0.13647227963E+02 -0.15688104788E+02 -0.24173471260E+02  0.31886049860E+02  0.00000000000E+00 0.  1.
         11    1    3    3    0    0 -0.12287160818E+01  0.15337697142E+02  0.10381216176E+02  0.18561367039E+02  0.51100000000E-03 0. -1.
        -11    1    3    3    0    0  0.16848588268E+02  0.15277897979E+02  0.49412059872E+01  0.23274548549E+02  0.51100000000E-03 0.  1.
         12    1    3    3    0    0 -0.19726442234E+01 -0.14927490333E+02  0.88510490973E+01  0.17466034552E+02  0.00000000000E+00 0. -1.
</event>
<event>
 7    1  0.1101380E-011  0.5930196E+02  0.7816164E-02  0.1266605E+00
        -11   -1    0    0    0    0  0.00000000000E+00  0.00000000000E+00  0.45593999997E+02  0.45594000000E+02  0.51100000000E-03 0.  1.
         11   -1    0    0    0    0 -0.00000000000E+00 -0.00000000000E+00 -0.45593999997E+02  0.45594000000E+02  0.51100000000E-03 0. -1.
    9900012    2    1    2    0    0  0.67530017031E+00  0.47613479728E+00 -0.31875336714E+02  0.59301955635E+02  0.50000021168E+02 0.  0.
        -12    1    1    2    0    0 -0.67530017031E+00 -0.47613479728E+00  0.31875336714E+02  0.31886044365E+02  0.00000000000E+00 0.  1.
         11    1    3    3    0    0 -0.34119122680E+01  0.12138767457E+02 -0.26792178190E+02  0.29611005270E+02  0.51100000000E-03 0. -1.
        -11    1    3    3    0    0 -0.10776122312E+02 -0.13382298752E+01  0.12335524320E+00  0.10859598890E+02  0.51100000000E-03 0.  1.
         12    1    3    3    0    0  0.14863334750E+02 -0.10324402784E+02 -0.52065137668E+01  0.18831351474E+02  0.00000000000E+00 0. -1.
</event>
<event>
 7    1  0.1101380E-011  0.5930189E+02  0.7816164E-02  0.1266605E+00
        -11   -1    0    0    0    0  0.00000000000E+00  0.00000000000E+00  0.45593999997E+02  0.45594000000E+02  0.51100000000E-03 0.  1.
         11   -1    0    0    0    0 -0.00000000000E+00 -0.00000000000E+00 -0.45593999997E+02  0.45594000000E+02  0.51100000000E-03 0. -1.
    9900012    2    1    2    0    0  0.26107993566E+02  0.55784440496E+01 -0.17434957155E+02  0.59301888650E+02  0.49999899004E+02 0.  0.
        -12    1    1    2    0    0 -0.26107993566E+02 -0.55784440496E+01  0.17434957155E+02  0.31886111350E+02  0.00000000000E+00 0.  1.
         11    1    3    3    0    0  0.35690971133E+01  0.38525002028E+01 -0.17004845851E+02  0.17797331112E+02  0.51100000000E-03 0. -1.
        -11    1    3    3    0    0  0.30053959561E+02  0.55827933476E+01 -0.63100359997E+01  0.31212571528E+02  0.51100000000E-03 0.  1.
        -12    1    3    3    0    0 -0.75150631082E+01 -0.38568495008E+01  0.58799246964E+01  0.10291986010E+02  0.00000000000E+00 0.  1.
</event>
<event>
 7    1  0.1101380E-011  0.5930194E+02  0.7816164E-02  0.1266605E+00
        -11   -1    0    0    0    0  0.00000000000E+00  0.00000000000E+00  0.45593999997E+02  0.45594000000E+02  0.51100000000E-03 0. -1.
         11   -1    0    0    0    0 -0.00000000000E+00 -0.00000000000E+00 -0.45593999997E+02  0.45594000000E+02  0.51100000000E-03 0.  1.
    9900012    2    1    2    0    0 -0.97436315341E+01  0.28093685198E+02  0.11512061840E+02  0.59301936096E+02  0.49999985534E+02 0.  0.
        -12    1    1    2    0    0  0.97436315341E+01 -0.28093685198E+02 -0.11512061840E+02  0.31886063904E+02  0.00000000000E+00 0.  1.
         11    1    3    3    0    0 -0.48603368459E+01  0.15425784853E+02  0.13898013777E+02  0.21324457784E+02  0.51100000000E-03 0. -1.
        -11    1    3    3    0    0  0.95439191429E+01  0.16262094408E+02 -0.99236386124E+01  0.21307761748E+02  0.51100000000E-03 0.  1.
         12    1    3    3    0    0 -0.14427213831E+02 -0.35941940633E+01  0.75376866754E+01  0.16669716564E+02  0.00000000000E+00 0. -1.
</event>
<event>
 7    1  0.1101380E-011  0.5930196E+02  0.7816164E-02  0.1266605E+00
        -11   -1    0    0    0    0  0.00000000000E+00  0.00000000000E+00  0.45593999997E+02  0.45594000000E+02  0.51100000000E-03 0.  1.
         11   -1    0    0    0    0 -0.00000000000E+00 -0.00000000000E+00 -0.45593999997E+02  0.45594000000E+02  0.51100000000E-03 0. -1.
    9900012    2    1    2    0    0 -0.21122820624E+02 -0.11397499555E+02 -0.20991503521E+02  0.59301956543E+02  0.50000022825E+02 0.  0.
        -12    1    1    2    0    0  0.21122820624E+02  0.11397499555E+02  0.20991503521E+02  0.31886043457E+02  0.00000000000E+00 0.  1.
         11    1    3    3    0    0 -0.25456325289E+02  0.23767960746E+01 -0.11103185687E+02  0.27873901583E+02  0.51100000000E-03 0. -1.
        -11    1    3    3    0    0 -0.63425143332E+01  0.21992198578E+01 -0.10202276271E+02  0.12212718675E+02  0.51100000000E-03 0.  1.
        -12    1    3    3    0    0  0.10676018998E+02 -0.15973515487E+02  0.31395843651E+00  0.19215336286E+02  0.00000000000E+00 0.  1.
</event>
<event>
 7    1  0.1101380E-011  0.5930193E+02  0.7816164E-02  0.1266605E+00
        -11   -1    0    0    0    0  0.00000000000E+00  0.00000000000E+00  0.45593999997E+02  0.45594000000E+02  0.51100000000E-03 0.  1.
         11   -1    0    0    0    0 -0.00000000000E+00 -0.00000000000E+00 -0.45593999997E+02  0.45594000000E+02  0.51100000000E-03 0. -1.
    9900012    2    1    2    0    0 -0.13286313138E+02  0.27769558224E+02 -0.83094423816E+01  0.59301932299E+02  0.49999978609E+02 0.  0.
        -12    1    1    2    0    0  0.13286313138E+02 -0.27769558224E+02  0.83094423816E+01  0.31886067701E+02  0.00000000000E+00 0.  1.
         11    1    3    3    0    0 -0.85007145626E+01  0.19229037356E+02 -0.63133229322E+01  0.21951675845E+02  0.51100000000E-03 0. -1.
        -11    1    3    3    0    0 -0.18324082629E+02  0.13539464281E+02 -0.24232197337E+01  0.22912029403E+02  0.51100000000E-03 0.  1.
        -12    1    3    3    0    0  0.13538484054E+02 -0.49989434130E+01  0.42710028440E+00  0.14438227051E+02  0.00000000000E+00 0.  1.
</event>
<event>
 7    1  0.1101380E-011  0.5930194E+02  0.7816164E-02  0.1266605E+00
        -11   -1    0    0    0    0  0.00000000000E+00  0.00000000000E+00  0.45593999997E+02  0.45594000000E+02  0.51100000000E-03 0. -1.
         11   -1    0    0    0    0 -0.00000000000E+00 -0.00000000000E+00 -0.45593999997E+02  0.45594000000E+02  0.51100000000E-03 0.  1.
    9900012    2    1    2    0    0 -0.83148333575E+01 -0.29605870889E+02  0.84307165692E+01  0.59301936795E+02  0.49999986809E+02 0.  0.
        -12    1    1    2    0    0  0.83148333575E+01  0.29605870889E+02 -0.84307165692E+01  0.31886063205E+02  0.00000000000E+00 0.  1.
         11    1    3    3    0    0 -0.11392745465E+02 -0.68677756961E+01 -0.10866511620E+01  0.13346977308E+02  0.51100000000E-03 0. -1.
        -11    1    3    3    0    0 -0.54195179234E+01 -0.31095207667E+02  0.15169831545E+01  0.31600385323E+02  0.51100000000E-03 0.  1.
         12    1    3    3    0    0  0.84974300312E+01  0.83571124747E+01  0.80003845768E+01  0.14354574164E+02  0.00000000000E+00 0. -1.
</event>
<event>
 7    1  0.1101380E-011  0.5930195E+02  0.7816164E-02  0.1266605E+00
        -11   -1    0    0    0    0  0.00000000000E+00  0.00000000000E+00  0.45593999997E+02  0.45594000000E+02  0.51100000000E-03 0. -1.
         11   -1    0    0    0    0 -0.00000000000E+00 -0.00000000000E+00 -0.45593999997E+02  0.45594000000E+02  0.51100000000E-03 0.  1.
    9900012    2    1    2    0    0  0.31468300311E+02  0.36208570057E+01 -0.36545243702E+01  0.59301951667E+02  0.50000013932E+02 0.  0.
        -12    1    1    2    0    0 -0.31468300311E+02 -0.36208570057E+01  0.36545243702E+01  0.31886048333E+02  0.00000000000E+00 0.  1.
         11    1    3    3    0    0  0.96134713101E+01 -0.41434076961E+01 -0.10232387211E+02  0.14638593042E+02  0.51100000000E-03 0. -1.
        -11    1    3    3    0    0  0.18120335742E+02  0.21644614330E+02  0.98937297908E+01  0.29911900414E+02  0.51100000000E-03 0.  1.
         12    1    3    3    0    0  0.37344932593E+01 -0.13880349629E+02 -0.33158669502E+01  0.14751458211E+02  0.00000000000E+00 0. -1.
</event>
<event>
 7    1  0.1101380E-011  0.5930205E+02  0.7816164E-02  0.1266604E+00
        -11   -1    0    0    0    0  0.00000000000E+00  0.00000000000E+00  0.45593999997E+02  0.45594000000E+02  0.51100000000E-03 0. -1.
         11   -1    0    0    0    0 -0.00000000000E+00 -0.00000000000E+00 -0.45593999997E+02  0.45594000000E+02  0.51100000000E-03 0.  1.
    9900012    2    1    2    0    0  0.18825077592E+02  0.25572744853E+02  0.28922003147E+01  0.59302052495E+02  0.50000197817E+02 0.  0.
        -12    1    1    2    0    0 -0.18825077592E+02 -0.25572744853E+02 -0.28922003147E+01  0.31885947505E+02  0.00000000000E+00 0.  1.
         11    1    3    3    0    0  0.15725293213E+02  0.14691581438E+02  0.16796896280E+02  0.27299507993E+02  0.51100000000E-03 0. -1.
        -11    1    3    3    0    0 -0.12530394828E+01  0.17655842550E+02 -0.22588046423E+01  0.17843796758E+02  0.51100000000E-03 0.  1.
         12    1    3    3    0    0  0.43528238615E+01 -0.67746791347E+01 -0.11645891323E+02  0.14158747743E+02  0.00000000000E+00 0. -1.
</event>
<event>
 7    1  0.1101380E-011  0.5930193E+02  0.7816164E-02  0.1266605E+00
        -11   -1    0    0    0    0  0.00000000000E+00  0.00000000000E+00  0.45593999997E+02  0.45594000000E+02  0.51100000000E-03 0.  1.
         11   -1    0    0    0    0 -0.00000000000E+00 -0.00000000000E+00 -0.45593999997E+02  0.45594000000E+02  0.51100000000E-03 0. -1.
    9900012    2    1    2    0    0  0.24735129693E+02 -0.16181252931E+02 -0.11960851047E+02  0.59301928667E+02  0.49999971985E+02 0.  0.
        -12    1    1    2    0    0 -0.24735129693E+02  0.16181252931E+02  0.11960851047E+02  0.31886071333E+02  0.00000000000E+00 0.  1.
         11    1    3    3    0    0 -0.12940465389E+01 -0.18774077022E+01  0.75822091265E+00  0.24029388961E+01  0.51100000000E-03 0. -1.
        -11    1    3    3    0    0 -0.94243378922E+01  0.76448367416E+01  0.27175125574E+01  0.12435696533E+02  0.51100000000E-03 0.  1.
         12    1    3    3    0    0  0.35453514124E+02 -0.21948681970E+02 -0.15436584517E+02  0.44463293237E+02  0.00000000000E+00 0. -1.
</event>
<event>
 7    1  0.1101380E-011  0.5930195E+02  0.7816164E-02  0.1266605E+00
        -11   -1    0    0    0    0  0.00000000000E+00  0.00000000000E+00  0.45593999997E+02  0.45594000000E+02  0.51100000000E-03 0.  1.
         11   -1    0    0    0    0 -0.00000000000E+00 -0.00000000000E+00 -0.45593999997E+02  0.45594000000E+02  0.51100000000E-03 0. -1.
    9900012    2    1    2    0    0  0.30369824768E+02  0.50673067907E+01  0.82895469390E+01  0.59301945948E+02  0.50000003503E+02 0.  0.
        -12    1    1    2    0    0 -0.30369824768E+02 -0.50673067907E+01 -0.82895469390E+01  0.31886054052E+02  0.00000000000E+00 0.  1.
         11    1    3    3    0    0  0.17245285636E+02 -0.17844303442E+02 -0.44435606321E+01  0.25210400103E+02  0.51100000000E-03 0. -1.
        -11    1    3    3    0    0  0.25955110199E+01  0.34042577110E+01 -0.43516449679E+01  0.61042986661E+01  0.51100000000E-03 0.  1.
        -12    1    3    3    0    0  0.10529028111E+02  0.19507352521E+02  0.17084752539E+02  0.27987247179E+02  0.00000000000E+00 0.  1.
</event>
<event>
 7    1  0.1101380E-011  0.5930197E+02  0.7816164E-02  0.1266605E+00
        -11   -1    0    0    0    0  0.00000000000E+00  0.00000000000E+00  0.45593999997E+02  0.45594000000E+02  0.51100000000E-03 0.  1.
         11   -1    0    0    0    0 -0.00000000000E+00 -0.00000000000E+00 -0.45593999997E+02  0.45594000000E+02  0.51100000000E-03 0. -1.
    9900012    2    1    2    0    0  0.29064302671E+02 -0.12525551231E+02 -0.38853133414E+01  0.59301971975E+02  0.50000050970E+02 0.  0.
        -12    1    1    2    0    0 -0.29064302671E+02  0.12525551231E+02  0.38853133414E+01  0.31886028025E+02  0.00000000000E+00 0.  1.
         11    1    3    3    0    0  0.12328660081E+02 -0.24222639664E+02  0.40565045075E+01  0.27480672494E+02  0.51100000000E-03 0. -1.
        -11    1    3    3    0    0  0.35030976608E+01 -0.35777911761E+01  0.55862892054E+01  0.75019271036E+01  0.51100000000E-03 0.  1.
         12    1    3    3    0    0  0.13232544930E+02  0.15274879608E+02 -0.13528107054E+02  0.24319372377E+02  0.00000000000E+00 0. -1.
</event>
<event>
 7    1  0.1101380E-011  0.5930192E+02  0.7816164E-02  0.1266605E+00
        -11   -1    0    0    0    0  0.00000000000E+00  0.00000000000E+00  0.45593999997E+02  0.45594000000E+02  0.51100000000E-03 0.  1.
         11   -1    0    0    0    0 -0.00000000000E+00 -0.00000000000E+00 -0.45593999997E+02  0.45594000000E+02  0.51100000000E-03 0. -1.
    9900012    2    1    2    0    0  0.20045516437E+02 -0.21901153168E+02 -0.11629221549E+02  0.59301921014E+02  0.49999958028E+02 0.  0.
        -12    1    1    2    0    0 -0.20045516437E+02  0.21901153168E+02  0.11629221549E+02  0.31886078986E+02  0.00000000000E+00 0.  1.
         11    1    3    3    0    0  0.11511962394E+02 -0.15839803908E+02  0.73124997217E+01  0.20902088854E+02  0.51100000000E-03 0. -1.
        -11    1    3    3    0    0  0.51388486149E+01 -0.11690943113E+02  0.48925062763E+01  0.13675618226E+02  0.51100000000E-03 0.  1.
        -12    1    3    3    0    0  0.33947054275E+01  0.56295938526E+01 -0.23834227547E+02  0.24724213934E+02  0.00000000000E+00 0.  1.
</event>
<event>
 7    1  0.1101380E-011  0.5930195E+02  0.7816164E-02  0.1266605E+00
        -11   -1    0    0    0    0  0.00000000000E+00  0.00000000000E+00  0.45593999997E+02  0.45594000000E+02  0.51100000000E-03 0.  1.
         11   -1    0    0    0    0 -0.00000000000E+00 -0.00000000000E+00 -0.45593999997E+02  0.45594000000E+02  0.51100000000E-03 0. -1.
    9900012    2    1    2    0    0  0.15020681455E+02 -0.26475153261E+02 -0.94955668505E+01  0.59301946601E+02  0.50000004693E+02 0.  0.
        -12    1    1    2    0    0 -0.15020681455E+02  0.26475153261E+02  0.94955668505E+01  0.31886053399E+02  0.00000000000E+00 0.  1.
         11    1    3    3    0    0  0.13502746850E+02  0.85757995973E+01 -0.40225836087E+01  0.16493928894E+02  0.51100000000E-03 0. -1.
        -11    1    3    3    0    0  0.70183817613E+01 -0.22266667671E+00 -0.23730388926E+01  0.74120561819E+01  0.51100000000E-03 0.  1.
         12    1    3    3    0    0 -0.55004471564E+01 -0.34828286182E+02 -0.30999443491E+01  0.35395961525E+02  0.00000000000E+00 0. -1.
</event>
<event>
 7    1  0.1101380E-011  0.5930194E+02  0.7816164E-02  0.1266605E+00
        -11   -1    0    0    0    0  0.00000000000E+00  0.00000000000E+00  0.45593999997E+02  0.45594000000E+02  0.51100000000E-03 0.  1.
         11   -1    0    0    0    0 -0.00000000000E+00 -0.00000000000E+00 -0.45593999997E+02  0.45594000000E+02  0.51100000000E-03 0. -1.
    9900012    2    1    2    0    0 -0.26783739781E+02  0.16845210684E+02 -0.39485595923E+01  0.59301937802E+02  0.49999988645E+02 0.  0.
        -12    1    1    2    0    0  0.26783739781E+02 -0.16845210684E+02  0.39485595923E+01  0.31886062198E+02  0.00000000000E+00 0.  1.
         11    1    3    3    0    0 -0.81806950060E+01  0.60241499680E+01 -0.44478011056E+01  0.11090405248E+02  0.51100000000E-03 0. -1.
        -11    1    3    3    0    0 -0.93723479267E+01  0.26146742129E+02  0.78587611371E+01  0.28866124723E+02  0.51100000000E-03 0.  1.
        -12    1    3    3    0    0 -0.92306968484E+01 -0.15325681413E+02 -0.73595196239E+01  0.19345407832E+02  0.00000000000E+00 0.  1.
</event>
<event>
 7    1  0.1101380E-011  0.5930190E+02  0.7816164E-02  0.1266605E+00
        -11   -1    0    0    0    0  0.00000000000E+00  0.00000000000E+00  0.45593999997E+02  0.45594000000E+02  0.51100000000E-03 0.  1.
         11   -1    0    0    0    0 -0.00000000000E+00 -0.00000000000E+00 -0.45593999997E+02  0.45594000000E+02  0.51100000000E-03 0. -1.
    9900012    2    1    2    0    0  0.92350106420E+01 -0.30188078939E+02  0.44853035614E+01  0.59301898331E+02  0.49999916661E+02 0.  0.
        -12    1    1    2    0    0 -0.92350106420E+01  0.30188078939E+02 -0.44853035614E+01  0.31886101669E+02  0.00000000000E+00 0.  1.
         11    1    3    3    0    0  0.61819569854E+01  0.65070969998E+01  0.50621507074E+01  0.10304575371E+02  0.51100000000E-03 0. -1.
        -11    1    3    3    0    0  0.38935048883E+01 -0.15051105699E+02  0.15553191234E+02  0.21990837203E+02  0.51100000000E-03 0.  1.
         12    1    3    3    0    0 -0.84045123171E+00 -0.21644070239E+02 -0.16130038380E+02  0.27006485757E+02  0.00000000000E+00 0. -1.
</event>
<event>
 7    1  0.1101380E-011  0.5930194E+02  0.7816164E-02  0.1266605E+00
        -11   -1    0    0    0    0  0.00000000000E+00  0.00000000000E+00  0.45593999997E+02  0.45594000000E+02  0.51100000000E-03 0.  1.
         11   -1    0    0    0    0 -0.00000000000E+00 -0.00000000000E+00 -0.45593999997E+02  0.45594000000E+02  0.51100000000E-03 0. -1.
    9900012    2    1    2    0    0 -0.57535933674E+01  0.17264529041E+02 -0.26183071645E+02  0.59301936580E+02  0.49999986417E+02 0.  0.
        -12    1    1    2    0    0  0.57535933674E+01 -0.17264529041E+02  0.26183071645E+02  0.31886063420E+02  0.00000000000E+00 0.  1.
         11    1    3    3    0    0 -0.84350387422E+01  0.16330225671E+02 -0.43199381512E+01  0.18880890205E+02  0.51100000000E-03 0. -1.
        -11    1    3    3    0    0  0.11264010290E+02  0.97177368212E+01  0.52520575264E+00  0.14885838172E+02  0.51100000000E-03 0.  1.
        -12    1    3    3    0    0 -0.85825649154E+01 -0.87834334515E+01 -0.22388339247E+02  0.25535208203E+02  0.00000000000E+00 0.  1.
</event>
<event>
 7    1  0.1101380E-011  0.5930194E+02  0.7816164E-02  0.1266605E+00
        -11   -1    0    0    0    0  0.00000000000E+00  0.00000000000E+00  0.45593999997E+02  0.45594000000E+02  0.51100000000E-03 0. -1.
         11   -1    0    0    0    0 -0.00000000000E+00 -0.00000000000E+00 -0.45593999997E+02  0.45594000000E+02  0.51100000000E-03 0.  1.
    9900012    2    1    2    0    0  0.60866256578E+01  0.20741253828E+02  0.23440860050E+02  0.59301944394E+02  0.50000000668E+02 0.  0.
        -12    1    1    2    0    0 -0.60866256578E+01 -0.20741253828E+02 -0.23440860050E+02  0.31886055606E+02  0.00000000000E+00 0.  1.
         11    1    3    3    0    0 -0.20406728542E+01  0.33364157326E+02  0.23545194075E+02  0.40886519833E+02  0.51100000000E-03 0. -1.
        -11    1    3    3    0    0  0.54573056697E+01  0.24027953549E-01 -0.52754583547E+00  0.54827974050E+01  0.51100000000E-03 0.  1.
        -12    1    3    3    0    0  0.26699928423E+01 -0.12646931451E+02  0.42321180976E+00  0.12932627156E+02  0.00000000000E+00 0.  1.
</event>
<event>
 7    1  0.1101380E-011  0.5930193E+02  0.7816164E-02  0.1266605E+00
        -11   -1    0    0    0    0  0.00000000000E+00  0.00000000000E+00  0.45593999997E+02  0.45594000000E+02  0.51100000000E-03 0.  1.
         11   -1    0    0    0    0 -0.00000000000E+00 -0.00000000000E+00 -0.45593999997E+02  0.45594000000E+02  0.51100000000E-03 0. -1.
    9900012    2    1    2    0    0 -0.10476695573E+02  0.29665780785E+02 -0.51866904231E+01  0.59301930044E+02  0.49999974497E+02 0.  0.
        -12    1    1    2    0    0  0.10476695573E+02 -0.29665780785E+02  0.51866904231E+01  0.31886069956E+02  0.00000000000E+00 0.  1.
         11    1    3    3    0    0  0.39530393493E+01 -0.75659300833E+01 -0.13854635272E-02  0.85363821554E+01  0.51100000000E-03 0. -1.
        -11    1    3    3    0    0 -0.95991759570E+01  0.50669957755E+00  0.68662848705E+01  0.11812992496E+02  0.51100000000E-03 0.  1.
         12    1    3    3    0    0 -0.48305589649E+01  0.36725011291E+02 -0.12051589830E+02  0.38952555393E+02  0.00000000000E+00 0. -1.
</event>
<event>
 7    1  0.1101380E-011  0.5930194E+02  0.7816164E-02  0.1266605E+00
        -11   -1    0    0    0    0  0.00000000000E+00  0.00000000000E+00  0.45593999997E+02  0.45594000000E+02  0.51100000000E-03 0.  1.
         11   -1    0    0    0    0 -0.00000000000E+00 -0.00000000000E+00 -0.45593999997E+02  0.45594000000E+02  0.51100000000E-03 0. -1.
    9900012    2    1    2    0    0 -0.29295073781E+02 -0.37677569207E+01 -0.12013468772E+02  0.59301940790E+02  0.49999994094E+02 0.  0.
        -12    1    1    2    0    0  0.29295073781E+02  0.37677569207E+01  0.12013468772E+02  0.31886059210E+02  0.00000000000E+00 0.  1.
         11    1    3    3    0    0 -0.19074390349E+02  0.75421490353E+01 -0.79707000292E+01  0.22005645605E+02  0.51100000000E-03 0. -1.
        -11    1    3    3    0    0 -0.43643840788E+01  0.11115241254E+02 -0.71398236015E+01  0.13913070037E+02  0.51100000000E-03 0.  1.
        -12    1    3    3    0    0 -0.58562993529E+01 -0.22425147210E+02  0.30970548590E+01  0.23383225148E+02  0.00000000000E+00 0.  1.
</event>
<event>
 7    1  0.1101380E-011  0.5930195E+02  0.7816164E-02  0.1266605E+00
        -11   -1    0    0    0    0  0.00000000000E+00  0.00000000000E+00  0.45593999997E+02  0.45594000000E+02  0.51100000000E-03 0.  1.
         11   -1    0    0    0    0 -0.00000000000E+00 -0.00000000000E+00 -0.45593999997E+02  0.45594000000E+02  0.51100000000E-03 0. -1.
    9900012    2    1    2    0    0 -0.16947759696E+02 -0.15101964853E+02 -0.22392507330E+02  0.59301948415E+02  0.50000008002E+02 0.  0.
        -12    1    1    2    0    0  0.16947759696E+02  0.15101964853E+02  0.22392507330E+02  0.31886051585E+02  0.00000000000E+00 0.  1.
         11    1    3    3    0    0 -0.84766179235E+01 -0.14066296637E+01 -0.12735065150E+02  0.15362732279E+02  0.51100000000E-03 0. -1.
        -11    1    3    3    0    0 -0.36928327027E+01  0.12341492024E+02  0.48355893520E+01  0.13759809715E+02  0.51100000000E-03 0.  1.
         12    1    3    3    0    0 -0.47783090694E+01 -0.26036827214E+02 -0.14493031532E+02  0.30179406421E+02  0.00000000000E+00 0. -1.
</event>
<event>
 7    1  0.1101380E-011  0.5930192E+02  0.7816164E-02  0.1266605E+00
        -11   -1    0    0    0    0  0.00000000000E+00  0.00000000000E+00  0.45593999997E+02  0.45594000000E+02  0.51100000000E-03 0.  1.
         11   -1    0    0    0    0 -0.00000000000E+00 -0.00000000000E+00 -0.45593999997E+02  0.45594000000E+02  0.51100000000E-03 0. -1.
    9900012    2    1    2    0    0  0.23663328235E+02 -0.10025409305E+01 -0.21348630872E+02  0.59301917902E+02  0.49999952353E+02 0.  0.
        -12    1    1    2    0    0 -0.23663328235E+02  0.10025409305E+01  0.21348630872E+02  0.31886082098E+02  0.00000000000E+00 0.  1.
         11    1    3    3    0    0 -0.87068897264E+01  0.61792170786E+00  0.59693337770E+01  0.10574719946E+02  0.51100000000E-03 0. -1.
        -11    1    3    3    0    0 -0.33497964667E+00 -0.57957936384E+01  0.15972023746E+00  0.58076627036E+01  0.51100000000E-03 0.  1.
         12    1    3    3    0    0  0.32705197608E+02  0.41753310001E+01 -0.27477684886E+02  0.42919535252E+02  0.00000000000E+00 0. -1.
</event>
<event>
 7    1  0.1101380E-011  0.5930196E+02  0.7816164E-02  0.1266605E+00
        -11   -1    0    0    0    0  0.00000000000E+00  0.00000000000E+00  0.45593999997E+02  0.45594000000E+02  0.51100000000E-03 0. -1.
         11   -1    0    0    0    0 -0.00000000000E+00 -0.00000000000E+00 -0.45593999997E+02  0.45594000000E+02  0.51100000000E-03 0.  1.
    9900012    2    1    2    0    0 -0.29681908941E+02 -0.10107835813E+02  0.57909742625E+01  0.59301961580E+02  0.50000032012E+02 0.  0.
        -12    1    1    2    0    0  0.29681908941E+02  0.10107835813E+02 -0.57909742625E+01  0.31886038420E+02  0.00000000000E+00 0.  1.
         11    1    3    3    0    0 -0.57971012825E+01 -0.15271913099E+02  0.51873872907E+01  0.17139040234E+02  0.51100000000E-03 0.  1.
        -11    1    3    3    0    0 -0.27570494713E+02 -0.77069483517E+01  0.20272040016E+01  0.28699107790E+02  0.51100000000E-03 0. -1.
         12    1    3    3    0    0  0.36856870551E+01  0.12871025637E+02 -0.14236170298E+01  0.13463813556E+02  0.00000000000E+00 0. -1.
</event>
<event>
 7    1  0.1101380E-011  0.5930195E+02  0.7816164E-02  0.1266605E+00
        -11   -1    0    0    0    0  0.00000000000E+00  0.00000000000E+00  0.45593999997E+02  0.45594000000E+02  0.51100000000E-03 0. -1.
         11   -1    0    0    0    0 -0.00000000000E+00 -0.00000000000E+00 -0.45593999997E+02  0.45594000000E+02  0.51100000000E-03 0.  1.
    9900012    2    1    2    0    0 -0.26084837557E+02 -0.16987599915E+02  0.69081663536E+01  0.59301951897E+02  0.50000014352E+02 0.  0.
        -12    1    1    2    0    0  0.26084837557E+02  0.16987599915E+02 -0.69081663536E+01  0.31886048103E+02  0.00000000000E+00 0.  1.
         11    1    3    3    0    0 -0.29539932277E+02 -0.13618262276E+02  0.17147510323E+02  0.36770936579E+02  0.51100000000E-03 0. -1.
        -11    1    3    3    0    0 -0.62501018672E+01 -0.62307240485E+01 -0.10950549900E+01  0.88929658276E+01  0.51100000000E-03 0.  1.
        -12    1    3    3    0    0  0.97051965874E+01  0.28613864091E+01 -0.91442889792E+01  0.13638049491E+02  0.00000000000E+00 0.  1.
</event>
<event>
 7    1  0.1101380E-011  0.5930193E+02  0.7816164E-02  0.1266605E+00
        -11   -1    0    0    0    0  0.00000000000E+00  0.00000000000E+00  0.45593999997E+02  0.45594000000E+02  0.51100000000E-03 0. -1.
         11   -1    0    0    0    0 -0.00000000000E+00 -0.00000000000E+00 -0.45593999997E+02  0.45594000000E+02  0.51100000000E-03 0.  1.
    9900012    2    1    2    0    0 -0.14286883193E+02  0.26628702686E+02 -0.10174399795E+02  0.59301933305E+02  0.49999980444E+02 0.  0.
        -12    1    1    2    0    0  0.14286883193E+02 -0.26628702686E+02  0.10174399795E+02  0.31886066695E+02  0.00000000000E+00 0.  1.
         11    1    3    3    0    0 -0.79860799576E+01 -0.30206289024E+01  0.93401570740E+01  0.12654651575E+02  0.51100000000E-03 0. -1.
        -11    1    3    3    0    0  0.13978130586E+01 -0.58023328889E+01 -0.40381450981E+01  0.72060782951E+01  0.51100000000E-03 0.  1.
         12    1    3    3    0    0 -0.76986162942E+01  0.35451664477E+02 -0.15476411771E+02  0.39441203435E+02  0.00000000000E+00 0. -1.
</event>
<event>
 7    1  0.1101380E-011  0.5930195E+02  0.7816164E-02  0.1266605E+00
        -11   -1    0    0    0    0  0.00000000000E+00  0.00000000000E+00  0.45593999997E+02  0.45594000000E+02  0.51100000000E-03 0.  1.
         11   -1    0    0    0    0 -0.00000000000E+00 -0.00000000000E+00 -0.45593999997E+02  0.45594000000E+02  0.51100000000E-03 0. -1.
    9900012    2    1    2    0    0  0.11387342550E+02  0.23922224622E+02 -0.17741925783E+02  0.59301947694E+02  0.50000006686E+02 0.  0.
        -12    1    1    2    0    0 -0.11387342550E+02 -0.23922224622E+02  0.17741925783E+02  0.31886052306E+02  0.00000000000E+00 0.  1.
         11    1    3    3    0    0 -0.44267927919E+01 -0.68021676316E+01 -0.94683766344E+01  0.12470610862E+02  0.51100000000E-03 0. -1.
        -11    1    3    3    0    0 -0.39922407639E+01  0.28646139314E+00  0.64943287663E+01  0.76286534089E+01  0.51100000000E-03 0.  1.
         12    1    3    3    0    0  0.19806376106E+02  0.30437930860E+02 -0.14767877915E+02  0.39202683423E+02  0.00000000000E+00 0. -1.
</event>
<event>
 7    1  0.1101380E-011  0.5930169E+02  0.7816164E-02  0.1266606E+00
        -11   -1    0    0    0    0  0.00000000000E+00  0.00000000000E+00  0.45593999997E+02  0.45594000000E+02  0.51100000000E-03 0.  1.
         11   -1    0    0    0    0 -0.00000000000E+00 -0.00000000000E+00 -0.45593999997E+02  0.45594000000E+02  0.51100000000E-03 0. -1.
    9900012    2    1    2    0    0 -0.21947875295E+02 -0.20260726378E+02 -0.11159328124E+02  0.59301688399E+02  0.49999533793E+02 0.  0.
        -12    1    1    2    0    0  0.21947875295E+02  0.20260726378E+02  0.11159328124E+02  0.31886311601E+02  0.00000000000E+00 0.  1.
         11    1    3    3    0    0 -0.27931998418E+02 -0.10529078510E+02 -0.10958756667E+01  0.29870704271E+02  0.51100000000E-03 0. -1.
        -11    1    3    3    0    0 -0.42521067473E+01 -0.62546280075E+01  0.62834565648E+01  0.98327315617E+01  0.51100000000E-03 0.  1.
        -12    1    3    3    0    0  0.10236229871E+02 -0.34770198606E+01 -0.16346909022E+02  0.19598252566E+02  0.00000000000E+00 0.  1.
</event>
<event>
 7    1  0.1101380E-011  0.5930201E+02  0.7816164E-02  0.1266605E+00
        -11   -1    0    0    0    0  0.00000000000E+00  0.00000000000E+00  0.45593999997E+02  0.45594000000E+02  0.51100000000E-03 0. -1.
         11   -1    0    0    0    0 -0.00000000000E+00 -0.00000000000E+00 -0.45593999997E+02  0.45594000000E+02  0.51100000000E-03 0.  1.
    9900012    2    1    2    0    0 -0.19632437470E+02  0.20660458269E+02  0.14297872038E+02  0.59302011201E+02  0.50000122508E+02 0.  0.
        -12    1    1    2    0    0  0.19632437470E+02 -0.20660458269E+02 -0.14297872038E+02  0.31885988799E+02  0.00000000000E+00 0.  1.
         11    1    3    3    0    0 -0.32816545191E+02  0.12420575246E+02  0.10528753774E+02  0.36634014031E+02  0.51100000000E-03 0. -1.
        -11    1    3    3    0    0  0.23050982439E+01 -0.47697502778E+01  0.10286847749E-01  0.52975562014E+01  0.51100000000E-03 0.  1.
        -12    1    3    3    0    0  0.10879009478E+02  0.13009633301E+02  0.37588314161E+01  0.17370440969E+02  0.00000000000E+00 0.  1.
</event>
<event>
 7    1  0.1101380E-011  0.5930199E+02  0.7816164E-02  0.1266605E+00
        -11   -1    0    0    0    0  0.00000000000E+00  0.00000000000E+00  0.45593999997E+02  0.45594000000E+02  0.51100000000E-03 0.  1.
         11   -1    0    0    0    0 -0.00000000000E+00 -0.00000000000E+00 -0.45593999997E+02  0.45594000000E+02  0.51100000000E-03 0. -1.
    9900012    2    1    2    0    0  0.28558188074E+02 -0.13220108624E+02 -0.51358081226E+01  0.59301985775E+02  0.50000076137E+02 0.  0.
        -12    1    1    2    0    0 -0.28558188074E+02  0.13220108624E+02  0.51358081226E+01  0.31886014225E+02  0.00000000000E+00 0.  1.
         11    1    3    3    0    0  0.72054189829E+01 -0.19313886445E+01 -0.19562615976E+01  0.77120220769E+01  0.51100000000E-03 0. -1.
        -11    1    3    3    0    0  0.21151723251E+02 -0.27825386694E+02 -0.19498575190E+01  0.35006420636E+02  0.51100000000E-03 0.  1.
        -12    1    3    3    0    0  0.20104583929E+00  0.16536666714E+02 -0.12296890060E+01  0.16583543062E+02  0.00000000000E+00 0.  1.
</event>
<event>
 7    1  0.1101380E-011  0.5930198E+02  0.7816164E-02  0.1266605E+00
        -11   -1    0    0    0    0  0.00000000000E+00  0.00000000000E+00  0.45593999997E+02  0.45594000000E+02  0.51100000000E-03 0.  1.
         11   -1    0    0    0    0 -0.00000000000E+00 -0.00000000000E+00 -0.45593999997E+02  0.45594000000E+02  0.51100000000E-03 0. -1.
    9900012    2    1    2    0    0 -0.22356829026E+02  0.13395740234E+01 -0.22695731711E+02  0.59301976407E+02  0.50000059052E+02 0.  0.
        -12    1    1    2    0    0  0.22356829026E+02 -0.13395740234E+01  0.22695731711E+02  0.31886023593E+02  0.00000000000E+00 0.  1.
         11    1    3    3    0    0 -0.17948025365E+02  0.80119448664E+01 -0.24803961099E+01  0.19810987865E+02  0.51100000000E-03 0. -1.
        -11    1    3    3    0    0 -0.12667224955E+02 -0.15630596674E+02 -0.64944967684E+01  0.21141254196E+02  0.51100000000E-03 0.  1.
        -12    1    3    3    0    0  0.82584212940E+01  0.89582258305E+01 -0.13720838833E+02  0.18349734346E+02  0.00000000000E+00 0.  1.
</event>
<event>
 7    1  0.1101380E-011  0.5930194E+02  0.7816164E-02  0.1266605E+00
        -11   -1    0    0    0    0  0.00000000000E+00  0.00000000000E+00  0.45593999997E+02  0.45594000000E+02  0.51100000000E-03 0.  1.
         11   -1    0    0    0    0 -0.00000000000E+00 -0.00000000000E+00 -0.45593999997E+02  0.45594000000E+02  0.51100000000E-03 0. -1.
    9900012    2    1    2    0    0 -0.17650933380E+02  0.22416849862E+02 -0.14235532699E+02  0.59301937243E+02  0.49999987627E+02 0.  0.
        -12    1    1    2    0    0  0.17650933380E+02 -0.22416849862E+02  0.14235532699E+02  0.31886062757E+02  0.00000000000E+00 0.  1.
         11    1    3    3    0    0 -0.14378137834E+02  0.19768359996E+02 -0.28687719743E+02  0.37689576395E+02  0.51100000000E-03 0. -1.
        -11    1    3    3    0    0 -0.41961608066E+01  0.81370736243E+01  0.44812010573E+01  0.10193178889E+02  0.51100000000E-03 0.  1.
        -12    1    3    3    0    0  0.92336526028E+00 -0.54885837585E+01  0.99709859869E+01  0.11419181960E+02  0.00000000000E+00 0.  1.
</event>
<event>
 7    1  0.1101380E-011  0.5930192E+02  0.7816164E-02  0.1266605E+00
        -11   -1    0    0    0    0  0.00000000000E+00  0.00000000000E+00  0.45593999997E+02  0.45594000000E+02  0.51100000000E-03 0.  1.
         11   -1    0    0    0    0 -0.00000000000E+00 -0.00000000000E+00 -0.45593999997E+02  0.45594000000E+02  0.51100000000E-03 0. -1.
    9900012    2    1    2    0    0  0.26899373156E+02  0.42505086349E+01 -0.16585499634E+02  0.59301923134E+02  0.49999961894E+02 0.  0.
        -12    1    1    2    0    0 -0.26899373156E+02 -0.42505086349E+01  0.16585499634E+02  0.31886076866E+02  0.00000000000E+00 0.  1.
         11    1    3    3    0    0  0.12767449948E+01  0.93300927289E+01  0.11608172091E+02  0.14947587352E+02  0.51100000000E-03 0. -1.
        -11    1    3    3    0    0  0.11045971983E+02 -0.94520899199E+01 -0.28835150423E+01  0.14821273905E+02  0.51100000000E-03 0.  1.
         12    1    3    3    0    0  0.14576656178E+02  0.43725058259E+01 -0.25310156682E+02  0.29533061876E+02  0.00000000000E+00 0. -1.
</event>
<event>
 7    1  0.1101380E-011  0.5930194E+02  0.7816164E-02  0.1266605E+00
        -11   -1    0    0    0    0  0.00000000000E+00  0.00000000000E+00  0.45593999997E+02  0.45594000000E+02  0.51100000000E-03 0.  1.
         11   -1    0    0    0    0 -0.00000000000E+00 -0.00000000000E+00 -0.45593999997E+02  0.45594000000E+02  0.51100000000E-03 0. -1.
    9900012    2    1    2    0    0 -0.21615690725E+02 -0.95626830957E+01 -0.21401814529E+02  0.59301942567E+02  0.49999997336E+02 0.  0.
        -12    1    1    2    0    0  0.21615690725E+02  0.95626830957E+01  0.21401814529E+02  0.31886057433E+02  0.00000000000E+00 0.  1.
         11    1    3    3    0    0 -0.18159559116E+02 -0.15024102322E+02 -0.12819148696E+02  0.26829532449E+02  0.51100000000E-03 0. -1.
        -11    1    3    3    0    0 -0.10213440639E+02  0.12916993011E+02  0.34113163657E+01  0.16816663098E+02  0.51100000000E-03 0.  1.
         12    1    3    3    0    0  0.67573090299E+01 -0.74555737845E+01 -0.11993982198E+02  0.15655747020E+02  0.00000000000E+00 0. -1.
</event>
<event>
 7    1  0.1101380E-011  0.5930192E+02  0.7816164E-02  0.1266605E+00
        -11   -1    0    0    0    0  0.00000000000E+00  0.00000000000E+00  0.45593999997E+02  0.45594000000E+02  0.51100000000E-03 0.  1.
         11   -1    0    0    0    0 -0.00000000000E+00 -0.00000000000E+00 -0.45593999997E+02  0.45594000000E+02  0.51100000000E-03 0. -1.
    9900012    2    1    2    0    0  0.87453889308E+01 -0.99339308612E+01 -0.29009611997E+02  0.59301915290E+02  0.49999947589E+02 0.  0.
        -12    1    1    2    0    0 -0.87453889308E+01  0.99339308612E+01  0.29009611997E+02  0.31886084710E+02  0.00000000000E+00 0.  1.
         11    1    3    3    0    0 -0.13232217417E+02 -0.10235457895E+02 -0.12314462505E+02  0.20772630145E+02  0.51100000000E-03 0. -1.
        -11    1    3    3    0    0  0.16063535203E+02 -0.11095273794E+02 -0.29923833330E+01  0.19750863831E+02  0.51100000000E-03 0.  1.
        -12    1    3    3    0    0  0.59140711449E+01  0.11396800828E+02 -0.13702766159E+02  0.18778421314E+02  0.00000000000E+00 0.  1.
</event>
<event>
 7    1  0.1101380E-011  0.5930178E+02  0.7816164E-02  0.1266605E+00
        -11   -1    0    0    0    0  0.00000000000E+00  0.00000000000E+00  0.45593999997E+02  0.45594000000E+02  0.51100000000E-03 0.  1.
         11   -1    0    0    0    0 -0.00000000000E+00 -0.00000000000E+00 -0.45593999997E+02  0.45594000000E+02  0.51100000000E-03 0. -1.
    9900012    2    1    2    0    0  0.14350416501E+02  0.16628801525E+01 -0.28425897971E+02  0.59301775708E+02  0.49999693024E+02 0.  0.
        -12    1    1    2    0    0 -0.14350416501E+02 -0.16628801525E+01  0.28425897971E+02  0.31886224292E+02  0.00000000000E+00 0.  1.
         11    1    3    3    0    0  0.26530159103E+01  0.26133124228E+01 -0.99237962533E+01  0.10599510723E+02  0.51100000000E-03 0. -1.
        -11    1    3    3    0    0  0.16710066955E+02  0.16969293170E+02 -0.21182165198E+01  0.23909623372E+02  0.51100000000E-03 0.  1.
        -12    1    3    3    0    0 -0.50126663641E+01 -0.17919725440E+02 -0.16383885198E+02  0.24792641612E+02  0.00000000000E+00 0.  1.
</event>
<event>
 7    1  0.1101380E-011  0.5930196E+02  0.7816164E-02  0.1266605E+00
        -11   -1    0    0    0    0  0.00000000000E+00  0.00000000000E+00  0.45593999997E+02  0.45594000000E+02  0.51100000000E-03 0.  1.
         11   -1    0    0    0    0 -0.00000000000E+00 -0.00000000000E+00 -0.45593999997E+02  0.45594000000E+02  0.51100000000E-03 0. -1.
    9900012    2    1    2    0    0  0.18898880555E+02  0.76413554368E+01 -0.24518591562E+02  0.59301963380E+02  0.50000035293E+02 0.  0.
        -12    1    1    2    0    0 -0.18898880555E+02 -0.76413554368E+01  0.24518591562E+02  0.31886036620E+02  0.00000000000E+00 0.  1.
         11    1    3    3    0    0  0.13879124685E+02 -0.93216587105E+01 -0.17974093747E+02  0.24547738581E+02  0.51100000000E-03 0. -1.
        -11    1    3    3    0    0  0.51394109479E+01  0.87072196224E+01 -0.17992848227E+02  0.20639084428E+02  0.51100000000E-03 0.  1.
        -12    1    3    3    0    0 -0.11965507769E+00  0.82557945250E+01  0.11448350411E+02  0.14115140372E+02  0.00000000000E+00 0.  1.
</event>
<event>
 7    1  0.1101380E-011  0.5930194E+02  0.7816164E-02  0.1266605E+00
        -11   -1    0    0    0    0  0.00000000000E+00  0.00000000000E+00  0.45593999997E+02  0.45594000000E+02  0.51100000000E-03 0.  1.
         11   -1    0    0    0    0 -0.00000000000E+00 -0.00000000000E+00 -0.45593999997E+02  0.45594000000E+02  0.51100000000E-03 0. -1.
    9900012    2    1    2    0    0  0.18834125777E+02 -0.21360333091E+02 -0.14343379845E+02  0.59301942405E+02  0.49999997041E+02 0.  0.
        -12    1    1    2    0    0 -0.18834125777E+02  0.21360333091E+02  0.14343379845E+02  0.31886057595E+02  0.00000000000E+00 0.  1.
         11    1    3    3    0    0  0.61361843436E+01 -0.18588801496E+02 -0.12890285870E+02  0.23438339733E+02  0.51100000000E-03 0. -1.
        -11    1    3    3    0    0  0.78300538194E+01 -0.11324219596E+02 -0.14187715597E+02  0.19769647604E+02  0.51100000000E-03 0.  1.
        -12    1    3    3    0    0  0.48678876141E+01  0.85526880009E+01  0.12734621622E+02  0.16093955068E+02  0.00000000000E+00 0.  1.
</event>
<event>
 7    1  0.1101380E-011  0.5930194E+02  0.7816164E-02  0.1266605E+00
        -11   -1    0    0    0    0  0.00000000000E+00  0.00000000000E+00  0.45593999997E+02  0.45594000000E+02  0.51100000000E-03 0.  1.
         11   -1    0    0    0    0 -0.00000000000E+00 -0.00000000000E+00 -0.45593999997E+02  0.45594000000E+02  0.51100000000E-03 0. -1.
    9900012    2    1    2    0    0  0.26633703419E+02  0.48410251376E+01 -0.16850254512E+02  0.59301940988E+02  0.49999994456E+02 0.  0.
        -12    1    1    2    0    0 -0.26633703419E+02 -0.48410251376E+01  0.16850254512E+02  0.31886059012E+02  0.00000000000E+00 0.  1.
         11    1    3    3    0    0  0.50552791911E+00  0.21313014285E+01  0.20655984635E+01  0.30107642767E+01  0.51100000000E-03 0. -1.
        -11    1    3    3    0    0 -0.89108453216E+01  0.79635106166E+01 -0.17037142575E+02  0.20810691797E+02  0.51100000000E-03 0.  1.
         12    1    3    3    0    0  0.35039020822E+02 -0.52537869076E+01 -0.18787104007E+01  0.35480484915E+02  0.00000000000E+00 0. -1.
</event>
<event>
 7    1  0.1101380E-011  0.5930166E+02  0.7816164E-02  0.1266606E+00
        -11   -1    0    0    0    0  0.00000000000E+00  0.00000000000E+00  0.45593999997E+02  0.45594000000E+02  0.51100000000E-03 0. -1.
         11   -1    0    0    0    0 -0.00000000000E+00 -0.00000000000E+00 -0.45593999997E+02  0.45594000000E+02  0.51100000000E-03 0.  1.
    9900012    2    1    2    0    0 -0.18263567797E+02 -0.36705550248E+01  0.25878718253E+02  0.59301655881E+02  0.49999474486E+02 0.  0.
        -12    1    1    2    0    0  0.18263567797E+02  0.36705550248E+01 -0.25878718253E+02  0.31886344119E+02  0.00000000000E+00 0.  1.
         11    1    3    3    0    0  0.54659381634E+01  0.28124901354E+01  0.13760518932E+02  0.15071113506E+02  0.51100000000E-03 0. -1.
        -11    1    3    3    0    0  0.73862560646E+01 -0.68134489843E+01  0.79944078194E+01  0.12840966566E+02  0.51100000000E-03 0.  1.
         12    1    3    3    0    0 -0.31115762025E+02  0.33040382410E+00  0.41237915018E+01  0.31389575808E+02  0.00000000000E+00 0. -1.
</event>
<event>
 7    1  0.1101380E-011  0.5930195E+02  0.7816164E-02  0.1266605E+00
        -11   -1    0    0    0    0  0.00000000000E+00  0.00000000000E+00  0.45593999997E+02  0.45594000000E+02  0.51100000000E-03 0.  1.
         11   -1    0    0    0    0 -0.00000000000E+00 -0.00000000000E+00 -0.45593999997E+02  0.45594000000E+02  0.51100000000E-03 0. -1.
    9900012    2    1    2    0    0 -0.22211481592E+02 -0.75819523574E+01 -0.21584355521E+02  0.59301947887E+02  0.50000007039E+02 0.  0.
        -12    1    1    2    0    0  0.22211481592E+02  0.75819523574E+01  0.21584355521E+02  0.31886052113E+02  0.00000000000E+00 0.  1.
         11    1    3    3    0    0 -0.57822791180E+01  0.21183297249E+01  0.70861439070E+01  0.93880513609E+01  0.51100000000E-03 0. -1.
        -11    1    3    3    0    0 -0.10387458823E+02  0.29778994926E+01  0.61038439427E+01  0.12410644517E+02  0.51100000000E-03 0.  1.
        -12    1    3    3    0    0 -0.60417436512E+01 -0.12678181575E+02 -0.34774343371E+02  0.37503252009E+02  0.00000000000E+00 0.  1.
</event>
<event>
 7    1  0.1101380E-011  0.5930195E+02  0.7816164E-02  0.1266605E+00
        -11   -1    0    0    0    0  0.00000000000E+00  0.00000000000E+00  0.45593999997E+02  0.45594000000E+02  0.51100000000E-03 0.  1.
         11   -1    0    0    0    0 -0.00000000000E+00 -0.00000000000E+00 -0.45593999997E+02  0.45594000000E+02  0.51100000000E-03 0. -1.
    9900012    2    1    2    0    0 -0.14525334666E+02 -0.15932145718E+02 -0.23492588633E+02  0.59301947641E+02  0.50000006590E+02 0.  0.
        -12    1    1    2    0    0  0.14525334666E+02  0.15932145718E+02  0.23492588633E+02  0.31886052359E+02  0.00000000000E+00 0.  1.
         11    1    3    3    0    0  0.28030297734E+01  0.22091804436E+01  0.39774839555E+01  0.53439529396E+01  0.51100000000E-03 0. -1.
        -11    1    3    3    0    0  0.29637504040E+01 -0.90111059951E+01  0.77826630162E+01  0.12270032257E+02  0.51100000000E-03 0.  1.
         12    1    3    3    0    0 -0.20292114844E+02 -0.91302201663E+01 -0.35252735605E+02  0.41687962444E+02  0.00000000000E+00 0. -1.
</event>
<event>
 7    1  0.1101380E-011  0.5930195E+02  0.7816164E-02  0.1266605E+00
        -11   -1    0    0    0    0  0.00000000000E+00  0.00000000000E+00  0.45593999997E+02  0.45594000000E+02  0.51100000000E-03 0.  1.
         11   -1    0    0    0    0 -0.00000000000E+00 -0.00000000000E+00 -0.45593999997E+02  0.45594000000E+02  0.51100000000E-03 0. -1.
    9900012    2    1    2    0    0  0.14719096287E+02 -0.20003325248E+01 -0.28214661015E+02  0.59301949415E+02  0.50000009825E+02 0.  0.
        -12    1    1    2    0    0 -0.14719096287E+02  0.20003325248E+01  0.28214661015E+02  0.31886050585E+02  0.00000000000E+00 0.  1.
         11    1    3    3    0    0  0.40578770210E+01  0.71599508286E+01 -0.29182257111E+02  0.30320544061E+02  0.51100000000E-03 0. -1.
        -11    1    3    3    0    0 -0.51931955301E+01  0.53362459949E+01 -0.38471176233E+00  0.74560582437E+01  0.51100000000E-03 0.  1.
         12    1    3    3    0    0  0.15854414796E+02 -0.14496529348E+02  0.13523078587E+01  0.21525347110E+02  0.00000000000E+00 0. -1.
</event>
<event>
 7    1  0.1101380E-011  0.5930194E+02  0.7816164E-02  0.1266605E+00
        -11   -1    0    0    0    0  0.00000000000E+00  0.00000000000E+00  0.45593999997E+02  0.45594000000E+02  0.51100000000E-03 0. -1.
         11   -1    0    0    0    0 -0.00000000000E+00 -0.00000000000E+00 -0.45593999997E+02  0.45594000000E+02  0.51100000000E-03 0.  1.
    9900012    2    1    2    0    0 -0.22653606607E+02 -0.22406834864E+02  0.12119847989E+01  0.59301936460E+02  0.49999986198E+02 0.  0.
        -12    1    1    2    0    0  0.22653606607E+02  0.22406834864E+02 -0.12119847989E+01  0.31886063540E+02  0.00000000000E+00 0.  1.
         11    1    3    3    0    0  0.23844644561E+01 -0.47123034123E+01  0.15210169976E+02  0.16100954790E+02  0.51100000000E-03 0. -1.
        -11    1    3    3    0    0  0.35890095699E+01 -0.16850434102E+01 -0.92442603865E+01  0.10058663497E+02  0.51100000000E-03 0.  1.
         12    1    3    3    0    0 -0.28627080633E+02 -0.16009488042E+02 -0.47539247909E+01  0.33142318172E+02  0.00000000000E+00 0. -1.
</event>
<event>
 7    1  0.1101380E-011  0.5930194E+02  0.7816164E-02  0.1266605E+00
        -11   -1    0    0    0    0  0.00000000000E+00  0.00000000000E+00  0.45593999997E+02  0.45594000000E+02  0.51100000000E-03 0.  1.
         11   -1    0    0    0    0 -0.00000000000E+00 -0.00000000000E+00 -0.45593999997E+02  0.45594000000E+02  0.51100000000E-03 0. -1.
    9900012    2    1    2    0    0  0.37286966426E+01 -0.30666814800E+02  0.78971031470E+01  0.59301938049E+02  0.49999989097E+02 0.  0.
        -12    1    1    2    0    0 -0.37286966426E+01  0.30666814800E+02 -0.78971031470E+01  0.31886061951E+02  0.00000000000E+00 0.  1.
         11    1    3    3    0    0  0.62433552760E+01 -0.14104303000E+02 -0.13176111767E+02  0.20285974706E+02  0.51100000000E-03 0. -1.
        -11    1    3    3    0    0  0.67541989285E+01 -0.17159686829E+02  0.29831821338E+01  0.18680830580E+02  0.51100000000E-03 0.  1.
        -12    1    3    3    0    0 -0.92688575619E+01  0.59717503031E+00  0.18090032780E+02  0.20335132763E+02  0.00000000000E+00 0.  1.
</event>
<event>
 7    1  0.1101380E-011  0.5930194E+02  0.7816164E-02  0.1266605E+00
        -11   -1    0    0    0    0  0.00000000000E+00  0.00000000000E+00  0.45593999997E+02  0.45594000000E+02  0.51100000000E-03 0. -1.
         11   -1    0    0    0    0 -0.00000000000E+00 -0.00000000000E+00 -0.45593999997E+02  0.45594000000E+02  0.51100000000E-03 0.  1.
    9900012    2    1    2    0    0 -0.81013137939E+01  0.21654729957E+02  0.21958194685E+02  0.59301938335E+02  0.49999989617E+02 0.  0.
        -12    1    1    2    0    0  0.81013137939E+01 -0.21654729957E+02 -0.21958194685E+02  0.31886061665E+02  0.00000000000E+00 0.  1.
         11    1    3    3    0    0 -0.11342162426E+02 -0.51533499167E+01  0.16387042426E+02  0.20584868802E+02  0.51100000000E-03 0. -1.
        -11    1    3    3    0    0  0.25872564532E+01  0.36358502439E+01 -0.98917065693E+01  0.10851689365E+02  0.51100000000E-03 0.  1.
         12    1    3    3    0    0  0.65359217925E+00  0.23172229630E+02  0.15462858829E+02  0.27865380168E+02  0.00000000000E+00 0. -1.
</event>
<event>
 7    1  0.1101380E-011  0.5930194E+02  0.7816164E-02  0.1266605E+00
        -11   -1    0    0    0    0  0.00000000000E+00  0.00000000000E+00  0.45593999997E+02  0.45594000000E+02  0.51100000000E-03 0.  1.
         11   -1    0    0    0    0 -0.00000000000E+00 -0.00000000000E+00 -0.45593999997E+02  0.45594000000E+02  0.51100000000E-03 0. -1.
    9900012    2    1    2    0    0 -0.27900965024E+01 -0.28302387532E+02 -0.14419129223E+02  0.59301936177E+02  0.49999985683E+02 0.  0.
        -12    1    1    2    0    0  0.27900965024E+01  0.28302387532E+02  0.14419129223E+02  0.31886063823E+02  0.00000000000E+00 0.  1.
         11    1    3    3    0    0 -0.25674880645E+01 -0.13215392921E+02  0.25307589091E+01  0.13698297191E+02  0.51100000000E-03 0. -1.
        -11    1    3    3    0    0  0.97259425567E+01 -0.19322237849E+02  0.40273917230E+01  0.22003697836E+02  0.51100000000E-03 0.  1.
         12    1    3    3    0    0 -0.99485509947E+01  0.42352432372E+01 -0.20977279856E+02  0.23599941151E+02  0.00000000000E+00 0. -1.
</event>
<event>
 7    1  0.1101380E-011  0.5930194E+02  0.7816164E-02  0.1266605E+00
        -11   -1    0    0    0    0  0.00000000000E+00  0.00000000000E+00  0.45593999997E+02  0.45594000000E+02  0.51100000000E-03 0.  1.
         11   -1    0    0    0    0 -0.00000000000E+00 -0.00000000000E+00 -0.45593999997E+02  0.45594000000E+02  0.51100000000E-03 0. -1.
    9900012    2    1    2    0    0  0.40502455196E+01 -0.50293080003E+01 -0.31225345021E+02  0.59301943495E+02  0.49999999029E+02 0.  0.
        -12    1    1    2    0    0 -0.40502455196E+01  0.50293080003E+01  0.31225345021E+02  0.31886056505E+02  0.00000000000E+00 0.  1.
         11    1    3    3    0    0  0.11652573361E+02 -0.21058904940E+01  0.35888690680E+01  0.12373246225E+02  0.51100000000E-03 0.  1.
        -11    1    3    3    0    0 -0.11647717422E+02 -0.91262802976E+01 -0.41289856710E+01  0.15362513992E+02  0.51100000000E-03 0. -1.
         12    1    3    3    0    0  0.40453895808E+01  0.62028627913E+01 -0.30685228418E+02  0.31566183278E+02  0.00000000000E+00 0. -1.
</event>
<event>
 7    1  0.1101380E-011  0.5930201E+02  0.7816164E-02  0.1266605E+00
        -11   -1    0    0    0    0  0.00000000000E+00  0.00000000000E+00  0.45593999997E+02  0.45594000000E+02  0.51100000000E-03 0. -1.
         11   -1    0    0    0    0 -0.00000000000E+00 -0.00000000000E+00 -0.45593999997E+02  0.45594000000E+02  0.51100000000E-03 0.  1.
    9900012    2    1    2    0    0 -0.25797992597E+02  0.18739777966E+02  0.22444271736E-01  0.59302012420E+02  0.50000124731E+02 0.  0.
        -12    1    1    2    0    0  0.25797992597E+02 -0.18739777966E+02 -0.22444271736E-01  0.31885987580E+02  0.00000000000E+00 0.  1.
         11    1    3    3    0    0  0.72165490753E+01 -0.12130778177E+00  0.73759663984E+01  0.10319795381E+02  0.51100000000E-03 0. -1.
        -11    1    3    3    0    0  0.29963693845E+01  0.93648475260E+01  0.30847641148E+01  0.10305065190E+02  0.51100000000E-03 0.  1.
         12    1    3    3    0    0 -0.36010911056E+02  0.94962382213E+01 -0.10438286241E+02  0.38677151849E+02  0.00000000000E+00 0. -1.
</event>
<event>
 7    1  0.1101380E-011  0.5930194E+02  0.7816164E-02  0.1266605E+00
        -11   -1    0    0    0    0  0.00000000000E+00  0.00000000000E+00  0.45593999997E+02  0.45594000000E+02  0.51100000000E-03 0.  1.
         11   -1    0    0    0    0 -0.00000000000E+00 -0.00000000000E+00 -0.45593999997E+02  0.45594000000E+02  0.51100000000E-03 0. -1.
    9900012    2    1    2    0    0 -0.12586409445E+02  0.22637675542E+02 -0.18596738533E+02  0.59301941280E+02  0.49999994988E+02 0.  0.
        -12    1    1    2    0    0  0.12586409445E+02 -0.22637675542E+02  0.18596738533E+02  0.31886058720E+02  0.00000000000E+00 0.  1.
         11    1    3    3    0    0  0.12875085831E+02  0.17079907008E+02 -0.27889841646E+01  0.21570106432E+02  0.51100000000E-03 0.  1.
        -11    1    3    3    0    0 -0.19322911310E+02 -0.16733825502E+01 -0.11550949801E+00  0.19395578191E+02  0.51100000000E-03 0. -1.
        -12    1    3    3    0    0 -0.61385839663E+01  0.72311510848E+01 -0.15692244870E+02  0.18336256657E+02  0.00000000000E+00 0.  1.
</event>
<event>
 7    1  0.1101380E-011  0.5930193E+02  0.7816164E-02  0.1266605E+00
        -11   -1    0    0    0    0  0.00000000000E+00  0.00000000000E+00  0.45593999997E+02  0.45594000000E+02  0.51100000000E-03 0. -1.
         11   -1    0    0    0    0 -0.00000000000E+00 -0.00000000000E+00 -0.45593999997E+02  0.45594000000E+02  0.51100000000E-03 0.  1.
    9900012    2    1    2    0    0  0.25970358946E+02  0.17673186517E+02  0.54699327441E+01  0.59301933612E+02  0.49999981004E+02 0.  0.
        -12    1    1    2    0    0 -0.25970358946E+02 -0.17673186517E+02 -0.54699327441E+01  0.31886066388E+02  0.00000000000E+00 0.  1.
         11    1    3    3    0    0 -0.12311569605E+01 -0.56106860252E+00  0.12786251633E+02  0.12857634950E+02  0.51100000000E-03 0. -1.
        -11    1    3    3    0    0 -0.10387238428E+01 -0.27752043699E+01 -0.10682216532E+02  0.11085596818E+02  0.51100000000E-03 0.  1.
        -12    1    3    3    0    0  0.28240239750E+02  0.21009459489E+02  0.33658976429E+01  0.35358701844E+02  0.00000000000E+00 0.  1.
</event>
<event>
 7    1  0.1101380E-011  0.5930195E+02  0.7816164E-02  0.1266605E+00
        -11   -1    0    0    0    0  0.00000000000E+00  0.00000000000E+00  0.45593999997E+02  0.45594000000E+02  0.51100000000E-03 0.  1.
         11   -1    0    0    0    0 -0.00000000000E+00 -0.00000000000E+00 -0.45593999997E+02  0.45594000000E+02  0.51100000000E-03 0. -1.
    9900012    2    1    2    0    0 -0.25883581696E+02 -0.15247047609E+02 -0.10690567048E+02  0.59301945274E+02  0.50000002272E+02 0.  0.
        -12    1    1    2    0    0  0.25883581696E+02  0.15247047609E+02  0.10690567048E+02  0.31886054726E+02  0.00000000000E+00 0.  1.
         11    1    3    3    0    0  0.90704104752E+01 -0.20427469893E+01 -0.76328475075E+01  0.12029360863E+02  0.51100000000E-03 0. -1.
        -11    1    3    3    0    0  0.13283716583E+01  0.12815595090E+01  0.67460469157E+01  0.69940056682E+01  0.51100000000E-03 0.  1.
         12    1    3    3    0    0 -0.36282363830E+02 -0.14485860129E+02 -0.98037664559E+01  0.40278578742E+02  0.00000000000E+00 0. -1.
</event>
<event>
 7    1  0.1101380E-011  0.5930195E+02  0.7816164E-02  0.1266605E+00
        -11   -1    0    0    0    0  0.00000000000E+00  0.00000000000E+00  0.45593999997E+02  0.45594000000E+02  0.51100000000E-03 0.  1.
         11   -1    0    0    0    0 -0.00000000000E+00 -0.00000000000E+00 -0.45593999997E+02  0.45594000000E+02  0.51100000000E-03 0. -1.
    9900012    2    1    2    0    0 -0.17092802964E+02  0.31089705205E+01 -0.26737433563E+02  0.59301953453E+02  0.50000017189E+02 0.  0.
        -12    1    1    2    0    0  0.17092802964E+02 -0.31089705205E+01  0.26737433563E+02  0.31886046547E+02  0.00000000000E+00 0.  1.
         11    1    3    3    0    0  0.62641758086E+01 -0.12016488770E+02 -0.13236292866E+02  0.18942949876E+02  0.51100000000E-03 0. -1.
        -11    1    3    3    0    0  0.40238189897E+01  0.21681996807E+01 -0.85083931965E+01  0.96584141641E+01  0.51100000000E-03 0.  1.
        -12    1    3    3    0    0 -0.27380797763E+02  0.12957259609E+02 -0.49927475007E+01  0.30700589413E+02  0.00000000000E+00 0.  1.
</event>
<event>
 7    1  0.1101380E-011  0.5930193E+02  0.7816164E-02  0.1266605E+00
        -11   -1    0    0    0    0  0.00000000000E+00  0.00000000000E+00  0.45593999997E+02  0.45594000000E+02  0.51100000000E-03 0. -1.
         11   -1    0    0    0    0 -0.00000000000E+00 -0.00000000000E+00 -0.45593999997E+02  0.45594000000E+02  0.51100000000E-03 0.  1.
    9900012    2    1    2    0    0  0.47605005134E+01 -0.29825511915E+02  0.10222438302E+02  0.59301925125E+02  0.49999965526E+02 0.  0.
        -12    1    1    2    0    0 -0.47605005134E+01  0.29825511915E+02 -0.10222438302E+02  0.31886074875E+02  0.00000000000E+00 0.  1.
         11    1    3    3    0    0  0.65077869192E+01 -0.18592918712E+02  0.11353477651E+02  0.22736520663E+02  0.51100000000E-03 0. -1.
        -11    1    3    3    0    0  0.32973216287E+01 -0.22903714110E+02 -0.41208971325E+01  0.23503919745E+02  0.51100000000E-03 0.  1.
        -12    1    3    3    0    0 -0.50446080346E+01  0.11671120907E+02  0.29898577835E+01  0.13061484717E+02  0.00000000000E+00 0.  1.
</event>
<event>
 7    1  0.1101380E-011  0.5930193E+02  0.7816164E-02  0.1266605E+00
        -11   -1    0    0    0    0  0.00000000000E+00  0.00000000000E+00  0.45593999997E+02  0.45594000000E+02  0.51100000000E-03 0.  1.
         11   -1    0    0    0    0 -0.00000000000E+00 -0.00000000000E+00 -0.45593999997E+02  0.45594000000E+02  0.51100000000E-03 0. -1.
    9900012    2    1    2    0    0 -0.37802293073E+01  0.55417124253E+01 -0.31172432528E+02  0.59301933138E+02  0.49999980140E+02 0.  0.
        -12    1    1    2    0    0  0.37802293073E+01 -0.55417124253E+01  0.31172432528E+02  0.31886066862E+02  0.00000000000E+00 0.  1.
         11    1    3    3    0    0 -0.89690830263E+01  0.14099472329E+02 -0.11313133148E+02  0.20179855108E+02  0.51100000000E-03 0. -1.
        -11    1    3    3    0    0  0.51117663450E+01 -0.94779701580E-02  0.82700970462E+01  0.97223839881E+01  0.51100000000E-03 0.  1.
         12    1    3    3    0    0  0.77087373965E-01 -0.85482819335E+01 -0.28129396426E+02  0.29399694042E+02  0.00000000000E+00 0. -1.
</event>
<event>
 7    1  0.1101380E-011  0.5930195E+02  0.7816164E-02  0.1266605E+00
        -11   -1    0    0    0    0  0.00000000000E+00  0.00000000000E+00  0.45593999997E+02  0.45594000000E+02  0.51100000000E-03 0.  1.
         11   -1    0    0    0    0 -0.00000000000E+00 -0.00000000000E+00 -0.45593999997E+02  0.45594000000E+02  0.51100000000E-03 0. -1.
    9900012    2    1    2    0    0 -0.14032077612E+02 -0.30923663477E+01 -0.28465032007E+02  0.59301953225E+02  0.50000016774E+02 0.  0.
        -12    1    1    2    0    0  0.14032077612E+02  0.30923663477E+01  0.28465032007E+02  0.31886046775E+02  0.00000000000E+00 0.  1.
         11    1    3    3    0    0 -0.91443984778E+01 -0.27042517440E+01 -0.29845152901E+02  0.31331552035E+02  0.51100000000E-03 0. -1.
        -11    1    3    3    0    0 -0.51330532422E+01 -0.78927942359E+01 -0.10382344289E+02  0.14015616634E+02  0.51100000000E-03 0.  1.
        -12    1    3    3    0    0  0.24537410812E+00  0.75046796322E+01  0.11762465182E+02  0.13954784556E+02  0.00000000000E+00 0.  1.
</event>
<event>
 7    1  0.1101380E-011  0.5930195E+02  0.7816164E-02  0.1266605E+00
        -11   -1    0    0    0    0  0.00000000000E+00  0.00000000000E+00  0.45593999997E+02  0.45594000000E+02  0.51100000000E-03 0.  1.
         11   -1    0    0    0    0 -0.00000000000E+00 -0.00000000000E+00 -0.45593999997E+02  0.45594000000E+02  0.51100000000E-03 0. -1.
    9900012    2    1    2    0    0  0.40446287822E+01 -0.23832999875E+02 -0.20793014593E+02  0.59301947236E+02  0.50000005850E+02 0.  0.
        -12    1    1    2    0    0 -0.40446287822E+01  0.23832999875E+02  0.20793014593E+02  0.31886052764E+02  0.00000000000E+00 0.  1.
         11    1    3    3    0    0 -0.58071831041E+01 -0.10453174925E+02 -0.20476964026E+01  0.12131994990E+02  0.51100000000E-03 0. -1.
        -11    1    3    3    0    0  0.12549085798E+01  0.12875380254E+02  0.13514267821E+01  0.13006789259E+02  0.51100000000E-03 0.  1.
         12    1    3    3    0    0  0.85969033066E+01 -0.26255205203E+02 -0.20096744973E+02  0.34163162986E+02  0.00000000000E+00 0. -1.
</event>
<event>
 7    1  0.1101380E-011  0.5930192E+02  0.7816164E-02  0.1266605E+00
        -11   -1    0    0    0    0  0.00000000000E+00  0.00000000000E+00  0.45593999997E+02  0.45594000000E+02  0.51100000000E-03 0. -1.
         11   -1    0    0    0    0 -0.00000000000E+00 -0.00000000000E+00 -0.45593999997E+02  0.45594000000E+02  0.51100000000E-03 0.  1.
    9900012    2    1    2    0    0  0.66600248611E+01 -0.18578317481E+02  0.25044201074E+02  0.59301924371E+02  0.49999964151E+02 0.  0.
        -12    1    1    2    0    0 -0.66600248611E+01  0.18578317481E+02 -0.25044201074E+02  0.31886075629E+02  0.00000000000E+00 0.  1.
         11    1    3    3    0    0 -0.40525636896E+01  0.26675021998E+01  0.33879354010E+00  0.48634989224E+01  0.51100000000E-03 0.  1.
        -11    1    3    3    0    0  0.25012929466E+01  0.11651943695E+02  0.15023254253E+02  0.19176089979E+02  0.51100000000E-03 0. -1.
         12    1    3    3    0    0  0.82112956041E+01 -0.32897763375E+02  0.96821532811E+01  0.35262335469E+02  0.00000000000E+00 0. -1.
</event>
<event>
 7    1  0.1101380E-011  0.5930193E+02  0.7816164E-02  0.1266605E+00
        -11   -1    0    0    0    0  0.00000000000E+00  0.00000000000E+00  0.45593999997E+02  0.45594000000E+02  0.51100000000E-03 0. -1.
         11   -1    0    0    0    0 -0.00000000000E+00 -0.00000000000E+00 -0.45593999997E+02  0.45594000000E+02  0.51100000000E-03 0.  1.
    9900012    2    1    2    0    0 -0.10393471822E+02 -0.19333034621E+02  0.23128570510E+02  0.59301933168E+02  0.49999980195E+02 0.  0.
        -12    1    1    2    0    0  0.10393471822E+02  0.19333034621E+02 -0.23128570510E+02  0.31886066832E+02  0.00000000000E+00 0.  1.
         11    1    3    3    0    0 -0.18326628316E+01  0.94131601347E+01 -0.95973564346E+01  0.13567442190E+02  0.51100000000E-03 0. -1.
        -11    1    3    3    0    0  0.25635277878E+00  0.50465484747E+00  0.31928747221E+01  0.32426597901E+01  0.51100000000E-03 0.  1.
         12    1    3    3    0    0 -0.88171617690E+01 -0.29250849603E+02  0.29533052223E+02  0.42491831188E+02  0.00000000000E+00 0. -1.
</event>
<event>
 7    1  0.1101380E-011  0.5930196E+02  0.7816164E-02  0.1266605E+00
        -11   -1    0    0    0    0  0.00000000000E+00  0.00000000000E+00  0.45593999997E+02  0.45594000000E+02  0.51100000000E-03 0. -1.
         11   -1    0    0    0    0 -0.00000000000E+00 -0.00000000000E+00 -0.45593999997E+02  0.45594000000E+02  0.51100000000E-03 0.  1.
    9900012    2    1    2    0    0 -0.16326639353E+02 -0.59473195195E+01  0.26735556760E+02  0.59301956701E+02  0.50000023112E+02 0.  0.
        -12    1    1    2    0    0  0.16326639353E+02  0.59473195195E+01 -0.26735556760E+02  0.31886043299E+02  0.00000000000E+00 0.  1.
         11    1    3    3    0    0 -0.10540065854E+02 -0.18092919886E+02  0.16373757774E+02  0.26580945847E+02  0.51100000000E-03 0. -1.
        -11    1    3    3    0    0  0.84734909993E+01 -0.20635106305E+01  0.90183274584E+01  0.12545451616E+02  0.51100000000E-03 0.  1.
         12    1    3    3    0    0 -0.14260064498E+02  0.14209110997E+02  0.13434715278E+01  0.20175559238E+02  0.00000000000E+00 0. -1.
</event>
<event>
 7    1  0.1101380E-011  0.5930203E+02  0.7816164E-02  0.1266604E+00
        -11   -1    0    0    0    0  0.00000000000E+00  0.00000000000E+00  0.45593999997E+02  0.45594000000E+02  0.51100000000E-03 0.  1.
         11   -1    0    0    0    0 -0.00000000000E+00 -0.00000000000E+00 -0.45593999997E+02  0.45594000000E+02  0.51100000000E-03 0. -1.
    9900012    2    1    2    0    0 -0.34472234541E+01 -0.31219778842E+02 -0.54915787106E+01  0.59302025384E+02  0.50000148374E+02 0.  0.
        -12    1    1    2    0    0  0.34472234541E+01  0.31219778842E+02  0.54915787106E+01  0.31885974616E+02  0.00000000000E+00 0.  1.
         11    1    3    3    0    0  0.22433760907E+01 -0.12811783789E+02  0.39624599922E+01  0.13596897793E+02  0.51100000000E-03 0. -1.
        -11    1    3    3    0    0 -0.10483830936E+02 -0.15244698875E+02  0.12945620112E+02  0.22580979501E+02  0.51100000000E-03 0.  1.
         12    1    3    3    0    0  0.47932313914E+01 -0.31632961786E+01 -0.22399658815E+02  0.23124148090E+02  0.00000000000E+00 0. -1.
</event>
<event>
 7    1  0.1101380E-011  0.5930193E+02  0.7816164E-02  0.1266605E+00
        -11   -1    0    0    0    0  0.00000000000E+00  0.00000000000E+00  0.45593999997E+02  0.45594000000E+02  0.51100000000E-03 0.  1.
         11   -1    0    0    0    0 -0.00000000000E+00 -0.00000000000E+00 -0.45593999997E+02  0.45594000000E+02  0.51100000000E-03 0. -1.
    9900012    2    1    2    0    0 -0.16978486467E+02  0.71193130093E+01 -0.26033972867E+02  0.59301931512E+02  0.49999977174E+02 0.  0.
        -12    1    1    2    0    0  0.16978486467E+02 -0.71193130093E+01  0.26033972867E+02  0.31886068488E+02  0.00000000000E+00 0.  1.
         11    1    3    3    0    0 -0.59352206185E+01 -0.78282005147E+01 -0.38939389218E+01  0.10567418212E+02  0.51100000000E-03 0. -1.
        -11    1    3    3    0    0 -0.23498508847E+02  0.18618395597E+01 -0.19261521437E+02  0.30440968659E+02  0.51100000000E-03 0.  1.
        -12    1    3    3    0    0  0.12455242998E+02  0.13085673964E+02 -0.28785125075E+01  0.18293544640E+02  0.00000000000E+00 0.  1.
</event>
<event>
 7    1  0.1101380E-011  0.5930196E+02  0.7816164E-02  0.1266605E+00
        -11   -1    0    0    0    0  0.00000000000E+00  0.00000000000E+00  0.45593999997E+02  0.45594000000E+02  0.51100000000E-03 0.  1.
         11   -1    0    0    0    0 -0.00000000000E+00 -0.00000000000E+00 -0.45593999997E+02  0.45594000000E+02  0.51100000000E-03 0. -1.
    9900012    2    1    2    0    0 -0.26316184713E+02 -0.12462129486E+02  0.12995131671E+02  0.59301957656E+02  0.50000024855E+02 0.  0.
        -12    1    1    2    0    0  0.26316184713E+02  0.12462129486E+02 -0.12995131671E+02  0.31886042344E+02  0.00000000000E+00 0.  1.
         11    1    3    3    0    0 -0.14767360239E+02 -0.85332285026E+01 -0.97761788241E+01  0.19658702647E+02  0.51100000000E-03 0. -1.
        -11    1    3    3    0    0 -0.47797710949E+00  0.71179758612E+01 -0.43356273302E+01  0.83481559093E+01  0.51100000000E-03 0.  1.
         12    1    3    3    0    0 -0.11070847364E+02 -0.11046876845E+02  0.27106937825E+02  0.31295099100E+02  0.00000000000E+00 0. -1.
</event>
<event>
 7    1  0.1101380E-011  0.5930192E+02  0.7816164E-02  0.1266605E+00
        -11   -1    0    0    0    0  0.00000000000E+00  0.00000000000E+00  0.45593999997E+02  0.45594000000E+02  0.51100000000E-03 0. -1.
         11   -1    0    0    0    0 -0.00000000000E+00 -0.00000000000E+00 -0.45593999997E+02  0.45594000000E+02  0.51100000000E-03 0.  1.
    9900012    2    1    2    0    0 -0.18148258318E+02  0.13349816154E+02  0.22564248619E+02  0.59301918600E+02  0.49999953626E+02 0.  0.
        -12    1    1    2    0    0  0.18148258318E+02 -0.13349816154E+02 -0.22564248619E+02  0.31886081400E+02  0.00000000000E+00 0.  1.
         11    1    3    3    0    0 -0.73589252532E+01 -0.14782274898E+01  0.12000498044E+02  0.14154536056E+02  0.51100000000E-03 0. -1.
        -11    1    3    3    0    0 -0.90746303552E+01 -0.87236081698E+01 -0.81684437095E+01  0.15005789832E+02  0.51100000000E-03 0.  1.
         12    1    3    3    0    0 -0.17147027092E+01  0.23551651813E+02  0.18732194285E+02  0.30141592713E+02  0.00000000000E+00 0. -1.
</event>
<event>
 7    1  0.1101380E-011  0.5930194E+02  0.7816164E-02  0.1266605E+00
        -11   -1    0    0    0    0  0.00000000000E+00  0.00000000000E+00  0.45593999997E+02  0.45594000000E+02  0.51100000000E-03 0. -1.
         11   -1    0    0    0    0 -0.00000000000E+00 -0.00000000000E+00 -0.45593999997E+02  0.45594000000E+02  0.51100000000E-03 0.  1.
    9900012    2    1    2    0    0  0.46721217465E+01 -0.26942438334E+02  0.16401123411E+02  0.59301944205E+02  0.50000000323E+02 0.  0.
        -12    1    1    2    0    0 -0.46721217465E+01  0.26942438334E+02 -0.16401123411E+02  0.31886055795E+02  0.00000000000E+00 0.  1.
         11    1    3    3    0    0  0.95010126446E+01 -0.21645034949E+02  0.13817510419E+02  0.27380656925E+02  0.51100000000E-03 0. -1.
        -11    1    3    3    0    0  0.12455829341E+02 -0.69690280942E+01  0.28463969545E+01  0.14553934623E+02  0.51100000000E-03 0.  1.
        -12    1    3    3    0    0 -0.17284720239E+02  0.16716247084E+01 -0.26278396200E+00  0.17367352657E+02  0.00000000000E+00 0.  1.
</event>
<event>
 7    1  0.1101380E-011  0.5930194E+02  0.7816164E-02  0.1266605E+00
        -11   -1    0    0    0    0  0.00000000000E+00  0.00000000000E+00  0.45593999997E+02  0.45594000000E+02  0.51100000000E-03 0.  1.
         11   -1    0    0    0    0 -0.00000000000E+00 -0.00000000000E+00 -0.45593999997E+02  0.45594000000E+02  0.51100000000E-03 0. -1.
    9900012    2    1    2    0    0 -0.13743053152E+02 -0.40018003557E+01 -0.28492716099E+02  0.59301940558E+02  0.49999993672E+02 0.  0.
        -12    1    1    2    0    0  0.13743053152E+02  0.40018003557E+01  0.28492716099E+02  0.31886059442E+02  0.00000000000E+00 0.  1.
         11    1    3    3    0    0  0.11921693259E+02 -0.22434117516E+01 -0.15432334697E+02  0.19629483460E+02  0.51100000000E-03 0. -1.
        -11    1    3    3    0    0 -0.12918413131E+02  0.96932374736E+01 -0.15475380212E+02  0.22368094320E+02  0.51100000000E-03 0.  1.
        -12    1    3    3    0    0 -0.12746333280E+02 -0.11451626078E+02  0.24149988102E+01  0.17304362778E+02  0.00000000000E+00 0.  1.
</event>
<event>
 7    1  0.1101380E-011  0.5930191E+02  0.7816164E-02  0.1266605E+00
        -11   -1    0    0    0    0  0.00000000000E+00  0.00000000000E+00  0.45593999997E+02  0.45594000000E+02  0.51100000000E-03 0. -1.
         11   -1    0    0    0    0 -0.00000000000E+00 -0.00000000000E+00 -0.45593999997E+02  0.45594000000E+02  0.51100000000E-03 0.  1.
    9900012    2    1    2    0    0  0.11679553674E+02  0.19569288803E+02  0.22301427899E+02  0.59301910170E+02  0.49999938252E+02 0.  0.
        -12    1    1    2    0    0 -0.11679553674E+02 -0.19569288803E+02 -0.22301427899E+02  0.31886089830E+02  0.00000000000E+00 0.  1.
         11    1    3    3    0    0 -0.12805646833E+02  0.11020191736E+02  0.23554104344E+02  0.28986635686E+02  0.51100000000E-03 0. -1.
        -11    1    3    3    0    0  0.21081167429E+02  0.65980964376E+01  0.52644460739E+01  0.22708255976E+02  0.51100000000E-03 0.  1.
        -12    1    3    3    0    0  0.34040330785E+01  0.19510006292E+01 -0.65171225185E+01  0.76070185077E+01  0.00000000000E+00 0.  1.
</event>
<event>
 7    1  0.1101380E-011  0.5930194E+02  0.7816164E-02  0.1266605E+00
        -11   -1    0    0    0    0  0.00000000000E+00  0.00000000000E+00  0.45593999997E+02  0.45594000000E+02  0.51100000000E-03 0. -1.
         11   -1    0    0    0    0 -0.00000000000E+00 -0.00000000000E+00 -0.45593999997E+02  0.45594000000E+02  0.51100000000E-03 0.  1.
    9900012    2    1    2    0    0  0.85755297530E+01 -0.78240752365E+00  0.30701290482E+02  0.59301935499E+02  0.49999984446E+02 0.  0.
        -12    1    1    2    0    0 -0.85755297530E+01  0.78240752365E+00 -0.30701290482E+02  0.31886064501E+02  0.00000000000E+00 0.  1.
         11    1    3    3    0    0  0.18921779730E+01 -0.77188662018E+01  0.56395559820E+01  0.97450410393E+01  0.51100000000E-03 0. -1.
        -11    1    3    3    0    0  0.24000368081E+02  0.34959036722E+00  0.16630558893E+02  0.29201290567E+02  0.51100000000E-03 0.  1.
        -12    1    3    3    0    0 -0.17317016301E+02  0.65868683109E+01  0.84311756075E+01  0.20355603893E+02  0.00000000000E+00 0.  1.
</event>
<event>
 7    1  0.1101380E-011  0.5930194E+02  0.7816164E-02  0.1266605E+00
        -11   -1    0    0    0    0  0.00000000000E+00  0.00000000000E+00  0.45593999997E+02  0.45594000000E+02  0.51100000000E-03 0.  1.
         11   -1    0    0    0    0 -0.00000000000E+00 -0.00000000000E+00 -0.45593999997E+02  0.45594000000E+02  0.51100000000E-03 0. -1.
    9900012    2    1    2    0    0  0.10011623546E+02 -0.30217798383E+02 -0.18364826316E+01  0.59301943273E+02  0.49999998623E+02 0.  0.
        -12    1    1    2    0    0 -0.10011623546E+02  0.30217798383E+02  0.18364826316E+01  0.31886056727E+02  0.00000000000E+00 0.  1.
         11    1    3    3    0    0 -0.11946724681E+02 -0.25661549222E+02  0.94676067307E+01  0.29847527813E+02  0.51100000000E-03 0. -1.
        -11    1    3    3    0    0  0.38200856014E+00  0.40514103414E+00  0.30293881580E+01  0.30801400407E+01  0.51100000000E-03 0.  1.
         12    1    3    3    0    0  0.21576339666E+02 -0.49613901953E+01 -0.14333477520E+02  0.26374275419E+02  0.00000000000E+00 0. -1.
</event>
<event>
 7    1  0.1101380E-011  0.5930198E+02  0.7816164E-02  0.1266605E+00
        -11   -1    0    0    0    0  0.00000000000E+00  0.00000000000E+00  0.45593999997E+02  0.45594000000E+02  0.51100000000E-03 0.  1.
         11   -1    0    0    0    0 -0.00000000000E+00 -0.00000000000E+00 -0.45593999997E+02  0.45594000000E+02  0.51100000000E-03 0. -1.
    9900012    2    1    2    0    0  0.23251169898E+02  0.61779132316E+01 -0.20926891252E+02  0.59301979693E+02  0.50000065046E+02 0.  0.
        -12    1    1    2    0    0 -0.23251169898E+02 -0.61779132316E+01  0.20926891252E+02  0.31886020307E+02  0.00000000000E+00 0.  1.
         11    1    3    3    0    0  0.83191271297E+01 -0.11093869425E+02 -0.14371576938E+02  0.19970579334E+02  0.51100000000E-03 0. -1.
        -11    1    3    3    0    0 -0.44679683061E+01  0.36872964449E+01  0.92101991693E+01  0.10880563628E+02  0.51100000000E-03 0.  1.
         12    1    3    3    0    0  0.19400011074E+02  0.13584486212E+02 -0.15765513484E+02  0.28450836731E+02  0.00000000000E+00 0. -1.
</event>
<event>
 7    1  0.1101380E-011  0.5930192E+02  0.7816164E-02  0.1266605E+00
        -11   -1    0    0    0    0  0.00000000000E+00  0.00000000000E+00  0.45593999997E+02  0.45594000000E+02  0.51100000000E-03 0. -1.
         11   -1    0    0    0    0 -0.00000000000E+00 -0.00000000000E+00 -0.45593999997E+02  0.45594000000E+02  0.51100000000E-03 0.  1.
    9900012    2    1    2    0    0  0.20893019458E+01  0.13348663642E+02  0.28881998258E+02  0.59301924246E+02  0.49999963922E+02 0.  0.
        -12    1    1    2    0    0 -0.20893019458E+01 -0.13348663642E+02 -0.28881998258E+02  0.31886075754E+02  0.00000000000E+00 0.  1.
         11    1    3    3    0    0  0.44817471692E+01  0.28729409142E+01  0.19022909980E+02  0.19753757910E+02  0.51100000000E-03 0. -1.
        -11    1    3    3    0    0 -0.89877967783E+01  0.21348126414E+02  0.12844589393E+02  0.26485967403E+02  0.51100000000E-03 0.  1.
        -12    1    3    3    0    0  0.65953515550E+01 -0.10872403686E+02 -0.29855011156E+01  0.13062198933E+02  0.00000000000E+00 0.  1.
</event>
<event>
 7    1  0.1101380E-011  0.5930194E+02  0.7816164E-02  0.1266605E+00
        -11   -1    0    0    0    0  0.00000000000E+00  0.00000000000E+00  0.45593999997E+02  0.45594000000E+02  0.51100000000E-03 0.  1.
         11   -1    0    0    0    0 -0.00000000000E+00 -0.00000000000E+00 -0.45593999997E+02  0.45594000000E+02  0.51100000000E-03 0. -1.
    9900012    2    1    2    0    0 -0.21228996370E+02 -0.23363708755E+02 -0.44930817862E+01  0.59301937879E+02  0.49999988786E+02 0.  0.
        -12    1    1    2    0    0  0.21228996370E+02  0.23363708755E+02  0.44930817862E+01  0.31886062121E+02  0.00000000000E+00 0.  1.
         11    1    3    3    0    0 -0.54673542878E+01 -0.23685098389E+01  0.13615863266E+00  0.59598943950E+01  0.51100000000E-03 0. -1.
        -11    1    3    3    0    0 -0.14866754187E+02  0.69314959448E+01  0.12451400057E+02  0.20593770411E+02  0.51100000000E-03 0.  1.
         12    1    3    3    0    0 -0.89488789588E+00 -0.27926694861E+02 -0.17080640476E+02  0.32748273073E+02  0.00000000000E+00 0. -1.
</event>
<event>
 7    1  0.1101380E-011  0.5930194E+02  0.7816164E-02  0.1266605E+00
        -11   -1    0    0    0    0  0.00000000000E+00  0.00000000000E+00  0.45593999997E+02  0.45594000000E+02  0.51100000000E-03 0. -1.
         11   -1    0    0    0    0 -0.00000000000E+00 -0.00000000000E+00 -0.45593999997E+02  0.45594000000E+02  0.51100000000E-03 0.  1.
    9900012    2    1    2    0    0  0.30325445924E+02 -0.35381866174E+01  0.91961546030E+01  0.59301942004E+02  0.49999996310E+02 0.  0.
        -12    1    1    2    0    0 -0.30325445924E+02  0.35381866174E+01 -0.91961546030E+01  0.31886057996E+02  0.00000000000E+00 0.  1.
         11    1    3    3    0    0  0.15374282566E+02 -0.47753180642E+01  0.89167929052E+00  0.16123502078E+02  0.51100000000E-03 0. -1.
        -11    1    3    3    0    0  0.17361476068E+02 -0.31537507136E+01 -0.12599890258E+02  0.21682348342E+02  0.51100000000E-03 0.  1.
        -12    1    3    3    0    0 -0.24103127100E+01  0.43908821604E+01  0.20904365571E+02  0.21496091585E+02  0.00000000000E+00 0.  1.
</event>
<event>
 7    1  0.1101380E-011  0.5930194E+02  0.7816164E-02  0.1266605E+00
        -11   -1    0    0    0    0  0.00000000000E+00  0.00000000000E+00  0.45593999997E+02  0.45594000000E+02  0.51100000000E-03 0.  1.
         11   -1    0    0    0    0 -0.00000000000E+00 -0.00000000000E+00 -0.45593999997E+02  0.45594000000E+02  0.51100000000E-03 0. -1.
    9900012    2    1    2    0    0 -0.26946875615E+02  0.16529323876E+02 -0.41675016251E+01  0.59301941558E+02  0.49999995495E+02 0.  0.
        -12    1    1    2    0    0  0.26946875615E+02 -0.16529323876E+02  0.41675016251E+01  0.31886058442E+02  0.00000000000E+00 0.  1.
         11    1    3    3    0    0 -0.20483236889E+01 -0.81307114394E+01 -0.62234737143E+01  0.10442017227E+02  0.51100000000E-03 0. -1.
        -11    1    3    3    0    0 -0.26707207109E+02  0.12674739550E+02  0.13217703845E+02  0.32382582192E+02  0.51100000000E-03 0.  1.
         12    1    3    3    0    0  0.18086551829E+01  0.11985295766E+02 -0.11161731756E+02  0.16477342138E+02  0.00000000000E+00 0. -1.
</event>
<event>
 7    1  0.1101380E-011  0.5930192E+02  0.7816164E-02  0.1266605E+00
        -11   -1    0    0    0    0  0.00000000000E+00  0.00000000000E+00  0.45593999997E+02  0.45594000000E+02  0.51100000000E-03 0.  1.
         11   -1    0    0    0    0 -0.00000000000E+00 -0.00000000000E+00 -0.45593999997E+02  0.45594000000E+02  0.51100000000E-03 0. -1.
    9900012    2    1    2    0    0 -0.24854860210E+02 -0.15581719810E+02 -0.12496709079E+02  0.59301924574E+02  0.49999964521E+02 0.  0.
        -12    1    1    2    0    0  0.24854860210E+02  0.15581719810E+02  0.12496709079E+02  0.31886075426E+02  0.00000000000E+00 0.  1.
         11    1    3    3    0    0  0.70246934287E+01 -0.17796135697E+02 -0.13426168983E+02  0.23373291966E+02  0.51100000000E-03 0. -1.
        -11    1    3    3    0    0 -0.72334303539E+01 -0.64985891042E+01 -0.60510416256E+00  0.97427063149E+01  0.51100000000E-03 0.  1.
        -12    1    3    3    0    0 -0.24646123285E+02  0.87130049913E+01  0.15345640674E+01  0.26185926293E+02  0.00000000000E+00 0.  1.
</event>
<event>
 7    1  0.1101380E-011  0.5930193E+02  0.7816164E-02  0.1266605E+00
        -11   -1    0    0    0    0  0.00000000000E+00  0.00000000000E+00  0.45593999997E+02  0.45594000000E+02  0.51100000000E-03 0. -1.
         11   -1    0    0    0    0 -0.00000000000E+00 -0.00000000000E+00 -0.45593999997E+02  0.45594000000E+02  0.51100000000E-03 0.  1.
    9900012    2    1    2    0    0  0.29884341712E+02  0.10806494503E+02  0.26205554322E+01  0.59301929158E+02  0.49999972881E+02 0.  0.
        -12    1    1    2    0    0 -0.29884341712E+02 -0.10806494503E+02 -0.26205554322E+01  0.31886070842E+02  0.00000000000E+00 0.  1.
         11    1    3    3    0    0 -0.47611737764E+01  0.11180449823E+02 -0.74490872337E+01  0.14253425373E+02  0.51100000000E-03 0. -1.
        -11    1    3    3    0    0  0.63080798734E+01  0.98860113348E+01 -0.31442337405E+01  0.12141305444E+02  0.51100000000E-03 0.  1.
         12    1    3    3    0    0  0.28337435615E+02 -0.10259966655E+02  0.13213876406E+02  0.32907198341E+02  0.00000000000E+00 0. -1.
</event>
<event>
 7    1  0.1101380E-011  0.5930198E+02  0.7816164E-02  0.1266605E+00
        -11   -1    0    0    0    0  0.00000000000E+00  0.00000000000E+00  0.45593999997E+02  0.45594000000E+02  0.51100000000E-03 0.  1.
         11   -1    0    0    0    0 -0.00000000000E+00 -0.00000000000E+00 -0.45593999997E+02  0.45594000000E+02  0.51100000000E-03 0. -1.
    9900012    2    1    2    0    0  0.10935346041E+02 -0.41643907401E+01 -0.29661326357E+02  0.59301980735E+02  0.50000066946E+02 0.  0.
        -12    1    1    2    0    0 -0.10935346041E+02  0.41643907401E+01  0.29661326357E+02  0.31886019265E+02  0.00000000000E+00 0.  1.
         11    1    3    3    0    0  0.18080697025E+02  0.17769707080E+01 -0.20243605728E+02  0.27200602989E+02  0.51100000000E-03 0. -1.
        -11    1    3    3    0    0 -0.10401960380E+02  0.55087981114E+01 -0.14905842331E+02  0.18992940063E+02  0.51100000000E-03 0.  1.
        -12    1    3    3    0    0  0.32566093954E+01 -0.11450159560E+02  0.54881217015E+01  0.13108437684E+02  0.00000000000E+00 0.  1.
</event>
<event>
 7    1  0.1101380E-011  0.5930180E+02  0.7816164E-02  0.1266605E+00
        -11   -1    0    0    0    0  0.00000000000E+00  0.00000000000E+00  0.45593999997E+02  0.45594000000E+02  0.51100000000E-03 0.  1.
         11   -1    0    0    0    0 -0.00000000000E+00 -0.00000000000E+00 -0.45593999997E+02  0.45594000000E+02  0.51100000000E-03 0. -1.
    9900012    2    1    2    0    0 -0.15108796165E+01 -0.24028151023E+02 -0.20906808356E+02  0.59301804956E+02  0.49999746365E+02 0.  0.
        -12    1    1    2    0    0  0.15108796165E+01  0.24028151023E+02  0.20906808356E+02  0.31886195044E+02  0.00000000000E+00 0.  1.
         11    1    3    3    0    0 -0.20772732404E+01  0.30355700304E+01  0.19101543132E+01  0.41446880807E+01  0.51100000000E-03 0. -1.
        -11    1    3    3    0    0 -0.72578151971E+01  0.25295326099E+01  0.84350778340E+01  0.11411614916E+02  0.51100000000E-03 0.  1.
         12    1    3    3    0    0  0.78242088210E+01 -0.29593253663E+02 -0.31252040503E+02  0.43745501959E+02  0.00000000000E+00 0. -1.
</event>
<event>
 7    1  0.1101380E-011  0.5930195E+02  0.7816164E-02  0.1266605E+00
        -11   -1    0    0    0    0  0.00000000000E+00  0.00000000000E+00  0.45593999997E+02  0.45594000000E+02  0.51100000000E-03 0. -1.
         11   -1    0    0    0    0 -0.00000000000E+00 -0.00000000000E+00 -0.45593999997E+02  0.45594000000E+02  0.51100000000E-03 0.  1.
    9900012    2    1    2    0    0 -0.27102001793E+02 -0.45125607486E+01  0.16181423989E+02  0.59301949947E+02  0.50000010795E+02 0.  0.
        -12    1    1    2    0    0  0.27102001793E+02  0.45125607486E+01 -0.16181423989E+02  0.31886050053E+02  0.00000000000E+00 0.  1.
         11    1    3    3    0    0  0.92018115253E+00  0.70747414558E+01 -0.22968411513E+01  0.74949435992E+01  0.51100000000E-03 0. -1.
        -11    1    3    3    0    0 -0.23441137221E+02  0.95057599621E+01  0.16346175849E+02  0.30117168721E+02  0.51100000000E-03 0.  1.
        -12    1    3    3    0    0 -0.45810457248E+01 -0.21093062166E+02  0.21320892914E+01  0.21689837626E+02  0.00000000000E+00 0.  1.
</event>
<event>
 7    1  0.1101380E-011  0.5930194E+02  0.7816164E-02  0.1266605E+00
        -11   -1    0    0    0    0  0.00000000000E+00  0.00000000000E+00  0.45593999997E+02  0.45594000000E+02  0.51100000000E-03 0.  1.
         11   -1    0    0    0    0 -0.00000000000E+00 -0.00000000000E+00 -0.45593999997E+02  0.45594000000E+02  0.51100000000E-03 0. -1.
    9900012    2    1    2    0    0  0.29670397714E+02  0.11136967600E+02 -0.35151550222E+01  0.59301939367E+02  0.49999991500E+02 0.  0.
        -12    1    1    2    0    0 -0.29670397714E+02 -0.11136967600E+02  0.35151550222E+01  0.31886060633E+02  0.00000000000E+00 0.  1.
         11    1    3    3    0    0  0.57568107142E+01  0.13258163084E+02 -0.99592733826E+01  0.17552973667E+02  0.51100000000E-03 0. -1.
        -11    1    3    3    0    0  0.20778702043E+01  0.58733787659E+01  0.15569166786E+02  0.16769408975E+02  0.51100000000E-03 0.  1.
         12    1    3    3    0    0  0.21835716796E+02 -0.79945742499E+01 -0.91250484253E+01  0.24979556725E+02  0.00000000000E+00 0. -1.
</event>
<event>
 7    1  0.1101380E-011  0.5930195E+02  0.7816164E-02  0.1266605E+00
        -11   -1    0    0    0    0  0.00000000000E+00  0.00000000000E+00  0.45593999997E+02  0.45594000000E+02  0.51100000000E-03 0.  1.
         11   -1    0    0    0    0 -0.00000000000E+00 -0.00000000000E+00 -0.45593999997E+02  0.45594000000E+02  0.51100000000E-03 0. -1.
    9900012    2    1    2    0    0  0.26787323282E+02  0.72402322602E+01 -0.15707911857E+02  0.59301950594E+02  0.50000011976E+02 0.  0.
        -12    1    1    2    0    0 -0.26787323282E+02 -0.72402322602E+01  0.15707911857E+02  0.31886049406E+02  0.00000000000E+00 0.  1.
         11    1    3    3    0    0  0.75208429638E+01 -0.64992856670E+01 -0.33008106692E+01  0.10473735933E+02  0.51100000000E-03 0. -1.
        -11    1    3    3    0    0  0.60854595305E+01  0.16436453841E+02  0.11803229355E+02  0.21130689910E+02  0.51100000000E-03 0.  1.
         12    1    3    3    0    0  0.13181020788E+02 -0.26969359141E+01 -0.24210330543E+02  0.27697524751E+02  0.00000000000E+00 0. -1.
</event>
<event>
 7    1  0.1101380E-011  0.5930193E+02  0.7816164E-02  0.1266605E+00
        -11   -1    0    0    0    0  0.00000000000E+00  0.00000000000E+00  0.45593999997E+02  0.45594000000E+02  0.51100000000E-03 0.  1.
         11   -1    0    0    0    0 -0.00000000000E+00 -0.00000000000E+00 -0.45593999997E+02  0.45594000000E+02  0.51100000000E-03 0. -1.
    9900012    2    1    2    0    0  0.17045105858E+02 -0.29151992306E+01 -0.26789686438E+02  0.59301932201E+02  0.49999978431E+02 0.  0.
        -12    1    1    2    0    0 -0.17045105858E+02  0.29151992306E+01  0.26789686438E+02  0.31886067799E+02  0.00000000000E+00 0.  1.
         11    1    3    3    0    0  0.35583260253E+01 -0.11187511728E+02 -0.77407922858E+01  0.14062075531E+02  0.51100000000E-03 0. -1.
        -11    1    3    3    0    0  0.15952204144E+02  0.21653811705E+01  0.75906567676E+01  0.17798307872E+02  0.51100000000E-03 0.  1.
         12    1    3    3    0    0 -0.24654243114E+01  0.61069313269E+01 -0.26639550919E+02  0.27441548798E+02  0.00000000000E+00 0. -1.
</event>
<event>
 7    1  0.1101380E-011  0.5930175E+02  0.7816164E-02  0.1266605E+00
        -11   -1    0    0    0    0  0.00000000000E+00  0.00000000000E+00  0.45593999997E+02  0.45594000000E+02  0.51100000000E-03 0.  1.
         11   -1    0    0    0    0 -0.00000000000E+00 -0.00000000000E+00 -0.45593999997E+02  0.45594000000E+02  0.51100000000E-03 0. -1.
    9900012    2    1    2    0    0  0.29091951955E+02 -0.62815084167E+01 -0.11442639750E+02  0.59301748715E+02  0.49999643795E+02 0.  0.
        -12    1    1    2    0    0 -0.29091951955E+02  0.62815084167E+01  0.11442639750E+02  0.31886251285E+02  0.00000000000E+00 0.  1.
         11    1    3    3    0    0  0.11757058317E+01 -0.17875343983E+01 -0.14801181154E+01  0.26015982250E+01  0.51100000000E-03 0. -1.
        -11    1    3    3    0    0  0.32969129814E+02  0.14451171660E+02 -0.88059674860E+01  0.37058668981E+02  0.51100000000E-03 0.  1.
        -12    1    3    3    0    0 -0.50528836903E+01 -0.18945145678E+02 -0.11565541489E+01  0.19641481509E+02  0.00000000000E+00 0.  1.
</event>
<event>
 7    1  0.1101380E-011  0.5930194E+02  0.7816164E-02  0.1266605E+00
        -11   -1    0    0    0    0  0.00000000000E+00  0.00000000000E+00  0.45593999997E+02  0.45594000000E+02  0.51100000000E-03 0. -1.
         11   -1    0    0    0    0 -0.00000000000E+00 -0.00000000000E+00 -0.45593999997E+02  0.45594000000E+02  0.51100000000E-03 0.  1.
    9900012    2    1    2    0    0  0.20210083524E+02  0.19070255360E+02  0.15639645681E+02  0.59301942975E+02  0.49999998080E+02 0.  0.
        -12    1    1    2    0    0 -0.20210083524E+02 -0.19070255360E+02 -0.15639645681E+02  0.31886057025E+02  0.00000000000E+00 0.  1.
         11    1    3    3    0    0  0.89708442087E+01  0.98094232025E+01  0.23602713503E+02  0.27088538432E+02  0.51100000000E-03 0. -1.
        -11    1    3    3    0    0  0.23085853702E+01 -0.90692446895E+01  0.19218405872E+01  0.95537551336E+01  0.51100000000E-03 0.  1.
        -12    1    3    3    0    0  0.89306539455E+01  0.18330076847E+02 -0.98849084093E+01  0.22659649410E+02  0.00000000000E+00 0.  1.
</event>
<event>
 7    1  0.1101380E-011  0.5930196E+02  0.7816164E-02  0.1266605E+00
        -11   -1    0    0    0    0  0.00000000000E+00  0.00000000000E+00  0.45593999997E+02  0.45594000000E+02  0.51100000000E-03 0.  1.
         11   -1    0    0    0    0 -0.00000000000E+00 -0.00000000000E+00 -0.45593999997E+02  0.45594000000E+02  0.51100000000E-03 0. -1.
    9900012    2    1    2    0    0  0.12995046699E+02  0.16517257976E+02 -0.23979746367E+02  0.59301964098E+02  0.50000036603E+02 0.  0.
        -12    1    1    2    0    0 -0.12995046699E+02 -0.16517257976E+02  0.23979746367E+02  0.31886035902E+02  0.00000000000E+00 0.  1.
         11    1    3    3    0    0  0.13508302370E+02 -0.16160320534E+01 -0.15754557951E+02  0.20815664510E+02  0.51100000000E-03 0. -1.
        -11    1    3    3    0    0  0.88141745328E+01  0.12538463193E+02 -0.18154499990E+02  0.23758968877E+02  0.51100000000E-03 0.  1.
        -12    1    3    3    0    0 -0.93274302030E+01  0.55948268362E+01  0.99293115745E+01  0.14727330711E+02  0.00000000000E+00 0.  1.
</event>
<event>
 7    1  0.1101380E-011  0.5930202E+02  0.7816164E-02  0.1266604E+00
        -11   -1    0    0    0    0  0.00000000000E+00  0.00000000000E+00  0.45593999997E+02  0.45594000000E+02  0.51100000000E-03 0.  1.
         11   -1    0    0    0    0 -0.00000000000E+00 -0.00000000000E+00 -0.45593999997E+02  0.45594000000E+02  0.51100000000E-03 0. -1.
    9900012    2    1    2    0    0  0.47375413478E+01  0.21283241767E+02 -0.23265743162E+02  0.59302023725E+02  0.50000145348E+02 0.  0.
        -12    1    1    2    0    0 -0.47375413478E+01 -0.21283241767E+02  0.23265743162E+02  0.31885976275E+02  0.00000000000E+00 0.  1.
         11    1    3    3    0    0  0.76348487601E+01  0.72792883440E+01  0.51782854593E+01  0.11751323115E+02  0.51100000000E-03 0. -1.
        -11    1    3    3    0    0 -0.64568541978E+01  0.97848457748E+01  0.56492831476E+01  0.13013399760E+02  0.51100000000E-03 0.  1.
         12    1    3    3    0    0  0.35595467854E+01  0.42191076487E+01 -0.34093311769E+02  0.34537300850E+02  0.00000000000E+00 0. -1.
</event>
<event>
 7    1  0.1101380E-011  0.5930194E+02  0.7816164E-02  0.1266605E+00
        -11   -1    0    0    0    0  0.00000000000E+00  0.00000000000E+00  0.45593999997E+02  0.45594000000E+02  0.51100000000E-03 0.  1.
         11   -1    0    0    0    0 -0.00000000000E+00 -0.00000000000E+00 -0.45593999997E+02  0.45594000000E+02  0.51100000000E-03 0. -1.
    9900012    2    1    2    0    0  0.11547325235E+02 -0.27257962035E+02 -0.11848369129E+02  0.59301936189E+02  0.49999985703E+02 0.  0.
        -12    1    1    2    0    0 -0.11547325235E+02  0.27257962035E+02  0.11848369129E+02  0.31886063811E+02  0.00000000000E+00 0.  1.
         11    1    3    3    0    0 -0.68764669685E+01 -0.97117005576E+01  0.43297574733E+00  0.11907577165E+02  0.51100000000E-03 0. -1.
        -11    1    3    3    0    0 -0.11687202120E+02 -0.75681656456E+01 -0.21117438993E+01  0.14082872122E+02  0.51100000000E-03 0.  1.
         12    1    3    3    0    0  0.30110994323E+02 -0.99780958317E+01 -0.10169600977E+02  0.33311486902E+02  0.00000000000E+00 0. -1.
</event>
<event>
 7    1  0.1101380E-011  0.5930194E+02  0.7816164E-02  0.1266605E+00
        -11   -1    0    0    0    0  0.00000000000E+00  0.00000000000E+00  0.45593999997E+02  0.45594000000E+02  0.51100000000E-03 0.  1.
         11   -1    0    0    0    0 -0.00000000000E+00 -0.00000000000E+00 -0.45593999997E+02  0.45594000000E+02  0.51100000000E-03 0. -1.
    9900012    2    1    2    0    0  0.10185086796E+02 -0.21005725427E+02  0.21719678817E+02  0.59301938128E+02  0.49999989241E+02 0.  0.
        -12    1    1    2    0    0 -0.10185086796E+02  0.21005725427E+02 -0.21719678817E+02  0.31886061872E+02  0.00000000000E+00 0.  1.
         11    1    3    3    0    0  0.24456394697E+01 -0.27994995021E+01 -0.50613920596E+01  0.62798120768E+01  0.51100000000E-03 0. -1.
        -11    1    3    3    0    0 -0.86761393818E+01  0.99272155358E+01  0.73673922968E+01  0.15103094795E+02  0.51100000000E-03 0.  1.
        -12    1    3    3    0    0  0.16415586708E+02 -0.28133441461E+02  0.19413678580E+02  0.37919031256E+02  0.00000000000E+00 0.  1.
</event>
<event>
 7    1  0.1101380E-011  0.5930193E+02  0.7816164E-02  0.1266605E+00
        -11   -1    0    0    0    0  0.00000000000E+00  0.00000000000E+00  0.45593999997E+02  0.45594000000E+02  0.51100000000E-03 0.  1.
         11   -1    0    0    0    0 -0.00000000000E+00 -0.00000000000E+00 -0.45593999997E+02  0.45594000000E+02  0.51100000000E-03 0. -1.
    9900012    2    1    2    0    0  0.13223931801E+02 -0.11779603506E+02 -0.26515849414E+02  0.59301926219E+02  0.49999967521E+02 0.  0.
        -12    1    1    2    0    0 -0.13223931801E+02  0.11779603506E+02  0.26515849414E+02  0.31886073781E+02  0.00000000000E+00 0.  1.
         11    1    3    3    0    0  0.14289967372E+02  0.84393866941E-01 -0.13342207860E+02  0.19550570341E+02  0.51100000000E-03 0.  1.
        -11    1    3    3    0    0  0.15017782702E+02 -0.22299608326E+01  0.24093167942E+01  0.15372421094E+02  0.51100000000E-03 0. -1.
         12    1    3    3    0    0 -0.16083818274E+02 -0.96340365406E+01 -0.15582958348E+02  0.24378934784E+02  0.00000000000E+00 0. -1.
</event>
<event>
 7    1  0.1101380E-011  0.5930201E+02  0.7816164E-02  0.1266605E+00
        -11   -1    0    0    0    0  0.00000000000E+00  0.00000000000E+00  0.45593999997E+02  0.45594000000E+02  0.51100000000E-03 0.  1.
         11   -1    0    0    0    0 -0.00000000000E+00 -0.00000000000E+00 -0.45593999997E+02  0.45594000000E+02  0.51100000000E-03 0. -1.
    9900012    2    1    2    0    0 -0.11387532239E+02 -0.56387902440E+01 -0.29244568963E+02  0.59302005273E+02  0.50000111697E+02 0.  0.
        -12    1    1    2    0    0  0.11387532239E+02  0.56387902440E+01  0.29244568963E+02  0.31885994727E+02  0.00000000000E+00 0.  1.
         11    1    3    3    0    0  0.39456416541E+01 -0.10694376249E+02 -0.54712306868E+01  0.12644055398E+02  0.51100000000E-03 0. -1.
        -11    1    3    3    0    0  0.18268418461E+00 -0.10145409744E+02 -0.22752628610E+02  0.24912744154E+02  0.51100000000E-03 0.  1.
        -12    1    3    3    0    0 -0.15515858078E+02  0.15200995748E+02 -0.10207096660E+01  0.21745205721E+02  0.00000000000E+00 0.  1.
</event>
<event>
 7    1  0.1101380E-011  0.5930196E+02  0.7816164E-02  0.1266605E+00
        -11   -1    0    0    0    0  0.00000000000E+00  0.00000000000E+00  0.45593999997E+02  0.45594000000E+02  0.51100000000E-03 0.  1.
         11   -1    0    0    0    0 -0.00000000000E+00 -0.00000000000E+00 -0.45593999997E+02  0.45594000000E+02  0.51100000000E-03 0. -1.
    9900012    2    1    2    0    0 -0.26720397761E+02 -0.12417922632E+02 -0.12187509522E+02  0.59301955289E+02  0.50000020537E+02 0.  0.
        -12    1    1    2    0    0  0.26720397761E+02  0.12417922632E+02  0.12187509522E+02  0.31886044711E+02  0.00000000000E+00 0.  1.
         11    1    3    3    0    0 -0.31675462111E+01  0.56228310523E+01  0.12405876276E+00  0.64548407323E+01  0.51100000000E-03 0. -1.
        -11    1    3    3    0    0 -0.38793657909E+01 -0.18300091108E+02  0.11499729733E+02  0.21958747635E+02  0.51100000000E-03 0.  1.
         12    1    3    3    0    0 -0.19673485759E+02  0.25933742355E+00 -0.23811298017E+02  0.30888366922E+02  0.00000000000E+00 0. -1.
</event>
<event>
 7    1  0.1101380E-011  0.5930195E+02  0.7816164E-02  0.1266605E+00
        -11   -1    0    0    0    0  0.00000000000E+00  0.00000000000E+00  0.45593999997E+02  0.45594000000E+02  0.51100000000E-03 0. -1.
         11   -1    0    0    0    0 -0.00000000000E+00 -0.00000000000E+00 -0.45593999997E+02  0.45594000000E+02  0.51100000000E-03 0.  1.
    9900012    2    1    2    0    0  0.87892319343E+01  0.22300103104E+02  0.21027964673E+02  0.59301945137E+02  0.50000002022E+02 0.  0.
        -12    1    1    2    0    0 -0.87892319343E+01 -0.22300103104E+02 -0.21027964673E+02  0.31886054863E+02  0.00000000000E+00 0.  1.
         11    1    3    3    0    0 -0.48554596327E+01 -0.23889044995E+01  0.30717987298E+00  0.54200288457E+01  0.51100000000E-03 0. -1.
        -11    1    3    3    0    0  0.10608427774E+02  0.25670475045E+02 -0.47781598885E+01  0.28184088437E+02  0.51100000000E-03 0.  1.
         12    1    3    3    0    0  0.30362637932E+01 -0.98146744090E+00  0.25498944689E+02  0.25697827854E+02  0.00000000000E+00 0. -1.
</event>
<event>
 7    1  0.1101380E-011  0.5930194E+02  0.7816164E-02  0.1266605E+00
        -11   -1    0    0    0    0  0.00000000000E+00  0.00000000000E+00  0.45593999997E+02  0.45594000000E+02  0.51100000000E-03 0.  1.
         11   -1    0    0    0    0 -0.00000000000E+00 -0.00000000000E+00 -0.45593999997E+02  0.45594000000E+02  0.51100000000E-03 0. -1.
    9900012    2    1    2    0    0  0.83014888674E+01 -0.29343978062E+02 -0.93132573107E+01  0.59301944620E+02  0.50000001081E+02 0.  0.
        -12    1    1    2    0    0 -0.83014888674E+01  0.29343978062E+02  0.93132573107E+01  0.31886055380E+02  0.00000000000E+00 0.  1.
         11    1    3    3    0    0  0.23029235362E+01 -0.21301143596E+02 -0.20256169477E+02  0.29484819441E+02  0.51100000000E-03 0. -1.
        -11    1    3    3    0    0  0.10857994243E+02 -0.11315650557E+02 -0.18063112821E+01  0.15786156822E+02  0.51100000000E-03 0.  1.
         12    1    3    3    0    0 -0.48594289113E+01  0.32728160912E+01  0.12749223448E+02  0.14030968357E+02  0.00000000000E+00 0. -1.
</event>
<event>
 7    1  0.1101380E-011  0.5930195E+02  0.7816164E-02  0.1266605E+00
        -11   -1    0    0    0    0  0.00000000000E+00  0.00000000000E+00  0.45593999997E+02  0.45594000000E+02  0.51100000000E-03 0. -1.
         11   -1    0    0    0    0 -0.00000000000E+00 -0.00000000000E+00 -0.45593999997E+02  0.45594000000E+02  0.51100000000E-03 0.  1.
    9900012    2    1    2    0    0 -0.15074138927E+02 -0.11526973501E+02  0.25624591098E+02  0.59301945816E+02  0.50000003261E+02 0.  0.
        -12    1    1    2    0    0  0.15074138927E+02  0.11526973501E+02 -0.25624591098E+02  0.31886054184E+02  0.00000000000E+00 0.  1.
         11    1    3    3    0    0 -0.52300278945E+01  0.93116733201E+01 -0.29657476118E+01  0.11084047589E+02  0.51100000000E-03 0. -1.
        -11    1    3    3    0    0 -0.16376995094E+02 -0.79068481964E+00  0.63823523955E+01  0.17594475643E+02  0.51100000000E-03 0.  1.
        -12    1    3    3    0    0  0.65328840618E+01 -0.20047962002E+02  0.22207986314E+02  0.30623422584E+02  0.00000000000E+00 0.  1.
</event>
<event>
 7    1  0.1101380E-011  0.5930194E+02  0.7816164E-02  0.1266605E+00
        -11   -1    0    0    0    0  0.00000000000E+00  0.00000000000E+00  0.45593999997E+02  0.45594000000E+02  0.51100000000E-03 0. -1.
         11   -1    0    0    0    0 -0.00000000000E+00 -0.00000000000E+00 -0.45593999997E+02  0.45594000000E+02  0.51100000000E-03 0.  1.
    9900012    2    1    2    0    0 -0.30517025474E+02 -0.75462670723E+01 -0.53371920801E+01  0.59301943333E+02  0.49999998733E+02 0.  0.
        -12    1    1    2    0    0  0.30517025474E+02  0.75462670723E+01  0.53371920801E+01  0.31886056667E+02  0.00000000000E+00 0.  1.
         11    1    3    3    0    0 -0.77849600154E+01  0.93814098489E+00 -0.62914851447E+01  0.10053282874E+02  0.51100000000E-03 0. -1.
        -11    1    3    3    0    0  0.25186351665E+01  0.55017714260E+01 -0.15065955653E+02  0.16235640792E+02  0.51100000000E-03 0.  1.
         12    1    3    3    0    0 -0.25250700625E+02 -0.13986179483E+02  0.16020248718E+02  0.33013019667E+02  0.00000000000E+00 0. -1.
</event>
<event>
 7    1  0.1101380E-011  0.5930223E+02  0.7816164E-02  0.1266604E+00
        -11   -1    0    0    0    0  0.00000000000E+00  0.00000000000E+00  0.45593999997E+02  0.45594000000E+02  0.51100000000E-03 0.  1.
         11   -1    0    0    0    0 -0.00000000000E+00 -0.00000000000E+00 -0.45593999997E+02  0.45594000000E+02  0.51100000000E-03 0. -1.
    9900012    2    1    2    0    0  0.42474318161E+01  0.16030214162E+02 -0.27234056747E+02  0.59302230603E+02  0.50000522643E+02 0.  0.
        -12    1    1    2    0    0 -0.42474318161E+01 -0.16030214162E+02  0.27234056747E+02  0.31885769397E+02  0.00000000000E+00 0.  1.
         11    1    3    3    0    0  0.86582709463E+01 -0.58421219793E+01 -0.13129840892E+02  0.16777626981E+02  0.51100000000E-03 0.  1.
        -11    1    3    3    0    0 -0.62846092899E+01  0.16933107339E+02  0.80317374137E+01  0.19767024162E+02  0.51100000000E-03 0. -1.
         12    1    3    3    0    0  0.18737701597E+01  0.49392288018E+01 -0.22135953269E+02  0.22757579460E+02  0.00000000000E+00 0. -1.
</event>
<event>
 7    1  0.1101380E-011  0.5930195E+02  0.7816164E-02  0.1266605E+00
        -11   -1    0    0    0    0  0.00000000000E+00  0.00000000000E+00  0.45593999997E+02  0.45594000000E+02  0.51100000000E-03 0.  1.
         11   -1    0    0    0    0 -0.00000000000E+00 -0.00000000000E+00 -0.45593999997E+02  0.45594000000E+02  0.51100000000E-03 0. -1.
    9900012    2    1    2    0    0 -0.97465972099E+01  0.13861317133E+02 -0.27010885446E+02  0.59301949721E+02  0.50000010383E+02 0.  0.
        -12    1    1    2    0    0  0.97465972099E+01 -0.13861317133E+02  0.27010885446E+02  0.31886050279E+02  0.00000000000E+00 0.  1.
         11    1    3    3    0    0  0.89699027385E+01 -0.66533385389E+00 -0.16561530717E+02  0.18846382258E+02  0.51100000000E-03 0. -1.
        -11    1    3    3    0    0 -0.20738637345E+02  0.12053050669E+02 -0.19464718199E+02  0.30890813588E+02  0.51100000000E-03 0.  1.
        -12    1    3    3    0    0  0.20221373962E+01  0.24736003184E+01  0.90153634698E+01  0.95647538744E+01  0.00000000000E+00 0.  1.
</event>
<event>
 7    1  0.1101380E-011  0.5930198E+02  0.7816164E-02  0.1266605E+00
        -11   -1    0    0    0    0  0.00000000000E+00  0.00000000000E+00  0.45593999997E+02  0.45594000000E+02  0.51100000000E-03 0.  1.
         11   -1    0    0    0    0 -0.00000000000E+00 -0.00000000000E+00 -0.45593999997E+02  0.45594000000E+02  0.51100000000E-03 0. -1.
    9900012    2    1    2    0    0 -0.26021774100E+02 -0.15150708956E+02 -0.10490063013E+02  0.59301982199E+02  0.50000069616E+02 0.  0.
        -12    1    1    2    0    0  0.26021774100E+02  0.15150708956E+02  0.10490063013E+02  0.31886017801E+02  0.00000000000E+00 0.  1.
         11    1    3    3    0    0 -0.21189862174E+01 -0.45647842853E+01 -0.11157279737E+02  0.12239781434E+02  0.51100000000E-03 0. -1.
        -11    1    3    3    0    0 -0.12221651935E+02 -0.24080458122E+02 -0.65872446300E+01  0.27796205343E+02  0.51100000000E-03 0.  1.
        -12    1    3    3    0    0 -0.11681135947E+02  0.13494533451E+02  0.72544613537E+01  0.19265995422E+02  0.00000000000E+00 0.  1.
</event>
<event>
 7    1  0.1101380E-011  0.5930195E+02  0.7816164E-02  0.1266605E+00
        -11   -1    0    0    0    0  0.00000000000E+00  0.00000000000E+00  0.45593999997E+02  0.45594000000E+02  0.51100000000E-03 0.  1.
         11   -1    0    0    0    0 -0.00000000000E+00 -0.00000000000E+00 -0.45593999997E+02  0.45594000000E+02  0.51100000000E-03 0. -1.
    9900012    2    1    2    0    0 -0.27728625420E+02 -0.15504578520E+02 -0.27297796525E+01  0.59301947881E+02  0.50000007028E+02 0.  0.
        -12    1    1    2    0    0  0.27728625420E+02  0.15504578520E+02  0.27297796525E+01  0.31886052119E+02  0.00000000000E+00 0.  1.
         11    1    3    3    0    0 -0.69423600016E+01  0.57011835416E+01 -0.17157139672E+02  0.19366654284E+02  0.51100000000E-03 0. -1.
        -11    1    3    3    0    0 -0.68099059219E+01 -0.66523303967E+01  0.17109908266E+02  0.19580022460E+02  0.51100000000E-03 0.  1.
        -12    1    3    3    0    0 -0.13976359497E+02 -0.14553431664E+02 -0.26825482466E+01  0.20355271138E+02  0.00000000000E+00 0.  1.
</event>
<event>
 7    1  0.1101380E-011  0.5930187E+02  0.7816164E-02  0.1266605E+00
        -11   -1    0    0    0    0  0.00000000000E+00  0.00000000000E+00  0.45593999997E+02  0.45594000000E+02  0.51100000000E-03 0.  1.
         11   -1    0    0    0    0 -0.00000000000E+00 -0.00000000000E+00 -0.45593999997E+02  0.45594000000E+02  0.51100000000E-03 0. -1.
    9900012    2    1    2    0    0 -0.13392651262E+01 -0.14857491391E+02 -0.28181312458E+02  0.59301873654E+02  0.49999871655E+02 0.  0.
        -12    1    1    2    0    0  0.13392651262E+01  0.14857491391E+02  0.28181312458E+02  0.31886126346E+02  0.00000000000E+00 0.  1.
         11    1    3    3    0    0 -0.79111218412E+00 -0.79628438200E+01 -0.16969215359E+02  0.18761316861E+02  0.51100000000E-03 0. -1.
        -11    1    3    3    0    0 -0.60304961675E+00 -0.22321376681E+02 -0.11487742776E+02  0.25111267593E+02  0.51100000000E-03 0.  1.
        -12    1    3    3    0    0  0.54896674689E-01  0.15426729110E+02  0.27564567741E+00  0.15429289200E+02  0.00000000000E+00 0.  1.
</event>
<event>
 7    1  0.1101380E-011  0.5930194E+02  0.7816164E-02  0.1266605E+00
        -11   -1    0    0    0    0  0.00000000000E+00  0.00000000000E+00  0.45593999997E+02  0.45594000000E+02  0.51100000000E-03 0.  1.
         11   -1    0    0    0    0 -0.00000000000E+00 -0.00000000000E+00 -0.45593999997E+02  0.45594000000E+02  0.51100000000E-03 0. -1.
    9900012    2    1    2    0    0  0.29573476089E+01  0.29294207368E+01 -0.31613187795E+02  0.59301936378E+02  0.49999986049E+02 0.  0.
        -12    1    1    2    0    0 -0.29573476089E+01 -0.29294207368E+01  0.31613187795E+02  0.31886063622E+02  0.00000000000E+00 0.  1.
         11    1    3    3    0    0  0.35521370883E+00  0.20765004821E+01 -0.20854366120E+02  0.20960501367E+02  0.51100000000E-03 0. -1.
        -11    1    3    3    0    0  0.16794442961E+00 -0.16722504253E+02 -0.11956413319E+02  0.20557873761E+02  0.51100000000E-03 0.  1.
         12    1    3    3    0    0  0.24341894705E+01  0.17575424508E+02  0.11975916438E+01  0.17783561251E+02  0.00000000000E+00 0. -1.
</event>
<event>
 7    1  0.1101380E-011  0.5930192E+02  0.7816164E-02  0.1266605E+00
        -11   -1    0    0    0    0  0.00000000000E+00  0.00000000000E+00  0.45593999997E+02  0.45594000000E+02  0.51100000000E-03 0. -1.
         11   -1    0    0    0    0 -0.00000000000E+00 -0.00000000000E+00 -0.45593999997E+02  0.45594000000E+02  0.51100000000E-03 0.  1.
    9900012    2    1    2    0    0  0.29856752370E+02 -0.52926078530E+01  0.98632958704E+01  0.59301922076E+02  0.49999959965E+02 0.  0.
        -12    1    1    2    0    0 -0.29856752370E+02  0.52926078530E+01 -0.98632958704E+01  0.31886077924E+02  0.00000000000E+00 0.  1.
         11    1    3    3    0    0  0.25652332822E+02 -0.10605724617E+02  0.98351364267E+01  0.29449167775E+02  0.51100000000E-03 0. -1.
        -11    1    3    3    0    0  0.60781698540E+01  0.50780050093E+01  0.13821911324E+02  0.15930333222E+02  0.51100000000E-03 0.  1.
        -12    1    3    3    0    0 -0.18737503063E+01  0.23511175492E+00 -0.13793751880E+02  0.13922421079E+02  0.00000000000E+00 0.  1.
</event>
<event>
 7    1  0.1101380E-011  0.5930194E+02  0.7816164E-02  0.1266605E+00
        -11   -1    0    0    0    0  0.00000000000E+00  0.00000000000E+00  0.45593999997E+02  0.45594000000E+02  0.51100000000E-03 0. -1.
         11   -1    0    0    0    0 -0.00000000000E+00 -0.00000000000E+00 -0.45593999997E+02  0.45594000000E+02  0.51100000000E-03 0.  1.
    9900012    2    1    2    0    0  0.16428001993E+02  0.26502429878E+02  0.66680247644E+01  0.59301943593E+02  0.49999999208E+02 0.  0.
        -12    1    1    2    0    0 -0.16428001993E+02 -0.26502429878E+02 -0.66680247644E+01  0.31886056407E+02  0.00000000000E+00 0.  1.
         11    1    3    3    0    0  0.27549394220E+02  0.14537850455E+02  0.15048782182E+02  0.34594566960E+02  0.51100000000E-03 0. -1.
        -11    1    3    3    0    0 -0.72143524188E+01 -0.29372292771E+01 -0.35677152073E+01  0.85675427463E+01  0.51100000000E-03 0.  1.
        -12    1    3    3    0    0 -0.39070398078E+01  0.14901808700E+02 -0.48130422103E+01  0.16139833887E+02  0.00000000000E+00 0.  1.
</event>
<event>
 7    1  0.1101380E-011  0.5930194E+02  0.7816164E-02  0.1266605E+00
        -11   -1    0    0    0    0  0.00000000000E+00  0.00000000000E+00  0.45593999997E+02  0.45594000000E+02  0.51100000000E-03 0.  1.
         11   -1    0    0    0    0 -0.00000000000E+00 -0.00000000000E+00 -0.45593999997E+02  0.45594000000E+02  0.51100000000E-03 0. -1.
    9900012    2    1    2    0    0 -0.28398173452E+02 -0.11865921691E+02 -0.83345215184E+01  0.59301943456E+02  0.49999998958E+02 0.  0.
        -12    1    1    2    0    0  0.28398173452E+02  0.11865921691E+02  0.83345215184E+01  0.31886056544E+02  0.00000000000E+00 0.  1.
         11    1    3    3    0    0 -0.28201953052E+02 -0.17973006451E+02 -0.92198991646E+01  0.34689849491E+02  0.51100000000E-03 0. -1.
        -11    1    3    3    0    0 -0.70300682578E+01  0.29882836214E+01  0.10138213572E+02  0.12693899062E+02  0.51100000000E-03 0.  1.
        -12    1    3    3    0    0  0.68338478578E+01  0.31188011382E+01 -0.92528359258E+01  0.11918194903E+02  0.00000000000E+00 0.  1.
</event>
<event>
 7    1  0.1101380E-011  0.5930210E+02  0.7816164E-02  0.1266604E+00
        -11   -1    0    0    0    0  0.00000000000E+00  0.00000000000E+00  0.45593999997E+02  0.45594000000E+02  0.51100000000E-03 0.  1.
         11   -1    0    0    0    0 -0.00000000000E+00 -0.00000000000E+00 -0.45593999997E+02  0.45594000000E+02  0.51100000000E-03 0. -1.
    9900012    2    1    2    0    0 -0.10604377128E+02 -0.13990762683E+02 -0.26617972791E+02  0.59302098253E+02  0.50000281270E+02 0.  0.
        -12    1    1    2    0    0  0.10604377128E+02  0.13990762683E+02  0.26617972791E+02  0.31885901747E+02  0.00000000000E+00 0.  1.
         11    1    3    3    0    0  0.60520893746E+01 -0.54850728441E+00 -0.22207160401E+02  0.23023610042E+02  0.51100000000E-03 0. -1.
        -11    1    3    3    0    0 -0.13846872200E+02 -0.35160392353E+01 -0.15536207278E+02  0.21106210898E+02  0.51100000000E-03 0.  1.
        -12    1    3    3    0    0 -0.28095943024E+01 -0.99262161630E+01  0.11125394888E+02  0.15172277313E+02  0.00000000000E+00 0.  1.
</event>
<event>
 7    1  0.1101380E-011  0.5930183E+02  0.7816164E-02  0.1266605E+00
        -11   -1    0    0    0    0  0.00000000000E+00  0.00000000000E+00  0.45593999997E+02  0.45594000000E+02  0.51100000000E-03 0.  1.
         11   -1    0    0    0    0 -0.00000000000E+00 -0.00000000000E+00 -0.45593999997E+02  0.45594000000E+02  0.51100000000E-03 0. -1.
    9900012    2    1    2    0    0 -0.45961846481E+01  0.20757040407E+02 -0.23764434965E+02  0.59301827307E+02  0.49999787129E+02 0.  0.
        -12    1    1    2    0    0  0.45961846481E+01 -0.20757040407E+02  0.23764434965E+02  0.31886172693E+02  0.00000000000E+00 0.  1.
         11    1    3    3    0    0 -0.10439825883E+02 -0.41774386169E+01  0.75793188924E+01  0.13560495308E+02  0.51100000000E-03 0. -1.
        -11    1    3    3    0    0  0.48799197852E+01 -0.18120455406E+01 -0.10354894083E+01  0.53074819573E+01  0.51100000000E-03 0.  1.
        -12    1    3    3    0    0  0.96372144913E+00  0.26746524565E+02 -0.30308264449E+02  0.40433850042E+02  0.00000000000E+00 0.  1.
</event>
<event>
 7    1  0.1101380E-011  0.5930191E+02  0.7816164E-02  0.1266605E+00
        -11   -1    0    0    0    0  0.00000000000E+00  0.00000000000E+00  0.45593999997E+02  0.45594000000E+02  0.51100000000E-03 0. -1.
         11   -1    0    0    0    0 -0.00000000000E+00 -0.00000000000E+00 -0.45593999997E+02  0.45594000000E+02  0.51100000000E-03 0.  1.
    9900012    2    1    2    0    0 -0.15088691909E+02  0.52029515577E+01  0.27604052530E+02  0.59301905154E+02  0.49999929103E+02 0.  0.
        -12    1    1    2    0    0  0.15088691909E+02 -0.52029515577E+01 -0.27604052530E+02  0.31886094846E+02  0.00000000000E+00 0.  1.
         11    1    3    3    0    0 -0.23578987834E+02 -0.16584340887E+00  0.73580301792E+01  0.24700946939E+02  0.51100000000E-03 0. -1.
        -11    1    3    3    0    0 -0.72243174976E+00 -0.45691565636E+01  0.20531994049E+02  0.21046659574E+02  0.51100000000E-03 0.  1.
        -12    1    3    3    0    0  0.92127276742E+01  0.99379515302E+01 -0.28597169835E+00  0.13554298640E+02  0.00000000000E+00 0.  1.
</event>
<event>
 7    1  0.1101380E-011  0.5930194E+02  0.7816164E-02  0.1266605E+00
        -11   -1    0    0    0    0  0.00000000000E+00  0.00000000000E+00  0.45593999997E+02  0.45594000000E+02  0.51100000000E-03 0.  1.
         11   -1    0    0    0    0 -0.00000000000E+00 -0.00000000000E+00 -0.45593999997E+02  0.45594000000E+02  0.51100000000E-03 0. -1.
    9900012    2    1    2    0    0  0.19984626986E+01  0.77517007982E+01 -0.30864836210E+02  0.59301939838E+02  0.49999992359E+02 0.  0.
        -12    1    1    2    0    0 -0.19984626986E+01 -0.77517007982E+01  0.30864836210E+02  0.31886060162E+02  0.00000000000E+00 0.  1.
         11    1    3    3    0    0 -0.64555163186E+01  0.66898208573E+01  0.40787670350E-01  0.92967229677E+01  0.51100000000E-03 0. -1.
        -11    1    3    3    0    0  0.16563424779E+02  0.12936178664E+02 -0.70803785479E+01  0.22177094478E+02  0.51100000000E-03 0.  1.
         12    1    3    3    0    0 -0.81094457616E+01 -0.11874298724E+02 -0.23825245332E+02  0.27828122392E+02  0.00000000000E+00 0. -1.
</event>
<event>
 7    1  0.1101380E-011  0.5930193E+02  0.7816164E-02  0.1266605E+00
        -11   -1    0    0    0    0  0.00000000000E+00  0.00000000000E+00  0.45593999997E+02  0.45594000000E+02  0.51100000000E-03 0. -1.
         11   -1    0    0    0    0 -0.00000000000E+00 -0.00000000000E+00 -0.45593999997E+02  0.45594000000E+02  0.51100000000E-03 0.  1.
    9900012    2    1    2    0    0  0.27974903169E+01 -0.12511099576E+02  0.29195339386E+02  0.59301930839E+02  0.49999975947E+02 0.  0.
        -12    1    1    2    0    0 -0.27974903169E+01  0.12511099576E+02 -0.29195339386E+02  0.31886069161E+02  0.00000000000E+00 0.  1.
         11    1    3    3    0    0  0.14792667611E+02 -0.13125001812E+02  0.21208540808E+02  0.28998118751E+02  0.51100000000E-03 0. -1.
        -11    1    3    3    0    0 -0.35280519424E+01  0.28989088023E+01  0.17074470011E+02  0.17674511285E+02  0.51100000000E-03 0.  1.
        -12    1    3    3    0    0 -0.84671253517E+01 -0.22850065658E+01 -0.90876714323E+01  0.12629300804E+02  0.00000000000E+00 0.  1.
</event>
<event>
 7    1  0.1101380E-011  0.5930195E+02  0.7816164E-02  0.1266605E+00
        -11   -1    0    0    0    0  0.00000000000E+00  0.00000000000E+00  0.45593999997E+02  0.45594000000E+02  0.51100000000E-03 0. -1.
         11   -1    0    0    0    0 -0.00000000000E+00 -0.00000000000E+00 -0.45593999997E+02  0.45594000000E+02  0.51100000000E-03 0.  1.
    9900012    2    1    2    0    0  0.20263326271E+02  0.15766567764E+02  0.18908546307E+02  0.59301950165E+02  0.50000011193E+02 0.  0.
        -12    1    1    2    0    0 -0.20263326271E+02 -0.15766567764E+02 -0.18908546307E+02  0.31886049835E+02  0.00000000000E+00 0.  1.
         11    1    3    3    0    0  0.11641905641E+02  0.42936240443E+01  0.10549361892E+02  0.16286749552E+02  0.51100000000E-03 0. -1.
        -11    1    3    3    0    0 -0.26959561216E+01  0.24443289188E+02  0.77757858645E+01  0.25791576373E+02  0.51100000000E-03 0.  1.
        -12    1    3    3    0    0  0.11317376751E+02 -0.12970345468E+02  0.58339855065E+00  0.17223624240E+02  0.00000000000E+00 0.  1.
</event>
<event>
 7    1  0.1101380E-011  0.5930196E+02  0.7816164E-02  0.1266605E+00
        -11   -1    0    0    0    0  0.00000000000E+00  0.00000000000E+00  0.45593999997E+02  0.45594000000E+02  0.51100000000E-03 0.  1.
         11   -1    0    0    0    0 -0.00000000000E+00 -0.00000000000E+00 -0.45593999997E+02  0.45594000000E+02  0.51100000000E-03 0. -1.
    9900012    2    1    2    0    0  0.21078112192E+02 -0.13014982030E+02 -0.20075934107E+02  0.59301957581E+02  0.50000024718E+02 0.  0.
        -12    1    1    2    0    0 -0.21078112192E+02  0.13014982030E+02  0.20075934107E+02  0.31886042419E+02  0.00000000000E+00 0.  1.
         11    1    3    3    0    0 -0.40542608918E+01  0.41549556322E+01 -0.64731758967E+00  0.58412077524E+01  0.51100000000E-03 0. -1.
        -11    1    3    3    0    0  0.14647116913E+02 -0.49051006393E+01  0.11037863577E+02  0.18985059356E+02  0.51100000000E-03 0.  1.
         12    1    3    3    0    0  0.10485256171E+02 -0.12264837023E+02 -0.30466480095E+02  0.34475690473E+02  0.00000000000E+00 0. -1.
</event>
<event>
 7    1  0.1101380E-011  0.5930194E+02  0.7816164E-02  0.1266605E+00
        -11   -1    0    0    0    0  0.00000000000E+00  0.00000000000E+00  0.45593999997E+02  0.45594000000E+02  0.51100000000E-03 0.  1.
         11   -1    0    0    0    0 -0.00000000000E+00 -0.00000000000E+00 -0.45593999997E+02  0.45594000000E+02  0.51100000000E-03 0. -1.
    9900012    2    1    2    0    0 -0.11836028774E+02  0.28402730400E+02 -0.83614811022E+01  0.59301936625E+02  0.49999986499E+02 0.  0.
        -12    1    1    2    0    0  0.11836028774E+02 -0.28402730400E+02  0.83614811022E+01  0.31886063375E+02  0.00000000000E+00 0.  1.
         11    1    3    3    0    0  0.13395990788E+01 -0.78983311439E+01 -0.12473006500E+01  0.81076457572E+01  0.51100000000E-03 0. -1.
        -11    1    3    3    0    0  0.54338995170E+01  0.10663043660E+02 -0.14363006230E+02  0.18695553276E+02  0.51100000000E-03 0.  1.
         12    1    3    3    0    0 -0.18609527370E+02  0.25638017884E+02  0.72488257776E+01  0.32498737592E+02  0.00000000000E+00 0. -1.
</event>
<event>
 7    1  0.1101380E-011  0.5930197E+02  0.7816164E-02  0.1266605E+00
        -11   -1    0    0    0    0  0.00000000000E+00  0.00000000000E+00  0.45593999997E+02  0.45594000000E+02  0.51100000000E-03 0.  1.
         11   -1    0    0    0    0 -0.00000000000E+00 -0.00000000000E+00 -0.45593999997E+02  0.45594000000E+02  0.51100000000E-03 0. -1.
    9900012    2    1    2    0    0 -0.31422780282E+02  0.53713721341E+01 -0.69014085344E+00  0.59301967735E+02  0.50000043236E+02 0.  0.
        -12    1    1    2    0    0  0.31422780282E+02 -0.53713721341E+01  0.69014085344E+00  0.31886032265E+02  0.00000000000E+00 0.  1.
         11    1    3    3    0    0  0.15422783893E+01  0.20605733962E+01  0.38841484717E+01  0.46595273325E+01  0.51100000000E-03 0. -1.
        -11    1    3    3    0    0 -0.36088762483E+02  0.15151486287E+02  0.45039492305E+01  0.39398627808E+02  0.51100000000E-03 0.  1.
         12    1    3    3    0    0  0.31237038118E+01 -0.11840687549E+02 -0.90782385556E+01  0.15243812594E+02  0.00000000000E+00 0. -1.
</event>
<event>
 7    1  0.1101380E-011  0.5930193E+02  0.7816164E-02  0.1266605E+00
        -11   -1    0    0    0    0  0.00000000000E+00  0.00000000000E+00  0.45593999997E+02  0.45594000000E+02  0.51100000000E-03 0.  1.
         11   -1    0    0    0    0 -0.00000000000E+00 -0.00000000000E+00 -0.45593999997E+02  0.45594000000E+02  0.51100000000E-03 0. -1.
    9900012    2    1    2    0    0  0.45267256024E+01  0.26006553077E+02 -0.17885457867E+02  0.59301927010E+02  0.49999968963E+02 0.  0.
        -12    1    1    2    0    0 -0.45267256024E+01 -0.26006553077E+02  0.17885457867E+02  0.31886072990E+02  0.00000000000E+00 0.  1.
         11    1    3    3    0    0 -0.16302084831E+02  0.17227727534E+02 -0.96239413812E+01  0.25596343758E+02  0.51100000000E-03 0. -1.
        -11    1    3    3    0    0  0.92477283012E+01  0.16331531989E+02 -0.59414485051E+01  0.19686041411E+02  0.51100000000E-03 0.  1.
        -12    1    3    3    0    0  0.11581082132E+02 -0.75527064455E+01 -0.23200679809E+01  0.14019541841E+02  0.00000000000E+00 0.  1.
</event>
<event>
 7    1  0.1101380E-011  0.5930193E+02  0.7816164E-02  0.1266605E+00
        -11   -1    0    0    0    0  0.00000000000E+00  0.00000000000E+00  0.45593999997E+02  0.45594000000E+02  0.51100000000E-03 0. -1.
         11   -1    0    0    0    0 -0.00000000000E+00 -0.00000000000E+00 -0.45593999997E+02  0.45594000000E+02  0.51100000000E-03 0.  1.
    9900012    2    1    2    0    0  0.14208746458E+02  0.27854363417E+02 -0.62423704050E+01  0.59301933677E+02  0.49999981122E+02 0.  0.
        -12    1    1    2    0    0 -0.14208746458E+02 -0.27854363417E+02  0.62423704050E+01  0.31886066323E+02  0.00000000000E+00 0.  1.
         11    1    3    3    0    0 -0.31477057024E+00  0.99196928197E+01 -0.11127496703E+02  0.14910418146E+02  0.51100000000E-03 0.  1.
        -11    1    3    3    0    0  0.69786499164E+01  0.29152447421E+02 -0.11825847568E+00  0.29976336178E+02  0.51100000000E-03 0. -1.
        -12    1    3    3    0    0  0.75448671115E+01 -0.11217776824E+02  0.50033847734E+01  0.14415179353E+02  0.00000000000E+00 0.  1.
</event>
<event>
 7    1  0.1101380E-011  0.5930198E+02  0.7816164E-02  0.1266605E+00
        -11   -1    0    0    0    0  0.00000000000E+00  0.00000000000E+00  0.45593999997E+02  0.45594000000E+02  0.51100000000E-03 0.  1.
         11   -1    0    0    0    0 -0.00000000000E+00 -0.00000000000E+00 -0.45593999997E+02  0.45594000000E+02  0.51100000000E-03 0. -1.
    9900012    2    1    2    0    0 -0.21292873789E+02  0.70384100709E+01 -0.22667000086E+02  0.59301975107E+02  0.50000056682E+02 0.  0.
        -12    1    1    2    0    0  0.21292873789E+02 -0.70384100709E+01  0.22667000086E+02  0.31886024893E+02  0.00000000000E+00 0.  1.
         11    1    3    3    0    0 -0.16608266099E+02  0.13548864352E+01 -0.12019433598E+02  0.20545972947E+02  0.51100000000E-03 0. -1.
        -11    1    3    3    0    0 -0.14478675536E+02 -0.10132563015E+02 -0.96291090491E+01  0.20125124096E+02  0.51100000000E-03 0.  1.
        -12    1    3    3    0    0  0.97940678452E+01  0.15816086651E+02 -0.10184574394E+01  0.18630878065E+02  0.00000000000E+00 0.  1.
</event>
<event>
 7    1  0.1101380E-011  0.5930193E+02  0.7816164E-02  0.1266605E+00
        -11   -1    0    0    0    0  0.00000000000E+00  0.00000000000E+00  0.45593999997E+02  0.45594000000E+02  0.51100000000E-03 0.  1.
         11   -1    0    0    0    0 -0.00000000000E+00 -0.00000000000E+00 -0.45593999997E+02  0.45594000000E+02  0.51100000000E-03 0. -1.
    9900012    2    1    2    0    0  0.25677445824E+02 -0.72183698668E+01  0.17472415824E+02  0.59301930906E+02  0.49999976068E+02 0.  0.
        -12    1    1    2    0    0 -0.25677445824E+02  0.72183698668E+01 -0.17472415824E+02  0.31886069094E+02  0.00000000000E+00 0.  1.
         11    1    3    3    0    0 -0.19459861713E+01  0.12324182696E+02  0.27585328458E+01  0.12778178470E+02  0.51100000000E-03 0.  1.
        -11    1    3    3    0    0  0.82029419890E+01  0.72537411708E+01  0.23760756221E+01  0.11204943278E+02  0.51100000000E-03 0. -1.
         12    1    3    3    0    0  0.19420490006E+02 -0.26796293733E+02  0.12337807356E+02  0.35318809157E+02  0.00000000000E+00 0. -1.
</event>
<event>
 7    1  0.1101380E-011  0.5930195E+02  0.7816164E-02  0.1266605E+00
        -11   -1    0    0    0    0  0.00000000000E+00  0.00000000000E+00  0.45593999997E+02  0.45594000000E+02  0.51100000000E-03 0.  1.
         11   -1    0    0    0    0 -0.00000000000E+00 -0.00000000000E+00 -0.45593999997E+02  0.45594000000E+02  0.51100000000E-03 0. -1.
    9900012    2    1    2    0    0  0.12573383915E+02 -0.28784332585E+02  0.54856801152E+01  0.59301945497E+02  0.50000002680E+02 0.  0.
        -12    1    1    2    0    0 -0.12573383915E+02  0.28784332585E+02 -0.54856801152E+01  0.31886054503E+02  0.00000000000E+00 0.  1.
         11    1    3    3    0    0 -0.10070375427E+02 -0.15300706317E+02  0.42470596520E-01  0.18317365505E+02  0.51100000000E-03 0. -1.
        -11    1    3    3    0    0 -0.30735749375E+01  0.55935147570E+01  0.62788072281E+01  0.89530827486E+01  0.51100000000E-03 0.  1.
         12    1    3    3    0    0  0.25717334279E+02 -0.19077141025E+02 -0.83559770944E+00  0.32031497244E+02  0.00000000000E+00 0. -1.
</event>
<event>
 7    1  0.1101380E-011  0.5930195E+02  0.7816164E-02  0.1266605E+00
        -11   -1    0    0    0    0  0.00000000000E+00  0.00000000000E+00  0.45593999997E+02  0.45594000000E+02  0.51100000000E-03 0.  1.
         11   -1    0    0    0    0 -0.00000000000E+00 -0.00000000000E+00 -0.45593999997E+02  0.45594000000E+02  0.51100000000E-03 0. -1.
    9900012    2    1    2    0    0 -0.30977993185E+02  0.10483973201E+01  0.74823124402E+01  0.59301949787E+02  0.50000010504E+02 0.  0.
        -12    1    1    2    0    0  0.30977993185E+02 -0.10483973201E+01 -0.74823124402E+01  0.31886050213E+02  0.00000000000E+00 0.  1.
         11    1    3    3    0    0 -0.28298183494E+01 -0.12136665431E+02  0.12796549462E+02  0.17862200258E+02  0.51100000000E-03 0. -1.
        -11    1    3    3    0    0  0.21981890312E+01  0.39731863401E+01 -0.84281621038E+01  0.95735135358E+01  0.51100000000E-03 0.  1.
        -12    1    3    3    0    0 -0.30346363867E+02  0.92118764107E+01  0.31139250824E+01  0.31866235993E+02  0.00000000000E+00 0.  1.
</event>
<event>
 7    1  0.1101380E-011  0.5930193E+02  0.7816164E-02  0.1266605E+00
        -11   -1    0    0    0    0  0.00000000000E+00  0.00000000000E+00  0.45593999997E+02  0.45594000000E+02  0.51100000000E-03 0. -1.
         11   -1    0    0    0    0 -0.00000000000E+00 -0.00000000000E+00 -0.45593999997E+02  0.45594000000E+02  0.51100000000E-03 0.  1.
    9900012    2    1    2    0    0 -0.14767439660E+02 -0.13721069950E+02  0.24705793838E+02  0.59301932763E+02  0.49999979457E+02 0.  0.
        -12    1    1    2    0    0  0.14767439660E+02  0.13721069950E+02 -0.24705793838E+02  0.31886067237E+02  0.00000000000E+00 0.  1.
         11    1    3    3    0    0 -0.84908203082E+01 -0.19561820707E+01 -0.27819676141E+01  0.91465852571E+01  0.51100000000E-03 0. -1.
        -11    1    3    3    0    0  0.16193187441E+02 -0.96217702858E+01  0.16546384019E+02  0.25071509873E+02  0.51100000000E-03 0.  1.
         12    1    3    3    0    0 -0.22469806793E+02 -0.21431175931E+01  0.10941377433E+02  0.25083837634E+02  0.00000000000E+00 0. -1.
</event>
<event>
 7    1  0.1101380E-011  0.5930212E+02  0.7816164E-02  0.1266604E+00
        -11   -1    0    0    0    0  0.00000000000E+00  0.00000000000E+00  0.45593999997E+02  0.45594000000E+02  0.51100000000E-03 0.  1.
         11   -1    0    0    0    0 -0.00000000000E+00 -0.00000000000E+00 -0.45593999997E+02  0.45594000000E+02  0.51100000000E-03 0. -1.
    9900012    2    1    2    0    0  0.23170461850E+02 -0.12186073051E+02 -0.18202718943E+02  0.59302115103E+02  0.50000311999E+02 0.  0.
        -12    1    1    2    0    0 -0.23170461850E+02  0.12186073051E+02  0.18202718943E+02  0.31885884897E+02  0.00000000000E+00 0.  1.
         11    1    3    3    0    0  0.13667715281E+02 -0.48052507635E+01 -0.74111240512E+00  0.14506761312E+02  0.51100000000E-03 0. -1.
        -11    1    3    3    0    0  0.11553761377E+02 -0.13267424458E+02  0.74575371189E+01  0.19108344089E+02  0.51100000000E-03 0.  1.
        -12    1    3    3    0    0 -0.20510148078E+01  0.58866021698E+01 -0.24919143657E+02  0.25687009702E+02  0.00000000000E+00 0.  1.
</event>
<event>
 7    1  0.1101380E-011  0.5930194E+02  0.7816164E-02  0.1266605E+00
        -11   -1    0    0    0    0  0.00000000000E+00  0.00000000000E+00  0.45593999997E+02  0.45594000000E+02  0.51100000000E-03 0. -1.
         11   -1    0    0    0    0 -0.00000000000E+00 -0.00000000000E+00 -0.45593999997E+02  0.45594000000E+02  0.51100000000E-03 0.  1.
    9900012    2    1    2    0    0 -0.31063747982E+02  0.35676272112E+01 -0.62479239198E+01  0.59301937906E+02  0.49999988835E+02 0.  0.
        -12    1    1    2    0    0  0.31063747982E+02 -0.35676272112E+01  0.62479239198E+01  0.31886062094E+02  0.00000000000E+00 0.  1.
         11    1    3    3    0    0  0.18820318944E+00  0.99092817526E+01  0.10753438648E+02  0.14624148807E+02  0.51100000000E-03 0. -1.
        -11    1    3    3    0    0 -0.11968580231E+02  0.83238267389E+01  0.82138797329E+00  0.14601632881E+02  0.51100000000E-03 0.  1.
        -12    1    3    3    0    0 -0.19283370940E+02 -0.14665481280E+02 -0.17822750541E+02  0.30076156218E+02  0.00000000000E+00 0.  1.
</event>
<event>
 7    1  0.1101380E-011  0.5930193E+02  0.7816164E-02  0.1266605E+00
        -11   -1    0    0    0    0  0.00000000000E+00  0.00000000000E+00  0.45593999997E+02  0.45594000000E+02  0.51100000000E-03 0. -1.
         11   -1    0    0    0    0 -0.00000000000E+00 -0.00000000000E+00 -0.45593999997E+02  0.45594000000E+02  0.51100000000E-03 0.  1.
    9900012    2    1    2    0    0  0.89191387192E+01 -0.15763748726E+02  0.26242610480E+02  0.59301930719E+02  0.49999975729E+02 0.  0.
        -12    1    1    2    0    0 -0.89191387192E+01  0.15763748726E+02 -0.26242610480E+02  0.31886069281E+02  0.00000000000E+00 0.  1.
         11    1    3    3    0    0 -0.55065572692E+01 -0.24537048526E+02 -0.17976576332E+01  0.25211515158E+02  0.51100000000E-03 0. -1.
        -11    1    3    3    0    0  0.20177147925E+01 -0.16672090699E+01  0.15826182553E+01  0.30586663547E+01  0.51100000000E-03 0.  1.
        -12    1    3    3    0    0  0.12407981196E+02  0.10440508870E+02  0.26457649858E+02  0.31031749207E+02  0.00000000000E+00 0.  1.
</event>
<event>
 7    1  0.1101380E-011  0.5930193E+02  0.7816164E-02  0.1266605E+00
        -11   -1    0    0    0    0  0.00000000000E+00  0.00000000000E+00  0.45593999997E+02  0.45594000000E+02  0.51100000000E-03 0. -1.
         11   -1    0    0    0    0 -0.00000000000E+00 -0.00000000000E+00 -0.45593999997E+02  0.45594000000E+02  0.51100000000E-03 0.  1.
    9900012    2    1    2    0    0  0.13029873504E+01  0.28200365433E+02 -0.14824408916E+02  0.59301929589E+02  0.49999973667E+02 0.  0.
        -12    1    1    2    0    0 -0.13029873504E+01 -0.28200365433E+02  0.14824408916E+02  0.31886070411E+02  0.00000000000E+00 0.  1.
         11    1    3    3    0    0  0.19805404267E+02  0.38917275654E+01 -0.76211370100E+01  0.21575015903E+02  0.51100000000E-03 0. -1.
        -11    1    3    3    0    0 -0.36455916739E+01 -0.37860791254E-01 -0.84242052763E+01  0.91792704988E+01  0.51100000000E-03 0.  1.
         12    1    3    3    0    0 -0.14856825243E+02  0.24346498658E+02  0.12209333707E+01  0.28547643187E+02  0.00000000000E+00 0. -1.
</event>
<event>
 7    1  0.1101380E-011  0.5930195E+02  0.7816164E-02  0.1266605E+00
        -11   -1    0    0    0    0  0.00000000000E+00  0.00000000000E+00  0.45593999997E+02  0.45594000000E+02  0.51100000000E-03 0.  1.
         11   -1    0    0    0    0 -0.00000000000E+00 -0.00000000000E+00 -0.45593999997E+02  0.45594000000E+02  0.51100000000E-03 0. -1.
    9900012    2    1    2    0    0 -0.14402963261E+02 -0.22694260952E+02 -0.17153588274E+02  0.59301946285E+02  0.50000004116E+02 0.  0.
        -12    1    1    2    0    0  0.14402963261E+02  0.22694260952E+02  0.17153588274E+02  0.31886053715E+02  0.00000000000E+00 0.  1.
         11    1    3    3    0    0 -0.11149689284E+02 -0.10713299909E+02 -0.18051373370E+02  0.23768517978E+02  0.51100000000E-03 0. -1.
        -11    1    3    3    0    0 -0.23829816750E+01  0.11636273802E+02  0.71850175700E+00  0.11899483800E+02  0.51100000000E-03 0.  1.
        -12    1    3    3    0    0 -0.87029230264E+00 -0.23617234845E+02  0.17928333949E+00  0.23633944506E+02  0.00000000000E+00 0.  1.
</event>
<event>
 7    1  0.1101380E-011  0.5930193E+02  0.7816164E-02  0.1266605E+00
        -11   -1    0    0    0    0  0.00000000000E+00  0.00000000000E+00  0.45593999997E+02  0.45594000000E+02  0.51100000000E-03 0.  1.
         11   -1    0    0    0    0 -0.00000000000E+00 -0.00000000000E+00 -0.45593999997E+02  0.45594000000E+02  0.51100000000E-03 0. -1.
    9900012    2    1    2    0    0 -0.14575413292E+02 -0.84390492803E+01 -0.27075098274E+02  0.59301934518E+02  0.49999982656E+02 0.  0.
        -12    1    1    2    0    0  0.14575413292E+02  0.84390492803E+01  0.27075098274E+02  0.31886065482E+02  0.00000000000E+00 0.  1.
         11    1    3    3    0    0  0.90670688911E+01 -0.46005324179E+01 -0.14768978230E+02  0.17930403091E+02  0.51100000000E-03 0. -1.
        -11    1    3    3    0    0 -0.88111839731E+01  0.12821048972E+02 -0.10952489236E+02  0.19025595404E+02  0.51100000000E-03 0.  1.
         12    1    3    3    0    0 -0.14831298210E+02 -0.16659565834E+02 -0.13536308083E+01  0.22345936023E+02  0.00000000000E+00 0. -1.
</event>
<event>
 7    1  0.1101380E-011  0.5930194E+02  0.7816164E-02  0.1266605E+00
        -11   -1    0    0    0    0  0.00000000000E+00  0.00000000000E+00  0.45593999997E+02  0.45594000000E+02  0.51100000000E-03 0. -1.
         11   -1    0    0    0    0 -0.00000000000E+00 -0.00000000000E+00 -0.45593999997E+02  0.45594000000E+02  0.51100000000E-03 0.  1.
    9900012    2    1    2    0    0  0.12027739178E+02  0.28999510619E+02  0.55751697097E+01  0.59301942810E+02  0.49999997778E+02 0.  0.
        -12    1    1    2    0    0 -0.12027739178E+02 -0.28999510619E+02 -0.55751697097E+01  0.31886057190E+02  0.00000000000E+00 0.  1.
         11    1    3    3    0    0 -0.31914560364E+01 -0.17930323839E+01  0.36283496882E+01  0.51541515774E+01  0.51100000000E-03 0. -1.
        -11    1    3    3    0    0  0.15325027002E+02 -0.51193472243E+01  0.74923552312E+01  0.17810097018E+02  0.51100000000E-03 0.  1.
        -12    1    3    3    0    0 -0.10583178740E+00  0.35911890227E+02 -0.55455352097E+01  0.36337694214E+02  0.00000000000E+00 0.  1.
</event>
<event>
 7    1  0.1101380E-011  0.5930195E+02  0.7816164E-02  0.1266605E+00
        -11   -1    0    0    0    0  0.00000000000E+00  0.00000000000E+00  0.45593999997E+02  0.45594000000E+02  0.51100000000E-03 0.  1.
         11   -1    0    0    0    0 -0.00000000000E+00 -0.00000000000E+00 -0.45593999997E+02  0.45594000000E+02  0.51100000000E-03 0. -1.
    9900012    2    1    2    0    0 -0.19232886437E+02 -0.98981857618E+01 -0.23427375412E+02  0.59301954137E+02  0.50000018437E+02 0.  0.
        -12    1    1    2    0    0  0.19232886437E+02  0.98981857618E+01  0.23427375412E+02  0.31886045863E+02  0.00000000000E+00 0.  1.
         11    1    3    3    0    0 -0.80922820983E+01  0.86589480239E+01  0.54944903261E+01  0.13063377612E+02  0.51100000000E-03 0. -1.
        -11    1    3    3    0    0 -0.12100788255E+02 -0.28951280285E+01  0.96836743026E+00  0.12479927020E+02  0.51100000000E-03 0.  1.
         12    1    3    3    0    0  0.96018391612E+00 -0.15662005757E+02 -0.29890233169E+02  0.33758649505E+02  0.00000000000E+00 0. -1.
</event>
<event>
 7    1  0.1101380E-011  0.5930193E+02  0.7816164E-02  0.1266605E+00
        -11   -1    0    0    0    0  0.00000000000E+00  0.00000000000E+00  0.45593999997E+02  0.45594000000E+02  0.51100000000E-03 0.  1.
         11   -1    0    0    0    0 -0.00000000000E+00 -0.00000000000E+00 -0.45593999997E+02  0.45594000000E+02  0.51100000000E-03 0. -1.
    9900012    2    1    2    0    0 -0.60729455829E+01 -0.96750068250E+01 -0.29769701049E+02  0.59301928971E+02  0.49999972540E+02 0.  0.
        -12    1    1    2    0    0  0.60729455829E+01  0.96750068250E+01  0.29769701049E+02  0.31886071029E+02  0.00000000000E+00 0.  1.
         11    1    3    3    0    0 -0.47580824294E+01  0.56634955604E+01  0.65505595946E+01  0.98805041183E+01  0.51100000000E-03 0. -1.
        -11    1    3    3    0    0 -0.10320703846E+02 -0.24157077782E+01 -0.87714172031E+00  0.10635880303E+02  0.51100000000E-03 0.  1.
         12    1    3    3    0    0  0.90058406928E+01 -0.12922794607E+02 -0.35443118923E+02  0.38785544550E+02  0.00000000000E+00 0. -1.
</event>
<event>
 7    1  0.1101380E-011  0.5930194E+02  0.7816164E-02  0.1266605E+00
        -11   -1    0    0    0    0  0.00000000000E+00  0.00000000000E+00  0.45593999997E+02  0.45594000000E+02  0.51100000000E-03 0.  1.
         11   -1    0    0    0    0 -0.00000000000E+00 -0.00000000000E+00 -0.45593999997E+02  0.45594000000E+02  0.51100000000E-03 0. -1.
    9900012    2    1    2    0    0 -0.27230633035E+01  0.11704725562E+02 -0.29534809238E+02  0.59301943001E+02  0.49999998127E+02 0.  0.
        -12    1    1    2    0    0  0.27230633035E+01 -0.11704725562E+02  0.29534809238E+02  0.31886056999E+02  0.00000000000E+00 0.  1.
         11    1    3    3    0    0  0.31360267598E+01  0.33260718010E+01  0.39431076262E+01  0.60370121316E+01  0.51100000000E-03 0. -1.
        -11    1    3    3    0    0  0.14799399451E+02  0.13406527993E+02 -0.13614536409E+02  0.24168426072E+02  0.51100000000E-03 0.  1.
         12    1    3    3    0    0 -0.20658489514E+02 -0.50278742315E+01 -0.19863380455E+02  0.29096504797E+02  0.00000000000E+00 0. -1.
</event>
<event>
 7    1  0.1101380E-011  0.5930198E+02  0.7816164E-02  0.1266605E+00
        -11   -1    0    0    0    0  0.00000000000E+00  0.00000000000E+00  0.45593999997E+02  0.45594000000E+02  0.51100000000E-03 0.  1.
         11   -1    0    0    0    0 -0.00000000000E+00 -0.00000000000E+00 -0.45593999997E+02  0.45594000000E+02  0.51100000000E-03 0. -1.
    9900012    2    1    2    0    0  0.41329996087E+01 -0.23225134963E+02 -0.21452969648E+02  0.59301976627E+02  0.50000059454E+02 0.  0.
        -12    1    1    2    0    0 -0.41329996087E+01  0.23225134963E+02  0.21452969648E+02  0.31886023373E+02  0.00000000000E+00 0.  1.
         11    1    3    3    0    0  0.19805295185E+02 -0.20910106683E+02 -0.11037895950E+02  0.30843434085E+02  0.51100000000E-03 0. -1.
        -11    1    3    3    0    0 -0.61502908366E+01  0.79427138117E+01 -0.10404342621E+02  0.14462473015E+02  0.51100000000E-03 0.  1.
        -12    1    3    3    0    0 -0.95220047399E+01 -0.10257742091E+02 -0.10731077391E-01  0.13996069528E+02  0.00000000000E+00 0.  1.
</event>
<event>
 7    1  0.1101380E-011  0.5930197E+02  0.7816164E-02  0.1266605E+00
        -11   -1    0    0    0    0  0.00000000000E+00  0.00000000000E+00  0.45593999997E+02  0.45594000000E+02  0.51100000000E-03 0.  1.
         11   -1    0    0    0    0 -0.00000000000E+00 -0.00000000000E+00 -0.45593999997E+02  0.45594000000E+02  0.51100000000E-03 0. -1.
    9900012    2    1    2    0    0 -0.24580033171E+02 -0.18300637809E+02 -0.88106447786E+01  0.59301971142E+02  0.50000049450E+02 0.  0.
        -12    1    1    2    0    0  0.24580033171E+02  0.18300637809E+02  0.88106447786E+01  0.31886028858E+02  0.00000000000E+00 0.  1.
         11    1    3    3    0    0 -0.17086235396E+02 -0.19706807865E+02 -0.11566746863E+02  0.28532215993E+02  0.51100000000E-03 0. -1.
        -11    1    3    3    0    0 -0.13762664112E+02 -0.10229733507E+02  0.36139084208E+01  0.17524802578E+02  0.51100000000E-03 0.  1.
         12    1    3    3    0    0  0.62688663368E+01  0.11635903563E+02 -0.85780633664E+00  0.13244952570E+02  0.00000000000E+00 0. -1.
</event>
<event>
 7    1  0.1101380E-011  0.5930198E+02  0.7816164E-02  0.1266605E+00
        -11   -1    0    0    0    0  0.00000000000E+00  0.00000000000E+00  0.45593999997E+02  0.45594000000E+02  0.51100000000E-03 0. -1.
         11   -1    0    0    0    0 -0.00000000000E+00 -0.00000000000E+00 -0.45593999997E+02  0.45594000000E+02  0.51100000000E-03 0.  1.
    9900012    2    1    2    0    0 -0.26234233687E+01  0.27122486566E+02  0.16559186939E+02  0.59301979556E+02  0.50000064795E+02 0.  0.
        -12    1    1    2    0    0  0.26234233687E+01 -0.27122486566E+02 -0.16559186939E+02  0.31886020444E+02  0.00000000000E+00 0.  1.
         11    1    3    3    0    0 -0.21006761369E+02  0.20827582075E+02  0.20444498317E+01  0.29652183287E+02  0.51100000000E-03 0. -1.
        -11    1    3    3    0    0  0.11760086016E+02 -0.10054170187E+01 -0.35652180676E+00  0.11808369682E+02  0.51100000000E-03 0.  1.
        -12    1    3    3    0    0  0.66232519840E+01  0.73003215092E+01  0.14871258914E+02  0.17841426587E+02  0.00000000000E+00 0.  1.
</event>
<event>
 7    1  0.1101380E-011  0.5930218E+02  0.7816164E-02  0.1266604E+00
        -11   -1    0    0    0    0  0.00000000000E+00  0.00000000000E+00  0.45593999997E+02  0.45594000000E+02  0.51100000000E-03 0. -1.
         11   -1    0    0    0    0 -0.00000000000E+00 -0.00000000000E+00 -0.45593999997E+02  0.45594000000E+02  0.51100000000E-03 0.  1.
    9900012    2    1    2    0    0  0.10874028725E+02  0.19374576294E+02  0.22871087619E+02  0.59302182524E+02  0.50000434958E+02 0.  0.
        -12    1    1    2    0    0 -0.10874028725E+02 -0.19374576294E+02 -0.22871087619E+02  0.31885817476E+02  0.00000000000E+00 0.  1.
         11    1    3    3    0    0  0.95916310603E+01  0.10014756068E+02  0.57279957333E+01  0.15003488291E+02  0.51100000000E-03 0. -1.
        -11    1    3    3    0    0  0.20048636581E+02  0.41007559650E+01  0.13379418616E+02  0.24449394083E+02  0.51100000000E-03 0.  1.
        -12    1    3    3    0    0 -0.18766238917E+02  0.52590642604E+01  0.37636732692E+01  0.19849300150E+02  0.00000000000E+00 0.  1.
</event>
<event>
 7    1  0.1101380E-011  0.5930197E+02  0.7816164E-02  0.1266605E+00
        -11   -1    0    0    0    0  0.00000000000E+00  0.00000000000E+00  0.45593999997E+02  0.45594000000E+02  0.51100000000E-03 0.  1.
         11   -1    0    0    0    0 -0.00000000000E+00 -0.00000000000E+00 -0.45593999997E+02  0.45594000000E+02  0.51100000000E-03 0. -1.
    9900012    2    1    2    0    0 -0.27237575743E+02 -0.27188858087E+00 -0.16575876253E+02  0.59301966548E+02  0.50000041071E+02 0.  0.
        -12    1    1    2    0    0  0.27237575743E+02  0.27188858087E+00  0.16575876253E+02  0.31886033452E+02  0.00000000000E+00 0.  1.
         11    1    3    3    0    0 -0.15615301661E+01 -0.65562342955E+01  0.71843653522E+01  0.98507710547E+01  0.51100000000E-03 0. -1.
        -11    1    3    3    0    0  0.84788506626E+01 -0.54179582007E+00 -0.38036616362E+01  0.93087213608E+01  0.51100000000E-03 0.  1.
         12    1    3    3    0    0 -0.34154896240E+02  0.68261415348E+01 -0.19956579969E+02  0.40142474132E+02  0.00000000000E+00 0. -1.
</event>
<event>
 7    1  0.1101380E-011  0.5930195E+02  0.7816164E-02  0.1266605E+00
        -11   -1    0    0    0    0  0.00000000000E+00  0.00000000000E+00  0.45593999997E+02  0.45594000000E+02  0.51100000000E-03 0.  1.
         11   -1    0    0    0    0 -0.00000000000E+00 -0.00000000000E+00 -0.45593999997E+02  0.45594000000E+02  0.51100000000E-03 0. -1.
    9900012    2    1    2    0    0 -0.91046202018E+00  0.29166098005E+02 -0.12854189100E+02  0.59301946759E+02  0.50000004980E+02 0.  0.
        -12    1    1    2    0    0  0.91046202018E+00 -0.29166098005E+02  0.12854189100E+02  0.31886053241E+02  0.00000000000E+00 0.  1.
         11    1    3    3    0    0  0.12983678391E+02  0.77578160492E+01 -0.10192206120E+02  0.18238439634E+02  0.51100000000E-03 0. -1.
        -11    1    3    3    0    0  0.56899009901E+01  0.35626003280E+01 -0.11344347690E+02  0.13181855679E+02  0.51100000000E-03 0.  1.
         12    1    3    3    0    0 -0.19584041402E+02  0.17845681627E+02  0.86823647104E+01  0.27881651446E+02  0.00000000000E+00 0. -1.
</event>
<event>
 7    1  0.1101380E-011  0.5930193E+02  0.7816164E-02  0.1266605E+00
        -11   -1    0    0    0    0  0.00000000000E+00  0.00000000000E+00  0.45593999997E+02  0.45594000000E+02  0.51100000000E-03 0.  1.
         11   -1    0    0    0    0 -0.00000000000E+00 -0.00000000000E+00 -0.45593999997E+02  0.45594000000E+02  0.51100000000E-03 0. -1.
    9900012    2    1    2    0    0 -0.11007565193E+02 -0.14194865417E+02 -0.26345034381E+02  0.59301928868E+02  0.49999972352E+02 0.  0.
        -12    1    1    2    0    0  0.11007565193E+02  0.14194865417E+02  0.26345034381E+02  0.31886071132E+02  0.00000000000E+00 0.  1.
         11    1    3    3    0    0  0.77506652205E+01  0.80881269511E+01 -0.19516731378E+02  0.22503186727E+02  0.51100000000E-03 0. -1.
        -11    1    3    3    0    0 -0.22332644284E+02 -0.18023325488E+02 -0.10007919535E+02  0.30393185355E+02  0.51100000000E-03 0.  1.
         12    1    3    3    0    0  0.35744138702E+01 -0.42596668797E+01  0.31796165320E+01  0.64055567854E+01  0.00000000000E+00 0. -1.
</event>
<event>
 7    1  0.1101380E-011  0.5930193E+02  0.7816164E-02  0.1266605E+00
        -11   -1    0    0    0    0  0.00000000000E+00  0.00000000000E+00  0.45593999997E+02  0.45594000000E+02  0.51100000000E-03 0.  1.
         11   -1    0    0    0    0 -0.00000000000E+00 -0.00000000000E+00 -0.45593999997E+02  0.45594000000E+02  0.51100000000E-03 0. -1.
    9900012    2    1    2    0    0 -0.58020459613E+00 -0.60131912083E+01 -0.31308561954E+02  0.59301934744E+02  0.49999983068E+02 0.  0.
        -12    1    1    2    0    0  0.58020459613E+00  0.60131912083E+01  0.31308561954E+02  0.31886065256E+02  0.00000000000E+00 0.  1.
         11    1    3    3    0    0 -0.10250198169E+02 -0.45160631309E+01 -0.31459886351E+01  0.11634372929E+02  0.51100000000E-03 0. -1.
        -11    1    3    3    0    0  0.74757333006E+01 -0.18199369041E+02 -0.76149211858E+01  0.21097171536E+02  0.51100000000E-03 0.  1.
         12    1    3    3    0    0  0.21942602719E+01  0.16702240964E+02 -0.20547652134E+02  0.26570390279E+02  0.00000000000E+00 0. -1.
</event>
<event>
 7    1  0.1101380E-011  0.5930194E+02  0.7816164E-02  0.1266605E+00
        -11   -1    0    0    0    0  0.00000000000E+00  0.00000000000E+00  0.45593999997E+02  0.45594000000E+02  0.51100000000E-03 0. -1.
         11   -1    0    0    0    0 -0.00000000000E+00 -0.00000000000E+00 -0.45593999997E+02  0.45594000000E+02  0.51100000000E-03 0.  1.
    9900012    2    1    2    0    0  0.31674321239E+02 -0.24304000472E+01  0.27479252810E+01  0.59301944056E+02  0.50000000051E+02 0.  0.
        -12    1    1    2    0    0 -0.31674321239E+02  0.24304000472E+01 -0.27479252810E+01  0.31886055944E+02  0.00000000000E+00 0.  1.
         11    1    3    3    0    0  0.10051480153E+00 -0.15642222435E+01  0.10947922531E+02  0.11059561585E+02  0.51100000000E-03 0. -1.
        -11    1    3    3    0    0  0.58925990382E+01  0.15284540864E+02 -0.71857169351E+01  0.17887829410E+02  0.51100000000E-03 0.  1.
         12    1    3    3    0    0  0.25681207399E+02 -0.16150718668E+02 -0.10142803145E+01  0.30354553061E+02  0.00000000000E+00 0. -1.
</event>
<event>
 7    1  0.1101380E-011  0.5930188E+02  0.7816164E-02  0.1266605E+00
        -11   -1    0    0    0    0  0.00000000000E+00  0.00000000000E+00  0.45593999997E+02  0.45594000000E+02  0.51100000000E-03 0.  1.
         11   -1    0    0    0    0 -0.00000000000E+00 -0.00000000000E+00 -0.45593999997E+02  0.45594000000E+02  0.51100000000E-03 0. -1.
    9900012    2    1    2    0    0  0.60664794729E+01  0.81394889516E+01 -0.30226992287E+02  0.59301882075E+02  0.49999887013E+02 0.  0.
        -12    1    1    2    0    0 -0.60664794729E+01 -0.81394889516E+01  0.30226992287E+02  0.31886117925E+02  0.00000000000E+00 0.  1.
         11    1    3    3    0    0 -0.23472499707E+01  0.17064021668E+02 -0.51788217411E+01  0.17986400774E+02  0.51100000000E-03 0. -1.
        -11    1    3    3    0    0  0.36588603871E+01  0.76033815964E+01  0.25344833049E+01  0.88103505558E+01  0.51100000000E-03 0.  1.
        -12    1    3    3    0    0  0.47548690565E+01 -0.16527914313E+02 -0.27582653851E+02  0.32505130745E+02  0.00000000000E+00 0.  1.
</event>
<event>
 7    1  0.1101380E-011  0.5930193E+02  0.7816164E-02  0.1266605E+00
        -11   -1    0    0    0    0  0.00000000000E+00  0.00000000000E+00  0.45593999997E+02  0.45594000000E+02  0.51100000000E-03 0.  1.
         11   -1    0    0    0    0 -0.00000000000E+00 -0.00000000000E+00 -0.45593999997E+02  0.45594000000E+02  0.51100000000E-03 0. -1.
    9900012    2    1    2    0    0 -0.12382577213E+02  0.36446114605E+01 -0.29156652185E+02  0.59301925018E+02  0.49999965331E+02 0.  0.
        -12    1    1    2    0    0  0.12382577213E+02 -0.36446114605E+01  0.29156652185E+02  0.31886074982E+02  0.00000000000E+00 0.  1.
         11    1    3    3    0    0 -0.65632181584E+01 -0.98533139016E+01  0.99666838960E+00  0.11880950113E+02  0.51100000000E-03 0. -1.
        -11    1    3    3    0    0  0.13853788819E+02  0.36284393003E+01 -0.14735243815E+02  0.20548003478E+02  0.51100000000E-03 0.  1.
        -12    1    3    3    0    0 -0.19673147873E+02  0.98694860618E+01 -0.15418076759E+02  0.26872971427E+02  0.00000000000E+00 0.  1.
</event>
<event>
 7    1  0.1101380E-011  0.5930194E+02  0.7816164E-02  0.1266605E+00
        -11   -1    0    0    0    0  0.00000000000E+00  0.00000000000E+00  0.45593999997E+02  0.45594000000E+02  0.51100000000E-03 0.  1.
         11   -1    0    0    0    0 -0.00000000000E+00 -0.00000000000E+00 -0.45593999997E+02  0.45594000000E+02  0.51100000000E-03 0. -1.
    9900012    2    1    2    0    0 -0.14664423006E+02 -0.19585602016E+02 -0.20447005011E+02  0.59301935296E+02  0.49999984075E+02 0.  0.
        -12    1    1    2    0    0  0.14664423006E+02  0.19585602016E+02  0.20447005011E+02  0.31886064704E+02  0.00000000000E+00 0.  1.
         11    1    3    3    0    0  0.92418184289E+00  0.13118190605E+02  0.26685924869E+01  0.13418734030E+02  0.51100000000E-03 0.  1.
        -11    1    3    3    0    0 -0.10386604528E+02 -0.11686572978E+02 -0.17596912651E+02  0.23539517342E+02  0.51100000000E-03 0. -1.
        -12    1    3    3    0    0 -0.52020003205E+01 -0.21017219643E+02 -0.55186848468E+01  0.22343683924E+02  0.00000000000E+00 0.  1.
</event>
<event>
 7    1  0.1101380E-011  0.5930202E+02  0.7816164E-02  0.1266605E+00
        -11   -1    0    0    0    0  0.00000000000E+00  0.00000000000E+00  0.45593999997E+02  0.45594000000E+02  0.51100000000E-03 0. -1.
         11   -1    0    0    0    0 -0.00000000000E+00 -0.00000000000E+00 -0.45593999997E+02  0.45594000000E+02  0.51100000000E-03 0.  1.
    9900012    2    1    2    0    0  0.19354742689E+02  0.13874135156E+02  0.21204204656E+02  0.59302015838E+02  0.50000130964E+02 0.  0.
        -12    1    1    2    0    0 -0.19354742689E+02 -0.13874135156E+02 -0.21204204656E+02  0.31885984162E+02  0.00000000000E+00 0.  1.
         11    1    3    3    0    0  0.11218288214E+02  0.18408234040E+02  0.12375276446E+01  0.21592696586E+02  0.51100000000E-03 0. -1.
        -11    1    3    3    0    0 -0.46975433002E+01 -0.13381693426E+01 -0.64948781987E+01  0.81265646693E+01  0.51100000000E-03 0.  1.
         12    1    3    3    0    0  0.12833997775E+02 -0.31959295411E+01  0.26461555210E+02  0.29582754582E+02  0.00000000000E+00 0. -1.
</event>
<event>
 7    1  0.1101380E-011  0.5930210E+02  0.7816164E-02  0.1266604E+00
        -11   -1    0    0    0    0  0.00000000000E+00  0.00000000000E+00  0.45593999997E+02  0.45594000000E+02  0.51100000000E-03 0.  1.
         11   -1    0    0    0    0 -0.00000000000E+00 -0.00000000000E+00 -0.45593999997E+02  0.45594000000E+02  0.51100000000E-03 0. -1.
    9900012    2    1    2    0    0  0.14664085232E+02  0.28187757078E+02 -0.26693455845E+01  0.59302102638E+02  0.50000289266E+02 0.  0.
        -12    1    1    2    0    0 -0.14664085232E+02 -0.28187757078E+02  0.26693455845E+01  0.31885897362E+02  0.00000000000E+00 0.  1.
         11    1    3    3    0    0 -0.33453928862E+01 -0.12055673248E+01 -0.42270031984E+01  0.55238213618E+01  0.51100000000E-03 0. -1.
        -11    1    3    3    0    0  0.82785266106E+01 -0.10112412011E+02  0.29840637326E+00  0.13072257882E+02  0.51100000000E-03 0.  1.
         12    1    3    3    0    0  0.97309515072E+01  0.39505736414E+02  0.12592512406E+01  0.40706023393E+02  0.00000000000E+00 0. -1.
</event>
<event>
 7    1  0.1101380E-011  0.5930201E+02  0.7816164E-02  0.1266605E+00
        -11   -1    0    0    0    0  0.00000000000E+00  0.00000000000E+00  0.45593999997E+02  0.45594000000E+02  0.51100000000E-03 0.  1.
         11   -1    0    0    0    0 -0.00000000000E+00 -0.00000000000E+00 -0.45593999997E+02  0.45594000000E+02  0.51100000000E-03 0. -1.
    9900012    2    1    2    0    0 -0.21015868111E+02  0.18538580044E+02 -0.15210879656E+02  0.59302007426E+02  0.50000115624E+02 0.  0.
        -12    1    1    2    0    0  0.21015868111E+02 -0.18538580044E+02  0.15210879656E+02  0.31885992574E+02  0.00000000000E+00 0.  1.
         11    1    3    3    0    0 -0.26057413104E+01  0.47468731927E+01 -0.88752127230E+01  0.10396734777E+02  0.51100000000E-03 0. -1.
        -11    1    3    3    0    0 -0.13488199109E+02 -0.86842858728E+01 -0.17148729794E+02  0.23482488585E+02  0.51100000000E-03 0.  1.
        -12    1    3    3    0    0 -0.49219276914E+01  0.22475992724E+02  0.10813062861E+02  0.25422784064E+02  0.00000000000E+00 0.  1.
</event>
<event>
 7    1  0.1101380E-011  0.5930194E+02  0.7816164E-02  0.1266605E+00
        -11   -1    0    0    0    0  0.00000000000E+00  0.00000000000E+00  0.45593999997E+02  0.45594000000E+02  0.51100000000E-03 0.  1.
         11   -1    0    0    0    0 -0.00000000000E+00 -0.00000000000E+00 -0.45593999997E+02  0.45594000000E+02  0.51100000000E-03 0. -1.
    9900012    2    1    2    0    0  0.17899735961E+02  0.22972737278E+02 -0.12983591075E+02  0.59301939680E+02  0.49999992072E+02 0.  0.
        -12    1    1    2    0    0 -0.17899735961E+02 -0.22972737278E+02  0.12983591075E+02  0.31886060320E+02  0.00000000000E+00 0.  1.
         11    1    3    3    0    0  0.57723877091E+01  0.22223136856E+02 -0.18714407583E+01  0.23036722040E+02  0.51100000000E-03 0. -1.
        -11    1    3    3    0    0  0.17896295632E+02  0.10202322122E+02 -0.32443131040E-01  0.20600141428E+02  0.51100000000E-03 0.  1.
        -12    1    3    3    0    0 -0.57689473807E+01 -0.94527216999E+01 -0.11079707186E+02  0.15665076212E+02  0.00000000000E+00 0.  1.
</event>
<event>
 7    1  0.1101380E-011  0.5930193E+02  0.7816164E-02  0.1266605E+00
        -11   -1    0    0    0    0  0.00000000000E+00  0.00000000000E+00  0.45593999997E+02  0.45594000000E+02  0.51100000000E-03 0. -1.
         11   -1    0    0    0    0 -0.00000000000E+00 -0.00000000000E+00 -0.45593999997E+02  0.45594000000E+02  0.51100000000E-03 0.  1.
    9900012    2    1    2    0    0 -0.25509000476E+02  0.10658994302E+02  0.15887039838E+02  0.59301932516E+02  0.49999979005E+02 0.  0.
        -12    1    1    2    0    0  0.25509000476E+02 -0.10658994302E+02 -0.15887039838E+02  0.31886067484E+02  0.00000000000E+00 0.  1.
         11    1    3    3    0    0 -0.12699378338E+02  0.49917701714E+01 -0.10662912240E+02  0.17317323041E+02  0.51100000000E-03 0. -1.
        -11    1    3    3    0    0  0.91053408332E+01 -0.35578351248E-01  0.37416892700E+01  0.98442235023E+01  0.51100000000E-03 0.  1.
         12    1    3    3    0    0 -0.21914962971E+02  0.57028024821E+01  0.22808262808E+02  0.32140385973E+02  0.00000000000E+00 0. -1.
</event>
<event>
 7    1  0.1101380E-011  0.5930199E+02  0.7816164E-02  0.1266605E+00
        -11   -1    0    0    0    0  0.00000000000E+00  0.00000000000E+00  0.45593999997E+02  0.45594000000E+02  0.51100000000E-03 0.  1.
         11   -1    0    0    0    0 -0.00000000000E+00 -0.00000000000E+00 -0.45593999997E+02  0.45594000000E+02  0.51100000000E-03 0. -1.
    9900012    2    1    2    0    0 -0.55498598353E+01 -0.25838651020E+02  0.17840423071E+02  0.59301991688E+02  0.50000086921E+02 0.  0.
        -12    1    1    2    0    0  0.55498598353E+01  0.25838651020E+02 -0.17840423071E+02  0.31886008312E+02  0.00000000000E+00 0.  1.
         11    1    3    3    0    0 -0.13771096727E+02 -0.11851914927E+02  0.39265584878E+00  0.18173199261E+02  0.51100000000E-03 0.  1.
        -11    1    3    3    0    0 -0.69329801443E+01  0.33497398568E+01  0.16354837885E+02  0.18076716883E+02  0.51100000000E-03 0. -1.
         12    1    3    3    0    0  0.15154217036E+02 -0.17336475950E+02  0.10929293372E+01  0.23052075544E+02  0.00000000000E+00 0. -1.
</event>
<event>
 7    1  0.1101380E-011  0.5930186E+02  0.7816164E-02  0.1266605E+00
        -11   -1    0    0    0    0  0.00000000000E+00  0.00000000000E+00  0.45593999997E+02  0.45594000000E+02  0.51100000000E-03 0. -1.
         11   -1    0    0    0    0 -0.00000000000E+00 -0.00000000000E+00 -0.45593999997E+02  0.45594000000E+02  0.51100000000E-03 0.  1.
    9900012    2    1    2    0    0  0.23212212959E+02  0.29254053509E+01  0.21664743257E+02  0.59301859949E+02  0.49999846661E+02 0.  0.
        -12    1    1    2    0    0 -0.23212212959E+02 -0.29254053509E+01 -0.21664743257E+02  0.31886140051E+02  0.00000000000E+00 0.  1.
         11    1    3    3    0    0 -0.71119899911E+00 -0.13677483360E+02  0.11443977690E+02  0.17847800445E+02  0.51100000000E-03 0. -1.
        -11    1    3    3    0    0  0.27427956663E+01 -0.24090003512E+01 -0.72081683095E+01  0.80798453821E+01  0.51100000000E-03 0.  1.
         12    1    3    3    0    0  0.21180616292E+02  0.19011889062E+02  0.17428933876E+02  0.33374214122E+02  0.00000000000E+00 0. -1.
</event>
<event>
 7    1  0.1101380E-011  0.5930191E+02  0.7816164E-02  0.1266605E+00
        -11   -1    0    0    0    0  0.00000000000E+00  0.00000000000E+00  0.45593999997E+02  0.45594000000E+02  0.51100000000E-03 0.  1.
         11   -1    0    0    0    0 -0.00000000000E+00 -0.00000000000E+00 -0.45593999997E+02  0.45594000000E+02  0.51100000000E-03 0. -1.
    9900012    2    1    2    0    0 -0.16117217883E+02  0.99965920871E+01 -0.25632522008E+02  0.59301909770E+02  0.49999937522E+02 0.  0.
        -12    1    1    2    0    0  0.16117217883E+02 -0.99965920871E+01  0.25632522008E+02  0.31886090230E+02  0.00000000000E+00 0.  1.
         11    1    3    3    0    0 -0.15239465780E+01  0.16387517622E+02 -0.28775048930E+02  0.33149307507E+02  0.51100000000E-03 0. -1.
        -11    1    3    3    0    0  0.10836872655E+01  0.30732437342E+01  0.67435831116E+01  0.74896674548E+01  0.51100000000E-03 0.  1.
        -12    1    3    3    0    0 -0.15676958571E+02 -0.94641692696E+01 -0.36010561898E+01  0.18662934809E+02  0.00000000000E+00 0.  1.
</event>
<event>
 7    1  0.1101380E-011  0.5930194E+02  0.7816164E-02  0.1266605E+00
        -11   -1    0    0    0    0  0.00000000000E+00  0.00000000000E+00  0.45593999997E+02  0.45594000000E+02  0.51100000000E-03 0. -1.
         11   -1    0    0    0    0 -0.00000000000E+00 -0.00000000000E+00 -0.45593999997E+02  0.45594000000E+02  0.51100000000E-03 0.  1.
    9900012    2    1    2    0    0 -0.34968379845E+00  0.21796031084E+02  0.23270837375E+02  0.59301935302E+02  0.49999984087E+02 0.  0.
        -12    1    1    2    0    0  0.34968379845E+00 -0.21796031084E+02 -0.23270837375E+02  0.31886064698E+02  0.00000000000E+00 0.  1.
         11    1    3    3    0    0  0.12611269113E+02 -0.45434739319E+00 -0.62851855062E+01  0.14098017496E+02  0.51100000000E-03 0. -1.
        -11    1    3    3    0    0  0.20070514122E+01 -0.36913511212E+01  0.28576634994E+01  0.50813944354E+01  0.51100000000E-03 0.  1.
        -12    1    3    3    0    0 -0.14968004324E+02  0.25941729599E+02  0.26698359382E+02  0.40122523371E+02  0.00000000000E+00 0.  1.
</event>
<event>
 7    1  0.1101380E-011  0.5930193E+02  0.7816164E-02  0.1266605E+00
        -11   -1    0    0    0    0  0.00000000000E+00  0.00000000000E+00  0.45593999997E+02  0.45594000000E+02  0.51100000000E-03 0.  1.
         11   -1    0    0    0    0 -0.00000000000E+00 -0.00000000000E+00 -0.45593999997E+02  0.45594000000E+02  0.51100000000E-03 0. -1.
    9900012    2    1    2    0    0  0.30535899616E+02  0.84066109831E+01  0.36890564928E+01  0.59301930763E+02  0.49999975808E+02 0.  0.
        -12    1    1    2    0    0 -0.30535899616E+02 -0.84066109831E+01 -0.36890564928E+01  0.31886069237E+02  0.00000000000E+00 0.  1.
         11    1    3    3    0    0  0.81285999919E+01  0.11357517280E+02 -0.20532100440E+01  0.14116763381E+02  0.51100000000E-03 0. -1.
        -11    1    3    3    0    0 -0.62032914196E+01  0.10705993175E+02  0.53483823005E+01  0.13479774026E+02  0.51100000000E-03 0.  1.
        -12    1    3    3    0    0  0.28610591044E+02 -0.13656899472E+02  0.39388423631E+00  0.31705393356E+02  0.00000000000E+00 0.  1.
</event>
<event>
 7    1  0.1101380E-011  0.5930192E+02  0.7816164E-02  0.1266605E+00
        -11   -1    0    0    0    0  0.00000000000E+00  0.00000000000E+00  0.45593999997E+02  0.45594000000E+02  0.51100000000E-03 0.  1.
         11   -1    0    0    0    0 -0.00000000000E+00 -0.00000000000E+00 -0.45593999997E+02  0.45594000000E+02  0.51100000000E-03 0. -1.
    9900012    2    1    2    0    0 -0.18312046047E+02  0.34438057765E+01 -0.25875307700E+02  0.59301915618E+02  0.49999948187E+02 0.  0.
        -12    1    1    2    0    0  0.18312046047E+02 -0.34438057765E+01  0.25875307700E+02  0.31886084382E+02  0.00000000000E+00 0.  1.
         11    1    3    3    0    0  0.10620215862E+02  0.13403971832E+02  0.50733634952E-01  0.17101404035E+02  0.51100000000E-03 0.  1.
        -11    1    3    3    0    0 -0.49208124215E+01 -0.13296939752E+01 -0.12212006817E+02  0.13233124791E+02  0.51100000000E-03 0. -1.
        -12    1    3    3    0    0 -0.24011449487E+02 -0.86304720802E+01 -0.13714034518E+02  0.28967386792E+02  0.00000000000E+00 0.  1.
</event>
<event>
 7    1  0.1101380E-011  0.5930187E+02  0.7816164E-02  0.1266605E+00
        -11   -1    0    0    0    0  0.00000000000E+00  0.00000000000E+00  0.45593999997E+02  0.45594000000E+02  0.51100000000E-03 0.  1.
         11   -1    0    0    0    0 -0.00000000000E+00 -0.00000000000E+00 -0.45593999997E+02  0.45594000000E+02  0.51100000000E-03 0. -1.
    9900012    2    1    2    0    0 -0.12578993738E+00 -0.31527799055E+02  0.47652480851E+01  0.59301866247E+02  0.49999858147E+02 0.  0.
        -12    1    1    2    0    0  0.12578993738E+00  0.31527799055E+02 -0.47652480851E+01  0.31886133753E+02  0.00000000000E+00 0.  1.
         11    1    3    3    0    0 -0.14989563559E+01 -0.20285541967E+01  0.16010960028E+02  0.16208415825E+02  0.51100000000E-03 0. -1.
        -11    1    3    3    0    0 -0.16671117163E+00  0.53144303938E+01  0.21831626596E+01  0.57477963155E+01  0.51100000000E-03 0.  1.
         12    1    3    3    0    0  0.15398775901E+01 -0.34813675253E+02 -0.13428874602E+02  0.37345654107E+02  0.00000000000E+00 0. -1.
</event>
<event>
 7    1  0.1101380E-011  0.5930197E+02  0.7816164E-02  0.1266605E+00
        -11   -1    0    0    0    0  0.00000000000E+00  0.00000000000E+00  0.45593999997E+02  0.45594000000E+02  0.51100000000E-03 0.  1.
         11   -1    0    0    0    0 -0.00000000000E+00 -0.00000000000E+00 -0.45593999997E+02  0.45594000000E+02  0.51100000000E-03 0. -1.
    9900012    2    1    2    0    0  0.27242001880E+02  0.92708637581E+01 -0.13734752712E+02  0.59301968367E+02  0.50000044388E+02 0.  0.
        -12    1    1    2    0    0 -0.27242001880E+02 -0.92708637581E+01  0.13734752712E+02  0.31886031633E+02  0.00000000000E+00 0.  1.
         11    1    3    3    0    0  0.14702766963E+02  0.18317763519E+02  0.10741528487E+02  0.25828129069E+02  0.51100000000E-03 0.  1.
        -11    1    3    3    0    0  0.14110612266E+02 -0.13637727196E+01 -0.11251742273E+02  0.18098921487E+02  0.51100000000E-03 0. -1.
        -12    1    3    3    0    0 -0.15713773486E+01 -0.76831270410E+01 -0.13224538926E+02  0.15374917811E+02  0.00000000000E+00 0.  1.
</event>
<event>
 7    1  0.1101380E-011  0.5930194E+02  0.7816164E-02  0.1266605E+00
        -11   -1    0    0    0    0  0.00000000000E+00  0.00000000000E+00  0.45593999997E+02  0.45594000000E+02  0.51100000000E-03 0. -1.
         11   -1    0    0    0    0 -0.00000000000E+00 -0.00000000000E+00 -0.45593999997E+02  0.45594000000E+02  0.51100000000E-03 0.  1.
    9900012    2    1    2    0    0  0.50205852456E+01 -0.28478601531E+02 -0.13434418131E+02  0.59301943299E+02  0.49999998672E+02 0.  0.
        -12    1    1    2    0    0 -0.50205852456E+01  0.28478601531E+02  0.13434418131E+02  0.31886056701E+02  0.00000000000E+00 0.  1.
         11    1    3    3    0    0 -0.56836340149E+01  0.46234860654E+01  0.69482682693E+00  0.73595586547E+01  0.51100000000E-03 0. -1.
        -11    1    3    3    0    0 -0.31594547654E+01 -0.14978669506E+02 -0.22859088512E+02  0.27511463473E+02  0.51100000000E-03 0.  1.
        -12    1    3    3    0    0  0.13863674026E+02 -0.18123418091E+02  0.87298435543E+01  0.24430921171E+02  0.00000000000E+00 0.  1.
</event>
<event>
 7    1  0.1101380E-011  0.5930194E+02  0.7816164E-02  0.1266605E+00
        -11   -1    0    0    0    0  0.00000000000E+00  0.00000000000E+00  0.45593999997E+02  0.45594000000E+02  0.51100000000E-03 0.  1.
         11   -1    0    0    0    0 -0.00000000000E+00 -0.00000000000E+00 -0.45593999997E+02  0.45594000000E+02  0.51100000000E-03 0. -1.
    9900012    2    1    2    0    0  0.73734789866E+01  0.14041182126E+02 -0.27662208208E+02  0.59301941121E+02  0.49999994699E+02 0.  0.
        -12    1    1    2    0    0 -0.73734789866E+01 -0.14041182126E+02  0.27662208208E+02  0.31886058879E+02  0.00000000000E+00 0.  1.
         11    1    3    3    0    0 -0.18794655078E+01  0.13415824785E+02 -0.21561162560E-01  0.13546852416E+02  0.51100000000E-03 0.  1.
        -11    1    3    3    0    0 -0.61583268660E+01  0.12663826098E+02 -0.20635482165E+02  0.24982405923E+02  0.51100000000E-03 0. -1.
         12    1    3    3    0    0  0.15411271360E+02 -0.12038468756E+02 -0.70051648806E+01  0.20772682782E+02  0.00000000000E+00 0. -1.
</event>
<event>
 7    1  0.1101380E-011  0.5930191E+02  0.7816164E-02  0.1266605E+00
        -11   -1    0    0    0    0  0.00000000000E+00  0.00000000000E+00  0.45593999997E+02  0.45594000000E+02  0.51100000000E-03 0. -1.
         11   -1    0    0    0    0 -0.00000000000E+00 -0.00000000000E+00 -0.45593999997E+02  0.45594000000E+02  0.51100000000E-03 0.  1.
    9900012    2    1    2    0    0  0.35909590829E+00  0.17422675615E+02  0.26702892666E+02  0.59301905034E+02  0.49999928884E+02 0.  0.
        -12    1    1    2    0    0 -0.35909590829E+00 -0.17422675615E+02 -0.26702892666E+02  0.31886094966E+02  0.00000000000E+00 0.  1.
         11    1    3    3    0    0  0.34797164150E+00 -0.28303672289E+01 -0.35705162096E+01  0.45695348973E+01  0.51100000000E-03 0. -1.
        -11    1    3    3    0    0  0.53922858416E+01  0.12056933201E+02 -0.78525682801E+01  0.15365845686E+02  0.51100000000E-03 0.  1.
         12    1    3    3    0    0 -0.53811615748E+01  0.81961096435E+01  0.38125977156E+02  0.39366524450E+02  0.00000000000E+00 0. -1.
</event>
<event>
 7    1  0.1101380E-011  0.5930194E+02  0.7816164E-02  0.1266605E+00
        -11   -1    0    0    0    0  0.00000000000E+00  0.00000000000E+00  0.45593999997E+02  0.45594000000E+02  0.51100000000E-03 0.  1.
         11   -1    0    0    0    0 -0.00000000000E+00 -0.00000000000E+00 -0.45593999997E+02  0.45594000000E+02  0.51100000000E-03 0. -1.
    9900012    2    1    2    0    0 -0.17883691564E+02 -0.17092246799E+02 -0.20118383045E+02  0.59301942531E+02  0.49999997270E+02 0.  0.
        -12    1    1    2    0    0  0.17883691564E+02  0.17092246799E+02  0.20118383045E+02  0.31886057469E+02  0.00000000000E+00 0.  1.
         11    1    3    3    0    0  0.45877713628E+00 -0.99520355235E+01 -0.21574817385E+01  0.10193537916E+02  0.51100000000E-03 0. -1.
        -11    1    3    3    0    0 -0.17459051859E+02 -0.22186204156E+02 -0.39075382673E+01  0.28501140367E+02  0.51100000000E-03 0.  1.
        -12    1    3    3    0    0 -0.88341684044E+00  0.15045992880E+02 -0.14053363039E+02  0.20607264248E+02  0.00000000000E+00 0.  1.
</event>
<event>
 7    1  0.1101380E-011  0.5930195E+02  0.7816164E-02  0.1266605E+00
        -11   -1    0    0    0    0  0.00000000000E+00  0.00000000000E+00  0.45593999997E+02  0.45594000000E+02  0.51100000000E-03 0. -1.
         11   -1    0    0    0    0 -0.00000000000E+00 -0.00000000000E+00 -0.45593999997E+02  0.45594000000E+02  0.51100000000E-03 0.  1.
    9900012    2    1    2    0    0  0.28186963841E+02  0.14524255001E+02  0.33557475219E+01  0.59301953595E+02  0.50000017449E+02 0.  0.
        -12    1    1    2    0    0 -0.28186963841E+02 -0.14524255001E+02 -0.33557475219E+01  0.31886046405E+02  0.00000000000E+00 0.  1.
         11    1    3    3    0    0  0.76972618348E+01 -0.36571573864E+01 -0.52716859126E+01  0.10020644317E+02  0.51100000000E-03 0. -1.
        -11    1    3    3    0    0 -0.64419274543E+01 -0.49305060779E+01 -0.67987951610E+01  0.10584513943E+02  0.51100000000E-03 0.  1.
         12    1    3    3    0    0  0.26931629460E+02  0.23111918466E+02  0.15426228596E+02  0.38696795335E+02  0.00000000000E+00 0. -1.
</event>
<event>
 7    1  0.1101380E-011  0.5930192E+02  0.7816164E-02  0.1266605E+00
        -11   -1    0    0    0    0  0.00000000000E+00  0.00000000000E+00  0.45593999997E+02  0.45594000000E+02  0.51100000000E-03 0. -1.
         11   -1    0    0    0    0 -0.00000000000E+00 -0.00000000000E+00 -0.45593999997E+02  0.45594000000E+02  0.51100000000E-03 0.  1.
    9900012    2    1    2    0    0 -0.25114322723E+02 -0.93482122313E+00  0.19624445889E+02  0.59301921957E+02  0.49999959748E+02 0.  0.
        -12    1    1    2    0    0  0.25114322723E+02  0.93482122313E+00 -0.19624445889E+02  0.31886078043E+02  0.00000000000E+00 0.  1.
         11    1    3    3    0    0 -0.22881171530E+02  0.28745334251E+01  0.31129553623E+02  0.38740935224E+02  0.51100000000E-03 0. -1.
        -11    1    3    3    0    0  0.14887586608E+01  0.52529217795E+01 -0.13048645913E-01  0.54598315083E+01  0.51100000000E-03 0.  1.
        -12    1    3    3    0    0 -0.37219098539E+01 -0.90622764276E+01 -0.11492059089E+02  0.15101155224E+02  0.00000000000E+00 0.  1.
</event>
<event>
 7    1  0.1101380E-011  0.5930196E+02  0.7816164E-02  0.1266605E+00
        -11   -1    0    0    0    0  0.00000000000E+00  0.00000000000E+00  0.45593999997E+02  0.45594000000E+02  0.51100000000E-03 0. -1.
         11   -1    0    0    0    0 -0.00000000000E+00 -0.00000000000E+00 -0.45593999997E+02  0.45594000000E+02  0.51100000000E-03 0.  1.
    9900012    2    1    2    0    0 -0.11349612818E+02  0.80843183366E+01  0.28680130553E+02  0.59301955989E+02  0.50000021815E+02 0.  0.
        -12    1    1    2    0    0  0.11349612818E+02 -0.80843183366E+01 -0.28680130553E+02  0.31886044011E+02  0.00000000000E+00 0.  1.
         11    1    3    3    0    0 -0.21036218762E+02  0.94646345731E+01 -0.20379729766E+00  0.23068232291E+02  0.51100000000E-03 0. -1.
        -11    1    3    3    0    0  0.30387114897E+01 -0.54405454877E+01 -0.88601139034E-01  0.62322670951E+01  0.51100000000E-03 0.  1.
        -12    1    3    3    0    0  0.66478944545E+01  0.40602292512E+01  0.28972528990E+02  0.30001456603E+02  0.00000000000E+00 0.  1.
</event>
<event>
 7    1  0.1101380E-011  0.5930197E+02  0.7816164E-02  0.1266605E+00
        -11   -1    0    0    0    0  0.00000000000E+00  0.00000000000E+00  0.45593999997E+02  0.45594000000E+02  0.51100000000E-03 0.  1.
         11   -1    0    0    0    0 -0.00000000000E+00 -0.00000000000E+00 -0.45593999997E+02  0.45594000000E+02  0.51100000000E-03 0. -1.
    9900012    2    1    2    0    0 -0.18596633832E+02 -0.14198762694E+02 -0.21662859253E+02  0.59301966648E+02  0.50000041254E+02 0.  0.
        -12    1    1    2    0    0  0.18596633832E+02  0.14198762694E+02  0.21662859253E+02  0.31886033352E+02  0.00000000000E+00 0.  1.
         11    1    3    3    0    0  0.49037537269E+01 -0.12883526193E+02 -0.13156485944E+02  0.19055843473E+02  0.51100000000E-03 0. -1.
        -11    1    3    3    0    0 -0.90653065759E+01  0.12415701852E+02  0.50127584102E+01  0.16169637687E+02  0.51100000000E-03 0.  1.
         12    1    3    3    0    0 -0.14435080983E+02 -0.13730938353E+02 -0.13519131719E+02  0.24076485488E+02  0.00000000000E+00 0. -1.
</event>
<event>
 7    1  0.1101380E-011  0.5930191E+02  0.7816164E-02  0.1266605E+00
        -11   -1    0    0    0    0  0.00000000000E+00  0.00000000000E+00  0.45593999997E+02  0.45594000000E+02  0.51100000000E-03 0.  1.
         11   -1    0    0    0    0 -0.00000000000E+00 -0.00000000000E+00 -0.45593999997E+02  0.45594000000E+02  0.51100000000E-03 0. -1.
    9900012    2    1    2    0    0  0.20168428439E+02  0.15865163540E+02 -0.18927589385E+02  0.59301912755E+02  0.49999942967E+02 0.  0.
        -12    1    1    2    0    0 -0.20168428439E+02 -0.15865163540E+02  0.18927589385E+02  0.31886087245E+02  0.00000000000E+00 0.  1.
         11    1    3    3    0    0  0.14387595192E+02  0.10312940619E+02 -0.15066033445E+02  0.23245322189E+02  0.51100000000E-03 0. -1.
        -11    1    3    3    0    0 -0.87974668920E+01  0.89653259600E+01 -0.13350433999E+02  0.18330482304E+02  0.51100000000E-03 0.  1.
         12    1    3    3    0    0  0.14578300139E+02 -0.34131030395E+01  0.94888780591E+01  0.17726108262E+02  0.00000000000E+00 0. -1.
</event>
<event>
 7    1  0.1101380E-011  0.5930196E+02  0.7816164E-02  0.1266605E+00
        -11   -1    0    0    0    0  0.00000000000E+00  0.00000000000E+00  0.45593999997E+02  0.45594000000E+02  0.51100000000E-03 0.  1.
         11   -1    0    0    0    0 -0.00000000000E+00 -0.00000000000E+00 -0.45593999997E+02  0.45594000000E+02  0.51100000000E-03 0. -1.
    9900012    2    1    2    0    0  0.16185802399E+02 -0.43280717774E+01 -0.27129457200E+02  0.59301955206E+02  0.50000020387E+02 0.  0.
        -12    1    1    2    0    0 -0.16185802399E+02  0.43280717774E+01  0.27129457200E+02  0.31886044794E+02  0.00000000000E+00 0.  1.
         11    1    3    3    0    0  0.24307873769E+02 -0.11544003792E+02 -0.85743535381E+01  0.28242809520E+02  0.51100000000E-03 0. -1.
        -11    1    3    3    0    0 -0.88516311058E+01 -0.58223138594E+01 -0.35646046113E+01  0.11178421991E+02  0.51100000000E-03 0.  1.
        -12    1    3    3    0    0  0.72955973615E+00  0.13038245874E+02 -0.14990499051E+02  0.19880723696E+02  0.00000000000E+00 0.  1.
</event>
<event>
 7    1  0.1101380E-011  0.5930190E+02  0.7816164E-02  0.1266605E+00
        -11   -1    0    0    0    0  0.00000000000E+00  0.00000000000E+00  0.45593999997E+02  0.45594000000E+02  0.51100000000E-03 0. -1.
         11   -1    0    0    0    0 -0.00000000000E+00 -0.00000000000E+00 -0.45593999997E+02  0.45594000000E+02  0.51100000000E-03 0.  1.
    9900012    2    1    2    0    0 -0.17374278303E+02  0.24764781708E+02 -0.10077862379E+02  0.59301901623E+02  0.49999922664E+02 0.  0.
        -12    1    1    2    0    0  0.17374278303E+02 -0.24764781708E+02  0.10077862379E+02  0.31886098377E+02  0.00000000000E+00 0.  1.
         11    1    3    3    0    0  0.47504256861E+01  0.59566388059E+01 -0.16120216376E+02  0.17830015881E+02  0.51100000000E-03 0. -1.
        -11    1    3    3    0    0 -0.23932003181E+02  0.15284234247E+02 -0.58020124327E+01  0.28982959499E+02  0.51100000000E-03 0.  1.
         12    1    3    3    0    0  0.18072991919E+01  0.35239086555E+01  0.11844366430E+02  0.12488926243E+02  0.00000000000E+00 0. -1.
</event>
<event>
 7    1  0.1101380E-011  0.5930192E+02  0.7816164E-02  0.1266605E+00
        -11   -1    0    0    0    0  0.00000000000E+00  0.00000000000E+00  0.45593999997E+02  0.45594000000E+02  0.51100000000E-03 0.  1.
         11   -1    0    0    0    0 -0.00000000000E+00 -0.00000000000E+00 -0.45593999997E+02  0.45594000000E+02  0.51100000000E-03 0. -1.
    9900012    2    1    2    0    0 -0.16521695616E+01  0.17705604609E+02 -0.26467032555E+02  0.59301922928E+02  0.49999961519E+02 0.  0.
        -12    1    1    2    0    0  0.16521695616E+01 -0.17705604609E+02  0.26467032555E+02  0.31886077072E+02  0.00000000000E+00 0.  1.
         11    1    3    3    0    0  0.17596893314E+01 -0.54095130558E+00 -0.14551804919E+01  0.23466327756E+01  0.51100000000E-03 0. -1.
        -11    1    3    3    0    0  0.84221054747E+01  0.30423209207E+02 -0.24514359235E+02  0.39968203963E+02  0.51100000000E-03 0.  1.
        -12    1    3    3    0    0 -0.11833964368E+02 -0.12176653293E+02 -0.49749282813E+00  0.16987086189E+02  0.00000000000E+00 0.  1.
</event>
<event>
 7    1  0.1101380E-011  0.5930195E+02  0.7816164E-02  0.1266605E+00
        -11   -1    0    0    0    0  0.00000000000E+00  0.00000000000E+00  0.45593999997E+02  0.45594000000E+02  0.51100000000E-03 0. -1.
         11   -1    0    0    0    0 -0.00000000000E+00 -0.00000000000E+00 -0.45593999997E+02  0.45594000000E+02  0.51100000000E-03 0.  1.
    9900012    2    1    2    0    0 -0.93332400739E+01 -0.28153371139E+02 -0.11704647783E+02  0.59301945736E+02  0.50000003116E+02 0.  0.
        -12    1    1    2    0    0  0.93332400739E+01  0.28153371139E+02  0.11704647783E+02  0.31886054264E+02  0.00000000000E+00 0.  1.
         11    1    3    3    0    0 -0.45043614086E+01 -0.17006863895E+02  0.10979722057E+02  0.20738297615E+02  0.51100000000E-03 0. -1.
        -11    1    3    3    0    0 -0.15182371848E+02 -0.17459428516E+01 -0.18439177280E+02  0.23949029008E+02  0.51100000000E-03 0.  1.
         12    1    3    3    0    0  0.10353493183E+02 -0.94005643926E+01 -0.42451925598E+01  0.14614619114E+02  0.00000000000E+00 0. -1.
</event>
<event>
 7    1  0.1101380E-011  0.5930192E+02  0.7816164E-02  0.1266605E+00
        -11   -1    0    0    0    0  0.00000000000E+00  0.00000000000E+00  0.45593999997E+02  0.45594000000E+02  0.51100000000E-03 0.  1.
         11   -1    0    0    0    0 -0.00000000000E+00 -0.00000000000E+00 -0.45593999997E+02  0.45594000000E+02  0.51100000000E-03 0. -1.
    9900012    2    1    2    0    0 -0.13168417000E+02 -0.29039582274E+02 -0.13311667208E+00  0.59301917378E+02  0.49999951397E+02 0.  0.
        -12    1    1    2    0    0  0.13168417000E+02  0.29039582274E+02  0.13311667208E+00  0.31886082622E+02  0.00000000000E+00 0.  1.
         11    1    3    3    0    0 -0.21809489988E+01  0.54349638842E+01  0.11095916508E+02  0.12546502874E+02  0.51100000000E-03 0.  1.
        -11    1    3    3    0    0  0.19704182211E+01 -0.25099207552E+02  0.29918883255E+01  0.25353582857E+02  0.51100000000E-03 0. -1.
        -12    1    3    3    0    0 -0.12957886223E+02 -0.93753386068E+01 -0.14220921506E+02  0.21401831646E+02  0.00000000000E+00 0.  1.
</event>
<event>
 7    1  0.1101380E-011  0.5930195E+02  0.7816164E-02  0.1266605E+00
        -11   -1    0    0    0    0  0.00000000000E+00  0.00000000000E+00  0.45593999997E+02  0.45594000000E+02  0.51100000000E-03 0.  1.
         11   -1    0    0    0    0 -0.00000000000E+00 -0.00000000000E+00 -0.45593999997E+02  0.45594000000E+02  0.51100000000E-03 0. -1.
    9900012    2    1    2    0    0  0.16685880864E+02  0.20940532662E+02 -0.17314617308E+02  0.59301945040E+02  0.50000001847E+02 0.  0.
        -12    1    1    2    0    0 -0.16685880864E+02 -0.20940532662E+02  0.17314617308E+02  0.31886054960E+02  0.00000000000E+00 0.  1.
         11    1    3    3    0    0  0.84708513330E+01 -0.47257040613E+01  0.55222023179E+01  0.11161645035E+02  0.51100000000E-03 0. -1.
        -11    1    3    3    0    0  0.48791776368E+01  0.18068842843E+02  0.47693265441E+01  0.19314138139E+02  0.51100000000E-03 0.  1.
         12    1    3    3    0    0  0.33358518938E+01  0.75973938804E+01 -0.27606146170E+02  0.28826161867E+02  0.00000000000E+00 0. -1.
</event>
<event>
 7    1  0.1101380E-011  0.5930210E+02  0.7816164E-02  0.1266604E+00
        -11   -1    0    0    0    0  0.00000000000E+00  0.00000000000E+00  0.45593999997E+02  0.45594000000E+02  0.51100000000E-03 0. -1.
         11   -1    0    0    0    0 -0.00000000000E+00 -0.00000000000E+00 -0.45593999997E+02  0.45594000000E+02  0.51100000000E-03 0.  1.
    9900012    2    1    2    0    0 -0.73008736815E+01 -0.22471020595E+02  0.21411707664E+02  0.59302097971E+02  0.50000280756E+02 0.  0.
        -12    1    1    2    0    0  0.73008736815E+01  0.22471020595E+02 -0.21411707664E+02  0.31885902029E+02  0.00000000000E+00 0.  1.
         11    1    3    3    0    0  0.29247835458E+01 -0.41739100563E+01  0.88628455291E+01  0.10223791620E+02  0.51100000000E-03 0. -1.
        -11    1    3    3    0    0  0.77082594975E+01  0.10339562622E+02 -0.37523412460E+00  0.12902116904E+02  0.51100000000E-03 0.  1.
        -12    1    3    3    0    0 -0.17933916725E+02 -0.28636673161E+02  0.12924096259E+02  0.36176189448E+02  0.00000000000E+00 0.  1.
</event>
<event>
 7    1  0.1101380E-011  0.5930193E+02  0.7816164E-02  0.1266605E+00
        -11   -1    0    0    0    0  0.00000000000E+00  0.00000000000E+00  0.45593999997E+02  0.45594000000E+02  0.51100000000E-03 0. -1.
         11   -1    0    0    0    0 -0.00000000000E+00 -0.00000000000E+00 -0.45593999997E+02  0.45594000000E+02  0.51100000000E-03 0.  1.
    9900012    2    1    2    0    0  0.12296612913E+02 -0.19038955978E+02 -0.22428393668E+02  0.59301931312E+02  0.49999976809E+02 0.  0.
        -12    1    1    2    0    0 -0.12296612913E+02  0.19038955978E+02  0.22428393668E+02  0.31886068688E+02  0.00000000000E+00 0.  1.
         11    1    3    3    0    0 -0.34621274029E+01  0.85022462311E-01 -0.74653215401E+01  0.82294945733E+01  0.51100000000E-03 0. -1.
        -11    1    3    3    0    0  0.71858969721E+01  0.70048189969E+01 -0.20679092446E+02  0.22985418619E+02  0.51100000000E-03 0.  1.
         12    1    3    3    0    0  0.85728433443E+01 -0.26128797438E+02  0.57160203183E+01  0.28087018119E+02  0.00000000000E+00 0. -1.
</event>
<event>
 7    1  0.1101380E-011  0.5930195E+02  0.7816164E-02  0.1266605E+00
        -11   -1    0    0    0    0  0.00000000000E+00  0.00000000000E+00  0.45593999997E+02  0.45594000000E+02  0.51100000000E-03 0.  1.
         11   -1    0    0    0    0 -0.00000000000E+00 -0.00000000000E+00 -0.45593999997E+02  0.45594000000E+02  0.51100000000E-03 0. -1.
    9900012    2    1    2    0    0 -0.15862161266E+02  0.24609367469E+02  0.12628968174E+02  0.59301953453E+02  0.50000017190E+02 0.  0.
        -12    1    1    2    0    0  0.15862161266E+02 -0.24609367469E+02 -0.12628968174E+02  0.31886046547E+02  0.00000000000E+00 0.  1.
         11    1    3    3    0    0 -0.16684001130E+02 -0.37609522221E+01 -0.38028491457E+01  0.17520340100E+02  0.51100000000E-03 0. -1.
        -11    1    3    3    0    0 -0.12143575192E+02  0.95434600842E+01  0.50807882986E+01  0.16259103875E+02  0.51100000000E-03 0.  1.
         12    1    3    3    0    0  0.12965415056E+02  0.18826859607E+02  0.11351029021E+02  0.25522509478E+02  0.00000000000E+00 0. -1.
</event>
<event>
 7    1  0.1101380E-011  0.5930196E+02  0.7816164E-02  0.1266605E+00
        -11   -1    0    0    0    0  0.00000000000E+00  0.00000000000E+00  0.45593999997E+02  0.45594000000E+02  0.51100000000E-03 0. -1.
         11   -1    0    0    0    0 -0.00000000000E+00 -0.00000000000E+00 -0.45593999997E+02  0.45594000000E+02  0.51100000000E-03 0.  1.
    9900012    2    1    2    0    0 -0.45051537997E+01 -0.25459331666E+02  0.18661345849E+02  0.59301955897E+02  0.50000021647E+02 0.  0.
        -12    1    1    2    0    0  0.45051537997E+01  0.25459331666E+02 -0.18661345849E+02  0.31886044103E+02  0.00000000000E+00 0.  1.
         11    1    3    3    0    0 -0.45320608169E+01 -0.20130568914E+02 -0.92113199144E+00  0.20654971906E+02  0.51100000000E-03 0. -1.
        -11    1    3    3    0    0 -0.78021667248E+01  0.11545052135E+02  0.43293991842E+01  0.14591289592E+02  0.51100000000E-03 0.  1.
         12    1    3    3    0    0  0.78290737421E+01 -0.16873814888E+02  0.15253078656E+02  0.24055694399E+02  0.00000000000E+00 0. -1.
</event>
<event>
 7    1  0.1101380E-011  0.5930194E+02  0.7816164E-02  0.1266605E+00
        -11   -1    0    0    0    0  0.00000000000E+00  0.00000000000E+00  0.45593999997E+02  0.45594000000E+02  0.51100000000E-03 0.  1.
         11   -1    0    0    0    0 -0.00000000000E+00 -0.00000000000E+00 -0.45593999997E+02  0.45594000000E+02  0.51100000000E-03 0. -1.
    9900012    2    1    2    0    0 -0.23004731901E+02  0.35867321120E+00 -0.22076563306E+02  0.59301937469E+02  0.49999988039E+02 0.  0.
        -12    1    1    2    0    0  0.23004731901E+02 -0.35867321120E+00  0.22076563306E+02  0.31886062531E+02  0.00000000000E+00 0.  1.
         11    1    3    3    0    0 -0.94846435407E+01  0.59623409228E+01 -0.23424484736E+02  0.25965639945E+02  0.51100000000E-03 0. -1.
        -11    1    3    3    0    0 -0.95764178732E+01 -0.17842418483E+02  0.26039026509E+01  0.20416659519E+02  0.51100000000E-03 0.  1.
         12    1    3    3    0    0 -0.39436704871E+01  0.12238750772E+02 -0.12559812209E+01  0.12919638006E+02  0.00000000000E+00 0. -1.
</event>
<event>
 7    1  0.1101380E-011  0.5930193E+02  0.7816164E-02  0.1266605E+00
        -11   -1    0    0    0    0  0.00000000000E+00  0.00000000000E+00  0.45593999997E+02  0.45594000000E+02  0.51100000000E-03 0.  1.
         11   -1    0    0    0    0 -0.00000000000E+00 -0.00000000000E+00 -0.45593999997E+02  0.45594000000E+02  0.51100000000E-03 0. -1.
    9900012    2    1    2    0    0  0.17626660929E+02  0.75915972168E+01 -0.25463506282E+02  0.59301926614E+02  0.49999968242E+02 0.  0.
        -12    1    1    2    0    0 -0.17626660929E+02 -0.75915972168E+01  0.25463506282E+02  0.31886073386E+02  0.00000000000E+00 0.  1.
         11    1    3    3    0    0 -0.19517963023E+01  0.13525108272E+02  0.47318370364E+00  0.13673403587E+02  0.51100000000E-03 0. -1.
        -11    1    3    3    0    0  0.72085523998E+01 -0.97796837440E+01  0.41766020726E+01  0.12847157155E+02  0.51100000000E-03 0.  1.
         12    1    3    3    0    0  0.12369904832E+02  0.38461726888E+01 -0.30113292058E+02  0.32781365872E+02  0.00000000000E+00 0. -1.
</event>
<event>
 7    1  0.1101380E-011  0.5930195E+02  0.7816164E-02  0.1266605E+00
        -11   -1    0    0    0    0  0.00000000000E+00  0.00000000000E+00  0.45593999997E+02  0.45594000000E+02  0.51100000000E-03 0. -1.
         11   -1    0    0    0    0 -0.00000000000E+00 -0.00000000000E+00 -0.45593999997E+02  0.45594000000E+02  0.51100000000E-03 0.  1.
    9900012    2    1    2    0    0  0.74275058931E+01  0.27360305614E+02 -0.14593359437E+02  0.59301948085E+02  0.50000007399E+02 0.  0.
        -12    1    1    2    0    0 -0.74275058931E+01 -0.27360305614E+02  0.14593359437E+02  0.31886051915E+02  0.00000000000E+00 0.  1.
         11    1    3    3    0    0  0.14146588101E+01 -0.80206789209E+01  0.55061636023E+01  0.98310929086E+01  0.51100000000E-03 0. -1.
        -11    1    3    3    0    0  0.10755074615E+02  0.19482548850E+01 -0.82150802867E+01  0.13673144169E+02  0.51100000000E-03 0.  1.
         12    1    3    3    0    0 -0.47422275324E+01  0.33432729650E+02 -0.11884442752E+02  0.35797711007E+02  0.00000000000E+00 0. -1.
</event>
<event>
 7    1  0.1101380E-011  0.5930196E+02  0.7816164E-02  0.1266605E+00
        -11   -1    0    0    0    0  0.00000000000E+00  0.00000000000E+00  0.45593999997E+02  0.45594000000E+02  0.51100000000E-03 0. -1.
         11   -1    0    0    0    0 -0.00000000000E+00 -0.00000000000E+00 -0.45593999997E+02  0.45594000000E+02  0.51100000000E-03 0.  1.
    9900012    2    1    2    0    0 -0.10221853092E+02 -0.29022709233E+02 -0.83615628280E+01  0.59301958151E+02  0.50000025758E+02 0.  0.
        -12    1    1    2    0    0  0.10221853092E+02  0.29022709233E+02  0.83615628280E+01  0.31886041849E+02  0.00000000000E+00 0.  1.
         11    1    3    3    0    0 -0.97127149536E+00  0.26755583521E+01  0.15629734597E+02  0.15886805363E+02  0.51100000000E-03 0. -1.
        -11    1    3    3    0    0 -0.42973595414E+01 -0.65974985750E+00 -0.96929587702E+00  0.44544476269E+01  0.51100000000E-03 0.  1.
         12    1    3    3    0    0 -0.49532220552E+01 -0.31038517727E+02 -0.23022001548E+02  0.38960705162E+02  0.00000000000E+00 0. -1.
</event>
<event>
 7    1  0.1101380E-011  0.5930189E+02  0.7816164E-02  0.1266605E+00
        -11   -1    0    0    0    0  0.00000000000E+00  0.00000000000E+00  0.45593999997E+02  0.45594000000E+02  0.51100000000E-03 0.  1.
         11   -1    0    0    0    0 -0.00000000000E+00 -0.00000000000E+00 -0.45593999997E+02  0.45594000000E+02  0.51100000000E-03 0. -1.
    9900012    2    1    2    0    0 -0.18690607558E+02 -0.74949860426E+01 -0.24722673045E+02  0.59301887205E+02  0.49999896369E+02 0.  0.
        -12    1    1    2    0    0  0.18690607558E+02  0.74949860426E+01  0.24722673045E+02  0.31886112795E+02  0.00000000000E+00 0.  1.
         11    1    3    3    0    0 -0.70175673757E+01 -0.11927228228E+01 -0.36546288377E+01  0.80015718335E+01  0.51100000000E-03 0. -1.
        -11    1    3    3    0    0 -0.15074752783E+02  0.15609703442E+02 -0.15436798665E+01  0.21755320287E+02  0.51100000000E-03 0.  1.
         12    1    3    3    0    0  0.34017126008E+01 -0.21911966662E+02 -0.19524364341E+02  0.29544995084E+02  0.00000000000E+00 0. -1.
</event>
<event>
 7    1  0.1101380E-011  0.5930193E+02  0.7816164E-02  0.1266605E+00
        -11   -1    0    0    0    0  0.00000000000E+00  0.00000000000E+00  0.45593999997E+02  0.45594000000E+02  0.51100000000E-03 0.  1.
         11   -1    0    0    0    0 -0.00000000000E+00 -0.00000000000E+00 -0.45593999997E+02  0.45594000000E+02  0.51100000000E-03 0. -1.
    9900012    2    1    2    0    0  0.22058753686E+02  0.10178125367E+02 -0.20652810163E+02  0.59301930662E+02  0.49999975625E+02 0.  0.
        -12    1    1    2    0    0 -0.22058753686E+02 -0.10178125367E+02  0.20652810163E+02  0.31886069338E+02  0.00000000000E+00 0.  1.
         11    1    3    3    0    0 -0.74998988152E+01 -0.38392834886E+01  0.13425510655E+01  0.85317655599E+01  0.51100000000E-03 0. -1.
        -11    1    3    3    0    0 -0.38047016547E+01  0.29076754428E+01 -0.13878057024E+02  0.14680967209E+02  0.51100000000E-03 0.  1.
         12    1    3    3    0    0  0.33363354156E+02  0.11109733413E+02 -0.81173042042E+01  0.36089197894E+02  0.00000000000E+00 0. -1.
</event>
<event>
 7    1  0.1101380E-011  0.5930196E+02  0.7816164E-02  0.1266605E+00
        -11   -1    0    0    0    0  0.00000000000E+00  0.00000000000E+00  0.45593999997E+02  0.45594000000E+02  0.51100000000E-03 0. -1.
         11   -1    0    0    0    0 -0.00000000000E+00 -0.00000000000E+00 -0.45593999997E+02  0.45594000000E+02  0.51100000000E-03 0.  1.
    9900012    2    1    2    0    0  0.14347297433E+00  0.17054774273E+02  0.26941300632E+02  0.59301959327E+02  0.50000027903E+02 0.  0.
        -12    1    1    2    0    0 -0.14347297433E+00 -0.17054774273E+02 -0.26941300632E+02  0.31886040673E+02  0.00000000000E+00 0.  1.
         11    1    3    3    0    0 -0.14164069950E+02  0.49981438624E+00  0.23049712275E+02  0.27058453913E+02  0.51100000000E-03 0. -1.
        -11    1    3    3    0    0  0.74867547354E+01 -0.52608325005E+01  0.10496428769E+01  0.92102988820E+01  0.51100000000E-03 0.  1.
        -12    1    3    3    0    0  0.68207881893E+01  0.21815792388E+02  0.28419454809E+01  0.23033206532E+02  0.00000000000E+00 0.  1.
</event>
<event>
 7    1  0.1101380E-011  0.5930194E+02  0.7816164E-02  0.1266605E+00
        -11   -1    0    0    0    0  0.00000000000E+00  0.00000000000E+00  0.45593999997E+02  0.45594000000E+02  0.51100000000E-03 0.  1.
         11   -1    0    0    0    0 -0.00000000000E+00 -0.00000000000E+00 -0.45593999997E+02  0.45594000000E+02  0.51100000000E-03 0. -1.
    9900012    2    1    2    0    0  0.46584263742E+00 -0.28345451448E+02 -0.14595856079E+02  0.59301942830E+02  0.49999997816E+02 0.  0.
        -12    1    1    2    0    0 -0.46584263742E+00  0.28345451448E+02  0.14595856079E+02  0.31886057170E+02  0.00000000000E+00 0.  1.
         11    1    3    3    0    0  0.27282933547E+01 -0.46525317430E+01 -0.13208231782E+02  0.14266990689E+02  0.51100000000E-03 0. -1.
        -11    1    3    3    0    0  0.86348732556E+01  0.68097898939E+01 -0.56522733148E+01  0.12364565032E+02  0.51100000000E-03 0.  1.
         12    1    3    3    0    0 -0.10897323973E+02 -0.30502709599E+02  0.42646490178E+01  0.32670387110E+02  0.00000000000E+00 0. -1.
</event>
<event>
 7    1  0.1101380E-011  0.5930199E+02  0.7816164E-02  0.1266605E+00
        -11   -1    0    0    0    0  0.00000000000E+00  0.00000000000E+00  0.45593999997E+02  0.45594000000E+02  0.51100000000E-03 0.  1.
         11   -1    0    0    0    0 -0.00000000000E+00 -0.00000000000E+00 -0.45593999997E+02  0.45594000000E+02  0.51100000000E-03 0. -1.
    9900012    2    1    2    0    0 -0.20897260284E-01  0.22496372973E+02  0.22597132959E+02  0.59301989720E+02  0.50000083331E+02 0.  0.
        -12    1    1    2    0    0  0.20897260284E-01 -0.22496372973E+02 -0.22597132959E+02  0.31886010280E+02  0.00000000000E+00 0.  1.
         11    1    3    3    0    0  0.24727614209E+01  0.12785999725E+01  0.39018103023E+00  0.28109799771E+01  0.51100000000E-03 0. -1.
        -11    1    3    3    0    0 -0.22418397267E+01 -0.10533700943E+02  0.22271221457E+02  0.24738472191E+02  0.51100000000E-03 0.  1.
         12    1    3    3    0    0 -0.25181895446E+00  0.31751473944E+02 -0.64269528166E-01  0.31752537551E+02  0.00000000000E+00 0. -1.
</event>
<event>
 7    1  0.1101380E-011  0.5930207E+02  0.7816164E-02  0.1266604E+00
        -11   -1    0    0    0    0  0.00000000000E+00  0.00000000000E+00  0.45593999997E+02  0.45594000000E+02  0.51100000000E-03 0.  1.
         11   -1    0    0    0    0 -0.00000000000E+00 -0.00000000000E+00 -0.45593999997E+02  0.45594000000E+02  0.51100000000E-03 0. -1.
    9900012    2    1    2    0    0 -0.76560614300E+01  0.26935153775E+02 -0.15251048266E+02  0.59302074285E+02  0.50000237558E+02 0.  0.
        -12    1    1    2    0    0  0.76560614300E+01 -0.26935153775E+02  0.15251048266E+02  0.31885925715E+02  0.00000000000E+00 0.  1.
         11    1    3    3    0    0  0.43596294477E+00  0.70495245643E+01  0.37207208367E+01  0.79830836196E+01  0.51100000000E-03 0. -1.
        -11    1    3    3    0    0  0.22895142491E+01 -0.72158766398E+01  0.84821845944E+01  0.11369177936E+02  0.51100000000E-03 0.  1.
         12    1    3    3    0    0 -0.10381538624E+02  0.27101505850E+02 -0.27453953697E+02  0.39949812730E+02  0.00000000000E+00 0. -1.
</event>
<event>
 7    1  0.1101380E-011  0.5930195E+02  0.7816164E-02  0.1266605E+00
        -11   -1    0    0    0    0  0.00000000000E+00  0.00000000000E+00  0.45593999997E+02  0.45594000000E+02  0.51100000000E-03 0. -1.
         11   -1    0    0    0    0 -0.00000000000E+00 -0.00000000000E+00 -0.45593999997E+02  0.45594000000E+02  0.51100000000E-03 0.  1.
    9900012    2    1    2    0    0 -0.20419343407E+02  0.19050844061E+02 -0.15389477790E+02  0.59301948641E+02  0.50000008413E+02 0.  0.
        -12    1    1    2    0    0  0.20419343407E+02 -0.19050844061E+02  0.15389477790E+02  0.31886051359E+02  0.00000000000E+00 0.  1.
         11    1    3    3    0    0  0.11216669318E+01 -0.36810869931E+01 -0.88099310667E+01  0.96137102004E+01  0.51100000000E-03 0. -1.
        -11    1    3    3    0    0 -0.10097888410E+02 -0.10156906999E+02 -0.34020056201E+01  0.14720861137E+02  0.51100000000E-03 0.  1.
         12    1    3    3    0    0 -0.11443121929E+02  0.32888838054E+02 -0.31775411035E+01  0.34967377303E+02  0.00000000000E+00 0. -1.
</event>
<event>
 7    1  0.1101380E-011  0.5930192E+02  0.7816164E-02  0.1266605E+00
        -11   -1    0    0    0    0  0.00000000000E+00  0.00000000000E+00  0.45593999997E+02  0.45594000000E+02  0.51100000000E-03 0. -1.
         11   -1    0    0    0    0 -0.00000000000E+00 -0.00000000000E+00 -0.45593999997E+02  0.45594000000E+02  0.51100000000E-03 0.  1.
    9900012    2    1    2    0    0 -0.15302253763E+02  0.90622786280E+01  0.26465796918E+02  0.59301917289E+02  0.49999951235E+02 0.  0.
        -12    1    1    2    0    0  0.15302253763E+02 -0.90622786280E+01 -0.26465796918E+02  0.31886082711E+02  0.00000000000E+00 0.  1.
         11    1    3    3    0    0 -0.76487198782E+01  0.19876569305E+02 -0.23689472424E+00  0.21298756830E+02  0.51100000000E-03 0. -1.
        -11    1    3    3    0    0 -0.12327521239E+01 -0.90931032504E+01 -0.12589180482E+01  0.92622394395E+01  0.51100000000E-03 0.  1.
         12    1    3    3    0    0 -0.64207817609E+01 -0.17211874271E+01  0.27961609690E+02  0.28740921019E+02  0.00000000000E+00 0. -1.
</event>
<event>
 7    1  0.1101380E-011  0.5930194E+02  0.7816164E-02  0.1266605E+00
        -11   -1    0    0    0    0  0.00000000000E+00  0.00000000000E+00  0.45593999997E+02  0.45594000000E+02  0.51100000000E-03 0.  1.
         11   -1    0    0    0    0 -0.00000000000E+00 -0.00000000000E+00 -0.45593999997E+02  0.45594000000E+02  0.51100000000E-03 0. -1.
    9900012    2    1    2    0    0 -0.10851214141E+02 -0.10013757623E+02 -0.28261220591E+02  0.59301940674E+02  0.49999993883E+02 0.  0.
        -12    1    1    2    0    0  0.10851214141E+02  0.10013757623E+02  0.28261220591E+02  0.31886059326E+02  0.00000000000E+00 0.  1.
         11    1    3    3    0    0 -0.15068028056E+02  0.57457270166E+01 -0.21069566988E+02  0.26532725110E+02  0.51100000000E-03 0. -1.
        -11    1    3    3    0    0 -0.51351649833E+01  0.59412678240E+01  0.63020222036E+00  0.78781811265E+01  0.51100000000E-03 0.  1.
         12    1    3    3    0    0  0.93519788988E+01 -0.21700752464E+02 -0.78218558240E+01  0.24891034437E+02  0.00000000000E+00 0. -1.
</event>
<event>
 7    1  0.1101380E-011  0.5930194E+02  0.7816164E-02  0.1266605E+00
        -11   -1    0    0    0    0  0.00000000000E+00  0.00000000000E+00  0.45593999997E+02  0.45594000000E+02  0.51100000000E-03 0.  1.
         11   -1    0    0    0    0 -0.00000000000E+00 -0.00000000000E+00 -0.45593999997E+02  0.45594000000E+02  0.51100000000E-03 0. -1.
    9900012    2    1    2    0    0 -0.26004494514E+02  0.15052786073E+02 -0.10672422240E+02  0.59301941919E+02  0.49999996153E+02 0.  0.
        -12    1    1    2    0    0  0.26004494514E+02 -0.15052786073E+02  0.10672422240E+02  0.31886058081E+02  0.00000000000E+00 0.  1.
         11    1    3    3    0    0 -0.13969834586E+02  0.14446737319E+01 -0.10866561087E+01  0.14086311878E+02  0.51100000000E-03 0. -1.
        -11    1    3    3    0    0  0.37309780477E+01  0.71584285317E+01  0.13976980694E+02  0.16140609834E+02  0.51100000000E-03 0.  1.
         12    1    3    3    0    0 -0.15765637976E+02  0.64496838091E+01 -0.23562746826E+02  0.29075020206E+02  0.00000000000E+00 0. -1.
</event>
<event>
 7    1  0.1101380E-011  0.5930199E+02  0.7816164E-02  0.1266605E+00
        -11   -1    0    0    0    0  0.00000000000E+00  0.00000000000E+00  0.45593999997E+02  0.45594000000E+02  0.51100000000E-03 0. -1.
         11   -1    0    0    0    0 -0.00000000000E+00 -0.00000000000E+00 -0.45593999997E+02  0.45594000000E+02  0.51100000000E-03 0.  1.
    9900012    2    1    2    0    0 -0.24446168028E+02  0.95875427583E+01  0.18088167837E+02  0.59301985462E+02  0.50000075566E+02 0.  0.
        -12    1    1    2    0    0  0.24446168028E+02 -0.95875427583E+01 -0.18088167837E+02  0.31886014538E+02  0.00000000000E+00 0.  1.
         11    1    3    3    0    0 -0.61289116021E+01  0.12304949564E+02  0.84878035629E+00  0.13773008733E+02  0.51100000000E-03 0. -1.
        -11    1    3    3    0    0 -0.19523015990E+02 -0.77349297597E+01 -0.59069060588E+01  0.21814417966E+02  0.51100000000E-03 0.  1.
        -12    1    3    3    0    0  0.12057595641E+01  0.50175229537E+01  0.23146293539E+02  0.23714558763E+02  0.00000000000E+00 0.  1.
</event>
<event>
 7    1  0.1101380E-011  0.5930195E+02  0.7816164E-02  0.1266605E+00
        -11   -1    0    0    0    0  0.00000000000E+00  0.00000000000E+00  0.45593999997E+02  0.45594000000E+02  0.51100000000E-03 0.  1.
         11   -1    0    0    0    0 -0.00000000000E+00 -0.00000000000E+00 -0.45593999997E+02  0.45594000000E+02  0.51100000000E-03 0. -1.
    9900012    2    1    2    0    0  0.17287477483E+02  0.25281775143E+02 -0.88710227926E+01  0.59301951679E+02  0.50000013955E+02 0.  0.
        -12    1    1    2    0    0 -0.17287477483E+02 -0.25281775143E+02  0.88710227926E+01  0.31886048321E+02  0.00000000000E+00 0.  1.
         11    1    3    3    0    0  0.26275512036E+01  0.24075980314E+01  0.56857246001E+00  0.36088541827E+01  0.51100000000E-03 0. -1.
        -11    1    3    3    0    0  0.52023002628E+01  0.28619775068E+02  0.12078109544E+02  0.31496605903E+02  0.51100000000E-03 0.  1.
        -12    1    3    3    0    0  0.94576260164E+01 -0.57455979558E+01 -0.21517704797E+02  0.24196491594E+02  0.00000000000E+00 0.  1.
</event>
<event>
 7    1  0.1101380E-011  0.5930193E+02  0.7816164E-02  0.1266605E+00
        -11   -1    0    0    0    0  0.00000000000E+00  0.00000000000E+00  0.45593999997E+02  0.45594000000E+02  0.51100000000E-03 0. -1.
         11   -1    0    0    0    0 -0.00000000000E+00 -0.00000000000E+00 -0.45593999997E+02  0.45594000000E+02  0.51100000000E-03 0.  1.
    9900012    2    1    2    0    0  0.29078956573E+01  0.27781073155E+02  0.15377826798E+02  0.59301930317E+02  0.49999974996E+02 0.  0.
        -12    1    1    2    0    0 -0.29078956573E+01 -0.27781073155E+02 -0.15377826798E+02  0.31886069683E+02  0.00000000000E+00 0.  1.
         11    1    3    3    0    0 -0.21843723350E+01  0.69385655575E+01  0.30661254653E+01  0.78940674005E+01  0.51100000000E-03 0. -1.
        -11    1    3    3    0    0 -0.10783152227E+02  0.50824103660E+01  0.23533924706E+02  0.26380918850E+02  0.51100000000E-03 0.  1.
        -12    1    3    3    0    0  0.15875420219E+02  0.15760097231E+02 -0.11222223373E+02  0.25026944067E+02  0.00000000000E+00 0.  1.
</event>
<event>
 7    1  0.1101380E-011  0.5930193E+02  0.7816164E-02  0.1266605E+00
        -11   -1    0    0    0    0  0.00000000000E+00  0.00000000000E+00  0.45593999997E+02  0.45594000000E+02  0.51100000000E-03 0. -1.
         11   -1    0    0    0    0 -0.00000000000E+00 -0.00000000000E+00 -0.45593999997E+02  0.45594000000E+02  0.51100000000E-03 0.  1.
    9900012    2    1    2    0    0  0.16960193263E+01  0.25348252463E-01  0.31840917617E+02  0.59301934724E+02  0.49999983032E+02 0.  0.
        -12    1    1    2    0    0 -0.16960193263E+01 -0.25348252463E-01 -0.31840917617E+02  0.31886065276E+02  0.00000000000E+00 0.  1.
         11    1    3    3    0    0  0.16974929911E+02  0.31696285233E+01  0.15118544516E+01  0.17334373211E+02  0.51100000000E-03 0. -1.
        -11    1    3    3    0    0 -0.45972180231E+01  0.84033152435E+01  0.23389593379E+01  0.98600634724E+01  0.51100000000E-03 0.  1.
         12    1    3    3    0    0 -0.10681692562E+02 -0.11547595514E+02  0.27990103828E+02  0.32107498041E+02  0.00000000000E+00 0. -1.
</event>
<event>
 7    1  0.1101380E-011  0.5930195E+02  0.7816164E-02  0.1266605E+00
        -11   -1    0    0    0    0  0.00000000000E+00  0.00000000000E+00  0.45593999997E+02  0.45594000000E+02  0.51100000000E-03 0.  1.
         11   -1    0    0    0    0 -0.00000000000E+00 -0.00000000000E+00 -0.45593999997E+02  0.45594000000E+02  0.51100000000E-03 0. -1.
    9900012    2    1    2    0    0 -0.27469520920E+02 -0.15655326870E+02 -0.41299256639E+01  0.59301950936E+02  0.50000012598E+02 0.  0.
        -12    1    1    2    0    0  0.27469520920E+02  0.15655326870E+02  0.41299256639E+01  0.31886049064E+02  0.00000000000E+00 0.  1.
         11    1    3    3    0    0  0.14460271376E+01  0.63591804052E+01 -0.18003463510E+01  0.67654576456E+01  0.51100000000E-03 0.  1.
        -11    1    3    3    0    0 -0.17123795257E+02 -0.32455765006E+02 -0.70492772780E+00  0.36702833262E+02  0.51100000000E-03 0. -1.
         12    1    3    3    0    0 -0.11791752800E+02  0.10441257731E+02 -0.16246515851E+01  0.15833660028E+02  0.00000000000E+00 0. -1.
</event>
<event>
 7    1  0.1101380E-011  0.5930190E+02  0.7816164E-02  0.1266605E+00
        -11   -1    0    0    0    0  0.00000000000E+00  0.00000000000E+00  0.45593999997E+02  0.45594000000E+02  0.51100000000E-03 0.  1.
         11   -1    0    0    0    0 -0.00000000000E+00 -0.00000000000E+00 -0.45593999997E+02  0.45594000000E+02  0.51100000000E-03 0. -1.
    9900012    2    1    2    0    0  0.15945511289E+02 -0.10738076432E+02 -0.25439294487E+02  0.59301900838E+02  0.49999921233E+02 0.  0.
        -12    1    1    2    0    0 -0.15945511289E+02  0.10738076432E+02  0.25439294487E+02  0.31886099162E+02  0.00000000000E+00 0.  1.
         11    1    3    3    0    0  0.94534991233E+01  0.83094503803E+01 -0.16110296963E+02  0.20444003517E+02  0.51100000000E-03 0. -1.
        -11    1    3    3    0    0 -0.37935774131E+01 -0.20905429920E+02  0.43049284876E+01  0.21678575582E+02  0.51100000000E-03 0.  1.
         12    1    3    3    0    0  0.10285589579E+02  0.18579031074E+01 -0.13633926011E+02  0.17179321739E+02  0.00000000000E+00 0. -1.
</event>
<event>
 7    1  0.1101380E-011  0.5930198E+02  0.7816164E-02  0.1266605E+00
        -11   -1    0    0    0    0  0.00000000000E+00  0.00000000000E+00  0.45593999997E+02  0.45594000000E+02  0.51100000000E-03 0.  1.
         11   -1    0    0    0    0 -0.00000000000E+00 -0.00000000000E+00 -0.45593999997E+02  0.45594000000E+02  0.51100000000E-03 0. -1.
    9900012    2    1    2    0    0  0.27140977933E+02  0.31407068590E+01 -0.16438425833E+02  0.59301975371E+02  0.50000057163E+02 0.  0.
        -12    1    1    2    0    0 -0.27140977933E+02 -0.31407068590E+01  0.16438425833E+02  0.31886024629E+02  0.00000000000E+00 0.  1.
         11    1    3    3    0    0  0.12928708182E+01 -0.13399393925E+01  0.39685950970E+01  0.43836856449E+01  0.51100000000E-03 0. -1.
        -11    1    3    3    0    0 -0.84838590806E+01  0.12817852407E+02 -0.88997752092E+01  0.17761734270E+02  0.51100000000E-03 0.  1.
         12    1    3    3    0    0  0.34331966196E+02 -0.83372061554E+01 -0.11507245721E+02  0.37156555457E+02  0.00000000000E+00 0. -1.
</event>
<event>
 7    1  0.1101380E-011  0.5930192E+02  0.7816164E-02  0.1266605E+00
        -11   -1    0    0    0    0  0.00000000000E+00  0.00000000000E+00  0.45593999997E+02  0.45594000000E+02  0.51100000000E-03 0. -1.
         11   -1    0    0    0    0 -0.00000000000E+00 -0.00000000000E+00 -0.45593999997E+02  0.45594000000E+02  0.51100000000E-03 0.  1.
    9900012    2    1    2    0    0  0.42474857002E+01 -0.11856376928E+02  0.29293470231E+02  0.59301918290E+02  0.49999953060E+02 0.  0.
        -12    1    1    2    0    0 -0.42474857002E+01  0.11856376928E+02 -0.29293470231E+02  0.31886081710E+02  0.00000000000E+00 0.  1.
         11    1    3    3    0    0  0.11498652495E+02 -0.11925033414E+02  0.15990523049E+02  0.23024384005E+02  0.51100000000E-03 0. -1.
        -11    1    3    3    0    0 -0.34306249781E+01 -0.13483796087E+02  0.16756159931E+02  0.21779596887E+02  0.51100000000E-03 0.  1.
        -12    1    3    3    0    0 -0.38205418171E+01  0.13552452573E+02 -0.34532127491E+01  0.14497937399E+02  0.00000000000E+00 0.  1.
</event>
<event>
 7    1  0.1101380E-011  0.5930194E+02  0.7816164E-02  0.1266605E+00
        -11   -1    0    0    0    0  0.00000000000E+00  0.00000000000E+00  0.45593999997E+02  0.45594000000E+02  0.51100000000E-03 0.  1.
         11   -1    0    0    0    0 -0.00000000000E+00 -0.00000000000E+00 -0.45593999997E+02  0.45594000000E+02  0.51100000000E-03 0. -1.
    9900012    2    1    2    0    0  0.20184466810E+02 -0.10208076180E+02 -0.22474499715E+02  0.59301942590E+02  0.49999997378E+02 0.  0.
        -12    1    1    2    0    0 -0.20184466810E+02  0.10208076180E+02  0.22474499715E+02  0.31886057410E+02  0.00000000000E+00 0.  1.
         11    1    3    3    0    0  0.20443025254E+01 -0.35999842961E+01 -0.39413881424E+01  0.57160826181E+01  0.51100000000E-03 0. -1.
        -11    1    3    3    0    0 -0.13594630719E+02 -0.10366313415E+02 -0.97590600744E+00  0.17123867291E+02  0.51100000000E-03 0.  1.
        -12    1    3    3    0    0  0.31734795004E+02  0.37582215306E+01 -0.17557205565E+02  0.36461992681E+02  0.00000000000E+00 0.  1.
</event>
<event>
 7    1  0.1101380E-011  0.5930161E+02  0.7816164E-02  0.1266606E+00
        -11   -1    0    0    0    0  0.00000000000E+00  0.00000000000E+00  0.45593999997E+02  0.45594000000E+02  0.51100000000E-03 0. -1.
         11   -1    0    0    0    0 -0.00000000000E+00 -0.00000000000E+00 -0.45593999997E+02  0.45594000000E+02  0.51100000000E-03 0.  1.
    9900012    2    1    2    0    0 -0.29525176086E+02 -0.56704004892E+01  0.10623208297E+02  0.59301607618E+02  0.49999386465E+02 0.  0.
        -12    1    1    2    0    0  0.29525176086E+02  0.56704004892E+01 -0.10623208297E+02  0.31886392382E+02  0.00000000000E+00 0.  1.
         11    1    3    3    0    0 -0.15854507463E+02  0.50435104465E+01  0.55274347737E+01  0.17531541289E+02  0.51100000000E-03 0. -1.
        -11    1    3    3    0    0 -0.21113189567E+02  0.45997953238E+01 -0.47184267449E+01  0.22117604796E+02  0.51100000000E-03 0.  1.
        -12    1    3    3    0    0  0.74425209436E+01 -0.15313706259E+02  0.98142002679E+01  0.19652461533E+02  0.00000000000E+00 0.  1.
</event>
<event>
 7    1  0.1101380E-011  0.5930193E+02  0.7816164E-02  0.1266605E+00
        -11   -1    0    0    0    0  0.00000000000E+00  0.00000000000E+00  0.45593999997E+02  0.45594000000E+02  0.51100000000E-03 0.  1.
         11   -1    0    0    0    0 -0.00000000000E+00 -0.00000000000E+00 -0.45593999997E+02  0.45594000000E+02  0.51100000000E-03 0. -1.
    9900012    2    1    2    0    0 -0.36733329316E+01  0.22620839901E+02 -0.22170381064E+02  0.59301928289E+02  0.49999971296E+02 0.  0.
        -12    1    1    2    0    0  0.36733329316E+01 -0.22620839901E+02  0.22170381064E+02  0.31886071711E+02  0.00000000000E+00 0.  1.
         11    1    3    3    0    0  0.32335381023E+01 -0.63413137589E+01 -0.10637388075E+02  0.12799298972E+02  0.51100000000E-03 0. -1.
        -11    1    3    3    0    0 -0.18954636238E+02  0.24012769259E+02 -0.25870706666E+01  0.30701535097E+02  0.51100000000E-03 0.  1.
         12    1    3    3    0    0  0.12047765205E+02  0.49493844014E+01 -0.89459223221E+01  0.15801094221E+02  0.00000000000E+00 0. -1.
</event>
<event>
 7    1  0.1101380E-011  0.5930195E+02  0.7816164E-02  0.1266605E+00
        -11   -1    0    0    0    0  0.00000000000E+00  0.00000000000E+00  0.45593999997E+02  0.45594000000E+02  0.51100000000E-03 0.  1.
         11   -1    0    0    0    0 -0.00000000000E+00 -0.00000000000E+00 -0.45593999997E+02  0.45594000000E+02  0.51100000000E-03 0. -1.
    9900012    2    1    2    0    0  0.10412202459E+02 -0.22396443010E+02  0.20166940882E+02  0.59301950949E+02  0.50000012623E+02 0.  0.
        -12    1    1    2    0    0 -0.10412202459E+02  0.22396443010E+02 -0.20166940882E+02  0.31886049051E+02  0.00000000000E+00 0.  1.
         11    1    3    3    0    0  0.15003701577E+02 -0.19016156960E+02  0.24858341827E+02  0.34708247510E+02  0.51100000000E-03 0. -1.
        -11    1    3    3    0    0  0.91775900349E+01  0.14332882206E+01 -0.36161110925E+01  0.99678851150E+01  0.51100000000E-03 0.  1.
         12    1    3    3    0    0 -0.13769089154E+02 -0.48135742702E+01 -0.10752898530E+01  0.14625818324E+02  0.00000000000E+00 0. -1.
</event>
<event>
 7    1  0.1101380E-011  0.5930197E+02  0.7816164E-02  0.1266605E+00
        -11   -1    0    0    0    0  0.00000000000E+00  0.00000000000E+00  0.45593999997E+02  0.45594000000E+02  0.51100000000E-03 0.  1.
         11   -1    0    0    0    0 -0.00000000000E+00 -0.00000000000E+00 -0.45593999997E+02  0.45594000000E+02  0.51100000000E-03 0. -1.
    9900012    2    1    2    0    0 -0.24307042250E+02 -0.20252909179E+02 -0.39631205909E+01  0.59301969235E+02  0.50000045971E+02 0.  0.
        -12    1    1    2    0    0  0.24307042250E+02  0.20252909179E+02  0.39631205909E+01  0.31886030765E+02  0.00000000000E+00 0.  1.
         11    1    3    3    0    0 -0.30564059652E+01 -0.15583777165E+01  0.34706993208E+01  0.48801549738E+01  0.51100000000E-03 0. -1.
        -11    1    3    3    0    0 -0.22313245983E+02 -0.43334043895E+01  0.15379089004E+02  0.27444047055E+02  0.51100000000E-03 0.  1.
         12    1    3    3    0    0  0.10626096982E+01 -0.14361127073E+02 -0.22812908916E+02  0.26977767205E+02  0.00000000000E+00 0. -1.
</event>
<event>
 7    1  0.1180991E-011  0.5930191E+02  0.7816164E-02  0.1266605E+00
        -11   -1    0    0    0    0  0.00000000000E+00  0.00000000000E+00  0.45593999997E+02  0.45594000000E+02  0.51100000000E-03 0.  1.
         11   -1    0    0    0    0 -0.00000000000E+00 -0.00000000000E+00 -0.45593999997E+02  0.45594000000E+02  0.51100000000E-03 0. -1.
    9900012    2    1    2    0    0  0.10898818902E+02 -0.27246731914E+02 -0.12472133305E+02  0.59301909575E+02  0.49999937166E+02 0.  0.
        -12    1    1    2    0    0 -0.10898818902E+02  0.27246731914E+02  0.12472133305E+02  0.31886090425E+02  0.00000000000E+00 0.  1.
         11    1    3    3    0    0  0.12787671719E+02 -0.74481286784E+01 -0.24545780142E+02  0.28661725207E+02  0.51100000000E-03 0. -1.
        -11    1    3    3    0    0 -0.63417377206E+01 -0.14759265356E+02 -0.83411471438E+00  0.16085686146E+02  0.51100000000E-03 0.  1.
        -12    1    3    3    0    0  0.44528849035E+01 -0.50393378789E+01  0.12907761551E+02  0.14554498222E+02  0.00000000000E+00 0.  1.
</event>
<event>
 7    1  0.1101380E-011  0.5930192E+02  0.7816164E-02  0.1266605E+00
        -11   -1    0    0    0    0  0.00000000000E+00  0.00000000000E+00  0.45593999997E+02  0.45594000000E+02  0.51100000000E-03 0.  1.
         11   -1    0    0    0    0 -0.00000000000E+00 -0.00000000000E+00 -0.45593999997E+02  0.45594000000E+02  0.51100000000E-03 0. -1.
    9900012    2    1    2    0    0 -0.17487683507E+02 -0.19014953759E+02 -0.18690497590E+02  0.59301917753E+02  0.49999952082E+02 0.  0.
        -12    1    1    2    0    0  0.17487683507E+02  0.19014953759E+02  0.18690497590E+02  0.31886082247E+02  0.00000000000E+00 0.  1.
         11    1    3    3    0    0 -0.17830954197E+01  0.57272662866E+01 -0.67838344918E+01  0.90554634926E+01  0.51100000000E-03 0. -1.
        -11    1    3    3    0    0  0.26395544989E+01 -0.29250048066E+02 -0.35220697989E+01  0.29579343058E+02  0.51100000000E-03 0.  1.
         12    1    3    3    0    0 -0.18344142586E+02  0.45078280205E+01 -0.83845932997E+01  0.20667111203E+02  0.00000000000E+00 0. -1.
</event>
<event>
 7    1  0.1101380E-011  0.5930196E+02  0.7816164E-02  0.1266605E+00
        -11   -1    0    0    0    0  0.00000000000E+00  0.00000000000E+00  0.45593999997E+02  0.45594000000E+02  0.51100000000E-03 0.  1.
         11   -1    0    0    0    0 -0.00000000000E+00 -0.00000000000E+00 -0.45593999997E+02  0.45594000000E+02  0.51100000000E-03 0. -1.
    9900012    2    1    2    0    0 -0.23417932389E+02  0.17107469329E+01 -0.21572983308E+02  0.59301955698E+02  0.50000021283E+02 0.  0.
        -12    1    1    2    0    0  0.23417932389E+02 -0.17107469329E+01  0.21572983308E+02  0.31886044302E+02  0.00000000000E+00 0.  1.
         11    1    3    3    0    0 -0.10571876103E+02  0.85333867216E+01 -0.22900726770E+02  0.26627552275E+02  0.51100000000E-03 0. -1.
        -11    1    3    3    0    0 -0.66499387722E+01  0.10431547813E+02  0.60091468515E+01  0.13753134973E+02  0.51100000000E-03 0.  1.
        -12    1    3    3    0    0 -0.61961175135E+01 -0.17254187602E+02 -0.46814033893E+01  0.18921268449E+02  0.00000000000E+00 0.  1.
</event>
<event>
 7    1  0.1101380E-011  0.5930187E+02  0.7816164E-02  0.1266605E+00
        -11   -1    0    0    0    0  0.00000000000E+00  0.00000000000E+00  0.45593999997E+02  0.45594000000E+02  0.51100000000E-03 0.  1.
         11   -1    0    0    0    0 -0.00000000000E+00 -0.00000000000E+00 -0.45593999997E+02  0.45594000000E+02  0.51100000000E-03 0. -1.
    9900012    2    1    2    0    0 -0.14912587019E+02  0.20554881123E+02 -0.19283077963E+02  0.59301866881E+02  0.49999859302E+02 0.  0.
        -12    1    1    2    0    0  0.14912587019E+02 -0.20554881123E+02  0.19283077963E+02  0.31886133119E+02  0.00000000000E+00 0.  1.
         11    1    3    3    0    0  0.40407820169E+00 -0.33570913202E+01 -0.19727991807E+02  0.20015668920E+02  0.51100000000E-03 0. -1.
        -11    1    3    3    0    0  0.77330697883E-01  0.23886055497E+02  0.52582188478E+00  0.23891967608E+02  0.51100000000E-03 0.  1.
         12    1    3    3    0    0 -0.15393995919E+02  0.25916945716E-01 -0.80908040650E-01  0.15394230353E+02  0.00000000000E+00 0. -1.
</event>
<event>
 7    1  0.1101380E-011  0.5930197E+02  0.7816164E-02  0.1266605E+00
        -11   -1    0    0    0    0  0.00000000000E+00  0.00000000000E+00  0.45593999997E+02  0.45594000000E+02  0.51100000000E-03 0. -1.
         11   -1    0    0    0    0 -0.00000000000E+00 -0.00000000000E+00 -0.45593999997E+02  0.45594000000E+02  0.51100000000E-03 0.  1.
    9900012    2    1    2    0    0  0.32849054306E+01 -0.17421076429E+02  0.26503484610E+02  0.59301965375E+02  0.50000038933E+02 0.  0.
        -12    1    1    2    0    0 -0.32849054306E+01  0.17421076429E+02 -0.26503484610E+02  0.31886034625E+02  0.00000000000E+00 0.  1.
         11    1    3    3    0    0 -0.10084857152E+02 -0.77942307276E+01 -0.36361212740E+00  0.12750944689E+02  0.51100000000E-03 0. -1.
        -11    1    3    3    0    0 -0.81656322175E+00  0.11898422110E+02  0.11336806514E+02  0.16454859659E+02  0.51100000000E-03 0.  1.
        -12    1    3    3    0    0  0.14186325805E+02 -0.21525267811E+02  0.15530290224E+02  0.30096161028E+02  0.00000000000E+00 0.  1.
</event>
<event>
 7    1  0.1101380E-011  0.5930198E+02  0.7816164E-02  0.1266605E+00
        -11   -1    0    0    0    0  0.00000000000E+00  0.00000000000E+00  0.45593999997E+02  0.45594000000E+02  0.51100000000E-03 0.  1.
         11   -1    0    0    0    0 -0.00000000000E+00 -0.00000000000E+00 -0.45593999997E+02  0.45594000000E+02  0.51100000000E-03 0. -1.
    9900012    2    1    2    0    0  0.19110620091E+02  0.31967966616E+01 -0.25323564421E+02  0.59301980741E+02  0.50000066957E+02 0.  0.
        -12    1    1    2    0    0 -0.19110620091E+02 -0.31967966616E+01  0.25323564421E+02  0.31886019259E+02  0.00000000000E+00 0.  1.
         11    1    3    3    0    0  0.59414009046E+00  0.92735601952E+00 -0.86018278321E+01  0.86720490052E+01  0.51100000000E-03 0. -1.
        -11    1    3    3    0    0 -0.78146127768E+01 -0.13356572893E+02  0.53356356208E+00  0.15483891715E+02  0.51100000000E-03 0.  1.
         12    1    3    3    0    0  0.26331092778E+02  0.15626013535E+02 -0.17255300151E+02  0.35146040021E+02  0.00000000000E+00 0. -1.
</event>
<event>
 7    1  0.1101380E-011  0.5930193E+02  0.7816164E-02  0.1266605E+00
        -11   -1    0    0    0    0  0.00000000000E+00  0.00000000000E+00  0.45593999997E+02  0.45594000000E+02  0.51100000000E-03 0.  1.
         11   -1    0    0    0    0 -0.00000000000E+00 -0.00000000000E+00 -0.45593999997E+02  0.45594000000E+02  0.51100000000E-03 0. -1.
    9900012    2    1    2    0    0  0.12828277727E+02  0.26327798846E+02 -0.12609670130E+02  0.59301929650E+02  0.49999973779E+02 0.  0.
        -12    1    1    2    0    0 -0.12828277727E+02 -0.26327798846E+02  0.12609670130E+02  0.31886070350E+02  0.00000000000E+00 0.  1.
         11    1    3    3    0    0  0.26880849854E+02  0.20036013668E+02 -0.85977283650E+00  0.33537458791E+02  0.51100000000E-03 0. -1.
        -11    1    3    3    0    0 -0.41967638405E+01  0.96198184437E+01 -0.11197558009E+02  0.15347281168E+02  0.51100000000E-03 0.  1.
        -12    1    3    3    0    0 -0.98558082859E+01 -0.33280332654E+01 -0.55233928489E+00  0.10417189692E+02  0.00000000000E+00 0.  1.
</event>
<event>
 7    1  0.1101380E-011  0.5930191E+02  0.7816164E-02  0.1266605E+00
        -11   -1    0    0    0    0  0.00000000000E+00  0.00000000000E+00  0.45593999997E+02  0.45594000000E+02  0.51100000000E-03 0. -1.
         11   -1    0    0    0    0 -0.00000000000E+00 -0.00000000000E+00 -0.45593999997E+02  0.45594000000E+02  0.51100000000E-03 0.  1.
    9900012    2    1    2    0    0  0.16350395002E+02  0.75991797045E+01  0.26299044837E+02  0.59301910428E+02  0.49999938722E+02 0.  0.
        -12    1    1    2    0    0 -0.16350395002E+02 -0.75991797045E+01 -0.26299044837E+02  0.31886089572E+02  0.00000000000E+00 0.  1.
         11    1    3    3    0    0  0.54524542722E+01  0.10863608418E+02  0.58268420334E+01  0.13479589526E+02  0.51100000000E-03 0. -1.
        -11    1    3    3    0    0  0.18877857626E+02 -0.13678948894E+02  0.23242874587E+01  0.23428390125E+02  0.51100000000E-03 0.  1.
         12    1    3    3    0    0 -0.79799168969E+01  0.10414520181E+02  0.18147915345E+02  0.22393930777E+02  0.00000000000E+00 0. -1.
</event>
<event>
 7    1  0.1101380E-011  0.5930195E+02  0.7816164E-02  0.1266605E+00
        -11   -1    0    0    0    0  0.00000000000E+00  0.00000000000E+00  0.45593999997E+02  0.45594000000E+02  0.51100000000E-03 0.  1.
         11   -1    0    0    0    0 -0.00000000000E+00 -0.00000000000E+00 -0.45593999997E+02  0.45594000000E+02  0.51100000000E-03 0. -1.
    9900012    2    1    2    0    0 -0.13184795637E+02 -0.47333002397E+01 -0.28643971422E+02  0.59301951861E+02  0.50000014285E+02 0.  0.
        -12    1    1    2    0    0  0.13184795637E+02  0.47333002397E+01  0.28643971422E+02  0.31886048139E+02  0.00000000000E+00 0.  1.
         11    1    3    3    0    0  0.11649064154E+02 -0.61773022821E+00 -0.19513635279E+02  0.22734648631E+02  0.51100000000E-03 0. -1.
        -11    1    3    3    0    0 -0.60274541391E+00  0.61286259126E+01 -0.81847161255E+01  0.10242701593E+02  0.51100000000E-03 0.  1.
         12    1    3    3    0    0 -0.24231114377E+02 -0.10244195924E+02 -0.94562001700E+00  0.26324601637E+02  0.00000000000E+00 0. -1.
</event>
<event>
 7    1  0.1101380E-011  0.5930191E+02  0.7816164E-02  0.1266605E+00
        -11   -1    0    0    0    0  0.00000000000E+00  0.00000000000E+00  0.45593999997E+02  0.45594000000E+02  0.51100000000E-03 0. -1.
         11   -1    0    0    0    0 -0.00000000000E+00 -0.00000000000E+00 -0.45593999997E+02  0.45594000000E+02  0.51100000000E-03 0.  1.
    9900012    2    1    2    0    0 -0.27872124295E+02  0.11092090925E+02 -0.10808931408E+02  0.59301909114E+02  0.49999936326E+02 0.  0.
        -12    1    1    2    0    0  0.27872124295E+02 -0.11092090925E+02  0.10808931408E+02  0.31886090886E+02  0.00000000000E+00 0.  1.
         11    1    3    3    0    0 -0.92167152171E+01  0.58988387270E+01 -0.11363865064E+02  0.15775980704E+02  0.51100000000E-03 0. -1.
        -11    1    3    3    0    0 -0.11198962510E+02 -0.12295505732E+02 -0.12204910307E+02  0.20629010117E+02  0.51100000000E-03 0.  1.
         12    1    3    3    0    0 -0.74564465671E+01  0.17488757931E+02  0.12759843964E+02  0.22896918294E+02  0.00000000000E+00 0. -1.
</event>
<event>
 7    1  0.1101380E-011  0.5930196E+02  0.7816164E-02  0.1266605E+00
        -11   -1    0    0    0    0  0.00000000000E+00  0.00000000000E+00  0.45593999997E+02  0.45594000000E+02  0.51100000000E-03 0. -1.
         11   -1    0    0    0    0 -0.00000000000E+00 -0.00000000000E+00 -0.45593999997E+02  0.45594000000E+02  0.51100000000E-03 0.  1.
    9900012    2    1    2    0    0  0.23523057172E+02 -0.20114377146E+02  0.76679480307E+01  0.59301955816E+02  0.50000021499E+02 0.  0.
        -12    1    1    2    0    0 -0.23523057172E+02  0.20114377146E+02 -0.76679480307E+01  0.31886044184E+02  0.00000000000E+00 0.  1.
         11    1    3    3    0    0  0.14539530357E+02 -0.29031827587E+02 -0.16951187084E+01  0.32513357005E+02  0.51100000000E-03 0. -1.
        -11    1    3    3    0    0 -0.65742078288E+01  0.34903477609E+00  0.55774253242E+01  0.86284243846E+01  0.51100000000E-03 0.  1.
        -12    1    3    3    0    0  0.15557734644E+02  0.85684156650E+01  0.37856414148E+01  0.18160174426E+02  0.00000000000E+00 0.  1.
</event>
<event>
 7    1  0.1101380E-011  0.5930195E+02  0.7816164E-02  0.1266605E+00
        -11   -1    0    0    0    0  0.00000000000E+00  0.00000000000E+00  0.45593999997E+02  0.45594000000E+02  0.51100000000E-03 0. -1.
         11   -1    0    0    0    0 -0.00000000000E+00 -0.00000000000E+00 -0.45593999997E+02  0.45594000000E+02  0.51100000000E-03 0.  1.
    9900012    2    1    2    0    0 -0.12811831175E+02 -0.26969166612E+01  0.29074113542E+02  0.59301945747E+02  0.50000003136E+02 0.  0.
        -12    1    1    2    0    0  0.12811831175E+02  0.26969166612E+01 -0.29074113542E+02  0.31886054253E+02  0.00000000000E+00 0.  1.
         11    1    3    3    0    0 -0.27307868925E+02 -0.25652689415E+01  0.80215283750E+01  0.28577005227E+02  0.51100000000E-03 0. -1.
        -11    1    3    3    0    0  0.11024448854E+01 -0.24440040318E+01  0.16002152836E+02  0.16225209894E+02  0.51100000000E-03 0.  1.
        -12    1    3    3    0    0  0.13393592865E+02  0.23123563121E+01  0.50504323308E+01  0.14499730627E+02  0.00000000000E+00 0.  1.
</event>
<event>
 7    1  0.1101380E-011  0.5930184E+02  0.7816164E-02  0.1266605E+00
        -11   -1    0    0    0    0  0.00000000000E+00  0.00000000000E+00  0.45593999997E+02  0.45594000000E+02  0.51100000000E-03 0.  1.
         11   -1    0    0    0    0 -0.00000000000E+00 -0.00000000000E+00 -0.45593999997E+02  0.45594000000E+02  0.51100000000E-03 0. -1.
    9900012    2    1    2    0    0  0.24372820951E+02 -0.20320856739E+02 -0.31233743099E+01  0.59301841768E+02  0.49999813503E+02 0.  0.
        -12    1    1    2    0    0 -0.24372820951E+02  0.20320856739E+02  0.31233743099E+01  0.31886158232E+02  0.00000000000E+00 0.  1.
         11    1    3    3    0    0  0.73239168474E+01  0.12845413308E+01 -0.21007829870E+01  0.77267777138E+01  0.51100000000E-03 0. -1.
        -11    1    3    3    0    0  0.20229112209E+02 -0.18611645173E+01  0.15565359350E+02  0.25592212215E+02  0.51100000000E-03 0.  1.
         12    1    3    3    0    0 -0.31802081051E+01 -0.19744233552E+02 -0.16587950673E+02  0.25982851839E+02  0.00000000000E+00 0. -1.
</event>
<event>
 7    1  0.1101380E-011  0.5930194E+02  0.7816164E-02  0.1266605E+00
        -11   -1    0    0    0    0  0.00000000000E+00  0.00000000000E+00  0.45593999997E+02  0.45594000000E+02  0.51100000000E-03 0.  1.
         11   -1    0    0    0    0 -0.00000000000E+00 -0.00000000000E+00 -0.45593999997E+02  0.45594000000E+02  0.51100000000E-03 0. -1.
    9900012    2    1    2    0    0 -0.14837930792E+02 -0.15163782156E+02 -0.23803698568E+02  0.59301944349E+02  0.50000000586E+02 0.  0.
        -12    1    1    2    0    0  0.14837930792E+02  0.15163782156E+02  0.23803698568E+02  0.31886055651E+02  0.00000000000E+00 0.  1.
         11    1    3    3    0    0 -0.50828617675E+01  0.22892999848E+01  0.10846198994E+01  0.56791529962E+01  0.51100000000E-03 0. -1.
        -11    1    3    3    0    0 -0.17254488981E+02  0.86045770635E+01 -0.47789836783E+01  0.19864410933E+02  0.51100000000E-03 0.  1.
         12    1    3    3    0    0  0.74994199566E+01 -0.26057659205E+02 -0.20109334789E+02  0.33758380420E+02  0.00000000000E+00 0. -1.
</event>
<event>
 7    1  0.1101380E-011  0.5930196E+02  0.7816164E-02  0.1266605E+00
        -11   -1    0    0    0    0  0.00000000000E+00  0.00000000000E+00  0.45593999997E+02  0.45594000000E+02  0.51100000000E-03 0.  1.
         11   -1    0    0    0    0 -0.00000000000E+00 -0.00000000000E+00 -0.45593999997E+02  0.45594000000E+02  0.51100000000E-03 0. -1.
    9900012    2    1    2    0    0 -0.53985226203E+01  0.17192582672E+02 -0.26305711622E+02  0.59301962156E+02  0.50000033062E+02 0.  0.
        -12    1    1    2    0    0  0.53985226203E+01 -0.17192582672E+02  0.26305711622E+02  0.31886037844E+02  0.00000000000E+00 0.  1.
         11    1    3    3    0    0  0.17316867922E+02  0.14782999730E+02 -0.25001210832E+02  0.33815256009E+02  0.51100000000E-03 0. -1.
        -11    1    3    3    0    0 -0.40115175982E+01  0.36139971306E+01 -0.37662002887E+01  0.65831233906E+01  0.51100000000E-03 0.  1.
        -12    1    3    3    0    0 -0.18703872944E+02 -0.12044141882E+01  0.24616994983E+01  0.18903582757E+02  0.00000000000E+00 0.  1.
</event>
<event>
 7    1  0.1101380E-011  0.5930194E+02  0.7816164E-02  0.1266605E+00
        -11   -1    0    0    0    0  0.00000000000E+00  0.00000000000E+00  0.45593999997E+02  0.45594000000E+02  0.51100000000E-03 0. -1.
         11   -1    0    0    0    0 -0.00000000000E+00 -0.00000000000E+00 -0.45593999997E+02  0.45594000000E+02  0.51100000000E-03 0.  1.
    9900012    2    1    2    0    0  0.66338586932E+01  0.30169998223E+02  0.79046705135E+01  0.59301942077E+02  0.49999996442E+02 0.  0.
        -12    1    1    2    0    0 -0.66338586932E+01 -0.30169998223E+02 -0.79046705135E+01  0.31886057923E+02  0.00000000000E+00 0.  1.
         11    1    3    3    0    0 -0.10959136043E+02  0.12936963096E+02  0.94129174476E+01  0.19392542178E+02  0.51100000000E-03 0. -1.
        -11    1    3    3    0    0  0.83298795546E+01  0.25891933202E+02 -0.12162880914E+01  0.27226062061E+02  0.51100000000E-03 0.  1.
        -12    1    3    3    0    0  0.92631151821E+01 -0.86588980753E+01 -0.29195884278E+00  0.12683337838E+02  0.00000000000E+00 0.  1.
</event>
<event>
 7    1  0.1101380E-011  0.5930195E+02  0.7816164E-02  0.1266605E+00
        -11   -1    0    0    0    0  0.00000000000E+00  0.00000000000E+00  0.45593999997E+02  0.45594000000E+02  0.51100000000E-03 0.  1.
         11   -1    0    0    0    0 -0.00000000000E+00 -0.00000000000E+00 -0.45593999997E+02  0.45594000000E+02  0.51100000000E-03 0. -1.
    9900012    2    1    2    0    0  0.17720318037E+02  0.83649823908E+01 -0.25154276174E+02  0.59301949577E+02  0.50000010121E+02 0.  0.
        -12    1    1    2    0    0 -0.17720318037E+02 -0.83649823908E+01  0.25154276174E+02  0.31886050423E+02  0.00000000000E+00 0.  1.
         11    1    3    3    0    0  0.19419153079E+02  0.14165379144E+02 -0.17428203086E+02  0.29690128589E+02  0.51100000000E-03 0. -1.
        -11    1    3    3    0    0 -0.21856497279E+01  0.10513422747E+02 -0.78310702314E+01  0.13290401944E+02  0.51100000000E-03 0.  1.
        -12    1    3    3    0    0  0.48681468606E+00 -0.16313819500E+02  0.10499714364E+00  0.16321419044E+02  0.00000000000E+00 0.  1.
</event>
<event>
 7    1  0.1101380E-011  0.5930193E+02  0.7816164E-02  0.1266605E+00
        -11   -1    0    0    0    0  0.00000000000E+00  0.00000000000E+00  0.45593999997E+02  0.45594000000E+02  0.51100000000E-03 0.  1.
         11   -1    0    0    0    0 -0.00000000000E+00 -0.00000000000E+00 -0.45593999997E+02  0.45594000000E+02  0.51100000000E-03 0. -1.
    9900012    2    1    2    0    0 -0.24826814866E+00 -0.24761527407E+02 -0.20087964224E+02  0.59301934340E+02  0.49999982332E+02 0.  0.
        -12    1    1    2    0    0  0.24826814866E+00  0.24761527407E+02  0.20087964224E+02  0.31886065660E+02  0.00000000000E+00 0.  1.
         11    1    3    3    0    0  0.12467664718E+02  0.18553035651E+01 -0.61241674134E+01  0.14013930270E+02  0.51100000000E-03 0. -1.
        -11    1    3    3    0    0  0.28256825654E+01 -0.88028541989E+01 -0.18988203435E+02  0.21119341703E+02  0.51100000000E-03 0.  1.
        -12    1    3    3    0    0 -0.15541615432E+02 -0.17813976773E+02  0.50244066242E+01  0.24168662368E+02  0.00000000000E+00 0.  1.
</event>
<event>
 7    1  0.1101380E-011  0.5930195E+02  0.7816164E-02  0.1266605E+00
        -11   -1    0    0    0    0  0.00000000000E+00  0.00000000000E+00  0.45593999997E+02  0.45594000000E+02  0.51100000000E-03 0.  1.
         11   -1    0    0    0    0 -0.00000000000E+00 -0.00000000000E+00 -0.45593999997E+02  0.45594000000E+02  0.51100000000E-03 0. -1.
    9900012    2    1    2    0    0  0.33847027344E+01 -0.17009760670E+02 -0.26756904489E+02  0.59301951193E+02  0.50000013068E+02 0.  0.
        -12    1    1    2    0    0 -0.33847027344E+01  0.17009760670E+02  0.26756904489E+02  0.31886048807E+02  0.00000000000E+00 0.  1.
         11    1    3    3    0    0 -0.10940479749E+02  0.64046529402E+01 -0.26576574465E+02  0.29445338969E+02  0.51100000000E-03 0. -1.
        -11    1    3    3    0    0  0.26089998929E+01 -0.42232395351E+00 -0.28820509596E+01  0.39104291271E+01  0.51100000000E-03 0.  1.
        -12    1    3    3    0    0  0.11716182591E+02 -0.22992089657E+02  0.27017209359E+01  0.25946183097E+02  0.00000000000E+00 0.  1.
</event>
<event>
 7    1  0.1101380E-011  0.5930188E+02  0.7816164E-02  0.1266605E+00
        -11   -1    0    0    0    0  0.00000000000E+00  0.00000000000E+00  0.45593999997E+02  0.45594000000E+02  0.51100000000E-03 0. -1.
         11   -1    0    0    0    0 -0.00000000000E+00 -0.00000000000E+00 -0.45593999997E+02  0.45594000000E+02  0.51100000000E-03 0.  1.
    9900012    2    1    2    0    0 -0.63856541200E+01  0.20497504927E+02  0.23575420164E+02  0.59301878839E+02  0.49999881111E+02 0.  0.
        -12    1    1    2    0    0  0.63856541200E+01 -0.20497504927E+02 -0.23575420164E+02  0.31886121161E+02  0.00000000000E+00 0.  1.
         11    1    3    3    0    0  0.20066922191E+01  0.10477053088E+02  0.69358413274E+01  0.12724046143E+02  0.51100000000E-03 0. -1.
        -11    1    3    3    0    0  0.49571404270E+01 -0.13836539836E+02  0.24297956654E+00  0.14699731806E+02  0.51100000000E-03 0.  1.
         12    1    3    3    0    0 -0.13349486766E+02  0.23856991675E+02  0.16396599270E+02  0.31878100890E+02  0.00000000000E+00 0. -1.
</event>
<event>
 7    1  0.1101380E-011  0.5930171E+02  0.7816164E-02  0.1266606E+00
        -11   -1    0    0    0    0  0.00000000000E+00  0.00000000000E+00  0.45593999997E+02  0.45594000000E+02  0.51100000000E-03 0. -1.
         11   -1    0    0    0    0 -0.00000000000E+00 -0.00000000000E+00 -0.45593999997E+02  0.45594000000E+02  0.51100000000E-03 0.  1.
    9900012    2    1    2    0    0 -0.28235586169E+02 -0.23157232266E+01  0.14632994440E+02  0.59301710993E+02  0.49999574999E+02 0.  0.
        -12    1    1    2    0    0  0.28235586169E+02  0.23157232266E+01 -0.14632994440E+02  0.31886289007E+02  0.00000000000E+00 0.  1.
         11    1    3    3    0    0  0.63853384628E+00  0.65755613917E+01  0.32707670976E+01  0.73718146176E+01  0.51100000000E-03 0. -1.
        -11    1    3    3    0    0 -0.19944749776E+02  0.14551275879E+02  0.77279941046E+00  0.24700807528E+02  0.51100000000E-03 0.  1.
         12    1    3    3    0    0 -0.89293702389E+01 -0.23442560497E+02  0.10589427932E+02  0.27229088847E+02  0.00000000000E+00 0. -1.
</event>
<event>
 7    1  0.1101380E-011  0.5930192E+02  0.7816164E-02  0.1266605E+00
        -11   -1    0    0    0    0  0.00000000000E+00  0.00000000000E+00  0.45593999997E+02  0.45594000000E+02  0.51100000000E-03 0.  1.
         11   -1    0    0    0    0 -0.00000000000E+00 -0.00000000000E+00 -0.45593999997E+02  0.45594000000E+02  0.51100000000E-03 0. -1.
    9900012    2    1    2    0    0 -0.26350604955E+02 -0.95942495624E+01 -0.15176242146E+02  0.59301916330E+02  0.49999949485E+02 0.  0.
        -12    1    1    2    0    0  0.26350604955E+02  0.95942495624E+01  0.15176242146E+02  0.31886083670E+02  0.00000000000E+00 0.  1.
         11    1    3    3    0    0 -0.11027197312E+02  0.78729522565E+00 -0.19791067407E+02  0.22669478682E+02  0.51100000000E-03 0. -1.
        -11    1    3    3    0    0 -0.70431874969E+01  0.94553878828E+01 -0.53403914757E+01  0.12943362450E+02  0.51100000000E-03 0.  1.
         12    1    3    3    0    0 -0.82802201456E+01 -0.19836932671E+02  0.99552167368E+01  0.23689075198E+02  0.00000000000E+00 0. -1.
</event>
<event>
 7    1  0.1101380E-011  0.5930192E+02  0.7816164E-02  0.1266605E+00
        -11   -1    0    0    0    0  0.00000000000E+00  0.00000000000E+00  0.45593999997E+02  0.45594000000E+02  0.51100000000E-03 0. -1.
         11   -1    0    0    0    0 -0.00000000000E+00 -0.00000000000E+00 -0.45593999997E+02  0.45594000000E+02  0.51100000000E-03 0.  1.
    9900012    2    1    2    0    0  0.11601501094E+02 -0.19563863228E+02  0.22346863075E+02  0.59301923707E+02  0.49999962941E+02 0.  0.
        -12    1    1    2    0    0 -0.11601501094E+02  0.19563863228E+02 -0.22346863075E+02  0.31886076293E+02  0.00000000000E+00 0.  1.
         11    1    3    3    0    0 -0.10217937990E+02  0.50371859207E+00  0.70282221649E+01  0.12411925565E+02  0.51100000000E-03 0. -1.
        -11    1    3    3    0    0 -0.12939278958E+01 -0.61832808502E+01 -0.87195785102E+01  0.10767463078E+02  0.51100000000E-03 0.  1.
        -12    1    3    3    0    0  0.23113366980E+02 -0.13884300970E+02  0.24038219420E+02  0.36122535064E+02  0.00000000000E+00 0.  1.
</event>
<event>
 7    1  0.1101380E-011  0.5930194E+02  0.7816164E-02  0.1266605E+00
        -11   -1    0    0    0    0  0.00000000000E+00  0.00000000000E+00  0.45593999997E+02  0.45594000000E+02  0.51100000000E-03 0.  1.
         11   -1    0    0    0    0 -0.00000000000E+00 -0.00000000000E+00 -0.45593999997E+02  0.45594000000E+02  0.51100000000E-03 0. -1.
    9900012    2    1    2    0    0  0.21943981161E+02 -0.22234979118E+02 -0.63865768827E+01  0.59301937686E+02  0.49999988435E+02 0.  0.
        -12    1    1    2    0    0 -0.21943981161E+02  0.22234979118E+02  0.63865768827E+01  0.31886062314E+02  0.00000000000E+00 0.  1.
         11    1    3    3    0    0  0.16598577606E+02 -0.16055994583E+02 -0.18145435394E+02  0.29369449543E+02  0.51100000000E-03 0. -1.
        -11    1    3    3    0    0  0.12367957133E+02  0.31127840842E+01 -0.83194846346E+00  0.12780763941E+02  0.51100000000E-03 0.  1.
        -12    1    3    3    0    0 -0.70225535778E+01 -0.92917686190E+01  0.12590806975E+02  0.17151724202E+02  0.00000000000E+00 0.  1.
</event>
<event>
 7    1  0.1101380E-011  0.5930201E+02  0.7816164E-02  0.1266605E+00
        -11   -1    0    0    0    0  0.00000000000E+00  0.00000000000E+00  0.45593999997E+02  0.45594000000E+02  0.51100000000E-03 0. -1.
         11   -1    0    0    0    0 -0.00000000000E+00 -0.00000000000E+00 -0.45593999997E+02  0.45594000000E+02  0.51100000000E-03 0.  1.
    9900012    2    1    2    0    0  0.28819217453E+02 -0.13508739970E+02 -0.19191484117E+01  0.59302008079E+02  0.50000116813E+02 0.  0.
        -12    1    1    2    0    0 -0.28819217453E+02  0.13508739970E+02  0.19191484117E+01  0.31885991921E+02  0.00000000000E+00 0.  1.
         11    1    3    3    0    0  0.74202402361E+01  0.11932759804E+01 -0.72362217407E+01  0.10432965929E+02  0.51100000000E-03 0. -1.
        -11    1    3    3    0    0  0.15684036564E+02 -0.22125404166E+02 -0.11626781132E+02  0.29507703269E+02  0.51100000000E-03 0.  1.
         12    1    3    3    0    0  0.57149406530E+01  0.74233882160E+01  0.16943854461E+02  0.19361338881E+02  0.00000000000E+00 0. -1.
</event>
<event>
 7    1  0.1101380E-011  0.5930195E+02  0.7816164E-02  0.1266605E+00
        -11   -1    0    0    0    0  0.00000000000E+00  0.00000000000E+00  0.45593999997E+02  0.45594000000E+02  0.51100000000E-03 0.  1.
         11   -1    0    0    0    0 -0.00000000000E+00 -0.00000000000E+00 -0.45593999997E+02  0.45594000000E+02  0.51100000000E-03 0. -1.
    9900012    2    1    2    0    0 -0.83485805212E+01 -0.73916567912E+01 -0.29872814122E+02  0.59301946459E+02  0.50000004434E+02 0.  0.
        -12    1    1    2    0    0  0.83485805212E+01  0.73916567912E+01  0.29872814122E+02  0.31886053541E+02  0.00000000000E+00 0.  1.
         11    1    3    3    0    0 -0.31273229199E+01  0.11790600447E+01 -0.31316469046E+02  0.31494310041E+02  0.51100000000E-03 0. -1.
        -11    1    3    3    0    0 -0.83063214173E+01  0.43095263826E+01 -0.73589565072E+01  0.11904672791E+02  0.51100000000E-03 0.  1.
        -12    1    3    3    0    0  0.30850638160E+01 -0.12880243218E+02  0.88026114307E+01  0.15902963627E+02  0.00000000000E+00 0.  1.
</event>
<event>
 7    1  0.1101380E-011  0.5930193E+02  0.7816164E-02  0.1266605E+00
        -11   -1    0    0    0    0  0.00000000000E+00  0.00000000000E+00  0.45593999997E+02  0.45594000000E+02  0.51100000000E-03 0.  1.
         11   -1    0    0    0    0 -0.00000000000E+00 -0.00000000000E+00 -0.45593999997E+02  0.45594000000E+02  0.51100000000E-03 0. -1.
    9900012    2    1    2    0    0  0.61998704242E+01  0.95495260289E+01 -0.29784048848E+02  0.59301930841E+02  0.49999975951E+02 0.  0.
        -12    1    1    2    0    0 -0.61998704242E+01 -0.95495260289E+01  0.29784048848E+02  0.31886069159E+02  0.00000000000E+00 0.  1.
         11    1    3    3    0    0 -0.32504074468E+01  0.98068386091E+01 -0.16039091353E+02  0.19078566083E+02  0.51100000000E-03 0. -1.
        -11    1    3    3    0    0  0.16998343587E+02  0.89927664474E+01  0.31999471444E+01  0.19494953066E+02  0.51100000000E-03 0.  1.
         12    1    3    3    0    0 -0.75480657156E+01 -0.92500790275E+01 -0.16944904639E+02  0.20728411692E+02  0.00000000000E+00 0. -1.
</event>
<event>
 7    1  0.1101380E-011  0.5930196E+02  0.7816164E-02  0.1266605E+00
        -11   -1    0    0    0    0  0.00000000000E+00  0.00000000000E+00  0.45593999997E+02  0.45594000000E+02  0.51100000000E-03 0. -1.
         11   -1    0    0    0    0 -0.00000000000E+00 -0.00000000000E+00 -0.45593999997E+02  0.45594000000E+02  0.51100000000E-03 0.  1.
    9900012    2    1    2    0    0 -0.94997725632E+01  0.28601643052E+02  0.10412499904E+02  0.59301955744E+02  0.50000021368E+02 0.  0.
        -12    1    1    2    0    0  0.94997725632E+01 -0.28601643052E+02 -0.10412499904E+02  0.31886044256E+02  0.00000000000E+00 0.  1.
         11    1    3    3    0    0 -0.70048972381E+01  0.17421406835E+02  0.20540964890E+02  0.27829934249E+02  0.51100000000E-03 0. -1.
        -11    1    3    3    0    0 -0.74849647931E+00 -0.89730636953E+01 -0.60169834365E+01  0.10829598746E+02  0.51100000000E-03 0.  1.
         12    1    3    3    0    0 -0.17463788457E+01  0.20153299912E+02 -0.41114815499E+01  0.20642422749E+02  0.00000000000E+00 0. -1.
</event>
<event>
 7    1  0.1101380E-011  0.5930198E+02  0.7816164E-02  0.1266605E+00
        -11   -1    0    0    0    0  0.00000000000E+00  0.00000000000E+00  0.45593999997E+02  0.45594000000E+02  0.51100000000E-03 0.  1.
         11   -1    0    0    0    0 -0.00000000000E+00 -0.00000000000E+00 -0.45593999997E+02  0.45594000000E+02  0.51100000000E-03 0. -1.
    9900012    2    1    2    0    0 -0.31083625338E+02 -0.59860995504E+01 -0.38331496458E+01  0.59301981306E+02  0.50000067986E+02 0.  0.
        -12    1    1    2    0    0  0.31083625338E+02  0.59860995504E+01  0.38331496458E+01  0.31886018694E+02  0.00000000000E+00 0.  1.
         11    1    3    3    0    0 -0.28666735948E+02  0.16412191807E+01 -0.87440512247E+01  0.30015559005E+02  0.51100000000E-03 0. -1.
        -11    1    3    3    0    0 -0.98237372373E+01  0.71709678484E+01  0.36095393137E+01  0.12686897474E+02  0.51100000000E-03 0.  1.
         12    1    3    3    0    0  0.74068478475E+01 -0.14798286580E+02  0.13013622652E+01  0.16599524827E+02  0.00000000000E+00 0. -1.
</event>
<event>
 7    1  0.1101380E-011  0.5930196E+02  0.7816164E-02  0.1266605E+00
        -11   -1    0    0    0    0  0.00000000000E+00  0.00000000000E+00  0.45593999997E+02  0.45594000000E+02  0.51100000000E-03 0.  1.
         11   -1    0    0    0    0 -0.00000000000E+00 -0.00000000000E+00 -0.45593999997E+02  0.45594000000E+02  0.51100000000E-03 0. -1.
    9900012    2    1    2    0    0  0.25882310735E+02 -0.18617763809E+02  0.45194458976E+00  0.59301962426E+02  0.50000033555E+02 0.  0.
        -12    1    1    2    0    0 -0.25882310735E+02  0.18617763809E+02 -0.45194458976E+00  0.31886037574E+02  0.00000000000E+00 0.  1.
         11    1    3    3    0    0 -0.73310761067E+01 -0.31790425611E+01 -0.11054336910E+01  0.80667820346E+01  0.51100000000E-03 0. -1.
        -11    1    3    3    0    0  0.17021558940E+02  0.74292505054E+01 -0.98020386520E+01  0.21000171280E+02  0.51100000000E-03 0.  1.
        -12    1    3    3    0    0  0.16191827902E+02 -0.22867971753E+02  0.11359416933E+02  0.30235009111E+02  0.00000000000E+00 0.  1.
</event>
<event>
 7    1  0.1101380E-011  0.5930194E+02  0.7816164E-02  0.1266605E+00
        -11   -1    0    0    0    0  0.00000000000E+00  0.00000000000E+00  0.45593999997E+02  0.45594000000E+02  0.51100000000E-03 0. -1.
         11   -1    0    0    0    0 -0.00000000000E+00 -0.00000000000E+00 -0.45593999997E+02  0.45594000000E+02  0.51100000000E-03 0.  1.
    9900012    2    1    2    0    0 -0.88384346949E+01 -0.30020642064E+02  0.61126004482E+01  0.59301940945E+02  0.49999994379E+02 0.  0.
        -12    1    1    2    0    0  0.88384346949E+01  0.30020642064E+02 -0.61126004482E+01  0.31886059055E+02  0.00000000000E+00 0.  1.
         11    1    3    3    0    0 -0.67551783515E+01 -0.65246146761E+01  0.27245540198E+01  0.97788662993E+01  0.51100000000E-03 0. -1.
        -11    1    3    3    0    0  0.17464256965E+00  0.76747848842E+01  0.14456584020E+02  0.16368434404E+02  0.51100000000E-03 0.  1.
        -12    1    3    3    0    0 -0.22578989130E+01 -0.31170812272E+02 -0.11068537591E+02  0.33154640243E+02  0.00000000000E+00 0.  1.
</event>
<event>
 7    1  0.1101380E-011  0.5930178E+02  0.7816164E-02  0.1266605E+00
        -11   -1    0    0    0    0  0.00000000000E+00  0.00000000000E+00  0.45593999997E+02  0.45594000000E+02  0.51100000000E-03 0. -1.
         11   -1    0    0    0    0 -0.00000000000E+00 -0.00000000000E+00 -0.45593999997E+02  0.45594000000E+02  0.51100000000E-03 0.  1.
    9900012    2    1    2    0    0  0.27285978375E+02  0.68796074683E+01  0.14995906024E+02  0.59301783350E+02  0.49999706962E+02 0.  0.
        -12    1    1    2    0    0 -0.27285978375E+02 -0.68796074683E+01 -0.14995906024E+02  0.31886216650E+02  0.00000000000E+00 0.  1.
         11    1    3    3    0    0  0.26511993485E+02  0.33873893579E+01  0.44414457798E+01  0.27094033403E+02  0.51100000000E-03 0. -1.
        -11    1    3    3    0    0  0.13570636355E+02 -0.45533200335E+01  0.92347309913E+01  0.17034528204E+02  0.51100000000E-03 0.  1.
        -12    1    3    3    0    0 -0.12796651465E+02  0.80455381439E+01  0.13197292526E+01  0.15173221742E+02  0.00000000000E+00 0.  1.
</event>
<event>
 7    1  0.1101380E-011  0.5930191E+02  0.7816164E-02  0.1266605E+00
        -11   -1    0    0    0    0  0.00000000000E+00  0.00000000000E+00  0.45593999997E+02  0.45594000000E+02  0.51100000000E-03 0.  1.
         11   -1    0    0    0    0 -0.00000000000E+00 -0.00000000000E+00 -0.45593999997E+02  0.45594000000E+02  0.51100000000E-03 0. -1.
    9900012    2    1    2    0    0  0.15698458722E+01 -0.26512034039E+02 -0.17645698573E+02  0.59301905177E+02  0.49999929145E+02 0.  0.
        -12    1    1    2    0    0 -0.15698458722E+01  0.26512034039E+02  0.17645698573E+02  0.31886094823E+02  0.00000000000E+00 0.  1.
         11    1    3    3    0    0 -0.20749573597E+01 -0.30071263390E+02 -0.61536483513E+01  0.30764487940E+02  0.51100000000E-03 0. -1.
        -11    1    3    3    0    0  0.33599014673E+01 -0.10396687010E+02 -0.94188183850E+01  0.14425469791E+02  0.51100000000E-03 0.  1.
        -12    1    3    3    0    0  0.28490176455E+00  0.13955916361E+02 -0.20732318371E+01  0.14111947447E+02  0.00000000000E+00 0.  1.
</event>
<event>
 7    1  0.1101380E-011  0.5930196E+02  0.7816164E-02  0.1266605E+00
        -11   -1    0    0    0    0  0.00000000000E+00  0.00000000000E+00  0.45593999997E+02  0.45594000000E+02  0.51100000000E-03 0. -1.
         11   -1    0    0    0    0 -0.00000000000E+00 -0.00000000000E+00 -0.45593999997E+02  0.45594000000E+02  0.51100000000E-03 0.  1.
    9900012    2    1    2    0    0 -0.22228015829E+02 -0.16973715029E+02 -0.15314300260E+02  0.59301961017E+02  0.50000030984E+02 0.  0.
        -12    1    1    2    0    0  0.22228015829E+02  0.16973715029E+02  0.15314300260E+02  0.31886038983E+02  0.00000000000E+00 0.  1.
         11    1    3    3    0    0  0.44202592433E+01 -0.60561154101E+01 -0.23472919632E+01  0.78565262973E+01  0.51100000000E-03 0. -1.
        -11    1    3    3    0    0  0.80783230287E+00  0.63714683119E+01 -0.17539808721E+02  0.18678680138E+02  0.51100000000E-03 0.  1.
        -12    1    3    3    0    0 -0.27456107375E+02 -0.17289067931E+02  0.45728004240E+01  0.32766754582E+02  0.00000000000E+00 0.  1.
</event>
<event>
 7    1  0.1101380E-011  0.5930195E+02  0.7816164E-02  0.1266605E+00
        -11   -1    0    0    0    0  0.00000000000E+00  0.00000000000E+00  0.45593999997E+02  0.45594000000E+02  0.51100000000E-03 0.  1.
         11   -1    0    0    0    0 -0.00000000000E+00 -0.00000000000E+00 -0.45593999997E+02  0.45594000000E+02  0.51100000000E-03 0. -1.
    9900012    2    1    2    0    0 -0.16200143203E+02 -0.16783862259E+02 -0.21738848497E+02  0.59301949663E+02  0.50000010278E+02 0.  0.
        -12    1    1    2    0    0  0.16200143203E+02  0.16783862259E+02  0.21738848497E+02  0.31886050337E+02  0.00000000000E+00 0.  1.
         11    1    3    3    0    0 -0.49734100627E+01 -0.12465027609E+01  0.15993564802E+01  0.53708954744E+01  0.51100000000E-03 0.  1.
        -11    1    3    3    0    0 -0.25698154355E+02 -0.36669697073E+01 -0.23786667783E+02  0.35208626337E+02  0.51100000000E-03 0. -1.
        -12    1    3    3    0    0  0.14471421215E+02 -0.11870389791E+02  0.44846280566E+00  0.18722427852E+02  0.00000000000E+00 0.  1.
</event>
<event>
 7    1  0.1101380E-011  0.5930195E+02  0.7816164E-02  0.1266605E+00
        -11   -1    0    0    0    0  0.00000000000E+00  0.00000000000E+00  0.45593999997E+02  0.45594000000E+02  0.51100000000E-03 0. -1.
         11   -1    0    0    0    0 -0.00000000000E+00 -0.00000000000E+00 -0.45593999997E+02  0.45594000000E+02  0.51100000000E-03 0.  1.
    9900012    2    1    2    0    0  0.30539514787E+02  0.33313156657E+01  0.85416908828E+01  0.59301951160E+02  0.50000013008E+02 0.  0.
        -12    1    1    2    0    0 -0.30539514787E+02 -0.33313156657E+01 -0.85416908828E+01  0.31886048840E+02  0.00000000000E+00 0.  1.
         11    1    3    3    0    0  0.55539083519E+01  0.13655643703E+02  0.26724033111E+01  0.14982130778E+02  0.51100000000E-03 0. -1.
        -11    1    3    3    0    0  0.13332485476E+00  0.28224061487E+01 -0.11117758089E+02  0.11471194235E+02  0.51100000000E-03 0.  1.
         12    1    3    3    0    0  0.24852281580E+02 -0.13146734186E+02  0.16987045661E+02  0.32848626148E+02  0.00000000000E+00 0. -1.
</event>
<event>
 7    1  0.1101380E-011  0.5930197E+02  0.7816164E-02  0.1266605E+00
        -11   -1    0    0    0    0  0.00000000000E+00  0.00000000000E+00  0.45593999997E+02  0.45594000000E+02  0.51100000000E-03 0.  1.
         11   -1    0    0    0    0 -0.00000000000E+00 -0.00000000000E+00 -0.45593999997E+02  0.45594000000E+02  0.51100000000E-03 0. -1.
    9900012    2    1    2    0    0 -0.31116129254E+00  0.30864368503E+02 -0.80007830120E+01  0.59301974954E+02  0.50000056403E+02 0.  0.
        -12    1    1    2    0    0  0.31116129254E+00 -0.30864368503E+02  0.80007830120E+01  0.31886025046E+02  0.00000000000E+00 0.  1.
         11    1    3    3    0    0 -0.97438025060E+01  0.17921043331E+02 -0.10536977319E+02  0.22959385284E+02  0.51100000000E-03 0. -1.
        -11    1    3    3    0    0 -0.86557210251E+01  0.13959265854E+02  0.67238498125E+01  0.17748035559E+02  0.51100000000E-03 0.  1.
         12    1    3    3    0    0  0.18088362239E+02 -0.10159406827E+01 -0.41876555059E+01  0.18594554111E+02  0.00000000000E+00 0. -1.
</event>
<event>
 7    1  0.1101380E-011  0.5930193E+02  0.7816164E-02  0.1266605E+00
        -11   -1    0    0    0    0  0.00000000000E+00  0.00000000000E+00  0.45593999997E+02  0.45594000000E+02  0.51100000000E-03 0. -1.
         11   -1    0    0    0    0 -0.00000000000E+00 -0.00000000000E+00 -0.45593999997E+02  0.45594000000E+02  0.51100000000E-03 0.  1.
    9900012    2    1    2    0    0  0.13214842796E+01  0.31466824355E+02  0.49813522024E+01  0.59301933678E+02  0.49999981125E+02 0.  0.
        -12    1    1    2    0    0 -0.13214842796E+01 -0.31466824355E+02 -0.49813522024E+01  0.31886066322E+02  0.00000000000E+00 0.  1.
         11    1    3    3    0    0 -0.56940822097E+01 -0.45799281584E+00 -0.42759265131E+01  0.71355362403E+01  0.51100000000E-03 0. -1.
        -11    1    3    3    0    0  0.23210136684E+02  0.20005811706E+02  0.17136414924E+01  0.30690055626E+02  0.51100000000E-03 0.  1.
         12    1    3    3    0    0 -0.16194570195E+02  0.11919005465E+02  0.75436372231E+01  0.21476341812E+02  0.00000000000E+00 0. -1.
</event>
<event>
 7    1  0.1101380E-011  0.5930196E+02  0.7816164E-02  0.1266605E+00
        -11   -1    0    0    0    0  0.00000000000E+00  0.00000000000E+00  0.45593999997E+02  0.45594000000E+02  0.51100000000E-03 0.  1.
         11   -1    0    0    0    0 -0.00000000000E+00 -0.00000000000E+00 -0.45593999997E+02  0.45594000000E+02  0.51100000000E-03 0. -1.
    9900012    2    1    2    0    0  0.22187622541E+01 -0.18537726962E+01 -0.31754687877E+02  0.59301959460E+02  0.50000028145E+02 0.  0.
        -12    1    1    2    0    0 -0.22187622541E+01  0.18537726962E+01  0.31754687877E+02  0.31886040540E+02  0.00000000000E+00 0.  1.
         11    1    3    3    0    0  0.53340015936E+00 -0.12846816890E+02 -0.16009367245E+02  0.20533510654E+02  0.51100000000E-03 0. -1.
        -11    1    3    3    0    0 -0.33370267108E+01 -0.39803173508E+01 -0.21378677578E+02  0.22000602917E+02  0.51100000000E-03 0.  1.
        -12    1    3    3    0    0  0.50223888055E+01  0.14973361544E+02  0.56333569461E+01  0.16767845888E+02  0.00000000000E+00 0.  1.
</event>
<event>
 7    1  0.1101380E-011  0.5930194E+02  0.7816164E-02  0.1266605E+00
        -11   -1    0    0    0    0  0.00000000000E+00  0.00000000000E+00  0.45593999997E+02  0.45594000000E+02  0.51100000000E-03 0.  1.
         11   -1    0    0    0    0 -0.00000000000E+00 -0.00000000000E+00 -0.45593999997E+02  0.45594000000E+02  0.51100000000E-03 0. -1.
    9900012    2    1    2    0    0  0.29631445879E+02  0.65058894201E+01  0.98168963544E+01  0.59301942921E+02  0.49999997981E+02 0.  0.
        -12    1    1    2    0    0 -0.29631445879E+02 -0.65058894201E+01 -0.98168963544E+01  0.31886057079E+02  0.00000000000E+00 0.  1.
         11    1    3    3    0    0 -0.23752533574E+01 -0.94834491243E+01 -0.30340717223E+01  0.10236367875E+02  0.51100000000E-03 0. -1.
        -11    1    3    3    0    0  0.21131182282E+01 -0.14775161970E+01  0.14184950436E+02  0.14417390259E+02  0.51100000000E-03 0.  1.
         12    1    3    3    0    0  0.29893581008E+02  0.17466854741E+02 -0.13339823589E+01  0.34648184786E+02  0.00000000000E+00 0. -1.
</event>
<event>
 7    1  0.1101380E-011  0.5930194E+02  0.7816164E-02  0.1266605E+00
        -11   -1    0    0    0    0  0.00000000000E+00  0.00000000000E+00  0.45593999997E+02  0.45594000000E+02  0.51100000000E-03 0.  1.
         11   -1    0    0    0    0 -0.00000000000E+00 -0.00000000000E+00 -0.45593999997E+02  0.45594000000E+02  0.51100000000E-03 0. -1.
    9900012    2    1    2    0    0 -0.28046364923E+02 -0.12623673505E+02  0.84121975384E+01  0.59301940577E+02  0.49999993706E+02 0.  0.
        -12    1    1    2    0    0  0.28046364923E+02  0.12623673505E+02 -0.84121975384E+01  0.31886059423E+02  0.00000000000E+00 0.  1.
         11    1    3    3    0    0 -0.22966777543E+02 -0.93345396232E+01 -0.88481293807E+01  0.26322915767E+02  0.51100000000E-03 0. -1.
        -11    1    3    3    0    0 -0.15424387165E+02 -0.72110585436E+01  0.10000160416E+02  0.19746247577E+02  0.51100000000E-03 0.  1.
        -12    1    3    3    0    0  0.10344799785E+02  0.39219246619E+01  0.72601665030E+01  0.13232777233E+02  0.00000000000E+00 0.  1.
</event>
<event>
 7    1  0.1101380E-011  0.5930195E+02  0.7816164E-02  0.1266605E+00
        -11   -1    0    0    0    0  0.00000000000E+00  0.00000000000E+00  0.45593999997E+02  0.45594000000E+02  0.51100000000E-03 0.  1.
         11   -1    0    0    0    0 -0.00000000000E+00 -0.00000000000E+00 -0.45593999997E+02  0.45594000000E+02  0.51100000000E-03 0. -1.
    9900012    2    1    2    0    0 -0.18911084136E+02  0.24593786590E+02 -0.73645424069E+01  0.59301954041E+02  0.50000018261E+02 0.  0.
        -12    1    1    2    0    0  0.18911084136E+02 -0.24593786590E+02  0.73645424069E+01  0.31886045959E+02  0.00000000000E+00 0.  1.
         11    1    3    3    0    0 -0.97422786908E+01  0.15101310689E+02 -0.23686507293E+02  0.29732342770E+02  0.51100000000E-03 0. -1.
        -11    1    3    3    0    0 -0.85147685493E+01 -0.12658399857E+01 -0.15037868571E+01  0.87387075412E+01  0.51100000000E-03 0.  1.
        -12    1    3    3    0    0 -0.65403689633E+00  0.10758315887E+02  0.17825751743E+02  0.20830903730E+02  0.00000000000E+00 0.  1.
</event>
<event>
 7    1  0.1101380E-011  0.5930197E+02  0.7816164E-02  0.1266605E+00
        -11   -1    0    0    0    0  0.00000000000E+00  0.00000000000E+00  0.45593999997E+02  0.45594000000E+02  0.51100000000E-03 0.  1.
         11   -1    0    0    0    0 -0.00000000000E+00 -0.00000000000E+00 -0.45593999997E+02  0.45594000000E+02  0.51100000000E-03 0. -1.
    9900012    2    1    2    0    0  0.25248288809E+02 -0.55564003367E+01 -0.18664649528E+02  0.59301971485E+02  0.50000050075E+02 0.  0.
        -12    1    1    2    0    0 -0.25248288809E+02  0.55564003367E+01  0.18664649528E+02  0.31886028515E+02  0.00000000000E+00 0.  1.
         11    1    3    3    0    0 -0.73732162639E+01 -0.16534868977E+02 -0.15031086907E+02  0.23530826250E+02  0.51100000000E-03 0.  1.
        -11    1    3    3    0    0  0.10747562946E+02  0.81738142504E+01 -0.66238402973E+00  0.13518879448E+02  0.51100000000E-03 0. -1.
        -12    1    3    3    0    0  0.21873942127E+02  0.28046543897E+01 -0.29711785912E+01  0.22252265787E+02  0.00000000000E+00 0.  1.
</event>
<event>
 7    1  0.1101380E-011  0.5930193E+02  0.7816164E-02  0.1266605E+00
        -11   -1    0    0    0    0  0.00000000000E+00  0.00000000000E+00  0.45593999997E+02  0.45594000000E+02  0.51100000000E-03 0.  1.
         11   -1    0    0    0    0 -0.00000000000E+00 -0.00000000000E+00 -0.45593999997E+02  0.45594000000E+02  0.51100000000E-03 0. -1.
    9900012    2    1    2    0    0 -0.12531139272E+02 -0.29316827670E+02 -0.46451963470E+00  0.59301927576E+02  0.49999969997E+02 0.  0.
        -12    1    1    2    0    0  0.12531139272E+02  0.29316827670E+02  0.46451963470E+00  0.31886072424E+02  0.00000000000E+00 0.  1.
         11    1    3    3    0    0 -0.75800247279E+01 -0.36222887146E+02  0.25588607539E+01  0.37095850127E+02  0.51100000000E-03 0. -1.
        -11    1    3    3    0    0 -0.62871830928E+01 -0.14013112690E+01  0.67360777264E+01  0.93202514940E+01  0.51100000000E-03 0.  1.
        -12    1    3    3    0    0  0.13360685484E+01  0.83073707442E+01 -0.97594581150E+01  0.12885825955E+02  0.00000000000E+00 0.  1.
</event>
<event>
 7    1  0.1101380E-011  0.5930195E+02  0.7816164E-02  0.1266605E+00
        -11   -1    0    0    0    0  0.00000000000E+00  0.00000000000E+00  0.45593999997E+02  0.45594000000E+02  0.51100000000E-03 0. -1.
         11   -1    0    0    0    0 -0.00000000000E+00 -0.00000000000E+00 -0.45593999997E+02  0.45594000000E+02  0.51100000000E-03 0.  1.
    9900012    2    1    2    0    0  0.30269096185E+02  0.80181439735E+01  0.60176018145E+01  0.59301947434E+02  0.50000006213E+02 0.  0.
        -12    1    1    2    0    0 -0.30269096185E+02 -0.80181439735E+01 -0.60176018145E+01  0.31886052566E+02  0.00000000000E+00 0.  1.
         11    1    3    3    0    0  0.61047827409E+01 -0.63795015661E+01 -0.88374055609E+01  0.12492643830E+02  0.51100000000E-03 0. -1.
        -11    1    3    3    0    0  0.16186176036E+02  0.14848075460E+02 -0.73882789018E+01  0.23174216382E+02  0.51100000000E-03 0.  1.
         12    1    3    3    0    0  0.79781374075E+01 -0.45042992013E+00  0.22243286277E+02  0.23635087222E+02  0.00000000000E+00 0. -1.
</event>
<event>
 7    1  0.1101380E-011  0.5930193E+02  0.7816164E-02  0.1266605E+00
        -11   -1    0    0    0    0  0.00000000000E+00  0.00000000000E+00  0.45593999997E+02  0.45594000000E+02  0.51100000000E-03 0. -1.
         11   -1    0    0    0    0 -0.00000000000E+00 -0.00000000000E+00 -0.45593999997E+02  0.45594000000E+02  0.51100000000E-03 0.  1.
    9900012    2    1    2    0    0 -0.27374073431E+02  0.87261809586E+01 -0.13828794786E+02  0.59301926307E+02  0.49999967681E+02 0.  0.
        -12    1    1    2    0    0  0.27374073431E+02 -0.87261809586E+01  0.13828794786E+02  0.31886073693E+02  0.00000000000E+00 0.  1.
         11    1    3    3    0    0  0.25167510261E+01  0.77619064295E+00 -0.21202441951E+02  0.21365393809E+02  0.51100000000E-03 0. -1.
        -11    1    3    3    0    0  0.32173021927E+01  0.11056091006E+01  0.53870473201E+00  0.34443588564E+01  0.51100000000E-03 0.  1.
         12    1    3    3    0    0 -0.33108126650E+02  0.68443812150E+01  0.68349424328E+01  0.34492173642E+02  0.00000000000E+00 0. -1.
</event>
<event>
 7    1  0.1101380E-011  0.5930195E+02  0.7816164E-02  0.1266605E+00
        -11   -1    0    0    0    0  0.00000000000E+00  0.00000000000E+00  0.45593999997E+02  0.45594000000E+02  0.51100000000E-03 0.  1.
         11   -1    0    0    0    0 -0.00000000000E+00 -0.00000000000E+00 -0.45593999997E+02  0.45594000000E+02  0.51100000000E-03 0. -1.
    9900012    2    1    2    0    0 -0.22774014152E+02 -0.22035026853E+02 -0.35386631337E+01  0.59301948727E+02  0.50000008570E+02 0.  0.
        -12    1    1    2    0    0  0.22774014152E+02  0.22035026853E+02  0.35386631337E+01  0.31886051273E+02  0.00000000000E+00 0.  1.
         11    1    3    3    0    0 -0.31985759968E+02 -0.14178370743E+02  0.63980989272E+01  0.35567551333E+02  0.51100000000E-03 0. -1.
        -11    1    3    3    0    0  0.11263044998E+02 -0.28785721892E+01  0.87316668870E+00  0.11657820585E+02  0.51100000000E-03 0.  1.
        -12    1    3    3    0    0 -0.20512991820E+01 -0.49780839205E+01 -0.10809928750E+02  0.12076576809E+02  0.00000000000E+00 0.  1.
</event>
<event>
 7    1  0.1101380E-011  0.5930193E+02  0.7816164E-02  0.1266605E+00
        -11   -1    0    0    0    0  0.00000000000E+00  0.00000000000E+00  0.45593999997E+02  0.45594000000E+02  0.51100000000E-03 0.  1.
         11   -1    0    0    0    0 -0.00000000000E+00 -0.00000000000E+00 -0.45593999997E+02  0.45594000000E+02  0.51100000000E-03 0. -1.
    9900012    2    1    2    0    0 -0.89097000731E+01 -0.10239221557E+02 -0.28853024187E+02  0.59301930655E+02  0.49999975612E+02 0.  0.
        -12    1    1    2    0    0  0.89097000731E+01  0.10239221557E+02  0.28853024187E+02  0.31886069345E+02  0.00000000000E+00 0.  1.
         11    1    3    3    0    0 -0.47048608304E+00  0.82634150637E+01 -0.28497361857E+02  0.29674989785E+02  0.51100000000E-03 0. -1.
        -11    1    3    3    0    0 -0.49474069056E+01  0.30666819249E+01 -0.45372947538E+01  0.73802721536E+01  0.51100000000E-03 0.  1.
        -12    1    3    3    0    0 -0.34918070845E+01 -0.21569318546E+02  0.41816324235E+01  0.22246668716E+02  0.00000000000E+00 0.  1.
</event>
<event>
 7    1  0.1101380E-011  0.5930196E+02  0.7816164E-02  0.1266605E+00
        -11   -1    0    0    0    0  0.00000000000E+00  0.00000000000E+00  0.45593999997E+02  0.45594000000E+02  0.51100000000E-03 0.  1.
         11   -1    0    0    0    0 -0.00000000000E+00 -0.00000000000E+00 -0.45593999997E+02  0.45594000000E+02  0.51100000000E-03 0. -1.
    9900012    2    1    2    0    0 -0.16324186684E+02  0.16619986367E+02 -0.21771925205E+02  0.59301956895E+02  0.50000023468E+02 0.  0.
        -12    1    1    2    0    0  0.16324186684E+02 -0.16619986367E+02  0.21771925205E+02  0.31886043105E+02  0.00000000000E+00 0.  1.
         11    1    3    3    0    0 -0.81551108539E+01  0.99525804623E+01 -0.25706353770E+02  0.28746761823E+02  0.51100000000E-03 0. -1.
        -11    1    3    3    0    0 -0.92385186779E+01 -0.68463327137E+01 -0.67154507596E+01  0.13316147271E+02  0.51100000000E-03 0.  1.
        -12    1    3    3    0    0  0.10694428481E+01  0.13513738619E+02  0.10649879324E+02  0.17239047801E+02  0.00000000000E+00 0.  1.
</event>
<event>
 7    1  0.1101380E-011  0.5930196E+02  0.7816164E-02  0.1266605E+00
        -11   -1    0    0    0    0  0.00000000000E+00  0.00000000000E+00  0.45593999997E+02  0.45594000000E+02  0.51100000000E-03 0. -1.
         11   -1    0    0    0    0 -0.00000000000E+00 -0.00000000000E+00 -0.45593999997E+02  0.45594000000E+02  0.51100000000E-03 0.  1.
    9900012    2    1    2    0    0  0.24317496250E+02  0.11231333749E+02  0.17298441219E+02  0.59301959947E+02  0.50000029033E+02 0.  0.
        -12    1    1    2    0    0 -0.24317496250E+02 -0.11231333749E+02 -0.17298441219E+02  0.31886040053E+02  0.00000000000E+00 0.  1.
         11    1    3    3    0    0  0.14868550611E+02  0.15057761476E+02  0.18517108722E+02  0.28119269081E+02  0.51100000000E-03 0. -1.
        -11    1    3    3    0    0 -0.88214193047E+01  0.52626406809E+01  0.21653595899E+01  0.10497695361E+02  0.51100000000E-03 0.  1.
         12    1    3    3    0    0  0.18270364944E+02 -0.90890684073E+01 -0.33840270936E+01  0.20684995505E+02  0.00000000000E+00 0. -1.
</event>
<event>
 7    1  0.1101380E-011  0.5930190E+02  0.7816164E-02  0.1266605E+00
        -11   -1    0    0    0    0  0.00000000000E+00  0.00000000000E+00  0.45593999997E+02  0.45594000000E+02  0.51100000000E-03 0.  1.
         11   -1    0    0    0    0 -0.00000000000E+00 -0.00000000000E+00 -0.45593999997E+02  0.45594000000E+02  0.51100000000E-03 0. -1.
    9900012    2    1    2    0    0 -0.10856229205E+02  0.29971511907E+02 -0.75771648142E+00  0.59301900006E+02  0.49999919715E+02 0.  0.
        -12    1    1    2    0    0  0.10856229205E+02 -0.29971511907E+02  0.75771648142E+00  0.31886099994E+02  0.00000000000E+00 0.  1.
         11    1    3    3    0    0 -0.10518181814E+02 -0.19582377773E+01 -0.70936726573E+01  0.12836940285E+02  0.51100000000E-03 0. -1.
        -11    1    3    3    0    0  0.14635577520E+02  0.89932349120E+01  0.81506059785E+01  0.19013436870E+02  0.51100000000E-03 0.  1.
         12    1    3    3    0    0 -0.14973624911E+02  0.22936514773E+02 -0.18146498027E+01  0.27451522851E+02  0.00000000000E+00 0. -1.
</event>
<event>
 7    1  0.1101380E-011  0.5930191E+02  0.7816164E-02  0.1266605E+00
        -11   -1    0    0    0    0  0.00000000000E+00  0.00000000000E+00  0.45593999997E+02  0.45594000000E+02  0.51100000000E-03 0. -1.
         11   -1    0    0    0    0 -0.00000000000E+00 -0.00000000000E+00 -0.45593999997E+02  0.45594000000E+02  0.51100000000E-03 0.  1.
    9900012    2    1    2    0    0 -0.14151995952E+02  0.23207015385E+02 -0.16669687374E+02  0.59301905387E+02  0.49999929529E+02 0.  0.
        -12    1    1    2    0    0  0.14151995952E+02 -0.23207015385E+02  0.16669687374E+02  0.31886094613E+02  0.00000000000E+00 0.  1.
         11    1    3    3    0    0  0.56636234832E+01 -0.28100996053E+01 -0.18382390416E+01  0.65842549910E+01  0.51100000000E-03 0. -1.
        -11    1    3    3    0    0  0.89230961604E+01  0.19020262256E+02 -0.63055722025E+01  0.21935183210E+02  0.51100000000E-03 0.  1.
        -12    1    3    3    0    0 -0.28738715596E+02  0.69968527345E+01 -0.85258761296E+01  0.30782467186E+02  0.00000000000E+00 0.  1.
</event>
<event>
 7    1  0.1101380E-011  0.5930183E+02  0.7816164E-02  0.1266605E+00
        -11   -1    0    0    0    0  0.00000000000E+00  0.00000000000E+00  0.45593999997E+02  0.45594000000E+02  0.51100000000E-03 0.  1.
         11   -1    0    0    0    0 -0.00000000000E+00 -0.00000000000E+00 -0.45593999997E+02  0.45594000000E+02  0.51100000000E-03 0. -1.
    9900012    2    1    2    0    0 -0.58092090955E+01  0.25323615910E+02  0.18485012204E+02  0.59301825735E+02  0.49999784262E+02 0.  0.
        -12    1    1    2    0    0  0.58092090955E+01 -0.25323615910E+02 -0.18485012204E+02  0.31886174265E+02  0.00000000000E+00 0.  1.
         11    1    3    3    0    0  0.98363515147E+01 -0.21579248827E+01 -0.40798881546E+01  0.10865354966E+02  0.51100000000E-03 0. -1.
        -11    1    3    3    0    0  0.74033192569E+01  0.36449010894E+01  0.10030487097E+02  0.12988653188E+02  0.51100000000E-03 0.  1.
         12    1    3    3    0    0 -0.23048879867E+02  0.23836639703E+02  0.12534413262E+02  0.35447817581E+02  0.00000000000E+00 0. -1.
</event>
<event>
 7    1  0.1101380E-011  0.5930195E+02  0.7816164E-02  0.1266605E+00
        -11   -1    0    0    0    0  0.00000000000E+00  0.00000000000E+00  0.45593999997E+02  0.45594000000E+02  0.51100000000E-03 0. -1.
         11   -1    0    0    0    0 -0.00000000000E+00 -0.00000000000E+00 -0.45593999997E+02  0.45594000000E+02  0.51100000000E-03 0.  1.
    9900012    2    1    2    0    0 -0.13934379521E+02  0.24308566052E+02  0.15219951689E+02  0.59301949044E+02  0.50000009149E+02 0.  0.
        -12    1    1    2    0    0  0.13934379521E+02 -0.24308566052E+02 -0.15219951689E+02  0.31886050956E+02  0.00000000000E+00 0.  1.
         11    1    3    3    0    0 -0.75454293194E+01 -0.14291273637E+01  0.73664364188E+01  0.10641442309E+02  0.51100000000E-03 0. -1.
        -11    1    3    3    0    0 -0.13901653004E+02  0.36474555456E+01 -0.11451716203E+02  0.18376661624E+02  0.51100000000E-03 0.  1.
         12    1    3    3    0    0  0.75127028022E+01  0.22090237870E+02  0.19305231472E+02  0.30283845112E+02  0.00000000000E+00 0. -1.
</event>
<event>
 7    1  0.1101380E-011  0.5930194E+02  0.7816164E-02  0.1266605E+00
        -11   -1    0    0    0    0  0.00000000000E+00  0.00000000000E+00  0.45593999997E+02  0.45594000000E+02  0.51100000000E-03 0.  1.
         11   -1    0    0    0    0 -0.00000000000E+00 -0.00000000000E+00 -0.45593999997E+02  0.45594000000E+02  0.51100000000E-03 0. -1.
    9900012    2    1    2    0    0  0.11811656435E+02 -0.21795585345E+02 -0.20053871140E+02  0.59301944804E+02  0.50000001415E+02 0.  0.
        -12    1    1    2    0    0 -0.11811656435E+02  0.21795585345E+02  0.20053871140E+02  0.31886055196E+02  0.00000000000E+00 0.  1.
         11    1    3    3    0    0 -0.44451371847E+01  0.12720620637E+02 -0.83401054074E+01  0.15847106753E+02  0.51100000000E-03 0. -1.
        -11    1    3    3    0    0  0.50291314235E+01 -0.20658994210E+02  0.14141574804E+01  0.21309294833E+02  0.51100000000E-03 0.  1.
        -12    1    3    3    0    0  0.11227662197E+02 -0.13857211772E+02 -0.13127923213E+02  0.22145543217E+02  0.00000000000E+00 0.  1.
</event>
<event>
 7    1  0.1101380E-011  0.5930194E+02  0.7816164E-02  0.1266605E+00
        -11   -1    0    0    0    0  0.00000000000E+00  0.00000000000E+00  0.45593999997E+02  0.45594000000E+02  0.51100000000E-03 0. -1.
         11   -1    0    0    0    0 -0.00000000000E+00 -0.00000000000E+00 -0.45593999997E+02  0.45594000000E+02  0.51100000000E-03 0.  1.
    9900012    2    1    2    0    0  0.99735660447E+01  0.18402241504E+02  0.24054233265E+02  0.59301942703E+02  0.49999997584E+02 0.  0.
        -12    1    1    2    0    0 -0.99735660447E+01 -0.18402241504E+02 -0.24054233265E+02  0.31886057297E+02  0.00000000000E+00 0.  1.
         11    1    3    3    0    0 -0.20602884203E+01 -0.46240664406E+01  0.50583932974E+01  0.71564042531E+01  0.51100000000E-03 0. -1.
        -11    1    3    3    0    0  0.51137652216E+01  0.64946677510E+00 -0.12136671006E+02  0.13186022342E+02  0.51100000000E-03 0.  1.
         12    1    3    3    0    0  0.69200892435E+01  0.22376841169E+02  0.31132510973E+02  0.38959516108E+02  0.00000000000E+00 0. -1.
</event>
<event>
 7    1  0.1101380E-011  0.5930194E+02  0.7816164E-02  0.1266605E+00
        -11   -1    0    0    0    0  0.00000000000E+00  0.00000000000E+00  0.45593999997E+02  0.45594000000E+02  0.51100000000E-03 0. -1.
         11   -1    0    0    0    0 -0.00000000000E+00 -0.00000000000E+00 -0.45593999997E+02  0.45594000000E+02  0.51100000000E-03 0.  1.
    9900012    2    1    2    0    0  0.93770295678E+01  0.17679791203E+02 -0.24823722326E+02  0.59301938929E+02  0.49999990701E+02 0.  0.
        -12    1    1    2    0    0 -0.93770295678E+01 -0.17679791203E+02  0.24823722326E+02  0.31886061071E+02  0.00000000000E+00 0.  1.
         11    1    3    3    0    0  0.34924864232E+00  0.10105277979E+02  0.47550286087E+01  0.11173581117E+02  0.51100000000E-03 0. -1.
        -11    1    3    3    0    0 -0.16934119020E+01  0.97313458044E+01 -0.34681341945E+02  0.36060535414E+02  0.51100000000E-03 0.  1.
         12    1    3    3    0    0  0.10721192827E+02 -0.21568325799E+01  0.51025910097E+01  0.12067822398E+02  0.00000000000E+00 0. -1.
</event>
<event>
 7    1  0.1101380E-011  0.5930156E+02  0.7816164E-02  0.1266606E+00
        -11   -1    0    0    0    0  0.00000000000E+00  0.00000000000E+00  0.45593999997E+02  0.45594000000E+02  0.51100000000E-03 0. -1.
         11   -1    0    0    0    0 -0.00000000000E+00 -0.00000000000E+00 -0.45593999997E+02  0.45594000000E+02  0.51100000000E-03 0.  1.
    9900012    2    1    2    0    0 -0.19135018528E+02 -0.19443847297E+02  0.16508562454E+02  0.59301564545E+02  0.49999307909E+02 0.  0.
        -12    1    1    2    0    0  0.19135018528E+02  0.19443847297E+02 -0.16508562454E+02  0.31886435455E+02  0.00000000000E+00 0.  1.
         11    1    3    3    0    0 -0.11355507900E+02 -0.26260479789E+02  0.52049921203E+01  0.29080101472E+02  0.51100000000E-03 0. -1.
        -11    1    3    3    0    0 -0.31230332434E+01 -0.92226706056E+01 -0.53168691094E+00  0.97515988931E+01  0.51100000000E-03 0.  1.
        -12    1    3    3    0    0 -0.46564773840E+01  0.16039303097E+02  0.11835257244E+02  0.20469864179E+02  0.00000000000E+00 0.  1.
</event>
<event>
 7    1  0.1101380E-011  0.5930190E+02  0.7816164E-02  0.1266605E+00
        -11   -1    0    0    0    0  0.00000000000E+00  0.00000000000E+00  0.45593999997E+02  0.45594000000E+02  0.51100000000E-03 0. -1.
         11   -1    0    0    0    0 -0.00000000000E+00 -0.00000000000E+00 -0.45593999997E+02  0.45594000000E+02  0.51100000000E-03 0.  1.
    9900012    2    1    2    0    0 -0.30783629266E+02 -0.55787552762E+01 -0.61619172721E+01  0.59301896982E+02  0.49999914200E+02 0.  0.
        -12    1    1    2    0    0  0.30783629266E+02  0.55787552762E+01  0.61619172721E+01  0.31886103018E+02  0.00000000000E+00 0.  1.
         11    1    3    3    0    0 -0.15029749606E+02  0.38283524768E+01  0.83801078178E+01  0.17628836128E+02  0.51100000000E-03 0. -1.
        -11    1    3    3    0    0 -0.23320580202E+02  0.32119076180E+01 -0.47960861859E+01  0.24024326306E+02  0.51100000000E-03 0.  1.
        -12    1    3    3    0    0  0.75667005424E+01 -0.12619015371E+02 -0.97459389040E+01  0.17648734548E+02  0.00000000000E+00 0.  1.
</event>
<event>
 7    1  0.1101380E-011  0.5930193E+02  0.7816164E-02  0.1266605E+00
        -11   -1    0    0    0    0  0.00000000000E+00  0.00000000000E+00  0.45593999997E+02  0.45594000000E+02  0.51100000000E-03 0.  1.
         11   -1    0    0    0    0 -0.00000000000E+00 -0.00000000000E+00 -0.45593999997E+02  0.45594000000E+02  0.51100000000E-03 0. -1.
    9900012    2    1    2    0    0 -0.52190204007E+01 -0.26884077547E+02 -0.16331851496E+02  0.59301934504E+02  0.49999982631E+02 0.  0.
        -12    1    1    2    0    0  0.52190204007E+01  0.26884077547E+02  0.16331851496E+02  0.31886065496E+02  0.00000000000E+00 0.  1.
         11    1    3    3    0    0 -0.66992436684E+01 -0.17100909938E+01 -0.15194329636E+02  0.16693469690E+02  0.51100000000E-03 0. -1.
        -11    1    3    3    0    0 -0.92197938082E+01 -0.25896386454E+02 -0.94202001410E+01  0.29058004064E+02  0.51100000000E-03 0.  1.
         12    1    3    3    0    0  0.10700017076E+02  0.72239990010E+00  0.82826782810E+01  0.13550460750E+02  0.00000000000E+00 0. -1.
</event>
<event>
 7    1  0.1101380E-011  0.5930195E+02  0.7816164E-02  0.1266605E+00
        -11   -1    0    0    0    0  0.00000000000E+00  0.00000000000E+00  0.45593999997E+02  0.45594000000E+02  0.51100000000E-03 0.  1.
         11   -1    0    0    0    0 -0.00000000000E+00 -0.00000000000E+00 -0.45593999997E+02  0.45594000000E+02  0.51100000000E-03 0. -1.
    9900012    2    1    2    0    0 -0.12084810843E+02  0.79624682720E+01 -0.28412612535E+02  0.59301951246E+02  0.50000013165E+02 0.  0.
        -12    1    1    2    0    0  0.12084810843E+02 -0.79624682720E+01  0.28412612535E+02  0.31886048754E+02  0.00000000000E+00 0.  1.
         11    1    3    3    0    0  0.10204044654E+02  0.12118406516E+02 -0.14315475994E+02  0.21352076176E+02  0.51100000000E-03 0. -1.
        -11    1    3    3    0    0  0.56911195107E+01 -0.44469267277E+01 -0.35367273718E+01  0.80419176426E+01  0.51100000000E-03 0.  1.
         12    1    3    3    0    0 -0.27979975008E+02  0.29098848332E+00 -0.10560409168E+02  0.29907957428E+02  0.00000000000E+00 0. -1.
</event>
<event>
 7    1  0.1101380E-011  0.5930194E+02  0.7816164E-02  0.1266605E+00
        -11   -1    0    0    0    0  0.00000000000E+00  0.00000000000E+00  0.45593999997E+02  0.45594000000E+02  0.51100000000E-03 0.  1.
         11   -1    0    0    0    0 -0.00000000000E+00 -0.00000000000E+00 -0.45593999997E+02  0.45594000000E+02  0.51100000000E-03 0. -1.
    9900012    2    1    2    0    0  0.17237978657E+02 -0.12017866004E+01 -0.26797919868E+02  0.59301941785E+02  0.49999995910E+02 0.  0.
        -12    1    1    2    0    0 -0.17237978657E+02  0.12017866004E+01  0.26797919868E+02  0.31886058215E+02  0.00000000000E+00 0.  1.
         11    1    3    3    0    0  0.24922126330E+02  0.91843039858E+01 -0.30640757971E+02  0.40550214177E+02  0.51100000000E-03 0. -1.
        -11    1    3    3    0    0 -0.55651918151E+01  0.14552664766E+01 -0.89761868293E+00  0.58219309527E+01  0.51100000000E-03 0.  1.
        -12    1    3    3    0    0 -0.21189558573E+01 -0.11841357063E+02  0.47404567861E+01  0.12929796656E+02  0.00000000000E+00 0.  1.
</event>
<event>
 7    1  0.1101380E-011  0.5930195E+02  0.7816164E-02  0.1266605E+00
        -11   -1    0    0    0    0  0.00000000000E+00  0.00000000000E+00  0.45593999997E+02  0.45594000000E+02  0.51100000000E-03 0.  1.
         11   -1    0    0    0    0 -0.00000000000E+00 -0.00000000000E+00 -0.45593999997E+02  0.45594000000E+02  0.51100000000E-03 0. -1.
    9900012    2    1    2    0    0  0.93263558559E+01 -0.43364512924E+00 -0.30488539740E+02  0.59301952626E+02  0.50000015682E+02 0.  0.
        -12    1    1    2    0    0 -0.93263558559E+01  0.43364512924E+00  0.30488539740E+02  0.31886047374E+02  0.00000000000E+00 0.  1.
         11    1    3    3    0    0  0.17523486811E+02  0.63544146268E+01 -0.22572968888E+02  0.29274393246E+02  0.51100000000E-03 0. -1.
        -11    1    3    3    0    0  0.61254025595E+01 -0.11463270073E+02 -0.73919477143E+01  0.14952190761E+02  0.51100000000E-03 0.  1.
        -12    1    3    3    0    0 -0.14322533515E+02  0.46752103172E+01 -0.52362313777E+00  0.15075368618E+02  0.00000000000E+00 0.  1.
</event>
<event>
 7    1  0.1101380E-011  0.5930194E+02  0.7816164E-02  0.1266605E+00
        -11   -1    0    0    0    0  0.00000000000E+00  0.00000000000E+00  0.45593999997E+02  0.45594000000E+02  0.51100000000E-03 0. -1.
         11   -1    0    0    0    0 -0.00000000000E+00 -0.00000000000E+00 -0.45593999997E+02  0.45594000000E+02  0.51100000000E-03 0.  1.
    9900012    2    1    2    0    0  0.14221732056E+02 -0.27108902112E+02 -0.89202502803E+01  0.59301935623E+02  0.49999984672E+02 0.  0.
        -12    1    1    2    0    0 -0.14221732056E+02  0.27108902112E+02  0.89202502803E+01  0.31886064377E+02  0.00000000000E+00 0.  1.
         11    1    3    3    0    0  0.39660155788E+01 -0.11831489338E+02  0.59421584081E+01  0.13821094976E+02  0.51100000000E-03 0. -1.
        -11    1    3    3    0    0  0.17182757507E+02 -0.19949731926E+02 -0.22139596357E+02  0.34400591370E+02  0.51100000000E-03 0.  1.
         12    1    3    3    0    0 -0.69270410295E+01  0.46723191523E+01  0.72771876686E+01  0.11080249277E+02  0.00000000000E+00 0. -1.
</event>
<event>
 7    1  0.1101380E-011  0.5930194E+02  0.7816164E-02  0.1266605E+00
        -11   -1    0    0    0    0  0.00000000000E+00  0.00000000000E+00  0.45593999997E+02  0.45594000000E+02  0.51100000000E-03 0.  1.
         11   -1    0    0    0    0 -0.00000000000E+00 -0.00000000000E+00 -0.45593999997E+02  0.45594000000E+02  0.51100000000E-03 0. -1.
    9900012    2    1    2    0    0  0.15426311961E+02 -0.27901255009E+02 -0.51959368872E+00  0.59301935499E+02  0.49999984445E+02 0.  0.
        -12    1    1    2    0    0 -0.15426311961E+02  0.27901255009E+02  0.51959368872E+00  0.31886064501E+02  0.00000000000E+00 0.  1.
         11    1    3    3    0    0  0.18327409076E+02 -0.94245615215E+01 -0.13230547748E+02  0.24490073035E+02  0.51100000000E-03 0. -1.
        -11    1    3    3    0    0  0.93356965230E+01 -0.23873146443E+01  0.10851637291E+02  0.14512495751E+02  0.51100000000E-03 0.  1.
        -12    1    3    3    0    0 -0.12236793638E+02 -0.16089378843E+02  0.18593167682E+01  0.20299366712E+02  0.00000000000E+00 0.  1.
</event>
<event>
 7    1  0.1101380E-011  0.5930195E+02  0.7816164E-02  0.1266605E+00
        -11   -1    0    0    0    0  0.00000000000E+00  0.00000000000E+00  0.45593999997E+02  0.45594000000E+02  0.51100000000E-03 0.  1.
         11   -1    0    0    0    0 -0.00000000000E+00 -0.00000000000E+00 -0.45593999997E+02  0.45594000000E+02  0.51100000000E-03 0. -1.
    9900012    2    1    2    0    0  0.25284931963E+02 -0.19118923720E+01 -0.19332280038E+02  0.59301950256E+02  0.50000011358E+02 0.  0.
        -12    1    1    2    0    0 -0.25284931963E+02  0.19118923720E+01  0.19332280038E+02  0.31886049744E+02  0.00000000000E+00 0.  1.
         11    1    3    3    0    0 -0.21226719501E+01  0.16730896318E+02 -0.80898272049E+01  0.18704917329E+02  0.51100000000E-03 0. -1.
        -11    1    3    3    0    0  0.59902867302E+01  0.37986904358E+01  0.11616605050E+01  0.71877005730E+01  0.51100000000E-03 0.  1.
         12    1    3    3    0    0  0.21417317183E+02 -0.22441479125E+02 -0.12404113339E+02  0.33409332354E+02  0.00000000000E+00 0. -1.
</event>
<event>
 7    1  0.1101380E-011  0.5930195E+02  0.7816164E-02  0.1266605E+00
        -11   -1    0    0    0    0  0.00000000000E+00  0.00000000000E+00  0.45593999997E+02  0.45594000000E+02  0.51100000000E-03 0.  1.
         11   -1    0    0    0    0 -0.00000000000E+00 -0.00000000000E+00 -0.45593999997E+02  0.45594000000E+02  0.51100000000E-03 0. -1.
    9900012    2    1    2    0    0 -0.18065883755E+02 -0.25532092164E+02 -0.62013269636E+01  0.59301947528E+02  0.50000006384E+02 0.  0.
        -12    1    1    2    0    0  0.18065883755E+02  0.25532092164E+02  0.62013269636E+01  0.31886052472E+02  0.00000000000E+00 0.  1.
         11    1    3    3    0    0  0.68363575633E+01 -0.20279457388E+02  0.50873963136E+01  0.21997131136E+02  0.51100000000E-03 0. -1.
        -11    1    3    3    0    0 -0.33603470853E+01 -0.60329839393E+01  0.64036727694E+01  0.94178475749E+01  0.51100000000E-03 0.  1.
         12    1    3    3    0    0 -0.21541894233E+02  0.78034916355E+00 -0.17692396047E+02  0.27886968818E+02  0.00000000000E+00 0. -1.
</event>
<event>
 7    1  0.1101380E-011  0.5930195E+02  0.7816164E-02  0.1266605E+00
        -11   -1    0    0    0    0  0.00000000000E+00  0.00000000000E+00  0.45593999997E+02  0.45594000000E+02  0.51100000000E-03 0.  1.
         11   -1    0    0    0    0 -0.00000000000E+00 -0.00000000000E+00 -0.45593999997E+02  0.45594000000E+02  0.51100000000E-03 0. -1.
    9900012    2    1    2    0    0  0.14139872221E+02  0.28222227599E+02 -0.45044760495E+01  0.59301946285E+02  0.50000004116E+02 0.  0.
        -12    1    1    2    0    0 -0.14139872221E+02 -0.28222227599E+02  0.45044760495E+01  0.31886053715E+02  0.00000000000E+00 0.  1.
         11    1    3    3    0    0  0.23478891764E+01  0.60964874456E+01  0.36992764091E+01  0.75076220584E+01  0.51100000000E-03 0. -1.
        -11    1    3    3    0    0  0.17230853568E+02 -0.32273053859E+01  0.99348726581E+01  0.20149925799E+02  0.51100000000E-03 0.  1.
         12    1    3    3    0    0 -0.54388705230E+01  0.25353045539E+02 -0.18138625117E+02  0.31644398427E+02  0.00000000000E+00 0. -1.
</event>
<event>
 7    1  0.1101380E-011  0.5930194E+02  0.7816164E-02  0.1266605E+00
        -11   -1    0    0    0    0  0.00000000000E+00  0.00000000000E+00  0.45593999997E+02  0.45594000000E+02  0.51100000000E-03 0.  1.
         11   -1    0    0    0    0 -0.00000000000E+00 -0.00000000000E+00 -0.45593999997E+02  0.45594000000E+02  0.51100000000E-03 0. -1.
    9900012    2    1    2    0    0  0.11504450603E+02 -0.26481326839E+02 -0.13531730898E+02  0.59301940414E+02  0.49999993409E+02 0.  0.
        -12    1    1    2    0    0 -0.11504450603E+02  0.26481326839E+02  0.13531730898E+02  0.31886059586E+02  0.00000000000E+00 0.  1.
         11    1    3    3    0    0  0.14734443274E+02  0.33657890033E+00  0.27374874905E+01  0.14990361636E+02  0.51100000000E-03 0. -1.
        -11    1    3    3    0    0  0.11981270430E+02 -0.62927845243E+01 -0.12621017113E+02  0.18505135812E+02  0.51100000000E-03 0.  1.
        -12    1    3    3    0    0 -0.15211263101E+02 -0.20525121215E+02 -0.36482012755E+01  0.25806442967E+02  0.00000000000E+00 0.  1.
</event>
<event>
 7    1  0.1101380E-011  0.5930194E+02  0.7816164E-02  0.1266605E+00
        -11   -1    0    0    0    0  0.00000000000E+00  0.00000000000E+00  0.45593999997E+02  0.45594000000E+02  0.51100000000E-03 0. -1.
         11   -1    0    0    0    0 -0.00000000000E+00 -0.00000000000E+00 -0.45593999997E+02  0.45594000000E+02  0.51100000000E-03 0.  1.
    9900012    2    1    2    0    0  0.24417632946E+01 -0.17428292761E+02  0.26589723077E+02  0.59301937687E+02  0.49999988435E+02 0.  0.
        -12    1    1    2    0    0 -0.24417632946E+01  0.17428292761E+02 -0.26589723077E+02  0.31886062313E+02  0.00000000000E+00 0.  1.
         11    1    3    3    0    0  0.82047358321E+01 -0.16186105602E+02  0.37264742801E+01  0.18525504459E+02  0.51100000000E-03 0. -1.
        -11    1    3    3    0    0  0.11815313858E+02  0.53722435464E+01  0.27689552517E+01  0.13271388614E+02  0.51100000000E-03 0.  1.
         12    1    3    3    0    0 -0.17578286396E+02 -0.66144307059E+01  0.20094293545E+02  0.27505044614E+02  0.00000000000E+00 0. -1.
</event>
<event>
 7    1  0.1101380E-011  0.5930192E+02  0.7816164E-02  0.1266605E+00
        -11   -1    0    0    0    0  0.00000000000E+00  0.00000000000E+00  0.45593999997E+02  0.45594000000E+02  0.51100000000E-03 0. -1.
         11   -1    0    0    0    0 -0.00000000000E+00 -0.00000000000E+00 -0.45593999997E+02  0.45594000000E+02  0.51100000000E-03 0.  1.
    9900012    2    1    2    0    0 -0.10481579606E+02  0.27356249210E+02  0.12589444754E+02  0.59301921516E+02  0.49999958944E+02 0.  0.
        -12    1    1    2    0    0  0.10481579606E+02 -0.27356249210E+02 -0.12589444754E+02  0.31886078484E+02  0.00000000000E+00 0.  1.
         11    1    3    3    0    0  0.10373702093E+02  0.10031878282E+02  0.98080704050E+01  0.17448510605E+02  0.51100000000E-03 0. -1.
        -11    1    3    3    0    0 -0.20080194639E+01 -0.73846310434E+01  0.71476768125E+01  0.10471590227E+02  0.51100000000E-03 0.  1.
         12    1    3    3    0    0 -0.18847262236E+02  0.24709001972E+02 -0.43663024640E+01  0.31381820684E+02  0.00000000000E+00 0. -1.
</event>
<event>
 7    1  0.1101380E-011  0.5930190E+02  0.7816164E-02  0.1266605E+00
        -11   -1    0    0    0    0  0.00000000000E+00  0.00000000000E+00  0.45593999997E+02  0.45594000000E+02  0.51100000000E-03 0.  1.
         11   -1    0    0    0    0 -0.00000000000E+00 -0.00000000000E+00 -0.45593999997E+02  0.45594000000E+02  0.51100000000E-03 0. -1.
    9900012    2    1    2    0    0  0.16683252193E+02 -0.11555911646E+02 -0.24593763144E+02  0.59301902978E+02  0.49999925136E+02 0.  0.
        -12    1    1    2    0    0 -0.16683252193E+02  0.11555911646E+02  0.24593763144E+02  0.31886097022E+02  0.00000000000E+00 0.  1.
         11    1    3    3    0    0  0.73010421166E+00  0.51915421912E+01 -0.98770017688E+01  0.11182143206E+02  0.51100000000E-03 0. -1.
        -11    1    3    3    0    0  0.18461050503E+02  0.51817108308E+01 -0.17390757131E+02  0.25886269462E+02  0.51100000000E-03 0.  1.
        -12    1    3    3    0    0 -0.25079025217E+01 -0.21929164668E+02  0.26739957556E+01  0.22233490311E+02  0.00000000000E+00 0.  1.
</event>
<event>
 7    1  0.1101380E-011  0.5930195E+02  0.7816164E-02  0.1266605E+00
        -11   -1    0    0    0    0  0.00000000000E+00  0.00000000000E+00  0.45593999997E+02  0.45594000000E+02  0.51100000000E-03 0. -1.
         11   -1    0    0    0    0 -0.00000000000E+00 -0.00000000000E+00 -0.45593999997E+02  0.45594000000E+02  0.51100000000E-03 0.  1.
    9900012    2    1    2    0    0 -0.12482811491E+02  0.76262856202E+00  0.29331174849E+02  0.59301952846E+02  0.50000016082E+02 0.  0.
        -12    1    1    2    0    0  0.12482811491E+02 -0.76262856202E+00 -0.29331174849E+02  0.31886047154E+02  0.00000000000E+00 0.  1.
         11    1    3    3    0    0 -0.19799099677E+02 -0.52160364156E+01  0.43081408982E+01  0.20922988844E+02  0.51100000000E-03 0. -1.
        -11    1    3    3    0    0 -0.41062810231E+01  0.14229585283E+02  0.15056147644E+02  0.21119427627E+02  0.51100000000E-03 0.  1.
        -12    1    3    3    0    0  0.11422569209E+02 -0.82509203050E+01  0.99668863071E+01  0.17259536375E+02  0.00000000000E+00 0.  1.
</event>
<event>
 7    1  0.1101380E-011  0.5930194E+02  0.7816164E-02  0.1266605E+00
        -11   -1    0    0    0    0  0.00000000000E+00  0.00000000000E+00  0.45593999997E+02  0.45594000000E+02  0.51100000000E-03 0.  1.
         11   -1    0    0    0    0 -0.00000000000E+00 -0.00000000000E+00 -0.45593999997E+02  0.45594000000E+02  0.51100000000E-03 0. -1.
    9900012    2    1    2    0    0  0.28895602851E+02 -0.13376056082E+02  0.16869620470E+01  0.59301943779E+02  0.49999999546E+02 0.  0.
        -12    1    1    2    0    0 -0.28895602851E+02  0.13376056082E+02 -0.16869620470E+01  0.31886056221E+02  0.00000000000E+00 0.  1.
         11    1    3    3    0    0  0.28169093983E+01 -0.13456321092E+02 -0.12724924567E+02  0.18733159407E+02  0.51100000000E-03 0. -1.
        -11    1    3    3    0    0  0.24285544251E+02 -0.77992502608E+01  0.18502701015E+02  0.31511361591E+02  0.51100000000E-03 0.  1.
         12    1    3    3    0    0  0.17931492015E+01  0.78795152707E+01 -0.40908144012E+01  0.90574227805E+01  0.00000000000E+00 0. -1.
</event>
<event>
 7    1  0.1101380E-011  0.5930193E+02  0.7816164E-02  0.1266605E+00
        -11   -1    0    0    0    0  0.00000000000E+00  0.00000000000E+00  0.45593999997E+02  0.45594000000E+02  0.51100000000E-03 0.  1.
         11   -1    0    0    0    0 -0.00000000000E+00 -0.00000000000E+00 -0.45593999997E+02  0.45594000000E+02  0.51100000000E-03 0. -1.
    9900012    2    1    2    0    0  0.31173768409E+02  0.38543172182E+01 -0.54828553870E+01  0.59301932490E+02  0.49999978958E+02 0.  0.
        -12    1    1    2    0    0 -0.31173768409E+02 -0.38543172182E+01  0.54828553870E+01  0.31886067510E+02  0.00000000000E+00 0.  1.
         11    1    3    3    0    0  0.10515941105E+02 -0.19814269652E+02  0.40475868306E+01  0.22794149657E+02  0.51100000000E-03 0. -1.
        -11    1    3    3    0    0  0.13108615745E+02  0.72259864331E+01 -0.10665456572E+02  0.18379408337E+02  0.51100000000E-03 0.  1.
        -12    1    3    3    0    0  0.75492115594E+01  0.16442600437E+02  0.11350143542E+01  0.18128374496E+02  0.00000000000E+00 0.  1.
</event>
<event>
 7    1  0.1101380E-011  0.5930193E+02  0.7816164E-02  0.1266605E+00
        -11   -1    0    0    0    0  0.00000000000E+00  0.00000000000E+00  0.45593999997E+02  0.45594000000E+02  0.51100000000E-03 0.  1.
         11   -1    0    0    0    0 -0.00000000000E+00 -0.00000000000E+00 -0.45593999997E+02  0.45594000000E+02  0.51100000000E-03 0. -1.
    9900012    2    1    2    0    0 -0.25660225258E+01 -0.32188895687E+01 -0.31619227249E+02  0.59301933239E+02  0.49999980325E+02 0.  0.
        -12    1    1    2    0    0  0.25660225258E+01  0.32188895687E+01  0.31619227249E+02  0.31886066761E+02  0.00000000000E+00 0.  1.
         11    1    3    3    0    0 -0.14880255773E+02  0.16547456785E+01 -0.96689456913E+01  0.17822701989E+02  0.51100000000E-03 0. -1.
        -11    1    3    3    0    0  0.10890357290E+01 -0.93564895878E+01 -0.26836566095E+02  0.28441715424E+02  0.51100000000E-03 0.  1.
        -12    1    3    3    0    0  0.11225197518E+02  0.44828543406E+01  0.48862845374E+01  0.13037515827E+02  0.00000000000E+00 0.  1.
</event>
<event>
 7    1  0.1101380E-011  0.5930194E+02  0.7816164E-02  0.1266605E+00
        -11   -1    0    0    0    0  0.00000000000E+00  0.00000000000E+00  0.45593999997E+02  0.45594000000E+02  0.51100000000E-03 0. -1.
         11   -1    0    0    0    0 -0.00000000000E+00 -0.00000000000E+00 -0.45593999997E+02  0.45594000000E+02  0.51100000000E-03 0.  1.
    9900012    2    1    2    0    0 -0.64713819001E+01 -0.31036207604E+02  0.34052858457E+01  0.59301938189E+02  0.49999989351E+02 0.  0.
        -12    1    1    2    0    0  0.64713819001E+01  0.31036207604E+02 -0.34052858457E+01  0.31886061811E+02  0.00000000000E+00 0.  1.
         11    1    3    3    0    0  0.55180950821E+01 -0.10507221307E+00 -0.12605599232E+02  0.13760870095E+02  0.51100000000E-03 0. -1.
        -11    1    3    3    0    0  0.59762172900E+01 -0.15406242759E+02 -0.64526561009E+00  0.16537347339E+02  0.51100000000E-03 0.  1.
        -12    1    3    3    0    0 -0.17965694272E+02 -0.15524892632E+02  0.16656150688E+02  0.29003720755E+02  0.00000000000E+00 0.  1.
</event>
<event>
 7    1  0.1101380E-011  0.5930192E+02  0.7816164E-02  0.1266605E+00
        -11   -1    0    0    0    0  0.00000000000E+00  0.00000000000E+00  0.45593999997E+02  0.45594000000E+02  0.51100000000E-03 0.  1.
         11   -1    0    0    0    0 -0.00000000000E+00 -0.00000000000E+00 -0.45593999997E+02  0.45594000000E+02  0.51100000000E-03 0. -1.
    9900012    2    1    2    0    0  0.25982366825E+02  0.12456631152E+02 -0.13655439854E+02  0.59301920230E+02  0.49999956598E+02 0.  0.
        -12    1    1    2    0    0 -0.25982366825E+02 -0.12456631152E+02  0.13655439854E+02  0.31886079770E+02  0.00000000000E+00 0.  1.
         11    1    3    3    0    0  0.12683093539E+02  0.23909395708E+00 -0.25467107511E+01  0.12938460633E+02  0.51100000000E-03 0. -1.
        -11    1    3    3    0    0  0.24201912207E+02  0.17054158498E+02  0.65042774786E+00  0.29614184660E+02  0.51100000000E-03 0.  1.
        -12    1    3    3    0    0 -0.10902638921E+02 -0.48366213034E+01 -0.11759156851E+02  0.16749274937E+02  0.00000000000E+00 0.  1.
</event>
<event>
 7    1  0.1101380E-011  0.5930198E+02  0.7816164E-02  0.1266605E+00
        -11   -1    0    0    0    0  0.00000000000E+00  0.00000000000E+00  0.45593999997E+02  0.45594000000E+02  0.51100000000E-03 0.  1.
         11   -1    0    0    0    0 -0.00000000000E+00 -0.00000000000E+00 -0.45593999997E+02  0.45594000000E+02  0.51100000000E-03 0. -1.
    9900012    2    1    2    0    0  0.31253486888E+02 -0.12934219144E+01 -0.61858852451E+01  0.59301975488E+02  0.50000057376E+02 0.  0.
        -12    1    1    2    0    0 -0.31253486888E+02  0.12934219144E+01  0.61858852451E+01  0.31886024512E+02  0.00000000000E+00 0.  1.
         11    1    3    3    0    0  0.28023125622E+01 -0.13392683449E+02 -0.52098365099E+01  0.14641015073E+02  0.51100000000E-03 0. -1.
        -11    1    3    3    0    0  0.23150783555E+01 -0.69377086454E+01  0.82608436581E+01  0.11033264578E+02  0.51100000000E-03 0.  1.
         12    1    3    3    0    0  0.26136095970E+02  0.19036970180E+02 -0.92368923933E+01  0.33627695837E+02  0.00000000000E+00 0. -1.
</event>
<event>
 7    1  0.1101380E-011  0.5930185E+02  0.7816164E-02  0.1266605E+00
        -11   -1    0    0    0    0  0.00000000000E+00  0.00000000000E+00  0.45593999997E+02  0.45594000000E+02  0.51100000000E-03 0. -1.
         11   -1    0    0    0    0 -0.00000000000E+00 -0.00000000000E+00 -0.45593999997E+02  0.45594000000E+02  0.51100000000E-03 0.  1.
    9900012    2    1    2    0    0  0.88088928698E+01 -0.56151401318E+01  0.30126406240E+02  0.59301847124E+02  0.49999823271E+02 0.  0.
        -12    1    1    2    0    0 -0.88088928698E+01  0.56151401318E+01 -0.30126406240E+02  0.31886152876E+02  0.00000000000E+00 0.  1.
         11    1    3    3    0    0  0.21656533611E+01  0.11342224086E+02  0.12715370712E+02  0.17176051767E+02  0.51100000000E-03 0. -1.
        -11    1    3    3    0    0  0.10658044907E+02 -0.19327953740E+02  0.24918679655E+02  0.33288200808E+02  0.51100000000E-03 0.  1.
        -12    1    3    3    0    0 -0.40148053983E+01  0.23705895225E+01 -0.75076441276E+01  0.88375945493E+01  0.00000000000E+00 0.  1.
</event>
<event>
 7    1  0.1101380E-011  0.5930193E+02  0.7816164E-02  0.1266605E+00
        -11   -1    0    0    0    0  0.00000000000E+00  0.00000000000E+00  0.45593999997E+02  0.45594000000E+02  0.51100000000E-03 0.  1.
         11   -1    0    0    0    0 -0.00000000000E+00 -0.00000000000E+00 -0.45593999997E+02  0.45594000000E+02  0.51100000000E-03 0. -1.
    9900012    2    1    2    0    0  0.22001374662E+02  0.22354172004E+02 -0.57403868354E+01  0.59301928841E+02  0.49999972302E+02 0.  0.
        -12    1    1    2    0    0 -0.22001374662E+02 -0.22354172004E+02  0.57403868354E+01  0.31886071159E+02  0.00000000000E+00 0.  1.
         11    1    3    3    0    0 -0.14369598356E+01 -0.54646617802E+01 -0.37938095916E+01  0.68059072444E+01  0.51100000000E-03 0. -1.
        -11    1    3    3    0    0 -0.88113963868E+01  0.48063991690E+01  0.65388745488E+01  0.11979109311E+02  0.51100000000E-03 0.  1.
         12    1    3    3    0    0  0.32249730884E+02  0.23012434615E+02 -0.84854517926E+01  0.40516912285E+02  0.00000000000E+00 0. -1.
</event>
<event>
 7    1  0.1101380E-011  0.5930195E+02  0.7816164E-02  0.1266605E+00
        -11   -1    0    0    0    0  0.00000000000E+00  0.00000000000E+00  0.45593999997E+02  0.45594000000E+02  0.51100000000E-03 0.  1.
         11   -1    0    0    0    0 -0.00000000000E+00 -0.00000000000E+00 -0.45593999997E+02  0.45594000000E+02  0.51100000000E-03 0. -1.
    9900012    2    1    2    0    0 -0.11371746778E+02 -0.29242043734E+02  0.56838886499E+01  0.59301947615E+02  0.50000006542E+02 0.  0.
        -12    1    1    2    0    0  0.11371746778E+02  0.29242043734E+02 -0.56838886499E+01  0.31886052385E+02  0.00000000000E+00 0.  1.
         11    1    3    3    0    0  0.59710449143E+01 -0.24934307955E+02  0.21189839831E+02  0.33262327081E+02  0.51100000000E-03 0.  1.
        -11    1    3    3    0    0 -0.48616132337E+01  0.36265221366E+01 -0.35995333650E+01  0.70529133518E+01  0.51100000000E-03 0. -1.
        -12    1    3    3    0    0 -0.12481178459E+02 -0.79342579157E+01 -0.11906417816E+02  0.18986707182E+02  0.00000000000E+00 0.  1.
</event>
<event>
 7    1  0.1101380E-011  0.5930193E+02  0.7816164E-02  0.1266605E+00
        -11   -1    0    0    0    0  0.00000000000E+00  0.00000000000E+00  0.45593999997E+02  0.45594000000E+02  0.51100000000E-03 0. -1.
         11   -1    0    0    0    0 -0.00000000000E+00 -0.00000000000E+00 -0.45593999997E+02  0.45594000000E+02  0.51100000000E-03 0.  1.
    9900012    2    1    2    0    0 -0.31397459270E+02  0.36604843630E+01  0.41858851860E+01  0.59301933621E+02  0.49999981020E+02 0.  0.
        -12    1    1    2    0    0  0.31397459270E+02 -0.36604843630E+01 -0.41858851860E+01  0.31886066379E+02  0.00000000000E+00 0.  1.
         11    1    3    3    0    0 -0.26132232903E+02  0.61230932828E+01 -0.71991414467E+01  0.27788729832E+02  0.51100000000E-03 0. -1.
        -11    1    3    3    0    0 -0.16959111085E+02 -0.31091894999E+01  0.41066368796E+01  0.17724078956E+02  0.51100000000E-03 0.  1.
        -12    1    3    3    0    0  0.11693884718E+02  0.64658058012E+00  0.72783897531E+01  0.13789124832E+02  0.00000000000E+00 0.  1.
</event>
<event>
 7    1  0.1101380E-011  0.5930196E+02  0.7816164E-02  0.1266605E+00
        -11   -1    0    0    0    0  0.00000000000E+00  0.00000000000E+00  0.45593999997E+02  0.45594000000E+02  0.51100000000E-03 0.  1.
         11   -1    0    0    0    0 -0.00000000000E+00 -0.00000000000E+00 -0.45593999997E+02  0.45594000000E+02  0.51100000000E-03 0. -1.
    9900012    2    1    2    0    0  0.93882912980E+01 -0.58145394767E+01 -0.29912718722E+02  0.59301958788E+02  0.50000026919E+02 0.  0.
        -12    1    1    2    0    0 -0.93882912980E+01  0.58145394767E+01  0.29912718722E+02  0.31886041212E+02  0.00000000000E+00 0.  1.
         11    1    3    3    0    0  0.76968732898E+00 -0.38731123927E+01 -0.14725681370E+02  0.15245953898E+02  0.51100000000E-03 0. -1.
        -11    1    3    3    0    0 -0.14682116824E+02 -0.13659708783E+01 -0.14585418233E+02  0.20740416008E+02  0.51100000000E-03 0.  1.
        -12    1    3    3    0    0  0.23300720793E+02 -0.57545620568E+00 -0.60161911860E+00  0.23315588882E+02  0.00000000000E+00 0.  1.
</event>
<event>
 7    1  0.1101380E-011  0.5930192E+02  0.7816164E-02  0.1266605E+00
        -11   -1    0    0    0    0  0.00000000000E+00  0.00000000000E+00  0.45593999997E+02  0.45594000000E+02  0.51100000000E-03 0. -1.
         11   -1    0    0    0    0 -0.00000000000E+00 -0.00000000000E+00 -0.45593999997E+02  0.45594000000E+02  0.51100000000E-03 0.  1.
    9900012    2    1    2    0    0 -0.20152160771E+02 -0.18052111879E+02  0.16874055347E+02  0.59301920421E+02  0.49999956948E+02 0.  0.
        -12    1    1    2    0    0  0.20152160771E+02  0.18052111879E+02 -0.16874055347E+02  0.31886079579E+02  0.00000000000E+00 0.  1.
         11    1    3    3    0    0 -0.90979778566E+01 -0.16781158205E+02 -0.66796447198E+01  0.20223702075E+02  0.51100000000E-03 0. -1.
        -11    1    3    3    0    0 -0.20785840112E+02  0.75922046218E+00  0.12749098411E+02  0.24396046307E+02  0.51100000000E-03 0.  1.
        -12    1    3    3    0    0  0.97316571974E+01 -0.20301741354E+01  0.10804601656E+02  0.14682172039E+02  0.00000000000E+00 0.  1.
</event>
<event>
 7    1  0.1101380E-011  0.5930194E+02  0.7816164E-02  0.1266605E+00
        -11   -1    0    0    0    0  0.00000000000E+00  0.00000000000E+00  0.45593999997E+02  0.45594000000E+02  0.51100000000E-03 0.  1.
         11   -1    0    0    0    0 -0.00000000000E+00 -0.00000000000E+00 -0.45593999997E+02  0.45594000000E+02  0.51100000000E-03 0. -1.
    9900012    2    1    2    0    0 -0.25879627238E+02  0.16543219434E+02 -0.85608142587E+01  0.59301941040E+02  0.49999994550E+02 0.  0.
        -12    1    1    2    0    0  0.25879627238E+02 -0.16543219434E+02  0.85608142587E+01  0.31886058960E+02  0.00000000000E+00 0.  1.
         11    1    3    3    0    0  0.28422545692E+01 -0.13813570890E+02 -0.17437597319E+01  0.14210343065E+02  0.51100000000E-03 0. -1.
        -11    1    3    3    0    0 -0.16286912257E+02  0.65356796082E+01 -0.87555411828E+00  0.17571147205E+02  0.51100000000E-03 0.  1.
        -12    1    3    3    0    0 -0.12434969550E+02  0.23821110716E+02 -0.59415004086E+01  0.27520450770E+02  0.00000000000E+00 0.  1.
</event>
<event>
 7    1  0.1101380E-011  0.5930177E+02  0.7816164E-02  0.1266605E+00
        -11   -1    0    0    0    0  0.00000000000E+00  0.00000000000E+00  0.45593999997E+02  0.45594000000E+02  0.51100000000E-03 0.  1.
         11   -1    0    0    0    0 -0.00000000000E+00 -0.00000000000E+00 -0.45593999997E+02  0.45594000000E+02  0.51100000000E-03 0. -1.
    9900012    2    1    2    0    0  0.16070484498E+02  0.21538422302E+02 -0.17162977666E+02  0.59301766143E+02  0.49999675579E+02 0.  0.
        -12    1    1    2    0    0 -0.16070484498E+02 -0.21538422302E+02  0.17162977666E+02  0.31886233857E+02  0.00000000000E+00 0.  1.
         11    1    3    3    0    0  0.63693750747E+01  0.12964970971E+02  0.22533307886E+01  0.14619743877E+02  0.51100000000E-03 0. -1.
        -11    1    3    3    0    0  0.21474682068E+02  0.11399619074E+02 -0.33174578975E+01  0.24538109384E+02  0.51100000000E-03 0.  1.
         12    1    3    3    0    0 -0.11773572645E+02 -0.28261677434E+01 -0.16098850557E+02  0.20143912882E+02  0.00000000000E+00 0. -1.
</event>
<event>
 7    1  0.1101380E-011  0.5930202E+02  0.7816164E-02  0.1266604E+00
        -11   -1    0    0    0    0  0.00000000000E+00  0.00000000000E+00  0.45593999997E+02  0.45594000000E+02  0.51100000000E-03 0.  1.
         11   -1    0    0    0    0 -0.00000000000E+00 -0.00000000000E+00 -0.45593999997E+02  0.45594000000E+02  0.51100000000E-03 0. -1.
    9900012    2    1    2    0    0  0.21400924484E+02 -0.12144248551E+02 -0.20278887867E+02  0.59302021345E+02  0.50000141009E+02 0.  0.
        -12    1    1    2    0    0 -0.21400924484E+02  0.12144248551E+02  0.20278887867E+02  0.31885978655E+02  0.00000000000E+00 0.  1.
         11    1    3    3    0    0  0.19406220547E+02 -0.25768217716E+02 -0.44193842037E+01  0.32559689758E+02  0.51100000000E-03 0. -1.
        -11    1    3    3    0    0  0.92165216241E+01  0.77581006740E+01 -0.10647556135E+02  0.16078023785E+02  0.51100000000E-03 0.  1.
        -12    1    3    3    0    0 -0.72218176869E+01  0.58658684912E+01 -0.52119475288E+01  0.10664307802E+02  0.00000000000E+00 0.  1.
</event>
<event>
 7    1  0.1101380E-011  0.5930195E+02  0.7816164E-02  0.1266605E+00
        -11   -1    0    0    0    0  0.00000000000E+00  0.00000000000E+00  0.45593999997E+02  0.45594000000E+02  0.51100000000E-03 0. -1.
         11   -1    0    0    0    0 -0.00000000000E+00 -0.00000000000E+00 -0.45593999997E+02  0.45594000000E+02  0.51100000000E-03 0.  1.
    9900012    2    1    2    0    0  0.28809539673E+02 -0.12805367549E+02  0.47700593046E+01  0.59301945368E+02  0.50000002443E+02 0.  0.
        -12    1    1    2    0    0 -0.28809539673E+02  0.12805367549E+02 -0.47700593046E+01  0.31886054632E+02  0.00000000000E+00 0.  1.
         11    1    3    3    0    0  0.22315728087E+02 -0.98653713238E+01  0.52517905363E+01  0.24957936123E+02  0.51100000000E-03 0. -1.
        -11    1    3    3    0    0  0.60469986299E+01  0.63784268619E+01  0.14346751376E+02  0.16824975393E+02  0.51100000000E-03 0.  1.
         12    1    3    3    0    0  0.44681295649E+00 -0.93184230875E+01 -0.14828482608E+02  0.17519033852E+02  0.00000000000E+00 0. -1.
</event>
<event>
 7    1  0.1101380E-011  0.5930194E+02  0.7816164E-02  0.1266605E+00
        -11   -1    0    0    0    0  0.00000000000E+00  0.00000000000E+00  0.45593999997E+02  0.45594000000E+02  0.51100000000E-03 0. -1.
         11   -1    0    0    0    0 -0.00000000000E+00 -0.00000000000E+00 -0.45593999997E+02  0.45594000000E+02  0.51100000000E-03 0.  1.
    9900012    2    1    2    0    0 -0.93250817942E+01 -0.30371420066E+02  0.27092909921E+01  0.59301944035E+02  0.50000000014E+02 0.  0.
        -12    1    1    2    0    0  0.93250817942E+01  0.30371420066E+02 -0.27092909921E+01  0.31886055965E+02  0.00000000000E+00 0.  1.
         11    1    3    3    0    0 -0.16259212917E+02 -0.62805613388E+01  0.78737000985E+01  0.19125966875E+02  0.51100000000E-03 0. -1.
        -11    1    3    3    0    0  0.24233691199E+01  0.36414507764E+01  0.80233196188E+01  0.91381912660E+01  0.51100000000E-03 0.  1.
         12    1    3    3    0    0  0.45107620029E+01 -0.27732309504E+02 -0.13187728725E+02  0.31037785894E+02  0.00000000000E+00 0. -1.
</event>
<event>
 7    1  0.1101380E-011  0.5930200E+02  0.7816164E-02  0.1266605E+00
        -11   -1    0    0    0    0  0.00000000000E+00  0.00000000000E+00  0.45593999997E+02  0.45594000000E+02  0.51100000000E-03 0.  1.
         11   -1    0    0    0    0 -0.00000000000E+00 -0.00000000000E+00 -0.45593999997E+02  0.45594000000E+02  0.51100000000E-03 0. -1.
    9900012    2    1    2    0    0 -0.41270197729E+01 -0.29606387198E+02 -0.11097130349E+02  0.59302003746E+02  0.50000108912E+02 0.  0.
        -12    1    1    2    0    0  0.41270197729E+01  0.29606387198E+02  0.11097130349E+02  0.31885996254E+02  0.00000000000E+00 0.  1.
         11    1    3    3    0    0 -0.38444768905E+01  0.36341228648E+01  0.16080684402E+01  0.55292617887E+01  0.51100000000E-03 0. -1.
        -11    1    3    3    0    0  0.14945772706E+02 -0.49774283621E+01  0.57170084358E+01  0.16758135355E+02  0.51100000000E-03 0.  1.
         12    1    3    3    0    0 -0.15228315588E+02 -0.28263081701E+02 -0.18422207225E+02  0.37014606602E+02  0.00000000000E+00 0. -1.
</event>
<event>
 7    1  0.1101380E-011  0.5930197E+02  0.7816164E-02  0.1266605E+00
        -11   -1    0    0    0    0  0.00000000000E+00  0.00000000000E+00  0.45593999997E+02  0.45594000000E+02  0.51100000000E-03 0.  1.
         11   -1    0    0    0    0 -0.00000000000E+00 -0.00000000000E+00 -0.45593999997E+02  0.45594000000E+02  0.51100000000E-03 0. -1.
    9900012    2    1    2    0    0 -0.96833131897E+01  0.26724391450E+02 -0.14448504433E+02  0.59301969625E+02  0.50000046684E+02 0.  0.
        -12    1    1    2    0    0  0.96833131897E+01 -0.26724391450E+02  0.14448504433E+02  0.31886030375E+02  0.00000000000E+00 0.  1.
         11    1    3    3    0    0  0.25103418905E+01  0.24217962021E+00  0.44485644929E+01  0.51137260079E+01  0.51100000000E-03 0. -1.
        -11    1    3    3    0    0 -0.90417522367E+01 -0.10212537064E+02 -0.78485269113E+01  0.15736853934E+02  0.51100000000E-03 0.  1.
         12    1    3    3    0    0 -0.31519028435E+01  0.36694748894E+02 -0.11048542014E+02  0.38451389683E+02  0.00000000000E+00 0. -1.
</event>
<event>
 7    1  0.1101380E-011  0.5930194E+02  0.7816164E-02  0.1266605E+00
        -11   -1    0    0    0    0  0.00000000000E+00  0.00000000000E+00  0.45593999997E+02  0.45594000000E+02  0.51100000000E-03 0.  1.
         11   -1    0    0    0    0 -0.00000000000E+00 -0.00000000000E+00 -0.45593999997E+02  0.45594000000E+02  0.51100000000E-03 0. -1.
    9900012    2    1    2    0    0 -0.25447988851E+02 -0.17420903713E+02  0.81014027478E+01  0.59301941146E+02  0.49999994745E+02 0.  0.
        -12    1    1    2    0    0  0.25447988851E+02  0.17420903713E+02 -0.81014027478E+01  0.31886058854E+02  0.00000000000E+00 0.  1.
         11    1    3    3    0    0  0.56594117702E+01 -0.63416059759E+01 -0.59893266624E+01  0.10397929701E+02  0.51100000000E-03 0. -1.
        -11    1    3    3    0    0  0.47957921628E+01  0.41926545014E+01  0.66046499735E+01  0.91760217834E+01  0.51100000000E-03 0.  1.
         12    1    3    3    0    0 -0.35903192784E+02 -0.15271952238E+02  0.74860794367E+01  0.39727989662E+02  0.00000000000E+00 0. -1.
</event>
<event>
 7    1  0.1101380E-011  0.5930193E+02  0.7816164E-02  0.1266605E+00
        -11   -1    0    0    0    0  0.00000000000E+00  0.00000000000E+00  0.45593999997E+02  0.45594000000E+02  0.51100000000E-03 0.  1.
         11   -1    0    0    0    0 -0.00000000000E+00 -0.00000000000E+00 -0.45593999997E+02  0.45594000000E+02  0.51100000000E-03 0. -1.
    9900012    2    1    2    0    0  0.21093656107E+02 -0.10784658034E+02 -0.21341745854E+02  0.59301932619E+02  0.49999979194E+02 0.  0.
        -12    1    1    2    0    0 -0.21093656107E+02  0.10784658034E+02  0.21341745854E+02  0.31886067381E+02  0.00000000000E+00 0.  1.
         11    1    3    3    0    0 -0.10856650481E+02 -0.15634498221E+02 -0.10081924905E+02  0.21539489417E+02  0.51100000000E-03 0. -1.
        -11    1    3    3    0    0 -0.90922186381E+00  0.24177181150E+01  0.75451248778E+00  0.26909728049E+01  0.51100000000E-03 0.  1.
        -12    1    3    3    0    0  0.32859528452E+02  0.24321220722E+01 -0.12014333437E+02  0.35071470397E+02  0.00000000000E+00 0.  1.
</event>
<event>
 7    1  0.1101380E-011  0.5930197E+02  0.7816164E-02  0.1266605E+00
        -11   -1    0    0    0    0  0.00000000000E+00  0.00000000000E+00  0.45593999997E+02  0.45594000000E+02  0.51100000000E-03 0.  1.
         11   -1    0    0    0    0 -0.00000000000E+00 -0.00000000000E+00 -0.45593999997E+02  0.45594000000E+02  0.51100000000E-03 0. -1.
    9900012    2    1    2    0    0 -0.31103742247E+01 -0.13676234848E+02 -0.28635727394E+02  0.59301973110E+02  0.50000053040E+02 0.  0.
        -12    1    1    2    0    0  0.31103742247E+01  0.13676234848E+02  0.28635727394E+02  0.31886026890E+02  0.00000000000E+00 0.  1.
         11    1    3    3    0    0  0.12504667229E+02 -0.10867621552E+02 -0.14768961520E+02  0.22194461592E+02  0.51100000000E-03 0. -1.
        -11    1    3    3    0    0  0.37537167070E+00 -0.13977907954E+02 -0.16200622680E+01  0.14076484528E+02  0.51100000000E-03 0.  1.
         12    1    3    3    0    0 -0.15990413125E+02  0.11169294657E+02 -0.12246703605E+02  0.23031026990E+02  0.00000000000E+00 0. -1.
</event>
<event>
 7    1  0.1101380E-011  0.5930194E+02  0.7816164E-02  0.1266605E+00
        -11   -1    0    0    0    0  0.00000000000E+00  0.00000000000E+00  0.45593999997E+02  0.45594000000E+02  0.51100000000E-03 0. -1.
         11   -1    0    0    0    0 -0.00000000000E+00 -0.00000000000E+00 -0.45593999997E+02  0.45594000000E+02  0.51100000000E-03 0.  1.
    9900012    2    1    2    0    0 -0.31541775012E+02 -0.23034319191E+01  0.40658552965E+01  0.59301944289E+02  0.50000000477E+02 0.  0.
        -12    1    1    2    0    0  0.31541775012E+02  0.23034319191E+01 -0.40658552965E+01  0.31886055711E+02  0.00000000000E+00 0.  1.
         11    1    3    3    0    0  0.60225415317E+01  0.41233701680E+01  0.31586685417E+01  0.79530104527E+01  0.51100000000E-03 0. -1.
        -11    1    3    3    0    0  0.12983195858E+01 -0.76797272484E+01  0.87167921777E+01  0.11689581279E+02  0.51100000000E-03 0.  1.
         12    1    3    3    0    0 -0.38862636129E+02  0.12529251613E+01 -0.78096054229E+01  0.39659352557E+02  0.00000000000E+00 0. -1.
</event>
<event>
 7    1  0.1101380E-011  0.5930196E+02  0.7816164E-02  0.1266605E+00
        -11   -1    0    0    0    0  0.00000000000E+00  0.00000000000E+00  0.45593999997E+02  0.45594000000E+02  0.51100000000E-03 0. -1.
         11   -1    0    0    0    0 -0.00000000000E+00 -0.00000000000E+00 -0.45593999997E+02  0.45594000000E+02  0.51100000000E-03 0.  1.
    9900012    2    1    2    0    0 -0.34453707268E+01  0.24462570085E+02  0.20160154508E+02  0.59301956903E+02  0.50000023481E+02 0.  0.
        -12    1    1    2    0    0  0.34453707268E+01 -0.24462570085E+02 -0.20160154508E+02  0.31886043097E+02  0.00000000000E+00 0.  1.
         11    1    3    3    0    0  0.67160610842E+01  0.19247255015E+02  0.52891615285E+01  0.21060330768E+02  0.51100000000E-03 0. -1.
        -11    1    3    3    0    0 -0.10347051611E+02  0.17760793850E+02  0.26473696316E+01  0.20724763966E+02  0.51100000000E-03 0.  1.
        -12    1    3    3    0    0  0.18561979961E+00 -0.12545478780E+02  0.12223623348E+02  0.17516862170E+02  0.00000000000E+00 0.  1.
</event>
<event>
 7    1  0.1101380E-011  0.5930195E+02  0.7816164E-02  0.1266605E+00
        -11   -1    0    0    0    0  0.00000000000E+00  0.00000000000E+00  0.45593999997E+02  0.45594000000E+02  0.51100000000E-03 0.  1.
         11   -1    0    0    0    0 -0.00000000000E+00 -0.00000000000E+00 -0.45593999997E+02  0.45594000000E+02  0.51100000000E-03 0. -1.
    9900012    2    1    2    0    0 -0.19127222488E+02  0.25451317336E+02 -0.17607484539E+01  0.59301946162E+02  0.50000003893E+02 0.  0.
        -12    1    1    2    0    0  0.19127222488E+02 -0.25451317336E+02  0.17607484539E+01  0.31886053838E+02  0.00000000000E+00 0.  1.
         11    1    3    3    0    0  0.27652472604E+01 -0.76825069015E+01 -0.29648134219E+01  0.86866347678E+01  0.51100000000E-03 0. -1.
        -11    1    3    3    0    0  0.81162574567E+01  0.84209252989E+01  0.10215814361E+01  0.11740070140E+02  0.51100000000E-03 0.  1.
         12    1    3    3    0    0 -0.30008727205E+02  0.24712898938E+02  0.18248353188E+00  0.38875241255E+02  0.00000000000E+00 0. -1.
</event>
<event>
 7    1  0.1101380E-011  0.5930195E+02  0.7816164E-02  0.1266605E+00
        -11   -1    0    0    0    0  0.00000000000E+00  0.00000000000E+00  0.45593999997E+02  0.45594000000E+02  0.51100000000E-03 0.  1.
         11   -1    0    0    0    0 -0.00000000000E+00 -0.00000000000E+00 -0.45593999997E+02  0.45594000000E+02  0.51100000000E-03 0. -1.
    9900012    2    1    2    0    0  0.24453787252E+02  0.26628805757E+00 -0.20461227520E+02  0.59301945809E+02  0.50000003248E+02 0.  0.
        -12    1    1    2    0    0 -0.24453787252E+02 -0.26628805757E+00  0.20461227520E+02  0.31886054191E+02  0.00000000000E+00 0.  1.
         11    1    3    3    0    0  0.50677231059E+01 -0.31189790037E+01  0.46297213728E+01  0.75395071294E+01  0.51100000000E-03 0. -1.
        -11    1    3    3    0    0 -0.11268416921E+02  0.80865097078E+01 -0.10981881007E+02  0.17690974248E+02  0.51100000000E-03 0.  1.
         12    1    3    3    0    0  0.30654481066E+02 -0.47012426464E+01 -0.14109067886E+02  0.34071464431E+02  0.00000000000E+00 0. -1.
</event>
<event>
 7    1  0.1101380E-011  0.5930197E+02  0.7816164E-02  0.1266605E+00
        -11   -1    0    0    0    0  0.00000000000E+00  0.00000000000E+00  0.45593999997E+02  0.45594000000E+02  0.51100000000E-03 0. -1.
         11   -1    0    0    0    0 -0.00000000000E+00 -0.00000000000E+00 -0.45593999997E+02  0.45594000000E+02  0.51100000000E-03 0.  1.
    9900012    2    1    2    0    0 -0.73710945816E+01 -0.12551444782E+02  0.28369832644E+02  0.59301965351E+02  0.50000038888E+02 0.  0.
        -12    1    1    2    0    0  0.73710945816E+01  0.12551444782E+02 -0.28369832644E+02  0.31886034649E+02  0.00000000000E+00 0.  1.
         11    1    3    3    0    0  0.30463729141E+01 -0.82360397837E+01 -0.49024870309E+00  0.87950601648E+01  0.51100000000E-03 0. -1.
        -11    1    3    3    0    0  0.96233230492E+01 -0.63560392351E+01  0.28070149550E+02  0.30347007716E+02  0.51100000000E-03 0.  1.
         12    1    3    3    0    0 -0.20040790545E+02  0.20406342372E+01  0.78993179639E+00  0.20159897470E+02  0.00000000000E+00 0. -1.
</event>
<event>
 7    1  0.1101380E-011  0.5930204E+02  0.7816164E-02  0.1266604E+00
        -11   -1    0    0    0    0  0.00000000000E+00  0.00000000000E+00  0.45593999997E+02  0.45594000000E+02  0.51100000000E-03 0. -1.
         11   -1    0    0    0    0 -0.00000000000E+00 -0.00000000000E+00 -0.45593999997E+02  0.45594000000E+02  0.51100000000E-03 0.  1.
    9900012    2    1    2    0    0 -0.16510171224E+02  0.18922936091E+00  0.27278069475E+02  0.59302037009E+02  0.50000169575E+02 0.  0.
        -12    1    1    2    0    0  0.16510171224E+02 -0.18922936091E+00 -0.27278069475E+02  0.31885962991E+02  0.00000000000E+00 0.  1.
         11    1    3    3    0    0 -0.24138170695E+01  0.53362056865E+01  0.26172119456E+02  0.26819422832E+02  0.51100000000E-03 0. -1.
        -11    1    3    3    0    0  0.51328032343E+01  0.77283070834E+01  0.10872439042E+01  0.93410116682E+01  0.51100000000E-03 0.  1.
         12    1    3    3    0    0 -0.19229157389E+02 -0.12875283409E+02  0.18706114701E-01  0.23141602509E+02  0.00000000000E+00 0. -1.
</event>
<event>
 7    1  0.1101380E-011  0.5930193E+02  0.7816164E-02  0.1266605E+00
        -11   -1    0    0    0    0  0.00000000000E+00  0.00000000000E+00  0.45593999997E+02  0.45594000000E+02  0.51100000000E-03 0.  1.
         11   -1    0    0    0    0 -0.00000000000E+00 -0.00000000000E+00 -0.45593999997E+02  0.45594000000E+02  0.51100000000E-03 0. -1.
    9900012    2    1    2    0    0  0.23953352114E+02 -0.20643666363E+02 -0.40984271762E+01  0.59301934960E+02  0.49999983463E+02 0.  0.
        -12    1    1    2    0    0 -0.23953352114E+02  0.20643666363E+02  0.40984271762E+01  0.31886065040E+02  0.00000000000E+00 0.  1.
         11    1    3    3    0    0  0.94888629944E+01  0.71760187170E+01  0.82437299709E+01  0.14473867819E+02  0.51100000000E-03 0.  1.
        -11    1    3    3    0    0  0.15857974826E+02 -0.14947884974E+02 -0.20173721344E+02  0.29696694495E+02  0.51100000000E-03 0. -1.
         12    1    3    3    0    0 -0.13934857066E+01 -0.12871800107E+02  0.78315641972E+01  0.15131372647E+02  0.00000000000E+00 0. -1.
</event>
<event>
 7    1  0.1101380E-011  0.5930196E+02  0.7816164E-02  0.1266605E+00
        -11   -1    0    0    0    0  0.00000000000E+00  0.00000000000E+00  0.45593999997E+02  0.45594000000E+02  0.51100000000E-03 0.  1.
         11   -1    0    0    0    0 -0.00000000000E+00 -0.00000000000E+00 -0.45593999997E+02  0.45594000000E+02  0.51100000000E-03 0. -1.
    9900012    2    1    2    0    0 -0.12488545341E+02  0.27888887548E+02 -0.91085379318E+01  0.59301964237E+02  0.50000036857E+02 0.  0.
        -12    1    1    2    0    0  0.12488545341E+02 -0.27888887548E+02  0.91085379318E+01  0.31886035763E+02  0.00000000000E+00 0.  1.
         11    1    3    3    0    0  0.80433376639E+01  0.11498838674E+02  0.98653516330E+01  0.17153534176E+02  0.51100000000E-03 0.  1.
        -11    1    3    3    0    0 -0.43181555808E+01  0.40357732906E+00 -0.18887175586E+02  0.19378718847E+02  0.51100000000E-03 0. -1.
         12    1    3    3    0    0 -0.16213727424E+02  0.15986471545E+02 -0.86713979154E-01  0.22769711214E+02  0.00000000000E+00 0. -1.
</event>
<event>
 7    1  0.1101380E-011  0.5930196E+02  0.7816164E-02  0.1266605E+00
        -11   -1    0    0    0    0  0.00000000000E+00  0.00000000000E+00  0.45593999997E+02  0.45594000000E+02  0.51100000000E-03 0.  1.
         11   -1    0    0    0    0 -0.00000000000E+00 -0.00000000000E+00 -0.45593999997E+02  0.45594000000E+02  0.51100000000E-03 0. -1.
    9900012    2    1    2    0    0  0.10897279509E+02 -0.25128394921E+02 -0.16325826628E+02  0.59301959997E+02  0.50000029124E+02 0.  0.
        -12    1    1    2    0    0 -0.10897279509E+02  0.25128394921E+02  0.16325826628E+02  0.31886040003E+02  0.00000000000E+00 0.  1.
         11    1    3    3    0    0  0.59113893156E+01  0.31906155137E+00  0.55584380591E+01  0.81205023140E+01  0.51100000000E-03 0. -1.
        -11    1    3    3    0    0  0.17981775813E+02 -0.20855415107E+02 -0.28548807261E+01  0.27684705974E+02  0.51100000000E-03 0.  1.
         12    1    3    3    0    0 -0.12995885619E+02 -0.45920413654E+01 -0.19029383961E+02  0.23496751708E+02  0.00000000000E+00 0. -1.
</event>
<event>
 7    1  0.1101380E-011  0.5930191E+02  0.7816164E-02  0.1266605E+00
        -11   -1    0    0    0    0  0.00000000000E+00  0.00000000000E+00  0.45593999997E+02  0.45594000000E+02  0.51100000000E-03 0. -1.
         11   -1    0    0    0    0 -0.00000000000E+00 -0.00000000000E+00 -0.45593999997E+02  0.45594000000E+02  0.51100000000E-03 0.  1.
    9900012    2    1    2    0    0  0.10153047694E+02 -0.24391086492E+02  0.17852542444E+02  0.59301909781E+02  0.49999937542E+02 0.  0.
        -12    1    1    2    0    0 -0.10153047694E+02  0.24391086492E+02 -0.17852542444E+02  0.31886090219E+02  0.00000000000E+00 0.  1.
         11    1    3    3    0    0  0.15765529076E+02 -0.10780976716E+02  0.15883657458E+02  0.24840932762E+02  0.51100000000E-03 0. -1.
        -11    1    3    3    0    0 -0.16584885056E+01  0.55159198563E+01  0.11400111054E+02  0.12772567803E+02  0.51100000000E-03 0.  1.
         12    1    3    3    0    0 -0.39539928762E+01 -0.19126029632E+02 -0.94312260680E+01  0.21688409216E+02  0.00000000000E+00 0. -1.
</event>
<event>
 7    1  0.1101380E-011  0.5930194E+02  0.7816164E-02  0.1266605E+00
        -11   -1    0    0    0    0  0.00000000000E+00  0.00000000000E+00  0.45593999997E+02  0.45594000000E+02  0.51100000000E-03 0. -1.
         11   -1    0    0    0    0 -0.00000000000E+00 -0.00000000000E+00 -0.45593999997E+02  0.45594000000E+02  0.51100000000E-03 0.  1.
    9900012    2    1    2    0    0  0.27977879164E+02  0.14658210422E+01 -0.15225315912E+02  0.59301943510E+02  0.49999999056E+02 0.  0.
        -12    1    1    2    0    0 -0.27977879164E+02 -0.14658210422E+01  0.15225315912E+02  0.31886056490E+02  0.00000000000E+00 0.  1.
         11    1    3    3    0    0  0.12288621658E+02 -0.57730423911E+01 -0.23146784388E+02  0.26834900195E+02  0.51100000000E-03 0. -1.
        -11    1    3    3    0    0 -0.50478265635E+01 -0.45219398338E+01  0.50564824492E+01  0.84555607677E+01  0.51100000000E-03 0.  1.
        -12    1    3    3    0    0  0.20737084070E+02  0.11760803267E+02  0.28649860271E+01  0.24011482548E+02  0.00000000000E+00 0.  1.
</event>
<event>
 7    1  0.1101380E-011  0.5930194E+02  0.7816164E-02  0.1266605E+00
        -11   -1    0    0    0    0  0.00000000000E+00  0.00000000000E+00  0.45593999997E+02  0.45594000000E+02  0.51100000000E-03 0.  1.
         11   -1    0    0    0    0 -0.00000000000E+00 -0.00000000000E+00 -0.45593999997E+02  0.45594000000E+02  0.51100000000E-03 0. -1.
    9900012    2    1    2    0    0 -0.31542223604E+02 -0.28958580813E+01 -0.36637175683E+01  0.59301942070E+02  0.49999996429E+02 0.  0.
        -12    1    1    2    0    0  0.31542223604E+02  0.28958580813E+01  0.36637175683E+01  0.31886057930E+02  0.00000000000E+00 0.  1.
         11    1    3    3    0    0 -0.14615699663E+01  0.81878351952E+01  0.13050906229E+02  0.15475884001E+02  0.51100000000E-03 0. -1.
        -11    1    3    3    0    0 -0.23639174706E+01 -0.52097775660E+01  0.54136275444E+01  0.78763729943E+01  0.51100000000E-03 0.  1.
         12    1    3    3    0    0 -0.27716736167E+02 -0.58739157105E+01 -0.22128251341E+02  0.35949685075E+02  0.00000000000E+00 0. -1.
</event>
<event>
 7    1  0.1101380E-011  0.5930194E+02  0.7816164E-02  0.1266605E+00
        -11   -1    0    0    0    0  0.00000000000E+00  0.00000000000E+00  0.45593999997E+02  0.45594000000E+02  0.51100000000E-03 0.  1.
         11   -1    0    0    0    0 -0.00000000000E+00 -0.00000000000E+00 -0.45593999997E+02  0.45594000000E+02  0.51100000000E-03 0. -1.
    9900012    2    1    2    0    0  0.61003268994E+01 -0.23652527314E+02 -0.20495479847E+02  0.59301941436E+02  0.49999995273E+02 0.  0.
        -12    1    1    2    0    0 -0.61003268994E+01  0.23652527314E+02  0.20495479847E+02  0.31886058564E+02  0.00000000000E+00 0.  1.
         11    1    3    3    0    0  0.94026353526E+01  0.77369757176E+01 -0.20531681156E+02  0.23870908575E+02  0.51100000000E-03 0. -1.
        -11    1    3    3    0    0  0.33385902868E+01 -0.63005011070E+01 -0.53632672776E+01  0.89222830853E+01  0.51100000000E-03 0.  1.
        -12    1    3    3    0    0 -0.66408987400E+01 -0.25089001924E+02  0.53994685866E+01  0.26508749775E+02  0.00000000000E+00 0.  1.
</event>
<event>
 7    1  0.1101380E-011  0.5930193E+02  0.7816164E-02  0.1266605E+00
        -11   -1    0    0    0    0  0.00000000000E+00  0.00000000000E+00  0.45593999997E+02  0.45594000000E+02  0.51100000000E-03 0.  1.
         11   -1    0    0    0    0 -0.00000000000E+00 -0.00000000000E+00 -0.45593999997E+02  0.45594000000E+02  0.51100000000E-03 0. -1.
    9900012    2    1    2    0    0 -0.27510236150E+02 -0.39127954818E+01 -0.15639649850E+02  0.59301926097E+02  0.49999967299E+02 0.  0.
        -12    1    1    2    0    0  0.27510236150E+02  0.39127954818E+01  0.15639649850E+02  0.31886073903E+02  0.00000000000E+00 0.  1.
         11    1    3    3    0    0 -0.33573752862E+02 -0.16105683093E+02 -0.20610804454E+02  0.42560488362E+02  0.51100000000E-03 0. -1.
        -11    1    3    3    0    0 -0.63867585997E+00  0.93828374593E+00  0.33565215123E+01  0.35432358326E+01  0.51100000000E-03 0.  1.
        -12    1    3    3    0    0  0.67021925720E+01  0.11254603865E+02  0.16146330921E+01  0.13198201902E+02  0.00000000000E+00 0.  1.
</event>
<event>
 7    1  0.1101380E-011  0.5930197E+02  0.7816164E-02  0.1266605E+00
        -11   -1    0    0    0    0  0.00000000000E+00  0.00000000000E+00  0.45593999997E+02  0.45594000000E+02  0.51100000000E-03 0. -1.
         11   -1    0    0    0    0 -0.00000000000E+00 -0.00000000000E+00 -0.45593999997E+02  0.45594000000E+02  0.51100000000E-03 0.  1.
    9900012    2    1    2    0    0 -0.12898082006E+01  0.17275696614E+02  0.26769486696E+02  0.59301973018E+02  0.50000052872E+02 0.  0.
        -12    1    1    2    0    0  0.12898082006E+01 -0.17275696614E+02 -0.26769486696E+02  0.31886026982E+02  0.00000000000E+00 0.  1.
         11    1    3    3    0    0  0.18264664915E+01  0.15498797686E+02  0.22893168408E+02  0.27706422894E+02  0.51100000000E-03 0. -1.
        -11    1    3    3    0    0  0.13427937407E+02  0.14374716393E+01 -0.27300679762E+01  0.13777848131E+02  0.51100000000E-03 0.  1.
         12    1    3    3    0    0 -0.16544212099E+02  0.33942728940E+00  0.66063862645E+01  0.17817701993E+02  0.00000000000E+00 0. -1.
</event>
<event>
 7    1  0.1101380E-011  0.5930196E+02  0.7816164E-02  0.1266605E+00
        -11   -1    0    0    0    0  0.00000000000E+00  0.00000000000E+00  0.45593999997E+02  0.45594000000E+02  0.51100000000E-03 0.  1.
         11   -1    0    0    0    0 -0.00000000000E+00 -0.00000000000E+00 -0.45593999997E+02  0.45594000000E+02  0.51100000000E-03 0. -1.
    9900012    2    1    2    0    0 -0.32315779972E+01  0.30601786691E+02 -0.83550619687E+01  0.59301960648E+02  0.50000030312E+02 0.  0.
        -12    1    1    2    0    0  0.32315779972E+01 -0.30601786691E+02  0.83550619687E+01  0.31886039352E+02  0.00000000000E+00 0.  1.
         11    1    3    3    0    0 -0.11300589934E+02  0.96139864386E+01 -0.19441703500E+00  0.14838122063E+02  0.51100000000E-03 0. -1.
        -11    1    3    3    0    0 -0.44319459101E+01  0.20697987836E+02  0.91906549204E+01  0.23076329498E+02  0.51100000000E-03 0.  1.
         12    1    3    3    0    0  0.12500957847E+02  0.28981241718E+00 -0.17351299854E+02  0.21387509087E+02  0.00000000000E+00 0. -1.
</event>
<event>
 7    1  0.1101380E-011  0.5930194E+02  0.7816164E-02  0.1266605E+00
        -11   -1    0    0    0    0  0.00000000000E+00  0.00000000000E+00  0.45593999997E+02  0.45594000000E+02  0.51100000000E-03 0. -1.
         11   -1    0    0    0    0 -0.00000000000E+00 -0.00000000000E+00 -0.45593999997E+02  0.45594000000E+02  0.51100000000E-03 0.  1.
    9900012    2    1    2    0    0 -0.46118574416E+01 -0.26939361548E+02  0.16423230909E+02  0.59301938105E+02  0.49999989199E+02 0.  0.
        -12    1    1    2    0    0  0.46118574416E+01  0.26939361548E+02 -0.16423230909E+02  0.31886061895E+02  0.00000000000E+00 0.  1.
         11    1    3    3    0    0  0.33948043292E+01 -0.14124036812E+02  0.13993516438E+01  0.14593536158E+02  0.51100000000E-03 0. -1.
        -11    1    3    3    0    0  0.13858360621E+02 -0.85836483461E+00 -0.26774206261E+01  0.14140704747E+02  0.51100000000E-03 0.  1.
        -12    1    3    3    0    0 -0.21865022392E+02 -0.11956959901E+02  0.17701299891E+02  0.30567697200E+02  0.00000000000E+00 0.  1.
</event>
<event>
 7    1  0.1101380E-011  0.5930193E+02  0.7816164E-02  0.1266605E+00
        -11   -1    0    0    0    0  0.00000000000E+00  0.00000000000E+00  0.45593999997E+02  0.45594000000E+02  0.51100000000E-03 0. -1.
         11   -1    0    0    0    0 -0.00000000000E+00 -0.00000000000E+00 -0.45593999997E+02  0.45594000000E+02  0.51100000000E-03 0.  1.
    9900012    2    1    2    0    0  0.78113791740E+00  0.78920834599E+01  0.30884081031E+02  0.59301927509E+02  0.49999969873E+02 0.  0.
        -12    1    1    2    0    0 -0.78113791740E+00 -0.78920834599E+01 -0.30884081031E+02  0.31886072491E+02  0.00000000000E+00 0.  1.
         11    1    3    3    0    0 -0.10959996295E+02 -0.14297375769E+02  0.27210915925E+01  0.18219242915E+02  0.51100000000E-03 0. -1.
        -11    1    3    3    0    0 -0.79090776753E+00  0.28096829383E+01 -0.16715536879E+01  0.33636208620E+01  0.51100000000E-03 0.  1.
         12    1    3    3    0    0  0.12532041980E+02  0.19379776290E+02  0.29834543127E+02  0.37719063732E+02  0.00000000000E+00 0. -1.
</event>
<event>
 7    1  0.1101380E-011  0.5930190E+02  0.7816164E-02  0.1266605E+00
        -11   -1    0    0    0    0  0.00000000000E+00  0.00000000000E+00  0.45593999997E+02  0.45594000000E+02  0.51100000000E-03 0. -1.
         11   -1    0    0    0    0 -0.00000000000E+00 -0.00000000000E+00 -0.45593999997E+02  0.45594000000E+02  0.51100000000E-03 0.  1.
    9900012    2    1    2    0    0 -0.26247464989E+02 -0.58997471268E+01  0.17116853399E+02  0.59301904209E+02  0.49999927381E+02 0.  0.
        -12    1    1    2    0    0  0.26247464989E+02  0.58997471268E+01 -0.17116853399E+02  0.31886095791E+02  0.00000000000E+00 0.  1.
         11    1    3    3    0    0 -0.92428196999E+01 -0.24842055116E+01  0.14046884139E+02  0.16997527682E+02  0.51100000000E-03 0. -1.
        -11    1    3    3    0    0 -0.11364538428E+02  0.97234996067E+01  0.16791726995E+02  0.22486913395E+02  0.51100000000E-03 0.  1.
         12    1    3    3    0    0 -0.56401068611E+01 -0.13139041222E+02 -0.13721757736E+02  0.19817463132E+02  0.00000000000E+00 0. -1.
</event>
<event>
 7    1  0.1101380E-011  0.5930197E+02  0.7816164E-02  0.1266605E+00
        -11   -1    0    0    0    0  0.00000000000E+00  0.00000000000E+00  0.45593999997E+02  0.45594000000E+02  0.51100000000E-03 0. -1.
         11   -1    0    0    0    0 -0.00000000000E+00 -0.00000000000E+00 -0.45593999997E+02  0.45594000000E+02  0.51100000000E-03 0.  1.
    9900012    2    1    2    0    0  0.36698738985E+01 -0.25573268696E+02 -0.18688464505E+02  0.59301972468E+02  0.50000051868E+02 0.  0.
        -12    1    1    2    0    0 -0.36698738985E+01  0.25573268696E+02  0.18688464505E+02  0.31886027532E+02  0.00000000000E+00 0.  1.
         11    1    3    3    0    0  0.13222712301E+02 -0.76388459868E+01 -0.74884544682E+01  0.17007911076E+02  0.51100000000E-03 0. -1.
        -11    1    3    3    0    0  0.53778454889E+01  0.71768054623E+01 -0.94483929591E+01  0.13026890977E+02  0.51100000000E-03 0.  1.
         12    1    3    3    0    0 -0.14930683891E+02 -0.25111228171E+02 -0.17516170779E+01  0.29267170415E+02  0.00000000000E+00 0. -1.
</event>
<event>
 7    1  0.1101380E-011  0.5930228E+02  0.7816164E-02  0.1266604E+00
        -11   -1    0    0    0    0  0.00000000000E+00  0.00000000000E+00  0.45593999997E+02  0.45594000000E+02  0.51100000000E-03 0. -1.
         11   -1    0    0    0    0 -0.00000000000E+00 -0.00000000000E+00 -0.45593999997E+02  0.45594000000E+02  0.51100000000E-03 0.  1.
    9900012    2    1    2    0    0 -0.98009239540E+01 -0.25991804569E+02  0.15654625393E+02  0.59302277312E+02  0.50000607827E+02 0.  0.
        -12    1    1    2    0    0  0.98009239540E+01  0.25991804569E+02 -0.15654625393E+02  0.31885722688E+02  0.00000000000E+00 0.  1.
         11    1    3    3    0    0 -0.55264489354E+01 -0.27881036891E+02  0.21374012596E+02  0.35563215134E+02  0.51100000000E-03 0. -1.
        -11    1    3    3    0    0  0.54886535913E+01  0.29937329272E+01  0.58488517642E+01  0.85613563356E+01  0.51100000000E-03 0.  1.
        -12    1    3    3    0    0 -0.97631286100E+01 -0.11045006053E+01 -0.11568238967E+02  0.15177705842E+02  0.00000000000E+00 0.  1.
</event>
<event>
 7    1  0.1101380E-011  0.5930194E+02  0.7816164E-02  0.1266605E+00
        -11   -1    0    0    0    0  0.00000000000E+00  0.00000000000E+00  0.45593999997E+02  0.45594000000E+02  0.51100000000E-03 0.  1.
         11   -1    0    0    0    0 -0.00000000000E+00 -0.00000000000E+00 -0.45593999997E+02  0.45594000000E+02  0.51100000000E-03 0. -1.
    9900012    2    1    2    0    0 -0.25522593508E+01 -0.15449915534E+02 -0.27776009770E+02  0.59301942913E+02  0.49999997967E+02 0.  0.
        -12    1    1    2    0    0  0.25522593508E+01  0.15449915534E+02  0.27776009770E+02  0.31886057087E+02  0.00000000000E+00 0.  1.
         11    1    3    3    0    0 -0.16067965834E+01  0.27898197785E+01 -0.31176388836E+02  0.31342177825E+02  0.51100000000E-03 0. -1.
        -11    1    3    3    0    0 -0.30726627661E+01  0.32453803654E+01 -0.30686353880E+01  0.54212797009E+01  0.51100000000E-03 0.  1.
        -12    1    3    3    0    0  0.21271999987E+01 -0.21485115678E+02  0.64690144541E+01  0.22538485387E+02  0.00000000000E+00 0.  1.
</event>
<event>
 7    1  0.1101380E-011  0.5930197E+02  0.7816164E-02  0.1266605E+00
        -11   -1    0    0    0    0  0.00000000000E+00  0.00000000000E+00  0.45593999997E+02  0.45594000000E+02  0.51100000000E-03 0. -1.
         11   -1    0    0    0    0 -0.00000000000E+00 -0.00000000000E+00 -0.45593999997E+02  0.45594000000E+02  0.51100000000E-03 0.  1.
    9900012    2    1    2    0    0  0.26393675830E+02  0.17883639838E+02 -0.51764173103E+00  0.59301974054E+02  0.50000054761E+02 0.  0.
        -12    1    1    2    0    0 -0.26393675830E+02 -0.17883639838E+02  0.51764173103E+00  0.31886025946E+02  0.00000000000E+00 0.  1.
         11    1    3    3    0    0  0.13888577295E+01  0.22097995712E+02 -0.15453716131E+02  0.27001253356E+02  0.51100000000E-03 0. -1.
        -11    1    3    3    0    0 -0.10538199445E+00 -0.15748490439E+01 -0.14970170431E+01  0.21753885089E+01  0.51100000000E-03 0.  1.
         12    1    3    3    0    0  0.25110200095E+02 -0.26395068306E+01  0.16433091443E+02  0.30125332189E+02  0.00000000000E+00 0. -1.
</event>
<event>
 7    1  0.1101380E-011  0.5930194E+02  0.7816164E-02  0.1266605E+00
        -11   -1    0    0    0    0  0.00000000000E+00  0.00000000000E+00  0.45593999997E+02  0.45594000000E+02  0.51100000000E-03 0.  1.
         11   -1    0    0    0    0 -0.00000000000E+00 -0.00000000000E+00 -0.45593999997E+02  0.45594000000E+02  0.51100000000E-03 0. -1.
    9900012    2    1    2    0    0  0.30279550401E+02 -0.71506409529E+01 -0.69812374321E+01  0.59301944825E+02  0.50000001454E+02 0.  0.
        -12    1    1    2    0    0 -0.30279550401E+02  0.71506409529E+01  0.69812374321E+01  0.31886055175E+02  0.00000000000E+00 0.  1.
         11    1    3    3    0    0 -0.56497148755E+01 -0.18619133044E+01 -0.13683293692E+02  0.14920406357E+02  0.51100000000E-03 0. -1.
        -11    1    3    3    0    0  0.32066196443E+02 -0.31695602640E+01 -0.43206152409E+01  0.32510841006E+02  0.51100000000E-03 0.  1.
        -12    1    3    3    0    0  0.38630688337E+01 -0.21191673846E+01  0.11022671501E+02  0.11870697462E+02  0.00000000000E+00 0.  1.
</event>
<event>
 7    1  0.1101380E-011  0.5930195E+02  0.7816164E-02  0.1266605E+00
        -11   -1    0    0    0    0  0.00000000000E+00  0.00000000000E+00  0.45593999997E+02  0.45594000000E+02  0.51100000000E-03 0. -1.
         11   -1    0    0    0    0 -0.00000000000E+00 -0.00000000000E+00 -0.45593999997E+02  0.45594000000E+02  0.51100000000E-03 0.  1.
    9900012    2    1    2    0    0 -0.62931439270E+01 -0.30174584637E+02  0.81615656180E+01  0.59301947064E+02  0.50000005537E+02 0.  0.
        -12    1    1    2    0    0  0.62931439270E+01  0.30174584637E+02 -0.81615656180E+01  0.31886052936E+02  0.00000000000E+00 0.  1.
         11    1    3    3    0    0 -0.10384647537E+02 -0.64352454623E+01  0.34222261788E+01  0.12687195155E+02  0.51100000000E-03 0. -1.
        -11    1    3    3    0    0 -0.22897939973E+01 -0.10078978179E+02  0.21630615174E+02  0.23973161468E+02  0.51100000000E-03 0.  1.
        -12    1    3    3    0    0  0.63812976075E+01 -0.13660360997E+02 -0.16891275735E+02  0.22641590441E+02  0.00000000000E+00 0.  1.
</event>
<event>
 7    1  0.1101380E-011  0.5930197E+02  0.7816164E-02  0.1266605E+00
        -11   -1    0    0    0    0  0.00000000000E+00  0.00000000000E+00  0.45593999997E+02  0.45594000000E+02  0.51100000000E-03 0. -1.
         11   -1    0    0    0    0 -0.00000000000E+00 -0.00000000000E+00 -0.45593999997E+02  0.45594000000E+02  0.51100000000E-03 0.  1.
    9900012    2    1    2    0    0  0.50152534399E+01  0.30324383313E+02  0.84851510376E+01  0.59301972048E+02  0.50000051103E+02 0.  0.
        -12    1    1    2    0    0 -0.50152534399E+01 -0.30324383313E+02 -0.84851510376E+01  0.31886027952E+02  0.00000000000E+00 0.  1.
         11    1    3    3    0    0 -0.18395661283E+02  0.21274164281E+02  0.58411817580E+01  0.28724724967E+02  0.51100000000E-03 0. -1.
        -11    1    3    3    0    0  0.11300003645E+02  0.13131858827E+02  0.38279825076E+01  0.17742301118E+02  0.51100000000E-03 0.  1.
        -12    1    3    3    0    0  0.12110911078E+02 -0.40816397945E+01 -0.11840132280E+01  0.12834945963E+02  0.00000000000E+00 0.  1.
</event>
<event>
 7    1  0.1101380E-011  0.5930214E+02  0.7816164E-02  0.1266604E+00
        -11   -1    0    0    0    0  0.00000000000E+00  0.00000000000E+00  0.45593999997E+02  0.45594000000E+02  0.51100000000E-03 0. -1.
         11   -1    0    0    0    0 -0.00000000000E+00 -0.00000000000E+00 -0.45593999997E+02  0.45594000000E+02  0.51100000000E-03 0.  1.
    9900012    2    1    2    0    0 -0.27675985701E+02  0.15640708952E+02  0.24731182140E+01  0.59302136757E+02  0.50000351491E+02 0.  0.
        -12    1    1    2    0    0  0.27675985701E+02 -0.15640708952E+02 -0.24731182140E+01  0.31885863243E+02  0.00000000000E+00 0.  1.
         11    1    3    3    0    0 -0.70889450361E+01  0.41525455954E+01  0.10622458068E+01  0.82840293977E+01  0.51100000000E-03 0. -1.
        -11    1    3    3    0    0  0.34814588734E+01  0.12602046816E+02 -0.16459415494E+02  0.21020097491E+02  0.51100000000E-03 0.  1.
         12    1    3    3    0    0 -0.24068499538E+02 -0.11138834596E+01  0.17870287902E+02  0.29998009869E+02  0.00000000000E+00 0. -1.
</event>
<event>
 7    1  0.1101380E-011  0.5930193E+02  0.7816164E-02  0.1266605E+00
        -11   -1    0    0    0    0  0.00000000000E+00  0.00000000000E+00  0.45593999997E+02  0.45594000000E+02  0.51100000000E-03 0.  1.
         11   -1    0    0    0    0 -0.00000000000E+00 -0.00000000000E+00 -0.45593999997E+02  0.45594000000E+02  0.51100000000E-03 0. -1.
    9900012    2    1    2    0    0 -0.47854980700E+01  0.16753919066E+02 -0.26704436949E+02  0.59301925475E+02  0.49999966164E+02 0.  0.
        -12    1    1    2    0    0  0.47854980700E+01 -0.16753919066E+02  0.26704436949E+02  0.31886074525E+02  0.00000000000E+00 0.  1.
         11    1    3    3    0    0 -0.52633312592E+01  0.24545011000E+02 -0.15274261841E+02  0.29384745975E+02  0.51100000000E-03 0. -1.
        -11    1    3    3    0    0 -0.11068834180E+02  0.89773146322E+00 -0.10741587735E+02  0.15450136543E+02  0.51100000000E-03 0.  1.
        -12    1    3    3    0    0  0.11546667369E+02 -0.86888233973E+01 -0.68858737328E+00  0.14467042957E+02  0.00000000000E+00 0.  1.
</event>
<event>
 7    1  0.1101380E-011  0.5930194E+02  0.7816164E-02  0.1266605E+00
        -11   -1    0    0    0    0  0.00000000000E+00  0.00000000000E+00  0.45593999997E+02  0.45594000000E+02  0.51100000000E-03 0. -1.
         11   -1    0    0    0    0 -0.00000000000E+00 -0.00000000000E+00 -0.45593999997E+02  0.45594000000E+02  0.51100000000E-03 0.  1.
    9900012    2    1    2    0    0  0.12147854130E+02  0.29073533610E+02 -0.48867129168E+01  0.59301942237E+02  0.49999996734E+02 0.  0.
        -12    1    1    2    0    0 -0.12147854130E+02 -0.29073533610E+02  0.48867129168E+01  0.31886057763E+02  0.00000000000E+00 0.  1.
         11    1    3    3    0    0  0.22260955552E+01  0.22762692242E+02  0.15849770138E+02  0.27826441979E+02  0.51100000000E-03 0. -1.
        -11    1    3    3    0    0 -0.34299224766E+01 -0.43494941508E+01 -0.14828168415E+01  0.57342142976E+01  0.51100000000E-03 0.  1.
         12    1    3    3    0    0  0.13351681051E+02  0.10660335519E+02 -0.19253666213E+02  0.25741285961E+02  0.00000000000E+00 0. -1.
</event>
<event>
 7    1  0.1101380E-011  0.5930194E+02  0.7816164E-02  0.1266605E+00
        -11   -1    0    0    0    0  0.00000000000E+00  0.00000000000E+00  0.45593999997E+02  0.45594000000E+02  0.51100000000E-03 0. -1.
         11   -1    0    0    0    0 -0.00000000000E+00 -0.00000000000E+00 -0.45593999997E+02  0.45594000000E+02  0.51100000000E-03 0.  1.
    9900012    2    1    2    0    0  0.22600038451E+02 -0.19679600863E+01  0.22407280110E+02  0.59301940243E+02  0.49999993098E+02 0.  0.
        -12    1    1    2    0    0 -0.22600038451E+02  0.19679600863E+01 -0.22407280110E+02  0.31886059757E+02  0.00000000000E+00 0.  1.
         11    1    3    3    0    0 -0.97923714665E+00  0.14952983482E+02  0.33629257849E+00  0.14988786254E+02  0.51100000000E-03 0. -1.
        -11    1    3    3    0    0 -0.44102394026E+01 -0.56564304309E+01  0.87985952552E+01  0.11351682498E+02  0.51100000000E-03 0.  1.
         12    1    3    3    0    0  0.27989515000E+02 -0.11264513137E+02  0.13272392276E+02  0.32961471492E+02  0.00000000000E+00 0. -1.
</event>
<event>
 7    1  0.1101380E-011  0.5930194E+02  0.7816164E-02  0.1266605E+00
        -11   -1    0    0    0    0  0.00000000000E+00  0.00000000000E+00  0.45593999997E+02  0.45594000000E+02  0.51100000000E-03 0.  1.
         11   -1    0    0    0    0 -0.00000000000E+00 -0.00000000000E+00 -0.45593999997E+02  0.45594000000E+02  0.51100000000E-03 0. -1.
    9900012    2    1    2    0    0  0.29397266642E+01  0.16704145803E+02 -0.27000928105E+02  0.59301943512E+02  0.49999999059E+02 0.  0.
        -12    1    1    2    0    0 -0.29397266642E+01 -0.16704145803E+02  0.27000928105E+02  0.31886056488E+02  0.00000000000E+00 0.  1.
         11    1    3    3    0    0  0.10983070148E+01  0.64525461088E+01 -0.98040759415E+01  0.11788194727E+02  0.51100000000E-03 0. -1.
        -11    1    3    3    0    0  0.22402148244E+02  0.40314009788E+01 -0.99688438023E+01  0.24849271354E+02  0.51100000000E-03 0.  1.
         12    1    3    3    0    0 -0.20560728594E+02  0.62201987151E+01 -0.72280083608E+01  0.22664477432E+02  0.00000000000E+00 0. -1.
</event>
<event>
 7    1  0.1101380E-011  0.5930201E+02  0.7816164E-02  0.1266605E+00
        -11   -1    0    0    0    0  0.00000000000E+00  0.00000000000E+00  0.45593999997E+02  0.45594000000E+02  0.51100000000E-03 0.  1.
         11   -1    0    0    0    0 -0.00000000000E+00 -0.00000000000E+00 -0.45593999997E+02  0.45594000000E+02  0.51100000000E-03 0. -1.
    9900012    2    1    2    0    0 -0.15625590726E+02  0.49700298481E+01  0.27346953253E+02  0.59302013510E+02  0.50000126719E+02 0.  0.
        -12    1    1    2    0    0  0.15625590726E+02 -0.49700298481E+01 -0.27346953253E+02  0.31885986490E+02  0.00000000000E+00 0.  1.
         11    1    3    3    0    0  0.11559322067E+02  0.13039796627E+01 -0.59276506600E+01  0.13055854327E+02  0.51100000000E-03 0. -1.
        -11    1    3    3    0    0 -0.52644751772E+01  0.80234287723E+01  0.78766116801E+01  0.12414955496E+02  0.51100000000E-03 0.  1.
        -12    1    3    3    0    0 -0.21920437616E+02 -0.43573785869E+01  0.25397992233E+02  0.33831203686E+02  0.00000000000E+00 0.  1.
</event>
<event>
 7    1  0.1101380E-011  0.5930187E+02  0.7816164E-02  0.1266605E+00
        -11   -1    0    0    0    0  0.00000000000E+00  0.00000000000E+00  0.45593999997E+02  0.45594000000E+02  0.51100000000E-03 0.  1.
         11   -1    0    0    0    0 -0.00000000000E+00 -0.00000000000E+00 -0.45593999997E+02  0.45594000000E+02  0.51100000000E-03 0. -1.
    9900012    2    1    2    0    0 -0.19135082909E+02  0.73073249690E+01 -0.24437203329E+02  0.59301869744E+02  0.49999864524E+02 0.  0.
        -12    1    1    2    0    0  0.19135082909E+02 -0.73073249690E+01  0.24437203329E+02  0.31886130256E+02  0.00000000000E+00 0.  1.
         11    1    3    3    0    0 -0.55328009421E+01 -0.32551181768E+01  0.36445029981E+01  0.73817398338E+01  0.51100000000E-03 0. -1.
        -11    1    3    3    0    0  0.13553093666E+02  0.24487021591E+01 -0.30482366849E+01  0.14105822817E+02  0.51100000000E-03 0.  1.
         12    1    3    3    0    0 -0.27155375633E+02  0.81137409868E+01 -0.25033469643E+02  0.37814307093E+02  0.00000000000E+00 0. -1.
</event>
<event>
 7    1  0.1101380E-011  0.5930192E+02  0.7816164E-02  0.1266605E+00
        -11   -1    0    0    0    0  0.00000000000E+00  0.00000000000E+00  0.45593999997E+02  0.45594000000E+02  0.51100000000E-03 0.  1.
         11   -1    0    0    0    0 -0.00000000000E+00 -0.00000000000E+00 -0.45593999997E+02  0.45594000000E+02  0.51100000000E-03 0. -1.
    9900012    2    1    2    0    0 -0.30986053068E+01 -0.17231387010E+02 -0.26649577949E+02  0.59301920623E+02  0.49999957316E+02 0.  0.
        -12    1    1    2    0    0  0.30986053068E+01  0.17231387010E+02  0.26649577949E+02  0.31886079377E+02  0.00000000000E+00 0.  1.
         11    1    3    3    0    0  0.10735744759E+01 -0.51860123228E+01 -0.29516984675E+01  0.60629868936E+01  0.51100000000E-03 0. -1.
        -11    1    3    3    0    0 -0.79051567780E+01 -0.18082108709E+02 -0.34832529441E+02  0.40034475975E+02  0.51100000000E-03 0.  1.
        -12    1    3    3    0    0  0.37329769953E+01  0.60367340226E+01  0.11134649959E+02  0.13204457755E+02  0.00000000000E+00 0.  1.
</event>
<event>
 7    1  0.1101380E-011  0.5930192E+02  0.7816164E-02  0.1266605E+00
        -11   -1    0    0    0    0  0.00000000000E+00  0.00000000000E+00  0.45593999997E+02  0.45594000000E+02  0.51100000000E-03 0.  1.
         11   -1    0    0    0    0 -0.00000000000E+00 -0.00000000000E+00 -0.45593999997E+02  0.45594000000E+02  0.51100000000E-03 0. -1.
    9900012    2    1    2    0    0 -0.37042936080E+01 -0.25655215697E+02  0.18569072661E+02  0.59301916153E+02  0.49999949163E+02 0.  0.
        -12    1    1    2    0    0  0.37042936080E+01  0.25655215697E+02 -0.18569072661E+02  0.31886083847E+02  0.00000000000E+00 0.  1.
         11    1    3    3    0    0 -0.62402630215E+01 -0.23101394939E+02  0.18194924924E+02  0.30061114816E+02  0.51100000000E-03 0. -1.
        -11    1    3    3    0    0  0.92310405653E+01  0.98138634877E+01  0.50976358932E+01  0.14405204561E+02  0.51100000000E-03 0.  1.
        -12    1    3    3    0    0 -0.66950711518E+01 -0.12367684246E+02 -0.47234881564E+01  0.14835596776E+02  0.00000000000E+00 0.  1.
</event>
<event>
 7    1  0.1101380E-011  0.5930196E+02  0.7816164E-02  0.1266605E+00
        -11   -1    0    0    0    0  0.00000000000E+00  0.00000000000E+00  0.45593999997E+02  0.45594000000E+02  0.51100000000E-03 0.  1.
         11   -1    0    0    0    0 -0.00000000000E+00 -0.00000000000E+00 -0.45593999997E+02  0.45594000000E+02  0.51100000000E-03 0. -1.
    9900012    2    1    2    0    0  0.23477415379E+01  0.28326779309E+00 -0.31798233361E+02  0.59301956410E+02  0.50000022582E+02 0.  0.
        -12    1    1    2    0    0 -0.23477415379E+01 -0.28326779309E+00  0.31798233361E+02  0.31886043590E+02  0.00000000000E+00 0.  1.
         11    1    3    3    0    0 -0.34244626559E+01  0.44235594434E+01 -0.47994256552E+01  0.73708418455E+01  0.51100000000E-03 0. -1.
        -11    1    3    3    0    0  0.83815188265E+00 -0.23937005554E+02 -0.14116975348E+02  0.27802369084E+02  0.51100000000E-03 0.  1.
         12    1    3    3    0    0  0.49340523112E+01  0.19796713903E+02 -0.12881832358E+02  0.24128745481E+02  0.00000000000E+00 0. -1.
</event>
<event>
 7    1  0.1101380E-011  0.5930197E+02  0.7816164E-02  0.1266605E+00
        -11   -1    0    0    0    0  0.00000000000E+00  0.00000000000E+00  0.45593999997E+02  0.45594000000E+02  0.51100000000E-03 0.  1.
         11   -1    0    0    0    0 -0.00000000000E+00 -0.00000000000E+00 -0.45593999997E+02  0.45594000000E+02  0.51100000000E-03 0. -1.
    9900012    2    1    2    0    0  0.14608534001E+02  0.95918188110E+01 -0.26670335808E+02  0.59301967543E+02  0.50000042886E+02 0.  0.
        -12    1    1    2    0    0 -0.14608534001E+02 -0.95918188110E+01  0.26670335808E+02  0.31886032457E+02  0.00000000000E+00 0.  1.
         11    1    3    3    0    0  0.54122721024E+01 -0.41755332998E+01 -0.83360009030E+01  0.10780383990E+02  0.51100000000E-03 0. -1.
        -11    1    3    3    0    0 -0.40382762464E+01  0.36056639339E+01 -0.28482320640E+02  0.28992258910E+02  0.51100000000E-03 0.  1.
        -12    1    3    3    0    0  0.13234538145E+02  0.10161688177E+02  0.10147985735E+02  0.19529324643E+02  0.00000000000E+00 0.  1.
</event>
<event>
 7    1  0.1101380E-011  0.5930195E+02  0.7816164E-02  0.1266605E+00
        -11   -1    0    0    0    0  0.00000000000E+00  0.00000000000E+00  0.45593999997E+02  0.45594000000E+02  0.51100000000E-03 0. -1.
         11   -1    0    0    0    0 -0.00000000000E+00 -0.00000000000E+00 -0.45593999997E+02  0.45594000000E+02  0.51100000000E-03 0.  1.
    9900012    2    1    2    0    0 -0.20255835550E+02 -0.20815402612E+02  0.13158274276E+02  0.59301952242E+02  0.50000014981E+02 0.  0.
        -12    1    1    2    0    0  0.20255835550E+02  0.20815402612E+02 -0.13158274276E+02  0.31886047758E+02  0.00000000000E+00 0.  1.
         11    1    3    3    0    0 -0.17250716815E+02  0.57110186079E+01  0.11917319240E+02  0.21730749235E+02  0.51100000000E-03 0. -1.
        -11    1    3    3    0    0  0.58819091975E+01 -0.17795481871E+02  0.11012246514E+02  0.21738114095E+02  0.51100000000E-03 0.  1.
        -12    1    3    3    0    0 -0.88870279316E+01 -0.87309393482E+01 -0.97712914781E+01  0.15833088912E+02  0.00000000000E+00 0.  1.
</event>
<event>
 7    1  0.1101380E-011  0.5930194E+02  0.7816164E-02  0.1266605E+00
        -11   -1    0    0    0    0  0.00000000000E+00  0.00000000000E+00  0.45593999997E+02  0.45594000000E+02  0.51100000000E-03 0. -1.
         11   -1    0    0    0    0 -0.00000000000E+00 -0.00000000000E+00 -0.45593999997E+02  0.45594000000E+02  0.51100000000E-03 0.  1.
    9900012    2    1    2    0    0  0.71247164251E+01  0.21946010050E+02  0.22007541525E+02  0.59301939955E+02  0.49999992572E+02 0.  0.
        -12    1    1    2    0    0 -0.71247164251E+01 -0.21946010050E+02 -0.22007541525E+02  0.31886060045E+02  0.00000000000E+00 0.  1.
         11    1    3    3    0    0  0.42327716932E+01  0.19697071502E+02  0.97236347096E+01  0.22370517522E+02  0.51100000000E-03 0. -1.
        -11    1    3    3    0    0  0.53220803519E+01  0.83761681813E+01  0.22603632537E+02  0.24686209446E+02  0.51100000000E-03 0.  1.
        -12    1    3    3    0    0 -0.24301356201E+01 -0.61272296337E+01 -0.10319725722E+02  0.12245212987E+02  0.00000000000E+00 0.  1.
</event>
<event>
 7    1  0.1101380E-011  0.5930194E+02  0.7816164E-02  0.1266605E+00
        -11   -1    0    0    0    0  0.00000000000E+00  0.00000000000E+00  0.45593999997E+02  0.45594000000E+02  0.51100000000E-03 0.  1.
         11   -1    0    0    0    0 -0.00000000000E+00 -0.00000000000E+00 -0.45593999997E+02  0.45594000000E+02  0.51100000000E-03 0. -1.
    9900012    2    1    2    0    0 -0.17337632321E+02 -0.24366303717E+02  0.11063944257E+02  0.59301935429E+02  0.49999984318E+02 0.  0.
        -12    1    1    2    0    0  0.17337632321E+02  0.24366303717E+02 -0.11063944257E+02  0.31886064571E+02  0.00000000000E+00 0.  1.
         11    1    3    3    0    0 -0.30773221797E+00  0.45142052362E+00  0.20963336829E+01  0.21663551828E+01  0.51100000000E-03 0.  1.
        -11    1    3    3    0    0  0.11792812060E+01 -0.12406194138E+02  0.26297469534E+02  0.29100880765E+02  0.51100000000E-03 0. -1.
         12    1    3    3    0    0 -0.18209181309E+02 -0.12411530103E+02 -0.17329858960E+02  0.28034699481E+02  0.00000000000E+00 0. -1.
</event>
<event>
 7    1  0.1101380E-011  0.5930198E+02  0.7816164E-02  0.1266605E+00
        -11   -1    0    0    0    0  0.00000000000E+00  0.00000000000E+00  0.45593999997E+02  0.45594000000E+02  0.51100000000E-03 0. -1.
         11   -1    0    0    0    0 -0.00000000000E+00 -0.00000000000E+00 -0.45593999997E+02  0.45594000000E+02  0.51100000000E-03 0.  1.
    9900012    2    1    2    0    0  0.12405106853E+02 -0.20586650961E+02  0.20952838159E+02  0.59301979541E+02  0.50000064767E+02 0.  0.
        -12    1    1    2    0    0 -0.12405106853E+02  0.20586650961E+02 -0.20952838159E+02  0.31886020459E+02  0.00000000000E+00 0.  1.
         11    1    3    3    0    0 -0.59058720017E+01 -0.53948258982E+01 -0.97790167849E+01  0.12633789618E+02  0.51100000000E-03 0. -1.
        -11    1    3    3    0    0  0.14963913400E+01  0.70084776311E+01  0.48861595188E+01  0.86736670937E+01  0.51100000000E-03 0.  1.
         12    1    3    3    0    0  0.16814587514E+02 -0.22200302694E+02  0.25845695425E+02  0.37994522829E+02  0.00000000000E+00 0. -1.
</event>
<event>
 7    1  0.1101380E-011  0.5930191E+02  0.7816164E-02  0.1266605E+00
        -11   -1    0    0    0    0  0.00000000000E+00  0.00000000000E+00  0.45593999997E+02  0.45594000000E+02  0.51100000000E-03 0. -1.
         11   -1    0    0    0    0 -0.00000000000E+00 -0.00000000000E+00 -0.45593999997E+02  0.45594000000E+02  0.51100000000E-03 0.  1.
    9900012    2    1    2    0    0  0.26243466455E+02 -0.17138958021E+02  0.58531415248E+01  0.59301910881E+02  0.49999939547E+02 0.  0.
        -12    1    1    2    0    0 -0.26243466455E+02  0.17138958021E+02 -0.58531415248E+01  0.31886089119E+02  0.00000000000E+00 0.  1.
         11    1    3    3    0    0  0.20699166125E+02 -0.11850425318E+02 -0.53043328443E+01  0.24434074684E+02  0.51100000000E-03 0. -1.
        -11    1    3    3    0    0  0.65882467654E+01  0.15084614215E+01 -0.10308863411E+02  0.12326926477E+02  0.51100000000E-03 0.  1.
        -12    1    3    3    0    0 -0.10439464351E+01 -0.67969941242E+01  0.21466337780E+02  0.22540909719E+02  0.00000000000E+00 0.  1.
</event>
<event>
 7    1  0.1101380E-011  0.5930195E+02  0.7816164E-02  0.1266605E+00
        -11   -1    0    0    0    0  0.00000000000E+00  0.00000000000E+00  0.45593999997E+02  0.45594000000E+02  0.51100000000E-03 0.  1.
         11   -1    0    0    0    0 -0.00000000000E+00 -0.00000000000E+00 -0.45593999997E+02  0.45594000000E+02  0.51100000000E-03 0. -1.
    9900012    2    1    2    0    0 -0.26190998565E+02 -0.15866011777E+02 -0.88893867937E+01  0.59301953944E+02  0.50000018085E+02 0.  0.
        -12    1    1    2    0    0  0.26190998565E+02  0.15866011777E+02  0.88893867937E+01  0.31886046056E+02  0.00000000000E+00 0.  1.
         11    1    3    3    0    0 -0.34962523929E+01 -0.22248361522E+02  0.11149938907E+02  0.25130350358E+02  0.51100000000E-03 0.  1.
        -11    1    3    3    0    0 -0.14973648722E+02 -0.26465231515E+01 -0.77050440130E+01  0.17046464277E+02  0.51100000000E-03 0. -1.
        -12    1    3    3    0    0 -0.77210974497E+01  0.90288728966E+01 -0.12334281688E+02  0.17125139309E+02  0.00000000000E+00 0.  1.
</event>
<event>
 7    1  0.1101380E-011  0.5930195E+02  0.7816164E-02  0.1266605E+00
        -11   -1    0    0    0    0  0.00000000000E+00  0.00000000000E+00  0.45593999997E+02  0.45594000000E+02  0.51100000000E-03 0. -1.
         11   -1    0    0    0    0 -0.00000000000E+00 -0.00000000000E+00 -0.45593999997E+02  0.45594000000E+02  0.51100000000E-03 0.  1.
    9900012    2    1    2    0    0  0.87267967517E+01 -0.28707604341E+02 -0.10790585959E+02  0.59301948600E+02  0.50000008339E+02 0.  0.
        -12    1    1    2    0    0 -0.87267967517E+01  0.28707604341E+02  0.10790585959E+02  0.31886051400E+02  0.00000000000E+00 0.  1.
         11    1    3    3    0    0 -0.28433226654E+01 -0.16150626974E+02  0.44925948481E+01  0.17003253929E+02  0.51100000000E-03 0. -1.
        -11    1    3    3    0    0 -0.10798817919E+02 -0.95659807116E+01 -0.13337142381E+02  0.19646929088E+02  0.51100000000E-03 0.  1.
        -12    1    3    3    0    0  0.22368937336E+02 -0.29909966553E+01 -0.19460384254E+01  0.22651765584E+02  0.00000000000E+00 0.  1.
</event>
<event>
 7    1  0.1101380E-011  0.5930193E+02  0.7816164E-02  0.1266605E+00
        -11   -1    0    0    0    0  0.00000000000E+00  0.00000000000E+00  0.45593999997E+02  0.45594000000E+02  0.51100000000E-03 0.  1.
         11   -1    0    0    0    0 -0.00000000000E+00 -0.00000000000E+00 -0.45593999997E+02  0.45594000000E+02  0.51100000000E-03 0. -1.
    9900012    2    1    2    0    0 -0.31404963420E+02  0.51129989733E+01  0.20753351147E+01  0.59301929346E+02  0.49999973225E+02 0.  0.
        -12    1    1    2    0    0  0.31404963420E+02 -0.51129989733E+01 -0.20753351147E+01  0.31886070654E+02  0.00000000000E+00 0.  1.
         11    1    3    3    0    0  0.92136390656E+01 -0.15514213184E+01  0.10363640575E+02  0.13953605239E+02  0.51100000000E-03 0. -1.
        -11    1    3    3    0    0 -0.36929425130E+01  0.21165773573E+01  0.43206098158E+01  0.60650963352E+01  0.51100000000E-03 0.  1.
         12    1    3    3    0    0 -0.36925659972E+02  0.45478429345E+01 -0.12608915276E+02  0.39283227772E+02  0.00000000000E+00 0. -1.
</event>
<event>
 7    1  0.1101380E-011  0.5930195E+02  0.7816164E-02  0.1266605E+00
        -11   -1    0    0    0    0  0.00000000000E+00  0.00000000000E+00  0.45593999997E+02  0.45594000000E+02  0.51100000000E-03 0.  1.
         11   -1    0    0    0    0 -0.00000000000E+00 -0.00000000000E+00 -0.45593999997E+02  0.45594000000E+02  0.51100000000E-03 0. -1.
    9900012    2    1    2    0    0 -0.31166767546E+02  0.67101489185E+01 -0.57175619451E+00  0.59301946576E+02  0.50000004648E+02 0.  0.
        -12    1    1    2    0    0  0.31166767546E+02 -0.67101489185E+01  0.57175619451E+00  0.31886053424E+02  0.00000000000E+00 0.  1.
         11    1    3    3    0    0 -0.15854919707E+02 -0.13573475703E+02  0.40946660236E+01  0.21269320903E+02  0.51100000000E-03 0. -1.
        -11    1    3    3    0    0 -0.68113104411E+01 -0.66302458199E+01 -0.16483852521E+01  0.96473459437E+01  0.51100000000E-03 0.  1.
         12    1    3    3    0    0 -0.85005373978E+01  0.26913870441E+02 -0.30180369660E+01  0.28385279729E+02  0.00000000000E+00 0. -1.
</event>
<event>
 7    1  0.1101380E-011  0.5930196E+02  0.7816164E-02  0.1266605E+00
        -11   -1    0    0    0    0  0.00000000000E+00  0.00000000000E+00  0.45593999997E+02  0.45594000000E+02  0.51100000000E-03 0.  1.
         11   -1    0    0    0    0 -0.00000000000E+00 -0.00000000000E+00 -0.45593999997E+02  0.45594000000E+02  0.51100000000E-03 0. -1.
    9900012    2    1    2    0    0  0.68657301068E+01 -0.21531538109E+02  0.22493870460E+02  0.59301959301E+02  0.50000027854E+02 0.  0.
        -12    1    1    2    0    0 -0.68657301068E+01  0.21531538109E+02 -0.22493870460E+02  0.31886040699E+02  0.00000000000E+00 0.  1.
         11    1    3    3    0    0  0.10613368251E+02 -0.14746991935E+02  0.60208266958E+01  0.19140734341E+02  0.51100000000E-03 0. -1.
        -11    1    3    3    0    0  0.25482859498E+01 -0.10710010384E+02  0.25912957907E+02  0.28154563954E+02  0.51100000000E-03 0.  1.
         12    1    3    3    0    0 -0.62959240940E+01  0.39254642097E+01 -0.94399141434E+01  0.12006661005E+02  0.00000000000E+00 0. -1.
</event>
<event>
 7    1  0.1101380E-011  0.5930193E+02  0.7816164E-02  0.1266605E+00
        -11   -1    0    0    0    0  0.00000000000E+00  0.00000000000E+00  0.45593999997E+02  0.45594000000E+02  0.51100000000E-03 0. -1.
         11   -1    0    0    0    0 -0.00000000000E+00 -0.00000000000E+00 -0.45593999997E+02  0.45594000000E+02  0.51100000000E-03 0.  1.
    9900012    2    1    2    0    0  0.29426721245E+02  0.18676977917E+01  0.12136768959E+02  0.59301931270E+02  0.49999976733E+02 0.  0.
        -12    1    1    2    0    0 -0.29426721245E+02 -0.18676977917E+01 -0.12136768959E+02  0.31886068730E+02  0.00000000000E+00 0.  1.
         11    1    3    3    0    0 -0.23096905063E+01  0.13049162090E+02 -0.71030439925E+01  0.15035575670E+02  0.51100000000E-03 0.  1.
        -11    1    3    3    0    0  0.18272939508E+01 -0.94493459182E+01  0.70117687268E+01  0.11907730363E+02  0.51100000000E-03 0. -1.
        -12    1    3    3    0    0  0.29909117801E+02 -0.17321183805E+01  0.12228044224E+02  0.32358625237E+02  0.00000000000E+00 0.  1.
</event>
<event>
 7    1  0.1101380E-011  0.5930193E+02  0.7816164E-02  0.1266605E+00
        -11   -1    0    0    0    0  0.00000000000E+00  0.00000000000E+00  0.45593999997E+02  0.45594000000E+02  0.51100000000E-03 0.  1.
         11   -1    0    0    0    0 -0.00000000000E+00 -0.00000000000E+00 -0.45593999997E+02  0.45594000000E+02  0.51100000000E-03 0. -1.
    9900012    2    1    2    0    0  0.24374512723E+02 -0.20086708304E+02 -0.43736122914E+01  0.59301933992E+02  0.49999981697E+02 0.  0.
        -12    1    1    2    0    0 -0.24374512723E+02  0.20086708304E+02  0.43736122914E+01  0.31886066008E+02  0.00000000000E+00 0.  1.
         11    1    3    3    0    0  0.84447389505E+01 -0.14052032945E+02 -0.21996864236E+02  0.27434199137E+02  0.51100000000E-03 0. -1.
        -11    1    3    3    0    0 -0.37830282687E+01 -0.53085415293E+01  0.65735173710E+01  0.92575940145E+01  0.51100000000E-03 0.  1.
        -12    1    3    3    0    0  0.19712802042E+02 -0.72613382950E+00  0.11049734574E+02  0.22610140840E+02  0.00000000000E+00 0.  1.
</event>
<event>
 7    1  0.1101380E-011  0.5930162E+02  0.7816164E-02  0.1266606E+00
        -11   -1    0    0    0    0  0.00000000000E+00  0.00000000000E+00  0.45593999997E+02  0.45594000000E+02  0.51100000000E-03 0. -1.
         11   -1    0    0    0    0 -0.00000000000E+00 -0.00000000000E+00 -0.45593999997E+02  0.45594000000E+02  0.51100000000E-03 0.  1.
    9900012    2    1    2    0    0 -0.34898478890E+01  0.10940778325E+02  0.29746617444E+02  0.59301624884E+02  0.49999417956E+02 0.  0.
        -12    1    1    2    0    0  0.34898478890E+01 -0.10940778325E+02 -0.29746617444E+02  0.31886375116E+02  0.00000000000E+00 0.  1.
         11    1    3    3    0    0  0.77128244727E+01  0.74332795477E+01  0.38144699178E+01  0.11370641459E+02  0.51100000000E-03 0. -1.
        -11    1    3    3    0    0 -0.10349551508E+02 -0.11703127879E+02 -0.23577524490E+01  0.15799854919E+02  0.51100000000E-03 0.  1.
         12    1    3    3    0    0 -0.85312085315E+00  0.15210626656E+02  0.28289899975E+02  0.32131128506E+02  0.00000000000E+00 0. -1.
</event>
<event>
 7    1  0.1101380E-011  0.5930191E+02  0.7816164E-02  0.1266605E+00
        -11   -1    0    0    0    0  0.00000000000E+00  0.00000000000E+00  0.45593999997E+02  0.45594000000E+02  0.51100000000E-03 0. -1.
         11   -1    0    0    0    0 -0.00000000000E+00 -0.00000000000E+00 -0.45593999997E+02  0.45594000000E+02  0.51100000000E-03 0.  1.
    9900012    2    1    2    0    0 -0.17620604810E+02  0.74924746571E+01  0.25497059918E+02  0.59301906561E+02  0.49999931670E+02 0.  0.
        -12    1    1    2    0    0  0.17620604810E+02 -0.74924746571E+01 -0.25497059918E+02  0.31886093439E+02  0.00000000000E+00 0.  1.
         11    1    3    3    0    0 -0.64277512769E+01  0.15928874376E+02 -0.59743077188E+01  0.18186186471E+02  0.51100000000E-03 0. -1.
        -11    1    3    3    0    0 -0.10376395831E+02  0.57110086018E+01  0.10641745626E+02  0.15922686957E+02  0.51100000000E-03 0.  1.
        -12    1    3    3    0    0 -0.81645770142E+00 -0.14147408321E+02  0.20829622010E+02  0.25193033133E+02  0.00000000000E+00 0.  1.
</event>
<event>
 7    1  0.1101380E-011  0.5930195E+02  0.7816164E-02  0.1266605E+00
        -11   -1    0    0    0    0  0.00000000000E+00  0.00000000000E+00  0.45593999997E+02  0.45594000000E+02  0.51100000000E-03 0.  1.
         11   -1    0    0    0    0 -0.00000000000E+00 -0.00000000000E+00 -0.45593999997E+02  0.45594000000E+02  0.51100000000E-03 0. -1.
    9900012    2    1    2    0    0  0.97911918361E+00 -0.11002685317E+02 -0.29911577907E+02  0.59301948952E+02  0.50000008980E+02 0.  0.
        -12    1    1    2    0    0 -0.97911918361E+00  0.11002685317E+02  0.29911577907E+02  0.31886051048E+02  0.00000000000E+00 0.  1.
         11    1    3    3    0    0 -0.57059475800E+01 -0.32745792121E+01 -0.25798857422E+01  0.70665774959E+01  0.51100000000E-03 0. -1.
        -11    1    3    3    0    0 -0.17929352791E+02  0.10864546713E+01 -0.77136378191E+01  0.19548459886E+02  0.51100000000E-03 0.  1.
        -12    1    3    3    0    0  0.24614419554E+02 -0.88145607759E+01 -0.19618054346E+02  0.32686911570E+02  0.00000000000E+00 0.  1.
</event>
<event>
 7    1  0.1101380E-011  0.5930196E+02  0.7816164E-02  0.1266605E+00
        -11   -1    0    0    0    0  0.00000000000E+00  0.00000000000E+00  0.45593999997E+02  0.45594000000E+02  0.51100000000E-03 0.  1.
         11   -1    0    0    0    0 -0.00000000000E+00 -0.00000000000E+00 -0.45593999997E+02  0.45594000000E+02  0.51100000000E-03 0. -1.
    9900012    2    1    2    0    0 -0.26673498041E+02 -0.16832637523E+02 -0.46804330863E+01  0.59301958577E+02  0.50000026535E+02 0.  0.
        -12    1    1    2    0    0  0.26673498041E+02  0.16832637523E+02  0.46804330863E+01  0.31886041423E+02  0.00000000000E+00 0.  1.
         11    1    3    3    0    0 -0.24883727522E+02 -0.22298285608E+02 -0.15699961304E+02  0.36917505626E+02  0.51100000000E-03 0. -1.
        -11    1    3    3    0    0 -0.17778917712E+01 -0.63778465515E+01  0.66772606699E+00  0.66545987217E+01  0.51100000000E-03 0.  1.
        -12    1    3    3    0    0 -0.11878747969E-01  0.11843494636E+02  0.10351802151E+02  0.15729854230E+02  0.00000000000E+00 0.  1.
</event>
<event>
 7    1  0.1101380E-011  0.5930189E+02  0.7816164E-02  0.1266605E+00
        -11   -1    0    0    0    0  0.00000000000E+00  0.00000000000E+00  0.45593999997E+02  0.45594000000E+02  0.51100000000E-03 0. -1.
         11   -1    0    0    0    0 -0.00000000000E+00 -0.00000000000E+00 -0.45593999997E+02  0.45594000000E+02  0.51100000000E-03 0.  1.
    9900012    2    1    2    0    0  0.12989503547E+02  0.18640520376E+02  0.22372477731E+02  0.59301890766E+02  0.49999902862E+02 0.  0.
        -12    1    1    2    0    0 -0.12989503547E+02 -0.18640520376E+02 -0.22372477731E+02  0.31886109234E+02  0.00000000000E+00 0.  1.
         11    1    3    3    0    0 -0.97510336465E+01  0.10243662128E+02  0.49444712514E+01  0.14982091549E+02  0.51100000000E-03 0. -1.
        -11    1    3    3    0    0  0.11572859096E+01  0.10045228993E+02 -0.65257312016E+01  0.12034579518E+02  0.51100000000E-03 0.  1.
         12    1    3    3    0    0  0.21583251284E+02 -0.16483707445E+01  0.23953737681E+02  0.32285219699E+02  0.00000000000E+00 0. -1.
</event>
<event>
 7    1  0.1101380E-011  0.5930194E+02  0.7816164E-02  0.1266605E+00
        -11   -1    0    0    0    0  0.00000000000E+00  0.00000000000E+00  0.45593999997E+02  0.45594000000E+02  0.51100000000E-03 0.  1.
         11   -1    0    0    0    0 -0.00000000000E+00 -0.00000000000E+00 -0.45593999997E+02  0.45594000000E+02  0.51100000000E-03 0. -1.
    9900012    2    1    2    0    0 -0.30467196747E+02  0.53371542144E+01  0.77450314137E+01  0.59301940282E+02  0.49999993169E+02 0.  0.
        -12    1    1    2    0    0  0.30467196747E+02 -0.53371542144E+01 -0.77450314137E+01  0.31886059718E+02  0.00000000000E+00 0.  1.
         11    1    3    3    0    0 -0.20983687595E+02  0.92530325581E+01 -0.52145825941E+00  0.22939173385E+02  0.51100000000E-03 0. -1.
        -11    1    3    3    0    0 -0.31312933772E+01  0.12888630724E+02  0.12144862556E+02  0.17983867407E+02  0.51100000000E-03 0.  1.
        -12    1    3    3    0    0 -0.63522157744E+01 -0.16804509068E+02 -0.38783728827E+01  0.18378899490E+02  0.00000000000E+00 0.  1.
</event>
<event>
 7    1  0.1101380E-011  0.5930195E+02  0.7816164E-02  0.1266605E+00
        -11   -1    0    0    0    0  0.00000000000E+00  0.00000000000E+00  0.45593999997E+02  0.45594000000E+02  0.51100000000E-03 0.  1.
         11   -1    0    0    0    0 -0.00000000000E+00 -0.00000000000E+00 -0.45593999997E+02  0.45594000000E+02  0.51100000000E-03 0. -1.
    9900012    2    1    2    0    0  0.26290808725E+02 -0.81914262350E+00 -0.18023382095E+02  0.59301954147E+02  0.50000018454E+02 0.  0.
        -12    1    1    2    0    0 -0.26290808725E+02  0.81914262350E+00  0.18023382095E+02  0.31886045853E+02  0.00000000000E+00 0.  1.
         11    1    3    3    0    0  0.11316543389E+02 -0.26822547220E+01 -0.26539088392E+02  0.28975538953E+02  0.51100000000E-03 0. -1.
        -11    1    3    3    0    0 -0.11274889810E+01 -0.93704851785E+01  0.34649764554E+01  0.10054018400E+02  0.51100000000E-03 0.  1.
        -12    1    3    3    0    0  0.16101754316E+02  0.11233597277E+02  0.50507298416E+01  0.20272396794E+02  0.00000000000E+00 0.  1.
</event>
<event>
 7    1  0.1101380E-011  0.5930192E+02  0.7816164E-02  0.1266605E+00
        -11   -1    0    0    0    0  0.00000000000E+00  0.00000000000E+00  0.45593999997E+02  0.45594000000E+02  0.51100000000E-03 0.  1.
         11   -1    0    0    0    0 -0.00000000000E+00 -0.00000000000E+00 -0.45593999997E+02  0.45594000000E+02  0.51100000000E-03 0. -1.
    9900012    2    1    2    0    0  0.22860133808E+02  0.22125925301E+02 -0.21400007945E+01  0.59301923234E+02  0.49999962077E+02 0.  0.
        -12    1    1    2    0    0 -0.22860133808E+02 -0.22125925301E+02  0.21400007945E+01  0.31886076766E+02  0.00000000000E+00 0.  1.
         11    1    3    3    0    0 -0.36282537262E+01 -0.81004810053E+00  0.11660803746E+02  0.12239066438E+02  0.51100000000E-03 0. -1.
        -11    1    3    3    0    0 -0.57791087623E+00 -0.56176068075E+01 -0.19243481933E+01  0.59661213074E+01  0.51100000000E-03 0.  1.
         12    1    3    3    0    0  0.27066298410E+02  0.28553580209E+02 -0.11876456347E+02  0.41096735488E+02  0.00000000000E+00 0. -1.
</event>
<event>
 7    1  0.1101380E-011  0.5930196E+02  0.7816164E-02  0.1266605E+00
        -11   -1    0    0    0    0  0.00000000000E+00  0.00000000000E+00  0.45593999997E+02  0.45594000000E+02  0.51100000000E-03 0.  1.
         11   -1    0    0    0    0 -0.00000000000E+00 -0.00000000000E+00 -0.45593999997E+02  0.45594000000E+02  0.51100000000E-03 0. -1.
    9900012    2    1    2    0    0 -0.21556000558E+02  0.13106748677E+02 -0.19500550585E+02  0.59301960828E+02  0.50000030640E+02 0.  0.
        -12    1    1    2    0    0  0.21556000558E+02 -0.13106748677E+02  0.19500550585E+02  0.31886039172E+02  0.00000000000E+00 0.  1.
         11    1    3    3    0    0 -0.66721715322E+01  0.14432647307E+02 -0.19779510177E+02  0.25378104822E+02  0.51100000000E-03 0. -1.
        -11    1    3    3    0    0 -0.20207280024E+02  0.91274243325E+01 -0.35604853593E+00  0.22175906108E+02  0.51100000000E-03 0.  1.
         12    1    3    3    0    0  0.53234509976E+01 -0.10453322963E+02  0.63500812795E+00  0.11747949898E+02  0.00000000000E+00 0. -1.
</event>
<event>
 7    1  0.1101380E-011  0.5930198E+02  0.7816164E-02  0.1266605E+00
        -11   -1    0    0    0    0  0.00000000000E+00  0.00000000000E+00  0.45593999997E+02  0.45594000000E+02  0.51100000000E-03 0.  1.
         11   -1    0    0    0    0 -0.00000000000E+00 -0.00000000000E+00 -0.45593999997E+02  0.45594000000E+02  0.51100000000E-03 0. -1.
    9900012    2    1    2    0    0  0.19227624370E+02  0.20897724271E+02 -0.14501796551E+02  0.59301976074E+02  0.50000058445E+02 0.  0.
        -12    1    1    2    0    0 -0.19227624370E+02 -0.20897724271E+02  0.14501796551E+02  0.31886023926E+02  0.00000000000E+00 0.  1.
         11    1    3    3    0    0  0.25954272587E+02  0.21879257843E+02 -0.16410977067E+02  0.37704725935E+02  0.51100000000E-03 0. -1.
        -11    1    3    3    0    0  0.18984654192E+01 -0.37871386881E+01 -0.74462434146E+01  0.85669791432E+01  0.51100000000E-03 0.  1.
        -12    1    3    3    0    0 -0.86251136358E+01  0.28056051156E+01  0.93554239310E+01  0.13030270996E+02  0.00000000000E+00 0.  1.
</event>
<event>
 7    1  0.1101380E-011  0.5930196E+02  0.7816164E-02  0.1266605E+00
        -11   -1    0    0    0    0  0.00000000000E+00  0.00000000000E+00  0.45593999997E+02  0.45594000000E+02  0.51100000000E-03 0.  1.
         11   -1    0    0    0    0 -0.00000000000E+00 -0.00000000000E+00 -0.45593999997E+02  0.45594000000E+02  0.51100000000E-03 0. -1.
    9900012    2    1    2    0    0  0.13350309636E+02 -0.15056096725E+02 -0.24734649405E+02  0.59301957644E+02  0.50000024832E+02 0.  0.
        -12    1    1    2    0    0 -0.13350309636E+02  0.15056096725E+02  0.24734649405E+02  0.31886042356E+02  0.00000000000E+00 0.  1.
         11    1    3    3    0    0  0.51585168402E+00 -0.57590266984E+01 -0.15327380537E+02  0.16381730246E+02  0.51100000000E-03 0. -1.
        -11    1    3    3    0    0 -0.63323046951E+00 -0.21512156258E+02 -0.11860754513E+02  0.24573386937E+02  0.51100000000E-03 0.  1.
         12    1    3    3    0    0  0.13467688422E+02  0.12215086231E+02  0.24534856455E+01  0.18346840460E+02  0.00000000000E+00 0. -1.
</event>
<event>
 7    1  0.1101380E-011  0.5930193E+02  0.7816164E-02  0.1266605E+00
        -11   -1    0    0    0    0  0.00000000000E+00  0.00000000000E+00  0.45593999997E+02  0.45594000000E+02  0.51100000000E-03 0.  1.
         11   -1    0    0    0    0 -0.00000000000E+00 -0.00000000000E+00 -0.45593999997E+02  0.45594000000E+02  0.51100000000E-03 0. -1.
    9900012    2    1    2    0    0  0.31136595844E+02 -0.28985018793E+01 -0.62315870949E+01  0.59301927937E+02  0.49999970654E+02 0.  0.
        -12    1    1    2    0    0 -0.31136595844E+02  0.28985018793E+01  0.62315870949E+01  0.31886072063E+02  0.00000000000E+00 0.  1.
         11    1    3    3    0    0  0.15759713315E+02  0.15002915308E+02 -0.91455071913E+01  0.23602888246E+02  0.51100000000E-03 0. -1.
        -11    1    3    3    0    0 -0.69558807511E+01 -0.15050366113E+01 -0.23562709065E+01  0.74967609720E+01  0.51100000000E-03 0.  1.
         12    1    3    3    0    0  0.22332763280E+02 -0.16396380576E+02  0.52701910029E+01  0.28202278719E+02  0.00000000000E+00 0. -1.
</event>
<event>
 7    1  0.1101380E-011  0.5930195E+02  0.7816164E-02  0.1266605E+00
        -11   -1    0    0    0    0  0.00000000000E+00  0.00000000000E+00  0.45593999997E+02  0.45594000000E+02  0.51100000000E-03 0. -1.
         11   -1    0    0    0    0 -0.00000000000E+00 -0.00000000000E+00 -0.45593999997E+02  0.45594000000E+02  0.51100000000E-03 0.  1.
    9900012    2    1    2    0    0  0.86518704951E+01 -0.24519659465E+02  0.18456752112E+02  0.59301948789E+02  0.50000008683E+02 0.  0.
        -12    1    1    2    0    0 -0.86518704951E+01  0.24519659465E+02 -0.18456752112E+02  0.31886051211E+02  0.00000000000E+00 0.  1.
         11    1    3    3    0    0  0.43077432176E+01 -0.22855764699E+02  0.16400008820E+02  0.28458793389E+02  0.51100000000E-03 0. -1.
        -11    1    3    3    0    0 -0.93567419831E+01 -0.11628975862E+01  0.10989365997E+02  0.14479886623E+02  0.51100000000E-03 0.  1.
        -12    1    3    3    0    0  0.13700869261E+02 -0.50099717974E+00 -0.89326227052E+01  0.16363268777E+02  0.00000000000E+00 0.  1.
</event>
<event>
 7    1  0.1101380E-011  0.5930194E+02  0.7816164E-02  0.1266605E+00
        -11   -1    0    0    0    0  0.00000000000E+00  0.00000000000E+00  0.45593999997E+02  0.45594000000E+02  0.51100000000E-03 0. -1.
         11   -1    0    0    0    0 -0.00000000000E+00 -0.00000000000E+00 -0.45593999997E+02  0.45594000000E+02  0.51100000000E-03 0.  1.
    9900012    2    1    2    0    0  0.23748384163E+02  0.15056328256E+02  0.15034700708E+02  0.59301937272E+02  0.49999987679E+02 0.  0.
        -12    1    1    2    0    0 -0.23748384163E+02 -0.15056328256E+02 -0.15034700708E+02  0.31886062728E+02  0.00000000000E+00 0.  1.
         11    1    3    3    0    0  0.94802860418E+01 -0.29199377406E+01  0.12680220534E+02  0.16099374301E+02  0.51100000000E-03 0. -1.
        -11    1    3    3    0    0 -0.31663275317E+01  0.11845943901E+02  0.16051687883E+02  0.20199225260E+02  0.51100000000E-03 0.  1.
         12    1    3    3    0    0  0.17434425653E+02  0.61303220957E+01 -0.13697207709E+02  0.23003337711E+02  0.00000000000E+00 0. -1.
</event>
<event>
 7    1  0.1101380E-011  0.5930209E+02  0.7816164E-02  0.1266604E+00
        -11   -1    0    0    0    0  0.00000000000E+00  0.00000000000E+00  0.45593999997E+02  0.45594000000E+02  0.51100000000E-03 0.  1.
         11   -1    0    0    0    0 -0.00000000000E+00 -0.00000000000E+00 -0.45593999997E+02  0.45594000000E+02  0.51100000000E-03 0. -1.
    9900012    2    1    2    0    0 -0.28279752237E+02 -0.14421931138E+02 -0.29958415313E+01  0.59302085385E+02  0.50000257801E+02 0.  0.
        -12    1    1    2    0    0  0.28279752237E+02  0.14421931138E+02  0.29958415313E+01  0.31885914615E+02  0.00000000000E+00 0.  1.
         11    1    3    3    0    0 -0.10239869538E+01 -0.10572045121E+02 -0.21708921319E+02  0.24168035759E+02  0.51100000000E-03 0. -1.
        -11    1    3    3    0    0  0.54911750776E+00  0.82138562581E+00  0.23164996161E+01  0.25184072578E+01  0.51100000000E-03 0.  1.
        -12    1    3    3    0    0 -0.27804882791E+02 -0.46712716430E+01  0.16396580172E+02  0.32615642369E+02  0.00000000000E+00 0.  1.
</event>
<event>
 7    1  0.1101380E-011  0.5930190E+02  0.7816164E-02  0.1266605E+00
        -11   -1    0    0    0    0  0.00000000000E+00  0.00000000000E+00  0.45593999997E+02  0.45594000000E+02  0.51100000000E-03 0.  1.
         11   -1    0    0    0    0 -0.00000000000E+00 -0.00000000000E+00 -0.45593999997E+02  0.45594000000E+02  0.51100000000E-03 0. -1.
    9900012    2    1    2    0    0 -0.18968875034E+01 -0.10707630561E+02 -0.29974518123E+02  0.59301901600E+02  0.49999922622E+02 0.  0.
        -12    1    1    2    0    0  0.18968875034E+01  0.10707630561E+02  0.29974518123E+02  0.31886098400E+02  0.00000000000E+00 0.  1.
         11    1    3    3    0    0 -0.17068879588E+02 -0.32804795295E+01 -0.21298648897E+02  0.27490737375E+02  0.51100000000E-03 0. -1.
        -11    1    3    3    0    0 -0.66765532479E+00 -0.42746943725E+01  0.76866583130E+01  0.88206287697E+01  0.51100000000E-03 0.  1.
         12    1    3    3    0    0  0.15839647409E+02 -0.31524566593E+01 -0.16362527539E+02  0.22990535455E+02  0.00000000000E+00 0. -1.
</event>
<event>
 7    1  0.1101380E-011  0.5930195E+02  0.7816164E-02  0.1266605E+00
        -11   -1    0    0    0    0  0.00000000000E+00  0.00000000000E+00  0.45593999997E+02  0.45594000000E+02  0.51100000000E-03 0. -1.
         11   -1    0    0    0    0 -0.00000000000E+00 -0.00000000000E+00 -0.45593999997E+02  0.45594000000E+02  0.51100000000E-03 0.  1.
    9900012    2    1    2    0    0 -0.82244504221E+01 -0.28650680663E+02 -0.11323297077E+02  0.59301950638E+02  0.50000012056E+02 0.  0.
        -12    1    1    2    0    0  0.82244504221E+01  0.28650680663E+02  0.11323297077E+02  0.31886049362E+02  0.00000000000E+00 0.  1.
         11    1    3    3    0    0 -0.10008755767E+02  0.81163980422E+00  0.44827940763E+00  0.10051612103E+02  0.51100000000E-03 0. -1.
        -11    1    3    3    0    0  0.51148174933E+01 -0.44452989623E+01 -0.21240063772E+02  0.22294895159E+02  0.51100000000E-03 0.  1.
         12    1    3    3    0    0 -0.33305121484E+01 -0.25017021505E+02  0.94684872872E+01  0.26955443377E+02  0.00000000000E+00 0. -1.
</event>
<event>
 7    1  0.1101380E-011  0.5930193E+02  0.7816164E-02  0.1266605E+00
        -11   -1    0    0    0    0  0.00000000000E+00  0.00000000000E+00  0.45593999997E+02  0.45594000000E+02  0.51100000000E-03 0.  1.
         11   -1    0    0    0    0 -0.00000000000E+00 -0.00000000000E+00 -0.45593999997E+02  0.45594000000E+02  0.51100000000E-03 0. -1.
    9900012    2    1    2    0    0  0.23574208409E+02 -0.88908814876E+01  0.19543038911E+02  0.59301930226E+02  0.49999974829E+02 0.  0.
        -12    1    1    2    0    0 -0.23574208409E+02  0.88908814876E+01 -0.19543038911E+02  0.31886069774E+02  0.00000000000E+00 0.  1.
         11    1    3    3    0    0  0.13885160853E+02 -0.14670223736E+02 -0.94543166708E+00  0.20221448951E+02  0.51100000000E-03 0. -1.
        -11    1    3    3    0    0  0.14971200620E+02  0.95631613933E+01  0.18837394857E+00  0.17765877092E+02  0.51100000000E-03 0.  1.
        -12    1    3    3    0    0 -0.52821530639E+01 -0.37838191447E+01  0.20300096630E+02  0.21314604183E+02  0.00000000000E+00 0.  1.
</event>
<event>
 7    1  0.1101380E-011  0.5930188E+02  0.7816164E-02  0.1266605E+00
        -11   -1    0    0    0    0  0.00000000000E+00  0.00000000000E+00  0.45593999997E+02  0.45594000000E+02  0.51100000000E-03 0.  1.
         11   -1    0    0    0    0 -0.00000000000E+00 -0.00000000000E+00 -0.45593999997E+02  0.45594000000E+02  0.51100000000E-03 0. -1.
    9900012    2    1    2    0    0  0.27388494771E+02 -0.93914250627E+01 -0.13356500799E+02  0.59301880385E+02  0.49999883931E+02 0.  0.
        -12    1    1    2    0    0 -0.27388494771E+02  0.93914250627E+01  0.13356500799E+02  0.31886119615E+02  0.00000000000E+00 0.  1.
         11    1    3    3    0    0  0.32503481008E+00  0.25644601828E+01 -0.29470741804E+01  0.39201211898E+01  0.51100000000E-03 0. -1.
        -11    1    3    3    0    0  0.11279863918E+02  0.86966258406E+01  0.13820871217E+02  0.19846488669E+02  0.51100000000E-03 0.  1.
         12    1    3    3    0    0  0.15783596043E+02 -0.20652511086E+02 -0.24230297835E+02  0.35535270526E+02  0.00000000000E+00 0. -1.
</event>
<event>
 7    1  0.1101380E-011  0.5930195E+02  0.7816164E-02  0.1266605E+00
        -11   -1    0    0    0    0  0.00000000000E+00  0.00000000000E+00  0.45593999997E+02  0.45594000000E+02  0.51100000000E-03 0.  1.
         11   -1    0    0    0    0 -0.00000000000E+00 -0.00000000000E+00 -0.45593999997E+02  0.45594000000E+02  0.51100000000E-03 0. -1.
    9900012    2    1    2    0    0  0.22536401630E+02 -0.22552204694E+02  0.47848696946E+00  0.59301948429E+02  0.50000008027E+02 0.  0.
        -12    1    1    2    0    0 -0.22536401630E+02  0.22552204694E+02 -0.47848696946E+00  0.31886051571E+02  0.00000000000E+00 0.  1.
         11    1    3    3    0    0 -0.58527048375E+01  0.23891881360E+01  0.11158032610E+01  0.64192983295E+01  0.51100000000E-03 0. -1.
        -11    1    3    3    0    0  0.26779969509E+02 -0.34209032916E+02 -0.11821817735E+01  0.43460582762E+02  0.51100000000E-03 0.  1.
         12    1    3    3    0    0  0.16091369583E+01  0.92676400866E+01  0.54486548195E+00  0.94220673379E+01  0.00000000000E+00 0. -1.
</event>
<event>
 7    1  0.1101380E-011  0.5930184E+02  0.7816164E-02  0.1266605E+00
        -11   -1    0    0    0    0  0.00000000000E+00  0.00000000000E+00  0.45593999997E+02  0.45594000000E+02  0.51100000000E-03 0.  1.
         11   -1    0    0    0    0 -0.00000000000E+00 -0.00000000000E+00 -0.45593999997E+02  0.45594000000E+02  0.51100000000E-03 0. -1.
    9900012    2    1    2    0    0 -0.13770111407E+02 -0.33076853859E+00 -0.28757643999E+02  0.59301835848E+02  0.49999802705E+02 0.  0.
        -12    1    1    2    0    0  0.13770111407E+02  0.33076853859E+00  0.28757643999E+02  0.31886164152E+02  0.00000000000E+00 0.  1.
         11    1    3    3    0    0 -0.26643975082E+01  0.15922753311E+02 -0.19646982217E+02  0.25429058134E+02  0.51100000000E-03 0. -1.
        -11    1    3    3    0    0 -0.12723538621E+02  0.29885633812E+01 -0.57230203676E+01  0.14267897831E+02  0.51100000000E-03 0.  1.
         12    1    3    3    0    0  0.16178247228E+01 -0.19242085231E+02 -0.33876414146E+01  0.19604879883E+02  0.00000000000E+00 0. -1.
</event>
<event>
 7    1  0.1101380E-011  0.5930190E+02  0.7816164E-02  0.1266605E+00
        -11   -1    0    0    0    0  0.00000000000E+00  0.00000000000E+00  0.45593999997E+02  0.45594000000E+02  0.51100000000E-03 0. -1.
         11   -1    0    0    0    0 -0.00000000000E+00 -0.00000000000E+00 -0.45593999997E+02  0.45594000000E+02  0.51100000000E-03 0.  1.
    9900012    2    1    2    0    0 -0.50026271790E+01  0.39611635313E+01  0.31241101795E+02  0.59301897438E+02  0.49999915031E+02 0.  0.
        -12    1    1    2    0    0  0.50026271790E+01 -0.39611635313E+01 -0.31241101795E+02  0.31886102562E+02  0.00000000000E+00 0.  1.
         11    1    3    3    0    0 -0.89986996558E+01 -0.16656023463E+02  0.12903127330E+02  0.22910486862E+02  0.51100000000E-03 0. -1.
        -11    1    3    3    0    0 -0.62460844752E+01  0.57281186087E+01  0.16083327233E+02  0.18179613010E+02  0.51100000000E-03 0.  1.
         12    1    3    3    0    0  0.10242156952E+02  0.14889068386E+02  0.22546472327E+01  0.18211797566E+02  0.00000000000E+00 0. -1.
</event>
<event>
 7    1  0.1101380E-011  0.5930195E+02  0.7816164E-02  0.1266605E+00
        -11   -1    0    0    0    0  0.00000000000E+00  0.00000000000E+00  0.45593999997E+02  0.45594000000E+02  0.51100000000E-03 0.  1.
         11   -1    0    0    0    0 -0.00000000000E+00 -0.00000000000E+00 -0.45593999997E+02  0.45594000000E+02  0.51100000000E-03 0. -1.
    9900012    2    1    2    0    0  0.74908951395E+00 -0.31875519579E+02  0.33232792525E+00  0.59301947793E+02  0.50000006866E+02 0.  0.
        -12    1    1    2    0    0 -0.74908951395E+00  0.31875519579E+02 -0.33232792525E+00  0.31886052207E+02  0.00000000000E+00 0.  1.
         11    1    3    3    0    0 -0.11019085492E+02 -0.12945500231E+02 -0.63562262058E+00  0.17012061535E+02  0.51100000000E-03 0. -1.
        -11    1    3    3    0    0  0.31247135203E+01 -0.22598086063E+02  0.13593182598E+02  0.26555826888E+02  0.51100000000E-03 0.  1.
         12    1    3    3    0    0  0.86434614854E+01  0.36680667153E+01 -0.12625232052E+02  0.15734059369E+02  0.00000000000E+00 0. -1.
</event>
<event>
 7    1  0.1101380E-011  0.5930197E+02  0.7816164E-02  0.1266605E+00
        -11   -1    0    0    0    0  0.00000000000E+00  0.00000000000E+00  0.45593999997E+02  0.45594000000E+02  0.51100000000E-03 0. -1.
         11   -1    0    0    0    0 -0.00000000000E+00 -0.00000000000E+00 -0.45593999997E+02  0.45594000000E+02  0.51100000000E-03 0.  1.
    9900012    2    1    2    0    0 -0.22562964125E+02 -0.20779399186E+02  0.87090972742E+01  0.59301966130E+02  0.50000040309E+02 0.  0.
        -12    1    1    2    0    0  0.22562964125E+02  0.20779399186E+02 -0.87090972742E+01  0.31886033870E+02  0.00000000000E+00 0.  1.
         11    1    3    3    0    0 -0.20952505730E+01 -0.55424645823E+01  0.51322616943E+00  0.59474692073E+01  0.51100000000E-03 0. -1.
        -11    1    3    3    0    0 -0.55571133735E+01 -0.14654214634E+02  0.25855486805E+02  0.30234644264E+02  0.51100000000E-03 0.  1.
        -12    1    3    3    0    0 -0.14910600178E+02 -0.58271996974E+00 -0.17659615701E+02  0.23119852658E+02  0.00000000000E+00 0.  1.
</event>
<event>
 7    1  0.1101380E-011  0.5930201E+02  0.7816164E-02  0.1266605E+00
        -11   -1    0    0    0    0  0.00000000000E+00  0.00000000000E+00  0.45593999997E+02  0.45594000000E+02  0.51100000000E-03 0.  1.
         11   -1    0    0    0    0 -0.00000000000E+00 -0.00000000000E+00 -0.45593999997E+02  0.45594000000E+02  0.51100000000E-03 0. -1.
    9900012    2    1    2    0    0  0.17036304083E+02 -0.24193216542E+02 -0.11881465547E+02  0.59302006099E+02  0.50000113204E+02 0.  0.
        -12    1    1    2    0    0 -0.17036304083E+02  0.24193216542E+02  0.11881465547E+02  0.31885993901E+02  0.00000000000E+00 0.  1.
         11    1    3    3    0    0  0.12377002514E+02  0.70747484852E+00 -0.31472685601E+01  0.12790465650E+02  0.51100000000E-03 0. -1.
        -11    1    3    3    0    0  0.22584350050E+01  0.45365189862E+01  0.10227192325E+02  0.11413851072E+02  0.51100000000E-03 0.  1.
         12    1    3    3    0    0  0.24008665644E+01 -0.29437210377E+02 -0.18961389312E+02  0.35097689378E+02  0.00000000000E+00 0. -1.
</event>
<event>
 7    1  0.1101380E-011  0.5930194E+02  0.7816164E-02  0.1266605E+00
        -11   -1    0    0    0    0  0.00000000000E+00  0.00000000000E+00  0.45593999997E+02  0.45594000000E+02  0.51100000000E-03 0.  1.
         11   -1    0    0    0    0 -0.00000000000E+00 -0.00000000000E+00 -0.45593999997E+02  0.45594000000E+02  0.51100000000E-03 0. -1.
    9900012    2    1    2    0    0 -0.24991114305E+02 -0.16559934262E+02  0.10859734818E+02  0.59301936315E+02  0.49999985934E+02 0.  0.
        -12    1    1    2    0    0  0.24991114305E+02  0.16559934262E+02 -0.10859734818E+02  0.31886063685E+02  0.00000000000E+00 0.  1.
         11    1    3    3    0    0 -0.51793318889E+01  0.97542843525E+01  0.73111182253E+01  0.13244772252E+02  0.51100000000E-03 0. -1.
        -11    1    3    3    0    0  0.48821819683E+01  0.24703588015E+01  0.59153323252E+01  0.80578862090E+01  0.51100000000E-03 0.  1.
         12    1    3    3    0    0 -0.24693964385E+02 -0.28784577416E+02 -0.23667157320E+01  0.37999277854E+02  0.00000000000E+00 0. -1.
</event>
<event>
 7    1  0.1101380E-011  0.5930194E+02  0.7816164E-02  0.1266605E+00
        -11   -1    0    0    0    0  0.00000000000E+00  0.00000000000E+00  0.45593999997E+02  0.45594000000E+02  0.51100000000E-03 0.  1.
         11   -1    0    0    0    0 -0.00000000000E+00 -0.00000000000E+00 -0.45593999997E+02  0.45594000000E+02  0.51100000000E-03 0. -1.
    9900012    2    1    2    0    0  0.28839220627E+02 -0.13317813069E+02  0.27669847702E+01  0.59301937276E+02  0.49999987687E+02 0.  0.
        -12    1    1    2    0    0 -0.28839220627E+02  0.13317813069E+02 -0.27669847702E+01  0.31886062724E+02  0.00000000000E+00 0.  1.
         11    1    3    3    0    0  0.20551788004E+02  0.15355038405E+01 -0.25684386404E+00  0.20610670325E+02  0.51100000000E-03 0. -1.
        -11    1    3    3    0    0 -0.56225213788E+01  0.87074346043E+01  0.44808038056E+01  0.11292022275E+02  0.51100000000E-03 0.  1.
        -12    1    3    3    0    0  0.13909954002E+02 -0.23560751513E+02 -0.14569751714E+01  0.27399244677E+02  0.00000000000E+00 0.  1.
</event>
<event>
 7    1  0.1101380E-011  0.5930195E+02  0.7816164E-02  0.1266605E+00
        -11   -1    0    0    0    0  0.00000000000E+00  0.00000000000E+00  0.45593999997E+02  0.45594000000E+02  0.51100000000E-03 0.  1.
         11   -1    0    0    0    0 -0.00000000000E+00 -0.00000000000E+00 -0.45593999997E+02  0.45594000000E+02  0.51100000000E-03 0. -1.
    9900012    2    1    2    0    0 -0.15236555012E+02 -0.15369379798E+02 -0.23416875280E+02  0.59301945181E+02  0.50000002103E+02 0.  0.
        -12    1    1    2    0    0  0.15236555012E+02  0.15369379798E+02  0.23416875280E+02  0.31886054819E+02  0.00000000000E+00 0.  1.
         11    1    3    3    0    0 -0.10083075037E+02 -0.23687585027E+02 -0.11763588039E+02  0.28304630194E+02  0.51100000000E-03 0. -1.
        -11    1    3    3    0    0 -0.12921547797E+02 -0.31636745157E+01 -0.10752503720E+02  0.17105308252E+02  0.51100000000E-03 0.  1.
        -12    1    3    3    0    0  0.77680678213E+01  0.11481879745E+02 -0.90078352196E+00  0.13892006734E+02  0.00000000000E+00 0.  1.
</event>
<event>
 7    1  0.1101380E-011  0.5930193E+02  0.7816164E-02  0.1266605E+00
        -11   -1    0    0    0    0  0.00000000000E+00  0.00000000000E+00  0.45593999997E+02  0.45594000000E+02  0.51100000000E-03 0. -1.
         11   -1    0    0    0    0 -0.00000000000E+00 -0.00000000000E+00 -0.45593999997E+02  0.45594000000E+02  0.51100000000E-03 0.  1.
    9900012    2    1    2    0    0 -0.20602598749E+02  0.50160752398E+01  0.23813723021E+02  0.59301929528E+02  0.49999973557E+02 0.  0.
        -12    1    1    2    0    0  0.20602598749E+02 -0.50160752398E+01 -0.23813723021E+02  0.31886070472E+02  0.00000000000E+00 0.  1.
         11    1    3    3    0    0 -0.29214210178E+02  0.82956068136E+01  0.73428644458E+01  0.31244276712E+02  0.51100000000E-03 0. -1.
        -11    1    3    3    0    0 -0.26579012110E+01  0.69763893542E+01  0.50054611312E+01  0.89882750662E+01  0.51100000000E-03 0.  1.
        -12    1    3    3    0    0  0.11269512640E+02 -0.10255920928E+02  0.11465397444E+02  0.19069377750E+02  0.00000000000E+00 0.  1.
</event>
<event>
 7    1  0.1101380E-011  0.5930197E+02  0.7816164E-02  0.1266605E+00
        -11   -1    0    0    0    0  0.00000000000E+00  0.00000000000E+00  0.45593999997E+02  0.45594000000E+02  0.51100000000E-03 0.  1.
         11   -1    0    0    0    0 -0.00000000000E+00 -0.00000000000E+00 -0.45593999997E+02  0.45594000000E+02  0.51100000000E-03 0. -1.
    9900012    2    1    2    0    0 -0.12465760994E+02  0.17678615105E+02 -0.23426274424E+02  0.59301969163E+02  0.50000045840E+02 0.  0.
        -12    1    1    2    0    0  0.12465760994E+02 -0.17678615105E+02  0.23426274424E+02  0.31886030837E+02  0.00000000000E+00 0.  1.
         11    1    3    3    0    0 -0.95125827370E+01  0.63247294706E+01 -0.56038881308E+01  0.12723796432E+02  0.51100000000E-03 0. -1.
        -11    1    3    3    0    0 -0.19535141855E+02 -0.45114233018E+01 -0.92479642877E+01  0.22079392003E+02  0.51100000000E-03 0.  1.
         12    1    3    3    0    0  0.16581963598E+02  0.15865308936E+02 -0.85744220050E+01  0.24498780727E+02  0.00000000000E+00 0. -1.
</event>
<event>
 7    1  0.1101380E-011  0.5930191E+02  0.7816164E-02  0.1266605E+00
        -11   -1    0    0    0    0  0.00000000000E+00  0.00000000000E+00  0.45593999997E+02  0.45594000000E+02  0.51100000000E-03 0. -1.
         11   -1    0    0    0    0 -0.00000000000E+00 -0.00000000000E+00 -0.45593999997E+02  0.45594000000E+02  0.51100000000E-03 0.  1.
    9900012    2    1    2    0    0  0.11054502123E+02  0.17749180762E+02  0.24072543825E+02  0.59301908971E+02  0.49999936065E+02 0.  0.
        -12    1    1    2    0    0 -0.11054502123E+02 -0.17749180762E+02 -0.24072543825E+02  0.31886091029E+02  0.00000000000E+00 0.  1.
         11    1    3    3    0    0  0.23034748755E+01  0.22077317229E+02  0.92371723900E+01  0.24042447599E+02  0.51100000000E-03 0. -1.
        -11    1    3    3    0    0  0.15950024111E+02  0.17214867668E+01 -0.18071313228E+01  0.16144116876E+02  0.51100000000E-03 0.  1.
         12    1    3    3    0    0 -0.71989968643E+01 -0.60496232338E+01  0.16642502758E+02  0.19115344495E+02  0.00000000000E+00 0. -1.
</event>
<event>
 7    1  0.1101380E-011  0.5930182E+02  0.7816164E-02  0.1266605E+00
        -11   -1    0    0    0    0  0.00000000000E+00  0.00000000000E+00  0.45593999997E+02  0.45594000000E+02  0.51100000000E-03 0. -1.
         11   -1    0    0    0    0 -0.00000000000E+00 -0.00000000000E+00 -0.45593999997E+02  0.45594000000E+02  0.51100000000E-03 0.  1.
    9900012    2    1    2    0    0  0.73274096625E+01 -0.61167932115E+01  0.30424043969E+02  0.59301818934E+02  0.49999771858E+02 0.  0.
        -12    1    1    2    0    0 -0.73274096625E+01  0.61167932115E+01 -0.30424043969E+02  0.31886181066E+02  0.00000000000E+00 0.  1.
         11    1    3    3    0    0 -0.23139065278E+00 -0.10240294517E+02  0.67053614231E+01  0.12242509771E+02  0.51100000000E-03 0. -1.
        -11    1    3    3    0    0  0.10322525612E+02  0.74967232458E+01 -0.79893917758E+01  0.15052766379E+02  0.51100000000E-03 0.  1.
         12    1    3    3    0    0 -0.27637252972E+01 -0.33732219406E+01  0.31708074322E+02  0.32006542784E+02  0.00000000000E+00 0. -1.
</event>
<event>
 7    1  0.1101380E-011  0.5930194E+02  0.7816164E-02  0.1266605E+00
        -11   -1    0    0    0    0  0.00000000000E+00  0.00000000000E+00  0.45593999997E+02  0.45594000000E+02  0.51100000000E-03 0. -1.
         11   -1    0    0    0    0 -0.00000000000E+00 -0.00000000000E+00 -0.45593999997E+02  0.45594000000E+02  0.51100000000E-03 0.  1.
    9900012    2    1    2    0    0 -0.31319968159E+02  0.54002712123E+00 -0.59572699968E+01  0.59301935636E+02  0.49999984696E+02 0.  0.
        -12    1    1    2    0    0  0.31319968159E+02 -0.54002712123E+00  0.59572699968E+01  0.31886064364E+02  0.00000000000E+00 0.  1.
         11    1    3    3    0    0 -0.17246938152E+02 -0.87023087812E+01  0.45404678616E+01  0.19844467804E+02  0.51100000000E-03 0. -1.
        -11    1    3    3    0    0 -0.13408887851E+02 -0.98464171296E+01  0.18118491623E+01  0.16734186605E+02  0.51100000000E-03 0.  1.
        -12    1    3    3    0    0 -0.66414215643E+00  0.19088753032E+02 -0.12309587021E+02  0.22723281227E+02  0.00000000000E+00 0.  1.
</event>
<event>
 7    1  0.1101380E-011  0.5930191E+02  0.7816164E-02  0.1266605E+00
        -11   -1    0    0    0    0  0.00000000000E+00  0.00000000000E+00  0.45593999997E+02  0.45594000000E+02  0.51100000000E-03 0.  1.
         11   -1    0    0    0    0 -0.00000000000E+00 -0.00000000000E+00 -0.45593999997E+02  0.45594000000E+02  0.51100000000E-03 0. -1.
    9900012    2    1    2    0    0  0.14090632572E+02  0.26023172676E+02 -0.11873134086E+02  0.59301909688E+02  0.49999937372E+02 0.  0.
        -12    1    1    2    0    0 -0.14090632572E+02 -0.26023172676E+02  0.11873134086E+02  0.31886090312E+02  0.00000000000E+00 0.  1.
         11    1    3    3    0    0  0.14305911990E+01 -0.10358349150E+02 -0.36724489620E+01  0.11082818681E+02  0.51100000000E-03 0.  1.
        -11    1    3    3    0    0  0.34693874919E+01  0.18258084310E+02 -0.17810121691E+02  0.25740915430E+02  0.51100000000E-03 0. -1.
        -12    1    3    3    0    0  0.91906538813E+01  0.18123437515E+02  0.96094365664E+01  0.22478175576E+02  0.00000000000E+00 0.  1.
</event>
<event>
 7    1  0.1101380E-011  0.5930195E+02  0.7816164E-02  0.1266605E+00
        -11   -1    0    0    0    0  0.00000000000E+00  0.00000000000E+00  0.45593999997E+02  0.45594000000E+02  0.51100000000E-03 0.  1.
         11   -1    0    0    0    0 -0.00000000000E+00 -0.00000000000E+00 -0.45593999997E+02  0.45594000000E+02  0.51100000000E-03 0. -1.
    9900012    2    1    2    0    0 -0.11917946803E+02  0.24427805421E+02 -0.16672288182E+02  0.59301947768E+02  0.50000006822E+02 0.  0.
        -12    1    1    2    0    0  0.11917946803E+02 -0.24427805421E+02  0.16672288182E+02  0.31886052232E+02  0.00000000000E+00 0.  1.
         11    1    3    3    0    0  0.20128043187E+01  0.22185663671E+02  0.37701183854E+01  0.22593557636E+02  0.51100000000E-03 0. -1.
        -11    1    3    3    0    0  0.32987461072E+01  0.11842132361E+00  0.49496122357E+01  0.59493202162E+01  0.51100000000E-03 0.  1.
         12    1    3    3    0    0 -0.17229497229E+02  0.21237204262E+01 -0.25392018803E+02  0.30759069916E+02  0.00000000000E+00 0. -1.
</event>
<event>
 7    1  0.1101380E-011  0.5930197E+02  0.7816164E-02  0.1266605E+00
        -11   -1    0    0    0    0  0.00000000000E+00  0.00000000000E+00  0.45593999997E+02  0.45594000000E+02  0.51100000000E-03 0. -1.
         11   -1    0    0    0    0 -0.00000000000E+00 -0.00000000000E+00 -0.45593999997E+02  0.45594000000E+02  0.51100000000E-03 0.  1.
    9900012    2    1    2    0    0 -0.27510941181E+02 -0.11297127644E+02  0.11499636674E+02  0.59301974514E+02  0.50000055600E+02 0.  0.
        -12    1    1    2    0    0  0.27510941181E+02  0.11297127644E+02 -0.11499636674E+02  0.31886025486E+02  0.00000000000E+00 0.  1.
         11    1    3    3    0    0 -0.44254145362E+01 -0.73688153666E+01  0.15305606404E+02  0.17554068514E+02  0.51100000000E-03 0. -1.
        -11    1    3    3    0    0 -0.14062712880E+02  0.14315565802E+02  0.29928990440E+01  0.20289227751E+02  0.51100000000E-03 0.  1.
        -12    1    3    3    0    0 -0.90228137643E+01 -0.18243878080E+02 -0.67988687739E+01  0.21458678249E+02  0.00000000000E+00 0.  1.
</event>
<event>
 7    1  0.1101380E-011  0.5930195E+02  0.7816164E-02  0.1266605E+00
        -11   -1    0    0    0    0  0.00000000000E+00  0.00000000000E+00  0.45593999997E+02  0.45594000000E+02  0.51100000000E-03 0. -1.
         11   -1    0    0    0    0 -0.00000000000E+00 -0.00000000000E+00 -0.45593999997E+02  0.45594000000E+02  0.51100000000E-03 0.  1.
    9900012    2    1    2    0    0 -0.67117032336E+01 -0.27962895065E+02  0.13774968541E+02  0.59301949461E+02  0.50000009909E+02 0.  0.
        -12    1    1    2    0    0  0.67117032336E+01  0.27962895065E+02 -0.13774968541E+02  0.31886050539E+02  0.00000000000E+00 0.  1.
         11    1    3    3    0    0  0.66253782213E+01 -0.78769403756E+01  0.21765219209E+02  0.24076266191E+02  0.51100000000E-03 0. -1.
        -11    1    3    3    0    0  0.51816201893E+01 -0.13788815994E+02 -0.28813493220E+01  0.15009423989E+02  0.51100000000E-03 0.  1.
         12    1    3    3    0    0 -0.18518701644E+02 -0.62971386948E+01 -0.51089013459E+01  0.20216259280E+02  0.00000000000E+00 0. -1.
</event>
<event>
 7    1  0.1101380E-011  0.5930193E+02  0.7816164E-02  0.1266605E+00
        -11   -1    0    0    0    0  0.00000000000E+00  0.00000000000E+00  0.45593999997E+02  0.45594000000E+02  0.51100000000E-03 0. -1.
         11   -1    0    0    0    0 -0.00000000000E+00 -0.00000000000E+00 -0.45593999997E+02  0.45594000000E+02  0.51100000000E-03 0.  1.
    9900012    2    1    2    0    0 -0.31408201188E+02 -0.39427328371E+01  0.38341857896E+01  0.59301933689E+02  0.49999981145E+02 0.  0.
        -12    1    1    2    0    0  0.31408201188E+02  0.39427328371E+01 -0.38341857896E+01  0.31886066311E+02  0.00000000000E+00 0.  1.
         11    1    3    3    0    0 -0.45708278720E+01 -0.16024485987E+02 -0.33414418581E+00  0.16666981465E+02  0.51100000000E-03 0.  1.
        -11    1    3    3    0    0 -0.13959935696E+02  0.78426113508E+01  0.17431120320E+02  0.23669184889E+02  0.51100000000E-03 0. -1.
         12    1    3    3    0    0 -0.12877437621E+02  0.42391417988E+01 -0.13262790345E+02  0.18965767335E+02  0.00000000000E+00 0. -1.
</event>
<event>
 7    1  0.1101380E-011  0.5930193E+02  0.7816164E-02  0.1266605E+00
        -11   -1    0    0    0    0  0.00000000000E+00  0.00000000000E+00  0.45593999997E+02  0.45594000000E+02  0.51100000000E-03 0. -1.
         11   -1    0    0    0    0 -0.00000000000E+00 -0.00000000000E+00 -0.45593999997E+02  0.45594000000E+02  0.51100000000E-03 0.  1.
    9900012    2    1    2    0    0 -0.30883546266E+02  0.76705577002E+01 -0.20224678728E+01  0.59301933111E+02  0.49999980090E+02 0.  0.
        -12    1    1    2    0    0  0.30883546266E+02 -0.76705577002E+01  0.20224678728E+01  0.31886066889E+02  0.00000000000E+00 0.  1.
         11    1    3    3    0    0 -0.85099739253E+01 -0.11410519131E+02 -0.49234583638E+01  0.15061873906E+02  0.51100000000E-03 0. -1.
        -11    1    3    3    0    0 -0.11731578736E+02 -0.42194776683E+00 -0.12544955009E+02  0.17180916041E+02  0.51100000000E-03 0.  1.
         12    1    3    3    0    0 -0.10641993605E+02  0.19503024598E+02  0.15445945500E+02  0.27059143164E+02  0.00000000000E+00 0. -1.
</event>
<event>
 7    1  0.1101380E-011  0.5930193E+02  0.7816164E-02  0.1266605E+00
        -11   -1    0    0    0    0  0.00000000000E+00  0.00000000000E+00  0.45593999997E+02  0.45594000000E+02  0.51100000000E-03 0. -1.
         11   -1    0    0    0    0 -0.00000000000E+00 -0.00000000000E+00 -0.45593999997E+02  0.45594000000E+02  0.51100000000E-03 0.  1.
    9900012    2    1    2    0    0  0.24493012723E+02 -0.20290722099E+02  0.22583751622E+01  0.59301931978E+02  0.49999978024E+02 0.  0.
        -12    1    1    2    0    0 -0.24493012723E+02  0.20290722099E+02 -0.22583751622E+01  0.31886068022E+02  0.00000000000E+00 0.  1.
         11    1    3    3    0    0  0.11911673756E+02 -0.88977215121E+01  0.19034796059E+02  0.24153278888E+02  0.51100000000E-03 0. -1.
        -11    1    3    3    0    0  0.16060795660E+02 -0.15321727410E+02 -0.57386106388E+01  0.22926755994E+02  0.51100000000E-03 0.  1.
        -12    1    3    3    0    0 -0.34794566927E+01  0.39287268237E+01 -0.11037810258E+02  0.12221897096E+02  0.00000000000E+00 0.  1.
</event>
<event>
 7    1  0.1101380E-011  0.5930194E+02  0.7816164E-02  0.1266605E+00
        -11   -1    0    0    0    0  0.00000000000E+00  0.00000000000E+00  0.45593999997E+02  0.45594000000E+02  0.51100000000E-03 0.  1.
         11   -1    0    0    0    0 -0.00000000000E+00 -0.00000000000E+00 -0.45593999997E+02  0.45594000000E+02  0.51100000000E-03 0. -1.
    9900012    2    1    2    0    0 -0.27370056377E+02  0.46389581020E+01 -0.15686963113E+02  0.59301941447E+02  0.49999995293E+02 0.  0.
        -12    1    1    2    0    0  0.27370056377E+02 -0.46389581020E+01  0.15686963113E+02  0.31886058553E+02  0.00000000000E+00 0.  1.
         11    1    3    3    0    0 -0.15454043508E+02  0.27114987008E+01 -0.25465263389E+02  0.29910856318E+02  0.51100000000E-03 0. -1.
        -11    1    3    3    0    0 -0.24296247369E+01 -0.10983467768E+02  0.14730815845E+01  0.11345025790E+02  0.51100000000E-03 0.  1.
        -12    1    3    3    0    0 -0.94863881318E+01  0.12910927169E+02  0.83052186909E+01  0.18046059338E+02  0.00000000000E+00 0.  1.
</event>
<event>
 7    1  0.1101380E-011  0.5930197E+02  0.7816164E-02  0.1266605E+00
        -11   -1    0    0    0    0  0.00000000000E+00  0.00000000000E+00  0.45593999997E+02  0.45594000000E+02  0.51100000000E-03 0.  1.
         11   -1    0    0    0    0 -0.00000000000E+00 -0.00000000000E+00 -0.45593999997E+02  0.45594000000E+02  0.51100000000E-03 0. -1.
    9900012    2    1    2    0    0 -0.20740782740E+02 -0.14556409626E+02 -0.19355879790E+02  0.59301965246E+02  0.50000038698E+02 0.  0.
        -12    1    1    2    0    0  0.20740782740E+02  0.14556409626E+02  0.19355879790E+02  0.31886034754E+02  0.00000000000E+00 0.  1.
         11    1    3    3    0    0 -0.84103786635E+01 -0.42094460310E+01  0.76284765239E+01  0.12109812529E+02  0.51100000000E-03 0. -1.
        -11    1    3    3    0    0 -0.14288019124E+02 -0.22226612144E+02 -0.20974214199E+02  0.33735551565E+02  0.51100000000E-03 0.  1.
         12    1    3    3    0    0  0.19576150472E+01  0.11879648549E+02 -0.60101421145E+01  0.13456601152E+02  0.00000000000E+00 0. -1.
</event>
<event>
 7    1  0.1101380E-011  0.5930197E+02  0.7816164E-02  0.1266605E+00
        -11   -1    0    0    0    0  0.00000000000E+00  0.00000000000E+00  0.45593999997E+02  0.45594000000E+02  0.51100000000E-03 0.  1.
         11   -1    0    0    0    0 -0.00000000000E+00 -0.00000000000E+00 -0.45593999997E+02  0.45594000000E+02  0.51100000000E-03 0. -1.
    9900012    2    1    2    0    0 -0.30158507738E+02 -0.97446934954E+00 -0.10306978664E+02  0.59301968754E+02  0.50000045094E+02 0.  0.
        -12    1    1    2    0    0  0.30158507738E+02  0.97446934954E+00  0.10306978664E+02  0.31886031246E+02  0.00000000000E+00 0.  1.
         11    1    3    3    0    0  0.10202287185E+01 -0.16345890797E+02 -0.48339932839E+01  0.17076196998E+02  0.51100000000E-03 0. -1.
        -11    1    3    3    0    0 -0.75288846124E+01  0.43120626606E+01 -0.12474687843E+02  0.15195256659E+02  0.51100000000E-03 0.  1.
        -12    1    3    3    0    0 -0.23649851844E+02  0.11059358787E+02  0.70017024632E+01  0.27030515097E+02  0.00000000000E+00 0.  1.
</event>
<event>
 7    1  0.1101380E-011  0.5930195E+02  0.7816164E-02  0.1266605E+00
        -11   -1    0    0    0    0  0.00000000000E+00  0.00000000000E+00  0.45593999997E+02  0.45594000000E+02  0.51100000000E-03 0.  1.
         11   -1    0    0    0    0 -0.00000000000E+00 -0.00000000000E+00 -0.45593999997E+02  0.45594000000E+02  0.51100000000E-03 0. -1.
    9900012    2    1    2    0    0 -0.13242050333E+02  0.27463491486E+02 -0.93340615933E+01  0.59301953405E+02  0.50000017102E+02 0.  0.
        -12    1    1    2    0    0  0.13242050333E+02 -0.27463491486E+02  0.93340615933E+01  0.31886046595E+02  0.00000000000E+00 0.  1.
         11    1    3    3    0    0 -0.49257594155E+01  0.28213145485E+02 -0.15069022765E+02  0.32362325802E+02  0.51100000000E-03 0. -1.
        -11    1    3    3    0    0  0.77857947362E+01  0.49105261666E+01  0.12270911330E+01  0.92864212600E+01  0.51100000000E-03 0.  1.
         12    1    3    3    0    0 -0.16102085654E+02 -0.56601801655E+01  0.45078700390E+01  0.17653206343E+02  0.00000000000E+00 0. -1.
</event>
<event>
 7    1  0.1101380E-011  0.5930196E+02  0.7816164E-02  0.1266605E+00
        -11   -1    0    0    0    0  0.00000000000E+00  0.00000000000E+00  0.45593999997E+02  0.45594000000E+02  0.51100000000E-03 0. -1.
         11   -1    0    0    0    0 -0.00000000000E+00 -0.00000000000E+00 -0.45593999997E+02  0.45594000000E+02  0.51100000000E-03 0.  1.
    9900012    2    1    2    0    0  0.21702544379E+02 -0.14160502776E+02  0.18579545035E+02  0.59301956578E+02  0.50000022889E+02 0.  0.
        -12    1    1    2    0    0 -0.21702544379E+02  0.14160502776E+02 -0.18579545035E+02  0.31886043422E+02  0.00000000000E+00 0.  1.
         11    1    3    3    0    0  0.17315435585E+02 -0.57544920480E+01  0.77699167786E+01  0.19832047177E+02  0.51100000000E-03 0. -1.
        -11    1    3    3    0    0  0.12291428037E+02  0.10741371450E+02  0.49929582901E+00  0.16331122447E+02  0.51100000000E-03 0.  1.
        -12    1    3    3    0    0 -0.79043192425E+01 -0.19147382178E+02  0.10310332427E+02  0.23138786954E+02  0.00000000000E+00 0.  1.
</event>
<event>
 7    1  0.1101380E-011  0.5930196E+02  0.7816164E-02  0.1266605E+00
        -11   -1    0    0    0    0  0.00000000000E+00  0.00000000000E+00  0.45593999997E+02  0.45594000000E+02  0.51100000000E-03 0.  1.
         11   -1    0    0    0    0 -0.00000000000E+00 -0.00000000000E+00 -0.45593999997E+02  0.45594000000E+02  0.51100000000E-03 0. -1.
    9900012    2    1    2    0    0 -0.28779364565E+02 -0.10308938101E+02 -0.90660755590E+01  0.59301956727E+02  0.50000023161E+02 0.  0.
        -12    1    1    2    0    0  0.28779364565E+02  0.10308938101E+02  0.90660755590E+01  0.31886043273E+02  0.00000000000E+00 0.  1.
         11    1    3    3    0    0 -0.17435123210E+01  0.45134268008E+01 -0.95604162350E+01  0.10715055555E+02  0.51100000000E-03 0. -1.
        -11    1    3    3    0    0 -0.73394571114E+01  0.92967087557E+01  0.10552100271E+02  0.15863267153E+02  0.51100000000E-03 0.  1.
         12    1    3    3    0    0 -0.19696395133E+02 -0.24119073657E+02 -0.10057759595E+02  0.32723634019E+02  0.00000000000E+00 0. -1.
</event>
<event>
 7    1  0.1101380E-011  0.5930185E+02  0.7816164E-02  0.1266605E+00
        -11   -1    0    0    0    0  0.00000000000E+00  0.00000000000E+00  0.45593999997E+02  0.45594000000E+02  0.51100000000E-03 0. -1.
         11   -1    0    0    0    0 -0.00000000000E+00 -0.00000000000E+00 -0.45593999997E+02  0.45594000000E+02  0.51100000000E-03 0.  1.
    9900012    2    1    2    0    0 -0.21280690436E+02  0.15007140579E+02  0.18402303748E+02  0.59301845685E+02  0.49999820646E+02 0.  0.
        -12    1    1    2    0    0  0.21280690436E+02 -0.15007140579E+02 -0.18402303748E+02  0.31886154315E+02  0.00000000000E+00 0.  1.
         11    1    3    3    0    0 -0.19212865441E+02  0.34552949136E+01  0.25583560417E+01  0.19688028020E+02  0.51100000000E-03 0. -1.
        -11    1    3    3    0    0  0.68069146941E+01 -0.86211534947E+01 -0.21127153090E+01  0.11185791947E+02  0.51100000000E-03 0.  1.
         12    1    3    3    0    0 -0.88747396885E+01  0.20172999160E+02  0.17956663015E+02  0.28428025719E+02  0.00000000000E+00 0. -1.
</event>
<event>
 7    1  0.1101380E-011  0.5930194E+02  0.7816164E-02  0.1266605E+00
        -11   -1    0    0    0    0  0.00000000000E+00  0.00000000000E+00  0.45593999997E+02  0.45594000000E+02  0.51100000000E-03 0.  1.
         11   -1    0    0    0    0 -0.00000000000E+00 -0.00000000000E+00 -0.45593999997E+02  0.45594000000E+02  0.51100000000E-03 0. -1.
    9900012    2    1    2    0    0 -0.30214044620E+02 -0.86808615474E+01  0.53362065184E+01  0.59301938005E+02  0.49999989017E+02 0.  0.
        -12    1    1    2    0    0  0.30214044620E+02  0.86808615474E+01 -0.53362065184E+01  0.31886061995E+02  0.00000000000E+00 0.  1.
         11    1    3    3    0    0 -0.58070580912E+01 -0.23037952914E+02  0.85769337580E+01  0.25259314937E+02  0.51100000000E-03 0. -1.
        -11    1    3    3    0    0 -0.68154603882E+01  0.12840461005E+01 -0.90182579051E+01  0.11376653752E+02  0.51100000000E-03 0.  1.
        -12    1    3    3    0    0 -0.17591526141E+02  0.13073045266E+02  0.57775306655E+01  0.22665969317E+02  0.00000000000E+00 0.  1.
</event>
<event>
 7    1  0.1101380E-011  0.5930194E+02  0.7816164E-02  0.1266605E+00
        -11   -1    0    0    0    0  0.00000000000E+00  0.00000000000E+00  0.45593999997E+02  0.45594000000E+02  0.51100000000E-03 0.  1.
         11   -1    0    0    0    0 -0.00000000000E+00 -0.00000000000E+00 -0.45593999997E+02  0.45594000000E+02  0.51100000000E-03 0. -1.
    9900012    2    1    2    0    0  0.26606043602E+02  0.72700374904E+01 -0.15999561628E+02  0.59301937629E+02  0.49999988330E+02 0.  0.
        -12    1    1    2    0    0 -0.26606043602E+02 -0.72700374904E+01  0.15999561628E+02  0.31886062371E+02  0.00000000000E+00 0.  1.
         11    1    3    3    0    0  0.33919428162E+02 -0.89948376784E+00 -0.81301010507E+01  0.34891764375E+02  0.51100000000E-03 0. -1.
        -11    1    3    3    0    0  0.51255133552E+01  0.24285924866E+01 -0.90276651066E+01  0.10661504873E+02  0.51100000000E-03 0.  1.
        -12    1    3    3    0    0 -0.12438897915E+02  0.57409287717E+01  0.11582045292E+01  0.13748668380E+02  0.00000000000E+00 0.  1.
</event>
<event>
 7    1  0.1101380E-011  0.5930196E+02  0.7816164E-02  0.1266605E+00
        -11   -1    0    0    0    0  0.00000000000E+00  0.00000000000E+00  0.45593999997E+02  0.45594000000E+02  0.51100000000E-03 0.  1.
         11   -1    0    0    0    0 -0.00000000000E+00 -0.00000000000E+00 -0.45593999997E+02  0.45594000000E+02  0.51100000000E-03 0. -1.
    9900012    2    1    2    0    0 -0.31565802939E+02  0.31811921888E+01 -0.31937190629E+01  0.59301956966E+02  0.50000023597E+02 0.  0.
        -12    1    1    2    0    0  0.31565802939E+02 -0.31811921888E+01  0.31937190629E+01  0.31886043034E+02  0.00000000000E+00 0.  1.
         11    1    3    3    0    0  0.88813797996E+01  0.51801267200E+01  0.20096586719E+01  0.10476227767E+02  0.51100000000E-03 0. -1.
        -11    1    3    3    0    0 -0.16356405661E+02 -0.60890236247E+01  0.99333020949E+01  0.20081800358E+02  0.51100000000E-03 0.  1.
        -12    1    3    3    0    0 -0.24090777077E+02  0.40900890936E+01 -0.15136679830E+02  0.28743928841E+02  0.00000000000E+00 0.  1.
</event>
<event>
 7    1  0.1101380E-011  0.5930202E+02  0.7816164E-02  0.1266605E+00
        -11   -1    0    0    0    0  0.00000000000E+00  0.00000000000E+00  0.45593999997E+02  0.45594000000E+02  0.51100000000E-03 0.  1.
         11   -1    0    0    0    0 -0.00000000000E+00 -0.00000000000E+00 -0.45593999997E+02  0.45594000000E+02  0.51100000000E-03 0. -1.
    9900012    2    1    2    0    0 -0.10528285924E-01  0.51778672178E+00 -0.31881777422E+02  0.59302016472E+02  0.50000132121E+02 0.  0.
        -12    1    1    2    0    0  0.10528285924E-01 -0.51778672178E+00  0.31881777422E+02  0.31885983528E+02  0.00000000000E+00 0.  1.
         11    1    3    3    0    0 -0.43482969107E+01  0.43210795659E+01 -0.35405542761E+02  0.35932323514E+02  0.51100000000E-03 0. -1.
        -11    1    3    3    0    0  0.66441234485E+01  0.63773732918E+01 -0.44554940041E+01  0.10230674151E+02  0.51100000000E-03 0.  1.
        -12    1    3    3    0    0 -0.23063548238E+01 -0.10180666136E+02  0.79792593434E+01  0.13139018807E+02  0.00000000000E+00 0.  1.
</event>
<event>
 7    1  0.1101380E-011  0.5930219E+02  0.7816164E-02  0.1266604E+00
        -11   -1    0    0    0    0  0.00000000000E+00  0.00000000000E+00  0.45593999997E+02  0.45594000000E+02  0.51100000000E-03 0. -1.
         11   -1    0    0    0    0 -0.00000000000E+00 -0.00000000000E+00 -0.45593999997E+02  0.45594000000E+02  0.51100000000E-03 0.  1.
    9900012    2    1    2    0    0  0.64200718183E+00  0.20385568439E+02  0.24509610539E+02  0.59302194653E+02  0.50000457079E+02 0.  0.
        -12    1    1    2    0    0 -0.64200718183E+00 -0.20385568439E+02 -0.24509610539E+02  0.31885805347E+02  0.00000000000E+00 0.  1.
         11    1    3    3    0    0 -0.17715740889E+01 -0.65030480789E+01  0.36363094369E+01  0.76583846633E+01  0.51100000000E-03 0. -1.
        -11    1    3    3    0    0  0.12832746759E+02 -0.30229394915E+01 -0.88895778757E+00  0.13213924427E+02  0.51100000000E-03 0.  1.
         12    1    3    3    0    0 -0.10419165488E+02  0.29911556010E+02  0.21762258890E+02  0.38429885563E+02  0.00000000000E+00 0. -1.
</event>
<event>
 7    1  0.1101380E-011  0.5930203E+02  0.7816164E-02  0.1266604E+00
        -11   -1    0    0    0    0  0.00000000000E+00  0.00000000000E+00  0.45593999997E+02  0.45594000000E+02  0.51100000000E-03 0.  1.
         11   -1    0    0    0    0 -0.00000000000E+00 -0.00000000000E+00 -0.45593999997E+02  0.45594000000E+02  0.51100000000E-03 0. -1.
    9900012    2    1    2    0    0  0.17236274457E+01 -0.13864537824E+02 -0.28662153355E+02  0.59302026036E+02  0.50000149564E+02 0.  0.
        -12    1    1    2    0    0 -0.17236274457E+01  0.13864537824E+02  0.28662153355E+02  0.31885973964E+02  0.00000000000E+00 0.  1.
         11    1    3    3    0    0 -0.47756406839E+01 -0.34439641957E+01 -0.11570846768E+02  0.12982762746E+02  0.51100000000E-03 0. -1.
        -11    1    3    3    0    0 -0.15197919876E+02 -0.12773326106E+02 -0.23695513620E+01  0.19993734075E+02  0.51100000000E-03 0.  1.
        -12    1    3    3    0    0  0.21697188005E+02  0.23527524769E+01 -0.14721755225E+02  0.26325529215E+02  0.00000000000E+00 0.  1.
</event>
<event>
 7    1  0.1101380E-011  0.5930197E+02  0.7816164E-02  0.1266605E+00
        -11   -1    0    0    0    0  0.00000000000E+00  0.00000000000E+00  0.45593999997E+02  0.45594000000E+02  0.51100000000E-03 0.  1.
         11   -1    0    0    0    0 -0.00000000000E+00 -0.00000000000E+00 -0.45593999997E+02  0.45594000000E+02  0.51100000000E-03 0. -1.
    9900012    2    1    2    0    0  0.23709719551E+02  0.18710975562E+02 -0.10220940648E+02  0.59301968021E+02  0.50000043757E+02 0.  0.
        -12    1    1    2    0    0 -0.23709719551E+02 -0.18710975562E+02  0.10220940648E+02  0.31886031979E+02  0.00000000000E+00 0.  1.
         11    1    3    3    0    0 -0.21064272006E+01  0.12443096988E+02 -0.17890546322E+02  0.21893819817E+02  0.51100000000E-03 0. -1.
        -11    1    3    3    0    0 -0.48064292436E+01  0.33117568473E+01  0.87931299757E+00  0.59027694431E+01  0.51100000000E-03 0.  1.
         12    1    3    3    0    0  0.30622575995E+02  0.29561217271E+01  0.67902926766E+01  0.31505378761E+02  0.00000000000E+00 0. -1.
</event>
<event>
 7    1  0.1101380E-011  0.5930210E+02  0.7816164E-02  0.1266604E+00
        -11   -1    0    0    0    0  0.00000000000E+00  0.00000000000E+00  0.45593999997E+02  0.45594000000E+02  0.51100000000E-03 0.  1.
         11   -1    0    0    0    0 -0.00000000000E+00 -0.00000000000E+00 -0.45593999997E+02  0.45594000000E+02  0.51100000000E-03 0. -1.
    9900012    2    1    2    0    0  0.30974762167E+02 -0.50056243465E+01 -0.56761073303E+01  0.59302104045E+02  0.50000291833E+02 0.  0.
        -12    1    1    2    0    0 -0.30974762167E+02  0.50056243465E+01  0.56761073303E+01  0.31885895955E+02  0.00000000000E+00 0.  1.
         11    1    3    3    0    0  0.26319866540E+02  0.34788073164E+01 -0.14462719611E+02  0.30232560821E+02  0.51100000000E-03 0. -1.
        -11    1    3    3    0    0  0.14470971505E+02 -0.99553522295E+01  0.38399279789E+01  0.17979518944E+02  0.51100000000E-03 0.  1.
         12    1    3    3    0    0 -0.98160758778E+01  0.14709205667E+01  0.49466843014E+01  0.11090024280E+02  0.00000000000E+00 0. -1.
</event>
<event>
 7    1  0.1101380E-011  0.5930197E+02  0.7816164E-02  0.1266605E+00
        -11   -1    0    0    0    0  0.00000000000E+00  0.00000000000E+00  0.45593999997E+02  0.45594000000E+02  0.51100000000E-03 0.  1.
         11   -1    0    0    0    0 -0.00000000000E+00 -0.00000000000E+00 -0.45593999997E+02  0.45594000000E+02  0.51100000000E-03 0. -1.
    9900012    2    1    2    0    0 -0.14011526844E+02  0.27798696781E+02 -0.69013620846E+01  0.59301965035E+02  0.50000038312E+02 0.  0.
        -12    1    1    2    0    0  0.14011526844E+02 -0.27798696781E+02  0.69013620846E+01  0.31886034965E+02  0.00000000000E+00 0.  1.
         11    1    3    3    0    0  0.82748864131E+01  0.98534439562E+01 -0.64946136249E+01  0.14413330959E+02  0.51100000000E-03 0.  1.
        -11    1    3    3    0    0 -0.68380963553E+01  0.10747445067E+02 -0.16905844981E+02  0.21167775793E+02  0.51100000000E-03 0. -1.
        -12    1    3    3    0    0 -0.15448316901E+02  0.71978077571E+01  0.16499096522E+02  0.23720858282E+02  0.00000000000E+00 0.  1.
</event>
<event>
 7    1  0.1101380E-011  0.5930194E+02  0.7816164E-02  0.1266605E+00
        -11   -1    0    0    0    0  0.00000000000E+00  0.00000000000E+00  0.45593999997E+02  0.45594000000E+02  0.51100000000E-03 0. -1.
         11   -1    0    0    0    0 -0.00000000000E+00 -0.00000000000E+00 -0.45593999997E+02  0.45594000000E+02  0.51100000000E-03 0.  1.
    9900012    2    1    2    0    0 -0.18495629233E+02  0.21040556035E+02  0.15229164922E+02  0.59301940927E+02  0.49999994344E+02 0.  0.
        -12    1    1    2    0    0  0.18495629233E+02 -0.21040556035E+02 -0.15229164922E+02  0.31886059073E+02  0.00000000000E+00 0.  1.
         11    1    3    3    0    0 -0.90604148316E+01  0.46019074039E+01  0.39943369164E+01  0.10918946668E+02  0.51100000000E-03 0. -1.
        -11    1    3    3    0    0  0.59789312890E+00  0.25602060736E+02 -0.61312497130E+01  0.26332778309E+02  0.51100000000E-03 0.  1.
         12    1    3    3    0    0 -0.10033107531E+02 -0.91634121049E+01  0.17366077718E+02  0.22050215950E+02  0.00000000000E+00 0. -1.
</event>
<event>
 7    1  0.1101380E-011  0.5930194E+02  0.7816164E-02  0.1266605E+00
        -11   -1    0    0    0    0  0.00000000000E+00  0.00000000000E+00  0.45593999997E+02  0.45594000000E+02  0.51100000000E-03 0. -1.
         11   -1    0    0    0    0 -0.00000000000E+00 -0.00000000000E+00 -0.45593999997E+02  0.45594000000E+02  0.51100000000E-03 0.  1.
    9900012    2    1    2    0    0  0.28128163974E+02 -0.14880767375E+02  0.20223068428E+01  0.59301943938E+02  0.49999999836E+02 0.  0.
        -12    1    1    2    0    0 -0.28128163974E+02  0.14880767375E+02 -0.20223068428E+01  0.31886056062E+02  0.00000000000E+00 0.  1.
         11    1    3    3    0    0  0.13112599974E+02  0.75822981115E+01  0.11471726876E+02  0.19000843153E+02  0.51100000000E-03 0. -1.
        -11    1    3    3    0    0  0.85455597373E+00 -0.41380691476E+01  0.94872163414E+01  0.10385622579E+02  0.51100000000E-03 0.  1.
        -12    1    3    3    0    0  0.14161008026E+02 -0.18324996339E+02 -0.18936636374E+02  0.29915478206E+02  0.00000000000E+00 0.  1.
</event>
<event>
 7    1  0.1101380E-011  0.5930191E+02  0.7816164E-02  0.1266605E+00
        -11   -1    0    0    0    0  0.00000000000E+00  0.00000000000E+00  0.45593999997E+02  0.45594000000E+02  0.51100000000E-03 0.  1.
         11   -1    0    0    0    0 -0.00000000000E+00 -0.00000000000E+00 -0.45593999997E+02  0.45594000000E+02  0.51100000000E-03 0. -1.
    9900012    2    1    2    0    0 -0.83485217995E+01  0.11346304543E+02  0.28605709414E+02  0.59301905004E+02  0.49999928830E+02 0.  0.
        -12    1    1    2    0    0  0.83485217995E+01 -0.11346304543E+02 -0.28605709414E+02  0.31886094996E+02  0.00000000000E+00 0.  1.
         11    1    3    3    0    0 -0.21485703410E+01 -0.15322100622E+02 -0.10724565550E+01  0.15509135544E+02  0.51100000000E-03 0. -1.
        -11    1    3    3    0    0 -0.31301080507E+01  0.45821109699E+01 -0.12267585782E+01  0.56831553050E+01  0.51100000000E-03 0.  1.
        -12    1    3    3    0    0 -0.30698434078E+01  0.22086294195E+02  0.30904924547E+02  0.38109614155E+02  0.00000000000E+00 0.  1.
</event>
<event>
 7    1  0.1101380E-011  0.5930194E+02  0.7816164E-02  0.1266605E+00
        -11   -1    0    0    0    0  0.00000000000E+00  0.00000000000E+00  0.45593999997E+02  0.45594000000E+02  0.51100000000E-03 0.  1.
         11   -1    0    0    0    0 -0.00000000000E+00 -0.00000000000E+00 -0.45593999997E+02  0.45594000000E+02  0.51100000000E-03 0. -1.
    9900012    2    1    2    0    0 -0.83097166010E+01  0.28831466809E+02 -0.10789636696E+02  0.59301935201E+02  0.49999983902E+02 0.  0.
        -12    1    1    2    0    0  0.83097166010E+01 -0.28831466809E+02  0.10789636696E+02  0.31886064799E+02  0.00000000000E+00 0.  1.
         11    1    3    3    0    0  0.51988659339E+01  0.15568263575E+02 -0.19987412853E+02  0.25863018203E+02  0.51100000000E-03 0. -1.
        -11    1    3    3    0    0 -0.51010899947E+01  0.20025797208E+02  0.92693337232E+01  0.22648934211E+02  0.51100000000E-03 0.  1.
        -12    1    3    3    0    0 -0.84074925402E+01 -0.67625939741E+01 -0.71557566041E-01  0.10789982788E+02  0.00000000000E+00 0.  1.
</event>
<event>
 7    1  0.1101380E-011  0.5930207E+02  0.7816164E-02  0.1266604E+00
        -11   -1    0    0    0    0  0.00000000000E+00  0.00000000000E+00  0.45593999997E+02  0.45594000000E+02  0.51100000000E-03 0. -1.
         11   -1    0    0    0    0 -0.00000000000E+00 -0.00000000000E+00 -0.45593999997E+02  0.45594000000E+02  0.51100000000E-03 0.  1.
    9900012    2    1    2    0    0 -0.13406556235E+02  0.50345440938E+01  0.28489120808E+02  0.59302072246E+02  0.50000233839E+02 0.  0.
        -12    1    1    2    0    0  0.13406556235E+02 -0.50345440938E+01 -0.28489120808E+02  0.31885927754E+02  0.00000000000E+00 0.  1.
         11    1    3    3    0    0 -0.43118235323E+01 -0.57860548530E+00 -0.53835362500E+01  0.69216377612E+01  0.51100000000E-03 0. -1.
        -11    1    3    3    0    0 -0.14289731563E+02  0.14159374372E+02  0.35198842074E+01  0.20422387124E+02  0.51100000000E-03 0.  1.
         12    1    3    3    0    0  0.51949988609E+01 -0.85462247932E+01  0.30352772851E+02  0.31958047361E+02  0.00000000000E+00 0. -1.
</event>
<event>
 7    1  0.1101380E-011  0.5930193E+02  0.7816164E-02  0.1266605E+00
        -11   -1    0    0    0    0  0.00000000000E+00  0.00000000000E+00  0.45593999997E+02  0.45594000000E+02  0.51100000000E-03 0.  1.
         11   -1    0    0    0    0 -0.00000000000E+00 -0.00000000000E+00 -0.45593999997E+02  0.45594000000E+02  0.51100000000E-03 0. -1.
    9900012    2    1    2    0    0 -0.22734869377E+02 -0.60001349844E+01  0.21537071000E+02  0.59301931997E+02  0.49999978059E+02 0.  0.
        -12    1    1    2    0    0  0.22734869377E+02  0.60001349844E+01 -0.21537071000E+02  0.31886068003E+02  0.00000000000E+00 0.  1.
         11    1    3    3    0    0 -0.83986456186E+01  0.45513261751E+00 -0.46280212785E+01  0.96001549541E+01  0.51100000000E-03 0. -1.
        -11    1    3    3    0    0 -0.99418821469E+01  0.95896663595E+01 -0.47399372097E+01  0.14603757274E+02  0.51100000000E-03 0.  1.
        -12    1    3    3    0    0 -0.43943416111E+01 -0.16044933961E+02  0.30905029488E+02  0.35098019769E+02  0.00000000000E+00 0.  1.
</event>
<event>
 7    1  0.1101380E-011  0.5930200E+02  0.7816164E-02  0.1266605E+00
        -11   -1    0    0    0    0  0.00000000000E+00  0.00000000000E+00  0.45593999997E+02  0.45594000000E+02  0.51100000000E-03 0.  1.
         11   -1    0    0    0    0 -0.00000000000E+00 -0.00000000000E+00 -0.45593999997E+02  0.45594000000E+02  0.51100000000E-03 0. -1.
    9900012    2    1    2    0    0  0.79547741459E+01  0.23550280561E+02 -0.19970556929E+02  0.59301995385E+02  0.50000093664E+02 0.  0.
        -12    1    1    2    0    0 -0.79547741459E+01 -0.23550280561E+02  0.19970556929E+02  0.31886004615E+02  0.00000000000E+00 0.  1.
         11    1    3    3    0    0  0.10094320975E+02  0.93494815920E+01 -0.18031129851E+02  0.22681044199E+02  0.51100000000E-03 0.  1.
        -11    1    3    3    0    0 -0.88559557622E+01 -0.74184881455E+01 -0.68848489776E+01  0.13448533918E+02  0.51100000000E-03 0. -1.
         12    1    3    3    0    0  0.67164089330E+01  0.21619287115E+02  0.49454219000E+01  0.23172417269E+02  0.00000000000E+00 0. -1.
</event>
<event>
 7    1  0.1101380E-011  0.5930194E+02  0.7816164E-02  0.1266605E+00
        -11   -1    0    0    0    0  0.00000000000E+00  0.00000000000E+00  0.45593999997E+02  0.45594000000E+02  0.51100000000E-03 0.  1.
         11   -1    0    0    0    0 -0.00000000000E+00 -0.00000000000E+00 -0.45593999997E+02  0.45594000000E+02  0.51100000000E-03 0. -1.
    9900012    2    1    2    0    0  0.17710341266E+02 -0.26160474613E+02 -0.43236864610E+01  0.59301939027E+02  0.49999990881E+02 0.  0.
        -12    1    1    2    0    0 -0.17710341266E+02  0.26160474613E+02  0.43236864610E+01  0.31886060973E+02  0.00000000000E+00 0.  1.
         11    1    3    3    0    0 -0.57733179391E+01 -0.45499449496E+01 -0.97009373176E+01  0.12171334527E+02  0.51100000000E-03 0. -1.
        -11    1    3    3    0    0 -0.67214783051E+01 -0.11749032296E+02  0.71477237031E+01  0.15307122032E+02  0.51100000000E-03 0.  1.
        -12    1    3    3    0    0  0.30205137510E+02 -0.98614973671E+01 -0.17704728466E+01  0.31823482468E+02  0.00000000000E+00 0.  1.
</event>
<event>
 7    1  0.1101380E-011  0.5930194E+02  0.7816164E-02  0.1266605E+00
        -11   -1    0    0    0    0  0.00000000000E+00  0.00000000000E+00  0.45593999997E+02  0.45594000000E+02  0.51100000000E-03 0.  1.
         11   -1    0    0    0    0 -0.00000000000E+00 -0.00000000000E+00 -0.45593999997E+02  0.45594000000E+02  0.51100000000E-03 0. -1.
    9900012    2    1    2    0    0  0.17800323233E+02  0.24693435581E+02 -0.94922845394E+01  0.59301941388E+02  0.49999995186E+02 0.  0.
        -12    1    1    2    0    0 -0.17800323233E+02 -0.24693435581E+02  0.94922845394E+01  0.31886058612E+02  0.00000000000E+00 0.  1.
         11    1    3    3    0    0 -0.62172799960E+01 -0.53465674389E+01 -0.55115519621E+01  0.98801598783E+01  0.51100000000E-03 0. -1.
        -11    1    3    3    0    0 -0.38867913418E+01  0.27336512332E+01  0.73646203509E+01  0.87645666849E+01  0.51100000000E-03 0.  1.
         12    1    3    3    0    0  0.27904394571E+02  0.27306351787E+02 -0.11345352928E+02  0.40657214825E+02  0.00000000000E+00 0. -1.
</event>
<event>
 7    1  0.1101380E-011  0.5930196E+02  0.7816164E-02  0.1266605E+00
        -11   -1    0    0    0    0  0.00000000000E+00  0.00000000000E+00  0.45593999997E+02  0.45594000000E+02  0.51100000000E-03 0.  1.
         11   -1    0    0    0    0 -0.00000000000E+00 -0.00000000000E+00 -0.45593999997E+02  0.45594000000E+02  0.51100000000E-03 0. -1.
    9900012    2    1    2    0    0 -0.15693268454E+02 -0.23457882578E+02 -0.14838086105E+02  0.59301957143E+02  0.50000023920E+02 0.  0.
        -12    1    1    2    0    0  0.15693268454E+02  0.23457882578E+02  0.14838086105E+02  0.31886042857E+02  0.00000000000E+00 0.  1.
         11    1    3    3    0    0 -0.10392823167E+02 -0.85776221772E+01  0.41796225946E+01  0.14108707272E+02  0.51100000000E-03 0. -1.
        -11    1    3    3    0    0  0.30782972541E+01 -0.89466838255E+00  0.10769374286E+02  0.11236359209E+02  0.51100000000E-03 0.  1.
        -12    1    3    3    0    0 -0.83787425403E+01 -0.13985592018E+02 -0.29787082985E+02  0.33956890662E+02  0.00000000000E+00 0.  1.
</event>
<event>
 7    1  0.1101380E-011  0.5930195E+02  0.7816164E-02  0.1266605E+00
        -11   -1    0    0    0    0  0.00000000000E+00  0.00000000000E+00  0.45593999997E+02  0.45594000000E+02  0.51100000000E-03 0. -1.
         11   -1    0    0    0    0 -0.00000000000E+00 -0.00000000000E+00 -0.45593999997E+02  0.45594000000E+02  0.51100000000E-03 0.  1.
    9900012    2    1    2    0    0 -0.20672581304E+02  0.21750742448E+02  0.10782834523E+02  0.59301953911E+02  0.50000018025E+02 0.  0.
        -12    1    1    2    0    0  0.20672581304E+02 -0.21750742448E+02 -0.10782834523E+02  0.31886046089E+02  0.00000000000E+00 0.  1.
         11    1    3    3    0    0  0.10255158613E+02  0.29906346879E+01  0.14068686220E+02  0.17664656980E+02  0.51100000000E-03 0. -1.
        -11    1    3    3    0    0 -0.67678229438E+01  0.15680674932E+02 -0.13856897326E+00  0.17079408519E+02  0.51100000000E-03 0.  1.
        -12    1    3    3    0    0 -0.24159916974E+02  0.30794328282E+01 -0.31472827236E+01  0.24557888412E+02  0.00000000000E+00 0.  1.
</event>
<event>
 7    1  0.1101380E-011  0.5930192E+02  0.7816164E-02  0.1266605E+00
        -11   -1    0    0    0    0  0.00000000000E+00  0.00000000000E+00  0.45593999997E+02  0.45594000000E+02  0.51100000000E-03 0.  1.
         11   -1    0    0    0    0 -0.00000000000E+00 -0.00000000000E+00 -0.45593999997E+02  0.45594000000E+02  0.51100000000E-03 0. -1.
    9900012    2    1    2    0    0  0.56372840364E+01  0.30774102151E+02  0.61560961520E+01  0.59301923817E+02  0.49999963141E+02 0.  0.
        -12    1    1    2    0    0 -0.56372840364E+01 -0.30774102151E+02 -0.61560961520E+01  0.31886076183E+02  0.00000000000E+00 0.  1.
         11    1    3    3    0    0  0.45183783942E+01 -0.54194516803E+01  0.95926887365E+00  0.71208424264E+01  0.51100000000E-03 0. -1.
        -11    1    3    3    0    0 -0.24016575121E+01  0.31345204876E+02  0.19278615138E+02  0.36877565395E+02  0.51100000000E-03 0.  1.
         12    1    3    3    0    0  0.35205631542E+01  0.48483489551E+01 -0.14081787860E+02  0.15303515996E+02  0.00000000000E+00 0. -1.
</event>
<event>
 7    1  0.1101380E-011  0.5930188E+02  0.7816164E-02  0.1266605E+00
        -11   -1    0    0    0    0  0.00000000000E+00  0.00000000000E+00  0.45593999997E+02  0.45594000000E+02  0.51100000000E-03 0. -1.
         11   -1    0    0    0    0 -0.00000000000E+00 -0.00000000000E+00 -0.45593999997E+02  0.45594000000E+02  0.51100000000E-03 0.  1.
    9900012    2    1    2    0    0  0.19774812627E+02  0.15168203360E+02 -0.19889876394E+02  0.59301877775E+02  0.49999879170E+02 0.  0.
        -12    1    1    2    0    0 -0.19774812627E+02 -0.15168203360E+02  0.19889876394E+02  0.31886122225E+02  0.00000000000E+00 0.  1.
         11    1    3    3    0    0  0.10177271228E+00  0.80760045402E+01  0.67468012953E+01  0.10523855520E+02  0.51100000000E-03 0. -1.
        -11    1    3    3    0    0  0.25295609434E+02 -0.27252675549E+01 -0.74606147736E+01  0.26513311995E+02  0.51100000000E-03 0.  1.
        -12    1    3    3    0    0 -0.56225695193E+01  0.98174663746E+01 -0.19176062915E+02  0.22264710260E+02  0.00000000000E+00 0.  1.
</event>
<event>
 7    1  0.1101380E-011  0.5930195E+02  0.7816164E-02  0.1266605E+00
        -11   -1    0    0    0    0  0.00000000000E+00  0.00000000000E+00  0.45593999997E+02  0.45594000000E+02  0.51100000000E-03 0.  1.
         11   -1    0    0    0    0 -0.00000000000E+00 -0.00000000000E+00 -0.45593999997E+02  0.45594000000E+02  0.51100000000E-03 0. -1.
    9900012    2    1    2    0    0 -0.72981542140E+01  0.16684723000E+02 -0.26173976689E+02  0.59301951449E+02  0.50000013534E+02 0.  0.
        -12    1    1    2    0    0  0.72981542140E+01 -0.16684723000E+02  0.26173976689E+02  0.31886048551E+02  0.00000000000E+00 0.  1.
         11    1    3    3    0    0  0.63981077599E+01 -0.93953141492E+01  0.18339689522E+01  0.11513954718E+02  0.51100000000E-03 0. -1.
        -11    1    3    3    0    0 -0.63758918443E+01  0.63292027259E+01  0.37043195363E+01  0.97176533918E+01  0.51100000000E-03 0.  1.
         12    1    3    3    0    0 -0.73203701297E+01  0.19750834423E+02 -0.31712265177E+02  0.38070343339E+02  0.00000000000E+00 0. -1.
</event>
<event>
 7    1  0.1101380E-011  0.5930192E+02  0.7816164E-02  0.1266605E+00
        -11   -1    0    0    0    0  0.00000000000E+00  0.00000000000E+00  0.45593999997E+02  0.45594000000E+02  0.51100000000E-03 0. -1.
         11   -1    0    0    0    0 -0.00000000000E+00 -0.00000000000E+00 -0.45593999997E+02  0.45594000000E+02  0.51100000000E-03 0.  1.
    9900012    2    1    2    0    0 -0.87016937568E+01  0.16555254840E+02  0.25824909749E+02  0.59301923092E+02  0.49999961818E+02 0.  0.
        -12    1    1    2    0    0  0.87016937568E+01 -0.16555254840E+02 -0.25824909749E+02  0.31886076908E+02  0.00000000000E+00 0.  1.
         11    1    3    3    0    0 -0.55726638009E+01  0.16400064668E+02  0.33429672838E+02  0.37650494410E+02  0.51100000000E-03 0. -1.
        -11    1    3    3    0    0 -0.10168594702E+02 -0.24785249510E+01  0.65130863776E+00  0.10486544109E+02  0.51100000000E-03 0.  1.
        -12    1    3    3    0    0  0.70395647461E+01  0.26337151235E+01 -0.82560717276E+01  0.11164884573E+02  0.00000000000E+00 0.  1.
</event>
<event>
 7    1  0.1101380E-011  0.5930193E+02  0.7816164E-02  0.1266605E+00
        -11   -1    0    0    0    0  0.00000000000E+00  0.00000000000E+00  0.45593999997E+02  0.45594000000E+02  0.51100000000E-03 0.  1.
         11   -1    0    0    0    0 -0.00000000000E+00 -0.00000000000E+00 -0.45593999997E+02  0.45594000000E+02  0.51100000000E-03 0. -1.
    9900012    2    1    2    0    0 -0.24081198816E+02 -0.20834854572E+02 -0.16510755327E+01  0.59301931696E+02  0.49999977510E+02 0.  0.
        -12    1    1    2    0    0  0.24081198816E+02  0.20834854572E+02  0.16510755327E+01  0.31886068304E+02  0.00000000000E+00 0.  1.
         11    1    3    3    0    0 -0.13855154271E+02 -0.11530096297E+01 -0.18604105325E+02  0.23225147283E+02  0.51100000000E-03 0. -1.
        -11    1    3    3    0    0 -0.47717539014E+01 -0.16876441827E+02 -0.53308121725E+00  0.17546170519E+02  0.51100000000E-03 0.  1.
        -12    1    3    3    0    0 -0.54542906436E+01 -0.28054031149E+01  0.17486111010E+02  0.18530613894E+02  0.00000000000E+00 0.  1.
</event>
<event>
 7    1  0.1101380E-011  0.5930193E+02  0.7816164E-02  0.1266605E+00
        -11   -1    0    0    0    0  0.00000000000E+00  0.00000000000E+00  0.45593999997E+02  0.45594000000E+02  0.51100000000E-03 0.  1.
         11   -1    0    0    0    0 -0.00000000000E+00 -0.00000000000E+00 -0.45593999997E+02  0.45594000000E+02  0.51100000000E-03 0. -1.
    9900012    2    1    2    0    0 -0.27701895069E+02 -0.15718600364E+02 -0.15007582044E+01  0.59301926818E+02  0.49999968613E+02 0.  0.
        -12    1    1    2    0    0  0.27701895069E+02  0.15718600364E+02  0.15007582044E+01  0.31886073182E+02  0.00000000000E+00 0.  1.
         11    1    3    3    0    0  0.27955646483E+01 -0.36925081702E+01  0.28701538061E+01  0.54486311512E+01  0.51100000000E-03 0. -1.
        -11    1    3    3    0    0 -0.13172899748E+02  0.10376858146E+02  0.12475967995E+02  0.20901058596E+02  0.51100000000E-03 0.  1.
         12    1    3    3    0    0 -0.17324559969E+02 -0.22402950340E+02 -0.16846880005E+02  0.32952237070E+02  0.00000000000E+00 0. -1.
</event>
<event>
 7    1  0.1101380E-011  0.5930197E+02  0.7816164E-02  0.1266605E+00
        -11   -1    0    0    0    0  0.00000000000E+00  0.00000000000E+00  0.45593999997E+02  0.45594000000E+02  0.51100000000E-03 0. -1.
         11   -1    0    0    0    0 -0.00000000000E+00 -0.00000000000E+00 -0.45593999997E+02  0.45594000000E+02  0.51100000000E-03 0.  1.
    9900012    2    1    2    0    0 -0.13479727616E+02 -0.17223196733E+02  0.23202964576E+02  0.59301966578E+02  0.50000041126E+02 0.  0.
        -12    1    1    2    0    0  0.13479727616E+02  0.17223196733E+02 -0.23202964576E+02  0.31886033422E+02  0.00000000000E+00 0.  1.
         11    1    3    3    0    0  0.14971154409E+02 -0.31649193339E+00  0.83381269253E+01  0.17139428006E+02  0.51100000000E-03 0. -1.
        -11    1    3    3    0    0  0.14798810149E+01 -0.66228194494E+01 -0.82942292762E+00  0.68366459563E+01  0.51100000000E-03 0.  1.
        -12    1    3    3    0    0 -0.29930763040E+02 -0.10283885350E+02  0.15694260578E+02  0.35325892616E+02  0.00000000000E+00 0.  1.
</event>
<event>
 7    1  0.1101380E-011  0.5930194E+02  0.7816164E-02  0.1266605E+00
        -11   -1    0    0    0    0  0.00000000000E+00  0.00000000000E+00  0.45593999997E+02  0.45594000000E+02  0.51100000000E-03 0.  1.
         11   -1    0    0    0    0 -0.00000000000E+00 -0.00000000000E+00 -0.45593999997E+02  0.45594000000E+02  0.51100000000E-03 0. -1.
    9900012    2    1    2    0    0  0.56141964290E+01 -0.25855639428E+02 -0.17795724366E+02  0.59301935685E+02  0.49999984786E+02 0.  0.
        -12    1    1    2    0    0 -0.56141964290E+01  0.25855639428E+02  0.17795724366E+02  0.31886064315E+02  0.00000000000E+00 0.  1.
         11    1    3    3    0    0 -0.82789558266E+01  0.33569177129E+01  0.43604724081E+00  0.89442799356E+01  0.51100000000E-03 0. -1.
        -11    1    3    3    0    0 -0.19800303489E+01 -0.18284537200E+02  0.60472072344E+01  0.19360101662E+02  0.51100000000E-03 0.  1.
        -12    1    3    3    0    0  0.15873182604E+02 -0.10928019941E+02 -0.24278978841E+02  0.30997554087E+02  0.00000000000E+00 0.  1.
</event>
<event>
 7    1  0.1101380E-011  0.5930190E+02  0.7816164E-02  0.1266605E+00
        -11   -1    0    0    0    0  0.00000000000E+00  0.00000000000E+00  0.45593999997E+02  0.45594000000E+02  0.51100000000E-03 0.  1.
         11   -1    0    0    0    0 -0.00000000000E+00 -0.00000000000E+00 -0.45593999997E+02  0.45594000000E+02  0.51100000000E-03 0. -1.
    9900012    2    1    2    0    0 -0.18149847492E+02  0.24594949099E+02  0.90771645745E+01  0.59301899550E+02  0.49999918884E+02 0.  0.
        -12    1    1    2    0    0  0.18149847492E+02 -0.24594949099E+02 -0.90771645745E+01  0.31886100450E+02  0.00000000000E+00 0.  1.
         11    1    3    3    0    0 -0.17491477723E+02  0.10903062036E+02 -0.29235142056E+01  0.20817672547E+02  0.51100000000E-03 0. -1.
        -11    1    3    3    0    0 -0.10805311007E+02 -0.64300238970E+01  0.96030840240E+01  0.15821478322E+02  0.51100000000E-03 0.  1.
         12    1    3    3    0    0  0.10146941238E+02  0.20121910960E+02  0.23975947560E+01  0.22662748681E+02  0.00000000000E+00 0. -1.
</event>
<event>
 7    1  0.1101380E-011  0.5930196E+02  0.7816164E-02  0.1266605E+00
        -11   -1    0    0    0    0  0.00000000000E+00  0.00000000000E+00  0.45593999997E+02  0.45594000000E+02  0.51100000000E-03 0. -1.
         11   -1    0    0    0    0 -0.00000000000E+00 -0.00000000000E+00 -0.45593999997E+02  0.45594000000E+02  0.51100000000E-03 0.  1.
    9900012    2    1    2    0    0  0.14432819758E+02  0.25817062302E+02 -0.11911862979E+02  0.59301961179E+02  0.50000031279E+02 0.  0.
        -12    1    1    2    0    0 -0.14432819758E+02 -0.25817062302E+02  0.11911862979E+02  0.31886038821E+02  0.00000000000E+00 0.  1.
         11    1    3    3    0    0  0.52370813165E+01  0.12242780888E+02  0.10310449555E+02  0.16840964191E+02  0.51100000000E-03 0. -1.
        -11    1    3    3    0    0  0.97739091435E+01  0.21486046391E+02 -0.59271087959E+01  0.24337421975E+02  0.51100000000E-03 0.  1.
        -12    1    3    3    0    0 -0.57817070212E+00 -0.79117649766E+01 -0.16295203737E+02  0.18123575013E+02  0.00000000000E+00 0.  1.
</event>
<event>
 7    1  0.1101380E-011  0.5930194E+02  0.7816164E-02  0.1266605E+00
        -11   -1    0    0    0    0  0.00000000000E+00  0.00000000000E+00  0.45593999997E+02  0.45594000000E+02  0.51100000000E-03 0. -1.
         11   -1    0    0    0    0 -0.00000000000E+00 -0.00000000000E+00 -0.45593999997E+02  0.45594000000E+02  0.51100000000E-03 0.  1.
    9900012    2    1    2    0    0  0.12754886608E+02 -0.84968613943E+01  0.27961354490E+02  0.59301935162E+02  0.49999983830E+02 0.  0.
        -12    1    1    2    0    0 -0.12754886608E+02  0.84968613943E+01 -0.27961354490E+02  0.31886064838E+02  0.00000000000E+00 0.  1.
         11    1    3    3    0    0  0.22284600019E+02 -0.88045442489E+01  0.18873726367E+02  0.30501490860E+02  0.51100000000E-03 0. -1.
        -11    1    3    3    0    0  0.47969460665E+01  0.13191284479E+00 -0.62053020954E+01  0.78443525494E+01  0.51100000000E-03 0.  1.
        -12    1    3    3    0    0 -0.14326659477E+02  0.17577000981E+00  0.15292930219E+02  0.20956091753E+02  0.00000000000E+00 0.  1.
</event>
<event>
 7    1  0.1101380E-011  0.5930194E+02  0.7816164E-02  0.1266605E+00
        -11   -1    0    0    0    0  0.00000000000E+00  0.00000000000E+00  0.45593999997E+02  0.45594000000E+02  0.51100000000E-03 0.  1.
         11   -1    0    0    0    0 -0.00000000000E+00 -0.00000000000E+00 -0.45593999997E+02  0.45594000000E+02  0.51100000000E-03 0. -1.
    9900012    2    1    2    0    0  0.27356779391E+02 -0.11390401033E+02 -0.11772260230E+02  0.59301941522E+02  0.49999995431E+02 0.  0.
        -12    1    1    2    0    0 -0.27356779391E+02  0.11390401033E+02  0.11772260230E+02  0.31886058478E+02  0.00000000000E+00 0.  1.
         11    1    3    3    0    0  0.15379715735E+02 -0.84101579734E+00 -0.13853866547E+01  0.15464871810E+02  0.51100000000E-03 0. -1.
        -11    1    3    3    0    0  0.62130907909E+01 -0.42251606006E+01  0.15146677164E+02  0.16907877118E+02  0.51100000000E-03 0.  1.
         12    1    3    3    0    0  0.57639728651E+01 -0.63242246353E+01 -0.25533550739E+02  0.26929192594E+02  0.00000000000E+00 0. -1.
</event>
<event>
 7    1  0.1101380E-011  0.5930193E+02  0.7816164E-02  0.1266605E+00
        -11   -1    0    0    0    0  0.00000000000E+00  0.00000000000E+00  0.45593999997E+02  0.45594000000E+02  0.51100000000E-03 0. -1.
         11   -1    0    0    0    0 -0.00000000000E+00 -0.00000000000E+00 -0.45593999997E+02  0.45594000000E+02  0.51100000000E-03 0.  1.
    9900012    2    1    2    0    0 -0.63032013910E+01  0.26930180316E+02  0.15866833054E+02  0.59301931713E+02  0.49999977541E+02 0.  0.
        -12    1    1    2    0    0  0.63032013910E+01 -0.26930180316E+02 -0.15866833054E+02  0.31886068287E+02  0.00000000000E+00 0.  1.
         11    1    3    3    0    0 -0.61785329112E+01  0.26463117052E+02  0.18531660157E+02  0.32892145894E+02  0.51100000000E-03 0. -1.
        -11    1    3    3    0    0 -0.87382314753E+01  0.80464039322E+01 -0.74028330737E+01  0.13996543978E+02  0.51100000000E-03 0.  1.
         12    1    3    3    0    0  0.86135629955E+01 -0.75793406680E+01  0.47380059699E+01  0.12413241841E+02  0.00000000000E+00 0. -1.
</event>
<event>
 7    1  0.1101380E-011  0.5930194E+02  0.7816164E-02  0.1266605E+00
        -11   -1    0    0    0    0  0.00000000000E+00  0.00000000000E+00  0.45593999997E+02  0.45594000000E+02  0.51100000000E-03 0.  1.
         11   -1    0    0    0    0 -0.00000000000E+00 -0.00000000000E+00 -0.45593999997E+02  0.45594000000E+02  0.51100000000E-03 0. -1.
    9900012    2    1    2    0    0 -0.30858143111E+02  0.58293305331E+01 -0.55239929090E+01  0.59301943668E+02  0.49999999344E+02 0.  0.
        -12    1    1    2    0    0  0.30858143111E+02 -0.58293305331E+01  0.55239929090E+01  0.31886056332E+02  0.00000000000E+00 0.  1.
         11    1    3    3    0    0 -0.55783873561E+01 -0.11289341403E+02 -0.15867177767E+02  0.20256726422E+02  0.51100000000E-03 0. -1.
        -11    1    3    3    0    0 -0.20731499038E+02  0.93565163991E+00  0.43873994898E+01  0.21211312333E+02  0.51100000000E-03 0.  1.
        -12    1    3    3    0    0 -0.45482567169E+01  0.16183020296E+02  0.59557853678E+01  0.17833904912E+02  0.00000000000E+00 0.  1.
</event>
<event>
 7    1  0.1101380E-011  0.5930195E+02  0.7816164E-02  0.1266605E+00
        -11   -1    0    0    0    0  0.00000000000E+00  0.00000000000E+00  0.45593999997E+02  0.45594000000E+02  0.51100000000E-03 0. -1.
         11   -1    0    0    0    0 -0.00000000000E+00 -0.00000000000E+00 -0.45593999997E+02  0.45594000000E+02  0.51100000000E-03 0.  1.
    9900012    2    1    2    0    0 -0.20006769203E+02 -0.73976928129E+01  0.23700703286E+02  0.59301952751E+02  0.50000015910E+02 0.  0.
        -12    1    1    2    0    0  0.20006769203E+02  0.73976928129E+01 -0.23700703286E+02  0.31886047249E+02  0.00000000000E+00 0.  1.
         11    1    3    3    0    0 -0.69618448993E+01 -0.91700225396E+01 -0.32613533306E+01  0.11966328743E+02  0.51100000000E-03 0. -1.
        -11    1    3    3    0    0 -0.11228355746E+02  0.95901005468E+01 -0.40419671357E+01  0.15309588494E+02  0.51100000000E-03 0.  1.
         12    1    3    3    0    0 -0.18165685571E+01 -0.78177708200E+01  0.31004023753E+02  0.32026035515E+02  0.00000000000E+00 0. -1.
</event>
<event>
 7    1  0.1101380E-011  0.5930174E+02  0.7816164E-02  0.1266605E+00
        -11   -1    0    0    0    0  0.00000000000E+00  0.00000000000E+00  0.45593999997E+02  0.45594000000E+02  0.51100000000E-03 0.  1.
         11   -1    0    0    0    0 -0.00000000000E+00 -0.00000000000E+00 -0.45593999997E+02  0.45594000000E+02  0.51100000000E-03 0. -1.
    9900012    2    1    2    0    0  0.91920487006E+01 -0.21619319664E+02 -0.21560257577E+02  0.59301742007E+02  0.49999631561E+02 0.  0.
        -12    1    1    2    0    0 -0.91920487006E+01  0.21619319664E+02  0.21560257577E+02  0.31886257993E+02  0.00000000000E+00 0.  1.
         11    1    3    3    0    0  0.74430285847E+01 -0.17948645622E+02 -0.90184984105E+01  0.21421621507E+02  0.51100000000E-03 0. -1.
        -11    1    3    3    0    0  0.64392784174E+01 -0.16133949292E+02  0.27664522486E+01  0.17590391826E+02  0.51100000000E-03 0.  1.
         12    1    3    3    0    0 -0.46902583015E+01  0.12463275250E+02 -0.15308211415E+02  0.20289728673E+02  0.00000000000E+00 0. -1.
</event>
<event>
 7    1  0.1101380E-011  0.5930195E+02  0.7816164E-02  0.1266605E+00
        -11   -1    0    0    0    0  0.00000000000E+00  0.00000000000E+00  0.45593999997E+02  0.45594000000E+02  0.51100000000E-03 0. -1.
         11   -1    0    0    0    0 -0.00000000000E+00 -0.00000000000E+00 -0.45593999997E+02  0.45594000000E+02  0.51100000000E-03 0.  1.
    9900012    2    1    2    0    0  0.10462288807E+02 -0.29669373957E+02 -0.51950667770E+01  0.59301953570E+02  0.50000017404E+02 0.  0.
        -12    1    1    2    0    0 -0.10462288807E+02  0.29669373957E+02  0.51950667770E+01  0.31886046430E+02  0.00000000000E+00 0.  1.
         11    1    3    3    0    0  0.14362919995E+02  0.28578652236E+01  0.24559340773E+01  0.14848989086E+02  0.51100000000E-03 0. -1.
        -11    1    3    3    0    0 -0.83551505999E+01  0.16051004606E+00 -0.78456994192E+01  0.11462517379E+02  0.51100000000E-03 0.  1.
        -12    1    3    3    0    0  0.44545194114E+01 -0.32687749227E+02  0.19469856488E+00  0.32990447106E+02  0.00000000000E+00 0.  1.
</event>
<event>
 7    1  0.1101380E-011  0.5930193E+02  0.7816164E-02  0.1266605E+00
        -11   -1    0    0    0    0  0.00000000000E+00  0.00000000000E+00  0.45593999997E+02  0.45594000000E+02  0.51100000000E-03 0.  1.
         11   -1    0    0    0    0 -0.00000000000E+00 -0.00000000000E+00 -0.45593999997E+02  0.45594000000E+02  0.51100000000E-03 0. -1.
    9900012    2    1    2    0    0 -0.18438894161E+02 -0.11408377702E+02 -0.23378991992E+02  0.59301934607E+02  0.49999982820E+02 0.  0.
        -12    1    1    2    0    0  0.18438894161E+02  0.11408377702E+02  0.23378991992E+02  0.31886065393E+02  0.00000000000E+00 0.  1.
         11    1    3    3    0    0  0.41327694814E+01  0.28874542479E+01  0.66114147907E+01  0.83143238700E+01  0.51100000000E-03 0.  1.
        -11    1    3    3    0    0 -0.99989194864E+01 -0.93043918163E+01  0.41418284463E+01  0.14272520489E+02  0.51100000000E-03 0. -1.
         12    1    3    3    0    0 -0.12572744156E+02 -0.49914401332E+01 -0.34132235229E+02  0.36715090248E+02  0.00000000000E+00 0. -1.
</event>
<event>
 7    1  0.1101380E-011  0.5930193E+02  0.7816164E-02  0.1266605E+00
        -11   -1    0    0    0    0  0.00000000000E+00  0.00000000000E+00  0.45593999997E+02  0.45594000000E+02  0.51100000000E-03 0. -1.
         11   -1    0    0    0    0 -0.00000000000E+00 -0.00000000000E+00 -0.45593999997E+02  0.45594000000E+02  0.51100000000E-03 0.  1.
    9900012    2    1    2    0    0  0.39318823750E+01 -0.28732675134E+02 -0.13255010261E+02  0.59301927549E+02  0.49999969946E+02 0.  0.
        -12    1    1    2    0    0 -0.39318823750E+01  0.28732675134E+02  0.13255010261E+02  0.31886072451E+02  0.00000000000E+00 0.  1.
         11    1    3    3    0    0  0.26678060717E+01 -0.20418879683E+02  0.13126040707E+02  0.24420089715E+02  0.51100000000E-03 0. -1.
        -11    1    3    3    0    0 -0.33510818959E+01 -0.10043474629E+02 -0.30250173880E+01  0.11011442365E+02  0.51100000000E-03 0.  1.
        -12    1    3    3    0    0  0.46151581992E+01  0.17296791787E+01 -0.23356033580E+02  0.23870395469E+02  0.00000000000E+00 0.  1.
</event>
<event>
 7    1  0.1101380E-011  0.5930195E+02  0.7816164E-02  0.1266605E+00
        -11   -1    0    0    0    0  0.00000000000E+00  0.00000000000E+00  0.45593999997E+02  0.45594000000E+02  0.51100000000E-03 0.  1.
         11   -1    0    0    0    0 -0.00000000000E+00 -0.00000000000E+00 -0.45593999997E+02  0.45594000000E+02  0.51100000000E-03 0. -1.
    9900012    2    1    2    0    0 -0.31072541990E+02 -0.68865259255E+01  0.19475512855E+01  0.59301951937E+02  0.50000014425E+02 0.  0.
        -12    1    1    2    0    0  0.31072541990E+02  0.68865259255E+01 -0.19475512855E+01  0.31886048063E+02  0.00000000000E+00 0.  1.
         11    1    3    3    0    0 -0.10698267492E+02 -0.12100930704E+02  0.13228125329E+02  0.20877469943E+02  0.51100000000E-03 0. -1.
        -11    1    3    3    0    0  0.67046715133E+01 -0.29729597836E+01 -0.63648747491E+01  0.97109598294E+01  0.51100000000E-03 0.  1.
         12    1    3    3    0    0 -0.27078946012E+02  0.81873645617E+01 -0.49156992942E+01  0.28713522165E+02  0.00000000000E+00 0. -1.
</event>
<event>
 7    1  0.1101380E-011  0.5930198E+02  0.7816164E-02  0.1266605E+00
        -11   -1    0    0    0    0  0.00000000000E+00  0.00000000000E+00  0.45593999997E+02  0.45594000000E+02  0.51100000000E-03 0. -1.
         11   -1    0    0    0    0 -0.00000000000E+00 -0.00000000000E+00 -0.45593999997E+02  0.45594000000E+02  0.51100000000E-03 0.  1.
    9900012    2    1    2    0    0  0.19866012022E+02 -0.59689858286E+01  0.24216336017E+02  0.59301981817E+02  0.50000068918E+02 0.  0.
        -12    1    1    2    0    0 -0.19866012022E+02  0.59689858286E+01 -0.24216336017E+02  0.31886018183E+02  0.00000000000E+00 0.  1.
         11    1    3    3    0    0  0.22423571859E+02 -0.18359879402E+01  0.15396442525E+02  0.27262389281E+02  0.51100000000E-03 0. -1.
        -11    1    3    3    0    0  0.10334961184E+02  0.67025291220E+01  0.89022437088E+01  0.15198199321E+02  0.51100000000E-03 0.  1.
        -12    1    3    3    0    0 -0.12892521020E+02 -0.10835527010E+02 -0.82350217255E-01  0.16841393215E+02  0.00000000000E+00 0.  1.
</event>
<event>
 7    1  0.1101380E-011  0.5930195E+02  0.7816164E-02  0.1266605E+00
        -11   -1    0    0    0    0  0.00000000000E+00  0.00000000000E+00  0.45593999997E+02  0.45594000000E+02  0.51100000000E-03 0. -1.
         11   -1    0    0    0    0 -0.00000000000E+00 -0.00000000000E+00 -0.45593999997E+02  0.45594000000E+02  0.51100000000E-03 0.  1.
    9900012    2    1    2    0    0  0.12336448566E+02 -0.23142184701E+02  0.18137576116E+02  0.59301947511E+02  0.50000006353E+02 0.  0.
        -12    1    1    2    0    0 -0.12336448566E+02  0.23142184701E+02 -0.18137576116E+02  0.31886052489E+02  0.00000000000E+00 0.  1.
         11    1    3    3    0    0  0.11662679239E+02 -0.26698576569E+01  0.19190434062E+02  0.22614574652E+02  0.51100000000E-03 0. -1.
        -11    1    3    3    0    0  0.14056022946E+02 -0.54398468793E+01  0.46428325239E+01  0.15770846814E+02  0.51100000000E-03 0.  1.
        -12    1    3    3    0    0 -0.13382253619E+02 -0.15032480165E+02 -0.56956904699E+01  0.20916526045E+02  0.00000000000E+00 0.  1.
</event>
<event>
 7    1  0.1101380E-011  0.5930195E+02  0.7816164E-02  0.1266605E+00
        -11   -1    0    0    0    0  0.00000000000E+00  0.00000000000E+00  0.45593999997E+02  0.45594000000E+02  0.51100000000E-03 0. -1.
         11   -1    0    0    0    0 -0.00000000000E+00 -0.00000000000E+00 -0.45593999997E+02  0.45594000000E+02  0.51100000000E-03 0.  1.
    9900012    2    1    2    0    0 -0.10778439071E+02 -0.50798893908E+01  0.29576002588E+02  0.59301953614E+02  0.50000017484E+02 0.  0.
        -12    1    1    2    0    0  0.10778439071E+02  0.50798893908E+01 -0.29576002588E+02  0.31886046386E+02  0.00000000000E+00 0.  1.
         11    1    3    3    0    0  0.75478307792E+01 -0.94184534507E+01 -0.13693867817E+01  0.12147108104E+02  0.51100000000E-03 0.  1.
        -11    1    3    3    0    0 -0.12930663781E+02  0.20420846527E+01  0.36684167200E+02  0.38949971745E+02  0.51100000000E-03 0. -1.
         12    1    3    3    0    0 -0.53956060684E+01  0.22964794072E+01 -0.57387778303E+01  0.82048737649E+01  0.00000000000E+00 0. -1.
</event>
<event>
 7    1  0.1101380E-011  0.5930190E+02  0.7816164E-02  0.1266605E+00
        -11   -1    0    0    0    0  0.00000000000E+00  0.00000000000E+00  0.45593999997E+02  0.45594000000E+02  0.51100000000E-03 0. -1.
         11   -1    0    0    0    0 -0.00000000000E+00 -0.00000000000E+00 -0.45593999997E+02  0.45594000000E+02  0.51100000000E-03 0.  1.
    9900012    2    1    2    0    0  0.19511642243E+02  0.20216979218E+02  0.15076228279E+02  0.59301904428E+02  0.49999927779E+02 0.  0.
        -12    1    1    2    0    0 -0.19511642243E+02 -0.20216979218E+02 -0.15076228279E+02  0.31886095572E+02  0.00000000000E+00 0.  1.
         11    1    3    3    0    0  0.41105884092E+01  0.89719009069E+01  0.14276654912E+02  0.17355541440E+02  0.51100000000E-03 0. -1.
        -11    1    3    3    0    0 -0.25825880810E+00  0.20482736846E+02 -0.76908897269E+01  0.21880561953E+02  0.51100000000E-03 0.  1.
         12    1    3    3    0    0  0.15659312642E+02 -0.92376585349E+01  0.84904630945E+01  0.20065801035E+02  0.00000000000E+00 0. -1.
</event>
<event>
 7    1  0.1101380E-011  0.5930201E+02  0.7816164E-02  0.1266605E+00
        -11   -1    0    0    0    0  0.00000000000E+00  0.00000000000E+00  0.45593999997E+02  0.45594000000E+02  0.51100000000E-03 0.  1.
         11   -1    0    0    0    0 -0.00000000000E+00 -0.00000000000E+00 -0.45593999997E+02  0.45594000000E+02  0.51100000000E-03 0. -1.
    9900012    2    1    2    0    0 -0.25198140385E+02  0.13815854718E+02 -0.13816369045E+02  0.59302012889E+02  0.50000125586E+02 0.  0.
        -12    1    1    2    0    0  0.25198140385E+02 -0.13815854718E+02  0.13816369045E+02  0.31885987111E+02  0.00000000000E+00 0.  1.
         11    1    3    3    0    0 -0.12048529401E+02  0.26755205475E+01 -0.11830370532E+02  0.17096290186E+02  0.51100000000E-03 0. -1.
        -11    1    3    3    0    0 -0.12829723621E+02 -0.12710513872E+02 -0.31126157947E+01  0.18326138394E+02  0.51100000000E-03 0.  1.
         12    1    3    3    0    0 -0.31988736265E+00  0.23850848042E+02  0.11266172809E+01  0.23879584309E+02  0.00000000000E+00 0. -1.
</event>
<event>
 7    1  0.1101380E-011  0.5930192E+02  0.7816164E-02  0.1266605E+00
        -11   -1    0    0    0    0  0.00000000000E+00  0.00000000000E+00  0.45593999997E+02  0.45594000000E+02  0.51100000000E-03 0.  1.
         11   -1    0    0    0    0 -0.00000000000E+00 -0.00000000000E+00 -0.45593999997E+02  0.45594000000E+02  0.51100000000E-03 0. -1.
    9900012    2    1    2    0    0 -0.11850548736E+02  0.20103940090E+02 -0.21728276177E+02  0.59301923131E+02  0.49999961889E+02 0.  0.
        -12    1    1    2    0    0  0.11850548736E+02 -0.20103940090E+02  0.21728276177E+02  0.31886076869E+02  0.00000000000E+00 0.  1.
         11    1    3    3    0    0  0.20424575438E+01 -0.43298737723E+01 -0.38066275544E+01  0.61163594810E+01  0.51100000000E-03 0.  1.
        -11    1    3    3    0    0 -0.22126062218E+02  0.30714863494E+02 -0.19707482625E+02  0.42677281314E+02  0.51100000000E-03 0. -1.
         12    1    3    3    0    0  0.82330559381E+01 -0.62810496316E+01  0.17858340024E+01  0.10508282335E+02  0.00000000000E+00 0. -1.
</event>
<event>
 7    1  0.1101380E-011  0.5930195E+02  0.7816164E-02  0.1266605E+00
        -11   -1    0    0    0    0  0.00000000000E+00  0.00000000000E+00  0.45593999997E+02  0.45594000000E+02  0.51100000000E-03 0.  1.
         11   -1    0    0    0    0 -0.00000000000E+00 -0.00000000000E+00 -0.45593999997E+02  0.45594000000E+02  0.51100000000E-03 0. -1.
    9900012    2    1    2    0    0  0.12200122554E+02  0.17252136319E+02 -0.23879718833E+02  0.59301950237E+02  0.50000011325E+02 0.  0.
        -12    1    1    2    0    0 -0.12200122554E+02 -0.17252136319E+02  0.23879718833E+02  0.31886049763E+02  0.00000000000E+00 0.  1.
         11    1    3    3    0    0  0.16207417096E+02  0.17116847535E+02 -0.20536631682E+02  0.31263718262E+02  0.51100000000E-03 0. -1.
        -11    1    3    3    0    0 -0.10093871178E+01  0.80772997839E+01  0.95831617500E+01  0.12573727512E+02  0.51100000000E-03 0.  1.
         12    1    3    3    0    0 -0.29979074239E+01 -0.79420110000E+01 -0.12926248901E+02  0.15464504464E+02  0.00000000000E+00 0. -1.
</event>
<event>
 7    1  0.1101380E-011  0.5930195E+02  0.7816164E-02  0.1266605E+00
        -11   -1    0    0    0    0  0.00000000000E+00  0.00000000000E+00  0.45593999997E+02  0.45594000000E+02  0.51100000000E-03 0. -1.
         11   -1    0    0    0    0 -0.00000000000E+00 -0.00000000000E+00 -0.45593999997E+02  0.45594000000E+02  0.51100000000E-03 0.  1.
    9900012    2    1    2    0    0  0.86409041586E+01  0.13963180385E+02  0.27332848485E+02  0.59301949171E+02  0.50000009380E+02 0.  0.
        -12    1    1    2    0    0 -0.86409041586E+01 -0.13963180385E+02 -0.27332848485E+02  0.31886050829E+02  0.00000000000E+00 0.  1.
         11    1    3    3    0    0  0.13425444319E+02 -0.45102428788E+01 -0.12244061749E+00  0.14163327221E+02  0.51100000000E-03 0. -1.
        -11    1    3    3    0    0 -0.36675380628E+01 -0.33771416208E+01 -0.42945891311E+01  0.65802292540E+01  0.51100000000E-03 0.  1.
        -12    1    3    3    0    0 -0.11170020980E+01  0.21850564884E+02  0.31749878234E+02  0.38558392696E+02  0.00000000000E+00 0.  1.
</event>
<event>
 7    1  0.1101380E-011  0.5930195E+02  0.7816164E-02  0.1266605E+00
        -11   -1    0    0    0    0  0.00000000000E+00  0.00000000000E+00  0.45593999997E+02  0.45594000000E+02  0.51100000000E-03 0.  1.
         11   -1    0    0    0    0 -0.00000000000E+00 -0.00000000000E+00 -0.45593999997E+02  0.45594000000E+02  0.51100000000E-03 0. -1.
    9900012    2    1    2    0    0 -0.27521476785E+02  0.14283233626E+02  0.74349039334E+01  0.59301949072E+02  0.50000009200E+02 0.  0.
        -12    1    1    2    0    0  0.27521476785E+02 -0.14283233626E+02 -0.74349039334E+01  0.31886050928E+02  0.00000000000E+00 0.  1.
         11    1    3    3    0    0 -0.46168108354E+01 -0.20646048833E+01 -0.17355163147E+02  0.18077035812E+02  0.51100000000E-03 0. -1.
        -11    1    3    3    0    0 -0.12680790854E+01  0.12643761405E+01 -0.26280377864E+01  0.31801343461E+01  0.51100000000E-03 0.  1.
        -12    1    3    3    0    0 -0.21636586865E+02  0.15083462369E+02  0.27418104867E+02  0.38044778915E+02  0.00000000000E+00 0.  1.
</event>
<event>
 7    1  0.1101380E-011  0.5930195E+02  0.7816164E-02  0.1266605E+00
        -11   -1    0    0    0    0  0.00000000000E+00  0.00000000000E+00  0.45593999997E+02  0.45594000000E+02  0.51100000000E-03 0.  1.
         11   -1    0    0    0    0 -0.00000000000E+00 -0.00000000000E+00 -0.45593999997E+02  0.45594000000E+02  0.51100000000E-03 0. -1.
    9900012    2    1    2    0    0 -0.23589301595E+02  0.11756856865E+02 -0.17945505802E+02  0.59301952713E+02  0.50000015840E+02 0.  0.
        -12    1    1    2    0    0  0.23589301595E+02 -0.11756856865E+02  0.17945505802E+02  0.31886047287E+02  0.00000000000E+00 0.  1.
         11    1    3    3    0    0 -0.19848945880E+02  0.88867712044E+01 -0.20225317310E+02  0.29698801585E+02  0.51100000000E-03 0. -1.
        -11    1    3    3    0    0  0.11762996123E+02  0.65508812682E+01 -0.26611888935E+00  0.13466734671E+02  0.51100000000E-03 0.  1.
         12    1    3    3    0    0 -0.15503351838E+02 -0.36807956073E+01  0.25459303976E+01  0.16136416458E+02  0.00000000000E+00 0. -1.
</event>
<event>
 7    1  0.1101380E-011  0.5930196E+02  0.7816164E-02  0.1266605E+00
        -11   -1    0    0    0    0  0.00000000000E+00  0.00000000000E+00  0.45593999997E+02  0.45594000000E+02  0.51100000000E-03 0. -1.
         11   -1    0    0    0    0 -0.00000000000E+00 -0.00000000000E+00 -0.45593999997E+02  0.45594000000E+02  0.51100000000E-03 0.  1.
    9900012    2    1    2    0    0 -0.17947673154E+02 -0.54916852049E+01  0.25776771252E+02  0.59301960512E+02  0.50000030064E+02 0.  0.
        -12    1    1    2    0    0  0.17947673154E+02  0.54916852049E+01 -0.25776771252E+02  0.31886039488E+02  0.00000000000E+00 0.  1.
         11    1    3    3    0    0 -0.98032099769E+00  0.48128822834E+01  0.76584291550E+01  0.90981537971E+01  0.51100000000E-03 0. -1.
        -11    1    3    3    0    0 -0.65102665943E+01  0.14185789321E+02  0.17661970878E+02  0.23570434984E+02  0.51100000000E-03 0.  1.
        -12    1    3    3    0    0 -0.10457085562E+02 -0.24490356809E+02  0.45637121863E+00  0.26633371731E+02  0.00000000000E+00 0.  1.
</event>
<event>
 7    1  0.1101380E-011  0.5930187E+02  0.7816164E-02  0.1266605E+00
        -11   -1    0    0    0    0  0.00000000000E+00  0.00000000000E+00  0.45593999997E+02  0.45594000000E+02  0.51100000000E-03 0.  1.
         11   -1    0    0    0    0 -0.00000000000E+00 -0.00000000000E+00 -0.45593999997E+02  0.45594000000E+02  0.51100000000E-03 0. -1.
    9900012    2    1    2    0    0 -0.21947046627E+02  0.14659557953E+02 -0.17892733358E+02  0.59301868186E+02  0.49999861683E+02 0.  0.
        -12    1    1    2    0    0  0.21947046627E+02 -0.14659557953E+02  0.17892733358E+02  0.31886131814E+02  0.00000000000E+00 0.  1.
         11    1    3    3    0    0 -0.58259765246E+01  0.10319269714E+02 -0.55932099686E+01  0.13103943220E+02  0.51100000000E-03 0. -1.
        -11    1    3    3    0    0  0.89248179793E+01 -0.16920565346E+01 -0.17682644608E+02  0.19879420311E+02  0.51100000000E-03 0.  1.
        -12    1    3    3    0    0 -0.25045888081E+02  0.60323447731E+01  0.53831212189E+01  0.26318504656E+02  0.00000000000E+00 0.  1.
</event>
<event>
 7    1  0.1101380E-011  0.5930190E+02  0.7816164E-02  0.1266605E+00
        -11   -1    0    0    0    0  0.00000000000E+00  0.00000000000E+00  0.45593999997E+02  0.45594000000E+02  0.51100000000E-03 0.  1.
         11   -1    0    0    0    0 -0.00000000000E+00 -0.00000000000E+00 -0.45593999997E+02  0.45594000000E+02  0.51100000000E-03 0. -1.
    9900012    2    1    2    0    0  0.19938500645E+02 -0.12130157771E+02 -0.21726460931E+02  0.59301895814E+02  0.49999912070E+02 0.  0.
        -12    1    1    2    0    0 -0.19938500645E+02  0.12130157771E+02  0.21726460931E+02  0.31886104186E+02  0.00000000000E+00 0.  1.
         11    1    3    3    0    0  0.98781513560E+01 -0.11274607571E+02  0.45127637058E+01  0.15654382345E+02  0.51100000000E-03 0.  1.
        -11    1    3    3    0    0  0.20699544366E+02 -0.72971055299E+01 -0.20169420578E+02  0.29808126623E+02  0.51100000000E-03 0. -1.
        -12    1    3    3    0    0 -0.10639195077E+02  0.64415553294E+01 -0.60698040595E+01  0.13839386846E+02  0.00000000000E+00 0.  1.
</event>
<event>
 7    1  0.1101380E-011  0.5930197E+02  0.7816164E-02  0.1266605E+00
        -11   -1    0    0    0    0  0.00000000000E+00  0.00000000000E+00  0.45593999997E+02  0.45594000000E+02  0.51100000000E-03 0. -1.
         11   -1    0    0    0    0 -0.00000000000E+00 -0.00000000000E+00 -0.45593999997E+02  0.45594000000E+02  0.51100000000E-03 0.  1.
    9900012    2    1    2    0    0  0.13170917116E+02 -0.10655709844E+02  0.27012991538E+02  0.59301969802E+02  0.50000047007E+02 0.  0.
        -12    1    1    2    0    0 -0.13170917116E+02  0.10655709844E+02 -0.27012991538E+02  0.31886030198E+02  0.00000000000E+00 0.  1.
         11    1    3    3    0    0  0.18189806986E+01 -0.16560706488E+02  0.10416373775E+02  0.19648575853E+02  0.51100000000E-03 0.  1.
        -11    1    3    3    0    0 -0.56827052963E+01 -0.90219976823E+00 -0.74469619346E+01  0.94108632028E+01  0.51100000000E-03 0. -1.
         12    1    3    3    0    0  0.17034641714E+02  0.68071964121E+01  0.24043579697E+02  0.30242530747E+02  0.00000000000E+00 0. -1.
</event>
<event>
 7    1  0.1101380E-011  0.5930193E+02  0.7816164E-02  0.1266605E+00
        -11   -1    0    0    0    0  0.00000000000E+00  0.00000000000E+00  0.45593999997E+02  0.45594000000E+02  0.51100000000E-03 0. -1.
         11   -1    0    0    0    0 -0.00000000000E+00 -0.00000000000E+00 -0.45593999997E+02  0.45594000000E+02  0.51100000000E-03 0.  1.
    9900012    2    1    2    0    0 -0.16478558112E+02 -0.15793487711E+02  0.22265311794E+02  0.59301933438E+02  0.49999980686E+02 0.  0.
        -12    1    1    2    0    0  0.16478558112E+02  0.15793487711E+02 -0.22265311794E+02  0.31886066562E+02  0.00000000000E+00 0.  1.
         11    1    3    3    0    0  0.10484069264E+02 -0.63838707992E+01  0.30204900216E+01  0.12640920653E+02  0.51100000000E-03 0. -1.
        -11    1    3    3    0    0  0.14061279078E+01 -0.88160727403E+01 -0.41880499145E+01  0.98610393267E+01  0.51100000000E-03 0.  1.
        -12    1    3    3    0    0 -0.28368755284E+02 -0.59354417151E+00  0.23432871687E+02  0.36799973458E+02  0.00000000000E+00 0.  1.
</event>
<event>
 7    1  0.1101380E-011  0.5930197E+02  0.7816164E-02  0.1266605E+00
        -11   -1    0    0    0    0  0.00000000000E+00  0.00000000000E+00  0.45593999997E+02  0.45594000000E+02  0.51100000000E-03 0. -1.
         11   -1    0    0    0    0 -0.00000000000E+00 -0.00000000000E+00 -0.45593999997E+02  0.45594000000E+02  0.51100000000E-03 0.  1.
    9900012    2    1    2    0    0  0.10392908298E+02  0.15295100054E+02  0.25976263680E+02  0.59301970091E+02  0.50000047533E+02 0.  0.
        -12    1    1    2    0    0 -0.10392908298E+02 -0.15295100054E+02 -0.25976263680E+02  0.31886029909E+02  0.00000000000E+00 0.  1.
         11    1    3    3    0    0  0.26623972631E+01  0.18261768903E+02  0.66822124247E+01  0.19627341282E+02  0.51100000000E-03 0. -1.
        -11    1    3    3    0    0  0.45852065919E+01  0.42380144405E+01 -0.86374741639E+01  0.10657900641E+02  0.51100000000E-03 0.  1.
         12    1    3    3    0    0  0.31453044425E+01 -0.72046832887E+01  0.27931525420E+02  0.29016728168E+02  0.00000000000E+00 0. -1.
</event>
<event>
 7    1  0.1101380E-011  0.5930203E+02  0.7816164E-02  0.1266604E+00
        -11   -1    0    0    0    0  0.00000000000E+00  0.00000000000E+00  0.45593999997E+02  0.45594000000E+02  0.51100000000E-03 0. -1.
         11   -1    0    0    0    0 -0.00000000000E+00 -0.00000000000E+00 -0.45593999997E+02  0.45594000000E+02  0.51100000000E-03 0.  1.
    9900012    2    1    2    0    0 -0.22809063571E+01  0.12461241969E+02  0.29261408318E+02  0.59302029700E+02  0.50000156245E+02 0.  0.
        -12    1    1    2    0    0  0.22809063571E+01 -0.12461241969E+02 -0.29261408318E+02  0.31885970300E+02  0.00000000000E+00 0.  1.
         11    1    3    3    0    0 -0.72193797017E+01  0.66545202803E+01  0.26310619097E+02  0.28082926503E+02  0.51100000000E-03 0. -1.
        -11    1    3    3    0    0  0.44425692127E+01 -0.10203275390E+02 -0.62332775898E+01  0.12755273406E+02  0.51100000000E-03 0.  1.
         12    1    3    3    0    0  0.49590413192E+00  0.16009997078E+02  0.91840668114E+01  0.18463829791E+02  0.00000000000E+00 0. -1.
</event>
<event>
 7    1  0.1101380E-011  0.5930195E+02  0.7816164E-02  0.1266605E+00
        -11   -1    0    0    0    0  0.00000000000E+00  0.00000000000E+00  0.45593999997E+02  0.45594000000E+02  0.51100000000E-03 0.  1.
         11   -1    0    0    0    0 -0.00000000000E+00 -0.00000000000E+00 -0.45593999997E+02  0.45594000000E+02  0.51100000000E-03 0. -1.
    9900012    2    1    2    0    0 -0.32662758248E+01  0.11370875070E+02 -0.29610045362E+02  0.59301950637E+02  0.50000012054E+02 0.  0.
        -12    1    1    2    0    0  0.32662758248E+01 -0.11370875070E+02  0.29610045362E+02  0.31886049363E+02  0.00000000000E+00 0.  1.
         11    1    3    3    0    0  0.63973401037E+01 -0.13550990382E+01 -0.99496018011E+01  0.11906167732E+02  0.51100000000E-03 0. -1.
        -11    1    3    3    0    0  0.21351738788E+01 -0.13282799884E+02 -0.11484712688E+02  0.17688707303E+02  0.51100000000E-03 0.  1.
         12    1    3    3    0    0 -0.11798789807E+02  0.26008773993E+02 -0.81757308732E+01  0.29707075602E+02  0.00000000000E+00 0. -1.
</event>
<event>
 7    1  0.1101380E-011  0.5930194E+02  0.7816164E-02  0.1266605E+00
        -11   -1    0    0    0    0  0.00000000000E+00  0.00000000000E+00  0.45593999997E+02  0.45594000000E+02  0.51100000000E-03 0. -1.
         11   -1    0    0    0    0 -0.00000000000E+00 -0.00000000000E+00 -0.45593999997E+02  0.45594000000E+02  0.51100000000E-03 0.  1.
    9900012    2    1    2    0    0 -0.16496598391E+01 -0.19115192836E+02  0.25467806348E+02  0.59301935098E+02  0.49999983715E+02 0.  0.
        -12    1    1    2    0    0  0.16496598391E+01  0.19115192836E+02 -0.25467806348E+02  0.31886064902E+02  0.00000000000E+00 0.  1.
         11    1    3    3    0    0  0.94186452105E+01 -0.22385038968E+02  0.20295746038E+02  0.31649931354E+02  0.51100000000E-03 0. -1.
        -11    1    3    3    0    0  0.47330184974E+01 -0.48218939211E+01  0.70925510328E+01  0.97957340459E+01  0.51100000000E-03 0.  1.
        -12    1    3    3    0    0 -0.15801323547E+02  0.80917400534E+01 -0.19204907230E+01  0.17856269699E+02  0.00000000000E+00 0.  1.
</event>
<event>
 7    1  0.1101380E-011  0.5930227E+02  0.7816164E-02  0.1266604E+00
        -11   -1    0    0    0    0  0.00000000000E+00  0.00000000000E+00  0.45593999997E+02  0.45594000000E+02  0.51100000000E-03 0.  1.
         11   -1    0    0    0    0 -0.00000000000E+00 -0.00000000000E+00 -0.45593999997E+02  0.45594000000E+02  0.51100000000E-03 0. -1.
    9900012    2    1    2    0    0 -0.78694317461E+01 -0.82044179701E+01 -0.29790255346E+02  0.59302270531E+02  0.50000595459E+02 0.  0.
        -12    1    1    2    0    0  0.78694317461E+01  0.82044179701E+01  0.29790255346E+02  0.31885729469E+02  0.00000000000E+00 0.  1.
         11    1    3    3    0    0 -0.22120301489E+02 -0.19072853904E+01 -0.17817775294E+02  0.28467851907E+02  0.51100000000E-03 0. -1.
        -11    1    3    3    0    0 -0.13941540035E+01  0.21882213039E+01  0.53827050259E+01  0.59754072261E+01  0.51100000000E-03 0.  1.
        -12    1    3    3    0    0  0.15645023747E+02 -0.84853538836E+01 -0.17355185078E+02  0.24859011397E+02  0.00000000000E+00 0.  1.
</event>
<event>
 7    1  0.1101380E-011  0.5930195E+02  0.7816164E-02  0.1266605E+00
        -11   -1    0    0    0    0  0.00000000000E+00  0.00000000000E+00  0.45593999997E+02  0.45594000000E+02  0.51100000000E-03 0. -1.
         11   -1    0    0    0    0 -0.00000000000E+00 -0.00000000000E+00 -0.45593999997E+02  0.45594000000E+02  0.51100000000E-03 0.  1.
    9900012    2    1    2    0    0  0.21709998944E+02 -0.13240820543E+02 -0.19237380985E+02  0.59301949602E+02  0.50000010166E+02 0.  0.
        -12    1    1    2    0    0 -0.21709998944E+02  0.13240820543E+02  0.19237380985E+02  0.31886050398E+02  0.00000000000E+00 0.  1.
         11    1    3    3    0    0  0.54434410211E+01  0.14869093491E+02 -0.14211922092E+02  0.21276741320E+02  0.51100000000E-03 0. -1.
        -11    1    3    3    0    0  0.86685357573E-01 -0.10061581507E+01  0.48473561095E+01  0.49514371741E+01  0.51100000000E-03 0.  1.
        -12    1    3    3    0    0  0.16179872565E+02 -0.27103755883E+02 -0.98728150030E+01  0.33073771108E+02  0.00000000000E+00 0.  1.
</event>
<event>
 7    1  0.1101380E-011  0.5930193E+02  0.7816164E-02  0.1266605E+00
        -11   -1    0    0    0    0  0.00000000000E+00  0.00000000000E+00  0.45593999997E+02  0.45594000000E+02  0.51100000000E-03 0.  1.
         11   -1    0    0    0    0 -0.00000000000E+00 -0.00000000000E+00 -0.45593999997E+02  0.45594000000E+02  0.51100000000E-03 0. -1.
    9900012    2    1    2    0    0 -0.28364507097E+02 -0.10286263558E+02 -0.10313536102E+02  0.59301929252E+02  0.49999973052E+02 0.  0.
        -12    1    1    2    0    0  0.28364507097E+02  0.10286263558E+02  0.10313536102E+02  0.31886070748E+02  0.00000000000E+00 0.  1.
         11    1    3    3    0    0 -0.11729047076E+02  0.10186442125E+02 -0.13231759488E+02  0.20406214933E+02  0.51100000000E-03 0.  1.
        -11    1    3    3    0    0 -0.23460021929E+01  0.71548117518E+01  0.19430516856E+01  0.77762785191E+01  0.51100000000E-03 0. -1.
         12    1    3    3    0    0 -0.14289457828E+02 -0.27627517435E+02  0.97517170102E+00  0.31119435799E+02  0.00000000000E+00 0. -1.
</event>
<event>
 7    1  0.1101380E-011  0.5930199E+02  0.7816164E-02  0.1266605E+00
        -11   -1    0    0    0    0  0.00000000000E+00  0.00000000000E+00  0.45593999997E+02  0.45594000000E+02  0.51100000000E-03 0. -1.
         11   -1    0    0    0    0 -0.00000000000E+00 -0.00000000000E+00 -0.45593999997E+02  0.45594000000E+02  0.51100000000E-03 0.  1.
    9900012    2    1    2    0    0 -0.24162735160E+02  0.52901925976E+00  0.20799038023E+02  0.59301990302E+02  0.50000084393E+02 0.  0.
        -12    1    1    2    0    0  0.24162735160E+02 -0.52901925976E+00 -0.20799038023E+02  0.31886009698E+02  0.00000000000E+00 0.  1.
         11    1    3    3    0    0 -0.66281021802E+01  0.18629115755E+01  0.15780146599E+02  0.17216712956E+02  0.51100000000E-03 0. -1.
        -11    1    3    3    0    0  0.26407980793E+01 -0.49440880886E+01  0.17304258219E+02  0.18189424793E+02  0.51100000000E-03 0.  1.
        -12    1    3    3    0    0 -0.20175431059E+02  0.36101957729E+01 -0.12285366796E+02  0.23895852553E+02  0.00000000000E+00 0.  1.
</event>
<event>
 7    1  0.1101380E-011  0.5930193E+02  0.7816164E-02  0.1266605E+00
        -11   -1    0    0    0    0  0.00000000000E+00  0.00000000000E+00  0.45593999997E+02  0.45594000000E+02  0.51100000000E-03 0. -1.
         11   -1    0    0    0    0 -0.00000000000E+00 -0.00000000000E+00 -0.45593999997E+02  0.45594000000E+02  0.51100000000E-03 0.  1.
    9900012    2    1    2    0    0 -0.21858767459E+02  0.22885866537E+02 -0.38926774392E+01  0.59301928752E+02  0.49999972141E+02 0.  0.
        -12    1    1    2    0    0  0.21858767459E+02 -0.22885866537E+02  0.38926774392E+01  0.31886071248E+02  0.00000000000E+00 0.  1.
         11    1    3    3    0    0 -0.15020127286E+02  0.10222005005E+02  0.57159732876E+01  0.19046415959E+02  0.51100000000E-03 0. -1.
        -11    1    3    3    0    0 -0.15934741973E+02 -0.59599645590E+01 -0.95888749390E+01  0.19529047651E+02  0.51100000000E-03 0.  1.
        -12    1    3    3    0    0  0.90961017994E+01  0.18623826091E+02 -0.19775787810E-01  0.20726465142E+02  0.00000000000E+00 0.  1.
</event>
<event>
 7    1  0.1101380E-011  0.5930195E+02  0.7816164E-02  0.1266605E+00
        -11   -1    0    0    0    0  0.00000000000E+00  0.00000000000E+00  0.45593999997E+02  0.45594000000E+02  0.51100000000E-03 0. -1.
         11   -1    0    0    0    0 -0.00000000000E+00 -0.00000000000E+00 -0.45593999997E+02  0.45594000000E+02  0.51100000000E-03 0.  1.
    9900012    2    1    2    0    0 -0.29343878058E+02  0.71823462461E+01  0.10201526959E+02  0.59301946162E+02  0.50000003892E+02 0.  0.
        -12    1    1    2    0    0  0.29343878058E+02 -0.71823462461E+01 -0.10201526959E+02  0.31886053838E+02  0.00000000000E+00 0.  1.
         11    1    3    3    0    0 -0.24763077704E+01 -0.66839646723E+01 -0.41640522986E+01  0.82551084621E+01  0.51100000000E-03 0. -1.
        -11    1    3    3    0    0 -0.96045100463E+01 -0.73094303916E+01  0.19802042049E+02  0.23190413008E+02  0.51100000000E-03 0.  1.
         12    1    3    3    0    0 -0.17263060241E+02  0.21175741310E+02 -0.54364627918E+01  0.27856424692E+02  0.00000000000E+00 0. -1.
</event>
<event>
 7    1  0.1101380E-011  0.5930195E+02  0.7816164E-02  0.1266605E+00
        -11   -1    0    0    0    0  0.00000000000E+00  0.00000000000E+00  0.45593999997E+02  0.45594000000E+02  0.51100000000E-03 0. -1.
         11   -1    0    0    0    0 -0.00000000000E+00 -0.00000000000E+00 -0.45593999997E+02  0.45594000000E+02  0.51100000000E-03 0.  1.
    9900012    2    1    2    0    0  0.63685391903E+01  0.12135332279E+02  0.28790550389E+02  0.59301947051E+02  0.50000005514E+02 0.  0.
        -12    1    1    2    0    0 -0.63685391903E+01 -0.12135332279E+02 -0.28790550389E+02  0.31886052949E+02  0.00000000000E+00 0.  1.
         11    1    3    3    0    0  0.10067131396E+02  0.16913773621E+01  0.36524793134E+01  0.10841978479E+02  0.51100000000E-03 0. -1.
        -11    1    3    3    0    0  0.70251781858E+01  0.22756462381E+02  0.20661885480E+02  0.31529719639E+02  0.51100000000E-03 0.  1.
        -12    1    3    3    0    0 -0.10723770392E+02 -0.12312507464E+02  0.44761855956E+01  0.16930248934E+02  0.00000000000E+00 0.  1.
</event>
<event>
 7    1  0.1101380E-011  0.5930196E+02  0.7816164E-02  0.1266605E+00
        -11   -1    0    0    0    0  0.00000000000E+00  0.00000000000E+00  0.45593999997E+02  0.45594000000E+02  0.51100000000E-03 0. -1.
         11   -1    0    0    0    0 -0.00000000000E+00 -0.00000000000E+00 -0.45593999997E+02  0.45594000000E+02  0.51100000000E-03 0.  1.
    9900012    2    1    2    0    0  0.13471862950E+02 -0.38419220799E+01 -0.28643815354E+02  0.59301958937E+02  0.50000027192E+02 0.  0.
        -12    1    1    2    0    0 -0.13471862950E+02  0.38419220799E+01  0.28643815354E+02  0.31886041063E+02  0.00000000000E+00 0.  1.
         11    1    3    3    0    0 -0.64369539107E+01  0.13261047609E+02 -0.13439889934E+02  0.19947942275E+02  0.51100000000E-03 0. -1.
        -11    1    3    3    0    0 -0.21070467027E+00  0.50739414008E+01 -0.63461212838E+01  0.81278861585E+01  0.51100000000E-03 0.  1.
        -12    1    3    3    0    0  0.20119521531E+02 -0.22176911089E+02 -0.88578041360E+01  0.31226130504E+02  0.00000000000E+00 0.  1.
</event>
<event>
 7    1  0.1101380E-011  0.5930195E+02  0.7816164E-02  0.1266605E+00
        -11   -1    0    0    0    0  0.00000000000E+00  0.00000000000E+00  0.45593999997E+02  0.45594000000E+02  0.51100000000E-03 0.  1.
         11   -1    0    0    0    0 -0.00000000000E+00 -0.00000000000E+00 -0.45593999997E+02  0.45594000000E+02  0.51100000000E-03 0. -1.
    9900012    2    1    2    0    0  0.30769389375E+02 -0.81720680059E+01  0.17838512770E+01  0.59301950647E+02  0.50000012071E+02 0.  0.
        -12    1    1    2    0    0 -0.30769389375E+02  0.81720680059E+01 -0.17838512770E+01  0.31886049353E+02  0.00000000000E+00 0.  1.
         11    1    3    3    0    0  0.19372044926E+02 -0.18399422621E+02 -0.89344219594E+01  0.28171595152E+02  0.51100000000E-03 0. -1.
        -11    1    3    3    0    0 -0.20186922389E-02 -0.75004837128E+01  0.58159097451E+01  0.94911572753E+01  0.51100000000E-03 0.  1.
        -12    1    3    3    0    0  0.11399363141E+02  0.17727838327E+02  0.49023634914E+01  0.21639198219E+02  0.00000000000E+00 0.  1.
</event>
<event>
 7    1  0.1101380E-011  0.5930198E+02  0.7816164E-02  0.1266605E+00
        -11   -1    0    0    0    0  0.00000000000E+00  0.00000000000E+00  0.45593999997E+02  0.45594000000E+02  0.51100000000E-03 0. -1.
         11   -1    0    0    0    0 -0.00000000000E+00 -0.00000000000E+00 -0.45593999997E+02  0.45594000000E+02  0.51100000000E-03 0.  1.
    9900012    2    1    2    0    0  0.12628294519E+02  0.52298976219E+01  0.28807856961E+02  0.59301979955E+02  0.50000065523E+02 0.  0.
        -12    1    1    2    0    0 -0.12628294519E+02 -0.52298976219E+01 -0.28807856961E+02  0.31886020045E+02  0.00000000000E+00 0.  1.
         11    1    3    3    0    0  0.13810671514E+02  0.27716261698E+00  0.96965798038E+01  0.16877059191E+02  0.51100000000E-03 0. -1.
        -11    1    3    3    0    0  0.15332996695E+01 -0.29793784613E+01  0.29152056904E+02  0.29343996420E+02  0.51100000000E-03 0.  1.
         12    1    3    3    0    0 -0.27156766645E+01  0.79321134661E+01 -0.10040779747E+02  0.13080924344E+02  0.00000000000E+00 0. -1.
</event>
<event>
 7    1  0.1101380E-011  0.5930194E+02  0.7816164E-02  0.1266605E+00
        -11   -1    0    0    0    0  0.00000000000E+00  0.00000000000E+00  0.45593999997E+02  0.45594000000E+02  0.51100000000E-03 0.  1.
         11   -1    0    0    0    0 -0.00000000000E+00 -0.00000000000E+00 -0.45593999997E+02  0.45594000000E+02  0.51100000000E-03 0. -1.
    9900012    2    1    2    0    0  0.33529620257E+01  0.31171715235E+02  0.58140046875E+01  0.59301939793E+02  0.49999992277E+02 0.  0.
        -12    1    1    2    0    0 -0.33529620257E+01 -0.31171715235E+02 -0.58140046875E+01  0.31886060207E+02  0.00000000000E+00 0.  1.
         11    1    3    3    0    0 -0.15780477925E+01  0.14521009390E+02 -0.11998108312E+01  0.14655698374E+02  0.51100000000E-03 0. -1.
        -11    1    3    3    0    0  0.64033782259E+01  0.21256683145E+02  0.20562818185E+02  0.30260193704E+02  0.51100000000E-03 0.  1.
         12    1    3    3    0    0 -0.14723684077E+01 -0.46059772997E+01 -0.13549002666E+02  0.14386047715E+02  0.00000000000E+00 0. -1.
</event>
<event>
 7    1  0.1101380E-011  0.5930193E+02  0.7816164E-02  0.1266605E+00
        -11   -1    0    0    0    0  0.00000000000E+00  0.00000000000E+00  0.45593999997E+02  0.45594000000E+02  0.51100000000E-03 0.  1.
         11   -1    0    0    0    0 -0.00000000000E+00 -0.00000000000E+00 -0.45593999997E+02  0.45594000000E+02  0.51100000000E-03 0. -1.
    9900012    2    1    2    0    0 -0.25571825814E+01  0.12222792846E+00 -0.31783127598E+02  0.59301932160E+02  0.49999978356E+02 0.  0.
        -12    1    1    2    0    0  0.25571825814E+01 -0.12222792846E+00  0.31783127598E+02  0.31886067840E+02  0.00000000000E+00 0.  1.
         11    1    3    3    0    0 -0.77437714065E+01 -0.17857690019E+01 -0.30103050688E+02  0.31134364093E+02  0.51100000000E-03 0. -1.
        -11    1    3    3    0    0  0.95419337240E+01 -0.76482147800E+01 -0.91558730402E+01  0.15276573566E+02  0.51100000000E-03 0.  1.
        -12    1    3    3    0    0 -0.43553448988E+01  0.95562117103E+01  0.74757961303E+01  0.12890994501E+02  0.00000000000E+00 0.  1.
</event>
<event>
 7    1  0.1101380E-011  0.5930195E+02  0.7816164E-02  0.1266605E+00
        -11   -1    0    0    0    0  0.00000000000E+00  0.00000000000E+00  0.45593999997E+02  0.45594000000E+02  0.51100000000E-03 0.  1.
         11   -1    0    0    0    0 -0.00000000000E+00 -0.00000000000E+00 -0.45593999997E+02  0.45594000000E+02  0.51100000000E-03 0. -1.
    9900012    2    1    2    0    0 -0.84317920832E+01  0.30699377870E+02 -0.17813579774E+01  0.59301950455E+02  0.50000011723E+02 0.  0.
        -12    1    1    2    0    0  0.84317920832E+01 -0.30699377870E+02  0.17813579774E+01  0.31886049545E+02  0.00000000000E+00 0.  1.
         11    1    3    3    0    0  0.16305773741E+01 -0.21964143245E+01  0.37163704956E+01  0.46145886468E+01  0.51100000000E-03 0. -1.
        -11    1    3    3    0    0  0.75626369878E+00  0.18499024128E+02  0.17501019186E+02  0.25476881703E+02  0.51100000000E-03 0.  1.
         12    1    3    3    0    0 -0.10818633156E+02  0.14396768066E+02 -0.22998747659E+02  0.29210480106E+02  0.00000000000E+00 0. -1.
</event>
<event>
 7    1  0.1101380E-011  0.5930195E+02  0.7816164E-02  0.1266605E+00
        -11   -1    0    0    0    0  0.00000000000E+00  0.00000000000E+00  0.45593999997E+02  0.45594000000E+02  0.51100000000E-03 0.  1.
         11   -1    0    0    0    0 -0.00000000000E+00 -0.00000000000E+00 -0.45593999997E+02  0.45594000000E+02  0.51100000000E-03 0. -1.
    9900012    2    1    2    0    0 -0.16081591352E+02  0.21327228673E+02 -0.17414121448E+02  0.59301954634E+02  0.50000019343E+02 0.  0.
        -12    1    1    2    0    0  0.16081591352E+02 -0.21327228673E+02  0.17414121448E+02  0.31886045366E+02  0.00000000000E+00 0.  1.
         11    1    3    3    0    0 -0.54484592123E+01 -0.90295057878E+01 -0.24066813050E+01  0.10817106717E+02  0.51100000000E-03 0. -1.
        -11    1    3    3    0    0 -0.13693143802E+02 -0.42597106574E+00  0.84368606911E+00  0.13725722020E+02  0.51100000000E-03 0.  1.
         12    1    3    3    0    0  0.30600116627E+01  0.30782705527E+02 -0.15851126212E+02  0.34759125897E+02  0.00000000000E+00 0. -1.
</event>
<event>
 7    1  0.1101380E-011  0.5930189E+02  0.7816164E-02  0.1266605E+00
        -11   -1    0    0    0    0  0.00000000000E+00  0.00000000000E+00  0.45593999997E+02  0.45594000000E+02  0.51100000000E-03 0.  1.
         11   -1    0    0    0    0 -0.00000000000E+00 -0.00000000000E+00 -0.45593999997E+02  0.45594000000E+02  0.51100000000E-03 0. -1.
    9900012    2    1    2    0    0  0.11572389039E+02  0.28841921005E+02 -0.71377535402E+01  0.59301888275E+02  0.49999898321E+02 0.  0.
        -12    1    1    2    0    0 -0.11572389039E+02 -0.28841921005E+02  0.71377535402E+01  0.31886111725E+02  0.00000000000E+00 0.  1.
         11    1    3    3    0    0  0.11117115888E+02  0.17708958225E+01 -0.47685107383E+00  0.11267374356E+02  0.51100000000E-03 0. -1.
        -11    1    3    3    0    0  0.14157844252E+02  0.74415783161E+01 -0.15731779465E+02  0.22434583283E+02  0.51100000000E-03 0.  1.
        -12    1    3    3    0    0 -0.13702571101E+02  0.19629446866E+02  0.90708769983E+01  0.25599930636E+02  0.00000000000E+00 0.  1.
</event>
<event>
 7    1  0.1101380E-011  0.5930195E+02  0.7816164E-02  0.1266605E+00
        -11   -1    0    0    0    0  0.00000000000E+00  0.00000000000E+00  0.45593999997E+02  0.45594000000E+02  0.51100000000E-03 0.  1.
         11   -1    0    0    0    0 -0.00000000000E+00 -0.00000000000E+00 -0.45593999997E+02  0.45594000000E+02  0.51100000000E-03 0. -1.
    9900012    2    1    2    0    0 -0.10067846608E+02 -0.16794340946E+02 -0.25165624971E+02  0.59301951275E+02  0.50000013216E+02 0.  0.
        -12    1    1    2    0    0  0.10067846608E+02  0.16794340946E+02  0.25165624971E+02  0.31886048725E+02  0.00000000000E+00 0.  1.
         11    1    3    3    0    0 -0.11840634773E+02 -0.70486513924E+00  0.50261960489E+01  0.12882550744E+02  0.51100000000E-03 0. -1.
        -11    1    3    3    0    0  0.87935848434E+01  0.60560877769E+01 -0.39821989511E+01  0.11395667699E+02  0.51100000000E-03 0.  1.
         12    1    3    3    0    0 -0.70207966781E+01 -0.22145563584E+02 -0.26209622069E+02  0.35023732831E+02  0.00000000000E+00 0. -1.
</event>
<event>
 7    1  0.1101380E-011  0.5930193E+02  0.7816164E-02  0.1266605E+00
        -11   -1    0    0    0    0  0.00000000000E+00  0.00000000000E+00  0.45593999997E+02  0.45594000000E+02  0.51100000000E-03 0.  1.
         11   -1    0    0    0    0 -0.00000000000E+00 -0.00000000000E+00 -0.45593999997E+02  0.45594000000E+02  0.51100000000E-03 0. -1.
    9900012    2    1    2    0    0 -0.49754049241E+01  0.26680424568E+02 -0.16736832864E+02  0.59301932766E+02  0.49999979462E+02 0.  0.
        -12    1    1    2    0    0  0.49754049241E+01 -0.26680424568E+02  0.16736832864E+02  0.31886067234E+02  0.00000000000E+00 0.  1.
         11    1    3    3    0    0 -0.70501627523E+01 -0.38616700317E+01 -0.36545490954E+01  0.88302332710E+01  0.51100000000E-03 0. -1.
        -11    1    3    3    0    0 -0.13718733432E+02  0.63490646390E+01  0.55382925889E+01  0.16099284265E+02  0.51100000000E-03 0.  1.
         12    1    3    3    0    0  0.15793491261E+02  0.24193029961E+02 -0.18620576358E+02  0.34372415231E+02  0.00000000000E+00 0. -1.
</event>
<event>
 7    1  0.1101380E-011  0.5930194E+02  0.7816164E-02  0.1266605E+00
        -11   -1    0    0    0    0  0.00000000000E+00  0.00000000000E+00  0.45593999997E+02  0.45594000000E+02  0.51100000000E-03 0.  1.
         11   -1    0    0    0    0 -0.00000000000E+00 -0.00000000000E+00 -0.45593999997E+02  0.45594000000E+02  0.51100000000E-03 0. -1.
    9900012    2    1    2    0    0 -0.22068488732E+02 -0.23005966810E+02  0.65452408157E+00  0.59301935559E+02  0.49999984555E+02 0.  0.
        -12    1    1    2    0    0  0.22068488732E+02  0.23005966810E+02 -0.65452408157E+00  0.31886064441E+02  0.00000000000E+00 0.  1.
         11    1    3    3    0    0 -0.18879581171E+01  0.65373007767E+01  0.19036021554E+01  0.70657192645E+01  0.51100000000E-03 0. -1.
        -11    1    3    3    0    0 -0.17339075491E+01 -0.10004344759E+02  0.16966848178E+02  0.19772892727E+02  0.51100000000E-03 0.  1.
         12    1    3    3    0    0 -0.18446623065E+02 -0.19538922828E+02 -0.18215926252E+02  0.32463323567E+02  0.00000000000E+00 0. -1.
</event>
<event>
 7    1  0.1101380E-011  0.5930193E+02  0.7816164E-02  0.1266605E+00
        -11   -1    0    0    0    0  0.00000000000E+00  0.00000000000E+00  0.45593999997E+02  0.45594000000E+02  0.51100000000E-03 0.  1.
         11   -1    0    0    0    0 -0.00000000000E+00 -0.00000000000E+00 -0.45593999997E+02  0.45594000000E+02  0.51100000000E-03 0. -1.
    9900012    2    1    2    0    0 -0.94819921837E+00  0.31396957356E+02 -0.54821081314E+01  0.59301929020E+02  0.49999972630E+02 0.  0.
        -12    1    1    2    0    0  0.94819921837E+00 -0.31396957356E+02  0.54821081314E+01  0.31886070980E+02  0.00000000000E+00 0.  1.
         11    1    3    3    0    0  0.63717848397E+01  0.26761779076E+02 -0.87010506044E+01  0.28853088973E+02  0.51100000000E-03 0. -1.
        -11    1    3    3    0    0 -0.59070701960E+01  0.94287033491E+01 -0.10836521375E+02  0.15531391467E+02  0.51100000000E-03 0.  1.
        -12    1    3    3    0    0 -0.14129138621E+01 -0.47935250695E+01  0.14055463848E+02  0.14917448580E+02  0.00000000000E+00 0.  1.
</event>
<event>
 7    1  0.1101380E-011  0.5930195E+02  0.7816164E-02  0.1266605E+00
        -11   -1    0    0    0    0  0.00000000000E+00  0.00000000000E+00  0.45593999997E+02  0.45594000000E+02  0.51100000000E-03 0.  1.
         11   -1    0    0    0    0 -0.00000000000E+00 -0.00000000000E+00 -0.45593999997E+02  0.45594000000E+02  0.51100000000E-03 0. -1.
    9900012    2    1    2    0    0  0.14575994128E+02  0.17419957835E+02 -0.22378682306E+02  0.59301953560E+02  0.50000017385E+02 0.  0.
        -12    1    1    2    0    0 -0.14575994128E+02 -0.17419957835E+02  0.22378682306E+02  0.31886046440E+02  0.00000000000E+00 0.  1.
         11    1    3    3    0    0  0.21927984591E+02  0.20393475050E+01  0.14014055387E+01  0.22067156233E+02  0.51100000000E-03 0. -1.
        -11    1    3    3    0    0  0.59401915627E+01  0.33846481709E+01 -0.16583936367E+02  0.17937911381E+02  0.51100000000E-03 0.  1.
        -12    1    3    3    0    0 -0.13292182025E+02  0.11995962159E+02 -0.71961514778E+01  0.19296885946E+02  0.00000000000E+00 0.  1.
</event>
<event>
 7    1  0.1101380E-011  0.5930195E+02  0.7816164E-02  0.1266605E+00
        -11   -1    0    0    0    0  0.00000000000E+00  0.00000000000E+00  0.45593999997E+02  0.45594000000E+02  0.51100000000E-03 0.  1.
         11   -1    0    0    0    0 -0.00000000000E+00 -0.00000000000E+00 -0.45593999997E+02  0.45594000000E+02  0.51100000000E-03 0. -1.
    9900012    2    1    2    0    0  0.20061092343E+02 -0.10962487131E+02 -0.22228285561E+02  0.59301949302E+02  0.50000009620E+02 0.  0.
        -12    1    1    2    0    0 -0.20061092343E+02  0.10962487131E+02  0.22228285561E+02  0.31886050698E+02  0.00000000000E+00 0.  1.
         11    1    3    3    0    0 -0.28479908711E+01  0.70477434622E+00 -0.22347663367E+02  0.22539428057E+02  0.51100000000E-03 0. -1.
        -11    1    3    3    0    0  0.12214244377E+02  0.77409437172E+01 -0.15302474675E+01  0.14541376582E+02  0.51100000000E-03 0.  1.
        -12    1    3    3    0    0  0.10694838837E+02 -0.19408205194E+02  0.16496252737E+01  0.22221144664E+02  0.00000000000E+00 0.  1.
</event>
<event>
 7    1  0.1101380E-011  0.5930197E+02  0.7816164E-02  0.1266605E+00
        -11   -1    0    0    0    0  0.00000000000E+00  0.00000000000E+00  0.45593999997E+02  0.45594000000E+02  0.51100000000E-03 0.  1.
         11   -1    0    0    0    0 -0.00000000000E+00 -0.00000000000E+00 -0.45593999997E+02  0.45594000000E+02  0.51100000000E-03 0. -1.
    9900012    2    1    2    0    0  0.17847489956E+02 -0.18864594122E+02 -0.18501705162E+02  0.59301970096E+02  0.50000047543E+02 0.  0.
        -12    1    1    2    0    0 -0.17847489956E+02  0.18864594122E+02  0.18501705162E+02  0.31886029904E+02  0.00000000000E+00 0.  1.
         11    1    3    3    0    0 -0.48928075899E+01  0.27139480029E+01 -0.42384729322E+01  0.70192401962E+01  0.51100000000E-03 0. -1.
        -11    1    3    3    0    0  0.22848033277E+01  0.23723221519E+01 -0.19998287677E+02  0.20267702112E+02  0.51100000000E-03 0.  1.
         12    1    3    3    0    0  0.20455494218E+02 -0.23950864277E+02  0.57350554469E+01  0.32015027788E+02  0.00000000000E+00 0. -1.
</event>
<event>
 7    1  0.1101380E-011  0.5930198E+02  0.7816164E-02  0.1266605E+00
        -11   -1    0    0    0    0  0.00000000000E+00  0.00000000000E+00  0.45593999997E+02  0.45594000000E+02  0.51100000000E-03 0. -1.
         11   -1    0    0    0    0 -0.00000000000E+00 -0.00000000000E+00 -0.45593999997E+02  0.45594000000E+02  0.51100000000E-03 0.  1.
    9900012    2    1    2    0    0 -0.15309307130E+02 -0.86071320745E+01  0.26613169496E+02  0.59301978016E+02  0.50000061987E+02 0.  0.
        -12    1    1    2    0    0  0.15309307130E+02  0.86071320745E+01 -0.26613169496E+02  0.31886021984E+02  0.00000000000E+00 0.  1.
         11    1    3    3    0    0 -0.53782975064E+01  0.73481967352E+01  0.81300931436E+01  0.12207395058E+02  0.51100000000E-03 0. -1.
        -11    1    3    3    0    0  0.10344829485E+01  0.25137819623E+01 -0.10598139822E+02  0.10941198411E+02  0.51100000000E-03 0.  1.
         12    1    3    3    0    0 -0.10965492572E+02 -0.18469110772E+02  0.29081216174E+02  0.36153384547E+02  0.00000000000E+00 0. -1.
</event>
<event>
 7    1  0.1101380E-011  0.5930192E+02  0.7816164E-02  0.1266605E+00
        -11   -1    0    0    0    0  0.00000000000E+00  0.00000000000E+00  0.45593999997E+02  0.45594000000E+02  0.51100000000E-03 0. -1.
         11   -1    0    0    0    0 -0.00000000000E+00 -0.00000000000E+00 -0.45593999997E+02  0.45594000000E+02  0.51100000000E-03 0.  1.
    9900012    2    1    2    0    0  0.11883940047E+02 -0.14829076802E+02  0.25604545144E+02  0.59301917113E+02  0.49999950915E+02 0.  0.
        -12    1    1    2    0    0 -0.11883940047E+02  0.14829076802E+02 -0.25604545144E+02  0.31886082887E+02  0.00000000000E+00 0.  1.
         11    1    3    3    0    0  0.18720545309E+02  0.10263683281E+02  0.20784866728E+02  0.29796185936E+02  0.51100000000E-03 0. -1.
        -11    1    3    3    0    0 -0.12970384475E+01 -0.53924375660E-01 -0.25174563948E+01  0.28324553894E+01  0.51100000000E-03 0.  1.
        -12    1    3    3    0    0 -0.55395668141E+01 -0.25038835707E+02  0.73371348102E+01  0.26673275788E+02  0.00000000000E+00 0.  1.
</event>
<event>
 7    1  0.1101380E-011  0.5930196E+02  0.7816164E-02  0.1266605E+00
        -11   -1    0    0    0    0  0.00000000000E+00  0.00000000000E+00  0.45593999997E+02  0.45594000000E+02  0.51100000000E-03 0. -1.
         11   -1    0    0    0    0 -0.00000000000E+00 -0.00000000000E+00 -0.45593999997E+02  0.45594000000E+02  0.51100000000E-03 0.  1.
    9900012    2    1    2    0    0 -0.24224077641E+01 -0.17332332356E+02  0.26654114303E+02  0.59301958955E+02  0.50000027223E+02 0.  0.
        -12    1    1    2    0    0  0.24224077641E+01  0.17332332356E+02 -0.26654114303E+02  0.31886041045E+02  0.00000000000E+00 0.  1.
         11    1    3    3    0    0 -0.11595997384E+02  0.17889826154E+00  0.19207239054E+02  0.22436960406E+02  0.51100000000E-03 0. -1.
        -11    1    3    3    0    0  0.10247211787E+01  0.90579914629E+00  0.15217307973E+02  0.15278644828E+02  0.51100000000E-03 0.  1.
        -12    1    3    3    0    0  0.81488684409E+01 -0.18417029764E+02 -0.77704327245E+01  0.21586353720E+02  0.00000000000E+00 0.  1.
</event>
<event>
 7    1  0.1101380E-011  0.5930204E+02  0.7816164E-02  0.1266604E+00
        -11   -1    0    0    0    0  0.00000000000E+00  0.00000000000E+00  0.45593999997E+02  0.45594000000E+02  0.51100000000E-03 0. -1.
         11   -1    0    0    0    0 -0.00000000000E+00 -0.00000000000E+00 -0.45593999997E+02  0.45594000000E+02  0.51100000000E-03 0.  1.
    9900012    2    1    2    0    0  0.21884695916E+02 -0.94640087395E+01  0.21170908374E+02  0.59302035405E+02  0.50000166651E+02 0.  0.
        -12    1    1    2    0    0 -0.21884695916E+02  0.94640087395E+01 -0.21170908374E+02  0.31885964595E+02  0.00000000000E+00 0.  1.
         11    1    3    3    0    0 -0.61516051176E+01 -0.92752202025E+01  0.57106200613E+00  0.11144418666E+02  0.51100000000E-03 0. -1.
        -11    1    3    3    0    0  0.16243234477E+00  0.14563627585E+01 -0.80320081946E+01  0.81645901703E+01  0.51100000000E-03 0.  1.
         12    1    3    3    0    0  0.27873868688E+02 -0.16451512956E+01  0.28631854563E+02  0.39993026569E+02  0.00000000000E+00 0. -1.
</event>
<event>
 7    1  0.1101380E-011  0.5930194E+02  0.7816164E-02  0.1266605E+00
        -11   -1    0    0    0    0  0.00000000000E+00  0.00000000000E+00  0.45593999997E+02  0.45594000000E+02  0.51100000000E-03 0.  1.
         11   -1    0    0    0    0 -0.00000000000E+00 -0.00000000000E+00 -0.45593999997E+02  0.45594000000E+02  0.51100000000E-03 0. -1.
    9900012    2    1    2    0    0  0.30918210804E+02 -0.17917820715E+01  0.75877788718E+01  0.59301943008E+02  0.49999998140E+02 0.  0.
        -12    1    1    2    0    0 -0.30918210804E+02  0.17917820715E+01 -0.75877788718E+01  0.31886056992E+02  0.00000000000E+00 0.  1.
         11    1    3    3    0    0 -0.40103902262E+01 -0.52545557030E+00  0.30070951395E+01  0.50400351945E+01  0.51100000000E-03 0. -1.
        -11    1    3    3    0    0  0.14234925495E+02  0.19868904433E+02  0.94505972362E+00  0.24460163641E+02  0.51100000000E-03 0.  1.
         12    1    3    3    0    0  0.20693675535E+02 -0.21135230934E+02  0.36356240087E+01  0.29801744172E+02  0.00000000000E+00 0. -1.
</event>
<event>
 7    1  0.1101380E-011  0.5930194E+02  0.7816164E-02  0.1266605E+00
        -11   -1    0    0    0    0  0.00000000000E+00  0.00000000000E+00  0.45593999997E+02  0.45594000000E+02  0.51100000000E-03 0.  1.
         11   -1    0    0    0    0 -0.00000000000E+00 -0.00000000000E+00 -0.45593999997E+02  0.45594000000E+02  0.51100000000E-03 0. -1.
    9900012    2    1    2    0    0 -0.16999004254E+02  0.46552432702E+01 -0.26572225681E+02  0.59301943279E+02  0.49999998635E+02 0.  0.
        -12    1    1    2    0    0  0.16999004254E+02 -0.46552432702E+01  0.26572225681E+02  0.31886056721E+02  0.00000000000E+00 0.  1.
         11    1    3    3    0    0 -0.16809962044E+02 -0.42919285879E+01 -0.17723416433E+02  0.24801511351E+02  0.51100000000E-03 0. -1.
        -11    1    3    3    0    0  0.25453890920E+01 -0.89819560202E+01  0.59686769354E+01  0.11080597646E+02  0.51100000000E-03 0.  1.
         12    1    3    3    0    0 -0.27344313017E+01  0.17929127878E+02 -0.14817486183E+02  0.23419834282E+02  0.00000000000E+00 0. -1.
</event>
<event>
 7    1  0.1101380E-011  0.5930194E+02  0.7816164E-02  0.1266605E+00
        -11   -1    0    0    0    0  0.00000000000E+00  0.00000000000E+00  0.45593999997E+02  0.45594000000E+02  0.51100000000E-03 0.  1.
         11   -1    0    0    0    0 -0.00000000000E+00 -0.00000000000E+00 -0.45593999997E+02  0.45594000000E+02  0.51100000000E-03 0. -1.
    9900012    2    1    2    0    0 -0.23743201926E+02 -0.15423577640E+02 -0.14666104111E+02  0.59301937296E+02  0.49999987724E+02 0.  0.
        -12    1    1    2    0    0  0.23743201926E+02  0.15423577640E+02  0.14666104111E+02  0.31886062704E+02  0.00000000000E+00 0.  1.
         11    1    3    3    0    0 -0.13141787223E+02 -0.60472805862E+01  0.19629750634E+01  0.14598953568E+02  0.51100000000E-03 0. -1.
        -11    1    3    3    0    0 -0.85033174288E+01 -0.15868282233E+02 -0.26902440613E+02  0.32370512809E+02  0.51100000000E-03 0.  1.
        -12    1    3    3    0    0 -0.20980972744E+01  0.64919851791E+01  0.10273361438E+02  0.12332470920E+02  0.00000000000E+00 0.  1.
</event>
<event>
 7    1  0.1101380E-011  0.5930194E+02  0.7816164E-02  0.1266605E+00
        -11   -1    0    0    0    0  0.00000000000E+00  0.00000000000E+00  0.45593999997E+02  0.45594000000E+02  0.51100000000E-03 0.  1.
         11   -1    0    0    0    0 -0.00000000000E+00 -0.00000000000E+00 -0.45593999997E+02  0.45594000000E+02  0.51100000000E-03 0. -1.
    9900012    2    1    2    0    0 -0.22231628341E+02  0.98582748224E+01 -0.20622558787E+02  0.59301940161E+02  0.49999992948E+02 0.  0.
        -12    1    1    2    0    0  0.22231628341E+02 -0.98582748224E+01  0.20622558787E+02  0.31886059839E+02  0.00000000000E+00 0.  1.
         11    1    3    3    0    0 -0.99862357948E+01  0.80185575655E+01 -0.19613793300E+02  0.23424838498E+02  0.51100000000E-03 0. -1.
        -11    1    3    3    0    0 -0.62394236864E+01  0.16426633298E+02 -0.71204591048E+01  0.18959578782E+02  0.51100000000E-03 0.  1.
         12    1    3    3    0    0 -0.60059688594E+01 -0.14586916042E+02  0.61116936184E+01  0.16917522881E+02  0.00000000000E+00 0. -1.
</event>
<event>
 7    1  0.1101380E-011  0.5930193E+02  0.7816164E-02  0.1266605E+00
        -11   -1    0    0    0    0  0.00000000000E+00  0.00000000000E+00  0.45593999997E+02  0.45594000000E+02  0.51100000000E-03 0. -1.
         11   -1    0    0    0    0 -0.00000000000E+00 -0.00000000000E+00 -0.45593999997E+02  0.45594000000E+02  0.51100000000E-03 0.  1.
    9900012    2    1    2    0    0 -0.17369733112E+02  0.23355518979E+01  0.26637545549E+02  0.59301933075E+02  0.49999980025E+02 0.  0.
        -12    1    1    2    0    0  0.17369733112E+02 -0.23355518979E+01 -0.26637545549E+02  0.31886066925E+02  0.00000000000E+00 0.  1.
         11    1    3    3    0    0  0.57168279247E+01 -0.19471037999E+01 -0.47355796539E+00  0.60578537566E+01  0.51100000000E-03 0. -1.
        -11    1    3    3    0    0 -0.98149031158E+01  0.21696606620E+02  0.16019019738E+02  0.28699896439E+02  0.51100000000E-03 0.  1.
         12    1    3    3    0    0 -0.13271657921E+02 -0.17413950922E+02  0.11092083777E+02  0.24544182879E+02  0.00000000000E+00 0. -1.
</event>
<event>
 7    1  0.1101380E-011  0.5930197E+02  0.7816164E-02  0.1266605E+00
        -11   -1    0    0    0    0  0.00000000000E+00  0.00000000000E+00  0.45593999997E+02  0.45594000000E+02  0.51100000000E-03 0. -1.
         11   -1    0    0    0    0 -0.00000000000E+00 -0.00000000000E+00 -0.45593999997E+02  0.45594000000E+02  0.51100000000E-03 0.  1.
    9900012    2    1    2    0    0  0.21741040700E+02 -0.20163035905E+02  0.11725954038E+02  0.59301970681E+02  0.50000048609E+02 0.  0.
        -12    1    1    2    0    0 -0.21741040700E+02  0.20163035905E+02 -0.11725954038E+02  0.31886029319E+02  0.00000000000E+00 0.  1.
         11    1    3    3    0    0  0.20034835578E+02 -0.64442264135E+01  0.22805838825E+02  0.31032708156E+02  0.51100000000E-03 0. -1.
        -11    1    3    3    0    0 -0.20595808363E+01  0.86800497640E+00  0.54582754107E+01  0.58981417905E+01  0.51100000000E-03 0.  1.
         12    1    3    3    0    0  0.37657859576E+01 -0.14586814468E+02 -0.16538160197E+02  0.22371120735E+02  0.00000000000E+00 0. -1.
</event>
<event>
 7    1  0.1101380E-011  0.5930193E+02  0.7816164E-02  0.1266605E+00
        -11   -1    0    0    0    0  0.00000000000E+00  0.00000000000E+00  0.45593999997E+02  0.45594000000E+02  0.51100000000E-03 0.  1.
         11   -1    0    0    0    0 -0.00000000000E+00 -0.00000000000E+00 -0.45593999997E+02  0.45594000000E+02  0.51100000000E-03 0. -1.
    9900012    2    1    2    0    0  0.72794829913E+01 -0.16172973479E+02 -0.26498404437E+02  0.59301931232E+02  0.49999976663E+02 0.  0.
        -12    1    1    2    0    0 -0.72794829913E+01  0.16172973479E+02  0.26498404437E+02  0.31886068768E+02  0.00000000000E+00 0.  1.
         11    1    3    3    0    0  0.11741308495E+02 -0.12164430592E+02 -0.39446581326E+02  0.42916948579E+02  0.51100000000E-03 0. -1.
        -11    1    3    3    0    0  0.12844869169E+01 -0.39887147146E+01  0.66417302811E+01  0.78531734415E+01  0.51100000000E-03 0.  1.
        -12    1    3    3    0    0 -0.57463124210E+01 -0.19828172375E-01  0.63064466074E+01  0.85318092107E+01  0.00000000000E+00 0.  1.
</event>
<event>
 7    1  0.1101380E-011  0.5930192E+02  0.7816164E-02  0.1266605E+00
        -11   -1    0    0    0    0  0.00000000000E+00  0.00000000000E+00  0.45593999997E+02  0.45594000000E+02  0.51100000000E-03 0.  1.
         11   -1    0    0    0    0 -0.00000000000E+00 -0.00000000000E+00 -0.45593999997E+02  0.45594000000E+02  0.51100000000E-03 0. -1.
    9900012    2    1    2    0    0  0.11004154516E+02 -0.28916608116E+02  0.77110749592E+01  0.59301916537E+02  0.49999949864E+02 0.  0.
        -12    1    1    2    0    0 -0.11004154516E+02  0.28916608116E+02 -0.77110749592E+01  0.31886083463E+02  0.00000000000E+00 0.  1.
         11    1    3    3    0    0  0.11144196305E+02  0.21507407434E+01  0.12293995692E+02  0.16732038948E+02  0.51100000000E-03 0. -1.
        -11    1    3    3    0    0 -0.34854605364E+01 -0.82999521087E+01  0.11419376221E+02  0.14540969490E+02  0.51100000000E-03 0.  1.
         12    1    3    3    0    0  0.33454187471E+01 -0.22767396751E+02 -0.16002296955E+02  0.28028908099E+02  0.00000000000E+00 0. -1.
</event>
<event>
 7    1  0.1101380E-011  0.5930196E+02  0.7816164E-02  0.1266605E+00
        -11   -1    0    0    0    0  0.00000000000E+00  0.00000000000E+00  0.45593999997E+02  0.45594000000E+02  0.51100000000E-03 0.  1.
         11   -1    0    0    0    0 -0.00000000000E+00 -0.00000000000E+00 -0.45593999997E+02  0.45594000000E+02  0.51100000000E-03 0. -1.
    9900012    2    1    2    0    0 -0.29907166472E+02 -0.10551633864E+02 -0.33082017627E+01  0.59301956306E+02  0.50000022392E+02 0.  0.
        -12    1    1    2    0    0  0.29907166472E+02  0.10551633864E+02  0.33082017627E+01  0.31886043694E+02  0.00000000000E+00 0.  1.
         11    1    3    3    0    0 -0.96230938301E+01 -0.12815616998E+02 -0.17900180012E+02  0.24026244372E+02  0.51100000000E-03 0. -1.
        -11    1    3    3    0    0 -0.14236267686E+01  0.82719742847E+01 -0.28794541973E+01  0.88737550382E+01  0.51100000000E-03 0.  1.
        -12    1    3    3    0    0 -0.18860445873E+02 -0.60079911502E+01  0.17471432446E+02  0.26401956896E+02  0.00000000000E+00 0.  1.
</event>
<event>
 7    1  0.1101380E-011  0.5930194E+02  0.7816164E-02  0.1266605E+00
        -11   -1    0    0    0    0  0.00000000000E+00  0.00000000000E+00  0.45593999997E+02  0.45594000000E+02  0.51100000000E-03 0.  1.
         11   -1    0    0    0    0 -0.00000000000E+00 -0.00000000000E+00 -0.45593999997E+02  0.45594000000E+02  0.51100000000E-03 0. -1.
    9900012    2    1    2    0    0 -0.29816207362E+02  0.10959994505E+02 -0.27555092186E+01  0.59301944551E+02  0.50000000955E+02 0.  0.
        -12    1    1    2    0    0  0.29816207362E+02 -0.10959994505E+02  0.27555092186E+01  0.31886055449E+02  0.00000000000E+00 0.  1.
         11    1    3    3    0    0  0.95442198223E+01 -0.82916704236E+01  0.15960590160E+01  0.12743285882E+02  0.51100000000E-03 0.  1.
        -11    1    3    3    0    0 -0.76300245013E+01 -0.15567988905E+01  0.21089876223E+01  0.80677584079E+01  0.51100000000E-03 0. -1.
        -12    1    3    3    0    0 -0.31730402683E+02  0.20808463819E+02 -0.64605558568E+01  0.38490900261E+02  0.00000000000E+00 0.  1.
</event>
<event>
 7    1  0.1101380E-011  0.5930189E+02  0.7816164E-02  0.1266605E+00
        -11   -1    0    0    0    0  0.00000000000E+00  0.00000000000E+00  0.45593999997E+02  0.45594000000E+02  0.51100000000E-03 0.  1.
         11   -1    0    0    0    0 -0.00000000000E+00 -0.00000000000E+00 -0.45593999997E+02  0.45594000000E+02  0.51100000000E-03 0. -1.
    9900012    2    1    2    0    0 -0.56257623989E+01  0.13405258471E+02 -0.28379110379E+02  0.59301889182E+02  0.49999899974E+02 0.  0.
        -12    1    1    2    0    0  0.56257623989E+01 -0.13405258471E+02  0.28379110379E+02  0.31886110818E+02  0.00000000000E+00 0.  1.
         11    1    3    3    0    0 -0.13208668607E+02 -0.28231335481E+01 -0.31228632199E+02  0.34024498213E+02  0.51100000000E-03 0. -1.
        -11    1    3    3    0    0  0.64465104663E+01  0.15758598376E+02 -0.46723691656E+01  0.17655649346E+02  0.51100000000E-03 0.  1.
        -12    1    3    3    0    0  0.11363957417E+01  0.46979364348E+00  0.75218909858E+01  0.76217416219E+01  0.00000000000E+00 0.  1.
</event>
<event>
 7    1  0.1101380E-011  0.5930181E+02  0.7816164E-02  0.1266605E+00
        -11   -1    0    0    0    0  0.00000000000E+00  0.00000000000E+00  0.45593999997E+02  0.45594000000E+02  0.51100000000E-03 0. -1.
         11   -1    0    0    0    0 -0.00000000000E+00 -0.00000000000E+00 -0.45593999997E+02  0.45594000000E+02  0.51100000000E-03 0.  1.
    9900012    2    1    2    0    0 -0.59101457597E+01  0.17525099930E+01  0.31284632707E+02  0.59301806157E+02  0.49999748557E+02 0.  0.
        -12    1    1    2    0    0  0.59101457597E+01 -0.17525099930E+01 -0.31284632707E+02  0.31886193843E+02  0.00000000000E+00 0.  1.
         11    1    3    3    0    0 -0.10909256370E+02 -0.13984473187E+02  0.23759978388E+02  0.29649855617E+02  0.51100000000E-03 0. -1.
        -11    1    3    3    0    0  0.18674324158E+01  0.36349750315E+01 -0.84389015940E+01  0.93763216499E+01  0.51100000000E-03 0.  1.
         12    1    3    3    0    0  0.31316781945E+01  0.12102008148E+02  0.15963555912E+02  0.20275628890E+02  0.00000000000E+00 0. -1.
</event>
<event>
 7    1  0.1101380E-011  0.5930195E+02  0.7816164E-02  0.1266605E+00
        -11   -1    0    0    0    0  0.00000000000E+00  0.00000000000E+00  0.45593999997E+02  0.45594000000E+02  0.51100000000E-03 0.  1.
         11   -1    0    0    0    0 -0.00000000000E+00 -0.00000000000E+00 -0.45593999997E+02  0.45594000000E+02  0.51100000000E-03 0. -1.
    9900012    2    1    2    0    0 -0.92369070474E+01 -0.14746198201E+02 -0.26719834134E+02  0.59301947417E+02  0.50000006182E+02 0.  0.
        -12    1    1    2    0    0  0.92369070474E+01  0.14746198201E+02  0.26719834134E+02  0.31886052583E+02  0.00000000000E+00 0.  1.
         11    1    3    3    0    0 -0.30632456024E+01  0.25466440746E+01  0.72075641251E+01  0.82351594120E+01  0.51100000000E-03 0. -1.
        -11    1    3    3    0    0  0.19009611637E+01  0.83537261570E+01 -0.11063739769E+01  0.86384291217E+01  0.51100000000E-03 0.  1.
         12    1    3    3    0    0 -0.80746226087E+01 -0.25646568432E+02 -0.32821024282E+02  0.42428358883E+02  0.00000000000E+00 0. -1.
</event>
<event>
 7    1  0.1101380E-011  0.5930194E+02  0.7816164E-02  0.1266605E+00
        -11   -1    0    0    0    0  0.00000000000E+00  0.00000000000E+00  0.45593999997E+02  0.45594000000E+02  0.51100000000E-03 0.  1.
         11   -1    0    0    0    0 -0.00000000000E+00 -0.00000000000E+00 -0.45593999997E+02  0.45594000000E+02  0.51100000000E-03 0. -1.
    9900012    2    1    2    0    0 -0.26498541659E+02 -0.13074231950E+02 -0.11983850497E+02  0.59301938408E+02  0.49999989751E+02 0.  0.
        -12    1    1    2    0    0  0.26498541659E+02  0.13074231950E+02  0.11983850497E+02  0.31886061592E+02  0.00000000000E+00 0.  1.
         11    1    3    3    0    0 -0.41507236550E+00  0.28101594509E+01 -0.14218712469E+01  0.31766333298E+01  0.51100000000E-03 0. -1.
        -11    1    3    3    0    0 -0.74909739967E+01  0.50237836988E+01  0.15470963192E+02  0.17908204724E+02  0.51100000000E-03 0.  1.
         12    1    3    3    0    0 -0.18592495297E+02 -0.20908175099E+02 -0.26032942442E+02  0.38217100355E+02  0.00000000000E+00 0. -1.
</event>
<event>
 7    1  0.1101380E-011  0.5930194E+02  0.7816164E-02  0.1266605E+00
        -11   -1    0    0    0    0  0.00000000000E+00  0.00000000000E+00  0.45593999997E+02  0.45594000000E+02  0.51100000000E-03 0.  1.
         11   -1    0    0    0    0 -0.00000000000E+00 -0.00000000000E+00 -0.45593999997E+02  0.45594000000E+02  0.51100000000E-03 0. -1.
    9900012    2    1    2    0    0  0.13644476946E+02  0.16086741768E+02 -0.23911619480E+02  0.59301944145E+02  0.50000000213E+02 0.  0.
        -12    1    1    2    0    0 -0.13644476946E+02 -0.16086741768E+02  0.23911619480E+02  0.31886055855E+02  0.00000000000E+00 0.  1.
         11    1    3    3    0    0  0.30902428357E+01 -0.79869216702E+01 -0.12132859292E+02  0.14850817937E+02  0.51100000000E-03 0. -1.
        -11    1    3    3    0    0 -0.28092481426E+01 -0.59420394497E+01  0.43176707030E+01  0.78639677332E+01  0.51100000000E-03 0.  1.
         12    1    3    3    0    0  0.13363482253E+02  0.30015702888E+02 -0.16096430891E+02  0.36587158474E+02  0.00000000000E+00 0. -1.
</event>
<event>
 7    1  0.1101380E-011  0.5930196E+02  0.7816164E-02  0.1266605E+00
        -11   -1    0    0    0    0  0.00000000000E+00  0.00000000000E+00  0.45593999997E+02  0.45594000000E+02  0.51100000000E-03 0.  1.
         11   -1    0    0    0    0 -0.00000000000E+00 -0.00000000000E+00 -0.45593999997E+02  0.45594000000E+02  0.51100000000E-03 0. -1.
    9900012    2    1    2    0    0 -0.75237050879E+01  0.28871344823E+02  0.11249835907E+02  0.59301960766E+02  0.50000030526E+02 0.  0.
        -12    1    1    2    0    0  0.75237050879E+01 -0.28871344823E+02 -0.11249835907E+02  0.31886039234E+02  0.00000000000E+00 0.  1.
         11    1    3    3    0    0  0.87108566896E+01 -0.15401766211E+01  0.66379640113E+01  0.11059554004E+02  0.51100000000E-03 0. -1.
        -11    1    3    3    0    0 -0.13227402752E+01  0.27488631843E+02  0.13484129146E+02  0.30646309101E+02  0.51100000000E-03 0.  1.
         12    1    3    3    0    0 -0.14911821502E+02  0.29228896010E+01 -0.88722572511E+01  0.17596097660E+02  0.00000000000E+00 0. -1.
</event>
<event>
 7    1  0.1101380E-011  0.5930192E+02  0.7816164E-02  0.1266605E+00
        -11   -1    0    0    0    0  0.00000000000E+00  0.00000000000E+00  0.45593999997E+02  0.45594000000E+02  0.51100000000E-03 0.  1.
         11   -1    0    0    0    0 -0.00000000000E+00 -0.00000000000E+00 -0.45593999997E+02  0.45594000000E+02  0.51100000000E-03 0. -1.
    9900012    2    1    2    0    0  0.25656891806E+02 -0.20613879495E+01 -0.18820107858E+02  0.59301923459E+02  0.49999962487E+02 0.  0.
        -12    1    1    2    0    0 -0.25656891806E+02  0.20613879495E+01  0.18820107858E+02  0.31886076541E+02  0.00000000000E+00 0.  1.
         11    1    3    3    0    0 -0.10141667658E+02  0.33450797891E+01 -0.92997265927E+01  0.14160787289E+02  0.51100000000E-03 0. -1.
        -11    1    3    3    0    0  0.12156438573E+02  0.99967159877E+01 -0.15223133240E+01  0.15812361223E+02  0.51100000000E-03 0.  1.
        -12    1    3    3    0    0  0.23642120890E+02 -0.15403183726E+02 -0.79980679410E+01  0.29328774947E+02  0.00000000000E+00 0.  1.
</event>
<event>
 7    1  0.1101380E-011  0.5930194E+02  0.7816164E-02  0.1266605E+00
        -11   -1    0    0    0    0  0.00000000000E+00  0.00000000000E+00  0.45593999997E+02  0.45594000000E+02  0.51100000000E-03 0.  1.
         11   -1    0    0    0    0 -0.00000000000E+00 -0.00000000000E+00 -0.45593999997E+02  0.45594000000E+02  0.51100000000E-03 0. -1.
    9900012    2    1    2    0    0 -0.19790713649E+01  0.53270809176E+01 -0.31375566030E+02  0.59301942572E+02  0.49999997346E+02 0.  0.
        -12    1    1    2    0    0  0.19790713649E+01 -0.53270809176E+01  0.31375566030E+02  0.31886057428E+02  0.00000000000E+00 0.  1.
         11    1    3    3    0    0 -0.73325578811E+01  0.47661982828E+01 -0.12261430961E+02  0.15060735063E+02  0.51100000000E-03 0. -1.
        -11    1    3    3    0    0  0.15774847131E+02  0.13957506702E+02 -0.17136576768E+02  0.27153638043E+02  0.51100000000E-03 0.  1.
         12    1    3    3    0    0 -0.10421360615E+02 -0.13396624067E+02 -0.19775583007E+01  0.17087569467E+02  0.00000000000E+00 0. -1.
</event>
<event>
 7    1  0.1101380E-011  0.5930213E+02  0.7816164E-02  0.1266604E+00
        -11   -1    0    0    0    0  0.00000000000E+00  0.00000000000E+00  0.45593999997E+02  0.45594000000E+02  0.51100000000E-03 0. -1.
         11   -1    0    0    0    0 -0.00000000000E+00 -0.00000000000E+00 -0.45593999997E+02  0.45594000000E+02  0.51100000000E-03 0.  1.
    9900012    2    1    2    0    0 -0.26683100474E+02  0.17418858592E+02  0.11419974897E+01  0.59302130969E+02  0.50000340935E+02 0.  0.
        -12    1    1    2    0    0  0.26683100474E+02 -0.17418858592E+02 -0.11419974897E+01  0.31885869031E+02  0.00000000000E+00 0.  1.
         11    1    3    3    0    0  0.18329168494E+01  0.40569892056E+01 -0.65747231471E+00  0.45001128538E+01  0.51100000000E-03 0. -1.
        -11    1    3    3    0    0 -0.20876948821E+02  0.90885507120E+01 -0.20629862372E+02  0.30725233406E+02  0.51100000000E-03 0.  1.
         12    1    3    3    0    0 -0.76390685025E+01  0.42733186747E+01  0.22429332176E+02  0.24076784709E+02  0.00000000000E+00 0. -1.
</event>
<event>
 7    1  0.1101380E-011  0.5930197E+02  0.7816164E-02  0.1266605E+00
        -11   -1    0    0    0    0  0.00000000000E+00  0.00000000000E+00  0.45593999997E+02  0.45594000000E+02  0.51100000000E-03 0.  1.
         11   -1    0    0    0    0 -0.00000000000E+00 -0.00000000000E+00 -0.45593999997E+02  0.45594000000E+02  0.51100000000E-03 0. -1.
    9900012    2    1    2    0    0 -0.16459651733E+02  0.27251496253E+02 -0.17762163096E+01  0.59301966575E+02  0.50000041121E+02 0.  0.
        -12    1    1    2    0    0  0.16459651733E+02 -0.27251496253E+02  0.17762163096E+01  0.31886033425E+02  0.00000000000E+00 0.  1.
         11    1    3    3    0    0  0.81955843448E+01  0.20965641231E+01 -0.11348879103E+02  0.14154866338E+02  0.51100000000E-03 0. -1.
        -11    1    3    3    0    0 -0.10278821978E+02 -0.44347142791E+01  0.31416590512E+01  0.11627161900E+02  0.51100000000E-03 0.  1.
        -12    1    3    3    0    0 -0.14376414100E+02  0.29589646409E+02  0.64310037425E+01  0.33519938337E+02  0.00000000000E+00 0.  1.
</event>
<event>
 7    1  0.1101380E-011  0.5930193E+02  0.7816164E-02  0.1266605E+00
        -11   -1    0    0    0    0  0.00000000000E+00  0.00000000000E+00  0.45593999997E+02  0.45594000000E+02  0.51100000000E-03 0.  1.
         11   -1    0    0    0    0 -0.00000000000E+00 -0.00000000000E+00 -0.45593999997E+02  0.45594000000E+02  0.51100000000E-03 0. -1.
    9900012    2    1    2    0    0  0.41773396743E+01 -0.30861493955E+02 -0.68439257013E+01  0.59301932590E+02  0.49999979140E+02 0.  0.
        -12    1    1    2    0    0 -0.41773396743E+01  0.30861493955E+02  0.68439257013E+01  0.31886067410E+02  0.00000000000E+00 0.  1.
         11    1    3    3    0    0  0.11808965616E+02 -0.44016403709E+01 -0.11675713849E+02  0.17179883615E+02  0.51100000000E-03 0. -1.
        -11    1    3    3    0    0 -0.24286193417E+01 -0.22094515681E+02 -0.11069230511E+02  0.24831304425E+02  0.51100000000E-03 0.  1.
        -12    1    3    3    0    0 -0.52030065998E+01 -0.43653379025E+01  0.15901018659E+02  0.17290744550E+02  0.00000000000E+00 0.  1.
</event>
<event>
 7    1  0.1101380E-011  0.5930194E+02  0.7816164E-02  0.1266605E+00
        -11   -1    0    0    0    0  0.00000000000E+00  0.00000000000E+00  0.45593999997E+02  0.45594000000E+02  0.51100000000E-03 0. -1.
         11   -1    0    0    0    0 -0.00000000000E+00 -0.00000000000E+00 -0.45593999997E+02  0.45594000000E+02  0.51100000000E-03 0.  1.
    9900012    2    1    2    0    0  0.14479467909E+02  0.25003476461E+02  0.13486725508E+02  0.59301943628E+02  0.49999999270E+02 0.  0.
        -12    1    1    2    0    0 -0.14479467909E+02 -0.25003476461E+02 -0.13486725508E+02  0.31886056372E+02  0.00000000000E+00 0.  1.
         11    1    3    3    0    0  0.10680057027E+02  0.18339604555E+02  0.27960339843E+02  0.35102497315E+02  0.51100000000E-03 0. -1.
        -11    1    3    3    0    0  0.43483440324E+01  0.88285936255E+01 -0.29472462889E+00  0.98457617327E+01  0.51100000000E-03 0.  1.
         12    1    3    3    0    0 -0.54893315023E+00 -0.21647217197E+01 -0.14178889706E+02  0.14353684580E+02  0.00000000000E+00 0. -1.
</event>
<event>
 7    1  0.1101380E-011  0.5930193E+02  0.7816164E-02  0.1266605E+00
        -11   -1    0    0    0    0  0.00000000000E+00  0.00000000000E+00  0.45593999997E+02  0.45594000000E+02  0.51100000000E-03 0.  1.
         11   -1    0    0    0    0 -0.00000000000E+00 -0.00000000000E+00 -0.45593999997E+02  0.45594000000E+02  0.51100000000E-03 0. -1.
    9900012    2    1    2    0    0  0.36692036451E+01 -0.44897826411E+01 -0.31354427898E+02  0.59301931688E+02  0.49999977495E+02 0.  0.
        -12    1    1    2    0    0 -0.36692036451E+01  0.44897826411E+01  0.31354427898E+02  0.31886068312E+02  0.00000000000E+00 0.  1.
         11    1    3    3    0    0  0.12304451716E+02  0.29938635290E+01 -0.81088191420E+01  0.15037143977E+02  0.51100000000E-03 0.  1.
        -11    1    3    3    0    0  0.43360249716E+01 -0.11243421622E+02  0.49297706893E+01  0.13019918649E+02  0.51100000000E-03 0. -1.
         12    1    3    3    0    0 -0.12971273042E+02  0.37597754516E+01 -0.28175379446E+02  0.31244869062E+02  0.00000000000E+00 0. -1.
</event>
<event>
 7    1  0.1101380E-011  0.5930194E+02  0.7816164E-02  0.1266605E+00
        -11   -1    0    0    0    0  0.00000000000E+00  0.00000000000E+00  0.45593999997E+02  0.45594000000E+02  0.51100000000E-03 0.  1.
         11   -1    0    0    0    0 -0.00000000000E+00 -0.00000000000E+00 -0.45593999997E+02  0.45594000000E+02  0.51100000000E-03 0. -1.
    9900012    2    1    2    0    0  0.16454575786E+02  0.12080715806E+01 -0.27285685372E+02  0.59301935215E+02  0.49999983927E+02 0.  0.
        -12    1    1    2    0    0 -0.16454575786E+02 -0.12080715806E+01  0.27285685372E+02  0.31886064785E+02  0.00000000000E+00 0.  1.
         11    1    3    3    0    0  0.43607147452E+00 -0.53463620951E+01  0.66499339317E+01  0.85437326468E+01  0.51100000000E-03 0. -1.
        -11    1    3    3    0    0  0.15471769348E+02  0.77100992178E+01 -0.49539140871E+00  0.17293544738E+02  0.51100000000E-03 0.  1.
         12    1    3    3    0    0  0.54673496359E+00 -0.11556655421E+01 -0.33440227895E+02  0.33464657830E+02  0.00000000000E+00 0. -1.
</event>
<event>
 7    1  0.1101380E-011  0.5930198E+02  0.7816164E-02  0.1266605E+00
        -11   -1    0    0    0    0  0.00000000000E+00  0.00000000000E+00  0.45593999997E+02  0.45594000000E+02  0.51100000000E-03 0. -1.
         11   -1    0    0    0    0 -0.00000000000E+00 -0.00000000000E+00 -0.45593999997E+02  0.45594000000E+02  0.51100000000E-03 0.  1.
    9900012    2    1    2    0    0 -0.90912035018E+01 -0.23017706009E+02  0.20106057360E+02  0.59301979339E+02  0.50000064398E+02 0.  0.
        -12    1    1    2    0    0  0.90912035018E+01  0.23017706009E+02 -0.20106057360E+02  0.31886020661E+02  0.00000000000E+00 0.  1.
         11    1    3    3    0    0 -0.83073769795E+01 -0.30669430494E+00 -0.66518138278E+01  0.10646746035E+02  0.51100000000E-03 0. -1.
        -11    1    3    3    0    0  0.11102330831E+02 -0.30886799380E+01  0.22559787413E+02  0.25332700251E+02  0.51100000000E-03 0.  1.
         12    1    3    3    0    0 -0.11886157354E+02 -0.19622331766E+02  0.41980837755E+01  0.23322533052E+02  0.00000000000E+00 0. -1.
</event>
<event>
 7    1  0.1101380E-011  0.5930194E+02  0.7816164E-02  0.1266605E+00
        -11   -1    0    0    0    0  0.00000000000E+00  0.00000000000E+00  0.45593999997E+02  0.45594000000E+02  0.51100000000E-03 0. -1.
         11   -1    0    0    0    0 -0.00000000000E+00 -0.00000000000E+00 -0.45593999997E+02  0.45594000000E+02  0.51100000000E-03 0.  1.
    9900012    2    1    2    0    0 -0.24551036365E+02 -0.17531476552E+02  0.10325427756E+02  0.59301944819E+02  0.50000001443E+02 0.  0.
        -12    1    1    2    0    0  0.24551036365E+02  0.17531476552E+02 -0.10325427756E+02  0.31886055181E+02  0.00000000000E+00 0.  1.
         11    1    3    3    0    0  0.19854973515E+01 -0.15447236163E+01  0.47294101403E+01  0.53568359430E+01  0.51100000000E-03 0. -1.
        -11    1    3    3    0    0 -0.16132424995E+02 -0.30256780952E+02 -0.27759658747E+01  0.34401074352E+02  0.51100000000E-03 0.  1.
         12    1    3    3    0    0 -0.10404108722E+02  0.14270028017E+02  0.83719834899E+01  0.19544034523E+02  0.00000000000E+00 0. -1.
</event>
<event>
 7    1  0.1101380E-011  0.5930197E+02  0.7816164E-02  0.1266605E+00
        -11   -1    0    0    0    0  0.00000000000E+00  0.00000000000E+00  0.45593999997E+02  0.45594000000E+02  0.51100000000E-03 0. -1.
         11   -1    0    0    0    0 -0.00000000000E+00 -0.00000000000E+00 -0.45593999997E+02  0.45594000000E+02  0.51100000000E-03 0.  1.
    9900012    2    1    2    0    0 -0.50207334408E+01 -0.22756066910E+02  0.21764017292E+02  0.59301971803E+02  0.50000050656E+02 0.  0.
        -12    1    1    2    0    0  0.50207334408E+01  0.22756066910E+02 -0.21764017292E+02  0.31886028197E+02  0.00000000000E+00 0.  1.
         11    1    3    3    0    0  0.19657335304E+01 -0.55142538299E+01  0.21913422800E+02  0.22681913559E+02  0.51100000000E-03 0. -1.
        -11    1    3    3    0    0 -0.82192452963E+01  0.41709631046E+01  0.93796360131E+01  0.13150304120E+02  0.51100000000E-03 0.  1.
        -12    1    3    3    0    0  0.12327783251E+01 -0.21412776184E+02 -0.95290415216E+01  0.23469754124E+02  0.00000000000E+00 0.  1.
</event>
<event>
 7    1  0.1241120E-011  0.5930193E+02  0.7816164E-02  0.1266605E+00
        -11   -1    0    0    0    0  0.00000000000E+00  0.00000000000E+00  0.45593999997E+02  0.45594000000E+02  0.51100000000E-03 0. -1.
         11   -1    0    0    0    0 -0.00000000000E+00 -0.00000000000E+00 -0.45593999997E+02  0.45594000000E+02  0.51100000000E-03 0.  1.
    9900012    2    1    2    0    0 -0.53899525812E+01 -0.10174061256E+02  0.29734799390E+02  0.59301930847E+02  0.49999975961E+02 0.  0.
        -12    1    1    2    0    0  0.53899525812E+01  0.10174061256E+02 -0.29734799390E+02  0.31886069153E+02  0.00000000000E+00 0.  1.
         11    1    3    3    0    0  0.67424499768E+00 -0.12349362746E+02  0.21557400328E+02  0.24853226666E+02  0.51100000000E-03 0. -1.
        -11    1    3    3    0    0  0.13134643279E+02 -0.21242490396E+01  0.61883544891E+01  0.14674025337E+02  0.51100000000E-03 0.  1.
        -12    1    3    3    0    0 -0.19198840858E+02  0.42995505299E+01  0.19890445733E+01  0.19774678844E+02  0.00000000000E+00 0.  1.
</event>
<event>
 7    1  0.1101380E-011  0.5930197E+02  0.7816164E-02  0.1266605E+00
        -11   -1    0    0    0    0  0.00000000000E+00  0.00000000000E+00  0.45593999997E+02  0.45594000000E+02  0.51100000000E-03 0.  1.
         11   -1    0    0    0    0 -0.00000000000E+00 -0.00000000000E+00 -0.45593999997E+02  0.45594000000E+02  0.51100000000E-03 0. -1.
    9900012    2    1    2    0    0  0.14181315713E+00 -0.27604009571E+02 -0.15959866770E+02  0.59301971670E+02  0.50000050412E+02 0.  0.
        -12    1    1    2    0    0 -0.14181315713E+00  0.27604009571E+02  0.15959866770E+02  0.31886028330E+02  0.00000000000E+00 0.  1.
         11    1    3    3    0    0  0.37584719181E+01  0.64315871036E+01  0.33262187864E+01  0.81581343153E+01  0.51100000000E-03 0. -1.
        -11    1    3    3    0    0  0.91797662882E+01 -0.42261422331E+01  0.43541172093E+01  0.11003941304E+02  0.51100000000E-03 0.  1.
         12    1    3    3    0    0 -0.12796425049E+02 -0.29809454442E+02 -0.23640202766E+02  0.40139896051E+02  0.00000000000E+00 0. -1.
</event>
<event>
 7    1  0.1101380E-011  0.5930194E+02  0.7816164E-02  0.1266605E+00
        -11   -1    0    0    0    0  0.00000000000E+00  0.00000000000E+00  0.45593999997E+02  0.45594000000E+02  0.51100000000E-03 0. -1.
         11   -1    0    0    0    0 -0.00000000000E+00 -0.00000000000E+00 -0.45593999997E+02  0.45594000000E+02  0.51100000000E-03 0.  1.
    9900012    2    1    2    0    0 -0.30027240972E+02 -0.28712721227E+01  0.10336424809E+02  0.59301935931E+02  0.49999985233E+02 0.  0.
        -12    1    1    2    0    0  0.30027240972E+02  0.28712721227E+01 -0.10336424809E+02  0.31886064069E+02  0.00000000000E+00 0.  1.
         11    1    3    3    0    0 -0.27500513585E+02  0.50028024273E+01 -0.22220384707E+01  0.28040038067E+02  0.51100000000E-03 0. -1.
        -11    1    3    3    0    0 -0.30932966413E+01 -0.15922059868E+02 -0.13632845426E+00  0.16220328611E+02  0.51100000000E-03 0.  1.
         12    1    3    3    0    0  0.56656925435E+00  0.80479853179E+01  0.12694791734E+02  0.15041569252E+02  0.00000000000E+00 0. -1.
</event>
<event>
 7    1  0.1101380E-011  0.5930192E+02  0.7816164E-02  0.1266605E+00
        -11   -1    0    0    0    0  0.00000000000E+00  0.00000000000E+00  0.45593999997E+02  0.45594000000E+02  0.51100000000E-03 0. -1.
         11   -1    0    0    0    0 -0.00000000000E+00 -0.00000000000E+00 -0.45593999997E+02  0.45594000000E+02  0.51100000000E-03 0.  1.
    9900012    2    1    2    0    0 -0.21177177310E+02  0.12363866579E+02 -0.20380971716E+02  0.59301920848E+02  0.49999957726E+02 0.  0.
        -12    1    1    2    0    0  0.21177177310E+02 -0.12363866579E+02  0.20380971716E+02  0.31886079152E+02  0.00000000000E+00 0.  1.
         11    1    3    3    0    0 -0.50317753797E+01  0.19252574840E+02  0.46980195815E+01  0.20446314819E+02  0.51100000000E-03 0. -1.
        -11    1    3    3    0    0 -0.10666294840E+01 -0.10949665530E+02 -0.23024912703E+01  0.11239854981E+02  0.51100000000E-03 0.  1.
         12    1    3    3    0    0 -0.15078772446E+02  0.40609572692E+01 -0.22776500027E+02  0.27615751047E+02  0.00000000000E+00 0. -1.
</event>
<event>
 7    1  0.1101380E-011  0.5930197E+02  0.7816164E-02  0.1266605E+00
        -11   -1    0    0    0    0  0.00000000000E+00  0.00000000000E+00  0.45593999997E+02  0.45594000000E+02  0.51100000000E-03 0.  1.
         11   -1    0    0    0    0 -0.00000000000E+00 -0.00000000000E+00 -0.45593999997E+02  0.45594000000E+02  0.51100000000E-03 0. -1.
    9900012    2    1    2    0    0  0.17713011248E+02 -0.93962932903E+01 -0.24792696288E+02  0.59301970390E+02  0.50000048079E+02 0.  0.
        -12    1    1    2    0    0 -0.17713011248E+02  0.93962932903E+01  0.24792696288E+02  0.31886029610E+02  0.00000000000E+00 0.  1.
         11    1    3    3    0    0  0.17803725783E+02  0.11496650837E+02 -0.59833368497E+01  0.22021488422E+02  0.51100000000E-03 0. -1.
        -11    1    3    3    0    0  0.35171336684E+01 -0.81653038440E+01  0.48842310606E+01  0.10143871520E+02  0.51100000000E-03 0.  1.
        -12    1    3    3    0    0 -0.36078482032E+01 -0.12727640284E+02 -0.23693590499E+02  0.27136610447E+02  0.00000000000E+00 0.  1.
</event>
<event>
 7    1  0.1101380E-011  0.5930192E+02  0.7816164E-02  0.1266605E+00
        -11   -1    0    0    0    0  0.00000000000E+00  0.00000000000E+00  0.45593999997E+02  0.45594000000E+02  0.51100000000E-03 0.  1.
         11   -1    0    0    0    0 -0.00000000000E+00 -0.00000000000E+00 -0.45593999997E+02  0.45594000000E+02  0.51100000000E-03 0. -1.
    9900012    2    1    2    0    0 -0.17363451311E+02 -0.14213409638E+02 -0.22654171479E+02  0.59301922468E+02  0.49999960681E+02 0.  0.
        -12    1    1    2    0    0  0.17363451311E+02  0.14213409638E+02  0.22654171479E+02  0.31886077532E+02  0.00000000000E+00 0.  1.
         11    1    3    3    0    0 -0.30054056835E+01  0.12170986198E+02  0.21714164774E+00  0.12538441654E+02  0.51100000000E-03 0. -1.
        -11    1    3    3    0    0 -0.21036799968E+01  0.17697677633E+01 -0.14747455077E+02  0.15001499224E+02  0.51100000000E-03 0.  1.
         12    1    3    3    0    0 -0.12254365630E+02 -0.28154163599E+02 -0.81238580501E+01  0.31761981591E+02  0.00000000000E+00 0. -1.
</event>
<event>
 7    1  0.1101380E-011  0.5930194E+02  0.7816164E-02  0.1266605E+00
        -11   -1    0    0    0    0  0.00000000000E+00  0.00000000000E+00  0.45593999997E+02  0.45594000000E+02  0.51100000000E-03 0. -1.
         11   -1    0    0    0    0 -0.00000000000E+00 -0.00000000000E+00 -0.45593999997E+02  0.45594000000E+02  0.51100000000E-03 0.  1.
    9900012    2    1    2    0    0  0.22711108272E+02 -0.13488398787E+02 -0.17860277043E+02  0.59301939772E+02  0.49999992239E+02 0.  0.
        -12    1    1    2    0    0 -0.22711108272E+02  0.13488398787E+02  0.17860277043E+02  0.31886060228E+02  0.00000000000E+00 0.  1.
         11    1    3    3    0    0 -0.22161685296E+01  0.23061728749E+01  0.11992419106E+02  0.12411605559E+02  0.51100000000E-03 0. -1.
        -11    1    3    3    0    0  0.63717926830E+01 -0.18634392876E+01  0.24857985714E+01  0.70888181506E+01  0.51100000000E-03 0.  1.
        -12    1    3    3    0    0  0.18555484119E+02 -0.13931132375E+02 -0.32338494720E+02  0.39801516063E+02  0.00000000000E+00 0.  1.
</event>
<event>
 7    1  0.1101380E-011  0.5930188E+02  0.7816164E-02  0.1266605E+00
        -11   -1    0    0    0    0  0.00000000000E+00  0.00000000000E+00  0.45593999997E+02  0.45594000000E+02  0.51100000000E-03 0.  1.
         11   -1    0    0    0    0 -0.00000000000E+00 -0.00000000000E+00 -0.45593999997E+02  0.45594000000E+02  0.51100000000E-03 0. -1.
    9900012    2    1    2    0    0  0.81427008345E+01 -0.30557403295E+02  0.40824012162E+01  0.59301882759E+02  0.49999888261E+02 0.  0.
        -12    1    1    2    0    0 -0.81427008345E+01  0.30557403295E+02 -0.40824012162E+01  0.31886117241E+02  0.00000000000E+00 0.  1.
         11    1    3    3    0    0 -0.26585196435E+01 -0.10302354603E+02  0.18083367769E+02  0.20981287548E+02  0.51100000000E-03 0. -1.
        -11    1    3    3    0    0  0.71292832417E+01 -0.12579649940E+02  0.67022204320E+01  0.15937190189E+02  0.51100000000E-03 0.  1.
        -12    1    3    3    0    0  0.36719372363E+01 -0.76753987520E+01 -0.20703186984E+02  0.22383405022E+02  0.00000000000E+00 0.  1.
</event>
<event>
 7    1  0.1101380E-011  0.5930195E+02  0.7816164E-02  0.1266605E+00
        -11   -1    0    0    0    0  0.00000000000E+00  0.00000000000E+00  0.45593999997E+02  0.45594000000E+02  0.51100000000E-03 0. -1.
         11   -1    0    0    0    0 -0.00000000000E+00 -0.00000000000E+00 -0.45593999997E+02  0.45594000000E+02  0.51100000000E-03 0.  1.
    9900012    2    1    2    0    0  0.15431452833E+02 -0.23554997453E+02  0.14958349667E+02  0.59301954991E+02  0.50000019994E+02 0.  0.
        -12    1    1    2    0    0 -0.15431452833E+02  0.23554997453E+02 -0.14958349667E+02  0.31886045009E+02  0.00000000000E+00 0.  1.
         11    1    3    3    0    0 -0.71564065842E+01 -0.23678651488E+01  0.84272173746E+01  0.11306588057E+02  0.51100000000E-03 0. -1.
        -11    1    3    3    0    0  0.15553524668E+01 -0.21081048439E+02 -0.78139937153E+01  0.22536375543E+02  0.51100000000E-03 0.  1.
         12    1    3    3    0    0  0.21032506951E+02 -0.10608386580E+00  0.14345126008E+02  0.25458991390E+02  0.00000000000E+00 0. -1.
</event>
<event>
 7    1  0.1101380E-011  0.5930192E+02  0.7816164E-02  0.1266605E+00
        -11   -1    0    0    0    0  0.00000000000E+00  0.00000000000E+00  0.45593999997E+02  0.45594000000E+02  0.51100000000E-03 0.  1.
         11   -1    0    0    0    0 -0.00000000000E+00 -0.00000000000E+00 -0.45593999997E+02  0.45594000000E+02  0.51100000000E-03 0. -1.
    9900012    2    1    2    0    0 -0.20296264560E+02  0.88554688327E+01 -0.22942630426E+02  0.59301921937E+02  0.49999959712E+02 0.  0.
        -12    1    1    2    0    0  0.20296264560E+02 -0.88554688327E+01  0.22942630426E+02  0.31886078063E+02  0.00000000000E+00 0.  1.
         11    1    3    3    0    0 -0.14336299697E+02  0.23009233654E+02 -0.11767532167E+02  0.29553834538E+02  0.51100000000E-03 0. -1.
        -11    1    3    3    0    0  0.51030550421E+01  0.29101471503E+01 -0.67269239725E+01  0.89309368821E+01  0.51100000000E-03 0.  1.
        -12    1    3    3    0    0 -0.11063019905E+02 -0.17063911971E+02 -0.44481742869E+01  0.20817150517E+02  0.00000000000E+00 0.  1.
</event>
<event>
 7    1  0.1101380E-011  0.5930190E+02  0.7816164E-02  0.1266605E+00
        -11   -1    0    0    0    0  0.00000000000E+00  0.00000000000E+00  0.45593999997E+02  0.45594000000E+02  0.51100000000E-03 0. -1.
         11   -1    0    0    0    0 -0.00000000000E+00 -0.00000000000E+00 -0.45593999997E+02  0.45594000000E+02  0.51100000000E-03 0.  1.
    9900012    2    1    2    0    0 -0.24775533985E+01 -0.31761977459E+02  0.13272895202E+01  0.59301903023E+02  0.49999925217E+02 0.  0.
        -12    1    1    2    0    0  0.24775533985E+01  0.31761977459E+02 -0.13272895202E+01  0.31886096977E+02  0.00000000000E+00 0.  1.
         11    1    3    3    0    0  0.83027372115E+01 -0.18164846014E+02  0.18105661552E+00  0.19973228524E+02  0.51100000000E-03 0. -1.
        -11    1    3    3    0    0 -0.15555107123E+01 -0.16428330779E+02 -0.13817915084E+02  0.21523114164E+02  0.51100000000E-03 0.  1.
        -12    1    3    3    0    0 -0.92247798978E+01  0.28311993337E+01  0.14964147989E+02  0.17805560335E+02  0.00000000000E+00 0.  1.
</event>
<event>
 7    1  0.1101380E-011  0.5930199E+02  0.7816164E-02  0.1266605E+00
        -11   -1    0    0    0    0  0.00000000000E+00  0.00000000000E+00  0.45593999997E+02  0.45594000000E+02  0.51100000000E-03 0.  1.
         11   -1    0    0    0    0 -0.00000000000E+00 -0.00000000000E+00 -0.45593999997E+02  0.45594000000E+02  0.51100000000E-03 0. -1.
    9900012    2    1    2    0    0  0.12457702532E+02  0.27264181515E+02  0.10871404528E+02  0.59301993940E+02  0.50000091028E+02 0.  0.
        -12    1    1    2    0    0 -0.12457702532E+02 -0.27264181515E+02 -0.10871404528E+02  0.31886006060E+02  0.00000000000E+00 0.  1.
         11    1    3    3    0    0  0.69121362885E+01  0.59824286832E+01 -0.61499141691E+01  0.11017646099E+02  0.51100000000E-03 0. -1.
        -11    1    3    3    0    0 -0.37894023399E+01  0.19590678581E+02 -0.80207488551E+01  0.21505503245E+02  0.51100000000E-03 0.  1.
        -12    1    3    3    0    0  0.93349685830E+01  0.16910742500E+01  0.25042067553E+02  0.26778844596E+02  0.00000000000E+00 0.  1.
</event>
<event>
 7    1  0.1101380E-011  0.5930195E+02  0.7816164E-02  0.1266605E+00
        -11   -1    0    0    0    0  0.00000000000E+00  0.00000000000E+00  0.45593999997E+02  0.45594000000E+02  0.51100000000E-03 0.  1.
         11   -1    0    0    0    0 -0.00000000000E+00 -0.00000000000E+00 -0.45593999997E+02  0.45594000000E+02  0.51100000000E-03 0. -1.
    9900012    2    1    2    0    0  0.19442691277E+02 -0.57452394056E+01 -0.24610850591E+02  0.59301953103E+02  0.50000016551E+02 0.  0.
        -12    1    1    2    0    0 -0.19442691277E+02  0.57452394056E+01  0.24610850591E+02  0.31886046897E+02  0.00000000000E+00 0.  1.
         11    1    3    3    0    0  0.10594589712E+01 -0.88284450310E+01  0.23732812821E+00  0.88949547430E+01  0.51100000000E-03 0. -1.
        -11    1    3    3    0    0  0.24858147323E+02 -0.41294461615E+01 -0.16353282353E+01  0.25251814046E+02  0.51100000000E-03 0.  1.
         12    1    3    3    0    0 -0.64749150169E+01  0.72126517869E+01 -0.23212850484E+02  0.25155184314E+02  0.00000000000E+00 0. -1.
</event>
<event>
 7    1  0.1101380E-011  0.5930197E+02  0.7816164E-02  0.1266605E+00
        -11   -1    0    0    0    0  0.00000000000E+00  0.00000000000E+00  0.45593999997E+02  0.45594000000E+02  0.51100000000E-03 0. -1.
         11   -1    0    0    0    0 -0.00000000000E+00 -0.00000000000E+00 -0.45593999997E+02  0.45594000000E+02  0.51100000000E-03 0.  1.
    9900012    2    1    2    0    0  0.91211226380E+01  0.86259136735E+01  0.29310708380E+02  0.59301970291E+02  0.50000047897E+02 0.  0.
        -12    1    1    2    0    0 -0.91211226380E+01 -0.86259136735E+01 -0.29310708380E+02  0.31886029709E+02  0.00000000000E+00 0.  1.
         11    1    3    3    0    0  0.98013665254E+01  0.19967303569E+02  0.10272695161E+02  0.24500780879E+02  0.51100000000E-03 0. -1.
        -11    1    3    3    0    0  0.88702627063E+01  0.41363316343E+01  0.11533619898E+02  0.15126638360E+02  0.51100000000E-03 0.  1.
         12    1    3    3    0    0 -0.95505065936E+01 -0.15477721530E+02  0.75043933217E+01  0.19674551051E+02  0.00000000000E+00 0. -1.
</event>
<event>
 7    1  0.1101380E-011  0.5930199E+02  0.7816164E-02  0.1266605E+00
        -11   -1    0    0    0    0  0.00000000000E+00  0.00000000000E+00  0.45593999997E+02  0.45594000000E+02  0.51100000000E-03 0. -1.
         11   -1    0    0    0    0 -0.00000000000E+00 -0.00000000000E+00 -0.45593999997E+02  0.45594000000E+02  0.51100000000E-03 0.  1.
    9900012    2    1    2    0    0 -0.35596013884E+01 -0.16307027085E+02  0.27168505349E+02  0.59301990885E+02  0.50000085456E+02 0.  0.
        -12    1    1    2    0    0  0.35596013884E+01  0.16307027085E+02 -0.27168505349E+02  0.31886009115E+02  0.00000000000E+00 0.  1.
         11    1    3    3    0    0 -0.46295277018E+01 -0.12262101840E+02  0.69916245804E+01  0.14855116385E+02  0.51100000000E-03 0. -1.
        -11    1    3    3    0    0  0.34784971656E+00 -0.10227104793E+02 -0.95971302938E+01  0.14029240251E+02  0.51100000000E-03 0.  1.
         12    1    3    3    0    0  0.72207659685E+00  0.61821795480E+01  0.29774011062E+02  0.30417634249E+02  0.00000000000E+00 0. -1.
</event>
<event>
 7    1  0.1101380E-011  0.5930193E+02  0.7816164E-02  0.1266605E+00
        -11   -1    0    0    0    0  0.00000000000E+00  0.00000000000E+00  0.45593999997E+02  0.45594000000E+02  0.51100000000E-03 0.  1.
         11   -1    0    0    0    0 -0.00000000000E+00 -0.00000000000E+00 -0.45593999997E+02  0.45594000000E+02  0.51100000000E-03 0. -1.
    9900012    2    1    2    0    0  0.16087463319E+02 -0.46802687911E+00 -0.27526275219E+02  0.59301931684E+02  0.49999977488E+02 0.  0.
        -12    1    1    2    0    0 -0.16087463319E+02  0.46802687911E+00  0.27526275219E+02  0.31886068316E+02  0.00000000000E+00 0.  1.
         11    1    3    3    0    0 -0.71289837139E+01  0.76123265247E+01 -0.22174114044E+01  0.10662402989E+02  0.51100000000E-03 0.  1.
        -11    1    3    3    0    0 -0.55683766480E-01 -0.11231994648E+02 -0.22292164911E+02  0.24961999542E+02  0.51100000000E-03 0. -1.
         12    1    3    3    0    0  0.23272130800E+02  0.31516412442E+01 -0.30166989034E+01  0.23677529152E+02  0.00000000000E+00 0. -1.
</event>
<event>
 7    1  0.1101380E-011  0.5930196E+02  0.7816164E-02  0.1266605E+00
        -11   -1    0    0    0    0  0.00000000000E+00  0.00000000000E+00  0.45593999997E+02  0.45594000000E+02  0.51100000000E-03 0.  1.
         11   -1    0    0    0    0 -0.00000000000E+00 -0.00000000000E+00 -0.45593999997E+02  0.45594000000E+02  0.51100000000E-03 0. -1.
    9900012    2    1    2    0    0 -0.12672500331E+02  0.25052938361E+02 -0.15115478827E+02  0.59301957829E+02  0.50000025170E+02 0.  0.
        -12    1    1    2    0    0  0.12672500331E+02 -0.25052938361E+02  0.15115478827E+02  0.31886042171E+02  0.00000000000E+00 0.  1.
         11    1    3    3    0    0 -0.18823760891E+02  0.26943268804E+02 -0.12779925695E+01  0.32892354327E+02  0.51100000000E-03 0. -1.
        -11    1    3    3    0    0  0.37872365364E+01  0.36671229630E+01  0.46072729089E+01  0.70012795493E+01  0.51100000000E-03 0.  1.
         12    1    3    3    0    0  0.23640240236E+01 -0.55574534059E+01 -0.18444759166E+02  0.19408323953E+02  0.00000000000E+00 0. -1.
</event>
<event>
 7    1  0.1101380E-011  0.5930194E+02  0.7816164E-02  0.1266605E+00
        -11   -1    0    0    0    0  0.00000000000E+00  0.00000000000E+00  0.45593999997E+02  0.45594000000E+02  0.51100000000E-03 0.  1.
         11   -1    0    0    0    0 -0.00000000000E+00 -0.00000000000E+00 -0.45593999997E+02  0.45594000000E+02  0.51100000000E-03 0. -1.
    9900012    2    1    2    0    0 -0.29100378984E+02 -0.12660897262E+02 -0.30968030050E+01  0.59301944030E+02  0.50000000004E+02 0.  0.
        -12    1    1    2    0    0  0.29100378984E+02  0.12660897262E+02  0.30968030050E+01  0.31886055970E+02  0.00000000000E+00 0.  1.
         11    1    3    3    0    0 -0.18794027979E+02  0.11066269772E+02  0.81615189922E+01  0.23287082403E+02  0.51100000000E-03 0. -1.
        -11    1    3    3    0    0  0.11363716553E+01  0.30970634352E+01  0.21286840593E+01  0.39261225842E+01  0.51100000000E-03 0.  1.
         12    1    3    3    0    0 -0.11442722661E+02 -0.26824230469E+02 -0.13387006057E+02  0.32088739042E+02  0.00000000000E+00 0. -1.
</event>
<event>
 7    1  0.1101380E-011  0.5930204E+02  0.7816164E-02  0.1266604E+00
        -11   -1    0    0    0    0  0.00000000000E+00  0.00000000000E+00  0.45593999997E+02  0.45594000000E+02  0.51100000000E-03 0.  1.
         11   -1    0    0    0    0 -0.00000000000E+00 -0.00000000000E+00 -0.45593999997E+02  0.45594000000E+02  0.51100000000E-03 0. -1.
    9900012    2    1    2    0    0  0.15265855019E+02 -0.26479007997E+02 -0.90846069090E+01  0.59302042642E+02  0.50000179848E+02 0.  0.
        -12    1    1    2    0    0 -0.15265855019E+02  0.26479007997E+02  0.90846069090E+01  0.31885957358E+02  0.00000000000E+00 0.  1.
         11    1    3    3    0    0  0.13571309860E+01  0.55162739863E+01 -0.89837501174E+00  0.57513616759E+01  0.51100000000E-03 0. -1.
        -11    1    3    3    0    0  0.21393086148E+02 -0.32164606713E+01  0.28753956461E+01  0.21823786440E+02  0.51100000000E-03 0.  1.
         12    1    3    3    0    0 -0.74843621150E+01 -0.28778821312E+02 -0.11061627543E+02  0.31726894526E+02  0.00000000000E+00 0. -1.
</event>
<event>
 7    1  0.1101380E-011  0.5930195E+02  0.7816164E-02  0.1266605E+00
        -11   -1    0    0    0    0  0.00000000000E+00  0.00000000000E+00  0.45593999997E+02  0.45594000000E+02  0.51100000000E-03 0. -1.
         11   -1    0    0    0    0 -0.00000000000E+00 -0.00000000000E+00 -0.45593999997E+02  0.45594000000E+02  0.51100000000E-03 0.  1.
    9900012    2    1    2    0    0 -0.31804667800E+02 -0.86465888099E+00 -0.21060794634E+01  0.59301951334E+02  0.50000013325E+02 0.  0.
        -12    1    1    2    0    0  0.31804667800E+02  0.86465888099E+00  0.21060794634E+01  0.31886048666E+02  0.00000000000E+00 0.  1.
         11    1    3    3    0    0  0.68707005724E+00 -0.61815331527E+01  0.13501714935E+02  0.14865386771E+02  0.51100000000E-03 0. -1.
        -11    1    3    3    0    0  0.33804227312E+01  0.39161690911E+01  0.27468862955E+00  0.51806459342E+01  0.51100000000E-03 0.  1.
        -12    1    3    3    0    0 -0.35872160588E+02  0.14007051806E+01 -0.15882483028E+02  0.39255918629E+02  0.00000000000E+00 0.  1.
</event>
<event>
 7    1  0.1101380E-011  0.5930195E+02  0.7816164E-02  0.1266605E+00
        -11   -1    0    0    0    0  0.00000000000E+00  0.00000000000E+00  0.45593999997E+02  0.45594000000E+02  0.51100000000E-03 0. -1.
         11   -1    0    0    0    0 -0.00000000000E+00 -0.00000000000E+00 -0.45593999997E+02  0.45594000000E+02  0.51100000000E-03 0.  1.
    9900012    2    1    2    0    0 -0.28200399117E+02  0.14551784994E+02  0.31150360836E+01  0.59301946518E+02  0.50000004541E+02 0.  0.
        -12    1    1    2    0    0  0.28200399117E+02 -0.14551784994E+02 -0.31150360836E+01  0.31886053482E+02  0.00000000000E+00 0.  1.
         11    1    3    3    0    0 -0.28007942714E+02  0.42576717247E+01  0.50912649557E+01  0.28783564801E+02  0.51100000000E-03 0. -1.
        -11    1    3    3    0    0 -0.76047019259E+01 -0.56463549575E+01  0.60018998322E+01  0.11213189446E+02  0.51100000000E-03 0.  1.
        -12    1    3    3    0    0  0.74122455227E+01  0.15940468227E+02 -0.79781287043E+01  0.19305192271E+02  0.00000000000E+00 0.  1.
</event>
<event>
 7    1  0.1101380E-011  0.5930193E+02  0.7816164E-02  0.1266605E+00
        -11   -1    0    0    0    0  0.00000000000E+00  0.00000000000E+00  0.45593999997E+02  0.45594000000E+02  0.51100000000E-03 0. -1.
         11   -1    0    0    0    0 -0.00000000000E+00 -0.00000000000E+00 -0.45593999997E+02  0.45594000000E+02  0.51100000000E-03 0.  1.
    9900012    2    1    2    0    0  0.14338526475E+02 -0.40918505240E+01  0.28184838195E+02  0.59301926453E+02  0.49999967948E+02 0.  0.
        -12    1    1    2    0    0 -0.14338526475E+02  0.40918505240E+01 -0.28184838195E+02  0.31886073547E+02  0.00000000000E+00 0.  1.
         11    1    3    3    0    0  0.62638709469E+00  0.11212903080E+02  0.14245289871E+01  0.11320372758E+02  0.51100000000E-03 0. -1.
        -11    1    3    3    0    0  0.79390593803E+01  0.46745501916E+01 -0.46425919207E+01  0.10316673075E+02  0.51100000000E-03 0.  1.
        -12    1    3    3    0    0  0.57730799995E+01 -0.19979303796E+02  0.31402901129E+02  0.37664880620E+02  0.00000000000E+00 0.  1.
</event>
<event>
 7    1  0.1101380E-011  0.5930195E+02  0.7816164E-02  0.1266605E+00
        -11   -1    0    0    0    0  0.00000000000E+00  0.00000000000E+00  0.45593999997E+02  0.45594000000E+02  0.51100000000E-03 0. -1.
         11   -1    0    0    0    0 -0.00000000000E+00 -0.00000000000E+00 -0.45593999997E+02  0.45594000000E+02  0.51100000000E-03 0.  1.
    9900012    2    1    2    0    0  0.99576561822E+01  0.12356985010E+02  0.27656285365E+02  0.59301951085E+02  0.50000012872E+02 0.  0.
        -12    1    1    2    0    0 -0.99576561822E+01 -0.12356985010E+02 -0.27656285365E+02  0.31886048915E+02  0.00000000000E+00 0.  1.
         11    1    3    3    0    0 -0.62866146007E+01 -0.10463458444E+02  0.11694977469E+02  0.16904969210E+02  0.51100000000E-03 0. -1.
        -11    1    3    3    0    0  0.96786716392E+01  0.32359192537E+01 -0.63282332099E+01  0.12008097016E+02  0.51100000000E-03 0.  1.
         12    1    3    3    0    0  0.65655991437E+01  0.19584524200E+02  0.22289541106E+02  0.30388884859E+02  0.00000000000E+00 0. -1.
</event>
<event>
 7    1  0.1101380E-011  0.5930196E+02  0.7816164E-02  0.1266605E+00
        -11   -1    0    0    0    0  0.00000000000E+00  0.00000000000E+00  0.45593999997E+02  0.45594000000E+02  0.51100000000E-03 0. -1.
         11   -1    0    0    0    0 -0.00000000000E+00 -0.00000000000E+00 -0.45593999997E+02  0.45594000000E+02  0.51100000000E-03 0.  1.
    9900012    2    1    2    0    0  0.28434694638E+02 -0.13879441438E+02  0.39431561736E+01  0.59301964900E+02  0.50000038066E+02 0.  0.
        -12    1    1    2    0    0 -0.28434694638E+02  0.13879441438E+02 -0.39431561736E+01  0.31886035100E+02  0.00000000000E+00 0.  1.
         11    1    3    3    0    0  0.14666516896E+02 -0.13253505787E+02 -0.41193202808E+01  0.20192348386E+02  0.51100000000E-03 0. -1.
        -11    1    3    3    0    0  0.91864381955E+01 -0.16849831943E+02  0.10813559166E+02  0.22028176169E+02  0.51100000000E-03 0.  1.
        -12    1    3    3    0    0  0.45817395472E+01  0.16223896292E+02 -0.27510827112E+01  0.17081440345E+02  0.00000000000E+00 0.  1.
</event>
<event>
 7    1  0.1101380E-011  0.5930192E+02  0.7816164E-02  0.1266605E+00
        -11   -1    0    0    0    0  0.00000000000E+00  0.00000000000E+00  0.45593999997E+02  0.45594000000E+02  0.51100000000E-03 0.  1.
         11   -1    0    0    0    0 -0.00000000000E+00 -0.00000000000E+00 -0.45593999997E+02  0.45594000000E+02  0.51100000000E-03 0. -1.
    9900012    2    1    2    0    0  0.14783609669E+02  0.58016855112E+01 -0.27649727264E+02  0.59301920163E+02  0.49999956476E+02 0.  0.
        -12    1    1    2    0    0 -0.14783609669E+02 -0.58016855112E+01  0.27649727264E+02  0.31886079837E+02  0.00000000000E+00 0.  1.
         11    1    3    3    0    0  0.18530841903E+01  0.16053387361E+02 -0.20841229896E+02  0.26372372488E+02  0.51100000000E-03 0. -1.
        -11    1    3    3    0    0 -0.82713577881E+01 -0.16267642249E+01 -0.53708277359E+01  0.99953745469E+01  0.51100000000E-03 0.  1.
        -12    1    3    3    0    0  0.21201883267E+02 -0.86249376253E+01 -0.14376696317E+01  0.22934173128E+02  0.00000000000E+00 0.  1.
</event>
<event>
 7    1  0.1101380E-011  0.5930197E+02  0.7816164E-02  0.1266605E+00
        -11   -1    0    0    0    0  0.00000000000E+00  0.00000000000E+00  0.45593999997E+02  0.45594000000E+02  0.51100000000E-03 0. -1.
         11   -1    0    0    0    0 -0.00000000000E+00 -0.00000000000E+00 -0.45593999997E+02  0.45594000000E+02  0.51100000000E-03 0.  1.
    9900012    2    1    2    0    0 -0.28061396088E+02  0.73808087686E+01  0.13221225473E+02  0.59301967141E+02  0.50000042153E+02 0.  0.
        -12    1    1    2    0    0  0.28061396088E+02 -0.73808087686E+01 -0.13221225473E+02  0.31886032859E+02  0.00000000000E+00 0.  1.
         11    1    3    3    0    0 -0.15653248612E+02  0.10390936416E+02  0.17975842098E+02  0.26002435484E+02  0.51100000000E-03 0. -1.
        -11    1    3    3    0    0 -0.87012356059E+01  0.44093483798E+01 -0.16352629638E+02  0.19041070100E+02  0.51100000000E-03 0.  1.
         12    1    3    3    0    0 -0.37069118699E+01 -0.74194760271E+01  0.11598013013E+02  0.14258461557E+02  0.00000000000E+00 0. -1.
</event>
<event>
 7    1  0.1101380E-011  0.5930191E+02  0.7816164E-02  0.1266605E+00
        -11   -1    0    0    0    0  0.00000000000E+00  0.00000000000E+00  0.45593999997E+02  0.45594000000E+02  0.51100000000E-03 0. -1.
         11   -1    0    0    0    0 -0.00000000000E+00 -0.00000000000E+00 -0.45593999997E+02  0.45594000000E+02  0.51100000000E-03 0.  1.
    9900012    2    1    2    0    0  0.24186881319E+02  0.55151677538E+01  0.20032483528E+02  0.59301910563E+02  0.49999938968E+02 0.  0.
        -12    1    1    2    0    0 -0.24186881319E+02 -0.55151677538E+01 -0.20032483528E+02  0.31886089437E+02  0.00000000000E+00 0.  1.
         11    1    3    3    0    0  0.17064451701E+02 -0.20421225798E+02  0.87278322100E+01  0.28007088929E+02  0.51100000000E-03 0. -1.
        -11    1    3    3    0    0  0.34932427652E+01  0.10191627168E+01 -0.12726617894E+00  0.36411034868E+01  0.51100000000E-03 0.  1.
         12    1    3    3    0    0  0.36291868534E+01  0.24917230835E+02  0.11431917496E+02  0.27653718147E+02  0.00000000000E+00 0. -1.
</event>
<event>
 7    1  0.1101380E-011  0.5930193E+02  0.7816164E-02  0.1266605E+00
        -11   -1    0    0    0    0  0.00000000000E+00  0.00000000000E+00  0.45593999997E+02  0.45594000000E+02  0.51100000000E-03 0. -1.
         11   -1    0    0    0    0 -0.00000000000E+00 -0.00000000000E+00 -0.45593999997E+02  0.45594000000E+02  0.51100000000E-03 0.  1.
    9900012    2    1    2    0    0  0.17465697733E+02  0.15633005575E+02  0.21616664156E+02  0.59301927338E+02  0.49999969562E+02 0.  0.
        -12    1    1    2    0    0 -0.17465697733E+02 -0.15633005575E+02 -0.21616664156E+02  0.31886072662E+02  0.00000000000E+00 0.  1.
         11    1    3    3    0    0  0.11036755310E+02 -0.45220094747E+01 -0.62762518307E+00  0.11943720153E+02  0.51100000000E-03 0. -1.
        -11    1    3    3    0    0  0.12849378591E+00 -0.96467212361E+01  0.12512980909E-01  0.96475850914E+01  0.51100000000E-03 0.  1.
         12    1    3    3    0    0  0.63004486371E+01  0.29801736286E+02  0.22231776358E+02  0.37710622094E+02  0.00000000000E+00 0. -1.
</event>
<event>
 7    1  0.1101380E-011  0.5930194E+02  0.7816164E-02  0.1266605E+00
        -11   -1    0    0    0    0  0.00000000000E+00  0.00000000000E+00  0.45593999997E+02  0.45594000000E+02  0.51100000000E-03 0. -1.
         11   -1    0    0    0    0 -0.00000000000E+00 -0.00000000000E+00 -0.45593999997E+02  0.45594000000E+02  0.51100000000E-03 0.  1.
    9900012    2    1    2    0    0 -0.12402973798E+02 -0.19190337733E+02  0.22240008220E+02  0.59301940554E+02  0.49999993665E+02 0.  0.
        -12    1    1    2    0    0  0.12402973798E+02  0.19190337733E+02 -0.22240008220E+02  0.31886059446E+02  0.00000000000E+00 0.  1.
         11    1    3    3    0    0 -0.15755922883E+02 -0.10993657946E+02  0.50624440352E+01  0.19868013509E+02  0.51100000000E-03 0. -1.
        -11    1    3    3    0    0  0.17912104620E+02 -0.67292615534E+01  0.35959498686E+01  0.19469394153E+02  0.51100000000E-03 0.  1.
         12    1    3    3    0    0 -0.14559155535E+02 -0.14674182342E+01  0.13581614316E+02  0.19964532892E+02  0.00000000000E+00 0. -1.
</event>
<event>
 7    1  0.1101380E-011  0.5930195E+02  0.7816164E-02  0.1266605E+00
        -11   -1    0    0    0    0  0.00000000000E+00  0.00000000000E+00  0.45593999997E+02  0.45594000000E+02  0.51100000000E-03 0. -1.
         11   -1    0    0    0    0 -0.00000000000E+00 -0.00000000000E+00 -0.45593999997E+02  0.45594000000E+02  0.51100000000E-03 0.  1.
    9900012    2    1    2    0    0 -0.23570413044E+02 -0.15191400801E+02  0.15178181410E+02  0.59301949441E+02  0.50000009872E+02 0.  0.
        -12    1    1    2    0    0  0.23570413044E+02  0.15191400801E+02 -0.15178181410E+02  0.31886050559E+02  0.00000000000E+00 0.  1.
         11    1    3    3    0    0 -0.92087806291E+01 -0.14947653304E+02  0.73475825720E+01  0.19032103138E+02  0.51100000000E-03 0. -1.
        -11    1    3    3    0    0  0.12152704753E+02  0.26559679290E+01  0.51485488658E+01  0.13462910314E+02  0.51100000000E-03 0.  1.
         12    1    3    3    0    0 -0.26514337168E+02 -0.28997154263E+01  0.26820499718E+01  0.26806935988E+02  0.00000000000E+00 0. -1.
</event>
<event>
 7    1  0.1101380E-011  0.5930196E+02  0.7816164E-02  0.1266605E+00
        -11   -1    0    0    0    0  0.00000000000E+00  0.00000000000E+00  0.45593999997E+02  0.45594000000E+02  0.51100000000E-03 0.  1.
         11   -1    0    0    0    0 -0.00000000000E+00 -0.00000000000E+00 -0.45593999997E+02  0.45594000000E+02  0.51100000000E-03 0. -1.
    9900012    2    1    2    0    0 -0.22484898484E+01  0.13573785124E+01 -0.31777686103E+02  0.59301960468E+02  0.50000029983E+02 0.  0.
        -12    1    1    2    0    0  0.22484898484E+01 -0.13573785124E+01  0.31777686103E+02  0.31886039532E+02  0.00000000000E+00 0.  1.
         11    1    3    3    0    0 -0.11644229021E+02 -0.16927691284E+01 -0.92038499095E+01  0.14938687701E+02  0.51100000000E-03 0. -1.
        -11    1    3    3    0    0 -0.75381045437E+01 -0.11597753620E+02 -0.20376553316E+01  0.13981521686E+02  0.51100000000E-03 0.  1.
        -12    1    3    3    0    0  0.16933843717E+02  0.14647901261E+02 -0.20536180861E+02  0.30381751081E+02  0.00000000000E+00 0.  1.
</event>
<event>
 7    1  0.1101380E-011  0.5930192E+02  0.7816164E-02  0.1266605E+00
        -11   -1    0    0    0    0  0.00000000000E+00  0.00000000000E+00  0.45593999997E+02  0.45594000000E+02  0.51100000000E-03 0.  1.
         11   -1    0    0    0    0 -0.00000000000E+00 -0.00000000000E+00 -0.45593999997E+02  0.45594000000E+02  0.51100000000E-03 0. -1.
    9900012    2    1    2    0    0  0.29449327508E+02  0.67172628107E+01 -0.10214565959E+02  0.59301923602E+02  0.49999962748E+02 0.  0.
        -12    1    1    2    0    0 -0.29449327508E+02 -0.67172628107E+01  0.10214565959E+02  0.31886076398E+02  0.00000000000E+00 0.  1.
         11    1    3    3    0    0  0.14721043955E+02  0.68478790381E+01  0.35454526345E+00  0.16239713207E+02  0.51100000000E-03 0. -1.
        -11    1    3    3    0    0 -0.42458165258E+01  0.58437385597E+01  0.11355483241E+02  0.13458203380E+02  0.51100000000E-03 0.  1.
         12    1    3    3    0    0  0.18974100079E+02 -0.59743547870E+01 -0.21924594463E+02  0.29604007014E+02  0.00000000000E+00 0. -1.
</event>
<event>
 7    1  0.1101380E-011  0.5930195E+02  0.7816164E-02  0.1266605E+00
        -11   -1    0    0    0    0  0.00000000000E+00  0.00000000000E+00  0.45593999997E+02  0.45594000000E+02  0.51100000000E-03 0. -1.
         11   -1    0    0    0    0 -0.00000000000E+00 -0.00000000000E+00 -0.45593999997E+02  0.45594000000E+02  0.51100000000E-03 0.  1.
    9900012    2    1    2    0    0 -0.24470494100E+02  0.29841546928E+00  0.20440795617E+02  0.59301948837E+02  0.50000008771E+02 0.  0.
        -12    1    1    2    0    0  0.24470494100E+02 -0.29841546928E+00 -0.20440795617E+02  0.31886051163E+02  0.00000000000E+00 0.  1.
         11    1    3    3    0    0 -0.43872415632E+01 -0.46939369669E+00  0.30460280094E+02  0.30778188424E+02  0.51100000000E-03 0. -1.
        -11    1    3    3    0    0 -0.80779348140E+01 -0.41594380304E+01  0.35435490351E+01  0.97524712568E+01  0.51100000000E-03 0.  1.
        -12    1    3    3    0    0 -0.12005317723E+02  0.49272471964E+01 -0.13563033512E+02  0.18771289157E+02  0.00000000000E+00 0.  1.
</event>
<event>
 7    1  0.1101380E-011  0.5930194E+02  0.7816164E-02  0.1266605E+00
        -11   -1    0    0    0    0  0.00000000000E+00  0.00000000000E+00  0.45593999997E+02  0.45594000000E+02  0.51100000000E-03 0. -1.
         11   -1    0    0    0    0 -0.00000000000E+00 -0.00000000000E+00 -0.45593999997E+02  0.45594000000E+02  0.51100000000E-03 0.  1.
    9900012    2    1    2    0    0  0.94443538432E+01  0.72648508839E+01  0.29576117214E+02  0.59301943685E+02  0.49999999375E+02 0.  0.
        -12    1    1    2    0    0 -0.94443538432E+01 -0.72648508839E+01 -0.29576117214E+02  0.31886056315E+02  0.00000000000E+00 0.  1.
         11    1    3    3    0    0  0.15101978552E+01 -0.67537513691E+01 -0.18287442069E+01  0.71580835950E+01  0.51100000000E-03 0. -1.
        -11    1    3    3    0    0 -0.93187899264E+01  0.27101576650E+01 -0.45290576068E+01  0.10709676154E+02  0.51100000000E-03 0.  1.
         12    1    3    3    0    0  0.17252945914E+02  0.11308444588E+02  0.35933919028E+02  0.41434183936E+02  0.00000000000E+00 0. -1.
</event>
<event>
 7    1  0.1101380E-011  0.5930199E+02  0.7816164E-02  0.1266605E+00
        -11   -1    0    0    0    0  0.00000000000E+00  0.00000000000E+00  0.45593999997E+02  0.45594000000E+02  0.51100000000E-03 0.  1.
         11   -1    0    0    0    0 -0.00000000000E+00 -0.00000000000E+00 -0.45593999997E+02  0.45594000000E+02  0.51100000000E-03 0. -1.
    9900012    2    1    2    0    0 -0.56584931469E+01  0.11482201777E+02 -0.29203739549E+02  0.59301985731E+02  0.50000076056E+02 0.  0.
        -12    1    1    2    0    0  0.56584931469E+01 -0.11482201777E+02  0.29203739549E+02  0.31886014269E+02  0.00000000000E+00 0.  1.
         11    1    3    3    0    0 -0.10650719679E+02 -0.45544589712E+01  0.47491440720E+01  0.12519396786E+02  0.51100000000E-03 0. -1.
        -11    1    3    3    0    0 -0.51885713738E+01 -0.73642206938E+00  0.21721816889E+01  0.56729149399E+01  0.51100000000E-03 0.  1.
         12    1    3    3    0    0  0.10180797906E+02  0.16773082818E+02 -0.36125065310E+02  0.41109674005E+02  0.00000000000E+00 0. -1.
</event>
<event>
 7    1  0.1101380E-011  0.5930199E+02  0.7816164E-02  0.1266605E+00
        -11   -1    0    0    0    0  0.00000000000E+00  0.00000000000E+00  0.45593999997E+02  0.45594000000E+02  0.51100000000E-03 0. -1.
         11   -1    0    0    0    0 -0.00000000000E+00 -0.00000000000E+00 -0.45593999997E+02  0.45594000000E+02  0.51100000000E-03 0.  1.
    9900012    2    1    2    0    0  0.31247053609E+02  0.51480580612E+01 -0.37197554782E+01  0.59301993008E+02  0.50000089328E+02 0.  0.
        -12    1    1    2    0    0 -0.31247053609E+02 -0.51480580612E+01  0.37197554782E+01  0.31886006992E+02  0.00000000000E+00 0.  1.
         11    1    3    3    0    0  0.17355807756E+02  0.15252593779E+02  0.78581459427E+01  0.24405248160E+02  0.51100000000E-03 0.  1.
        -11    1    3    3    0    0  0.18346113228E+02  0.68971180755E+00  0.13180852964E+00  0.18359546473E+02  0.51100000000E-03 0. -1.
        -12    1    3    3    0    0 -0.44548673740E+01 -0.10794247526E+02 -0.11709709951E+02  0.16537198375E+02  0.00000000000E+00 0.  1.
</event>
<event>
 7    1  0.1101380E-011  0.5930201E+02  0.7816164E-02  0.1266605E+00
        -11   -1    0    0    0    0  0.00000000000E+00  0.00000000000E+00  0.45593999997E+02  0.45594000000E+02  0.51100000000E-03 0. -1.
         11   -1    0    0    0    0 -0.00000000000E+00 -0.00000000000E+00 -0.45593999997E+02  0.45594000000E+02  0.51100000000E-03 0.  1.
    9900012    2    1    2    0    0 -0.98672279986E+01 -0.28625639817E+02  0.99963504124E+01  0.59302008328E+02  0.50000117269E+02 0.  0.
        -12    1    1    2    0    0  0.98672279986E+01  0.28625639817E+02 -0.99963504124E+01  0.31885991672E+02  0.00000000000E+00 0.  1.
         11    1    3    3    0    0 -0.41254874089E+01 -0.94192005467E+01  0.14281052670E+02  0.17597995651E+02  0.51100000000E-03 0.  1.
        -11    1    3    3    0    0 -0.14967732982E+02 -0.21875979736E+02  0.64703126003E+01  0.27284729529E+02  0.51100000000E-03 0. -1.
        -12    1    3    3    0    0  0.92259923928E+01  0.26695404654E+01 -0.10755014858E+02  0.14419283149E+02  0.00000000000E+00 0.  1.
</event>
<event>
 7    1  0.1101380E-011  0.5930194E+02  0.7816164E-02  0.1266605E+00
        -11   -1    0    0    0    0  0.00000000000E+00  0.00000000000E+00  0.45593999997E+02  0.45594000000E+02  0.51100000000E-03 0. -1.
         11   -1    0    0    0    0 -0.00000000000E+00 -0.00000000000E+00 -0.45593999997E+02  0.45594000000E+02  0.51100000000E-03 0.  1.
    9900012    2    1    2    0    0 -0.24657760996E+02  0.20021645563E+02 -0.28017007172E+01  0.59301937288E+02  0.49999987708E+02 0.  0.
        -12    1    1    2    0    0  0.24657760996E+02 -0.20021645563E+02  0.28017007172E+01  0.31886062712E+02  0.00000000000E+00 0.  1.
         11    1    3    3    0    0 -0.69709723306E+01 -0.58029332156E-01  0.62966037812E+00  0.69995924946E+01  0.51100000000E-03 0. -1.
        -11    1    3    3    0    0 -0.12061071692E+02  0.23281158340E+01  0.19324606632E+02  0.22898253109E+02  0.51100000000E-03 0.  1.
        -12    1    3    3    0    0 -0.56257169732E+01  0.17751559061E+02 -0.22755967727E+02  0.29404091684E+02  0.00000000000E+00 0.  1.
</event>
<event>
 7    1  0.1101380E-011  0.5930190E+02  0.7816164E-02  0.1266605E+00
        -11   -1    0    0    0    0  0.00000000000E+00  0.00000000000E+00  0.45593999997E+02  0.45594000000E+02  0.51100000000E-03 0.  1.
         11   -1    0    0    0    0 -0.00000000000E+00 -0.00000000000E+00 -0.45593999997E+02  0.45594000000E+02  0.51100000000E-03 0. -1.
    9900012    2    1    2    0    0  0.25250268937E+02 -0.18036389902E+01 -0.19387989842E+02  0.59301900441E+02  0.49999920508E+02 0.  0.
        -12    1    1    2    0    0 -0.25250268937E+02  0.18036389902E+01  0.19387989842E+02  0.31886099559E+02  0.00000000000E+00 0.  1.
         11    1    3    3    0    0  0.63578059135E+01  0.79673883671E+01 -0.42029228427E+01  0.11025676129E+02  0.51100000000E-03 0. -1.
        -11    1    3    3    0    0  0.15582917818E+02 -0.28646647506E+01  0.12100485075E+02  0.19936282782E+02  0.51100000000E-03 0.  1.
         12    1    3    3    0    0  0.33095452052E+01 -0.69063626067E+01 -0.27285552074E+02  0.28339941530E+02  0.00000000000E+00 0. -1.
</event>
<event>
 7    1  0.1101380E-011  0.5930195E+02  0.7816164E-02  0.1266605E+00
        -11   -1    0    0    0    0  0.00000000000E+00  0.00000000000E+00  0.45593999997E+02  0.45594000000E+02  0.51100000000E-03 0. -1.
         11   -1    0    0    0    0 -0.00000000000E+00 -0.00000000000E+00 -0.45593999997E+02  0.45594000000E+02  0.51100000000E-03 0.  1.
    9900012    2    1    2    0    0  0.14386571093E+02  0.93329528276E+01  0.26882018274E+02  0.59301947520E+02  0.50000006369E+02 0.  0.
        -12    1    1    2    0    0 -0.14386571093E+02 -0.93329528276E+01 -0.26882018274E+02  0.31886052480E+02  0.00000000000E+00 0.  1.
         11    1    3    3    0    0  0.23396070714E+02  0.70952873267E+01  0.78933763624E+01  0.25690944275E+02  0.51100000000E-03 0. -1.
        -11    1    3    3    0    0 -0.99822387608E+00 -0.10699114370E+02  0.13893665890E+02  0.17564209385E+02  0.51100000000E-03 0.  1.
         12    1    3    3    0    0 -0.80112757451E+01  0.12936779871E+02  0.50949760216E+01  0.16046793859E+02  0.00000000000E+00 0. -1.
</event>
<event>
 7    1  0.1101380E-011  0.5930195E+02  0.7816164E-02  0.1266605E+00
        -11   -1    0    0    0    0  0.00000000000E+00  0.00000000000E+00  0.45593999997E+02  0.45594000000E+02  0.51100000000E-03 0. -1.
         11   -1    0    0    0    0 -0.00000000000E+00 -0.00000000000E+00 -0.45593999997E+02  0.45594000000E+02  0.51100000000E-03 0.  1.
    9900012    2    1    2    0    0 -0.38337506166E+00  0.30321927238E+02  0.98566814072E+01  0.59301946368E+02  0.50000004269E+02 0.  0.
        -12    1    1    2    0    0  0.38337506166E+00 -0.30321927238E+02 -0.98566814072E+01  0.31886053632E+02  0.00000000000E+00 0.  1.
         11    1    3    3    0    0 -0.10579071567E+02  0.14860669505E+02  0.23933004336E+01  0.18397938487E+02  0.51100000000E-03 0. -1.
        -11    1    3    3    0    0 -0.12844244759E+02  0.90063220411E+00  0.11498088663E+01  0.12927019087E+02  0.51100000000E-03 0.  1.
        -12    1    3    3    0    0  0.23039941264E+02  0.14560625529E+02  0.63135721073E+01  0.27976988794E+02  0.00000000000E+00 0.  1.
</event>
<event>
 7    1  0.1101380E-011  0.5930194E+02  0.7816164E-02  0.1266605E+00
        -11   -1    0    0    0    0  0.00000000000E+00  0.00000000000E+00  0.45593999997E+02  0.45594000000E+02  0.51100000000E-03 0. -1.
         11   -1    0    0    0    0 -0.00000000000E+00 -0.00000000000E+00 -0.45593999997E+02  0.45594000000E+02  0.51100000000E-03 0.  1.
    9900012    2    1    2    0    0 -0.94336769485E+01 -0.43577974232E+01  0.30145246424E+02  0.59301944410E+02  0.50000000697E+02 0.  0.
        -12    1    1    2    0    0  0.94336769485E+01  0.43577974232E+01 -0.30145246424E+02  0.31886055590E+02  0.00000000000E+00 0.  1.
         11    1    3    3    0    0  0.64579415560E+01  0.88796922229E+00  0.20896925322E+01  0.68454593433E+01  0.51100000000E-03 0. -1.
        -11    1    3    3    0    0  0.10837000491E+02 -0.61149722725E+01  0.21628199679E+02  0.24952204054E+02  0.51100000000E-03 0.  1.
         12    1    3    3    0    0 -0.26728618996E+02  0.86920562697E+00  0.64273542127E+01  0.27504281013E+02  0.00000000000E+00 0. -1.
</event>
<event>
 7    1  0.1101380E-011  0.5930194E+02  0.7816164E-02  0.1266605E+00
        -11   -1    0    0    0    0  0.00000000000E+00  0.00000000000E+00  0.45593999997E+02  0.45594000000E+02  0.51100000000E-03 0.  1.
         11   -1    0    0    0    0 -0.00000000000E+00 -0.00000000000E+00 -0.45593999997E+02  0.45594000000E+02  0.51100000000E-03 0. -1.
    9900012    2    1    2    0    0  0.43902703014E+01 -0.14353351732E+02 -0.28132325138E+02  0.59301938830E+02  0.49999990521E+02 0.  0.
        -12    1    1    2    0    0 -0.43902703014E+01  0.14353351732E+02  0.28132325138E+02  0.31886061170E+02  0.00000000000E+00 0.  1.
         11    1    3    3    0    0 -0.19792534348E+02 -0.36179728236E+01 -0.50295730414E+01  0.20739593740E+02  0.51100000000E-03 0. -1.
        -11    1    3    3    0    0  0.11973679787E+02  0.28344972199E+01 -0.12054132841E+02  0.17225141536E+02  0.51100000000E-03 0.  1.
        -12    1    3    3    0    0  0.12209124862E+02 -0.13569876129E+02 -0.11048619255E+02  0.21337203554E+02  0.00000000000E+00 0.  1.
</event>
<event>
 7    1  0.1101380E-011  0.5930191E+02  0.7816164E-02  0.1266605E+00
        -11   -1    0    0    0    0  0.00000000000E+00  0.00000000000E+00  0.45593999997E+02  0.45594000000E+02  0.51100000000E-03 0.  1.
         11   -1    0    0    0    0 -0.00000000000E+00 -0.00000000000E+00 -0.45593999997E+02  0.45594000000E+02  0.51100000000E-03 0. -1.
    9900012    2    1    2    0    0  0.19241039919E+02  0.21735242425E+02 -0.13194111926E+02  0.59301906323E+02  0.49999931236E+02 0.  0.
        -12    1    1    2    0    0 -0.19241039919E+02 -0.21735242425E+02  0.13194111926E+02  0.31886093677E+02  0.00000000000E+00 0.  1.
         11    1    3    3    0    0 -0.20335669092E+01 -0.39550804949E+01  0.52986669238E+01  0.69176533250E+01  0.51100000000E-03 0. -1.
        -11    1    3    3    0    0  0.21763822368E+02  0.13467019735E+02  0.48325553816E+01  0.26045694009E+02  0.51100000000E-03 0.  1.
         12    1    3    3    0    0 -0.48921554031E+00  0.12223303185E+02 -0.23325334232E+02  0.26338558989E+02  0.00000000000E+00 0. -1.
</event>
<event>
 7    1  0.1101380E-011  0.5930160E+02  0.7816164E-02  0.1266606E+00
        -11   -1    0    0    0    0  0.00000000000E+00  0.00000000000E+00  0.45593999997E+02  0.45594000000E+02  0.51100000000E-03 0. -1.
         11   -1    0    0    0    0 -0.00000000000E+00 -0.00000000000E+00 -0.45593999997E+02  0.45594000000E+02  0.51100000000E-03 0.  1.
    9900012    2    1    2    0    0 -0.72430887869E+01 -0.37026998301E+01  0.30831314808E+02  0.59301603308E+02  0.49999378605E+02 0.  0.
        -12    1    1    2    0    0  0.72430887869E+01  0.37026998301E+01 -0.30831314808E+02  0.31886396692E+02  0.00000000000E+00 0.  1.
         11    1    3    3    0    0 -0.16680746261E+02  0.10271997530E+02  0.12753285653E+02  0.23375361479E+02  0.51100000000E-03 0. -1.
        -11    1    3    3    0    0 -0.56979189781E+01 -0.40800451938E+00 -0.31606464512E+01  0.65285859587E+01  0.51100000000E-03 0.  1.
         12    1    3    3    0    0  0.15135576452E+02 -0.13566692841E+02  0.21238675606E+02  0.29397655870E+02  0.00000000000E+00 0. -1.
</event>
<event>
 7    1  0.1101380E-011  0.5930184E+02  0.7816164E-02  0.1266605E+00
        -11   -1    0    0    0    0  0.00000000000E+00  0.00000000000E+00  0.45593999997E+02  0.45594000000E+02  0.51100000000E-03 0.  1.
         11   -1    0    0    0    0 -0.00000000000E+00 -0.00000000000E+00 -0.45593999997E+02  0.45594000000E+02  0.51100000000E-03 0. -1.
    9900012    2    1    2    0    0 -0.19745585446E+01 -0.28892512452E+02 -0.13343580637E+02  0.59301838402E+02  0.49999807364E+02 0.  0.
        -12    1    1    2    0    0  0.19745585446E+01  0.28892512452E+02  0.13343580637E+02  0.31886161598E+02  0.00000000000E+00 0.  1.
         11    1    3    3    0    0  0.35617216237E+01  0.49652338442E+01 -0.21152912978E+01  0.64663641707E+01  0.51100000000E-03 0. -1.
        -11    1    3    3    0    0 -0.18544361947E+02 -0.11446255480E+02  0.48688239114E+01  0.22329701545E+02  0.51100000000E-03 0.  1.
         12    1    3    3    0    0  0.13008081779E+02 -0.22411490816E+02 -0.16097113251E+02  0.30505772686E+02  0.00000000000E+00 0. -1.
</event>
<event>
 7    1  0.1101380E-011  0.5930195E+02  0.7816164E-02  0.1266605E+00
        -11   -1    0    0    0    0  0.00000000000E+00  0.00000000000E+00  0.45593999997E+02  0.45594000000E+02  0.51100000000E-03 0.  1.
         11   -1    0    0    0    0 -0.00000000000E+00 -0.00000000000E+00 -0.45593999997E+02  0.45594000000E+02  0.51100000000E-03 0. -1.
    9900012    2    1    2    0    0  0.14060841075E+02 -0.27088075887E+02  0.92330571601E+01  0.59301945815E+02  0.50000003259E+02 0.  0.
        -12    1    1    2    0    0 -0.14060841075E+02  0.27088075887E+02 -0.92330571601E+01  0.31886054185E+02  0.00000000000E+00 0.  1.
         11    1    3    3    0    0  0.35652186369E+01  0.93107334984E+01 -0.53933477226E+01  0.11335287474E+02  0.51100000000E-03 0. -1.
        -11    1    3    3    0    0 -0.49196019840E+01 -0.15987754545E+02 -0.28767344383E+01  0.16973107563E+02  0.51100000000E-03 0.  1.
        -12    1    3    3    0    0  0.15415224422E+02 -0.20411054841E+02  0.17503139321E+02  0.30993550777E+02  0.00000000000E+00 0.  1.
</event>
<event>
 7    1  0.1101380E-011  0.5930191E+02  0.7816164E-02  0.1266605E+00
        -11   -1    0    0    0    0  0.00000000000E+00  0.00000000000E+00  0.45593999997E+02  0.45594000000E+02  0.51100000000E-03 0.  1.
         11   -1    0    0    0    0 -0.00000000000E+00 -0.00000000000E+00 -0.45593999997E+02  0.45594000000E+02  0.51100000000E-03 0. -1.
    9900012    2    1    2    0    0 -0.99455080842E+01 -0.24745999196E+02 -0.17476983399E+02  0.59301912815E+02  0.49999943075E+02 0.  0.
        -12    1    1    2    0    0  0.99455080842E+01  0.24745999196E+02  0.17476983399E+02  0.31886087185E+02  0.00000000000E+00 0.  1.
         11    1    3    3    0    0 -0.21356181782E+02 -0.52171542690E+01 -0.86624437580E+01  0.23629285455E+02  0.51100000000E-03 0. -1.
        -11    1    3    3    0    0  0.17207740882E+01  0.64502516155E+01 -0.31091172201E+01  0.73643342887E+01  0.51100000000E-03 0.  1.
         12    1    3    3    0    0  0.96898996097E+01 -0.25979096543E+02 -0.57054224207E+01  0.28308293071E+02  0.00000000000E+00 0. -1.
</event>
<event>
 7    1  0.1101380E-011  0.5930173E+02  0.7816164E-02  0.1266606E+00
        -11   -1    0    0    0    0  0.00000000000E+00  0.00000000000E+00  0.45593999997E+02  0.45594000000E+02  0.51100000000E-03 0. -1.
         11   -1    0    0    0    0 -0.00000000000E+00 -0.00000000000E+00 -0.45593999997E+02  0.45594000000E+02  0.51100000000E-03 0.  1.
    9900012    2    1    2    0    0  0.11033674041E+01  0.11200796500E+02  0.29833857210E+02  0.59301728692E+02  0.49999607279E+02 0.  0.
        -12    1    1    2    0    0 -0.11033674041E+01 -0.11200796500E+02 -0.29833857210E+02  0.31886271308E+02  0.00000000000E+00 0.  1.
         11    1    3    3    0    0  0.76985890436E+01 -0.72882247130E+01 -0.23249777693E+01  0.10853202966E+02  0.51100000000E-03 0. -1.
        -11    1    3    3    0    0  0.70352387063E+01  0.19463263589E+02  0.11491818494E+02  0.23672243361E+02  0.51100000000E-03 0.  1.
         12    1    3    3    0    0 -0.13630460346E+02 -0.97424237555E+00  0.20667016486E+02  0.24776282366E+02  0.00000000000E+00 0. -1.
</event>
<event>
 7    1  0.1101380E-011  0.5930195E+02  0.7816164E-02  0.1266605E+00
        -11   -1    0    0    0    0  0.00000000000E+00  0.00000000000E+00  0.45593999997E+02  0.45594000000E+02  0.51100000000E-03 0. -1.
         11   -1    0    0    0    0 -0.00000000000E+00 -0.00000000000E+00 -0.45593999997E+02  0.45594000000E+02  0.51100000000E-03 0.  1.
    9900012    2    1    2    0    0 -0.18957227778E+02  0.24613779185E+02  0.71767395212E+01  0.59301949744E+02  0.50000010425E+02 0.  0.
        -12    1    1    2    0    0  0.18957227778E+02 -0.24613779185E+02 -0.71767395212E+01  0.31886050256E+02  0.00000000000E+00 0.  1.
         11    1    3    3    0    0  0.14337269838E+02 -0.17768364482E+01  0.95487248498E+00  0.14478474916E+02  0.51100000000E-03 0.  1.
        -11    1    3    3    0    0 -0.10332118373E+02  0.15914187721E+02  0.69902536815E+00  0.18986908059E+02  0.51100000000E-03 0. -1.
        -12    1    3    3    0    0 -0.22962379243E+02  0.10476427912E+02  0.55228416681E+01  0.25836566768E+02  0.00000000000E+00 0.  1.
</event>
<event>
 7    1  0.1101380E-011  0.5930192E+02  0.7816164E-02  0.1266605E+00
        -11   -1    0    0    0    0  0.00000000000E+00  0.00000000000E+00  0.45593999997E+02  0.45594000000E+02  0.51100000000E-03 0.  1.
         11   -1    0    0    0    0 -0.00000000000E+00 -0.00000000000E+00 -0.45593999997E+02  0.45594000000E+02  0.51100000000E-03 0. -1.
    9900012    2    1    2    0    0  0.97460333395E+01  0.10004897043E+02 -0.28664240868E+02  0.59301924117E+02  0.49999963687E+02 0.  0.
        -12    1    1    2    0    0 -0.97460333395E+01 -0.10004897043E+02  0.28664240868E+02  0.31886075883E+02  0.00000000000E+00 0.  1.
         11    1    3    3    0    0  0.72895685376E+01 -0.75836041288E+01 -0.12655139665E+02  0.16456045127E+02  0.51100000000E-03 0.  1.
        -11    1    3    3    0    0 -0.74767177669E+01 -0.66651193310E+01  0.30151921574E+01  0.10460234618E+02  0.51100000000E-03 0. -1.
         12    1    3    3    0    0  0.99331825688E+01  0.24253620503E+02 -0.19024293361E+02  0.32385644371E+02  0.00000000000E+00 0. -1.
</event>
<event>
 7    1  0.1101380E-011  0.5930194E+02  0.7816164E-02  0.1266605E+00
        -11   -1    0    0    0    0  0.00000000000E+00  0.00000000000E+00  0.45593999997E+02  0.45594000000E+02  0.51100000000E-03 0.  1.
         11   -1    0    0    0    0 -0.00000000000E+00 -0.00000000000E+00 -0.45593999997E+02  0.45594000000E+02  0.51100000000E-03 0. -1.
    9900012    2    1    2    0    0  0.13267134542E+02  0.47990737791E+00 -0.28990920596E+02  0.59301942749E+02  0.49999997667E+02 0.  0.
        -12    1    1    2    0    0 -0.13267134542E+02 -0.47990737791E+00  0.28990920596E+02  0.31886057251E+02  0.00000000000E+00 0.  1.
         11    1    3    3    0    0 -0.10796519846E+01 -0.14067501256E+02 -0.28763839179E+01  0.14399091106E+02  0.51100000000E-03 0. -1.
        -11    1    3    3    0    0 -0.65107314819E+01  0.99606216672E+00 -0.17304348447E+02  0.18515459479E+02  0.51100000000E-03 0.  1.
        -12    1    3    3    0    0  0.20857518008E+02  0.13551346467E+02 -0.88101882307E+01  0.26387392163E+02  0.00000000000E+00 0.  1.
</event>
<event>
 7    1  0.1101380E-011  0.5930190E+02  0.7816164E-02  0.1266605E+00
        -11   -1    0    0    0    0  0.00000000000E+00  0.00000000000E+00  0.45593999997E+02  0.45594000000E+02  0.51100000000E-03 0. -1.
         11   -1    0    0    0    0 -0.00000000000E+00 -0.00000000000E+00 -0.45593999997E+02  0.45594000000E+02  0.51100000000E-03 0.  1.
    9900012    2    1    2    0    0 -0.60019928329E+01  0.33981015407E+01  0.31131213183E+02  0.59301898854E+02  0.49999917614E+02 0.  0.
        -12    1    1    2    0    0  0.60019928329E+01 -0.33981015407E+01 -0.31131213183E+02  0.31886101146E+02  0.00000000000E+00 0.  1.
         11    1    3    3    0    0  0.89827200408E-01 -0.13306290347E+01  0.98028714362E+00  0.16551754285E+01  0.51100000000E-03 0. -1.
        -11    1    3    3    0    0 -0.10785921088E+02  0.19461587851E+02 -0.16234329295E+01  0.22309751907E+02  0.51100000000E-03 0.  1.
         12    1    3    3    0    0  0.46941010551E+01 -0.14732857276E+02  0.31774358969E+02  0.35336971519E+02  0.00000000000E+00 0. -1.
</event>
<event>
 7    1  0.1101380E-011  0.5930195E+02  0.7816164E-02  0.1266605E+00
        -11   -1    0    0    0    0  0.00000000000E+00  0.00000000000E+00  0.45593999997E+02  0.45594000000E+02  0.51100000000E-03 0. -1.
         11   -1    0    0    0    0 -0.00000000000E+00 -0.00000000000E+00 -0.45593999997E+02  0.45594000000E+02  0.51100000000E-03 0.  1.
    9900012    2    1    2    0    0 -0.18761309814E+02  0.49492947433E+00  0.25777678904E+02  0.59301946140E+02  0.50000003851E+02 0.  0.
        -12    1    1    2    0    0  0.18761309814E+02 -0.49492947433E+00 -0.25777678904E+02  0.31886053860E+02  0.00000000000E+00 0.  1.
         11    1    3    3    0    0 -0.93037038511E+01  0.22170103083E+01  0.12001717394E+02  0.15346506466E+02  0.51100000000E-03 0. -1.
        -11    1    3    3    0    0 -0.24379531231E+02 -0.73588418066E+01  0.57852835946E+01  0.26114815763E+02  0.51100000000E-03 0.  1.
         12    1    3    3    0    0  0.14921925268E+02  0.56367609726E+01  0.79906779155E+01  0.17840623911E+02  0.00000000000E+00 0. -1.
</event>
<event>
 7    1  0.1101380E-011  0.5930197E+02  0.7816164E-02  0.1266605E+00
        -11   -1    0    0    0    0  0.00000000000E+00  0.00000000000E+00  0.45593999997E+02  0.45594000000E+02  0.51100000000E-03 0.  1.
         11   -1    0    0    0    0 -0.00000000000E+00 -0.00000000000E+00 -0.45593999997E+02  0.45594000000E+02  0.51100000000E-03 0. -1.
    9900012    2    1    2    0    0 -0.51586460025E+01  0.23689585539E+02 -0.20710161792E+02  0.59301970253E+02  0.50000047828E+02 0.  0.
        -12    1    1    2    0    0  0.51586460025E+01 -0.23689585539E+02  0.20710161792E+02  0.31886029747E+02  0.00000000000E+00 0.  1.
         11    1    3    3    0    0  0.80195910312E+01  0.20686583376E+02  0.63099026631E+01  0.23066500471E+02  0.51100000000E-03 0. -1.
        -11    1    3    3    0    0  0.36492064664E+01 -0.29445055799E+01 -0.11873851335E+01  0.48370140233E+01  0.51100000000E-03 0.  1.
        -12    1    3    3    0    0 -0.16827443500E+02  0.59475077424E+01 -0.25832679322E+02  0.31398455759E+02  0.00000000000E+00 0.  1.
</event>
<event>
 7    1  0.1101380E-011  0.5930204E+02  0.7816164E-02  0.1266604E+00
        -11   -1    0    0    0    0  0.00000000000E+00  0.00000000000E+00  0.45593999997E+02  0.45594000000E+02  0.51100000000E-03 0.  1.
         11   -1    0    0    0    0 -0.00000000000E+00 -0.00000000000E+00 -0.45593999997E+02  0.45594000000E+02  0.51100000000E-03 0. -1.
    9900012    2    1    2    0    0 -0.11572727275E+02 -0.17551038707E+02 -0.23973891554E+02  0.59302039884E+02  0.50000174819E+02 0.  0.
        -12    1    1    2    0    0  0.11572727275E+02  0.17551038707E+02  0.23973891554E+02  0.31885960116E+02  0.00000000000E+00 0.  1.
         11    1    3    3    0    0 -0.13409913151E+02  0.39946594185E+01 -0.27264690602E+02  0.30645496056E+02  0.51100000000E-03 0. -1.
        -11    1    3    3    0    0 -0.68591439845E+01 -0.12390287496E+02 -0.31100196650E+01  0.14499631134E+02  0.51100000000E-03 0.  1.
        -12    1    3    3    0    0  0.86963298607E+01 -0.91554106297E+01  0.64008187135E+01  0.14156912695E+02  0.00000000000E+00 0.  1.
</event>
<event>
 7    1  0.1101380E-011  0.5930195E+02  0.7816164E-02  0.1266605E+00
        -11   -1    0    0    0    0  0.00000000000E+00  0.00000000000E+00  0.45593999997E+02  0.45594000000E+02  0.51100000000E-03 0.  1.
         11   -1    0    0    0    0 -0.00000000000E+00 -0.00000000000E+00 -0.45593999997E+02  0.45594000000E+02  0.51100000000E-03 0. -1.
    9900012    2    1    2    0    0 -0.28275618833E+02  0.12490313515E+02 -0.78231475936E+01  0.59301949910E+02  0.50000010727E+02 0.  0.
        -12    1    1    2    0    0  0.28275618833E+02 -0.12490313515E+02  0.78231475936E+01  0.31886050090E+02  0.00000000000E+00 0.  1.
         11    1    3    3    0    0 -0.16608159029E+02 -0.13895111929E+01 -0.12891372350E+02  0.21070101305E+02  0.51100000000E-03 0. -1.
        -11    1    3    3    0    0  0.83189830203E-01  0.43621075507E+01 -0.13556537131E+02  0.14241299171E+02  0.51100000000E-03 0.  1.
        -12    1    3    3    0    0 -0.11750649635E+02  0.95177171571E+01  0.18624761888E+02  0.23990549433E+02  0.00000000000E+00 0.  1.
</event>
<event>
 7    1  0.1101380E-011  0.5930195E+02  0.7816164E-02  0.1266605E+00
        -11   -1    0    0    0    0  0.00000000000E+00  0.00000000000E+00  0.45593999997E+02  0.45594000000E+02  0.51100000000E-03 0.  1.
         11   -1    0    0    0    0 -0.00000000000E+00 -0.00000000000E+00 -0.45593999997E+02  0.45594000000E+02  0.51100000000E-03 0. -1.
    9900012    2    1    2    0    0 -0.14291023741E+02 -0.28325886216E+02 -0.31829321461E+01  0.59301949028E+02  0.50000009120E+02 0.  0.
        -12    1    1    2    0    0  0.14291023741E+02  0.28325886216E+02  0.31829321461E+01  0.31886050972E+02  0.00000000000E+00 0.  1.
         11    1    3    3    0    0 -0.65712822931E+01 -0.16573731045E+02 -0.61092349994E+01  0.18846566379E+02  0.51100000000E-03 0. -1.
        -11    1    3    3    0    0 -0.21362472616E+01 -0.80744283442E+01 -0.17268658244E+02  0.19182453004E+02  0.51100000000E-03 0.  1.
        -12    1    3    3    0    0 -0.55834941868E+01 -0.36777268271E+01  0.20194961098E+02  0.21272929645E+02  0.00000000000E+00 0.  1.
</event>
<event>
 7    1  0.1101380E-011  0.5930194E+02  0.7816164E-02  0.1266605E+00
        -11   -1    0    0    0    0  0.00000000000E+00  0.00000000000E+00  0.45593999997E+02  0.45594000000E+02  0.51100000000E-03 0.  1.
         11   -1    0    0    0    0 -0.00000000000E+00 -0.00000000000E+00 -0.45593999997E+02  0.45594000000E+02  0.51100000000E-03 0. -1.
    9900012    2    1    2    0    0  0.24069110709E+02  0.15763434055E+02 -0.13744560697E+02  0.59301938903E+02  0.49999990654E+02 0.  0.
        -12    1    1    2    0    0 -0.24069110709E+02 -0.15763434055E+02  0.13744560697E+02  0.31886061097E+02  0.00000000000E+00 0.  1.
         11    1    3    3    0    0 -0.74390065492E+01  0.64009106644E+01  0.18239637525E+01  0.99818495182E+01  0.51100000000E-03 0.  1.
        -11    1    3    3    0    0  0.60240366286E+01  0.18707199744E+02 -0.63207183691E+01  0.20644607541E+02  0.51100000000E-03 0. -1.
         12    1    3    3    0    0  0.25484080629E+02 -0.93446763534E+01 -0.92478060804E+01  0.28675481844E+02  0.00000000000E+00 0. -1.
</event>
<event>
 7    1  0.1101380E-011  0.5930195E+02  0.7816164E-02  0.1266605E+00
        -11   -1    0    0    0    0  0.00000000000E+00  0.00000000000E+00  0.45593999997E+02  0.45594000000E+02  0.51100000000E-03 0.  1.
         11   -1    0    0    0    0 -0.00000000000E+00 -0.00000000000E+00 -0.45593999997E+02  0.45594000000E+02  0.51100000000E-03 0. -1.
    9900012    2    1    2    0    0  0.29680563103E+02  0.69689671665E+01 -0.93390625310E+01  0.59301946333E+02  0.50000004205E+02 0.  0.
        -12    1    1    2    0    0 -0.29680563103E+02 -0.69689671665E+01  0.93390625310E+01  0.31886053667E+02  0.00000000000E+00 0.  1.
         11    1    3    3    0    0  0.12825038694E+02 -0.17248452774E+01 -0.14005920711E+02  0.19068888902E+02  0.51100000000E-03 0. -1.
        -11    1    3    3    0    0 -0.43849922163E+01  0.16643886312E+02  0.83519596194E+00  0.17232082314E+02  0.51100000000E-03 0.  1.
         12    1    3    3    0    0  0.21240516625E+02 -0.79500738684E+01  0.38316622179E+01  0.23000975118E+02  0.00000000000E+00 0. -1.
</event>
<event>
 7    1  0.1101380E-011  0.5930195E+02  0.7816164E-02  0.1266605E+00
        -11   -1    0    0    0    0  0.00000000000E+00  0.00000000000E+00  0.45593999997E+02  0.45594000000E+02  0.51100000000E-03 0. -1.
         11   -1    0    0    0    0 -0.00000000000E+00 -0.00000000000E+00 -0.45593999997E+02  0.45594000000E+02  0.51100000000E-03 0.  1.
    9900012    2    1    2    0    0  0.27803045097E+01  0.12883761567E+02  0.29034439509E+02  0.59301951596E+02  0.50000013802E+02 0.  0.
        -12    1    1    2    0    0 -0.27803045097E+01 -0.12883761567E+02 -0.29034439509E+02  0.31886048404E+02  0.00000000000E+00 0.  1.
         11    1    3    3    0    0  0.64794037703E+01 -0.57713158622E+00  0.33078870913E+02  0.33712422862E+02  0.51100000000E-03 0. -1.
        -11    1    3    3    0    0  0.18396377664E+01  0.13017244378E+02  0.57340026972E+01  0.14342653364E+02  0.51100000000E-03 0.  1.
        -12    1    3    3    0    0 -0.55387370271E+01  0.44364877476E+00 -0.97784341020E+01  0.11246875370E+02  0.00000000000E+00 0.  1.
</event>
<event>
 7    1  0.1101380E-011  0.5930191E+02  0.7816164E-02  0.1266605E+00
        -11   -1    0    0    0    0  0.00000000000E+00  0.00000000000E+00  0.45593999997E+02  0.45594000000E+02  0.51100000000E-03 0.  1.
         11   -1    0    0    0    0 -0.00000000000E+00 -0.00000000000E+00 -0.45593999997E+02  0.45594000000E+02  0.51100000000E-03 0. -1.
    9900012    2    1    2    0    0 -0.17183282844E+02 -0.24578022209E+02  0.10834134505E+02  0.59301908118E+02  0.49999934509E+02 0.  0.
        -12    1    1    2    0    0  0.17183282844E+02  0.24578022209E+02 -0.10834134505E+02  0.31886091882E+02  0.00000000000E+00 0.  1.
         11    1    3    3    0    0  0.26113117901E+01 -0.26418159355E+02  0.12649565107E+02  0.29406624944E+02  0.51100000000E-03 0. -1.
        -11    1    3    3    0    0 -0.54546574565E+00  0.83927179167E+01 -0.42376204022E+01  0.94176787927E+01  0.51100000000E-03 0.  1.
        -12    1    3    3    0    0 -0.19249128889E+02 -0.65525807716E+01  0.24221898004E+01  0.20477604381E+02  0.00000000000E+00 0.  1.
</event>
<event>
 7    1  0.1101380E-011  0.5930193E+02  0.7816164E-02  0.1266605E+00
        -11   -1    0    0    0    0  0.00000000000E+00  0.00000000000E+00  0.45593999997E+02  0.45594000000E+02  0.51100000000E-03 0. -1.
         11   -1    0    0    0    0 -0.00000000000E+00 -0.00000000000E+00 -0.45593999997E+02  0.45594000000E+02  0.51100000000E-03 0.  1.
    9900012    2    1    2    0    0  0.20971367656E+02 -0.10303263858E+02  0.21697145970E+02  0.59301927010E+02  0.49999968964E+02 0.  0.
        -12    1    1    2    0    0 -0.20971367656E+02  0.10303263858E+02 -0.21697145970E+02  0.31886072990E+02  0.00000000000E+00 0.  1.
         11    1    3    3    0    0  0.15020661327E+02 -0.88477069512E+01  0.13572212425E+01  0.17485543593E+02  0.51100000000E-03 0. -1.
        -11    1    3    3    0    0  0.28548986894E+01  0.39849898807E+01 -0.98403557062E+01  0.10993779676E+02  0.51100000000E-03 0.  1.
         12    1    3    3    0    0  0.30958076394E+01 -0.54405467872E+01  0.30180280434E+02  0.30822603741E+02  0.00000000000E+00 0. -1.
</event>
<event>
 7    1  0.1101380E-011  0.5930194E+02  0.7816164E-02  0.1266605E+00
        -11   -1    0    0    0    0  0.00000000000E+00  0.00000000000E+00  0.45593999997E+02  0.45594000000E+02  0.51100000000E-03 0.  1.
         11   -1    0    0    0    0 -0.00000000000E+00 -0.00000000000E+00 -0.45593999997E+02  0.45594000000E+02  0.51100000000E-03 0. -1.
    9900012    2    1    2    0    0  0.77831730189E+01 -0.25000402218E+02 -0.18196781451E+02  0.59301941158E+02  0.49999994766E+02 0.  0.
        -12    1    1    2    0    0 -0.77831730189E+01  0.25000402218E+02  0.18196781451E+02  0.31886058842E+02  0.00000000000E+00 0.  1.
         11    1    3    3    0    0 -0.16973245449E+02 -0.20558168093E+01 -0.88120100427E+01  0.19234577330E+02  0.51100000000E-03 0.  1.
        -11    1    3    3    0    0  0.55609506790E+01 -0.48605419735E+01 -0.11437925207E+02  0.13615255195E+02  0.51100000000E-03 0. -1.
        -12    1    3    3    0    0  0.19195467789E+02 -0.18084043435E+02  0.20531537986E+01  0.26452108633E+02  0.00000000000E+00 0.  1.
</event>
<event>
 7    1  0.1101380E-011  0.5930194E+02  0.7816164E-02  0.1266605E+00
        -11   -1    0    0    0    0  0.00000000000E+00  0.00000000000E+00  0.45593999997E+02  0.45594000000E+02  0.51100000000E-03 0. -1.
         11   -1    0    0    0    0 -0.00000000000E+00 -0.00000000000E+00 -0.45593999997E+02  0.45594000000E+02  0.51100000000E-03 0.  1.
    9900012    2    1    2    0    0 -0.34528910510E+01 -0.13179311197E+02  0.28828872095E+02  0.59301944012E+02  0.49999999971E+02 0.  0.
        -12    1    1    2    0    0  0.34528910510E+01  0.13179311197E+02 -0.28828872095E+02  0.31886055988E+02  0.00000000000E+00 0.  1.
         11    1    3    3    0    0 -0.88806241678E+01  0.63286936040E+01  0.71992593611E+01  0.13067026592E+02  0.51100000000E-03 0. -1.
        -11    1    3    3    0    0 -0.17429711304E+01 -0.27029133434E+02  0.23277402317E+02  0.35713435308E+02  0.51100000000E-03 0.  1.
         12    1    3    3    0    0  0.71707042473E+01  0.75211286337E+01 -0.16477895837E+01  0.10521482112E+02  0.00000000000E+00 0. -1.
</event>
<event>
 7    1  0.1101380E-011  0.5930195E+02  0.7816164E-02  0.1266605E+00
        -11   -1    0    0    0    0  0.00000000000E+00  0.00000000000E+00  0.45593999997E+02  0.45594000000E+02  0.51100000000E-03 0. -1.
         11   -1    0    0    0    0 -0.00000000000E+00 -0.00000000000E+00 -0.45593999997E+02  0.45594000000E+02  0.51100000000E-03 0.  1.
    9900012    2    1    2    0    0  0.14945453435E+02 -0.25905635720E+00  0.28165347326E+02  0.59301945391E+02  0.50000002486E+02 0.  0.
        -12    1    1    2    0    0 -0.14945453435E+02  0.25905635720E+00 -0.28165347326E+02  0.31886054609E+02  0.00000000000E+00 0.  1.
         11    1    3    3    0    0  0.82797337469E+01  0.42039403480E+01 -0.11020697797E+02  0.14411206943E+02  0.51100000000E-03 0. -1.
        -11    1    3    3    0    0 -0.61245356163E+01  0.23433384813E+01  0.69874136390E+01  0.95825425319E+01  0.51100000000E-03 0.  1.
         12    1    3    3    0    0  0.12790255304E+02 -0.68063351865E+01  0.32198631483E+02  0.35308195916E+02  0.00000000000E+00 0. -1.
</event>
<event>
 7    1  0.1101380E-011  0.5930200E+02  0.7816164E-02  0.1266605E+00
        -11   -1    0    0    0    0  0.00000000000E+00  0.00000000000E+00  0.45593999997E+02  0.45594000000E+02  0.51100000000E-03 0. -1.
         11   -1    0    0    0    0 -0.00000000000E+00 -0.00000000000E+00 -0.45593999997E+02  0.45594000000E+02  0.51100000000E-03 0.  1.
    9900012    2    1    2    0    0 -0.22637583481E+02  0.21439725634E+02  0.66779664535E+01  0.59301995906E+02  0.50000094614E+02 0.  0.
        -12    1    1    2    0    0  0.22637583481E+02 -0.21439725634E+02 -0.66779664535E+01  0.31886004094E+02  0.00000000000E+00 0.  1.
         11    1    3    3    0    0 -0.14251007436E+02  0.10727951606E+02 -0.10151472126E+02  0.20523950526E+02  0.51100000000E-03 0.  1.
        -11    1    3    3    0    0  0.97190246347E+01  0.13478975791E+02  0.77796543644E+01  0.18348440002E+02  0.51100000000E-03 0. -1.
         12    1    3    3    0    0 -0.18105600680E+02 -0.27672017631E+01  0.90497842147E+01  0.20429605378E+02  0.00000000000E+00 0. -1.
</event>
<event>
 7    1  0.1101380E-011  0.5930188E+02  0.7816164E-02  0.1266605E+00
        -11   -1    0    0    0    0  0.00000000000E+00  0.00000000000E+00  0.45593999997E+02  0.45594000000E+02  0.51100000000E-03 0.  1.
         11   -1    0    0    0    0 -0.00000000000E+00 -0.00000000000E+00 -0.45593999997E+02  0.45594000000E+02  0.51100000000E-03 0. -1.
    9900012    2    1    2    0    0 -0.20082811323E+02  0.24060929714E+02  0.58716935768E+01  0.59301883354E+02  0.49999889345E+02 0.  0.
        -12    1    1    2    0    0  0.20082811323E+02 -0.24060929714E+02 -0.58716935768E+01  0.31886116646E+02  0.00000000000E+00 0.  1.
         11    1    3    3    0    0  0.66561977437E+01  0.11675156433E+02 -0.47434151555E+01  0.14251815103E+02  0.51100000000E-03 0. -1.
        -11    1    3    3    0    0  0.36319608457E+01 -0.46044760774E+01 -0.42144516843E+01  0.72217686748E+01  0.51100000000E-03 0.  1.
        -12    1    3    3    0    0 -0.30370969912E+02  0.16990249358E+02  0.14829560417E+02  0.37828299576E+02  0.00000000000E+00 0.  1.
</event>
<event>
 7    1  0.1101380E-011  0.5930192E+02  0.7816164E-02  0.1266605E+00
        -11   -1    0    0    0    0  0.00000000000E+00  0.00000000000E+00  0.45593999997E+02  0.45594000000E+02  0.51100000000E-03 0.  1.
         11   -1    0    0    0    0 -0.00000000000E+00 -0.00000000000E+00 -0.45593999997E+02  0.45594000000E+02  0.51100000000E-03 0. -1.
    9900012    2    1    2    0    0  0.29374330163E+02 -0.28823005040E+00  0.12401125082E+02  0.59301917576E+02  0.49999951758E+02 0.  0.
        -12    1    1    2    0    0 -0.29374330163E+02  0.28823005040E+00 -0.12401125082E+02  0.31886082424E+02  0.00000000000E+00 0.  1.
         11    1    3    3    0    0  0.69405995218E+01 -0.19553712151E+02  0.28436500513E+01  0.20942920677E+02  0.51100000000E-03 0. -1.
        -11    1    3    3    0    0  0.28357578738E+01 -0.49734555976E+01  0.31577201830E+01  0.65381939644E+01  0.51100000000E-03 0.  1.
         12    1    3    3    0    0  0.19597972767E+02  0.24238937698E+02  0.63997548473E+01  0.31820802935E+02  0.00000000000E+00 0. -1.
</event>
<event>
 7    1  0.1101380E-011  0.5930195E+02  0.7816164E-02  0.1266605E+00
        -11   -1    0    0    0    0  0.00000000000E+00  0.00000000000E+00  0.45593999997E+02  0.45594000000E+02  0.51100000000E-03 0.  1.
         11   -1    0    0    0    0 -0.00000000000E+00 -0.00000000000E+00 -0.45593999997E+02  0.45594000000E+02  0.51100000000E-03 0. -1.
    9900012    2    1    2    0    0  0.18627713322E+02  0.19113277881E+02 -0.17447385376E+02  0.59301947384E+02  0.50000006121E+02 0.  0.
        -12    1    1    2    0    0 -0.18627713322E+02 -0.19113277881E+02  0.17447385376E+02  0.31886052616E+02  0.00000000000E+00 0.  1.
         11    1    3    3    0    0  0.18313720645E+02  0.26792075651E+01 -0.24901829635E+02  0.31026950163E+02  0.51100000000E-03 0. -1.
        -11    1    3    3    0    0  0.20934261452E+01 -0.51754952591E+01  0.12330505831E+01  0.57173943544E+01  0.51100000000E-03 0.  1.
         12    1    3    3    0    0 -0.17794334678E+01  0.21609565575E+02  0.62213936756E+01  0.22557602866E+02  0.00000000000E+00 0. -1.
</event>
<event>
 7    1  0.1101380E-011  0.5930210E+02  0.7816164E-02  0.1266604E+00
        -11   -1    0    0    0    0  0.00000000000E+00  0.00000000000E+00  0.45593999997E+02  0.45594000000E+02  0.51100000000E-03 0.  1.
         11   -1    0    0    0    0 -0.00000000000E+00 -0.00000000000E+00 -0.45593999997E+02  0.45594000000E+02  0.51100000000E-03 0. -1.
    9900012    2    1    2    0    0  0.41330033765E+01 -0.21044542337E+01 -0.31546789997E+02  0.59302103374E+02  0.50000290608E+02 0.  0.
        -12    1    1    2    0    0 -0.41330033765E+01  0.21044542337E+01  0.31546789997E+02  0.31885896626E+02  0.00000000000E+00 0.  1.
         11    1    3    3    0    0 -0.49261031543E+01 -0.12424857551E+02 -0.35475929693E+02  0.37910225076E+02  0.51100000000E-03 0. -1.
        -11    1    3    3    0    0 -0.33472837523E+01  0.94280703305E-01  0.41248927034E+01  0.53129970304E+01  0.51100000000E-03 0.  1.
        -12    1    3    3    0    0  0.12406390283E+02  0.10226122614E+02 -0.19575300753E+00  0.16078881267E+02  0.00000000000E+00 0.  1.
</event>
<event>
 7    1  0.1101380E-011  0.5930192E+02  0.7816164E-02  0.1266605E+00
        -11   -1    0    0    0    0  0.00000000000E+00  0.00000000000E+00  0.45593999997E+02  0.45594000000E+02  0.51100000000E-03 0.  1.
         11   -1    0    0    0    0 -0.00000000000E+00 -0.00000000000E+00 -0.45593999997E+02  0.45594000000E+02  0.51100000000E-03 0. -1.
    9900012    2    1    2    0    0  0.38240660266E+01 -0.27737746214E+02 -0.15255029812E+02  0.59301921837E+02  0.49999959530E+02 0.  0.
        -12    1    1    2    0    0 -0.38240660266E+01  0.27737746214E+02  0.15255029812E+02  0.31886078163E+02  0.00000000000E+00 0.  1.
         11    1    3    3    0    0  0.15825367435E+02 -0.23742725177E+01 -0.79023777702E+01  0.17847324705E+02  0.51100000000E-03 0. -1.
        -11    1    3    3    0    0  0.35363286706E+00  0.61914925371E+01  0.15996612302E+01  0.64045727691E+01  0.51100000000E-03 0.  1.
        -12    1    3    3    0    0 -0.12354934275E+02 -0.31554966234E+02 -0.89523132718E+01  0.35050024364E+02  0.00000000000E+00 0.  1.
</event>
<event>
 7    1  0.1101380E-011  0.5930194E+02  0.7816164E-02  0.1266605E+00
        -11   -1    0    0    0    0  0.00000000000E+00  0.00000000000E+00  0.45593999997E+02  0.45594000000E+02  0.51100000000E-03 0.  1.
         11   -1    0    0    0    0 -0.00000000000E+00 -0.00000000000E+00 -0.45593999997E+02  0.45594000000E+02  0.51100000000E-03 0. -1.
    9900012    2    1    2    0    0  0.28421453601E+02 -0.12216646188E+02  0.77262804053E+01  0.59301939131E+02  0.49999991070E+02 0.  0.
        -12    1    1    2    0    0 -0.28421453601E+02  0.12216646188E+02 -0.77262804053E+01  0.31886060869E+02  0.00000000000E+00 0.  1.
         11    1    3    3    0    0  0.74980395266E+01  0.71438286623E+01 -0.67613909544E+01  0.12368156394E+02  0.51100000000E-03 0. -1.
        -11    1    3    3    0    0 -0.73842512360E+01  0.17111867650E+01  0.80591211457E+01  0.11063668486E+02  0.51100000000E-03 0.  1.
         12    1    3    3    0    0  0.28307665310E+02 -0.21071661615E+02  0.64285502140E+01  0.35870114251E+02  0.00000000000E+00 0. -1.
</event>
<event>
 7    1  0.1101380E-011  0.5930194E+02  0.7816164E-02  0.1266605E+00
        -11   -1    0    0    0    0  0.00000000000E+00  0.00000000000E+00  0.45593999997E+02  0.45594000000E+02  0.51100000000E-03 0.  1.
         11   -1    0    0    0    0 -0.00000000000E+00 -0.00000000000E+00 -0.45593999997E+02  0.45594000000E+02  0.51100000000E-03 0. -1.
    9900012    2    1    2    0    0 -0.76343026460E+01 -0.21431250239E+01 -0.30884388497E+02  0.59301936985E+02  0.49999987156E+02 0.  0.
        -12    1    1    2    0    0  0.76343026460E+01  0.21431250239E+01  0.30884388497E+02  0.31886063015E+02  0.00000000000E+00 0.  1.
         11    1    3    3    0    0 -0.15872496748E+01 -0.23960087228E+01 -0.19104398479E+02  0.19319375270E+02  0.51100000000E-03 0. -1.
        -11    1    3    3    0    0 -0.21894284175E+02  0.20358749390E+01 -0.91653171648E+01  0.23822416025E+02  0.51100000000E-03 0.  1.
        -12    1    3    3    0    0  0.15847231204E+02 -0.17829912401E+01 -0.26146728528E+01  0.16160145690E+02  0.00000000000E+00 0.  1.
</event>
<event>
 7    1  0.1101380E-011  0.5930196E+02  0.7816164E-02  0.1266605E+00
        -11   -1    0    0    0    0  0.00000000000E+00  0.00000000000E+00  0.45593999997E+02  0.45594000000E+02  0.51100000000E-03 0.  1.
         11   -1    0    0    0    0 -0.00000000000E+00 -0.00000000000E+00 -0.45593999997E+02  0.45594000000E+02  0.51100000000E-03 0. -1.
    9900012    2    1    2    0    0  0.21196085962E+02  0.20538498269E+02 -0.12067120128E+02  0.59301962939E+02  0.50000034489E+02 0.  0.
        -12    1    1    2    0    0 -0.21196085962E+02 -0.20538498269E+02  0.12067120128E+02  0.31886037061E+02  0.00000000000E+00 0.  1.
         11    1    3    3    0    0  0.60018195342E+01 -0.17340166838E+01  0.66531127997E+01  0.91264758679E+01  0.51100000000E-03 0. -1.
        -11    1    3    3    0    0  0.23639765647E+02  0.12413858336E+01 -0.71451899455E+01  0.24727177320E+02  0.51100000000E-03 0.  1.
        -12    1    3    3    0    0 -0.84454992189E+01  0.21031129120E+02 -0.11575042983E+02  0.25448309750E+02  0.00000000000E+00 0.  1.
</event>
<event>
 7    1  0.1101380E-011  0.5930194E+02  0.7816164E-02  0.1266605E+00
        -11   -1    0    0    0    0  0.00000000000E+00  0.00000000000E+00  0.45593999997E+02  0.45594000000E+02  0.51100000000E-03 0.  1.
         11   -1    0    0    0    0 -0.00000000000E+00 -0.00000000000E+00 -0.45593999997E+02  0.45594000000E+02  0.51100000000E-03 0. -1.
    9900012    2    1    2    0    0 -0.90257625905E+01  0.51375476562E+01 -0.30147334164E+02  0.59301944373E+02  0.50000000630E+02 0.  0.
        -12    1    1    2    0    0  0.90257625905E+01 -0.51375476562E+01  0.30147334164E+02  0.31886055627E+02  0.00000000000E+00 0.  1.
         11    1    3    3    0    0 -0.53532147869E+01  0.94889736310E+01 -0.13988727322E+02  0.17730821230E+02  0.51100000000E-03 0. -1.
        -11    1    3    3    0    0 -0.13547831119E+02  0.91831531815E+01  0.24300246796E+01  0.16546269990E+02  0.51100000000E-03 0.  1.
        -12    1    3    3    0    0  0.98752833158E+01 -0.13534579156E+02 -0.18588631521E+02  0.25024853153E+02  0.00000000000E+00 0.  1.
</event>
<event>
 7    1  0.1101380E-011  0.5930189E+02  0.7816164E-02  0.1266605E+00
        -11   -1    0    0    0    0  0.00000000000E+00  0.00000000000E+00  0.45593999997E+02  0.45594000000E+02  0.51100000000E-03 0.  1.
         11   -1    0    0    0    0 -0.00000000000E+00 -0.00000000000E+00 -0.45593999997E+02  0.45594000000E+02  0.51100000000E-03 0. -1.
    9900012    2    1    2    0    0  0.93017504674E+01 -0.58059222308E+01 -0.29941492416E+02  0.59301886050E+02  0.49999894263E+02 0.  0.
        -12    1    1    2    0    0 -0.93017504674E+01  0.58059222308E+01  0.29941492416E+02  0.31886113950E+02  0.00000000000E+00 0.  1.
         11    1    3    3    0    0 -0.34113836487E+01 -0.20275554301E+01 -0.63508262320E+01  0.74887591436E+01  0.51100000000E-03 0. -1.
        -11    1    3    3    0    0 -0.10584124958E+01  0.48137996453E+01 -0.32788040855E+02  0.33156425131E+02  0.51100000000E-03 0.  1.
        -12    1    3    3    0    0  0.13771546612E+02 -0.85921664460E+01  0.91973746711E+01  0.18656701776E+02  0.00000000000E+00 0.  1.
</event>
<event>
 7    1  0.1101380E-011  0.5930190E+02  0.7816164E-02  0.1266605E+00
        -11   -1    0    0    0    0  0.00000000000E+00  0.00000000000E+00  0.45593999997E+02  0.45594000000E+02  0.51100000000E-03 0.  1.
         11   -1    0    0    0    0 -0.00000000000E+00 -0.00000000000E+00 -0.45593999997E+02  0.45594000000E+02  0.51100000000E-03 0. -1.
    9900012    2    1    2    0    0 -0.15491642705E+02  0.17013406170E+02 -0.22074333541E+02  0.59301902960E+02  0.49999925101E+02 0.  0.
        -12    1    1    2    0    0  0.15491642705E+02 -0.17013406170E+02  0.22074333541E+02  0.31886097040E+02  0.00000000000E+00 0.  1.
         11    1    3    3    0    0  0.27802434149E+01 -0.53749877003E+01 -0.18318526869E+02  0.19292192025E+02  0.51100000000E-03 0. -1.
        -11    1    3    3    0    0 -0.20132835740E+02  0.39245584848E+01  0.19259784745E+01  0.20602005426E+02  0.51100000000E-03 0.  1.
        -12    1    3    3    0    0  0.18609496201E+01  0.18463835386E+02 -0.56817851459E+01  0.19407705508E+02  0.00000000000E+00 0.  1.
</event>
<event>
 7    1  0.1101380E-011  0.5930192E+02  0.7816164E-02  0.1266605E+00
        -11   -1    0    0    0    0  0.00000000000E+00  0.00000000000E+00  0.45593999997E+02  0.45594000000E+02  0.51100000000E-03 0. -1.
         11   -1    0    0    0    0 -0.00000000000E+00 -0.00000000000E+00 -0.45593999997E+02  0.45594000000E+02  0.51100000000E-03 0.  1.
    9900012    2    1    2    0    0  0.11283771398E+02  0.11684919504E+02  0.27438312213E+02  0.59301924389E+02  0.49999964183E+02 0.  0.
        -12    1    1    2    0    0 -0.11283771398E+02 -0.11684919504E+02 -0.27438312213E+02  0.31886075611E+02  0.00000000000E+00 0.  1.
         11    1    3    3    0    0  0.21005009265E+02  0.37769373531E+01  0.12688079855E+02  0.24828673759E+02  0.51100000000E-03 0. -1.
        -11    1    3    3    0    0  0.54410971371E+01  0.89845381160E+00  0.16764305932E+02  0.17648079526E+02  0.51100000000E-03 0.  1.
        -12    1    3    3    0    0 -0.15162335004E+02  0.70095283397E+01 -0.20140735733E+01  0.16825171104E+02  0.00000000000E+00 0.  1.
</event>
<event>
 7    1  0.1101380E-011  0.5930195E+02  0.7816164E-02  0.1266605E+00
        -11   -1    0    0    0    0  0.00000000000E+00  0.00000000000E+00  0.45593999997E+02  0.45594000000E+02  0.51100000000E-03 0. -1.
         11   -1    0    0    0    0 -0.00000000000E+00 -0.00000000000E+00 -0.45593999997E+02  0.45594000000E+02  0.51100000000E-03 0.  1.
    9900012    2    1    2    0    0 -0.14913302139E+02 -0.22707674545E+02  0.16693572492E+02  0.59301946207E+02  0.50000003974E+02 0.  0.
        -12    1    1    2    0    0  0.14913302139E+02  0.22707674545E+02 -0.16693572492E+02  0.31886053793E+02  0.00000000000E+00 0.  1.
         11    1    3    3    0    0  0.10972328210E+02 -0.87880971206E+01 -0.22958615658E+01  0.14244073081E+02  0.51100000000E-03 0. -1.
        -11    1    3    3    0    0  0.31722183298E+01 -0.10863557453E+02  0.79196661023E+01  0.13813072110E+02  0.51100000000E-03 0.  1.
        -12    1    3    3    0    0 -0.29057848679E+02 -0.30560199716E+01  0.11069767955E+02  0.31244801016E+02  0.00000000000E+00 0.  1.
</event>
<event>
 7    1  0.1101380E-011  0.5930193E+02  0.7816164E-02  0.1266605E+00
        -11   -1    0    0    0    0  0.00000000000E+00  0.00000000000E+00  0.45593999997E+02  0.45594000000E+02  0.51100000000E-03 0.  1.
         11   -1    0    0    0    0 -0.00000000000E+00 -0.00000000000E+00 -0.45593999997E+02  0.45594000000E+02  0.51100000000E-03 0. -1.
    9900012    2    1    2    0    0  0.15791471720E+02  0.84098477152E+01 -0.26393660412E+02  0.59301930508E+02  0.49999975344E+02 0.  0.
        -12    1    1    2    0    0 -0.15791471720E+02 -0.84098477152E+01  0.26393660412E+02  0.31886069492E+02  0.00000000000E+00 0.  1.
         11    1    3    3    0    0 -0.59982496913E+01  0.35704486290E+01 -0.88808669383E+01  0.11295879807E+02  0.51100000000E-03 0. -1.
        -11    1    3    3    0    0 -0.23441952356E+01  0.10318214337E+02  0.73831005260E+01  0.12902363041E+02  0.51100000000E-03 0.  1.
         12    1    3    3    0    0  0.24133916647E+02 -0.54788152508E+01 -0.24895894000E+02  0.35103687660E+02  0.00000000000E+00 0. -1.
</event>
<event>
 7    1  0.1101380E-011  0.5930193E+02  0.7816164E-02  0.1266605E+00
        -11   -1    0    0    0    0  0.00000000000E+00  0.00000000000E+00  0.45593999997E+02  0.45594000000E+02  0.51100000000E-03 0.  1.
         11   -1    0    0    0    0 -0.00000000000E+00 -0.00000000000E+00 -0.45593999997E+02  0.45594000000E+02  0.51100000000E-03 0. -1.
    9900012    2    1    2    0    0  0.20266796878E+02  0.12169356462E+01 -0.24586523820E+02  0.59301934994E+02  0.49999983524E+02 0.  0.
        -12    1    1    2    0    0 -0.20266796878E+02 -0.12169356462E+01  0.24586523820E+02  0.31886065006E+02  0.00000000000E+00 0.  1.
         11    1    3    3    0    0  0.31465678517E+02  0.61374334779E+01 -0.20089367701E+02  0.37833050487E+02  0.51100000000E-03 0. -1.
        -11    1    3    3    0    0 -0.37532759733E+01 -0.25275898172E+00 -0.10281630855E+02  0.10948191674E+02  0.51100000000E-03 0.  1.
        -12    1    3    3    0    0 -0.74456056661E+01 -0.46677388500E+01  0.57844747362E+01  0.10520692833E+02  0.00000000000E+00 0.  1.
</event>
<event>
 7    1  0.1101380E-011  0.5930191E+02  0.7816164E-02  0.1266605E+00
        -11   -1    0    0    0    0  0.00000000000E+00  0.00000000000E+00  0.45593999997E+02  0.45594000000E+02  0.51100000000E-03 0.  1.
         11   -1    0    0    0    0 -0.00000000000E+00 -0.00000000000E+00 -0.45593999997E+02  0.45594000000E+02  0.51100000000E-03 0. -1.
    9900012    2    1    2    0    0 -0.13995587100E+01  0.15014564307E+02 -0.28094960602E+02  0.59301910288E+02  0.49999938466E+02 0.  0.
        -12    1    1    2    0    0  0.13995587100E+01 -0.15014564307E+02  0.28094960602E+02  0.31886089712E+02  0.00000000000E+00 0.  1.
         11    1    3    3    0    0 -0.62264440345E+00 -0.11329123306E+02 -0.17964791884E+02  0.21247834446E+02  0.51100000000E-03 0. -1.
        -11    1    3    3    0    0 -0.36135515901E+01  0.20614511937E+02 -0.18216220113E+02  0.27746108429E+02  0.51100000000E-03 0.  1.
        -12    1    3    3    0    0  0.28366372835E+01  0.57291756761E+01  0.80860513950E+01  0.10307967412E+02  0.00000000000E+00 0.  1.
</event>
<event>
 7    1  0.1101380E-011  0.5930194E+02  0.7816164E-02  0.1266605E+00
        -11   -1    0    0    0    0  0.00000000000E+00  0.00000000000E+00  0.45593999997E+02  0.45594000000E+02  0.51100000000E-03 0.  1.
         11   -1    0    0    0    0 -0.00000000000E+00 -0.00000000000E+00 -0.45593999997E+02  0.45594000000E+02  0.51100000000E-03 0. -1.
    9900012    2    1    2    0    0  0.23848134972E+02 -0.61550728807E+01 -0.20250982001E+02  0.59301941357E+02  0.49999995129E+02 0.  0.
        -12    1    1    2    0    0 -0.23848134972E+02  0.61550728807E+01  0.20250982001E+02  0.31886058643E+02  0.00000000000E+00 0.  1.
         11    1    3    3    0    0 -0.67545690007E+01  0.50466564514E+01 -0.79343562375E+01  0.11577864781E+02  0.51100000000E-03 0. -1.
        -11    1    3    3    0    0  0.22386006336E+02  0.91303303227E+01 -0.62718533939E+01  0.24976636217E+02  0.51100000000E-03 0.  1.
        -12    1    3    3    0    0  0.82166976364E+01 -0.20332059655E+02 -0.60447723693E+01  0.22747440358E+02  0.00000000000E+00 0.  1.
</event>
<event>
 7    1  0.1101380E-011  0.5930195E+02  0.7816164E-02  0.1266605E+00
        -11   -1    0    0    0    0  0.00000000000E+00  0.00000000000E+00  0.45593999997E+02  0.45594000000E+02  0.51100000000E-03 0.  1.
         11   -1    0    0    0    0 -0.00000000000E+00 -0.00000000000E+00 -0.45593999997E+02  0.45594000000E+02  0.51100000000E-03 0. -1.
    9900012    2    1    2    0    0  0.13111309930E+02  0.13594415161E+02 -0.25690570523E+02  0.59301953123E+02  0.50000016587E+02 0.  0.
        -12    1    1    2    0    0 -0.13111309930E+02 -0.13594415161E+02  0.25690570523E+02  0.31886046877E+02  0.00000000000E+00 0.  1.
         11    1    3    3    0    0 -0.10233742450E+02  0.15758388987E+01 -0.13201601571E+01  0.10438178762E+02  0.51100000000E-03 0. -1.
        -11    1    3    3    0    0 -0.32556384042E+01  0.51171391372E+01  0.55619203245E+01  0.82291708164E+01  0.51100000000E-03 0.  1.
         12    1    3    3    0    0  0.26600690784E+02  0.69014371254E+01 -0.29932330691E+02  0.40634603544E+02  0.00000000000E+00 0. -1.
</event>
<event>
 7    1  0.1101380E-011  0.5930193E+02  0.7816164E-02  0.1266605E+00
        -11   -1    0    0    0    0  0.00000000000E+00  0.00000000000E+00  0.45593999997E+02  0.45594000000E+02  0.51100000000E-03 0.  1.
         11   -1    0    0    0    0 -0.00000000000E+00 -0.00000000000E+00 -0.45593999997E+02  0.45594000000E+02  0.51100000000E-03 0. -1.
    9900012    2    1    2    0    0  0.20440259775E+02  0.24465846217E+02  0.58293206107E+00  0.59301926856E+02  0.49999968682E+02 0.  0.
        -12    1    1    2    0    0 -0.20440259775E+02 -0.24465846217E+02 -0.58293206107E+00  0.31886073144E+02  0.00000000000E+00 0.  1.
         11    1    3    3    0    0  0.73428939734E+01  0.55701509831E+00 -0.17579290255E+02  0.19059375747E+02  0.51100000000E-03 0. -1.
        -11    1    3    3    0    0  0.11361902352E+02  0.80061476078E+00  0.10551456260E+01  0.11438843543E+02  0.51100000000E-03 0.  1.
        -12    1    3    3    0    0  0.17354634494E+01  0.23108216358E+02  0.17107076690E+02  0.28803707565E+02  0.00000000000E+00 0.  1.
</event>
<event>
 7    1  0.1101380E-011  0.5930197E+02  0.7816164E-02  0.1266605E+00
        -11   -1    0    0    0    0  0.00000000000E+00  0.00000000000E+00  0.45593999997E+02  0.45594000000E+02  0.51100000000E-03 0.  1.
         11   -1    0    0    0    0 -0.00000000000E+00 -0.00000000000E+00 -0.45593999997E+02  0.45594000000E+02  0.51100000000E-03 0. -1.
    9900012    2    1    2    0    0  0.19170749517E+02  0.23787366466E+02 -0.91303152963E+01  0.59301967041E+02  0.50000041971E+02 0.  0.
        -12    1    1    2    0    0 -0.19170749517E+02 -0.23787366466E+02  0.91303152963E+01  0.31886032959E+02  0.00000000000E+00 0.  1.
         11    1    3    3    0    0  0.59556445261E+01  0.26508432194E+02  0.74425021506E+01  0.28170152958E+02  0.51100000000E-03 0. -1.
        -11    1    3    3    0    0 -0.44778887779E+01  0.45375584987E+01 -0.96607083196E+00  0.64478072358E+01  0.51100000000E-03 0.  1.
        -12    1    3    3    0    0  0.17692993769E+02 -0.72586242272E+01 -0.15606746615E+02  0.24684006848E+02  0.00000000000E+00 0.  1.
</event>
<event>
 7    1  0.1101380E-011  0.5930196E+02  0.7816164E-02  0.1266605E+00
        -11   -1    0    0    0    0  0.00000000000E+00  0.00000000000E+00  0.45593999997E+02  0.45594000000E+02  0.51100000000E-03 0. -1.
         11   -1    0    0    0    0 -0.00000000000E+00 -0.00000000000E+00 -0.45593999997E+02  0.45594000000E+02  0.51100000000E-03 0.  1.
    9900012    2    1    2    0    0  0.15678773423E+02 -0.57262974805E+01  0.27168087241E+02  0.59301962566E+02  0.50000033809E+02 0.  0.
        -12    1    1    2    0    0 -0.15678773423E+02  0.57262974805E+01 -0.27168087241E+02  0.31886037434E+02  0.00000000000E+00 0.  1.
         11    1    3    3    0    0  0.47186624630E+00 -0.20925191506E+02  0.14506702704E+02  0.25466266332E+02  0.51100000000E-03 0. -1.
        -11    1    3    3    0    0 -0.28938959059E+01  0.12206727391E+01  0.10388824867E+02  0.10853218777E+02  0.51100000000E-03 0.  1.
        -12    1    3    3    0    0  0.18100803083E+02  0.13978221286E+02  0.22725596709E+01  0.22982477457E+02  0.00000000000E+00 0.  1.
</event>
<event>
 7    1  0.1101380E-011  0.5930173E+02  0.7816164E-02  0.1266606E+00
        -11   -1    0    0    0    0  0.00000000000E+00  0.00000000000E+00  0.45593999997E+02  0.45594000000E+02  0.51100000000E-03 0. -1.
         11   -1    0    0    0    0 -0.00000000000E+00 -0.00000000000E+00 -0.45593999997E+02  0.45594000000E+02  0.51100000000E-03 0.  1.
    9900012    2    1    2    0    0  0.27618917484E+01 -0.28574459742E+02 -0.13878274656E+02  0.59301728613E+02  0.49999607133E+02 0.  0.
        -12    1    1    2    0    0 -0.27618917484E+01  0.28574459742E+02  0.13878274656E+02  0.31886271387E+02  0.00000000000E+00 0.  1.
         11    1    3    3    0    0  0.11737426409E+02 -0.24360941855E+02  0.83745361837E+00  0.27054093879E+02  0.51100000000E-03 0.  1.
        -11    1    3    3    0    0 -0.40483968306E+01 -0.15591738947E+02 -0.10121557363E+02  0.19024661994E+02  0.51100000000E-03 0. -1.
        -12    1    3    3    0    0 -0.49271378298E+01  0.11378221061E+02 -0.45941709114E+01  0.13222972739E+02  0.00000000000E+00 0.  1.
</event>
<event>
 7    1  0.1101380E-011  0.5930196E+02  0.7816164E-02  0.1266605E+00
        -11   -1    0    0    0    0  0.00000000000E+00  0.00000000000E+00  0.45593999997E+02  0.45594000000E+02  0.51100000000E-03 0. -1.
         11   -1    0    0    0    0 -0.00000000000E+00 -0.00000000000E+00 -0.45593999997E+02  0.45594000000E+02  0.51100000000E-03 0.  1.
    9900012    2    1    2    0    0 -0.19031242011E+02 -0.20735643376E+02  0.14985480444E+02  0.59301957554E+02  0.50000024668E+02 0.  0.
        -12    1    1    2    0    0  0.19031242011E+02  0.20735643376E+02 -0.14985480444E+02  0.31886042446E+02  0.00000000000E+00 0.  1.
         11    1    3    3    0    0 -0.15068125199E+02  0.93639723863E-01 -0.33592470648E+01  0.15438319420E+02  0.51100000000E-03 0. -1.
        -11    1    3    3    0    0 -0.28881332959E+01  0.92285516360E+01  0.57948889986E+01  0.11273341031E+02  0.51100000000E-03 0.  1.
         12    1    3    3    0    0 -0.10749835161E+01 -0.30057834736E+02  0.12549838510E+02  0.32590297103E+02  0.00000000000E+00 0. -1.
</event>
<event>
 7    1  0.1101380E-011  0.5930192E+02  0.7816164E-02  0.1266605E+00
        -11   -1    0    0    0    0  0.00000000000E+00  0.00000000000E+00  0.45593999997E+02  0.45594000000E+02  0.51100000000E-03 0.  1.
         11   -1    0    0    0    0 -0.00000000000E+00 -0.00000000000E+00 -0.45593999997E+02  0.45594000000E+02  0.51100000000E-03 0. -1.
    9900012    2    1    2    0    0  0.82113810651E+01  0.23012923417E+02 -0.20486603404E+02  0.59301916166E+02  0.49999949188E+02 0.  0.
        -12    1    1    2    0    0 -0.82113810651E+01 -0.23012923417E+02  0.20486603404E+02  0.31886083834E+02  0.00000000000E+00 0.  1.
         11    1    3    3    0    0 -0.23541197862E+01 -0.70744535701E+01  0.27270034688E+00  0.74608403698E+01  0.51100000000E-03 0. -1.
        -11    1    3    3    0    0  0.13773362519E+01 -0.56727696111E+01 -0.12804180349E+02  0.14072114442E+02  0.51100000000E-03 0.  1.
         12    1    3    3    0    0  0.91881645995E+01  0.35760146599E+02 -0.79551234024E+01  0.37768961355E+02  0.00000000000E+00 0. -1.
</event>
<event>
 7    1  0.1101380E-011  0.5930193E+02  0.7816164E-02  0.1266605E+00
        -11   -1    0    0    0    0  0.00000000000E+00  0.00000000000E+00  0.45593999997E+02  0.45594000000E+02  0.51100000000E-03 0.  1.
         11   -1    0    0    0    0 -0.00000000000E+00 -0.00000000000E+00 -0.45593999997E+02  0.45594000000E+02  0.51100000000E-03 0. -1.
    9900012    2    1    2    0    0  0.75739946526E+01  0.90816403608E+01 -0.29612158350E+02  0.59301929236E+02  0.49999973023E+02 0.  0.
        -12    1    1    2    0    0 -0.75739946526E+01 -0.90816403608E+01  0.29612158350E+02  0.31886070764E+02  0.00000000000E+00 0.  1.
         11    1    3    3    0    0  0.14458396420E+00  0.11423724072E+01 -0.84575484618E+01  0.85355752872E+01  0.51100000000E-03 0. -1.
        -11    1    3    3    0    0 -0.12007935563E+02 -0.12814903255E+02 -0.10094632178E+02  0.20256205493E+02  0.51100000000E-03 0.  1.
        -12    1    3    3    0    0  0.19437346251E+02  0.20754171208E+02 -0.11059977710E+02  0.30510148456E+02  0.00000000000E+00 0.  1.
</event>
<event>
 7    1  0.1101380E-011  0.5930197E+02  0.7816164E-02  0.1266605E+00
        -11   -1    0    0    0    0  0.00000000000E+00  0.00000000000E+00  0.45593999997E+02  0.45594000000E+02  0.51100000000E-03 0.  1.
         11   -1    0    0    0    0 -0.00000000000E+00 -0.00000000000E+00 -0.45593999997E+02  0.45594000000E+02  0.51100000000E-03 0. -1.
    9900012    2    1    2    0    0 -0.31188641037E+02  0.60299957687E+01 -0.27616208997E+01  0.59301972830E+02  0.50000052528E+02 0.  0.
        -12    1    1    2    0    0  0.31188641037E+02 -0.60299957687E+01  0.27616208997E+01  0.31886027170E+02  0.00000000000E+00 0.  1.
         11    1    3    3    0    0  0.28623678531E+01 -0.34388523773E+01  0.35935159712E+01  0.57386594859E+01  0.51100000000E-03 0. -1.
        -11    1    3    3    0    0 -0.29569505330E+02  0.14499656574E+02  0.11179395529E+02  0.34778938611E+02  0.51100000000E-03 0.  1.
         12    1    3    3    0    0 -0.44815035599E+01 -0.50308084282E+01 -0.17534532400E+02  0.18784374733E+02  0.00000000000E+00 0. -1.
</event>
<event>
 7    1  0.1101380E-011  0.5930194E+02  0.7816164E-02  0.1266605E+00
        -11   -1    0    0    0    0  0.00000000000E+00  0.00000000000E+00  0.45593999997E+02  0.45594000000E+02  0.51100000000E-03 0. -1.
         11   -1    0    0    0    0 -0.00000000000E+00 -0.00000000000E+00 -0.45593999997E+02  0.45594000000E+02  0.51100000000E-03 0.  1.
    9900012    2    1    2    0    0 -0.39026494068E+01  0.26551114368E+02 -0.17219994394E+02  0.59301944215E+02  0.50000000342E+02 0.  0.
        -12    1    1    2    0    0  0.39026494068E+01 -0.26551114368E+02  0.17219994394E+02  0.31886055785E+02  0.00000000000E+00 0.  1.
         11    1    3    3    0    0 -0.16268799608E+02  0.18761324425E+02 -0.59693341290E+01  0.25540048651E+02  0.51100000000E-03 0. -1.
        -11    1    3    3    0    0 -0.44945685721E+01 -0.48650629984E+01  0.40044191369E+01  0.77398551351E+01  0.51100000000E-03 0.  1.
         12    1    3    3    0    0  0.16860718774E+02  0.12654852942E+02 -0.15255079402E+02  0.26022040429E+02  0.00000000000E+00 0. -1.
</event>
<event>
 7    1  0.1101380E-011  0.5930193E+02  0.7816164E-02  0.1266605E+00
        -11   -1    0    0    0    0  0.00000000000E+00  0.00000000000E+00  0.45593999997E+02  0.45594000000E+02  0.51100000000E-03 0.  1.
         11   -1    0    0    0    0 -0.00000000000E+00 -0.00000000000E+00 -0.45593999997E+02  0.45594000000E+02  0.51100000000E-03 0. -1.
    9900012    2    1    2    0    0 -0.21296036341E+02 -0.97266920606E+00 -0.23711895830E+02  0.59301933245E+02  0.49999980335E+02 0.  0.
        -12    1    1    2    0    0  0.21296036341E+02  0.97266920606E+00  0.23711895830E+02  0.31886066755E+02  0.00000000000E+00 0.  1.
         11    1    3    3    0    0 -0.39286467822E+01  0.11459388163E+02 -0.16706456485E+02  0.20636315833E+02  0.51100000000E-03 0. -1.
        -11    1    3    3    0    0 -0.80661381055E+01  0.61423579412E+01  0.81033927902E+01  0.12979064681E+02  0.51100000000E-03 0.  1.
        -12    1    3    3    0    0 -0.93012514539E+01 -0.18574415310E+02 -0.15108832136E+02  0.25686552732E+02  0.00000000000E+00 0.  1.
</event>
<event>
 7    1  0.1101380E-011  0.5930197E+02  0.7816164E-02  0.1266605E+00
        -11   -1    0    0    0    0  0.00000000000E+00  0.00000000000E+00  0.45593999997E+02  0.45594000000E+02  0.51100000000E-03 0.  1.
         11   -1    0    0    0    0 -0.00000000000E+00 -0.00000000000E+00 -0.45593999997E+02  0.45594000000E+02  0.51100000000E-03 0. -1.
    9900012    2    1    2    0    0  0.21594677989E+02 -0.44907277795E+01 -0.23026558844E+02  0.59301965979E+02  0.50000040033E+02 0.  0.
        -12    1    1    2    0    0 -0.21594677989E+02  0.44907277795E+01  0.23026558844E+02  0.31886034021E+02  0.00000000000E+00 0.  1.
         11    1    3    3    0    0  0.13641842706E+01  0.76462486208E+01 -0.87579957271E+01  0.11705921839E+02  0.51100000000E-03 0. -1.
        -11    1    3    3    0    0  0.15706242045E+02  0.56455825326E+01  0.81928734208E+01  0.18592520444E+02  0.51100000000E-03 0.  1.
        -12    1    3    3    0    0  0.45242516728E+01 -0.17782558933E+02 -0.22461436537E+02  0.29003523695E+02  0.00000000000E+00 0.  1.
</event>
<event>
 7    1  0.1101380E-011  0.5930193E+02  0.7816164E-02  0.1266605E+00
        -11   -1    0    0    0    0  0.00000000000E+00  0.00000000000E+00  0.45593999997E+02  0.45594000000E+02  0.51100000000E-03 0. -1.
         11   -1    0    0    0    0 -0.00000000000E+00 -0.00000000000E+00 -0.45593999997E+02  0.45594000000E+02  0.51100000000E-03 0.  1.
    9900012    2    1    2    0    0  0.40497559509E+00  0.15070139590E+02  0.28097121983E+02  0.59301931315E+02  0.49999976815E+02 0.  0.
        -12    1    1    2    0    0 -0.40497559509E+00 -0.15070139590E+02 -0.28097121983E+02  0.31886068685E+02  0.00000000000E+00 0.  1.
         11    1    3    3    0    0  0.33023659944E+01  0.16414824922E+02  0.35361381670E+02  0.39125176195E+02  0.51100000000E-03 0. -1.
        -11    1    3    3    0    0  0.63841510702E+01 -0.48061897851E+01 -0.17074225201E+00  0.79928717190E+01  0.51100000000E-03 0.  1.
        -12    1    3    3    0    0 -0.92815414695E+01  0.34615044531E+01 -0.70935174354E+01  0.12183883401E+02  0.00000000000E+00 0.  1.
</event>
<event>
 7    1  0.1101380E-011  0.5930195E+02  0.7816164E-02  0.1266605E+00
        -11   -1    0    0    0    0  0.00000000000E+00  0.00000000000E+00  0.45593999997E+02  0.45594000000E+02  0.51100000000E-03 0.  1.
         11   -1    0    0    0    0 -0.00000000000E+00 -0.00000000000E+00 -0.45593999997E+02  0.45594000000E+02  0.51100000000E-03 0. -1.
    9900012    2    1    2    0    0  0.16867992255E+02 -0.22523112463E+02 -0.14996674373E+02  0.59301952895E+02  0.50000016172E+02 0.  0.
        -12    1    1    2    0    0 -0.16867992255E+02  0.22523112463E+02  0.14996674373E+02  0.31886047105E+02  0.00000000000E+00 0.  1.
         11    1    3    3    0    0  0.23974820328E+02 -0.20484184762E+02 -0.10393258686E+02  0.33202615281E+02  0.51100000000E-03 0. -1.
        -11    1    3    3    0    0  0.74590385361E+01  0.40259767638E+00 -0.79994093051E+01  0.10944856795E+02  0.51100000000E-03 0.  1.
        -12    1    3    3    0    0 -0.14565866609E+02 -0.24415253772E+01  0.33959936180E+01  0.15154480819E+02  0.00000000000E+00 0.  1.
</event>
<event>
 7    1  0.1101380E-011  0.5930193E+02  0.7816164E-02  0.1266605E+00
        -11   -1    0    0    0    0  0.00000000000E+00  0.00000000000E+00  0.45593999997E+02  0.45594000000E+02  0.51100000000E-03 0. -1.
         11   -1    0    0    0    0 -0.00000000000E+00 -0.00000000000E+00 -0.45593999997E+02  0.45594000000E+02  0.51100000000E-03 0.  1.
    9900012    2    1    2    0    0 -0.26483037733E+02 -0.50762282975E+01  0.17017696497E+02  0.59301931328E+02  0.49999976839E+02 0.  0.
        -12    1    1    2    0    0  0.26483037733E+02  0.50762282975E+01 -0.17017696497E+02  0.31886068672E+02  0.00000000000E+00 0.  1.
         11    1    3    3    0    0 -0.57721598927E+01  0.10748671157E+02 -0.85049037945E+01  0.14872294721E+02  0.51100000000E-03 0. -1.
        -11    1    3    3    0    0  0.59831186191E+01 -0.30739430825E+01  0.37798838647E+01  0.77158510079E+01  0.51100000000E-03 0.  1.
         12    1    3    3    0    0 -0.26693996459E+02 -0.12750956372E+02  0.21742716427E+02  0.36713785599E+02  0.00000000000E+00 0. -1.
</event>
<event>
 7    1  0.1101380E-011  0.5930195E+02  0.7816164E-02  0.1266605E+00
        -11   -1    0    0    0    0  0.00000000000E+00  0.00000000000E+00  0.45593999997E+02  0.45594000000E+02  0.51100000000E-03 0.  1.
         11   -1    0    0    0    0 -0.00000000000E+00 -0.00000000000E+00 -0.45593999997E+02  0.45594000000E+02  0.51100000000E-03 0. -1.
    9900012    2    1    2    0    0 -0.12597095944E+00  0.30026117030E+02 -0.10730174164E+02  0.59301949600E+02  0.50000010162E+02 0.  0.
        -12    1    1    2    0    0  0.12597095944E+00 -0.30026117030E+02  0.10730174164E+02  0.31886050400E+02  0.00000000000E+00 0.  1.
         11    1    3    3    0    0 -0.77636434426E+01  0.14090574615E+02 -0.17556461141E+02  0.23812765075E+02  0.51100000000E-03 0. -1.
        -11    1    3    3    0    0 -0.45831421040E+01  0.19384034885E+02 -0.20093426760E+01  0.20019576874E+02  0.51100000000E-03 0.  1.
        -12    1    3    3    0    0  0.12220814587E+02 -0.34484924704E+01  0.88356296530E+01  0.15469607650E+02  0.00000000000E+00 0.  1.
</event>
<event>
 7    1  0.1101380E-011  0.5930195E+02  0.7816164E-02  0.1266605E+00
        -11   -1    0    0    0    0  0.00000000000E+00  0.00000000000E+00  0.45593999997E+02  0.45594000000E+02  0.51100000000E-03 0.  1.
         11   -1    0    0    0    0 -0.00000000000E+00 -0.00000000000E+00 -0.45593999997E+02  0.45594000000E+02  0.51100000000E-03 0. -1.
    9900012    2    1    2    0    0  0.15875675346E+02 -0.26491111109E+02  0.79312293812E+01  0.59301946074E+02  0.50000003732E+02 0.  0.
        -12    1    1    2    0    0 -0.15875675346E+02  0.26491111109E+02 -0.79312293812E+01  0.31886053926E+02  0.00000000000E+00 0.  1.
         11    1    3    3    0    0  0.68127889762E-01 -0.10867948589E+02 -0.38606884406E+01  0.11533510456E+02  0.51100000000E-03 0. -1.
        -11    1    3    3    0    0 -0.13723750567E+02 -0.24985290049E+01  0.42682325874E+01  0.14587727256E+02  0.51100000000E-03 0.  1.
         12    1    3    3    0    0  0.29531298024E+02 -0.13124633514E+02  0.75236852344E+01  0.33180708361E+02  0.00000000000E+00 0. -1.
</event>
<event>
 7    1  0.1101380E-011  0.5930195E+02  0.7816164E-02  0.1266605E+00
        -11   -1    0    0    0    0  0.00000000000E+00  0.00000000000E+00  0.45593999997E+02  0.45594000000E+02  0.51100000000E-03 0. -1.
         11   -1    0    0    0    0 -0.00000000000E+00 -0.00000000000E+00 -0.45593999997E+02  0.45594000000E+02  0.51100000000E-03 0.  1.
    9900012    2    1    2    0    0  0.18032482017E+02  0.25102651351E+02  0.78362456724E+01  0.59301948837E+02  0.50000008770E+02 0.  0.
        -12    1    1    2    0    0 -0.18032482017E+02 -0.25102651351E+02 -0.78362456724E+01  0.31886051163E+02  0.00000000000E+00 0.  1.
         11    1    3    3    0    0 -0.93830137087E+01  0.79729960568E+01  0.39066045254E+01  0.12917862500E+02  0.51100000000E-03 0. -1.
        -11    1    3    3    0    0 -0.16906148828E+01  0.30616939233E+01 -0.10437370502E+02  0.11007763244E+02  0.51100000000E-03 0.  1.
         12    1    3    3    0    0  0.29106110608E+02  0.14067961371E+02  0.14367011650E+02  0.35376323094E+02  0.00000000000E+00 0. -1.
</event>
<event>
 7    1  0.1101380E-011  0.5930190E+02  0.7816164E-02  0.1266605E+00
        -11   -1    0    0    0    0  0.00000000000E+00  0.00000000000E+00  0.45593999997E+02  0.45594000000E+02  0.51100000000E-03 0.  1.
         11   -1    0    0    0    0 -0.00000000000E+00 -0.00000000000E+00 -0.45593999997E+02  0.45594000000E+02  0.51100000000E-03 0. -1.
    9900012    2    1    2    0    0  0.82482677618E+01 -0.13267105235E+01 -0.30772214634E+02  0.59301901534E+02  0.49999922502E+02 0.  0.
        -12    1    1    2    0    0 -0.82482677618E+01  0.13267105235E+01  0.30772214634E+02  0.31886098466E+02  0.00000000000E+00 0.  1.
         11    1    3    3    0    0  0.23657971043E+02 -0.47921746700E+01 -0.30831372546E+02  0.39156583932E+02  0.51100000000E-03 0. -1.
        -11    1    3    3    0    0  0.16317161207E+01  0.26136717789E+01  0.92669560871E-01  0.30825907246E+01  0.51100000000E-03 0.  1.
        -12    1    3    3    0    0 -0.17041419402E+02  0.85179236754E+00 -0.33511648985E-01  0.17062726878E+02  0.00000000000E+00 0.  1.
</event>
<event>
 7    1  0.1101380E-011  0.5930193E+02  0.7816164E-02  0.1266605E+00
        -11   -1    0    0    0    0  0.00000000000E+00  0.00000000000E+00  0.45593999997E+02  0.45594000000E+02  0.51100000000E-03 0.  1.
         11   -1    0    0    0    0 -0.00000000000E+00 -0.00000000000E+00 -0.45593999997E+02  0.45594000000E+02  0.51100000000E-03 0. -1.
    9900012    2    1    2    0    0  0.25379549045E+02  0.15315564270E+02 -0.11748751479E+02  0.59301934392E+02  0.49999982427E+02 0.  0.
        -12    1    1    2    0    0 -0.25379549045E+02 -0.15315564270E+02  0.11748751479E+02  0.31886065608E+02  0.00000000000E+00 0.  1.
         11    1    3    3    0    0  0.49336644189E+01  0.11378895002E+02 -0.19344350366E+02  0.22978776891E+02  0.51100000000E-03 0. -1.
        -11    1    3    3    0    0  0.18976663707E+02  0.14858073535E+02  0.26571660785E+01  0.24247404943E+02  0.51100000000E-03 0.  1.
        -12    1    3    3    0    0  0.14692209187E+01 -0.10921404266E+02  0.49384328084E+01  0.12075752559E+02  0.00000000000E+00 0.  1.
</event>
<event>
 7    1  0.1101380E-011  0.5930194E+02  0.7816164E-02  0.1266605E+00
        -11   -1    0    0    0    0  0.00000000000E+00  0.00000000000E+00  0.45593999997E+02  0.45594000000E+02  0.51100000000E-03 0. -1.
         11   -1    0    0    0    0 -0.00000000000E+00 -0.00000000000E+00 -0.45593999997E+02  0.45594000000E+02  0.51100000000E-03 0.  1.
    9900012    2    1    2    0    0 -0.13680284913E+02 -0.14588023823E+02  0.24834653585E+02  0.59301942654E+02  0.49999997495E+02 0.  0.
        -12    1    1    2    0    0  0.13680284913E+02  0.14588023823E+02 -0.24834653585E+02  0.31886057346E+02  0.00000000000E+00 0.  1.
         11    1    3    3    0    0  0.13216747015E+02 -0.11524536573E+02  0.13184492553E+02  0.21939192989E+02  0.51100000000E-03 0. -1.
        -11    1    3    3    0    0 -0.29810894226E+01 -0.56494272072E+01  0.11674069928E+02  0.13307397599E+02  0.51100000000E-03 0.  1.
        -12    1    3    3    0    0 -0.23915942506E+02  0.25859399570E+01 -0.23908895830E-01  0.24055352066E+02  0.00000000000E+00 0.  1.
</event>
<event>
 7    1  0.1101380E-011  0.5930195E+02  0.7816164E-02  0.1266605E+00
        -11   -1    0    0    0    0  0.00000000000E+00  0.00000000000E+00  0.45593999997E+02  0.45594000000E+02  0.51100000000E-03 0.  1.
         11   -1    0    0    0    0 -0.00000000000E+00 -0.00000000000E+00 -0.45593999997E+02  0.45594000000E+02  0.51100000000E-03 0. -1.
    9900012    2    1    2    0    0  0.12463354826E+02 -0.16598851985E+01 -0.29302383538E+02  0.59301951116E+02  0.50000012927E+02 0.  0.
        -12    1    1    2    0    0 -0.12463354826E+02  0.16598851985E+01  0.29302383538E+02  0.31886048884E+02  0.00000000000E+00 0.  1.
         11    1    3    3    0    0 -0.73166920356E+01  0.90022778295E+01 -0.14745928758E+02  0.18762126843E+02  0.51100000000E-03 0. -1.
        -11    1    3    3    0    0  0.24288247106E+01  0.90854798981E+01  0.18053594563E+01  0.95762444351E+01  0.51100000000E-03 0.  1.
         12    1    3    3    0    0  0.17351222151E+02 -0.19747642926E+02 -0.16361814236E+02  0.30963579838E+02  0.00000000000E+00 0. -1.
</event>
<event>
 7    1  0.1101380E-011  0.5930199E+02  0.7816164E-02  0.1266605E+00
        -11   -1    0    0    0    0  0.00000000000E+00  0.00000000000E+00  0.45593999997E+02  0.45594000000E+02  0.51100000000E-03 0. -1.
         11   -1    0    0    0    0 -0.00000000000E+00 -0.00000000000E+00 -0.45593999997E+02  0.45594000000E+02  0.51100000000E-03 0.  1.
    9900012    2    1    2    0    0  0.17952195675E+02 -0.14323360640E+02  0.22119623813E+02  0.59301988220E+02  0.50000080597E+02 0.  0.
        -12    1    1    2    0    0 -0.17952195675E+02  0.14323360640E+02 -0.22119623813E+02  0.31886011780E+02  0.00000000000E+00 0.  1.
         11    1    3    3    0    0  0.47026641293E+01 -0.35091187417E+01  0.88234616841E+01  0.10596340907E+02  0.51100000000E-03 0. -1.
        -11    1    3    3    0    0  0.20413987526E+02 -0.22633174462E+02  0.14685113808E+01  0.30514717743E+02  0.51100000000E-03 0.  1.
        -12    1    3    3    0    0 -0.71644559807E+01  0.11818932564E+02  0.11827650748E+02  0.18190929571E+02  0.00000000000E+00 0.  1.
</event>
<event>
 7    1  0.1101380E-011  0.5930194E+02  0.7816164E-02  0.1266605E+00
        -11   -1    0    0    0    0  0.00000000000E+00  0.00000000000E+00  0.45593999997E+02  0.45594000000E+02  0.51100000000E-03 0. -1.
         11   -1    0    0    0    0 -0.00000000000E+00 -0.00000000000E+00 -0.45593999997E+02  0.45594000000E+02  0.51100000000E-03 0.  1.
    9900012    2    1    2    0    0  0.31716634750E+02  0.12033744569E+01 -0.30541668458E+01  0.59301937761E+02  0.49999988571E+02 0.  0.
        -12    1    1    2    0    0 -0.31716634750E+02 -0.12033744569E+01  0.30541668458E+01  0.31886062239E+02  0.00000000000E+00 0.  1.
         11    1    3    3    0    0  0.20473522762E+02  0.18690296923E+02 -0.11703254634E+01  0.27746387068E+02  0.51100000000E-03 0. -1.
        -11    1    3    3    0    0  0.11154102540E+02  0.44849894863E+00 -0.66547913989E+01  0.12996207277E+02  0.51100000000E-03 0.  1.
         12    1    3    3    0    0  0.89009448621E-01 -0.17935421414E+02  0.47709500165E+01  0.18559343416E+02  0.00000000000E+00 0. -1.
</event>
<event>
 7    1  0.1101380E-011  0.5930196E+02  0.7816164E-02  0.1266605E+00
        -11   -1    0    0    0    0  0.00000000000E+00  0.00000000000E+00  0.45593999997E+02  0.45594000000E+02  0.51100000000E-03 0.  1.
         11   -1    0    0    0    0 -0.00000000000E+00 -0.00000000000E+00 -0.45593999997E+02  0.45594000000E+02  0.51100000000E-03 0. -1.
    9900012    2    1    2    0    0  0.12337685606E+02  0.67531828044E+01 -0.28616352812E+02  0.59301958973E+02  0.50000027257E+02 0.  0.
        -12    1    1    2    0    0 -0.12337685606E+02 -0.67531828044E+01  0.28616352812E+02  0.31886041027E+02  0.00000000000E+00 0.  1.
         11    1    3    3    0    0 -0.10814509935E+02  0.88048197354E+01 -0.10934394894E+02  0.17721158756E+02  0.51100000000E-03 0. -1.
        -11    1    3    3    0    0 -0.48382912736E+01  0.31533757101E+01  0.28879414015E+01  0.64570153025E+01  0.51100000000E-03 0.  1.
        -12    1    3    3    0    0  0.27990486815E+02 -0.52050126412E+01 -0.20569899320E+02  0.35123784915E+02  0.00000000000E+00 0.  1.
</event>
<event>
 7    1  0.1101380E-011  0.5930195E+02  0.7816164E-02  0.1266605E+00
        -11   -1    0    0    0    0  0.00000000000E+00  0.00000000000E+00  0.45593999997E+02  0.45594000000E+02  0.51100000000E-03 0.  1.
         11   -1    0    0    0    0 -0.00000000000E+00 -0.00000000000E+00 -0.45593999997E+02  0.45594000000E+02  0.51100000000E-03 0. -1.
    9900012    2    1    2    0    0  0.27595495885E+02 -0.15729493837E+02 -0.27913684482E+01  0.59301951212E+02  0.50000013102E+02 0.  0.
        -12    1    1    2    0    0 -0.27595495885E+02  0.15729493837E+02  0.27913684482E+01  0.31886048788E+02  0.00000000000E+00 0.  1.
         11    1    3    3    0    0  0.11190705873E+02 -0.79003426004E+01  0.23021107661E+01  0.13890537260E+02  0.51100000000E-03 0. -1.
        -11    1    3    3    0    0 -0.62781683648E+00 -0.16943023577E+02  0.11048892956E+02  0.20237051112E+02  0.51100000000E-03 0.  1.
         12    1    3    3    0    0  0.17032606848E+02  0.91138723396E+01 -0.16142372170E+02  0.25174362839E+02  0.00000000000E+00 0. -1.
</event>
<event>
 7    1  0.1101380E-011  0.5930192E+02  0.7816164E-02  0.1266605E+00
        -11   -1    0    0    0    0  0.00000000000E+00  0.00000000000E+00  0.45593999997E+02  0.45594000000E+02  0.51100000000E-03 0.  1.
         11   -1    0    0    0    0 -0.00000000000E+00 -0.00000000000E+00 -0.45593999997E+02  0.45594000000E+02  0.51100000000E-03 0. -1.
    9900012    2    1    2    0    0  0.25410560281E+02 -0.11251121990E+02 -0.15634512334E+02  0.59301916895E+02  0.49999950517E+02 0.  0.
        -12    1    1    2    0    0 -0.25410560281E+02  0.11251121990E+02  0.15634512334E+02  0.31886083105E+02  0.00000000000E+00 0.  1.
         11    1    3    3    0    0  0.17812919380E+02 -0.63522129979E+01 -0.81661476359E+01  0.20599433834E+02  0.51100000000E-03 0. -1.
        -11    1    3    3    0    0  0.48012938350E+01 -0.18137715946E+02 -0.14256492988E+02  0.23564311040E+02  0.51100000000E-03 0.  1.
        -12    1    3    3    0    0  0.27963470656E+01  0.13238806953E+02  0.67881282898E+01  0.15138172021E+02  0.00000000000E+00 0.  1.
</event>
<event>
 7    1  0.1101380E-011  0.5930190E+02  0.7816164E-02  0.1266605E+00
        -11   -1    0    0    0    0  0.00000000000E+00  0.00000000000E+00  0.45593999997E+02  0.45594000000E+02  0.51100000000E-03 0. -1.
         11   -1    0    0    0    0 -0.00000000000E+00 -0.00000000000E+00 -0.45593999997E+02  0.45594000000E+02  0.51100000000E-03 0.  1.
    9900012    2    1    2    0    0 -0.48349388978E+01 -0.30654907189E+01  0.31367972891E+02  0.59301896588E+02  0.49999913481E+02 0.  0.
        -12    1    1    2    0    0  0.48349388978E+01  0.30654907189E+01 -0.31367972891E+02  0.31886103412E+02  0.00000000000E+00 0.  1.
         11    1    3    3    0    0  0.11770175687E+02 -0.41101983033E+01  0.15127909333E+02  0.19603173387E+02  0.51100000000E-03 0. -1.
        -11    1    3    3    0    0  0.31730301533E+01 -0.11531294640E+02  0.16054254076E+01  0.12067156559E+02  0.51100000000E-03 0.  1.
        -12    1    3    3    0    0 -0.19778144738E+02  0.12576002224E+02  0.14634638151E+02  0.27631566641E+02  0.00000000000E+00 0.  1.
</event>
<event>
 7    1  0.1101380E-011  0.5930194E+02  0.7816164E-02  0.1266605E+00
        -11   -1    0    0    0    0  0.00000000000E+00  0.00000000000E+00  0.45593999997E+02  0.45594000000E+02  0.51100000000E-03 0.  1.
         11   -1    0    0    0    0 -0.00000000000E+00 -0.00000000000E+00 -0.45593999997E+02  0.45594000000E+02  0.51100000000E-03 0. -1.
    9900012    2    1    2    0    0  0.20224112500E+02 -0.13554888337E+02 -0.20590557180E+02  0.59301940832E+02  0.49999994172E+02 0.  0.
        -12    1    1    2    0    0 -0.20224112500E+02  0.13554888337E+02  0.20590557180E+02  0.31886059168E+02  0.00000000000E+00 0.  1.
         11    1    3    3    0    0  0.16828091041E+02  0.76468827716E+01 -0.25480175740E+02  0.31478545395E+02  0.51100000000E-03 0. -1.
        -11    1    3    3    0    0  0.38689424388E+01 -0.38684135241E+01 -0.53778900517E+01  0.76717038823E+01  0.51100000000E-03 0.  1.
        -12    1    3    3    0    0 -0.47292097981E+00 -0.17333357585E+02  0.10267508612E+02  0.20151691555E+02  0.00000000000E+00 0.  1.
</event>
<event>
 7    1  0.1101380E-011  0.5930184E+02  0.7816164E-02  0.1266605E+00
        -11   -1    0    0    0    0  0.00000000000E+00  0.00000000000E+00  0.45593999997E+02  0.45594000000E+02  0.51100000000E-03 0. -1.
         11   -1    0    0    0    0 -0.00000000000E+00 -0.00000000000E+00 -0.45593999997E+02  0.45594000000E+02  0.51100000000E-03 0.  1.
    9900012    2    1    2    0    0 -0.24601530254E+02 -0.14368618699E+02  0.14319032546E+02  0.59301840194E+02  0.49999810631E+02 0.  0.
        -12    1    1    2    0    0  0.24601530254E+02  0.14368618699E+02 -0.14319032546E+02  0.31886159806E+02  0.00000000000E+00 0.  1.
         11    1    3    3    0    0 -0.79902105070E+01  0.64980744889E+01  0.91432894325E+01  0.13772007040E+02  0.51100000000E-03 0. -1.
        -11    1    3    3    0    0 -0.11715880317E+02  0.10118114548E+01 -0.12364918675E+02  0.17063904246E+02  0.51100000000E-03 0.  1.
        -12    1    3    3    0    0 -0.48954394303E+01 -0.21878504642E+02  0.17540661788E+02  0.28465928907E+02  0.00000000000E+00 0.  1.
</event>
<event>
 7    1  0.1101380E-011  0.5930195E+02  0.7816164E-02  0.1266605E+00
        -11   -1    0    0    0    0  0.00000000000E+00  0.00000000000E+00  0.45593999997E+02  0.45594000000E+02  0.51100000000E-03 0.  1.
         11   -1    0    0    0    0 -0.00000000000E+00 -0.00000000000E+00 -0.45593999997E+02  0.45594000000E+02  0.51100000000E-03 0. -1.
    9900012    2    1    2    0    0 -0.27402903307E+01  0.21786121659E+02 -0.23120900133E+02  0.59301948018E+02  0.50000007278E+02 0.  0.
        -12    1    1    2    0    0  0.27402903307E+01 -0.21786121659E+02  0.23120900133E+02  0.31886051982E+02  0.00000000000E+00 0.  1.
         11    1    3    3    0    0  0.95133739861E+01  0.40852778323E+01 -0.75886722535E+01  0.12836733478E+02  0.51100000000E-03 0. -1.
        -11    1    3    3    0    0 -0.16189456418E+02 -0.43081110058E+01  0.34870172629E+01  0.17111914247E+02  0.51100000000E-03 0.  1.
         12    1    3    3    0    0  0.39357921015E+01  0.22008954832E+02 -0.19019245142E+02  0.29353300292E+02  0.00000000000E+00 0. -1.
</event>
<event>
 7    1  0.1101380E-011  0.5930193E+02  0.7816164E-02  0.1266605E+00
        -11   -1    0    0    0    0  0.00000000000E+00  0.00000000000E+00  0.45593999997E+02  0.45594000000E+02  0.51100000000E-03 0.  1.
         11   -1    0    0    0    0 -0.00000000000E+00 -0.00000000000E+00 -0.45593999997E+02  0.45594000000E+02  0.51100000000E-03 0. -1.
    9900012    2    1    2    0    0  0.35080481426E+01  0.24090832446E+02 -0.20592396355E+02  0.59301930983E+02  0.49999976210E+02 0.  0.
        -12    1    1    2    0    0 -0.35080481426E+01 -0.24090832446E+02  0.20592396355E+02  0.31886069017E+02  0.00000000000E+00 0.  1.
         11    1    3    3    0    0 -0.47659238217E+00 -0.57879003993E+01  0.85993144479E+01  0.10376663267E+02  0.51100000000E-03 0. -1.
        -11    1    3    3    0    0  0.96919822187E+01  0.51437889406E+01 -0.10444496865E+01  0.11021976202E+02  0.51100000000E-03 0.  1.
         12    1    3    3    0    0 -0.57073416940E+01  0.24734943904E+02 -0.28147261117E+02  0.37903291513E+02  0.00000000000E+00 0. -1.
</event>
<event>
 7    1  0.1101380E-011  0.5930195E+02  0.7816164E-02  0.1266605E+00
        -11   -1    0    0    0    0  0.00000000000E+00  0.00000000000E+00  0.45593999997E+02  0.45594000000E+02  0.51100000000E-03 0. -1.
         11   -1    0    0    0    0 -0.00000000000E+00 -0.00000000000E+00 -0.45593999997E+02  0.45594000000E+02  0.51100000000E-03 0.  1.
    9900012    2    1    2    0    0  0.63785872314E+01 -0.29307628179E+02  0.10821132509E+02  0.59301947354E+02  0.50000006067E+02 0.  0.
        -12    1    1    2    0    0 -0.63785872314E+01  0.29307628179E+02 -0.10821132509E+02  0.31886052646E+02  0.00000000000E+00 0.  1.
         11    1    3    3    0    0 -0.21107046665E+00 -0.31789221053E+02 -0.24159132774E+01  0.31881589721E+02  0.51100000000E-03 0. -1.
        -11    1    3    3    0    0  0.12237402638E+02 -0.40226829659E+01  0.16569961636E+01  0.12987749540E+02  0.51100000000E-03 0.  1.
        -12    1    3    3    0    0 -0.56477449396E+01  0.65042758402E+01  0.11580049623E+02  0.14432608094E+02  0.00000000000E+00 0.  1.
</event>
<event>
 7    1  0.1101380E-011  0.5930192E+02  0.7816164E-02  0.1266605E+00
        -11   -1    0    0    0    0  0.00000000000E+00  0.00000000000E+00  0.45593999997E+02  0.45594000000E+02  0.51100000000E-03 0. -1.
         11   -1    0    0    0    0 -0.00000000000E+00 -0.00000000000E+00 -0.45593999997E+02  0.45594000000E+02  0.51100000000E-03 0.  1.
    9900012    2    1    2    0    0 -0.17954759320E+02 -0.14105019872E+02  0.22257518822E+02  0.59301919778E+02  0.49999955773E+02 0.  0.
        -12    1    1    2    0    0  0.17954759320E+02  0.14105019872E+02 -0.22257518822E+02  0.31886080222E+02  0.00000000000E+00 0.  1.
         11    1    3    3    0    0 -0.26880835468E+02 -0.20419806663E+02  0.23403727493E+02  0.41076541729E+02  0.51100000000E-03 0. -1.
        -11    1    3    3    0    0 -0.21494631831E+01 -0.25389123662E+01 -0.22295572924E+01  0.40046465462E+01  0.51100000000E-03 0.  1.
         12    1    3    3    0    0  0.11075539331E+02  0.88536991567E+01  0.10833486218E+01  0.14220731502E+02  0.00000000000E+00 0. -1.
</event>
<event>
 7    1  0.1101380E-011  0.5930195E+02  0.7816164E-02  0.1266605E+00
        -11   -1    0    0    0    0  0.00000000000E+00  0.00000000000E+00  0.45593999997E+02  0.45594000000E+02  0.51100000000E-03 0.  1.
         11   -1    0    0    0    0 -0.00000000000E+00 -0.00000000000E+00 -0.45593999997E+02  0.45594000000E+02  0.51100000000E-03 0. -1.
    9900012    2    1    2    0    0  0.26651994170E+02  0.17130979020E+02  0.35946025153E+01  0.59301946580E+02  0.50000004655E+02 0.  0.
        -12    1    1    2    0    0 -0.26651994170E+02 -0.17130979020E+02 -0.35946025153E+01  0.31886053420E+02  0.00000000000E+00 0.  1.
         11    1    3    3    0    0  0.59036920578E+01  0.42505049164E+00 -0.16805137617E+02  0.17817039553E+02  0.51100000000E-03 0. -1.
        -11    1    3    3    0    0  0.49504522464E+01 -0.62937537567E+01  0.27393799128E+01  0.84630087062E+01  0.51100000000E-03 0.  1.
         12    1    3    3    0    0  0.15797849866E+02  0.22999682285E+02  0.17660360220E+02  0.33021898321E+02  0.00000000000E+00 0. -1.
</event>
<event>
 7    1  0.1101380E-011  0.5930196E+02  0.7816164E-02  0.1266605E+00
        -11   -1    0    0    0    0  0.00000000000E+00  0.00000000000E+00  0.45593999997E+02  0.45594000000E+02  0.51100000000E-03 0.  1.
         11   -1    0    0    0    0 -0.00000000000E+00 -0.00000000000E+00 -0.45593999997E+02  0.45594000000E+02  0.51100000000E-03 0. -1.
    9900012    2    1    2    0    0 -0.18283200110E+02 -0.21963407053E+02 -0.14144005667E+02  0.59301959921E+02  0.50000028985E+02 0.  0.
        -12    1    1    2    0    0  0.18283200110E+02  0.21963407053E+02  0.14144005667E+02  0.31886040079E+02  0.00000000000E+00 0.  1.
         11    1    3    3    0    0 -0.17876379288E+02 -0.13656218576E+02 -0.24375718457E+02  0.33169758709E+02  0.51100000000E-03 0. -1.
        -11    1    3    3    0    0 -0.25993037099E+01 -0.15745905476E+02  0.48039723795E+01  0.16666375428E+02  0.51100000000E-03 0.  1.
        -12    1    3    3    0    0  0.21924828876E+01  0.74387169990E+01  0.54277404103E+01  0.94658257836E+01  0.00000000000E+00 0.  1.
</event>
<event>
 7    1  0.1101380E-011  0.5930195E+02  0.7816164E-02  0.1266605E+00
        -11   -1    0    0    0    0  0.00000000000E+00  0.00000000000E+00  0.45593999997E+02  0.45594000000E+02  0.51100000000E-03 0.  1.
         11   -1    0    0    0    0 -0.00000000000E+00 -0.00000000000E+00 -0.45593999997E+02  0.45594000000E+02  0.51100000000E-03 0. -1.
    9900012    2    1    2    0    0 -0.21847004928E+02 -0.39138625643E+01 -0.22893456332E+02  0.59301948389E+02  0.50000007954E+02 0.  0.
        -12    1    1    2    0    0  0.21847004928E+02  0.39138625643E+01  0.22893456332E+02  0.31886051611E+02  0.00000000000E+00 0.  1.
         11    1    3    3    0    0  0.10446839134E+01 -0.10870509273E+02 -0.14740190382E+02  0.18344823496E+02  0.51100000000E-03 0. -1.
        -11    1    3    3    0    0 -0.36061107364E+00  0.75535471731E+01 -0.15503860061E+02  0.17249805573E+02  0.51100000000E-03 0.  1.
        -12    1    3    3    0    0 -0.22531077768E+02 -0.59690046486E+00  0.73505941114E+01  0.23707319320E+02  0.00000000000E+00 0.  1.
</event>
<event>
 7    1  0.1101380E-011  0.5930196E+02  0.7816164E-02  0.1266605E+00
        -11   -1    0    0    0    0  0.00000000000E+00  0.00000000000E+00  0.45593999997E+02  0.45594000000E+02  0.51100000000E-03 0.  1.
         11   -1    0    0    0    0 -0.00000000000E+00 -0.00000000000E+00 -0.45593999997E+02  0.45594000000E+02  0.51100000000E-03 0. -1.
    9900012    2    1    2    0    0  0.23357220295E+02 -0.19245737371E+02 -0.10038012111E+02  0.59301955498E+02  0.50000020919E+02 0.  0.
        -12    1    1    2    0    0 -0.23357220295E+02  0.19245737371E+02  0.10038012111E+02  0.31886044502E+02  0.00000000000E+00 0.  1.
         11    1    3    3    0    0  0.24022074807E+02  0.85204192889E+00  0.32349177207E+01  0.24253881058E+02  0.51100000000E-03 0. -1.
        -11    1    3    3    0    0  0.46872628723E+01 -0.15389285487E+02  0.38145113343E+01  0.16533331123E+02  0.51100000000E-03 0.  1.
         12    1    3    3    0    0 -0.53521173843E+01 -0.47084938122E+01 -0.17087441166E+02  0.18514743316E+02  0.00000000000E+00 0. -1.
</event>
<event>
 7    1  0.1101380E-011  0.5930193E+02  0.7816164E-02  0.1266605E+00
        -11   -1    0    0    0    0  0.00000000000E+00  0.00000000000E+00  0.45593999997E+02  0.45594000000E+02  0.51100000000E-03 0. -1.
         11   -1    0    0    0    0 -0.00000000000E+00 -0.00000000000E+00 -0.45593999997E+02  0.45594000000E+02  0.51100000000E-03 0.  1.
    9900012    2    1    2    0    0  0.15437502250E+02  0.28022540738E+01  0.27758824840E+02  0.59301929999E+02  0.49999974415E+02 0.  0.
        -12    1    1    2    0    0 -0.15437502250E+02 -0.28022540738E+01 -0.27758824840E+02  0.31886070001E+02  0.00000000000E+00 0.  1.
         11    1    3    3    0    0  0.31629687504E+01 -0.10986174781E+02  0.89030026020E+01  0.14490129855E+02  0.51100000000E-03 0. -1.
        -11    1    3    3    0    0 -0.48971391059E+01  0.13528669420E+02  0.23014567692E+02  0.27141797914E+02  0.51100000000E-03 0.  1.
         12    1    3    3    0    0  0.17171672606E+02  0.25975943468E+00 -0.41587454539E+01  0.17670002230E+02  0.00000000000E+00 0. -1.
</event>
<event>
 7    1  0.1101380E-011  0.5930195E+02  0.7816164E-02  0.1266605E+00
        -11   -1    0    0    0    0  0.00000000000E+00  0.00000000000E+00  0.45593999997E+02  0.45594000000E+02  0.51100000000E-03 0.  1.
         11   -1    0    0    0    0 -0.00000000000E+00 -0.00000000000E+00 -0.45593999997E+02  0.45594000000E+02  0.51100000000E-03 0. -1.
    9900012    2    1    2    0    0  0.15616899364E+02  0.17674033274E+02 -0.21458354043E+02  0.59301953582E+02  0.50000017425E+02 0.  0.
        -12    1    1    2    0    0 -0.15616899364E+02 -0.17674033274E+02  0.21458354043E+02  0.31886046418E+02  0.00000000000E+00 0.  1.
         11    1    3    3    0    0  0.31063999597E+01 -0.66614966685E+01 -0.68933228701E+00  0.73824411842E+01  0.51100000000E-03 0. -1.
        -11    1    3    3    0    0 -0.81550334111E+01 -0.64970478760E+01 -0.36809813282E+01  0.11057387795E+02  0.51100000000E-03 0.  1.
         12    1    3    3    0    0  0.20665532815E+02  0.30832577818E+02 -0.17088040428E+02  0.40862124604E+02  0.00000000000E+00 0. -1.
</event>
<event>
 7    1  0.1101380E-011  0.5930195E+02  0.7816164E-02  0.1266605E+00
        -11   -1    0    0    0    0  0.00000000000E+00  0.00000000000E+00  0.45593999997E+02  0.45594000000E+02  0.51100000000E-03 0.  1.
         11   -1    0    0    0    0 -0.00000000000E+00 -0.00000000000E+00 -0.45593999997E+02  0.45594000000E+02  0.51100000000E-03 0. -1.
    9900012    2    1    2    0    0 -0.12486507927E+02 -0.22294965007E+02 -0.19072019264E+02  0.59301948760E+02  0.50000008631E+02 0.  0.
        -12    1    1    2    0    0  0.12486507927E+02  0.22294965007E+02  0.19072019264E+02  0.31886051240E+02  0.00000000000E+00 0.  1.
         11    1    3    3    0    0 -0.99999115669E+01 -0.21899178344E+02  0.85260033552E+01  0.25539478792E+02  0.51100000000E-03 0.  1.
        -11    1    3    3    0    0 -0.80179029683E+01 -0.44960493328E+01 -0.57205372063E+01  0.10827085194E+02  0.51100000000E-03 0. -1.
        -12    1    3    3    0    0  0.55313066086E+01  0.41002626693E+01 -0.21877485413E+02  0.22935384774E+02  0.00000000000E+00 0.  1.
</event>
<event>
 7    1  0.1101380E-011  0.5930194E+02  0.7816164E-02  0.1266605E+00
        -11   -1    0    0    0    0  0.00000000000E+00  0.00000000000E+00  0.45593999997E+02  0.45594000000E+02  0.51100000000E-03 0.  1.
         11   -1    0    0    0    0 -0.00000000000E+00 -0.00000000000E+00 -0.45593999997E+02  0.45594000000E+02  0.51100000000E-03 0. -1.
    9900012    2    1    2    0    0  0.52842819233E+01  0.44629048311E+01 -0.31126833710E+02  0.59301938284E+02  0.49999989524E+02 0.  0.
        -12    1    1    2    0    0 -0.52842819233E+01 -0.44629048311E+01  0.31126833710E+02  0.31886061716E+02  0.00000000000E+00 0.  1.
         11    1    3    3    0    0 -0.64919775446E+01  0.66999320454E+01 -0.17106019109E+02  0.19484628605E+02  0.51100000000E-03 0. -1.
        -11    1    3    3    0    0 -0.10524330775E+02  0.46915455641E+01 -0.11583084877E+02  0.16338298368E+02  0.51100000000E-03 0.  1.
        -12    1    3    3    0    0  0.22300590243E+02 -0.69285727784E+01 -0.24377297242E+01  0.23479011311E+02  0.00000000000E+00 0.  1.
</event>
<event>
 7    1  0.1101380E-011  0.5930195E+02  0.7816164E-02  0.1266605E+00
        -11   -1    0    0    0    0  0.00000000000E+00  0.00000000000E+00  0.45593999997E+02  0.45594000000E+02  0.51100000000E-03 0. -1.
         11   -1    0    0    0    0 -0.00000000000E+00 -0.00000000000E+00 -0.45593999997E+02  0.45594000000E+02  0.51100000000E-03 0.  1.
    9900012    2    1    2    0    0 -0.18144674371E+02  0.59925468173E+00  0.26213203930E+02  0.59301947022E+02  0.50000005461E+02 0.  0.
        -12    1    1    2    0    0  0.18144674371E+02 -0.59925468173E+00 -0.26213203930E+02  0.31886052978E+02  0.00000000000E+00 0.  1.
         11    1    3    3    0    0 -0.10633743103E+02  0.12673090975E+02  0.32162890617E+01  0.16853137477E+02  0.51100000000E-03 0. -1.
        -11    1    3    3    0    0 -0.13579347214E+02  0.19115484647E+01 -0.12897571403E+01  0.13773749018E+02  0.51100000000E-03 0.  1.
        -12    1    3    3    0    0  0.60684159455E+01 -0.13985384758E+02  0.24286672009E+02  0.28675060526E+02  0.00000000000E+00 0.  1.
</event>
<event>
 7    1  0.1101380E-011  0.5930194E+02  0.7816164E-02  0.1266605E+00
        -11   -1    0    0    0    0  0.00000000000E+00  0.00000000000E+00  0.45593999997E+02  0.45594000000E+02  0.51100000000E-03 0.  1.
         11   -1    0    0    0    0 -0.00000000000E+00 -0.00000000000E+00 -0.45593999997E+02  0.45594000000E+02  0.51100000000E-03 0. -1.
    9900012    2    1    2    0    0 -0.11133160496E+02  0.13025992948E+01 -0.29850914751E+02  0.59301935034E+02  0.49999983597E+02 0.  0.
        -12    1    1    2    0    0  0.11133160496E+02 -0.13025992948E+01  0.29850914751E+02  0.31886064966E+02  0.00000000000E+00 0.  1.
         11    1    3    3    0    0  0.31764739013E+01 -0.55177590844E+01 -0.96431604143E+01  0.11555353512E+02  0.51100000000E-03 0. -1.
        -11    1    3    3    0    0 -0.28943409522E+01 -0.16397078477E+02 -0.36998022090E+01  0.17056668161E+02  0.51100000000E-03 0.  1.
        -12    1    3    3    0    0 -0.11415293445E+02  0.23217436856E+02 -0.16507952128E+02  0.30689913360E+02  0.00000000000E+00 0.  1.
</event>
<event>
 7    1  0.1101380E-011  0.5930192E+02  0.7816164E-02  0.1266605E+00
        -11   -1    0    0    0    0  0.00000000000E+00  0.00000000000E+00  0.45593999997E+02  0.45594000000E+02  0.51100000000E-03 0.  1.
         11   -1    0    0    0    0 -0.00000000000E+00 -0.00000000000E+00 -0.45593999997E+02  0.45594000000E+02  0.51100000000E-03 0. -1.
    9900012    2    1    2    0    0  0.29501050771E+02  0.12099020681E+02 -0.15399659907E+00  0.59301921330E+02  0.49999958604E+02 0.  0.
        -12    1    1    2    0    0 -0.29501050771E+02 -0.12099020681E+02  0.15399659907E+00  0.31886078670E+02  0.00000000000E+00 0.  1.
         11    1    3    3    0    0  0.19574337464E+02  0.28672309990E+02  0.79067206884E+00  0.34725800349E+02  0.51100000000E-03 0. -1.
        -11    1    3    3    0    0  0.28851175908E+01 -0.79609817052E+00  0.53973526549E+01  0.61716360677E+01  0.51100000000E-03 0.  1.
        -12    1    3    3    0    0  0.70415957165E+01 -0.15777191138E+02 -0.63420213228E+01  0.18404484913E+02  0.00000000000E+00 0.  1.
</event>
<event>
 7    1  0.1101380E-011  0.5930203E+02  0.7816164E-02  0.1266604E+00
        -11   -1    0    0    0    0  0.00000000000E+00  0.00000000000E+00  0.45593999997E+02  0.45594000000E+02  0.51100000000E-03 0.  1.
         11   -1    0    0    0    0 -0.00000000000E+00 -0.00000000000E+00 -0.45593999997E+02  0.45594000000E+02  0.51100000000E-03 0. -1.
    9900012    2    1    2    0    0  0.25020775120E+02  0.12493870511E+02 -0.15315967607E+02  0.59302033625E+02  0.50000163403E+02 0.  0.
        -12    1    1    2    0    0 -0.25020775120E+02 -0.12493870511E+02  0.15315967607E+02  0.31885966375E+02  0.00000000000E+00 0.  1.
         11    1    3    3    0    0  0.24619704497E+02  0.23276156402E+02  0.27774045591E+01  0.33994459588E+02  0.51100000000E-03 0.  1.
        -11    1    3    3    0    0 -0.64233023635E+01 -0.25475189953E+01 -0.58785845900E+01  0.90722887591E+01  0.51100000000E-03 0. -1.
        -12    1    3    3    0    0  0.68243729872E+01 -0.82347668962E+01 -0.12214787576E+02  0.16235285277E+02  0.00000000000E+00 0.  1.
</event>
<event>
 7    1  0.1101380E-011  0.5930195E+02  0.7816164E-02  0.1266605E+00
        -11   -1    0    0    0    0  0.00000000000E+00  0.00000000000E+00  0.45593999997E+02  0.45594000000E+02  0.51100000000E-03 0. -1.
         11   -1    0    0    0    0 -0.00000000000E+00 -0.00000000000E+00 -0.45593999997E+02  0.45594000000E+02  0.51100000000E-03 0.  1.
    9900012    2    1    2    0    0  0.83272876235E+01  0.27091621814E+02  0.14608918563E+02  0.59301949865E+02  0.50000010645E+02 0.  0.
        -12    1    1    2    0    0 -0.83272876235E+01 -0.27091621814E+02 -0.14608918563E+02  0.31886050135E+02  0.00000000000E+00 0.  1.
         11    1    3    3    0    0 -0.18560423923E+01 -0.10788193964E+01  0.56170830710E+01  0.60133490785E+01  0.51100000000E-03 0. -1.
        -11    1    3    3    0    0  0.15907454442E+02 -0.12479071269E+01  0.15907312269E+02  0.22531022234E+02  0.51100000000E-03 0.  1.
         12    1    3    3    0    0 -0.57241244265E+01  0.29418348337E+02 -0.69154767772E+01  0.30757578552E+02  0.00000000000E+00 0. -1.
</event>
<event>
 7    1  0.1101380E-011  0.5930195E+02  0.7816164E-02  0.1266605E+00
        -11   -1    0    0    0    0  0.00000000000E+00  0.00000000000E+00  0.45593999997E+02  0.45594000000E+02  0.51100000000E-03 0.  1.
         11   -1    0    0    0    0 -0.00000000000E+00 -0.00000000000E+00 -0.45593999997E+02  0.45594000000E+02  0.51100000000E-03 0. -1.
    9900012    2    1    2    0    0 -0.14520084730E+02 -0.76226089652E+00 -0.28377921034E+02  0.59301948121E+02  0.50000007465E+02 0.  0.
        -12    1    1    2    0    0  0.14520084730E+02  0.76226089652E+00  0.28377921034E+02  0.31886051879E+02  0.00000000000E+00 0.  1.
         11    1    3    3    0    0 -0.17039363741E+02  0.93149607953E+01 -0.24841823852E+02  0.31531327658E+02  0.51100000000E-03 0. -1.
        -11    1    3    3    0    0 -0.56624434614E+01  0.88999471209E-01  0.83699347079E+01  0.10105790129E+02  0.51100000000E-03 0.  1.
        -12    1    3    3    0    0  0.81817224724E+01 -0.10166221163E+02 -0.11906031890E+02  0.17664830334E+02  0.00000000000E+00 0.  1.
</event>
<event>
 7    1  0.1101380E-011  0.5930194E+02  0.7816164E-02  0.1266605E+00
        -11   -1    0    0    0    0  0.00000000000E+00  0.00000000000E+00  0.45593999997E+02  0.45594000000E+02  0.51100000000E-03 0.  1.
         11   -1    0    0    0    0 -0.00000000000E+00 -0.00000000000E+00 -0.45593999997E+02  0.45594000000E+02  0.51100000000E-03 0. -1.
    9900012    2    1    2    0    0  0.69994883276E+01 -0.25808080308E+02  0.17368672725E+02  0.59301942886E+02  0.49999997919E+02 0.  0.
        -12    1    1    2    0    0 -0.69994883276E+01  0.25808080308E+02 -0.17368672725E+02  0.31886057114E+02  0.00000000000E+00 0.  1.
         11    1    3    3    0    0  0.69672506141E+01 -0.18623010173E+02 -0.46379233407E+01  0.20417380395E+02  0.51100000000E-03 0. -1.
        -11    1    3    3    0    0  0.13678817848E+02 -0.91219870394E+01  0.18321630581E+02  0.24617125191E+02  0.51100000000E-03 0.  1.
        -12    1    3    3    0    0 -0.13646580135E+02  0.19369169052E+01  0.36849654849E+01  0.14267437300E+02  0.00000000000E+00 0.  1.
</event>
<event>
 7    1  0.1101380E-011  0.5930189E+02  0.7816164E-02  0.1266605E+00
        -11   -1    0    0    0    0  0.00000000000E+00  0.00000000000E+00  0.45593999997E+02  0.45594000000E+02  0.51100000000E-03 0.  1.
         11   -1    0    0    0    0 -0.00000000000E+00 -0.00000000000E+00 -0.45593999997E+02  0.45594000000E+02  0.51100000000E-03 0. -1.
    9900012    2    1    2    0    0 -0.12704142738E+02 -0.29186178537E+02 -0.18696575895E+01  0.59301892056E+02  0.49999905216E+02 0.  0.
        -12    1    1    2    0    0  0.12704142738E+02  0.29186178537E+02  0.18696575895E+01  0.31886107944E+02  0.00000000000E+00 0.  1.
         11    1    3    3    0    0 -0.13443375039E+01 -0.44851846300E+01  0.10492624047E+02  0.11489964497E+02  0.51100000000E-03 0. -1.
        -11    1    3    3    0    0 -0.85260898745E+01  0.39979204940E+01  0.81245260763E+01  0.12437262603E+02  0.51100000000E-03 0.  1.
         12    1    3    3    0    0 -0.28337153599E+01 -0.28698914401E+02 -0.20486807713E+02  0.35374664957E+02  0.00000000000E+00 0. -1.
</event>
<event>
 7    1  0.1101380E-011  0.5930194E+02  0.7816164E-02  0.1266605E+00
        -11   -1    0    0    0    0  0.00000000000E+00  0.00000000000E+00  0.45593999997E+02  0.45594000000E+02  0.51100000000E-03 0.  1.
         11   -1    0    0    0    0 -0.00000000000E+00 -0.00000000000E+00 -0.45593999997E+02  0.45594000000E+02  0.51100000000E-03 0. -1.
    9900012    2    1    2    0    0 -0.19191581321E+02 -0.12317683821E+02 -0.22286295782E+02  0.59301935520E+02  0.49999984484E+02 0.  0.
        -12    1    1    2    0    0  0.19191581321E+02  0.12317683821E+02  0.22286295782E+02  0.31886064480E+02  0.00000000000E+00 0.  1.
         11    1    3    3    0    0 -0.10756217808E+02 -0.12216273424E+02  0.22524608076E+01  0.16431893922E+02  0.51100000000E-03 0. -1.
        -11    1    3    3    0    0 -0.76753213682E+01  0.14266308183E+02 -0.22707871179E+01  0.16358318425E+02  0.51100000000E-03 0.  1.
         12    1    3    3    0    0 -0.76004214517E+00 -0.14367718580E+02 -0.22267969472E+02  0.26511723174E+02  0.00000000000E+00 0. -1.
</event>
<event>
 7    1  0.1101380E-011  0.5930194E+02  0.7816164E-02  0.1266605E+00
        -11   -1    0    0    0    0  0.00000000000E+00  0.00000000000E+00  0.45593999997E+02  0.45594000000E+02  0.51100000000E-03 0.  1.
         11   -1    0    0    0    0 -0.00000000000E+00 -0.00000000000E+00 -0.45593999997E+02  0.45594000000E+02  0.51100000000E-03 0. -1.
    9900012    2    1    2    0    0  0.24838952815E+02 -0.19535820347E+02  0.42542749049E+01  0.59301941785E+02  0.49999995909E+02 0.  0.
        -12    1    1    2    0    0 -0.24838952815E+02  0.19535820347E+02 -0.42542749049E+01  0.31886058215E+02  0.00000000000E+00 0.  1.
         11    1    3    3    0    0  0.24885340942E+02 -0.24128638244E+02  0.11179243877E+02  0.36420418329E+02  0.51100000000E-03 0. -1.
        -11    1    3    3    0    0  0.83837373422E+01  0.16815935697E+01  0.34319553522E+01  0.92137466081E+01  0.51100000000E-03 0.  1.
         12    1    3    3    0    0 -0.84301254697E+01  0.29112243278E+01 -0.10356924324E+02  0.13667776848E+02  0.00000000000E+00 0. -1.
</event>
<event>
 7    1  0.1101380E-011  0.5930196E+02  0.7816164E-02  0.1266605E+00
        -11   -1    0    0    0    0  0.00000000000E+00  0.00000000000E+00  0.45593999997E+02  0.45594000000E+02  0.51100000000E-03 0. -1.
         11   -1    0    0    0    0 -0.00000000000E+00 -0.00000000000E+00 -0.45593999997E+02  0.45594000000E+02  0.51100000000E-03 0.  1.
    9900012    2    1    2    0    0  0.22623224511E+02  0.19618466813E+02  0.10955600076E+02  0.59301957593E+02  0.50000024739E+02 0.  0.
        -12    1    1    2    0    0 -0.22623224511E+02 -0.19618466813E+02 -0.10955600076E+02  0.31886042407E+02  0.00000000000E+00 0.  1.
         11    1    3    3    0    0  0.20950099175E+02 -0.14820845780E+01 -0.36518020755E+00  0.21005632268E+02  0.51100000000E-03 0. -1.
        -11    1    3    3    0    0  0.71653076171E+01  0.84603952252E+01 -0.86288928138E+01  0.14049117839E+02  0.51100000000E-03 0.  1.
        -12    1    3    3    0    0 -0.54921822812E+01  0.12640156166E+02  0.19949673097E+02  0.24247207485E+02  0.00000000000E+00 0.  1.
</event>
<event>
 7    1  0.1101380E-011  0.5930199E+02  0.7816164E-02  0.1266605E+00
        -11   -1    0    0    0    0  0.00000000000E+00  0.00000000000E+00  0.45593999997E+02  0.45594000000E+02  0.51100000000E-03 0.  1.
         11   -1    0    0    0    0 -0.00000000000E+00 -0.00000000000E+00 -0.45593999997E+02  0.45594000000E+02  0.51100000000E-03 0. -1.
    9900012    2    1    2    0    0  0.10308091557E+02  0.14335228087E+02 -0.26551127343E+02  0.59301986153E+02  0.50000076827E+02 0.  0.
        -12    1    1    2    0    0 -0.10308091557E+02 -0.14335228087E+02  0.26551127343E+02  0.31886013847E+02  0.00000000000E+00 0.  1.
         11    1    3    3    0    0  0.99882404809E+01 -0.61018594977E+01 -0.39013331174E+01  0.12337667429E+02  0.51100000000E-03 0. -1.
        -11    1    3    3    0    0 -0.11499744511E+02  0.13362842113E+02  0.29680259213E+01  0.17877887216E+02  0.51100000000E-03 0.  1.
         12    1    3    3    0    0  0.11819595587E+02  0.70742454721E+01 -0.25617820147E+02  0.29086431509E+02  0.00000000000E+00 0. -1.
</event>
<event>
 7    1  0.1101380E-011  0.5930195E+02  0.7816164E-02  0.1266605E+00
        -11   -1    0    0    0    0  0.00000000000E+00  0.00000000000E+00  0.45593999997E+02  0.45594000000E+02  0.51100000000E-03 0. -1.
         11   -1    0    0    0    0 -0.00000000000E+00 -0.00000000000E+00 -0.45593999997E+02  0.45594000000E+02  0.51100000000E-03 0.  1.
    9900012    2    1    2    0    0  0.40934190570E+01 -0.63410333897E+01  0.30979915243E+02  0.59301953953E+02  0.50000018102E+02 0.  0.
        -12    1    1    2    0    0 -0.40934190570E+01  0.63410333897E+01 -0.30979915243E+02  0.31886046047E+02  0.00000000000E+00 0.  1.
         11    1    3    3    0    0  0.70283763297E+01  0.50617293345E+01  0.12088409856E+02  0.14871073626E+02  0.51100000000E-03 0. -1.
        -11    1    3    3    0    0  0.18294226606E+01  0.14121108050E+02  0.62009848489E+01  0.15530766020E+02  0.51100000000E-03 0.  1.
        -12    1    3    3    0    0 -0.47643799333E+01 -0.25523870774E+02  0.12690520538E+02  0.28900114307E+02  0.00000000000E+00 0.  1.
</event>
<event>
 7    1  0.1101380E-011  0.5930192E+02  0.7816164E-02  0.1266605E+00
        -11   -1    0    0    0    0  0.00000000000E+00  0.00000000000E+00  0.45593999997E+02  0.45594000000E+02  0.51100000000E-03 0.  1.
         11   -1    0    0    0    0 -0.00000000000E+00 -0.00000000000E+00 -0.45593999997E+02  0.45594000000E+02  0.51100000000E-03 0. -1.
    9900012    2    1    2    0    0  0.19561074299E+02  0.25174255625E+02  0.58615530733E+00  0.59301916013E+02  0.49999948908E+02 0.  0.
        -12    1    1    2    0    0 -0.19561074299E+02 -0.25174255625E+02 -0.58615530733E+00  0.31886083987E+02  0.00000000000E+00 0.  1.
         11    1    3    3    0    0  0.62226744898E+01  0.20399080063E+02 -0.74245115800E+01  0.22582460399E+02  0.51100000000E-03 0. -1.
        -11    1    3    3    0    0 -0.10200546371E+02 -0.36493112497E+01  0.24843964271E+01  0.11114892925E+02  0.51100000000E-03 0.  1.
        -12    1    3    3    0    0  0.23538946180E+02  0.84244868117E+01  0.55262704601E+01  0.25604562689E+02  0.00000000000E+00 0.  1.
</event>
<event>
 7    1  0.1101380E-011  0.5930193E+02  0.7816164E-02  0.1266605E+00
        -11   -1    0    0    0    0  0.00000000000E+00  0.00000000000E+00  0.45593999997E+02  0.45594000000E+02  0.51100000000E-03 0.  1.
         11   -1    0    0    0    0 -0.00000000000E+00 -0.00000000000E+00 -0.45593999997E+02  0.45594000000E+02  0.51100000000E-03 0. -1.
    9900012    2    1    2    0    0  0.57765363564E+01  0.31317709491E+02 -0.15981967552E+01  0.59301928857E+02  0.49999972333E+02 0.  0.
        -12    1    1    2    0    0 -0.57765363564E+01 -0.31317709491E+02  0.15981967552E+01  0.31886071143E+02  0.00000000000E+00 0.  1.
         11    1    3    3    0    0  0.11964100033E+02 -0.56083759256E+00 -0.14572291066E+02  0.18862817806E+02  0.51100000000E-03 0. -1.
        -11    1    3    3    0    0 -0.78980792334E+01  0.39313762920E+01 -0.14530448314E+01  0.89412926733E+01  0.51100000000E-03 0.  1.
         12    1    3    3    0    0  0.17105155571E+01  0.27947170792E+02  0.14427139142E+02  0.31497818378E+02  0.00000000000E+00 0. -1.
</event>
<event>
 7    1  0.1101380E-011  0.5930176E+02  0.7816164E-02  0.1266605E+00
        -11   -1    0    0    0    0  0.00000000000E+00  0.00000000000E+00  0.45593999997E+02  0.45594000000E+02  0.51100000000E-03 0.  1.
         11   -1    0    0    0    0 -0.00000000000E+00 -0.00000000000E+00 -0.45593999997E+02  0.45594000000E+02  0.51100000000E-03 0. -1.
    9900012    2    1    2    0    0  0.17533015428E+02  0.86773541805E+00 -0.26619032962E+02  0.59301756719E+02  0.49999658393E+02 0.  0.
        -12    1    1    2    0    0 -0.17533015428E+02 -0.86773541805E+00  0.26619032962E+02  0.31886243281E+02  0.00000000000E+00 0.  1.
         11    1    3    3    0    0  0.23697216403E+02  0.75034984583E+01 -0.60686371539E+01  0.25586889446E+02  0.51100000000E-03 0. -1.
        -11    1    3    3    0    0  0.20156839231E+01 -0.62992568189E+01 -0.23952835087E+02  0.24849183631E+02  0.51100000000E-03 0.  1.
         12    1    3    3    0    0 -0.81798848982E+01 -0.33650622136E+00  0.34024392794E+01  0.88656836417E+01  0.00000000000E+00 0. -1.
</event>
<event>
 7    1  0.1101380E-011  0.5930195E+02  0.7816164E-02  0.1266605E+00
        -11   -1    0    0    0    0  0.00000000000E+00  0.00000000000E+00  0.45593999997E+02  0.45594000000E+02  0.51100000000E-03 0.  1.
         11   -1    0    0    0    0 -0.00000000000E+00 -0.00000000000E+00 -0.45593999997E+02  0.45594000000E+02  0.51100000000E-03 0. -1.
    9900012    2    1    2    0    0 -0.67591017076E+01  0.23370358801E+02 -0.20612156652E+02  0.59301950884E+02  0.50000012504E+02 0.  0.
        -12    1    1    2    0    0  0.67591017076E+01 -0.23370358801E+02  0.20612156652E+02  0.31886049116E+02  0.00000000000E+00 0.  1.
         11    1    3    3    0    0 -0.23778409435E+01  0.12883235793E+02 -0.30018452965E+02  0.32752700815E+02  0.51100000000E-03 0. -1.
        -11    1    3    3    0    0 -0.27289130328E+01  0.12769366526E+02 -0.33539983110E+01  0.13481579757E+02  0.51100000000E-03 0.  1.
        -12    1    3    3    0    0 -0.16523477313E+01 -0.22822435185E+01  0.12760294623E+02  0.13067670312E+02  0.00000000000E+00 0.  1.
</event>
<event>
 7    1  0.1101380E-011  0.5930209E+02  0.7816164E-02  0.1266604E+00
        -11   -1    0    0    0    0  0.00000000000E+00  0.00000000000E+00  0.45593999997E+02  0.45594000000E+02  0.51100000000E-03 0.  1.
         11   -1    0    0    0    0 -0.00000000000E+00 -0.00000000000E+00 -0.45593999997E+02  0.45594000000E+02  0.51100000000E-03 0. -1.
    9900012    2    1    2    0    0 -0.24243017613E+02 -0.95052590815E+01 -0.18402108807E+02  0.59302086782E+02  0.50000260349E+02 0.  0.
        -12    1    1    2    0    0  0.24243017613E+02  0.95052590815E+01  0.18402108807E+02  0.31885913218E+02  0.00000000000E+00 0.  1.
         11    1    3    3    0    0 -0.64507532934E+01 -0.11726260044E+02  0.45026570012E+01  0.14120598890E+02  0.51100000000E-03 0. -1.
        -11    1    3    3    0    0 -0.18251468143E+02 -0.12844877491E+02 -0.72901720761E+01  0.23478789924E+02  0.51100000000E-03 0.  1.
        -12    1    3    3    0    0  0.45920382308E+00  0.15065878453E+02 -0.15614593732E+02  0.21702697969E+02  0.00000000000E+00 0.  1.
</event>
<event>
 7    1  0.1101380E-011  0.5930191E+02  0.7816164E-02  0.1266605E+00
        -11   -1    0    0    0    0  0.00000000000E+00  0.00000000000E+00  0.45593999997E+02  0.45594000000E+02  0.51100000000E-03 0. -1.
         11   -1    0    0    0    0 -0.00000000000E+00 -0.00000000000E+00 -0.45593999997E+02  0.45594000000E+02  0.51100000000E-03 0.  1.
    9900012    2    1    2    0    0 -0.11988437313E+02  0.29397803460E+02  0.29613432012E+01  0.59301905365E+02  0.49999929489E+02 0.  0.
        -12    1    1    2    0    0  0.11988437313E+02 -0.29397803460E+02 -0.29613432012E+01  0.31886094635E+02  0.00000000000E+00 0.  1.
         11    1    3    3    0    0 -0.70626787383E+01  0.55130640166E+01  0.42124643397E+01  0.99005132132E+01  0.51100000000E-03 0. -1.
        -11    1    3    3    0    0 -0.61257290883E+01  0.15126971012E+02 -0.21683430143E+02  0.27138919504E+02  0.51100000000E-03 0.  1.
         12    1    3    3    0    0  0.11999705137E+01  0.87577684321E+01  0.20432309004E+02  0.22262472648E+02  0.00000000000E+00 0. -1.
</event>
<event>
 7    1  0.1101380E-011  0.5930196E+02  0.7816164E-02  0.1266605E+00
        -11   -1    0    0    0    0  0.00000000000E+00  0.00000000000E+00  0.45593999997E+02  0.45594000000E+02  0.51100000000E-03 0.  1.
         11   -1    0    0    0    0 -0.00000000000E+00 -0.00000000000E+00 -0.45593999997E+02  0.45594000000E+02  0.51100000000E-03 0. -1.
    9900012    2    1    2    0    0  0.58505106120E+01 -0.30562274441E+02 -0.69597687306E+01  0.59301961140E+02  0.50000031208E+02 0.  0.
        -12    1    1    2    0    0 -0.58505106120E+01  0.30562274441E+02  0.69597687306E+01  0.31886038860E+02  0.00000000000E+00 0.  1.
         11    1    3    3    0    0 -0.76937001432E+01 -0.65568734471E+01  0.84729024178E+01  0.13189984342E+02  0.51100000000E-03 0. -1.
        -11    1    3    3    0    0  0.74586027643E+01 -0.32277458768E+02 -0.12759799072E+02  0.35500388341E+02  0.51100000000E-03 0.  1.
         12    1    3    3    0    0  0.60856079910E+01  0.82720577747E+01 -0.26728720765E+01  0.10611588457E+02  0.00000000000E+00 0. -1.
</event>
<event>
 7    1  0.1101380E-011  0.5930194E+02  0.7816164E-02  0.1266605E+00
        -11   -1    0    0    0    0  0.00000000000E+00  0.00000000000E+00  0.45593999997E+02  0.45594000000E+02  0.51100000000E-03 0.  1.
         11   -1    0    0    0    0 -0.00000000000E+00 -0.00000000000E+00 -0.45593999997E+02  0.45594000000E+02  0.51100000000E-03 0. -1.
    9900012    2    1    2    0    0 -0.27307286038E+01  0.30353250953E+02 -0.93778446196E+01  0.59301942046E+02  0.49999996386E+02 0.  0.
        -12    1    1    2    0    0  0.27307286038E+01 -0.30353250953E+02  0.93778446196E+01  0.31886057954E+02  0.00000000000E+00 0.  1.
         11    1    3    3    0    0  0.62278966995E+01  0.11522853681E+02  0.14304970859E+02  0.19395748137E+02  0.51100000000E-03 0.  1.
        -11    1    3    3    0    0  0.61585352628E+01 -0.17112973631E+01 -0.29599951477E+01  0.70439808904E+01  0.51100000000E-03 0. -1.
         12    1    3    3    0    0 -0.15117160566E+02  0.20541694635E+02 -0.20722820331E+02  0.32862213019E+02  0.00000000000E+00 0. -1.
</event>
<event>
 7    1  0.1101380E-011  0.5930204E+02  0.7816164E-02  0.1266604E+00
        -11   -1    0    0    0    0  0.00000000000E+00  0.00000000000E+00  0.45593999997E+02  0.45594000000E+02  0.51100000000E-03 0.  1.
         11   -1    0    0    0    0 -0.00000000000E+00 -0.00000000000E+00 -0.45593999997E+02  0.45594000000E+02  0.51100000000E-03 0. -1.
    9900012    2    1    2    0    0  0.20035086587E+02 -0.16582093382E+02 -0.18448418720E+02  0.59302036493E+02  0.50000168635E+02 0.  0.
        -12    1    1    2    0    0 -0.20035086587E+02  0.16582093382E+02  0.18448418720E+02  0.31885963507E+02  0.00000000000E+00 0.  1.
         11    1    3    3    0    0  0.12763962030E+02  0.10303901818E+02 -0.68899618743E+01  0.17792152604E+02  0.51100000000E-03 0. -1.
        -11    1    3    3    0    0  0.29978890880E+01 -0.13488951613E+02  0.90812927885E+01  0.16535084928E+02  0.51100000000E-03 0.  1.
         12    1    3    3    0    0  0.42732354689E+01 -0.13397043586E+02 -0.20639749634E+02  0.24974798962E+02  0.00000000000E+00 0. -1.
</event>
<event>
 7    1  0.1101380E-011  0.5930195E+02  0.7816164E-02  0.1266605E+00
        -11   -1    0    0    0    0  0.00000000000E+00  0.00000000000E+00  0.45593999997E+02  0.45594000000E+02  0.51100000000E-03 0.  1.
         11   -1    0    0    0    0 -0.00000000000E+00 -0.00000000000E+00 -0.45593999997E+02  0.45594000000E+02  0.51100000000E-03 0. -1.
    9900012    2    1    2    0    0 -0.30128197985E+02 -0.10035131388E+02  0.28824102762E+01  0.59301945607E+02  0.50000002880E+02 0.  0.
        -12    1    1    2    0    0  0.30128197985E+02  0.10035131388E+02 -0.28824102762E+01  0.31886054393E+02  0.00000000000E+00 0.  1.
         11    1    3    3    0    0 -0.19968393687E+02 -0.19654545498E+02 -0.45977024625E-01  0.28018565618E+02  0.51100000000E-03 0. -1.
        -11    1    3    3    0    0 -0.54877383847E+01 -0.21725617023E+01 -0.10976389672E+02  0.12462601150E+02  0.51100000000E-03 0.  1.
        -12    1    3    3    0    0 -0.46720659134E+01  0.11791975812E+02  0.13904776973E+02  0.18820778839E+02  0.00000000000E+00 0.  1.
</event>
<event>
 7    1  0.1101380E-011  0.5930195E+02  0.7816164E-02  0.1266605E+00
        -11   -1    0    0    0    0  0.00000000000E+00  0.00000000000E+00  0.45593999997E+02  0.45594000000E+02  0.51100000000E-03 0.  1.
         11   -1    0    0    0    0 -0.00000000000E+00 -0.00000000000E+00 -0.45593999997E+02  0.45594000000E+02  0.51100000000E-03 0. -1.
    9900012    2    1    2    0    0  0.10447679227E+02  0.52300913068E+01 -0.29668372668E+02  0.59301949867E+02  0.50000010650E+02 0.  0.
        -12    1    1    2    0    0 -0.10447679227E+02 -0.52300913068E+01  0.29668372668E+02  0.31886050133E+02  0.00000000000E+00 0.  1.
         11    1    3    3    0    0  0.80192062538E+01 -0.31980370448E+01 -0.21409708627E+02  0.23084859402E+02  0.51100000000E-03 0. -1.
        -11    1    3    3    0    0  0.14102461116E+02 -0.49596486984E+01 -0.10564446783E+02  0.18305328755E+02  0.51100000000E-03 0.  1.
        -12    1    3    3    0    0 -0.11673988143E+02  0.13387777050E+02  0.23057827420E+01  0.17911761710E+02  0.00000000000E+00 0.  1.
</event>
<event>
 7    1  0.1101380E-011  0.5930195E+02  0.7816164E-02  0.1266605E+00
        -11   -1    0    0    0    0  0.00000000000E+00  0.00000000000E+00  0.45593999997E+02  0.45594000000E+02  0.51100000000E-03 0. -1.
         11   -1    0    0    0    0 -0.00000000000E+00 -0.00000000000E+00 -0.45593999997E+02  0.45594000000E+02  0.51100000000E-03 0.  1.
    9900012    2    1    2    0    0 -0.11508536864E+02 -0.25637738782E+02  0.15065859425E+02  0.59301949903E+02  0.50000010714E+02 0.  0.
        -12    1    1    2    0    0  0.11508536864E+02  0.25637738782E+02 -0.15065859425E+02  0.31886050097E+02  0.00000000000E+00 0.  1.
         11    1    3    3    0    0 -0.59673920753E+01 -0.13309947038E+02  0.16425308009E+02  0.21967139135E+02  0.51100000000E-03 0. -1.
        -11    1    3    3    0    0  0.10171214718E+00 -0.24170341024E+02 -0.14829601202E+01  0.24216005070E+02  0.51100000000E-03 0.  1.
         12    1    3    3    0    0 -0.56428569357E+01  0.11842549280E+02  0.12351153631E+00  0.13118805698E+02  0.00000000000E+00 0. -1.
</event>
<event>
 7    1  0.1101380E-011  0.5930186E+02  0.7816164E-02  0.1266605E+00
        -11   -1    0    0    0    0  0.00000000000E+00  0.00000000000E+00  0.45593999997E+02  0.45594000000E+02  0.51100000000E-03 0.  1.
         11   -1    0    0    0    0 -0.00000000000E+00 -0.00000000000E+00 -0.45593999997E+02  0.45594000000E+02  0.51100000000E-03 0. -1.
    9900012    2    1    2    0    0 -0.17007635879E+02  0.16548705708E+02 -0.21298048811E+02  0.59301855330E+02  0.49999838236E+02 0.  0.
        -12    1    1    2    0    0  0.17007635879E+02 -0.16548705708E+02  0.21298048811E+02  0.31886144670E+02  0.00000000000E+00 0.  1.
         11    1    3    3    0    0 -0.37466210554E+01  0.68448678689E+01 -0.25517862578E+01  0.82098111332E+01  0.51100000000E-03 0. -1.
        -11    1    3    3    0    0 -0.12812018757E+02  0.84247507269E+01 -0.33202566015E+02  0.36572320677E+02  0.51100000000E-03 0.  1.
        -12    1    3    3    0    0 -0.44899606606E+00  0.12790871127E+01  0.14456303462E+02  0.14519723520E+02  0.00000000000E+00 0.  1.
</event>
<event>
 7    1  0.1101380E-011  0.5930192E+02  0.7816164E-02  0.1266605E+00
        -11   -1    0    0    0    0  0.00000000000E+00  0.00000000000E+00  0.45593999997E+02  0.45594000000E+02  0.51100000000E-03 0.  1.
         11   -1    0    0    0    0 -0.00000000000E+00 -0.00000000000E+00 -0.45593999997E+02  0.45594000000E+02  0.51100000000E-03 0. -1.
    9900012    2    1    2    0    0  0.11790272867E+02  0.23511841386E+02 -0.18025109782E+02  0.59301924633E+02  0.49999964629E+02 0.  0.
        -12    1    1    2    0    0 -0.11790272867E+02 -0.23511841386E+02  0.18025109782E+02  0.31886075367E+02  0.00000000000E+00 0.  1.
         11    1    3    3    0    0 -0.22635962504E+01  0.15611254656E+00 -0.77197282636E+01  0.80462689389E+01  0.51100000000E-03 0. -1.
        -11    1    3    3    0    0  0.42329837107E+01 -0.11723062778E+02 -0.78830850507E+01  0.14747589029E+02  0.51100000000E-03 0.  1.
        -12    1    3    3    0    0  0.98208854065E+01  0.35078791617E+02 -0.24222964681E+01  0.36508066666E+02  0.00000000000E+00 0.  1.
</event>
<event>
 7    1  0.1101380E-011  0.5930197E+02  0.7816164E-02  0.1266605E+00
        -11   -1    0    0    0    0  0.00000000000E+00  0.00000000000E+00  0.45593999997E+02  0.45594000000E+02  0.51100000000E-03 0.  1.
         11   -1    0    0    0    0 -0.00000000000E+00 -0.00000000000E+00 -0.45593999997E+02  0.45594000000E+02  0.51100000000E-03 0. -1.
    9900012    2    1    2    0    0 -0.79010203126E+00  0.31504570520E+02 -0.48535536166E+01  0.59301965320E+02  0.50000038833E+02 0.  0.
        -12    1    1    2    0    0  0.79010203126E+00 -0.31504570520E+02  0.48535536166E+01  0.31886034680E+02  0.00000000000E+00 0.  1.
         11    1    3    3    0    0 -0.11776341942E+02  0.65007949201E+01 -0.48854891411E+01  0.14311204301E+02  0.51100000000E-03 0. -1.
        -11    1    3    3    0    0 -0.88059370191E+01  0.23536272326E+02  0.58626503972E+00  0.25136514252E+02  0.51100000000E-03 0.  1.
        -12    1    3    3    0    0  0.19792176930E+02  0.14675032737E+01 -0.55432951520E+00  0.19854246767E+02  0.00000000000E+00 0.  1.
</event>
<event>
 7    1  0.1101380E-011  0.5930192E+02  0.7816164E-02  0.1266605E+00
        -11   -1    0    0    0    0  0.00000000000E+00  0.00000000000E+00  0.45593999997E+02  0.45594000000E+02  0.51100000000E-03 0.  1.
         11   -1    0    0    0    0 -0.00000000000E+00 -0.00000000000E+00 -0.45593999997E+02  0.45594000000E+02  0.51100000000E-03 0. -1.
    9900012    2    1    2    0    0 -0.11768064439E+02  0.29525735559E+02  0.25427200177E+01  0.59301924261E+02  0.49999963951E+02 0.  0.
        -12    1    1    2    0    0  0.11768064439E+02 -0.29525735559E+02 -0.25427200177E+01  0.31886075739E+02  0.00000000000E+00 0.  1.
         11    1    3    3    0    0 -0.93858526578E+01  0.26719621013E+00 -0.13632581338E+02  0.16553334955E+02  0.51100000000E-03 0. -1.
        -11    1    3    3    0    0  0.32627262141E+01 -0.34064420021E+01  0.68423768204E+01  0.83106768843E+01  0.51100000000E-03 0.  1.
         12    1    3    3    0    0 -0.56449379954E+01  0.32664981351E+02  0.93329245354E+01  0.34437912422E+02  0.00000000000E+00 0. -1.
</event>
<event>
 7    1  0.1101380E-011  0.5930194E+02  0.7816164E-02  0.1266605E+00
        -11   -1    0    0    0    0  0.00000000000E+00  0.00000000000E+00  0.45593999997E+02  0.45594000000E+02  0.51100000000E-03 0.  1.
         11   -1    0    0    0    0 -0.00000000000E+00 -0.00000000000E+00 -0.45593999997E+02  0.45594000000E+02  0.51100000000E-03 0. -1.
    9900012    2    1    2    0    0 -0.18280764220E+02 -0.23733632237E+02 -0.10920113819E+02  0.59301944655E+02  0.50000001144E+02 0.  0.
        -12    1    1    2    0    0  0.18280764220E+02  0.23733632237E+02  0.10920113819E+02  0.31886055345E+02  0.00000000000E+00 0.  1.
         11    1    3    3    0    0 -0.13686216475E+02 -0.86945844135E+01 -0.13330622043E+02  0.20990802839E+02  0.51100000000E-03 0. -1.
        -11    1    3    3    0    0 -0.18222039917E+02 -0.26309136051E+01 -0.39207499051E+01  0.18823833967E+02  0.51100000000E-03 0.  1.
         12    1    3    3    0    0  0.13627492172E+02 -0.12408134219E+02  0.63312581292E+01  0.19487307849E+02  0.00000000000E+00 0. -1.
</event>
<event>
 7    1  0.1101380E-011  0.5930195E+02  0.7816164E-02  0.1266605E+00
        -11   -1    0    0    0    0  0.00000000000E+00  0.00000000000E+00  0.45593999997E+02  0.45594000000E+02  0.51100000000E-03 0. -1.
         11   -1    0    0    0    0 -0.00000000000E+00 -0.00000000000E+00 -0.45593999997E+02  0.45594000000E+02  0.51100000000E-03 0.  1.
    9900012    2    1    2    0    0  0.21608482164E+02  0.21255401056E+02  0.98995817208E+01  0.59301948289E+02  0.50000007771E+02 0.  0.
        -12    1    1    2    0    0 -0.21608482164E+02 -0.21255401056E+02 -0.98995817208E+01  0.31886051711E+02  0.00000000000E+00 0.  1.
         11    1    3    3    0    0  0.25028399734E+02  0.11325512135E+01  0.79906060539E+01  0.26297400078E+02  0.51100000000E-03 0. -1.
        -11    1    3    3    0    0  0.89235006476E+01  0.10095021181E+02 -0.65611359968E+01  0.14986221081E+02  0.51100000000E-03 0.  1.
         12    1    3    3    0    0 -0.12343418218E+02  0.10027828661E+02  0.84701116637E+01  0.18018327129E+02  0.00000000000E+00 0. -1.
</event>
<event>
 7    1  0.1101380E-011  0.5930208E+02  0.7816164E-02  0.1266604E+00
        -11   -1    0    0    0    0  0.00000000000E+00  0.00000000000E+00  0.45593999997E+02  0.45594000000E+02  0.51100000000E-03 0. -1.
         11   -1    0    0    0    0 -0.00000000000E+00 -0.00000000000E+00 -0.45593999997E+02  0.45594000000E+02  0.51100000000E-03 0.  1.
    9900012    2    1    2    0    0  0.10309432370E+02  0.17535820915E+02  0.24554480534E+02  0.59302079514E+02  0.50000247093E+02 0.  0.
        -12    1    1    2    0    0 -0.10309432370E+02 -0.17535820915E+02 -0.24554480534E+02  0.31885920486E+02  0.00000000000E+00 0.  1.
         11    1    3    3    0    0  0.40780814471E+01  0.22166373252E+02  0.31322504188E+02  0.38588574997E+02  0.51100000000E-03 0. -1.
        -11    1    3    3    0    0 -0.59500739501E+01 -0.28053066697E+01 -0.50152823334E+01  0.82720120084E+01  0.51100000000E-03 0.  1.
        -12    1    3    3    0    0  0.12181424873E+02 -0.18252456677E+01 -0.17527413205E+01  0.12441492508E+02  0.00000000000E+00 0.  1.
</event>
<event>
 7    1  0.1101380E-011  0.5930190E+02  0.7816164E-02  0.1266605E+00
        -11   -1    0    0    0    0  0.00000000000E+00  0.00000000000E+00  0.45593999997E+02  0.45594000000E+02  0.51100000000E-03 0.  1.
         11   -1    0    0    0    0 -0.00000000000E+00 -0.00000000000E+00 -0.45593999997E+02  0.45594000000E+02  0.51100000000E-03 0. -1.
    9900012    2    1    2    0    0  0.23470574443E+01  0.30201433385E+02 -0.99543097877E+01  0.59301897377E+02  0.49999914919E+02 0.  0.
        -12    1    1    2    0    0 -0.23470574443E+01 -0.30201433385E+02  0.99543097877E+01  0.31886102623E+02  0.00000000000E+00 0.  1.
         11    1    3    3    0    0  0.44398542888E+01  0.22544271758E+02 -0.23367786462E+02  0.32772090864E+02  0.51100000000E-03 0. -1.
        -11    1    3    3    0    0  0.12903449226E+01 -0.66794704207E+01  0.30246803506E+00  0.68096844489E+01  0.51100000000E-03 0.  1.
         12    1    3    3    0    0 -0.33831417671E+01  0.14336632048E+02  0.13111008639E+02  0.19720122064E+02  0.00000000000E+00 0. -1.
</event>
<event>
 7    1  0.1101380E-011  0.5930193E+02  0.7816164E-02  0.1266605E+00
        -11   -1    0    0    0    0  0.00000000000E+00  0.00000000000E+00  0.45593999997E+02  0.45594000000E+02  0.51100000000E-03 0. -1.
         11   -1    0    0    0    0 -0.00000000000E+00 -0.00000000000E+00 -0.45593999997E+02  0.45594000000E+02  0.51100000000E-03 0.  1.
    9900012    2    1    2    0    0  0.91830509709E+01 -0.12929256128E+02  0.27662738171E+02  0.59301934512E+02  0.49999982646E+02 0.  0.
        -12    1    1    2    0    0 -0.91830509709E+01  0.12929256128E+02 -0.27662738171E+02  0.31886065488E+02  0.00000000000E+00 0.  1.
         11    1    3    3    0    0  0.41223937840E+01 -0.17041168947E+02  0.62054204916E+01  0.18598462660E+02  0.51100000000E-03 0. -1.
        -11    1    3    3    0    0 -0.90311275540E+01  0.21429187242E+01 -0.50881985981E+01  0.10585042786E+02  0.51100000000E-03 0.  1.
         12    1    3    3    0    0  0.14091784741E+02  0.19689940948E+01  0.26545516278E+02  0.30118429066E+02  0.00000000000E+00 0. -1.
</event>
<event>
 7    1  0.1101380E-011  0.5930195E+02  0.7816164E-02  0.1266605E+00
        -11   -1    0    0    0    0  0.00000000000E+00  0.00000000000E+00  0.45593999997E+02  0.45594000000E+02  0.51100000000E-03 0. -1.
         11   -1    0    0    0    0 -0.00000000000E+00 -0.00000000000E+00 -0.45593999997E+02  0.45594000000E+02  0.51100000000E-03 0.  1.
    9900012    2    1    2    0    0  0.26901207589E+02  0.30118614768E+01  0.16851518217E+02  0.59301953749E+02  0.50000017730E+02 0.  0.
        -12    1    1    2    0    0 -0.26901207589E+02 -0.30118614768E+01 -0.16851518217E+02  0.31886046251E+02  0.00000000000E+00 0.  1.
         11    1    3    3    0    0  0.68711069462E+01 -0.11637763211E+02 -0.46977264235E+01  0.14307979488E+02  0.51100000000E-03 0. -1.
        -11    1    3    3    0    0  0.56285101074E+01 -0.81554861357E+01  0.13690932900E+02  0.16900701881E+02  0.51100000000E-03 0.  1.
         12    1    3    3    0    0  0.14401590535E+02  0.22805110824E+02  0.78583117407E+01  0.28093272380E+02  0.00000000000E+00 0. -1.
</event>
<event>
 7    1  0.1101380E-011  0.5930195E+02  0.7816164E-02  0.1266605E+00
        -11   -1    0    0    0    0  0.00000000000E+00  0.00000000000E+00  0.45593999997E+02  0.45594000000E+02  0.51100000000E-03 0. -1.
         11   -1    0    0    0    0 -0.00000000000E+00 -0.00000000000E+00 -0.45593999997E+02  0.45594000000E+02  0.51100000000E-03 0.  1.
    9900012    2    1    2    0    0 -0.18526020443E+02 -0.24747165050E+02  0.78156754706E+01  0.59301946708E+02  0.50000004888E+02 0.  0.
        -12    1    1    2    0    0  0.18526020443E+02  0.24747165050E+02 -0.78156754706E+01  0.31886053292E+02  0.00000000000E+00 0.  1.
         11    1    3    3    0    0 -0.13981578915E+02 -0.12880173267E+02  0.60666837573E+01  0.19954650195E+02  0.51100000000E-03 0. -1.
        -11    1    3    3    0    0 -0.20474819255E+02 -0.59688954752E+01 -0.34010415944E+01  0.21596597439E+02  0.51100000000E-03 0.  1.
         12    1    3    3    0    0  0.15930377726E+02 -0.58980963076E+01  0.51500333077E+01  0.17750699074E+02  0.00000000000E+00 0. -1.
</event>
<event>
 7    1  0.1101380E-011  0.5930196E+02  0.7816164E-02  0.1266605E+00
        -11   -1    0    0    0    0  0.00000000000E+00  0.00000000000E+00  0.45593999997E+02  0.45594000000E+02  0.51100000000E-03 0. -1.
         11   -1    0    0    0    0 -0.00000000000E+00 -0.00000000000E+00 -0.45593999997E+02  0.45594000000E+02  0.51100000000E-03 0.  1.
    9900012    2    1    2    0    0 -0.41373746580E+01  0.56634609311E+01  0.31105098689E+02  0.59301955667E+02  0.50000021227E+02 0.  0.
        -12    1    1    2    0    0  0.41373746580E+01 -0.56634609311E+01 -0.31105098689E+02  0.31886044333E+02  0.00000000000E+00 0.  1.
         11    1    3    3    0    0  0.51807789762E+01  0.12145625193E+02  0.19933822760E+02  0.23910541027E+02  0.51100000000E-03 0. -1.
        -11    1    3    3    0    0  0.87459209735E+01  0.11329176713E+01  0.12993113203E+02  0.15703363559E+02  0.51100000000E-03 0.  1.
         12    1    3    3    0    0 -0.18064074608E+02 -0.76150819329E+01 -0.18218372737E+01  0.19688051080E+02  0.00000000000E+00 0. -1.
</event>
<event>
 7    1  0.1101380E-011  0.5930195E+02  0.7816164E-02  0.1266605E+00
        -11   -1    0    0    0    0  0.00000000000E+00  0.00000000000E+00  0.45593999997E+02  0.45594000000E+02  0.51100000000E-03 0.  1.
         11   -1    0    0    0    0 -0.00000000000E+00 -0.00000000000E+00 -0.45593999997E+02  0.45594000000E+02  0.51100000000E-03 0. -1.
    9900012    2    1    2    0    0  0.22466644976E+02  0.20055456779E+02 -0.10476110067E+02  0.59301947168E+02  0.50000005727E+02 0.  0.
        -12    1    1    2    0    0 -0.22466644976E+02 -0.20055456779E+02  0.10476110067E+02  0.31886052832E+02  0.00000000000E+00 0.  1.
         11    1    3    3    0    0  0.30739754031E+02  0.10446521773E+02  0.60281063105E+01  0.33021210774E+02  0.51100000000E-03 0. -1.
        -11    1    3    3    0    0 -0.52165805864E+01 -0.15035403976E+01  0.80222907234E+00  0.54878883450E+01  0.51100000000E-03 0.  1.
        -12    1    3    3    0    0 -0.30565284689E+01  0.11112475404E+02 -0.17306445450E+02  0.20792848049E+02  0.00000000000E+00 0.  1.
</event>
<event>
 7    1  0.1101380E-011  0.5930191E+02  0.7816164E-02  0.1266605E+00
        -11   -1    0    0    0    0  0.00000000000E+00  0.00000000000E+00  0.45593999997E+02  0.45594000000E+02  0.51100000000E-03 0.  1.
         11   -1    0    0    0    0 -0.00000000000E+00 -0.00000000000E+00 -0.45593999997E+02  0.45594000000E+02  0.51100000000E-03 0. -1.
    9900012    2    1    2    0    0  0.29860609089E+02  0.10691980337E+02 -0.32784309688E+01  0.59301913249E+02  0.49999943866E+02 0.  0.
        -12    1    1    2    0    0 -0.29860609089E+02 -0.10691980337E+02  0.32784309688E+01  0.31886086751E+02  0.00000000000E+00 0.  1.
         11    1    3    3    0    0 -0.98117574961E+01  0.37947111066E+01  0.16085460924E+01  0.10642266598E+02  0.51100000000E-03 0. -1.
        -11    1    3    3    0    0  0.50214910050E-01 -0.64963873045E+01  0.36316160902E+00  0.65067239194E+01  0.51100000000E-03 0.  1.
        -12    1    3    3    0    0  0.39622151675E+02  0.13393656535E+02 -0.52501386702E+01  0.42152922731E+02  0.00000000000E+00 0.  1.
</event>
<event>
 7    1  0.1101380E-011  0.5930195E+02  0.7816164E-02  0.1266605E+00
        -11   -1    0    0    0    0  0.00000000000E+00  0.00000000000E+00  0.45593999997E+02  0.45594000000E+02  0.51100000000E-03 0.  1.
         11   -1    0    0    0    0 -0.00000000000E+00 -0.00000000000E+00 -0.45593999997E+02  0.45594000000E+02  0.51100000000E-03 0. -1.
    9900012    2    1    2    0    0  0.36884988416E+01  0.24258719998E+01 -0.31578957021E+02  0.59301946541E+02  0.50000004583E+02 0.  0.
        -12    1    1    2    0    0 -0.36884988416E+01 -0.24258719998E+01  0.31578957021E+02  0.31886053459E+02  0.00000000000E+00 0.  1.
         11    1    3    3    0    0  0.56038930908E+01  0.12488206374E+00 -0.34008145366E+01  0.65562758542E+01  0.51100000000E-03 0. -1.
        -11    1    3    3    0    0  0.90016248109E+01  0.12782809934E+02  0.48880369436E+01  0.16380548968E+02  0.51100000000E-03 0.  1.
        -12    1    3    3    0    0 -0.10917019060E+02 -0.10481819998E+02 -0.33066179428E+02  0.36365121719E+02  0.00000000000E+00 0.  1.
</event>
<event>
 7    1  0.1101380E-011  0.5930193E+02  0.7816164E-02  0.1266605E+00
        -11   -1    0    0    0    0  0.00000000000E+00  0.00000000000E+00  0.45593999997E+02  0.45594000000E+02  0.51100000000E-03 0.  1.
         11   -1    0    0    0    0 -0.00000000000E+00 -0.00000000000E+00 -0.45593999997E+02  0.45594000000E+02  0.51100000000E-03 0. -1.
    9900012    2    1    2    0    0  0.10879469103E+02 -0.20598957924E+02 -0.21772488199E+02  0.59301934738E+02  0.49999983058E+02 0.  0.
        -12    1    1    2    0    0 -0.10879469103E+02  0.20598957924E+02  0.21772488199E+02  0.31886065262E+02  0.00000000000E+00 0.  1.
         11    1    3    3    0    0 -0.77861022595E+01 -0.18658077402E+02 -0.13101883532E+02  0.24091629108E+02  0.51100000000E-03 0. -1.
        -11    1    3    3    0    0  0.13018864478E+02 -0.12955373546E+02  0.25017281651E+01  0.18536212668E+02  0.51100000000E-03 0.  1.
         12    1    3    3    0    0  0.56467068846E+01  0.11014493024E+02 -0.11172332831E+02  0.16674092962E+02  0.00000000000E+00 0. -1.
</event>
<event>
 7    1  0.1101380E-011  0.5930194E+02  0.7816164E-02  0.1266605E+00
        -11   -1    0    0    0    0  0.00000000000E+00  0.00000000000E+00  0.45593999997E+02  0.45594000000E+02  0.51100000000E-03 0.  1.
         11   -1    0    0    0    0 -0.00000000000E+00 -0.00000000000E+00 -0.45593999997E+02  0.45594000000E+02  0.51100000000E-03 0. -1.
    9900012    2    1    2    0    0  0.10110772373E+02 -0.30125297107E+02 -0.26381252915E+01  0.59301938017E+02  0.49999989037E+02 0.  0.
        -12    1    1    2    0    0 -0.10110772373E+02  0.30125297107E+02  0.26381252915E+01  0.31886061983E+02  0.00000000000E+00 0.  1.
         11    1    3    3    0    0  0.18285873748E+02 -0.43789023486E+01 -0.29733605113E+01  0.19036513270E+02  0.51100000000E-03 0. -1.
        -11    1    3    3    0    0 -0.87180625445E+00 -0.30009958274E+00  0.11497788930E+02  0.11534697935E+02  0.51100000000E-03 0.  1.
        -12    1    3    3    0    0 -0.73032951208E+01 -0.25446295176E+02 -0.11162553710E+02  0.28730726812E+02  0.00000000000E+00 0.  1.
</event>
<event>
 7    1  0.1101380E-011  0.5930195E+02  0.7816164E-02  0.1266605E+00
        -11   -1    0    0    0    0  0.00000000000E+00  0.00000000000E+00  0.45593999997E+02  0.45594000000E+02  0.51100000000E-03 0.  1.
         11   -1    0    0    0    0 -0.00000000000E+00 -0.00000000000E+00 -0.45593999997E+02  0.45594000000E+02  0.51100000000E-03 0. -1.
    9900012    2    1    2    0    0  0.22043800996E+01 -0.20886655536E+02 -0.23991848046E+02  0.59301945936E+02  0.50000003480E+02 0.  0.
        -12    1    1    2    0    0 -0.22043800996E+01  0.20886655536E+02  0.23991848046E+02  0.31886054064E+02  0.00000000000E+00 0.  1.
         11    1    3    3    0    0  0.10150838580E+02  0.49402319783E+01  0.58107395601E+01  0.12696854350E+02  0.51100000000E-03 0. -1.
        -11    1    3    3    0    0 -0.10040981276E+02 -0.64843988595E+01 -0.12000838806E+01  0.12012865400E+02  0.51100000000E-03 0.  1.
         12    1    3    3    0    0  0.20945227952E+01 -0.19342488655E+02 -0.28602503726E+02  0.34592226186E+02  0.00000000000E+00 0. -1.
</event>
<event>
 7    1  0.1101380E-011  0.5930198E+02  0.7816164E-02  0.1266605E+00
        -11   -1    0    0    0    0  0.00000000000E+00  0.00000000000E+00  0.45593999997E+02  0.45594000000E+02  0.51100000000E-03 0. -1.
         11   -1    0    0    0    0 -0.00000000000E+00 -0.00000000000E+00 -0.45593999997E+02  0.45594000000E+02  0.51100000000E-03 0.  1.
    9900012    2    1    2    0    0 -0.27290985301E+02 -0.14290478045E+02  0.82281561972E+01  0.59301981185E+02  0.50000067766E+02 0.  0.
        -12    1    1    2    0    0  0.27290985301E+02  0.14290478045E+02 -0.82281561972E+01  0.31886018815E+02  0.00000000000E+00 0.  1.
         11    1    3    3    0    0 -0.63431610849E+01 -0.18247345108E+02  0.76608353390E+00  0.19333602362E+02  0.51100000000E-03 0. -1.
        -11    1    3    3    0    0  0.55836168474E+01  0.10449531667E+02  0.93223484736E+00  0.11884382661E+02  0.51100000000E-03 0.  1.
         12    1    3    3    0    0 -0.26531441063E+02 -0.64926646042E+01  0.65298378160E+01  0.28083996163E+02  0.00000000000E+00 0. -1.
</event>
<event>
 7    1  0.1101380E-011  0.5930194E+02  0.7816164E-02  0.1266605E+00
        -11   -1    0    0    0    0  0.00000000000E+00  0.00000000000E+00  0.45593999997E+02  0.45594000000E+02  0.51100000000E-03 0. -1.
         11   -1    0    0    0    0 -0.00000000000E+00 -0.00000000000E+00 -0.45593999997E+02  0.45594000000E+02  0.51100000000E-03 0.  1.
    9900012    2    1    2    0    0  0.30048175242E+02  0.12901692824E+01  0.10590713745E+02  0.59301943647E+02  0.49999999305E+02 0.  0.
        -12    1    1    2    0    0 -0.30048175242E+02 -0.12901692824E+01 -0.10590713745E+02  0.31886056353E+02  0.00000000000E+00 0.  1.
         11    1    3    3    0    0  0.14502883934E+02  0.35050897939E+01 -0.53754094013E+01  0.15859203113E+02  0.51100000000E-03 0.  1.
        -11    1    3    3    0    0  0.40865884435E+01 -0.83291770761E+01  0.25627687185E+02  0.27255343450E+02  0.51100000000E-03 0. -1.
         12    1    3    3    0    0  0.11458702864E+02  0.61142565646E+01 -0.96615640388E+01  0.16187397084E+02  0.00000000000E+00 0. -1.
</event>
<event>
 7    1  0.1101380E-011  0.5930198E+02  0.7816164E-02  0.1266605E+00
        -11   -1    0    0    0    0  0.00000000000E+00  0.00000000000E+00  0.45593999997E+02  0.45594000000E+02  0.51100000000E-03 0. -1.
         11   -1    0    0    0    0 -0.00000000000E+00 -0.00000000000E+00 -0.45593999997E+02  0.45594000000E+02  0.51100000000E-03 0.  1.
    9900012    2    1    2    0    0 -0.84493995384E+01 -0.14559321783E+02  0.27080475709E+02  0.59301978486E+02  0.50000062844E+02 0.  0.
        -12    1    1    2    0    0  0.84493995384E+01  0.14559321783E+02 -0.27080475709E+02  0.31886021514E+02  0.00000000000E+00 0.  1.
         11    1    3    3    0    0 -0.80675390306E+01 -0.48135914193E+01  0.35462944169E+02  0.36686186198E+02  0.51100000000E-03 0. -1.
        -11    1    3    3    0    0 -0.50688024530E+01 -0.40899169872E+01  0.44091481632E+01  0.78651616039E+01  0.51100000000E-03 0.  1.
        -12    1    3    3    0    0  0.46869419453E+01 -0.56558133765E+01 -0.12791616623E+02  0.14750630684E+02  0.00000000000E+00 0.  1.
</event>
<event>
 7    1  0.1101380E-011  0.5930200E+02  0.7816164E-02  0.1266605E+00
        -11   -1    0    0    0    0  0.00000000000E+00  0.00000000000E+00  0.45593999997E+02  0.45594000000E+02  0.51100000000E-03 0.  1.
         11   -1    0    0    0    0 -0.00000000000E+00 -0.00000000000E+00 -0.45593999997E+02  0.45594000000E+02  0.51100000000E-03 0. -1.
    9900012    2    1    2    0    0 -0.78952375751E+00  0.29754877590E+02 -0.11434194113E+02  0.59302001769E+02  0.50000105307E+02 0.  0.
        -12    1    1    2    0    0  0.78952375751E+00 -0.29754877590E+02  0.11434194113E+02  0.31885998231E+02  0.00000000000E+00 0.  1.
         11    1    3    3    0    0 -0.13208170592E+02  0.84262493681E+01  0.12220823069E+02  0.19869724848E+02  0.51100000000E-03 0.  1.
        -11    1    3    3    0    0  0.48130712918E+00  0.44300678114E+01 -0.17186839211E+02  0.17755128828E+02  0.51100000000E-03 0. -1.
        -12    1    3    3    0    0  0.11937339706E+02  0.16898560410E+02 -0.64681779709E+01  0.21677148093E+02  0.00000000000E+00 0.  1.
</event>
<event>
 7    1  0.1101380E-011  0.5930197E+02  0.7816164E-02  0.1266605E+00
        -11   -1    0    0    0    0  0.00000000000E+00  0.00000000000E+00  0.45593999997E+02  0.45594000000E+02  0.51100000000E-03 0. -1.
         11   -1    0    0    0    0 -0.00000000000E+00 -0.00000000000E+00 -0.45593999997E+02  0.45594000000E+02  0.51100000000E-03 0.  1.
    9900012    2    1    2    0    0 -0.13551148123E+02 -0.28439180542E+02  0.49293606621E+01  0.59301965410E+02  0.50000038996E+02 0.  0.
        -12    1    1    2    0    0  0.13551148123E+02  0.28439180542E+02 -0.49293606621E+01  0.31886034590E+02  0.00000000000E+00 0.  1.
         11    1    3    3    0    0 -0.45666201101E+01 -0.16137435203E+02  0.83378640455E+01  0.18729410329E+02  0.51100000000E-03 0. -1.
        -11    1    3    3    0    0  0.10742973157E+02 -0.43612064479E+01  0.10102114683E+02  0.15378046536E+02  0.51100000000E-03 0.  1.
        -12    1    3    3    0    0 -0.19727501170E+02 -0.79405388903E+01 -0.13510618066E+02  0.25194508545E+02  0.00000000000E+00 0.  1.
</event>
<event>
 7    1  0.1101380E-011  0.5930195E+02  0.7816164E-02  0.1266605E+00
        -11   -1    0    0    0    0  0.00000000000E+00  0.00000000000E+00  0.45593999997E+02  0.45594000000E+02  0.51100000000E-03 0.  1.
         11   -1    0    0    0    0 -0.00000000000E+00 -0.00000000000E+00 -0.45593999997E+02  0.45594000000E+02  0.51100000000E-03 0. -1.
    9900012    2    1    2    0    0  0.74825986732E+01  0.29833933622E+02 -0.84063996877E+01  0.59301946089E+02  0.50000003760E+02 0.  0.
        -12    1    1    2    0    0 -0.74825986732E+01 -0.29833933622E+02  0.84063996877E+01  0.31886053911E+02  0.00000000000E+00 0.  1.
         11    1    3    3    0    0  0.24072524708E+02  0.10474198989E+02 -0.15220122453E+02  0.30345467834E+02  0.51100000000E-03 0. -1.
        -11    1    3    3    0    0 -0.72129567861E+01  0.38784860572E+01 -0.25509938316E+01  0.85777018766E+01  0.51100000000E-03 0.  1.
        -12    1    3    3    0    0 -0.93769692492E+01  0.15481248576E+02  0.93647165968E+01  0.20378776379E+02  0.00000000000E+00 0.  1.
</event>
<event>
 7    1  0.1101380E-011  0.5930156E+02  0.7816164E-02  0.1266606E+00
        -11   -1    0    0    0    0  0.00000000000E+00  0.00000000000E+00  0.45593999997E+02  0.45594000000E+02  0.51100000000E-03 0. -1.
         11   -1    0    0    0    0 -0.00000000000E+00 -0.00000000000E+00 -0.45593999997E+02  0.45594000000E+02  0.51100000000E-03 0.  1.
    9900012    2    1    2    0    0  0.92134247413E+01  0.29828158613E+02 -0.64914317830E+01  0.59301562000E+02  0.49999303269E+02 0.  0.
        -12    1    1    2    0    0 -0.92134247413E+01 -0.29828158613E+02  0.64914317830E+01  0.31886438000E+02  0.00000000000E+00 0.  1.
         11    1    3    3    0    0  0.11915269210E+02 -0.13079562791E+01 -0.99398433980E+01  0.15571925925E+02  0.51100000000E-03 0. -1.
        -11    1    3    3    0    0  0.12868985187E+02  0.64847916932E+01  0.43355799265E+00  0.14417048097E+02  0.51100000000E-03 0.  1.
        -12    1    3    3    0    0 -0.15570829655E+02  0.24651323199E+02  0.30148536224E+01  0.29312587978E+02  0.00000000000E+00 0.  1.
</event>
<event>
 7    1  0.1101380E-011  0.5930195E+02  0.7816164E-02  0.1266605E+00
        -11   -1    0    0    0    0  0.00000000000E+00  0.00000000000E+00  0.45593999997E+02  0.45594000000E+02  0.51100000000E-03 0.  1.
         11   -1    0    0    0    0 -0.00000000000E+00 -0.00000000000E+00 -0.45593999997E+02  0.45594000000E+02  0.51100000000E-03 0. -1.
    9900012    2    1    2    0    0 -0.18731425842E+02 -0.92697359304E+01 -0.24081652759E+02  0.59301947910E+02  0.50000007080E+02 0.  0.
        -12    1    1    2    0    0  0.18731425842E+02  0.92697359304E+01  0.24081652759E+02  0.31886052090E+02  0.00000000000E+00 0.  1.
         11    1    3    3    0    0 -0.21100053159E+02 -0.46134919945E+01 -0.19375436352E+02  0.29015583499E+02  0.51100000000E-03 0. -1.
        -11    1    3    3    0    0 -0.10378210036E+02  0.62447053234E+01 -0.58977618156E+01  0.13471717887E+02  0.51100000000E-03 0.  1.
        -12    1    3    3    0    0  0.12746837353E+02 -0.10900949259E+02  0.11915454084E+01  0.16814646524E+02  0.00000000000E+00 0.  1.
</event>
<event>
 7    1  0.1101380E-011  0.5930194E+02  0.7816164E-02  0.1266605E+00
        -11   -1    0    0    0    0  0.00000000000E+00  0.00000000000E+00  0.45593999997E+02  0.45594000000E+02  0.51100000000E-03 0.  1.
         11   -1    0    0    0    0 -0.00000000000E+00 -0.00000000000E+00 -0.45593999997E+02  0.45594000000E+02  0.51100000000E-03 0. -1.
    9900012    2    1    2    0    0  0.18580807562E+01 -0.12128742165E+02 -0.29430633970E+02  0.59301936171E+02  0.49999985672E+02 0.  0.
        -12    1    1    2    0    0 -0.18580807562E+01  0.12128742165E+02  0.29430633970E+02  0.31886063829E+02  0.00000000000E+00 0.  1.
         11    1    3    3    0    0 -0.58044635542E+01 -0.12313673973E+01 -0.16606924289E+02  0.17635135310E+02  0.51100000000E-03 0. -1.
        -11    1    3    3    0    0 -0.12699405609E+02 -0.12266472499E+02 -0.11793857666E+02  0.21232906756E+02  0.51100000000E-03 0.  1.
         12    1    3    3    0    0  0.20361949920E+02  0.13690977315E+01 -0.10298520161E+01  0.20433894105E+02  0.00000000000E+00 0. -1.
</event>
<event>
 7    1  0.1101380E-011  0.5930195E+02  0.7816164E-02  0.1266605E+00
        -11   -1    0    0    0    0  0.00000000000E+00  0.00000000000E+00  0.45593999997E+02  0.45594000000E+02  0.51100000000E-03 0.  1.
         11   -1    0    0    0    0 -0.00000000000E+00 -0.00000000000E+00 -0.45593999997E+02  0.45594000000E+02  0.51100000000E-03 0. -1.
    9900012    2    1    2    0    0  0.21008809828E+02  0.79605095674E+01 -0.22626981095E+02  0.59301951696E+02  0.50000013985E+02 0.  0.
        -12    1    1    2    0    0 -0.21008809828E+02 -0.79605095674E+01  0.22626981095E+02  0.31886048304E+02  0.00000000000E+00 0.  1.
         11    1    3    3    0    0 -0.51687128570E+01  0.18404161404E+01 -0.10676765750E+01  0.55895131897E+01  0.51100000000E-03 0. -1.
        -11    1    3    3    0    0  0.80703824423E+01 -0.59430519429E+01 -0.29027384091E+02  0.30708955804E+02  0.51100000000E-03 0.  1.
         12    1    3    3    0    0  0.18107140242E+02  0.12063145370E+02  0.74680795704E+01  0.23003482702E+02  0.00000000000E+00 0. -1.
</event>
<event>
 7    1  0.1101380E-011  0.5930208E+02  0.7816164E-02  0.1266604E+00
        -11   -1    0    0    0    0  0.00000000000E+00  0.00000000000E+00  0.45593999997E+02  0.45594000000E+02  0.51100000000E-03 0.  1.
         11   -1    0    0    0    0 -0.00000000000E+00 -0.00000000000E+00 -0.45593999997E+02  0.45594000000E+02  0.51100000000E-03 0. -1.
    9900012    2    1    2    0    0 -0.14452712109E+02 -0.16507883627E+02 -0.23136994248E+02  0.59302084426E+02  0.50000256052E+02 0.  0.
        -12    1    1    2    0    0  0.14452712109E+02  0.16507883627E+02  0.23136994248E+02  0.31885915574E+02  0.00000000000E+00 0.  1.
         11    1    3    3    0    0 -0.83040900663E+01 -0.12151586219E+01  0.17169072683E+01  0.85663465453E+01  0.51100000000E-03 0. -1.
        -11    1    3    3    0    0  0.32585271966E+01  0.32016116611E+01  0.95344930310E+01  0.10572363706E+02  0.51100000000E-03 0.  1.
        -12    1    3    3    0    0 -0.94071492394E+01 -0.18494336666E+02 -0.34388394547E+02  0.40163374174E+02  0.00000000000E+00 0.  1.
</event>
<event>
 7    1  0.1101380E-011  0.5930194E+02  0.7816164E-02  0.1266605E+00
        -11   -1    0    0    0    0  0.00000000000E+00  0.00000000000E+00  0.45593999997E+02  0.45594000000E+02  0.51100000000E-03 0.  1.
         11   -1    0    0    0    0 -0.00000000000E+00 -0.00000000000E+00 -0.45593999997E+02  0.45594000000E+02  0.51100000000E-03 0. -1.
    9900012    2    1    2    0    0  0.11926238563E+00  0.57397389594E+00 -0.31880672938E+02  0.59301937582E+02  0.49999988244E+02 0.  0.
        -12    1    1    2    0    0 -0.11926238563E+00 -0.57397389594E+00  0.31880672938E+02  0.31886062418E+02  0.00000000000E+00 0.  1.
         11    1    3    3    0    0  0.34842312085E+01  0.28324526071E+01 -0.27274262992E+02  0.27641419589E+02  0.51100000000E-03 0. -1.
        -11    1    3    3    0    0 -0.11526813939E+02  0.93653411230E+01 -0.82610057121E+01  0.16994742410E+02  0.51100000000E-03 0.  1.
        -12    1    3    3    0    0  0.81618451166E+01 -0.11623819834E+02  0.36545957655E+01  0.14665775583E+02  0.00000000000E+00 0.  1.
</event>
<event>
 7    1  0.1101380E-011  0.5930196E+02  0.7816164E-02  0.1266605E+00
        -11   -1    0    0    0    0  0.00000000000E+00  0.00000000000E+00  0.45593999997E+02  0.45594000000E+02  0.51100000000E-03 0.  1.
         11   -1    0    0    0    0 -0.00000000000E+00 -0.00000000000E+00 -0.45593999997E+02  0.45594000000E+02  0.51100000000E-03 0. -1.
    9900012    2    1    2    0    0 -0.19799432208E+02  0.14531868534E+02  0.20335365166E+02  0.59301956105E+02  0.50000022027E+02 0.  0.
        -12    1    1    2    0    0  0.19799432208E+02 -0.14531868534E+02 -0.20335365166E+02  0.31886043895E+02  0.00000000000E+00 0.  1.
         11    1    3    3    0    0 -0.97325333354E+01  0.24006177287E+02  0.50676200157E+01  0.26395066318E+02  0.51100000000E-03 0. -1.
        -11    1    3    3    0    0  0.32763482889E+01  0.47885122400E+01  0.11689938655E+02  0.13050631157E+02  0.51100000000E-03 0.  1.
        -12    1    3    3    0    0 -0.13343247161E+02 -0.14262820993E+02  0.35778064956E+01  0.19856258630E+02  0.00000000000E+00 0.  1.
</event>
<event>
 7    1  0.1101380E-011  0.5930196E+02  0.7816164E-02  0.1266605E+00
        -11   -1    0    0    0    0  0.00000000000E+00  0.00000000000E+00  0.45593999997E+02  0.45594000000E+02  0.51100000000E-03 0.  1.
         11   -1    0    0    0    0 -0.00000000000E+00 -0.00000000000E+00 -0.45593999997E+02  0.45594000000E+02  0.51100000000E-03 0. -1.
    9900012    2    1    2    0    0 -0.10803146943E+02 -0.14089717154E+02 -0.26485688096E+02  0.59301956230E+02  0.50000022255E+02 0.  0.
        -12    1    1    2    0    0  0.10803146943E+02  0.14089717154E+02  0.26485688096E+02  0.31886043770E+02  0.00000000000E+00 0.  1.
         11    1    3    3    0    0 -0.82477579460E+00  0.10201901505E+02 -0.21853079990E+01  0.10465878881E+02  0.51100000000E-03 0. -1.
        -11    1    3    3    0    0  0.11282450783E+02 -0.40024970250E+01 -0.24616098887E+01  0.12221832989E+02  0.51100000000E-03 0.  1.
         12    1    3    3    0    0 -0.21260821931E+02 -0.20289121634E+02 -0.21838770208E+02  0.36614244361E+02  0.00000000000E+00 0. -1.
</event>
<event>
 7    1  0.1101380E-011  0.5930199E+02  0.7816164E-02  0.1266605E+00
        -11   -1    0    0    0    0  0.00000000000E+00  0.00000000000E+00  0.45593999997E+02  0.45594000000E+02  0.51100000000E-03 0.  1.
         11   -1    0    0    0    0 -0.00000000000E+00 -0.00000000000E+00 -0.45593999997E+02  0.45594000000E+02  0.51100000000E-03 0. -1.
    9900012    2    1    2    0    0 -0.13089384496E+02 -0.28393185352E+02 -0.62620178067E+01  0.59301986954E+02  0.50000078288E+02 0.  0.
        -12    1    1    2    0    0  0.13089384496E+02  0.28393185352E+02  0.62620178067E+01  0.31886013046E+02  0.00000000000E+00 0.  1.
         11    1    3    3    0    0  0.54595874965E+01 -0.12635875539E+02 -0.10314655295E+02  0.17200713950E+02  0.51100000000E-03 0. -1.
        -11    1    3    3    0    0 -0.23360544862E+02 -0.22868108563E+02  0.20071301098E+00  0.32691065009E+02  0.51100000000E-03 0.  1.
         12    1    3    3    0    0  0.48115728696E+01  0.71107987493E+01  0.38519244775E+01  0.94102079951E+01  0.00000000000E+00 0. -1.
</event>
<event>
 7    1  0.1101380E-011  0.5930203E+02  0.7816164E-02  0.1266604E+00
        -11   -1    0    0    0    0  0.00000000000E+00  0.00000000000E+00  0.45593999997E+02  0.45594000000E+02  0.51100000000E-03 0. -1.
         11   -1    0    0    0    0 -0.00000000000E+00 -0.00000000000E+00 -0.45593999997E+02  0.45594000000E+02  0.51100000000E-03 0.  1.
    9900012    2    1    2    0    0  0.11745214698E+02 -0.21798979374E+02  0.20089038839E+02  0.59302030491E+02  0.50000157688E+02 0.  0.
        -12    1    1    2    0    0 -0.11745214698E+02  0.21798979374E+02 -0.20089038839E+02  0.31885969509E+02  0.00000000000E+00 0.  1.
         11    1    3    3    0    0 -0.50080278369E+01 -0.16608588833E+02  0.16217647337E+02  0.23747371460E+02  0.51100000000E-03 0. -1.
        -11    1    3    3    0    0  0.46041224387E+01 -0.16046190146E+02 -0.44266524480E+01  0.17270593904E+02  0.51100000000E-03 0.  1.
         12    1    3    3    0    0  0.12149120096E+02  0.10855799605E+02  0.82980439500E+01  0.18284065127E+02  0.00000000000E+00 0. -1.
</event>
<event>
 7    1  0.1101380E-011  0.5930194E+02  0.7816164E-02  0.1266605E+00
        -11   -1    0    0    0    0  0.00000000000E+00  0.00000000000E+00  0.45593999997E+02  0.45594000000E+02  0.51100000000E-03 0. -1.
         11   -1    0    0    0    0 -0.00000000000E+00 -0.00000000000E+00 -0.45593999997E+02  0.45594000000E+02  0.51100000000E-03 0.  1.
    9900012    2    1    2    0    0  0.29255061680E+02  0.12617782904E+02 -0.12859687448E+01  0.59301940430E+02  0.49999993439E+02 0.  0.
        -12    1    1    2    0    0 -0.29255061680E+02 -0.12617782904E+02  0.12859687448E+01  0.31886059570E+02  0.00000000000E+00 0.  1.
         11    1    3    3    0    0  0.71375409569E+01 -0.23953116269E+01 -0.52550295795E+01  0.91813585511E+01  0.51100000000E-03 0. -1.
        -11    1    3    3    0    0 -0.10089603571E+02 -0.26246650429E+01 -0.60554434852E+01  0.12056424133E+02  0.51100000000E-03 0.  1.
        -12    1    3    3    0    0  0.32207124294E+02  0.17637759573E+02  0.10024504320E+02  0.38064157746E+02  0.00000000000E+00 0.  1.
</event>
<event>
 7    1  0.1101380E-011  0.5930195E+02  0.7816164E-02  0.1266605E+00
        -11   -1    0    0    0    0  0.00000000000E+00  0.00000000000E+00  0.45593999997E+02  0.45594000000E+02  0.51100000000E-03 0. -1.
         11   -1    0    0    0    0 -0.00000000000E+00 -0.00000000000E+00 -0.45593999997E+02  0.45594000000E+02  0.51100000000E-03 0.  1.
    9900012    2    1    2    0    0  0.15208738626E+02 -0.12995439421E+02  0.24830081290E+02  0.59301951119E+02  0.50000012933E+02 0.  0.
        -12    1    1    2    0    0 -0.15208738626E+02  0.12995439421E+02 -0.24830081290E+02  0.31886048881E+02  0.00000000000E+00 0.  1.
         11    1    3    3    0    0 -0.86025739344E+01 -0.79264890377E+01  0.45267657959E+01  0.12542930901E+02  0.51100000000E-03 0. -1.
        -11    1    3    3    0    0  0.17608817150E+02  0.13581094620E+02  0.83413399991E+01  0.23750674216E+02  0.51100000000E-03 0.  1.
         12    1    3    3    0    0  0.62024954107E+01 -0.18650045004E+02  0.11961975495E+02  0.23008346002E+02  0.00000000000E+00 0. -1.
</event>
<event>
 7    1  0.1101380E-011  0.5930195E+02  0.7816164E-02  0.1266605E+00
        -11   -1    0    0    0    0  0.00000000000E+00  0.00000000000E+00  0.45593999997E+02  0.45594000000E+02  0.51100000000E-03 0.  1.
         11   -1    0    0    0    0 -0.00000000000E+00 -0.00000000000E+00 -0.45593999997E+02  0.45594000000E+02  0.51100000000E-03 0. -1.
    9900012    2    1    2    0    0 -0.52966374335E+01  0.31443020576E+02 -0.50593527412E-01  0.59301945513E+02  0.50000002709E+02 0.  0.
        -12    1    1    2    0    0  0.52966374335E+01 -0.31443020576E+02  0.50593527412E-01  0.31886054487E+02  0.00000000000E+00 0.  1.
         11    1    3    3    0    0 -0.71070532093E+01  0.25705332891E+02  0.87631272617E+00  0.26684120158E+02  0.51100000000E-03 0. -1.
        -11    1    3    3    0    0  0.81558926450E+01  0.15037066305E+02  0.73762601839E+01  0.18629040836E+02  0.51100000000E-03 0.  1.
         12    1    3    3    0    0 -0.63454768692E+01 -0.92993786209E+01 -0.83031664375E+01  0.13988784519E+02  0.00000000000E+00 0. -1.
</event>
<event>
 7    1  0.1101380E-011  0.5930197E+02  0.7816164E-02  0.1266605E+00
        -11   -1    0    0    0    0  0.00000000000E+00  0.00000000000E+00  0.45593999997E+02  0.45594000000E+02  0.51100000000E-03 0.  1.
         11   -1    0    0    0    0 -0.00000000000E+00 -0.00000000000E+00 -0.45593999997E+02  0.45594000000E+02  0.51100000000E-03 0. -1.
    9900012    2    1    2    0    0  0.40220784558E+01 -0.31183317584E+02 -0.53049627506E+01  0.59301967942E+02  0.50000043614E+02 0.  0.
        -12    1    1    2    0    0 -0.40220784558E+01  0.31183317584E+02  0.53049627506E+01  0.31886032058E+02  0.00000000000E+00 0.  1.
         11    1    3    3    0    0  0.10726614261E+02 -0.12752161411E+02 -0.40757198267E+01  0.17154864223E+02  0.51100000000E-03 0. -1.
        -11    1    3    3    0    0  0.24151408042E+01  0.98935759270E+01 -0.62801946846E+01  0.11964806528E+02  0.51100000000E-03 0.  1.
         12    1    3    3    0    0 -0.91196766094E+01 -0.28324732100E+02  0.50509517607E+01  0.30182297190E+02  0.00000000000E+00 0. -1.
</event>
<event>
 7    1  0.1101380E-011  0.5930193E+02  0.7816164E-02  0.1266605E+00
        -11   -1    0    0    0    0  0.00000000000E+00  0.00000000000E+00  0.45593999997E+02  0.45594000000E+02  0.51100000000E-03 0.  1.
         11   -1    0    0    0    0 -0.00000000000E+00 -0.00000000000E+00 -0.45593999997E+02  0.45594000000E+02  0.51100000000E-03 0. -1.
    9900012    2    1    2    0    0 -0.23833342018E+02  0.53839792795E+01 -0.20486722745E+02  0.59301933553E+02  0.49999980896E+02 0.  0.
        -12    1    1    2    0    0  0.23833342018E+02 -0.53839792795E+01  0.20486722745E+02  0.31886066447E+02  0.00000000000E+00 0.  1.
         11    1    3    3    0    0 -0.22483807945E+02 -0.32595758081E+01  0.42288718422E+01  0.23109085042E+02  0.51100000000E-03 0. -1.
        -11    1    3    3    0    0 -0.12553312481E+02  0.76108520003E+01 -0.10428436058E+02  0.18007304110E+02  0.51100000000E-03 0.  1.
         12    1    3    3    0    0  0.11203778409E+02  0.10327030873E+01 -0.14287158529E+02  0.18185544400E+02  0.00000000000E+00 0. -1.
</event>
<event>
 7    1  0.1101380E-011  0.5930192E+02  0.7816164E-02  0.1266605E+00
        -11   -1    0    0    0    0  0.00000000000E+00  0.00000000000E+00  0.45593999997E+02  0.45594000000E+02  0.51100000000E-03 0.  1.
         11   -1    0    0    0    0 -0.00000000000E+00 -0.00000000000E+00 -0.45593999997E+02  0.45594000000E+02  0.51100000000E-03 0. -1.
    9900012    2    1    2    0    0  0.13790043124E+02 -0.21324210879E+02 -0.19283027658E+02  0.59301915032E+02  0.49999947118E+02 0.  0.
        -12    1    1    2    0    0 -0.13790043124E+02  0.21324210879E+02  0.19283027658E+02  0.31886084968E+02  0.00000000000E+00 0.  1.
         11    1    3    3    0    0  0.86839234755E+00 -0.86927058549E+01 -0.15692557003E+02  0.17960333680E+02  0.51100000000E-03 0. -1.
        -11    1    3    3    0    0 -0.47629441948E+01  0.73571029370E+01  0.83484996138E+01  0.12104133471E+02  0.51100000000E-03 0.  1.
         12    1    3    3    0    0  0.17684594971E+02 -0.19988607961E+02 -0.11938970269E+02  0.29237447881E+02  0.00000000000E+00 0. -1.
</event>
<event>
 7    1  0.1101380E-011  0.5930194E+02  0.7816164E-02  0.1266605E+00
        -11   -1    0    0    0    0  0.00000000000E+00  0.00000000000E+00  0.45593999997E+02  0.45594000000E+02  0.51100000000E-03 0.  1.
         11   -1    0    0    0    0 -0.00000000000E+00 -0.00000000000E+00 -0.45593999997E+02  0.45594000000E+02  0.51100000000E-03 0. -1.
    9900012    2    1    2    0    0 -0.17773949587E+01 -0.81506305432E+01 -0.30775461726E+02  0.59301937911E+02  0.49999988844E+02 0.  0.
        -12    1    1    2    0    0  0.17773949587E+01  0.81506305432E+01  0.30775461726E+02  0.31886062089E+02  0.00000000000E+00 0.  1.
         11    1    3    3    0    0 -0.16210475348E+02 -0.14885409235E+02 -0.29257666343E+02  0.36611008717E+02  0.51100000000E-03 0. -1.
        -11    1    3    3    0    0 -0.33093466922E+01 -0.24857187646E+00 -0.14548424248E+01  0.36235521590E+01  0.51100000000E-03 0.  1.
         12    1    3    3    0    0  0.17742427082E+02  0.69833505687E+01 -0.62952958214E-01  0.19067377035E+02  0.00000000000E+00 0. -1.
</event>
<event>
 7    1  0.1101380E-011  0.5930182E+02  0.7816164E-02  0.1266605E+00
        -11   -1    0    0    0    0  0.00000000000E+00  0.00000000000E+00  0.45593999997E+02  0.45594000000E+02  0.51100000000E-03 0. -1.
         11   -1    0    0    0    0 -0.00000000000E+00 -0.00000000000E+00 -0.45593999997E+02  0.45594000000E+02  0.51100000000E-03 0.  1.
    9900012    2    1    2    0    0 -0.27040764672E+01  0.14488934502E+02  0.28275200409E+02  0.59301824144E+02  0.49999781360E+02 0.  0.
        -12    1    1    2    0    0  0.27040764672E+01 -0.14488934502E+02 -0.28275200409E+02  0.31886175856E+02  0.00000000000E+00 0.  1.
         11    1    3    3    0    0 -0.24247771014E+01  0.81818817037E+01  0.13009153731E+02  0.15558303676E+02  0.51100000000E-03 0. -1.
        -11    1    3    3    0    0  0.16377009508E+02 -0.43804912065E+01  0.16834284466E+02  0.23891175722E+02  0.51100000000E-03 0.  1.
         12    1    3    3    0    0 -0.16656308873E+02  0.10687544005E+02 -0.15682377884E+01  0.19852344746E+02  0.00000000000E+00 0. -1.
</event>
<event>
 7    1  0.1101380E-011  0.5930193E+02  0.7816164E-02  0.1266605E+00
        -11   -1    0    0    0    0  0.00000000000E+00  0.00000000000E+00  0.45593999997E+02  0.45594000000E+02  0.51100000000E-03 0.  1.
         11   -1    0    0    0    0 -0.00000000000E+00 -0.00000000000E+00 -0.45593999997E+02  0.45594000000E+02  0.51100000000E-03 0. -1.
    9900012    2    1    2    0    0 -0.12184197725E+02  0.97310834803E+01 -0.27813174986E+02  0.59301931526E+02  0.49999977201E+02 0.  0.
        -12    1    1    2    0    0  0.12184197725E+02 -0.97310834803E+01  0.27813174986E+02  0.31886068474E+02  0.00000000000E+00 0.  1.
         11    1    3    3    0    0 -0.36772777432E+01  0.12216397234E+02 -0.98841475001E+01  0.16138745461E+02  0.51100000000E-03 0. -1.
        -11    1    3    3    0    0  0.74478859016E+01  0.13852784851E+02 -0.11358215507E+02  0.19400508042E+02  0.51100000000E-03 0.  1.
        -12    1    3    3    0    0 -0.15954805884E+02 -0.16338098605E+02 -0.65708119790E+01  0.23762678024E+02  0.00000000000E+00 0.  1.
</event>
<event>
 7    1  0.1101380E-011  0.5930195E+02  0.7816164E-02  0.1266605E+00
        -11   -1    0    0    0    0  0.00000000000E+00  0.00000000000E+00  0.45593999997E+02  0.45594000000E+02  0.51100000000E-03 0. -1.
         11   -1    0    0    0    0 -0.00000000000E+00 -0.00000000000E+00 -0.45593999997E+02  0.45594000000E+02  0.51100000000E-03 0.  1.
    9900012    2    1    2    0    0 -0.22076953898E+01  0.23976236565E+02  0.20904219917E+02  0.59301948989E+02  0.50000009048E+02 0.  0.
        -12    1    1    2    0    0  0.22076953898E+01 -0.23976236565E+02 -0.20904219917E+02  0.31886051011E+02  0.00000000000E+00 0.  1.
         11    1    3    3    0    0  0.11035155575E+02  0.90467879539E+01  0.14122108952E+02  0.20076179725E+02  0.51100000000E-03 0. -1.
        -11    1    3    3    0    0 -0.55379849879E+01 -0.61732860806E+01  0.13441625483E+02  0.15794177239E+02  0.51100000000E-03 0.  1.
        -12    1    3    3    0    0 -0.77048659769E+01  0.21102734692E+02 -0.66595145184E+01  0.23431592025E+02  0.00000000000E+00 0.  1.
</event>
<event>
 7    1  0.1101380E-011  0.5930189E+02  0.7816164E-02  0.1266605E+00
        -11   -1    0    0    0    0  0.00000000000E+00  0.00000000000E+00  0.45593999997E+02  0.45594000000E+02  0.51100000000E-03 0. -1.
         11   -1    0    0    0    0 -0.00000000000E+00 -0.00000000000E+00 -0.45593999997E+02  0.45594000000E+02  0.51100000000E-03 0.  1.
    9900012    2    1    2    0    0  0.14744145896E+01  0.75186032186E+01  0.30951907879E+02  0.59301891832E+02  0.49999904808E+02 0.  0.
        -12    1    1    2    0    0 -0.14744145896E+01 -0.75186032186E+01 -0.30951907879E+02  0.31886108168E+02  0.00000000000E+00 0.  1.
         11    1    3    3    0    0  0.23653808396E+01  0.18246046095E+02  0.30376304406E+02  0.35513843698E+02  0.51100000000E-03 0. -1.
        -11    1    3    3    0    0  0.89031309812E+01 -0.60661946480E+01  0.52410272158E+01  0.11980518574E+02  0.51100000000E-03 0.  1.
        -12    1    3    3    0    0 -0.97940972311E+01 -0.46612482280E+01 -0.46654237426E+01  0.11807529560E+02  0.00000000000E+00 0.  1.
</event>
<event>
 7    1  0.1101380E-011  0.5930197E+02  0.7816164E-02  0.1266605E+00
        -11   -1    0    0    0    0  0.00000000000E+00  0.00000000000E+00  0.45593999997E+02  0.45594000000E+02  0.51100000000E-03 0.  1.
         11   -1    0    0    0    0 -0.00000000000E+00 -0.00000000000E+00 -0.45593999997E+02  0.45594000000E+02  0.51100000000E-03 0. -1.
    9900012    2    1    2    0    0  0.12314887274E+01  0.20976196156E+02 -0.23983365826E+02  0.59301965345E+02  0.50000038878E+02 0.  0.
        -12    1    1    2    0    0 -0.12314887274E+01 -0.20976196156E+02  0.23983365826E+02  0.31886034655E+02  0.00000000000E+00 0.  1.
         11    1    3    3    0    0  0.63872777215E+01  0.11296692902E+02 -0.34747666737E+02  0.37091952377E+02  0.51100000000E-03 0. -1.
        -11    1    3    3    0    0 -0.12867575065E+01  0.58356447470E+01 -0.35092258992E+01  0.69300188432E+01  0.51100000000E-03 0.  1.
        -12    1    3    3    0    0 -0.38690314877E+01  0.38438585076E+01  0.14273526810E+02  0.15279994125E+02  0.00000000000E+00 0.  1.
</event>
<event>
 7    1  0.1101380E-011  0.5930195E+02  0.7816164E-02  0.1266605E+00
        -11   -1    0    0    0    0  0.00000000000E+00  0.00000000000E+00  0.45593999997E+02  0.45594000000E+02  0.51100000000E-03 0.  1.
         11   -1    0    0    0    0 -0.00000000000E+00 -0.00000000000E+00 -0.45593999997E+02  0.45594000000E+02  0.51100000000E-03 0. -1.
    9900012    2    1    2    0    0 -0.26452593526E+02 -0.43614012432E+01 -0.17261485866E+02  0.59301946318E+02  0.50000004178E+02 0.  0.
        -12    1    1    2    0    0  0.26452593526E+02  0.43614012432E+01  0.17261485866E+02  0.31886053682E+02  0.00000000000E+00 0.  1.
         11    1    3    3    0    0 -0.82941826471E+01 -0.21991349769E+02 -0.59135408023E+01  0.24235983486E+02  0.51100000000E-03 0. -1.
        -11    1    3    3    0    0  0.19259919426E+01 -0.29289106762E+01 -0.41593984632E+01  0.54395366116E+01  0.51100000000E-03 0.  1.
         12    1    3    3    0    0 -0.20084402822E+02  0.20558859202E+02 -0.71885466010E+01  0.29626426221E+02  0.00000000000E+00 0. -1.
</event>
<event>
 7    1  0.1101380E-011  0.5930198E+02  0.7816164E-02  0.1266605E+00
        -11   -1    0    0    0    0  0.00000000000E+00  0.00000000000E+00  0.45593999997E+02  0.45594000000E+02  0.51100000000E-03 0. -1.
         11   -1    0    0    0    0 -0.00000000000E+00 -0.00000000000E+00 -0.45593999997E+02  0.45594000000E+02  0.51100000000E-03 0.  1.
    9900012    2    1    2    0    0  0.19422049207E+02 -0.41408044913E+01  0.24947061761E+02  0.59301981940E+02  0.50000069142E+02 0.  0.
        -12    1    1    2    0    0 -0.19422049207E+02  0.41408044913E+01 -0.24947061761E+02  0.31886018060E+02  0.00000000000E+00 0.  1.
         11    1    3    3    0    0  0.92497518302E+01 -0.10586617197E+02  0.13237478349E+02  0.19309717913E+02  0.51100000000E-03 0. -1.
        -11    1    3    3    0    0 -0.22416703403E+01  0.21111605122E+00 -0.12164279208E+02  0.12370907194E+02  0.51100000000E-03 0.  1.
         12    1    3    3    0    0  0.12413967717E+02  0.62346966542E+01  0.23873862620E+02  0.27621356832E+02  0.00000000000E+00 0. -1.
</event>
<event>
 7    1  0.1101380E-011  0.5930194E+02  0.7816164E-02  0.1266605E+00
        -11   -1    0    0    0    0  0.00000000000E+00  0.00000000000E+00  0.45593999997E+02  0.45594000000E+02  0.51100000000E-03 0.  1.
         11   -1    0    0    0    0 -0.00000000000E+00 -0.00000000000E+00 -0.45593999997E+02  0.45594000000E+02  0.51100000000E-03 0. -1.
    9900012    2    1    2    0    0  0.23749025783E+02 -0.20559292408E+02 -0.54790536941E+01  0.59301940988E+02  0.49999994455E+02 0.  0.
        -12    1    1    2    0    0 -0.23749025783E+02  0.20559292408E+02  0.54790536941E+01  0.31886059012E+02  0.00000000000E+00 0.  1.
         11    1    3    3    0    0  0.19345338804E+02 -0.49185100074E+01  0.15395350868E+01  0.20020090976E+02  0.51100000000E-03 0. -1.
        -11    1    3    3    0    0 -0.59279800767E+00 -0.96557036260E+01  0.13912843185E+02  0.16945537104E+02  0.51100000000E-03 0.  1.
         12    1    3    3    0    0  0.49964849867E+01 -0.59850787745E+01 -0.20931431966E+02  0.22336312908E+02  0.00000000000E+00 0. -1.
</event>
<event>
 7    1  0.1101380E-011  0.5930186E+02  0.7816164E-02  0.1266605E+00
        -11   -1    0    0    0    0  0.00000000000E+00  0.00000000000E+00  0.45593999997E+02  0.45594000000E+02  0.51100000000E-03 0.  1.
         11   -1    0    0    0    0 -0.00000000000E+00 -0.00000000000E+00 -0.45593999997E+02  0.45594000000E+02  0.51100000000E-03 0. -1.
    9900012    2    1    2    0    0 -0.29792251642E+02 -0.77340461593E+01 -0.83265824151E+01  0.59301863474E+02  0.49999853088E+02 0.  0.
        -12    1    1    2    0    0  0.29792251642E+02  0.77340461593E+01  0.83265824151E+01  0.31886136526E+02  0.00000000000E+00 0.  1.
         11    1    3    3    0    0 -0.12863131417E+01  0.18951243918E+01  0.44146356867E+01  0.49734401038E+01  0.51100000000E-03 0. -1.
        -11    1    3    3    0    0 -0.37037162639E+01  0.16383989881E+02 -0.54018945584E+01  0.17644633849E+02  0.51100000000E-03 0.  1.
         12    1    3    3    0    0 -0.24802222236E+02 -0.26013160432E+02 -0.73393235433E+01  0.36683789521E+02  0.00000000000E+00 0. -1.
</event>
<event>
 7    1  0.1101380E-011  0.5930194E+02  0.7816164E-02  0.1266605E+00
        -11   -1    0    0    0    0  0.00000000000E+00  0.00000000000E+00  0.45593999997E+02  0.45594000000E+02  0.51100000000E-03 0.  1.
         11   -1    0    0    0    0 -0.00000000000E+00 -0.00000000000E+00 -0.45593999997E+02  0.45594000000E+02  0.51100000000E-03 0. -1.
    9900012    2    1    2    0    0  0.97532991488E+01 -0.13346875782E+02 -0.27266364435E+02  0.59301944005E+02  0.49999999958E+02 0.  0.
        -12    1    1    2    0    0 -0.97532991488E+01  0.13346875782E+02  0.27266364435E+02  0.31886055995E+02  0.00000000000E+00 0.  1.
         11    1    3    3    0    0  0.21915022743E+02 -0.16335797538E+02 -0.12768830715E+02  0.30169016244E+02  0.51100000000E-03 0. -1.
        -11    1    3    3    0    0  0.16283534051E+01 -0.22767201319E+01  0.43623914300E+01  0.51831890397E+01  0.51100000000E-03 0.  1.
         12    1    3    3    0    0 -0.13790076999E+02  0.52656418885E+01 -0.18859925150E+02  0.23949738721E+02  0.00000000000E+00 0. -1.
</event>
<event>
 7    1  0.1101380E-011  0.5930196E+02  0.7816164E-02  0.1266605E+00
        -11   -1    0    0    0    0  0.00000000000E+00  0.00000000000E+00  0.45593999997E+02  0.45594000000E+02  0.51100000000E-03 0.  1.
         11   -1    0    0    0    0 -0.00000000000E+00 -0.00000000000E+00 -0.45593999997E+02  0.45594000000E+02  0.51100000000E-03 0. -1.
    9900012    2    1    2    0    0  0.52846264139E+00  0.27304842088E+02 -0.16458617751E+02  0.59301956462E+02  0.50000022677E+02 0.  0.
        -12    1    1    2    0    0 -0.52846264139E+00 -0.27304842088E+02  0.16458617751E+02  0.31886043538E+02  0.00000000000E+00 0.  1.
         11    1    3    3    0    0  0.32044236061E+01  0.27387692240E+02 -0.16850075337E+02  0.32315306838E+02  0.51100000000E-03 0. -1.
        -11    1    3    3    0    0  0.85610686562E+01  0.74255264055E+01  0.54259694663E+01  0.12564691952E+02  0.51100000000E-03 0.  1.
        -12    1    3    3    0    0 -0.11237029621E+02 -0.75083765576E+01 -0.50345118804E+01  0.14421957672E+02  0.00000000000E+00 0.  1.
</event>
<event>
 7    1  0.1101380E-011  0.5930193E+02  0.7816164E-02  0.1266605E+00
        -11   -1    0    0    0    0  0.00000000000E+00  0.00000000000E+00  0.45593999997E+02  0.45594000000E+02  0.51100000000E-03 0.  1.
         11   -1    0    0    0    0 -0.00000000000E+00 -0.00000000000E+00 -0.45593999997E+02  0.45594000000E+02  0.51100000000E-03 0. -1.
    9900012    2    1    2    0    0 -0.14782631906E+02  0.21214752894E+02 -0.18658223765E+02  0.59301933129E+02  0.49999980124E+02 0.  0.
        -12    1    1    2    0    0  0.14782631906E+02 -0.21214752894E+02  0.18658223765E+02  0.31886066871E+02  0.00000000000E+00 0.  1.
         11    1    3    3    0    0 -0.11117059884E+02  0.31228338173E+02 -0.69481866897E+01  0.33868501946E+02  0.51100000000E-03 0. -1.
        -11    1    3    3    0    0  0.79964892303E+01 -0.53079170389E+01 -0.74701402217E+01  0.12162270285E+02  0.51100000000E-03 0.  1.
        -12    1    3    3    0    0 -0.11662061253E+02 -0.47056682400E+01 -0.42398968534E+01  0.13271160898E+02  0.00000000000E+00 0.  1.
</event>
<event>
 7    1  0.1101380E-011  0.5930190E+02  0.7816164E-02  0.1266605E+00
        -11   -1    0    0    0    0  0.00000000000E+00  0.00000000000E+00  0.45593999997E+02  0.45594000000E+02  0.51100000000E-03 0.  1.
         11   -1    0    0    0    0 -0.00000000000E+00 -0.00000000000E+00 -0.45593999997E+02  0.45594000000E+02  0.51100000000E-03 0. -1.
    9900012    2    1    2    0    0  0.29700027357E+02 -0.42913280277E+01 -0.10780368919E+02  0.59301898400E+02  0.49999916785E+02 0.  0.
        -12    1    1    2    0    0 -0.29700027357E+02  0.42913280277E+01  0.10780368919E+02  0.31886101600E+02  0.00000000000E+00 0.  1.
         11    1    3    3    0    0  0.10811082373E+02 -0.16857021181E+02 -0.83202985454E+01  0.21685618122E+02  0.51100000000E-03 0. -1.
        -11    1    3    3    0    0 -0.31890351333E+01  0.56916060973E+01  0.95454873532E+01  0.11562035034E+02  0.51100000000E-03 0.  1.
        -12    1    3    3    0    0  0.22077980118E+02  0.68740870561E+01 -0.12005557727E+02  0.26054245244E+02  0.00000000000E+00 0.  1.
</event>
<event>
 7    1  0.1101380E-011  0.5930195E+02  0.7816164E-02  0.1266605E+00
        -11   -1    0    0    0    0  0.00000000000E+00  0.00000000000E+00  0.45593999997E+02  0.45594000000E+02  0.51100000000E-03 0.  1.
         11   -1    0    0    0    0 -0.00000000000E+00 -0.00000000000E+00 -0.45593999997E+02  0.45594000000E+02  0.51100000000E-03 0. -1.
    9900012    2    1    2    0    0  0.49634076692E+01  0.95293356052E+01 -0.30021263530E+02  0.59301954201E+02  0.50000018554E+02 0.  0.
        -12    1    1    2    0    0 -0.49634076692E+01 -0.95293356052E+01  0.30021263530E+02  0.31886045799E+02  0.00000000000E+00 0.  1.
         11    1    3    3    0    0 -0.80469117487E+01  0.14369681830E+02 -0.10650182390E+02  0.19612927619E+02  0.51100000000E-03 0. -1.
        -11    1    3    3    0    0  0.62421788319E+01  0.75802027386E+01  0.53684495004E+01  0.11191269831E+02  0.51100000000E-03 0.  1.
         12    1    3    3    0    0  0.67681405860E+01 -0.12420548963E+02 -0.24739530640E+02  0.28497756751E+02  0.00000000000E+00 0. -1.
</event>
<event>
 7    1  0.1101380E-011  0.5930194E+02  0.7816164E-02  0.1266605E+00
        -11   -1    0    0    0    0  0.00000000000E+00  0.00000000000E+00  0.45593999997E+02  0.45594000000E+02  0.51100000000E-03 0.  1.
         11   -1    0    0    0    0 -0.00000000000E+00 -0.00000000000E+00 -0.45593999997E+02  0.45594000000E+02  0.51100000000E-03 0. -1.
    9900012    2    1    2    0    0 -0.11956311792E+02 -0.20614119375E+01 -0.29487588479E+02  0.59301942151E+02  0.49999996577E+02 0.  0.
        -12    1    1    2    0    0  0.11956311792E+02  0.20614119375E+01  0.29487588479E+02  0.31886057849E+02  0.00000000000E+00 0.  1.
         11    1    3    3    0    0  0.61956946643E+01  0.37025213806E+01  0.51822912616E+01  0.88854622800E+01  0.51100000000E-03 0.  1.
        -11    1    3    3    0    0 -0.14259593393E+02  0.10976472408E+02 -0.10747312419E+02  0.20960049493E+02  0.51100000000E-03 0. -1.
        -12    1    3    3    0    0 -0.38924130634E+01 -0.16740405726E+02 -0.23922567322E+02  0.29456430378E+02  0.00000000000E+00 0.  1.
</event>
<event>
 7    1  0.1101380E-011  0.5930188E+02  0.7816164E-02  0.1266605E+00
        -11   -1    0    0    0    0  0.00000000000E+00  0.00000000000E+00  0.45593999997E+02  0.45594000000E+02  0.51100000000E-03 0. -1.
         11   -1    0    0    0    0 -0.00000000000E+00 -0.00000000000E+00 -0.45593999997E+02  0.45594000000E+02  0.51100000000E-03 0.  1.
    9900012    2    1    2    0    0 -0.29513736478E+02  0.26329235737E+01  0.11778453285E+02  0.59301876228E+02  0.49999876349E+02 0.  0.
        -12    1    1    2    0    0  0.29513736478E+02 -0.26329235737E+01 -0.11778453285E+02  0.31886123772E+02  0.00000000000E+00 0.  1.
         11    1    3    3    0    0 -0.47852871224E+01 -0.10602152728E+02  0.54988894285E+01  0.12866328168E+02  0.51100000000E-03 0. -1.
        -11    1    3    3    0    0  0.55240500773E+01 -0.70750795976E+01  0.42760744399E+01  0.99426703378E+01  0.51100000000E-03 0.  1.
         12    1    3    3    0    0 -0.30252499433E+02  0.20310155900E+02  0.20034894165E+01  0.36492877722E+02  0.00000000000E+00 0. -1.
</event>
<event>
 7    1  0.1101380E-011  0.5930203E+02  0.7816164E-02  0.1266604E+00
        -11   -1    0    0    0    0  0.00000000000E+00  0.00000000000E+00  0.45593999997E+02  0.45594000000E+02  0.51100000000E-03 0.  1.
         11   -1    0    0    0    0 -0.00000000000E+00 -0.00000000000E+00 -0.45593999997E+02  0.45594000000E+02  0.51100000000E-03 0. -1.
    9900012    2    1    2    0    0 -0.16380764197E+02 -0.13017896135E+02 -0.24060761548E+02  0.59302026568E+02  0.50000150533E+02 0.  0.
        -12    1    1    2    0    0  0.16380764197E+02  0.13017896135E+02  0.24060761548E+02  0.31885973432E+02  0.00000000000E+00 0.  1.
         11    1    3    3    0    0 -0.17436271809E+02  0.84152113936E+01 -0.10546533690E+01  0.19389472694E+02  0.51100000000E-03 0. -1.
        -11    1    3    3    0    0  0.98899289207E+01 -0.28064742923E+01 -0.19862709865E+01  0.10470542713E+02  0.51100000000E-03 0.  1.
         12    1    3    3    0    0 -0.88344213090E+01 -0.18626633236E+02 -0.21019837193E+02  0.29442011160E+02  0.00000000000E+00 0. -1.
</event>
<event>
 7    1  0.1101380E-011  0.5930194E+02  0.7816164E-02  0.1266605E+00
        -11   -1    0    0    0    0  0.00000000000E+00  0.00000000000E+00  0.45593999997E+02  0.45594000000E+02  0.51100000000E-03 0. -1.
         11   -1    0    0    0    0 -0.00000000000E+00 -0.00000000000E+00 -0.45593999997E+02  0.45594000000E+02  0.51100000000E-03 0.  1.
    9900012    2    1    2    0    0 -0.22484987797E+02  0.20456342020E+02  0.96272478366E+01  0.59301944961E+02  0.50000001701E+02 0.  0.
        -12    1    1    2    0    0  0.22484987797E+02 -0.20456342020E+02 -0.96272478366E+01  0.31886055039E+02  0.00000000000E+00 0.  1.
         11    1    3    3    0    0 -0.22981587391E+02 -0.36496206599E+01  0.20238507271E+01  0.23357419849E+02  0.51100000000E-03 0. -1.
        -11    1    3    3    0    0 -0.74182110788E+01  0.21299824525E+01  0.98106886020E+01  0.12482639623E+02  0.51100000000E-03 0.  1.
        -12    1    3    3    0    0  0.79148106728E+01  0.21975980228E+02 -0.22072914925E+01  0.23461885489E+02  0.00000000000E+00 0.  1.
</event>
<event>
 7    1  0.1101380E-011  0.5930194E+02  0.7816164E-02  0.1266605E+00
        -11   -1    0    0    0    0  0.00000000000E+00  0.00000000000E+00  0.45593999997E+02  0.45594000000E+02  0.51100000000E-03 0.  1.
         11   -1    0    0    0    0 -0.00000000000E+00 -0.00000000000E+00 -0.45593999997E+02  0.45594000000E+02  0.51100000000E-03 0. -1.
    9900012    2    1    2    0    0 -0.31725226773E+02  0.30518536042E+01 -0.95754658138E+00  0.59301941609E+02  0.49999995589E+02 0.  0.
        -12    1    1    2    0    0  0.31725226773E+02 -0.30518536042E+01  0.95754658138E+00  0.31886058391E+02  0.00000000000E+00 0.  1.
         11    1    3    3    0    0 -0.19560252026E+02 -0.14878982374E+02  0.72654037393E+01  0.25627595821E+02  0.51100000000E-03 0. -1.
        -11    1    3    3    0    0  0.28313200311E+01 -0.26231985950E+01 -0.72489677067E+01  0.82124951788E+01  0.51100000000E-03 0.  1.
         12    1    3    3    0    0 -0.14996294779E+02  0.20554034573E+02 -0.97398261400E+00  0.25461850610E+02  0.00000000000E+00 0. -1.
</event>
<event>
 7    1  0.1101380E-011  0.5930196E+02  0.7816164E-02  0.1266605E+00
        -11   -1    0    0    0    0  0.00000000000E+00  0.00000000000E+00  0.45593999997E+02  0.45594000000E+02  0.51100000000E-03 0. -1.
         11   -1    0    0    0    0 -0.00000000000E+00 -0.00000000000E+00 -0.45593999997E+02  0.45594000000E+02  0.51100000000E-03 0.  1.
    9900012    2    1    2    0    0 -0.11705368173E+02  0.77134303294E+01  0.28639255668E+02  0.59301958905E+02  0.50000027132E+02 0.  0.
        -12    1    1    2    0    0  0.11705368173E+02 -0.77134303294E+01 -0.28639255668E+02  0.31886041095E+02  0.00000000000E+00 0.  1.
         11    1    3    3    0    0 -0.38060018078E+01  0.18106655769E+01 -0.99677811196E+00  0.43310191016E+01  0.51100000000E-03 0. -1.
        -11    1    3    3    0    0  0.87795044348E+01  0.31187084662E+01 -0.89021313314E+01  0.12886193508E+02  0.51100000000E-03 0.  1.
         12    1    3    3    0    0 -0.16678870800E+02  0.27840562863E+01  0.38538165111E+02  0.42084746295E+02  0.00000000000E+00 0. -1.
</event>
<event>
 7    1  0.1101380E-011  0.5930195E+02  0.7816164E-02  0.1266605E+00
        -11   -1    0    0    0    0  0.00000000000E+00  0.00000000000E+00  0.45593999997E+02  0.45594000000E+02  0.51100000000E-03 0.  1.
         11   -1    0    0    0    0 -0.00000000000E+00 -0.00000000000E+00 -0.45593999997E+02  0.45594000000E+02  0.51100000000E-03 0. -1.
    9900012    2    1    2    0    0 -0.23506033801E+02  0.58321045385E+01  0.20740613029E+02  0.59301951370E+02  0.50000013391E+02 0.  0.
        -12    1    1    2    0    0  0.23506033801E+02 -0.58321045385E+01 -0.20740613029E+02  0.31886048630E+02  0.00000000000E+00 0.  1.
         11    1    3    3    0    0 -0.30836656456E+01 -0.13703832022E+02  0.46474834581E+01  0.14795374569E+02  0.51100000000E-03 0. -1.
        -11    1    3    3    0    0  0.31716048224E+01 -0.56081707575E+01  0.53985895820E+01  0.84056782076E+01  0.51100000000E-03 0.  1.
         12    1    3    3    0    0 -0.23593972977E+02  0.25144107318E+02  0.10694539989E+02  0.36100898593E+02  0.00000000000E+00 0. -1.
</event>
<event>
 7    1  0.1101380E-011  0.5930194E+02  0.7816164E-02  0.1266605E+00
        -11   -1    0    0    0    0  0.00000000000E+00  0.00000000000E+00  0.45593999997E+02  0.45594000000E+02  0.51100000000E-03 0.  1.
         11   -1    0    0    0    0 -0.00000000000E+00 -0.00000000000E+00 -0.45593999997E+02  0.45594000000E+02  0.51100000000E-03 0. -1.
    9900012    2    1    2    0    0  0.23699267363E+02 -0.74050425298E+01 -0.20005766674E+02  0.59301943038E+02  0.49999998194E+02 0.  0.
        -12    1    1    2    0    0 -0.23699267363E+02  0.74050425298E+01  0.20005766674E+02  0.31886056962E+02  0.00000000000E+00 0.  1.
         11    1    3    3    0    0  0.10020436273E+02 -0.66290188538E+01 -0.14806959883E+02  0.19068274575E+02  0.51100000000E-03 0. -1.
        -11    1    3    3    0    0  0.15774871776E+02 -0.17036479042E+02 -0.53978379882E+01  0.23837467418E+02  0.51100000000E-03 0.  1.
        -12    1    3    3    0    0 -0.20960406855E+01  0.16260455366E+02  0.19903119737E+00  0.16396201044E+02  0.00000000000E+00 0.  1.
</event>
<event>
 7    1  0.1101380E-011  0.5930194E+02  0.7816164E-02  0.1266605E+00
        -11   -1    0    0    0    0  0.00000000000E+00  0.00000000000E+00  0.45593999997E+02  0.45594000000E+02  0.51100000000E-03 0. -1.
         11   -1    0    0    0    0 -0.00000000000E+00 -0.00000000000E+00 -0.45593999997E+02  0.45594000000E+02  0.51100000000E-03 0.  1.
    9900012    2    1    2    0    0 -0.61790833118E+01 -0.27314939752E+02  0.15245770781E+02  0.59301944570E+02  0.50000000988E+02 0.  0.
        -12    1    1    2    0    0  0.61790833118E+01  0.27314939752E+02 -0.15245770781E+02  0.31886055430E+02  0.00000000000E+00 0.  1.
         11    1    3    3    0    0 -0.14898040334E+02 -0.11667187545E+02  0.13217673009E+02  0.23082065571E+02  0.51100000000E-03 0. -1.
        -11    1    3    3    0    0 -0.78651055143E+01  0.42085150350E+01  0.49212207998E+01  0.10187732720E+02  0.51100000000E-03 0.  1.
        -12    1    3    3    0    0  0.16584062537E+02 -0.19856267242E+02 -0.28931230277E+01  0.26032146278E+02  0.00000000000E+00 0.  1.
</event>
<event>
 7    1  0.1101380E-011  0.5930195E+02  0.7816164E-02  0.1266605E+00
        -11   -1    0    0    0    0  0.00000000000E+00  0.00000000000E+00  0.45593999997E+02  0.45594000000E+02  0.51100000000E-03 0.  1.
         11   -1    0    0    0    0 -0.00000000000E+00 -0.00000000000E+00 -0.45593999997E+02  0.45594000000E+02  0.51100000000E-03 0. -1.
    9900012    2    1    2    0    0 -0.93076759570E+00  0.28216348563E+02 -0.14821985474E+02  0.59301954338E+02  0.50000018804E+02 0.  0.
        -12    1    1    2    0    0  0.93076759570E+00 -0.28216348563E+02  0.14821985474E+02  0.31886045662E+02  0.00000000000E+00 0.  1.
         11    1    3    3    0    0 -0.49908371404E+01  0.19607361722E+02 -0.10096406508E+02  0.22611822432E+02  0.51100000000E-03 0. -1.
        -11    1    3    3    0    0  0.17281158095E+02  0.10028896538E+02 -0.10051261154E+02  0.22366158408E+02  0.51100000000E-03 0.  1.
        -12    1    3    3    0    0 -0.13221088550E+02 -0.14199096975E+01  0.53256821882E+01  0.14323973498E+02  0.00000000000E+00 0.  1.
</event>
<event>
 7    1  0.1101380E-011  0.5930194E+02  0.7816164E-02  0.1266605E+00
        -11   -1    0    0    0    0  0.00000000000E+00  0.00000000000E+00  0.45593999997E+02  0.45594000000E+02  0.51100000000E-03 0. -1.
         11   -1    0    0    0    0 -0.00000000000E+00 -0.00000000000E+00 -0.45593999997E+02  0.45594000000E+02  0.51100000000E-03 0.  1.
    9900012    2    1    2    0    0 -0.24829982015E+02 -0.19556047653E+02  0.42135563404E+01  0.59301936215E+02  0.49999985751E+02 0.  0.
        -12    1    1    2    0    0  0.24829982015E+02  0.19556047653E+02 -0.42135563404E+01  0.31886063785E+02  0.00000000000E+00 0.  1.
         11    1    3    3    0    0  0.39636856498E+01  0.62674308152E+01  0.55536513414E+01  0.92646930028E+01  0.51100000000E-03 0. -1.
        -11    1    3    3    0    0  0.67850011163E+01 -0.69668264010E+01 -0.91968139422E+00  0.97682508351E+01  0.51100000000E-03 0.  1.
         12    1    3    3    0    0 -0.35578668781E+02 -0.18856652068E+02 -0.42041360684E+00  0.40268992377E+02  0.00000000000E+00 0. -1.
</event>
<event>
 7    1  0.1101380E-011  0.5930194E+02  0.7816164E-02  0.1266605E+00
        -11   -1    0    0    0    0  0.00000000000E+00  0.00000000000E+00  0.45593999997E+02  0.45594000000E+02  0.51100000000E-03 0. -1.
         11   -1    0    0    0    0 -0.00000000000E+00 -0.00000000000E+00 -0.45593999997E+02  0.45594000000E+02  0.51100000000E-03 0.  1.
    9900012    2    1    2    0    0 -0.28282807513E+02 -0.12444559275E+02 -0.78699854031E+01  0.59301938364E+02  0.49999989671E+02 0.  0.
        -12    1    1    2    0    0  0.28282807513E+02  0.12444559275E+02  0.78699854031E+01  0.31886061636E+02  0.00000000000E+00 0.  1.
         11    1    3    3    0    0  0.73804906490E+01 -0.11136959427E+01  0.57773689908E+01  0.94387474587E+01  0.51100000000E-03 0.  1.
        -11    1    3    3    0    0 -0.70545224950E+01  0.85873140752E+01 -0.97540203830E+01  0.14786790204E+02  0.51100000000E-03 0. -1.
         12    1    3    3    0    0 -0.28608775667E+02 -0.19918177408E+02 -0.38933340108E+01  0.35076400701E+02  0.00000000000E+00 0. -1.
</event>
<event>
 7    1  0.1101380E-011  0.5930194E+02  0.7816164E-02  0.1266605E+00
        -11   -1    0    0    0    0  0.00000000000E+00  0.00000000000E+00  0.45593999997E+02  0.45594000000E+02  0.51100000000E-03 0. -1.
         11   -1    0    0    0    0 -0.00000000000E+00 -0.00000000000E+00 -0.45593999997E+02  0.45594000000E+02  0.51100000000E-03 0.  1.
    9900012    2    1    2    0    0 -0.29535031009E+02 -0.19056964985E+01  0.11864686325E+02  0.59301944781E+02  0.50000001374E+02 0.  0.
        -12    1    1    2    0    0  0.29535031009E+02  0.19056964985E+01 -0.11864686325E+02  0.31886055219E+02  0.00000000000E+00 0.  1.
         11    1    3    3    0    0  0.74304218787E+01  0.10045818198E+01  0.12077834644E+02  0.14215992539E+02  0.51100000000E-03 0. -1.
        -11    1    3    3    0    0  0.23878112725E+01  0.38556406696E+01 -0.23310800813E+01  0.50991707417E+01  0.51100000000E-03 0.  1.
        -12    1    3    3    0    0 -0.39353264160E+02 -0.67659189878E+01  0.21179317623E+01  0.39986781500E+02  0.00000000000E+00 0.  1.
</event>
<event>
 7    1  0.1101380E-011  0.5930193E+02  0.7816164E-02  0.1266605E+00
        -11   -1    0    0    0    0  0.00000000000E+00  0.00000000000E+00  0.45593999997E+02  0.45594000000E+02  0.51100000000E-03 0.  1.
         11   -1    0    0    0    0 -0.00000000000E+00 -0.00000000000E+00 -0.45593999997E+02  0.45594000000E+02  0.51100000000E-03 0. -1.
    9900012    2    1    2    0    0  0.85294115144E+01  0.25964665322E+02 -0.16425791110E+02  0.59301932201E+02  0.49999978431E+02 0.  0.
        -12    1    1    2    0    0 -0.85294115144E+01 -0.25964665322E+02  0.16425791110E+02  0.31886067799E+02  0.00000000000E+00 0.  1.
         11    1    3    3    0    0 -0.26291054641E+01  0.15022717740E+02  0.10882846729E+02  0.18735810551E+02  0.51100000000E-03 0. -1.
        -11    1    3    3    0    0  0.43010737281E+01  0.11354643114E+02  0.26975741881E+00  0.12144954705E+02  0.51100000000E-03 0.  1.
         12    1    3    3    0    0  0.68574432504E+01 -0.41269553106E+00 -0.27578395258E+02  0.28421166945E+02  0.00000000000E+00 0. -1.
</event>
<event>
 7    1  0.1101380E-011  0.5930200E+02  0.7816164E-02  0.1266605E+00
        -11   -1    0    0    0    0  0.00000000000E+00  0.00000000000E+00  0.45593999997E+02  0.45594000000E+02  0.51100000000E-03 0.  1.
         11   -1    0    0    0    0 -0.00000000000E+00 -0.00000000000E+00 -0.45593999997E+02  0.45594000000E+02  0.51100000000E-03 0. -1.
    9900012    2    1    2    0    0  0.41201708788E+01 -0.11659417450E+02 -0.29390455284E+02  0.59302004875E+02  0.50000110970E+02 0.  0.
        -12    1    1    2    0    0 -0.41201708788E+01  0.11659417450E+02  0.29390455284E+02  0.31885995125E+02  0.00000000000E+00 0.  1.
         11    1    3    3    0    0 -0.60079146380E+01 -0.17868709901E+01  0.95213980108E+00  0.63399145653E+01  0.51100000000E-03 0. -1.
        -11    1    3    3    0    0 -0.49288062123E+00  0.13049143692E+02  0.53179705467E+00  0.13069272771E+02  0.51100000000E-03 0.  1.
         12    1    3    3    0    0  0.10620966138E+02 -0.22921690152E+02 -0.30874392139E+02  0.39892817538E+02  0.00000000000E+00 0. -1.
</event>
<event>
 7    1  0.1101380E-011  0.5930195E+02  0.7816164E-02  0.1266605E+00
        -11   -1    0    0    0    0  0.00000000000E+00  0.00000000000E+00  0.45593999997E+02  0.45594000000E+02  0.51100000000E-03 0. -1.
         11   -1    0    0    0    0 -0.00000000000E+00 -0.00000000000E+00 -0.45593999997E+02  0.45594000000E+02  0.51100000000E-03 0.  1.
    9900012    2    1    2    0    0 -0.23681351278E+02 -0.20967562819E+02 -0.40342586258E+01  0.59301947696E+02  0.50000006689E+02 0.  0.
        -12    1    1    2    0    0  0.23681351278E+02  0.20967562819E+02  0.40342586258E+01  0.31886052304E+02  0.00000000000E+00 0.  1.
         11    1    3    3    0    0 -0.51691140016E+01 -0.14018086576E+02  0.10445084308E+02  0.18229818356E+02  0.51100000000E-03 0. -1.
        -11    1    3    3    0    0 -0.64398791260E+01 -0.11954096283E+01  0.10709237856E+02  0.12553438695E+02  0.51100000000E-03 0.  1.
        -12    1    3    3    0    0 -0.12072358150E+02 -0.57540666141E+01 -0.25188580790E+02  0.28518690645E+02  0.00000000000E+00 0.  1.
</event>
<event>
 7    1  0.1101380E-011  0.5930188E+02  0.7816164E-02  0.1266605E+00
        -11   -1    0    0    0    0  0.00000000000E+00  0.00000000000E+00  0.45593999997E+02  0.45594000000E+02  0.51100000000E-03 0.  1.
         11   -1    0    0    0    0 -0.00000000000E+00 -0.00000000000E+00 -0.45593999997E+02  0.45594000000E+02  0.51100000000E-03 0. -1.
    9900012    2    1    2    0    0  0.22156809244E+02 -0.44779255216E+01 -0.22488850783E+02  0.59301883548E+02  0.49999889699E+02 0.  0.
        -12    1    1    2    0    0 -0.22156809244E+02  0.44779255216E+01  0.22488850783E+02  0.31886116452E+02  0.00000000000E+00 0.  1.
         11    1    3    3    0    0 -0.49324704293E+01  0.71186676183E+00  0.42688441421E+00  0.50018246058E+01  0.51100000000E-03 0.  1.
        -11    1    3    3    0    0  0.16457319637E+02  0.13513922859E+02 -0.24818055321E+02  0.32701763727E+02  0.51100000000E-03 0. -1.
         12    1    3    3    0    0  0.10631960037E+02 -0.18703715142E+02  0.19023201236E+01  0.21598295215E+02  0.00000000000E+00 0. -1.
</event>
<event>
 7    1  0.1101380E-011  0.5930196E+02  0.7816164E-02  0.1266605E+00
        -11   -1    0    0    0    0  0.00000000000E+00  0.00000000000E+00  0.45593999997E+02  0.45594000000E+02  0.51100000000E-03 0. -1.
         11   -1    0    0    0    0 -0.00000000000E+00 -0.00000000000E+00 -0.45593999997E+02  0.45594000000E+02  0.51100000000E-03 0.  1.
    9900012    2    1    2    0    0 -0.31055971247E+02  0.26273913489E+01  0.67337098054E+01  0.59301962568E+02  0.50000033813E+02 0.  0.
        -12    1    1    2    0    0  0.31055971247E+02 -0.26273913489E+01 -0.67337098054E+01  0.31886037432E+02  0.00000000000E+00 0.  1.
         11    1    3    3    0    0 -0.29492087627E+02 -0.16671349229E+02  0.12544972991E+01  0.33901192920E+02  0.51100000000E-03 0. -1.
        -11    1    3    3    0    0 -0.67465853394E+01  0.11380355496E+02 -0.19455317883E+01  0.13372135176E+02  0.51100000000E-03 0.  1.
        -12    1    3    3    0    0  0.51827017194E+01  0.79183850820E+01  0.74247442946E+01  0.12028634472E+02  0.00000000000E+00 0.  1.
</event>
<event>
 7    1  0.1101380E-011  0.5930193E+02  0.7816164E-02  0.1266605E+00
        -11   -1    0    0    0    0  0.00000000000E+00  0.00000000000E+00  0.45593999997E+02  0.45594000000E+02  0.51100000000E-03 0.  1.
         11   -1    0    0    0    0 -0.00000000000E+00 -0.00000000000E+00 -0.45593999997E+02  0.45594000000E+02  0.51100000000E-03 0. -1.
    9900012    2    1    2    0    0  0.25636670239E+02  0.15342997693E+02  0.11138890474E+02  0.59301932193E+02  0.49999978417E+02 0.  0.
        -12    1    1    2    0    0 -0.25636670239E+02 -0.15342997693E+02 -0.11138890474E+02  0.31886067807E+02  0.00000000000E+00 0.  1.
         11    1    3    3    0    0 -0.78898141286E+01  0.91363833936E+01 -0.77588563853E+00  0.12096473341E+02  0.51100000000E-03 0.  1.
        -11    1    3    3    0    0  0.19440579439E+02  0.18492829494E+02  0.51072284143E+01  0.27313085764E+02  0.51100000000E-03 0. -1.
        -12    1    3    3    0    0  0.14085904929E+02 -0.12286215194E+02  0.68075476984E+01  0.19892373089E+02  0.00000000000E+00 0.  1.
</event>
<event>
 7    1  0.1101380E-011  0.5930163E+02  0.7816164E-02  0.1266606E+00
        -11   -1    0    0    0    0  0.00000000000E+00  0.00000000000E+00  0.45593999997E+02  0.45594000000E+02  0.51100000000E-03 0. -1.
         11   -1    0    0    0    0 -0.00000000000E+00 -0.00000000000E+00 -0.45593999997E+02  0.45594000000E+02  0.51100000000E-03 0.  1.
    9900012    2    1    2    0    0 -0.50860248043E+01  0.83664429505E+01  0.30345936223E+02  0.59301625775E+02  0.49999419580E+02 0.  0.
        -12    1    1    2    0    0  0.50860248043E+01 -0.83664429505E+01 -0.30345936223E+02  0.31886374225E+02  0.00000000000E+00 0.  1.
         11    1    3    3    0    0 -0.18552972915E+02 -0.36294916357E+01 -0.89111916499E+00  0.18925646809E+02  0.51100000000E-03 0. -1.
        -11    1    3    3    0    0  0.25658058356E+01 -0.47562086649E+01  0.88088908612E+01  0.10334478164E+02  0.51100000000E-03 0.  1.
        -12    1    3    3    0    0  0.10901142275E+02  0.16752143251E+02  0.22428164527E+02  0.30041500802E+02  0.00000000000E+00 0.  1.
</event>
<event>
 7    1  0.1101380E-011  0.5930196E+02  0.7816164E-02  0.1266605E+00
        -11   -1    0    0    0    0  0.00000000000E+00  0.00000000000E+00  0.45593999997E+02  0.45594000000E+02  0.51100000000E-03 0. -1.
         11   -1    0    0    0    0 -0.00000000000E+00 -0.00000000000E+00 -0.45593999997E+02  0.45594000000E+02  0.51100000000E-03 0.  1.
    9900012    2    1    2    0    0 -0.27587094803E+02  0.14045870227E+01  0.15927935144E+02  0.59301956308E+02  0.50000022397E+02 0.  0.
        -12    1    1    2    0    0  0.27587094803E+02 -0.14045870227E+01 -0.15927935144E+02  0.31886043692E+02  0.00000000000E+00 0.  1.
         11    1    3    3    0    0 -0.11031611227E+02  0.38639776174E+01 -0.60321125612E+00  0.11704299782E+02  0.51100000000E-03 0. -1.
        -11    1    3    3    0    0 -0.64253401819E+01  0.44924043662E+01 -0.13242161377E+02  0.15389006844E+02  0.51100000000E-03 0.  1.
         12    1    3    3    0    0 -0.10130143394E+02 -0.69517949609E+01  0.29773307777E+02  0.32208649682E+02  0.00000000000E+00 0. -1.
</event>
<event>
 7    1  0.1101380E-011  0.5930191E+02  0.7816164E-02  0.1266605E+00
        -11   -1    0    0    0    0  0.00000000000E+00  0.00000000000E+00  0.45593999997E+02  0.45594000000E+02  0.51100000000E-03 0.  1.
         11   -1    0    0    0    0 -0.00000000000E+00 -0.00000000000E+00 -0.45593999997E+02  0.45594000000E+02  0.51100000000E-03 0. -1.
    9900012    2    1    2    0    0  0.24272739249E+01 -0.14568814120E+02 -0.28259169997E+02  0.59301910675E+02  0.49999939172E+02 0.  0.
        -12    1    1    2    0    0 -0.24272739249E+01  0.14568814120E+02  0.28259169997E+02  0.31886089325E+02  0.00000000000E+00 0.  1.
         11    1    3    3    0    0 -0.10421348863E+02 -0.20701293619E+02 -0.49481593068E+01  0.23698783732E+02  0.51100000000E-03 0. -1.
        -11    1    3    3    0    0 -0.14608617211E+01  0.77488951654E+01  0.36253371602E+00  0.78937268897E+01  0.51100000000E-03 0.  1.
         12    1    3    3    0    0  0.14309484509E+02 -0.16164156663E+01 -0.23673544406E+02  0.27709400052E+02  0.00000000000E+00 0. -1.
</event>
<event>
 7    1  0.1101380E-011  0.5930193E+02  0.7816164E-02  0.1266605E+00
        -11   -1    0    0    0    0  0.00000000000E+00  0.00000000000E+00  0.45593999997E+02  0.45594000000E+02  0.51100000000E-03 0.  1.
         11   -1    0    0    0    0 -0.00000000000E+00 -0.00000000000E+00 -0.45593999997E+02  0.45594000000E+02  0.51100000000E-03 0. -1.
    9900012    2    1    2    0    0 -0.24580599191E+02 -0.19862829478E+02 -0.42407361594E+01  0.59301926322E+02  0.49999967708E+02 0.  0.
        -12    1    1    2    0    0  0.24580599191E+02  0.19862829478E+02  0.42407361594E+01  0.31886073678E+02  0.00000000000E+00 0.  1.
         11    1    3    3    0    0 -0.17072608087E+01 -0.12958953610E+02  0.39241732199E+01  0.13647283754E+02  0.51100000000E-03 0. -1.
        -11    1    3    3    0    0  0.94442709978E+01 -0.79724354340E+01 -0.23682456207E+00  0.12361636929E+02  0.51100000000E-03 0.  1.
         12    1    3    3    0    0 -0.32317609380E+02  0.10685595661E+01 -0.79280848173E+01  0.33293005639E+02  0.00000000000E+00 0. -1.
</event>
<event>
 7    1  0.1101380E-011  0.5930194E+02  0.7816164E-02  0.1266605E+00
        -11   -1    0    0    0    0  0.00000000000E+00  0.00000000000E+00  0.45593999997E+02  0.45594000000E+02  0.51100000000E-03 0.  1.
         11   -1    0    0    0    0 -0.00000000000E+00 -0.00000000000E+00 -0.45593999997E+02  0.45594000000E+02  0.51100000000E-03 0. -1.
    9900012    2    1    2    0    0  0.52002192348E+01 -0.31357446987E+02 -0.25276206897E+01  0.59301943048E+02  0.49999998213E+02 0.  0.
        -12    1    1    2    0    0 -0.52002192348E+01  0.31357446987E+02  0.25276206897E+01  0.31886056952E+02  0.00000000000E+00 0.  1.
         11    1    3    3    0    0  0.34864300592E+01 -0.17729437018E+02 -0.18682717648E+02  0.25990999798E+02  0.51100000000E-03 0. -1.
        -11    1    3    3    0    0 -0.11761344100E+02 -0.90700295066E+01  0.72403474057E+01  0.16523234584E+02  0.51100000000E-03 0.  1.
         12    1    3    3    0    0  0.13475133276E+02 -0.45579804620E+01  0.89147495522E+01  0.16787708666E+02  0.00000000000E+00 0. -1.
</event>
<event>
 7    1  0.1101380E-011  0.5930195E+02  0.7816164E-02  0.1266605E+00
        -11   -1    0    0    0    0  0.00000000000E+00  0.00000000000E+00  0.45593999997E+02  0.45594000000E+02  0.51100000000E-03 0.  1.
         11   -1    0    0    0    0 -0.00000000000E+00 -0.00000000000E+00 -0.45593999997E+02  0.45594000000E+02  0.51100000000E-03 0. -1.
    9900012    2    1    2    0    0 -0.34806936477E+01 -0.23615658609E+02  0.21140147973E+02  0.59301946369E+02  0.50000004270E+02 0.  0.
        -12    1    1    2    0    0  0.34806936477E+01  0.23615658609E+02 -0.21140147973E+02  0.31886053631E+02  0.00000000000E+00 0.  1.
         11    1    3    3    0    0  0.48438183611E+01  0.83635430152E+01 -0.60875629499E+01  0.11422339997E+02  0.51100000000E-03 0. -1.
        -11    1    3    3    0    0  0.63433251540E+01 -0.13689080553E+02  0.15626037260E+02  0.21720997701E+02  0.51100000000E-03 0.  1.
        -12    1    3    3    0    0 -0.14667837163E+02 -0.18290121071E+02  0.11601673663E+02  0.26158608671E+02  0.00000000000E+00 0.  1.
</event>
<event>
 7    1  0.1101380E-011  0.5930196E+02  0.7816164E-02  0.1266605E+00
        -11   -1    0    0    0    0  0.00000000000E+00  0.00000000000E+00  0.45593999997E+02  0.45594000000E+02  0.51100000000E-03 0. -1.
         11   -1    0    0    0    0 -0.00000000000E+00 -0.00000000000E+00 -0.45593999997E+02  0.45594000000E+02  0.51100000000E-03 0.  1.
    9900012    2    1    2    0    0 -0.13482025364E+02  0.30862599728E+01  0.28730293941E+02  0.59301956055E+02  0.50000021935E+02 0.  0.
        -12    1    1    2    0    0  0.13482025364E+02 -0.30862599728E+01 -0.28730293941E+02  0.31886043945E+02  0.00000000000E+00 0.  1.
         11    1    3    3    0    0 -0.15466323211E+02  0.83615746081E+01  0.78094889371E+01  0.19238274385E+02  0.51100000000E-03 0. -1.
        -11    1    3    3    0    0 -0.75616144357E+01 -0.66897698632E+01 -0.58070966768E+01  0.11647034205E+02  0.51100000000E-03 0.  1.
        -12    1    3    3    0    0  0.95459122832E+01  0.14144552279E+01  0.26727901680E+02  0.28416647465E+02  0.00000000000E+00 0.  1.
</event>
<event>
 7    1  0.1101380E-011  0.5930193E+02  0.7816164E-02  0.1266605E+00
        -11   -1    0    0    0    0  0.00000000000E+00  0.00000000000E+00  0.45593999997E+02  0.45594000000E+02  0.51100000000E-03 0.  1.
         11   -1    0    0    0    0 -0.00000000000E+00 -0.00000000000E+00 -0.45593999997E+02  0.45594000000E+02  0.51100000000E-03 0. -1.
    9900012    2    1    2    0    0 -0.14819546341E+02  0.46881659962E+01 -0.27841044659E+02  0.59301927463E+02  0.49999969790E+02 0.  0.
        -12    1    1    2    0    0  0.14819546341E+02 -0.46881659962E+01  0.27841044659E+02  0.31886072537E+02  0.00000000000E+00 0.  1.
         11    1    3    3    0    0 -0.16412291812E+01 -0.84153334153E+01 -0.20089369142E+02  0.21842486637E+02  0.51100000000E-03 0. -1.
        -11    1    3    3    0    0 -0.68392221703E+01  0.51184366372E+01 -0.19866640008E+02  0.21625372574E+02  0.51100000000E-03 0.  1.
        -12    1    3    3    0    0 -0.63390949890E+01  0.79850627743E+01  0.12114964491E+02  0.15834068252E+02  0.00000000000E+00 0.  1.
</event>
<event>
 7    1  0.1101380E-011  0.5930193E+02  0.7816164E-02  0.1266605E+00
        -11   -1    0    0    0    0  0.00000000000E+00  0.00000000000E+00  0.45593999997E+02  0.45594000000E+02  0.51100000000E-03 0. -1.
         11   -1    0    0    0    0 -0.00000000000E+00 -0.00000000000E+00 -0.45593999997E+02  0.45594000000E+02  0.51100000000E-03 0.  1.
    9900012    2    1    2    0    0 -0.28451600727E+02 -0.10447180001E+02 -0.99037460383E+01  0.59301931890E+02  0.49999977864E+02 0.  0.
        -12    1    1    2    0    0  0.28451600727E+02  0.10447180001E+02  0.99037460383E+01  0.31886068110E+02  0.00000000000E+00 0.  1.
         11    1    3    3    0    0 -0.56132708787E+00  0.90055734851E+01  0.78053791451E+01  0.11930607099E+02  0.51100000000E-03 0. -1.
        -11    1    3    3    0    0 -0.10172359565E+02  0.49390182963E+01  0.18164071111E+01  0.11452953152E+02  0.51100000000E-03 0.  1.
        -12    1    3    3    0    0 -0.17717914074E+02 -0.24391771782E+02 -0.19525532294E+02  0.35918371639E+02  0.00000000000E+00 0.  1.
</event>
<event>
 7    1  0.1101380E-011  0.5930195E+02  0.7816164E-02  0.1266605E+00
        -11   -1    0    0    0    0  0.00000000000E+00  0.00000000000E+00  0.45593999997E+02  0.45594000000E+02  0.51100000000E-03 0.  1.
         11   -1    0    0    0    0 -0.00000000000E+00 -0.00000000000E+00 -0.45593999997E+02  0.45594000000E+02  0.51100000000E-03 0. -1.
    9900012    2    1    2    0    0  0.25129104819E+02  0.11931880875E+02 -0.15584566384E+02  0.59301946628E+02  0.50000004743E+02 0.  0.
        -12    1    1    2    0    0 -0.25129104819E+02 -0.11931880875E+02  0.15584566384E+02  0.31886053372E+02  0.00000000000E+00 0.  1.
         11    1    3    3    0    0  0.13777252525E+02  0.90103322355E+01 -0.13956257406E+02  0.21581841793E+02  0.51100000000E-03 0. -1.
        -11    1    3    3    0    0  0.23881868701E+02 -0.20355040205E+01 -0.30870862545E+01  0.24166444320E+02  0.51100000000E-03 0.  1.
        -12    1    3    3    0    0 -0.12530016407E+02  0.49570526600E+01  0.14587772765E+01  0.13553660515E+02  0.00000000000E+00 0.  1.
</event>
<event>
 7    1  0.1101380E-011  0.5930191E+02  0.7816164E-02  0.1266605E+00
        -11   -1    0    0    0    0  0.00000000000E+00  0.00000000000E+00  0.45593999997E+02  0.45594000000E+02  0.51100000000E-03 0. -1.
         11   -1    0    0    0    0 -0.00000000000E+00 -0.00000000000E+00 -0.45593999997E+02  0.45594000000E+02  0.51100000000E-03 0.  1.
    9900012    2    1    2    0    0 -0.32921083187E+01 -0.31398761671E+02 -0.44724354675E+01  0.59301907566E+02  0.49999933503E+02 0.  0.
        -12    1    1    2    0    0  0.32921083187E+01  0.31398761671E+02  0.44724354675E+01  0.31886092434E+02  0.00000000000E+00 0.  1.
         11    1    3    3    0    0  0.78255107125E+01 -0.25901431975E+02 -0.14782170435E+01  0.27098116580E+02  0.51100000000E-03 0. -1.
        -11    1    3    3    0    0 -0.76113136970E+01 -0.15309305188E+02 -0.98495776283E+01  0.19731221484E+02  0.51100000000E-03 0.  1.
        -12    1    3    3    0    0 -0.35063053343E+01  0.98119754926E+01  0.68553592043E+01  0.12472569502E+02  0.00000000000E+00 0.  1.
</event>
<event>
 7    1  0.1101380E-011  0.5930199E+02  0.7816164E-02  0.1266605E+00
        -11   -1    0    0    0    0  0.00000000000E+00  0.00000000000E+00  0.45593999997E+02  0.45594000000E+02  0.51100000000E-03 0.  1.
         11   -1    0    0    0    0 -0.00000000000E+00 -0.00000000000E+00 -0.45593999997E+02  0.45594000000E+02  0.51100000000E-03 0. -1.
    9900012    2    1    2    0    0  0.21855666781E+01 -0.17490047578E+02 -0.26571403085E+02  0.59301985387E+02  0.50000075430E+02 0.  0.
        -12    1    1    2    0    0 -0.21855666781E+01  0.17490047578E+02  0.26571403085E+02  0.31886014613E+02  0.00000000000E+00 0.  1.
         11    1    3    3    0    0  0.23252090575E+01 -0.24996325843E+01 -0.23005302107E+01  0.41166976728E+01  0.51100000000E-03 0. -1.
        -11    1    3    3    0    0  0.28947019544E+01  0.17082394384E+02 -0.92298502565E+01  0.19631037500E+02  0.51100000000E-03 0.  1.
         12    1    3    3    0    0 -0.30343443339E+01 -0.32072809378E+02 -0.15041022617E+02  0.35554250215E+02  0.00000000000E+00 0. -1.
</event>
<event>
 7    1  0.1101380E-011  0.5930199E+02  0.7816164E-02  0.1266605E+00
        -11   -1    0    0    0    0  0.00000000000E+00  0.00000000000E+00  0.45593999997E+02  0.45594000000E+02  0.51100000000E-03 0.  1.
         11   -1    0    0    0    0 -0.00000000000E+00 -0.00000000000E+00 -0.45593999997E+02  0.45594000000E+02  0.51100000000E-03 0. -1.
    9900012    2    1    2    0    0  0.20718815225E+02 -0.52351262488E+01 -0.23665205510E+02  0.59301987346E+02  0.50000079001E+02 0.  0.
        -12    1    1    2    0    0 -0.20718815225E+02  0.52351262488E+01  0.23665205510E+02  0.31886012654E+02  0.00000000000E+00 0.  1.
         11    1    3    3    0    0  0.11394864657E+02 -0.96086909063E+01 -0.18872523862E+02  0.24048742974E+02  0.51100000000E-03 0. -1.
        -11    1    3    3    0    0 -0.73956275808E+01 -0.14562512841E+01 -0.13545278449E+02  0.15501307804E+02  0.51100000000E-03 0.  1.
        -12    1    3    3    0    0  0.16719578149E+02  0.58298159416E+01  0.87525968006E+01  0.19751936567E+02  0.00000000000E+00 0.  1.
</event>
<event>
 7    1  0.1101380E-011  0.5930195E+02  0.7816164E-02  0.1266605E+00
        -11   -1    0    0    0    0  0.00000000000E+00  0.00000000000E+00  0.45593999997E+02  0.45594000000E+02  0.51100000000E-03 0. -1.
         11   -1    0    0    0    0 -0.00000000000E+00 -0.00000000000E+00 -0.45593999997E+02  0.45594000000E+02  0.51100000000E-03 0.  1.
    9900012    2    1    2    0    0 -0.23836304515E+02 -0.10239618932E+02  0.18539170307E+02  0.59301952198E+02  0.50000014900E+02 0.  0.
        -12    1    1    2    0    0  0.23836304515E+02  0.10239618932E+02 -0.18539170307E+02  0.31886047802E+02  0.00000000000E+00 0.  1.
         11    1    3    3    0    0  0.13583464506E+01 -0.77062339136E+01 -0.11510299736E+02  0.13918266648E+02  0.51100000000E-03 0. -1.
        -11    1    3    3    0    0 -0.31962174968E+00  0.64850630672E+01  0.19321507422E+01  0.67743197297E+01  0.51100000000E-03 0.  1.
         12    1    3    3    0    0 -0.24875029216E+02 -0.90184480851E+01  0.28117319301E+02  0.38609365820E+02  0.00000000000E+00 0. -1.
</event>
<event>
 7    1  0.1101380E-011  0.5930199E+02  0.7816164E-02  0.1266605E+00
        -11   -1    0    0    0    0  0.00000000000E+00  0.00000000000E+00  0.45593999997E+02  0.45594000000E+02  0.51100000000E-03 0.  1.
         11   -1    0    0    0    0 -0.00000000000E+00 -0.00000000000E+00 -0.45593999997E+02  0.45594000000E+02  0.51100000000E-03 0. -1.
    9900012    2    1    2    0    0  0.24517667270E+02 -0.25434727162E+01 -0.20227019574E+02  0.59301990801E+02  0.50000085303E+02 0.  0.
        -12    1    1    2    0    0 -0.24517667270E+02  0.25434727162E+01  0.20227019574E+02  0.31886009199E+02  0.00000000000E+00 0.  1.
         11    1    3    3    0    0 -0.59825392829E+01  0.10663036442E+02 -0.83881321720E+01  0.14827403145E+02  0.51100000000E-03 0. -1.
        -11    1    3    3    0    0 -0.51763806141E+00 -0.11334077708E+02 -0.37178998269E+00  0.11351981973E+02  0.51100000000E-03 0.  1.
        -12    1    3    3    0    0  0.31017844614E+02 -0.18724314504E+01 -0.11467097419E+02  0.33122605683E+02  0.00000000000E+00 0.  1.
</event>
<event>
 7    1  0.1101380E-011  0.5930195E+02  0.7816164E-02  0.1266605E+00
        -11   -1    0    0    0    0  0.00000000000E+00  0.00000000000E+00  0.45593999997E+02  0.45594000000E+02  0.51100000000E-03 0.  1.
         11   -1    0    0    0    0 -0.00000000000E+00 -0.00000000000E+00 -0.45593999997E+02  0.45594000000E+02  0.51100000000E-03 0. -1.
    9900012    2    1    2    0    0 -0.12546163828E+02  0.21447826331E+02 -0.19982612585E+02  0.59301948396E+02  0.50000007968E+02 0.  0.
        -12    1    1    2    0    0  0.12546163828E+02 -0.21447826331E+02  0.19982612585E+02  0.31886051604E+02  0.00000000000E+00 0.  1.
         11    1    3    3    0    0 -0.24161548792E+02  0.59094200318E+01 -0.48394957929E+01  0.25340134272E+02  0.51100000000E-03 0. -1.
        -11    1    3    3    0    0  0.70018275057E+00  0.18728606611E+01  0.61150715165E+01  0.64336585900E+01  0.51100000000E-03 0.  1.
         12    1    3    3    0    0  0.10915202213E+02  0.13665545638E+02 -0.21258188309E+02  0.27528155534E+02  0.00000000000E+00 0. -1.
</event>
<event>
 7    1  0.1101380E-011  0.5930196E+02  0.7816164E-02  0.1266605E+00
        -11   -1    0    0    0    0  0.00000000000E+00  0.00000000000E+00  0.45593999997E+02  0.45594000000E+02  0.51100000000E-03 0.  1.
         11   -1    0    0    0    0 -0.00000000000E+00 -0.00000000000E+00 -0.45593999997E+02  0.45594000000E+02  0.51100000000E-03 0. -1.
    9900012    2    1    2    0    0  0.11318240769E+02  0.12870823042E+02 -0.26887896893E+02  0.59301958239E+02  0.50000025917E+02 0.  0.
        -12    1    1    2    0    0 -0.11318240769E+02 -0.12870823042E+02  0.26887896893E+02  0.31886041761E+02  0.00000000000E+00 0.  1.
         11    1    3    3    0    0  0.10933751696E+02  0.49848385378E+01  0.72669436415E+01  0.14042934578E+02  0.51100000000E-03 0. -1.
        -11    1    3    3    0    0 -0.31996352509E+01  0.15486100650E+02 -0.78692589650E+01  0.17663018315E+02  0.51100000000E-03 0.  1.
         12    1    3    3    0    0  0.35841243236E+01 -0.76001161457E+01 -0.26285581569E+02  0.27596005345E+02  0.00000000000E+00 0. -1.
</event>
<event>
 7    1  0.1101380E-011  0.5930195E+02  0.7816164E-02  0.1266605E+00
        -11   -1    0    0    0    0  0.00000000000E+00  0.00000000000E+00  0.45593999997E+02  0.45594000000E+02  0.51100000000E-03 0.  1.
         11   -1    0    0    0    0 -0.00000000000E+00 -0.00000000000E+00 -0.45593999997E+02  0.45594000000E+02  0.51100000000E-03 0. -1.
    9900012    2    1    2    0    0 -0.17831168396E+02 -0.32343640315E+01 -0.26235629217E+02  0.59301954189E+02  0.50000018532E+02 0.  0.
        -12    1    1    2    0    0  0.17831168396E+02  0.32343640315E+01  0.26235629217E+02  0.31886045811E+02  0.00000000000E+00 0.  1.
         11    1    3    3    0    0  0.11392087084E+02 -0.80182183100E+00 -0.16034632799E+02  0.19685832866E+02  0.51100000000E-03 0. -1.
        -11    1    3    3    0    0 -0.11015395493E+02 -0.13052966007E+02 -0.61381063371E+01  0.18149248169E+02  0.51100000000E-03 0.  1.
         12    1    3    3    0    0 -0.18207859988E+02  0.10620423807E+02 -0.40628900809E+01  0.21466873153E+02  0.00000000000E+00 0. -1.
</event>
<event>
 7    1  0.1101380E-011  0.5930193E+02  0.7816164E-02  0.1266605E+00
        -11   -1    0    0    0    0  0.00000000000E+00  0.00000000000E+00  0.45593999997E+02  0.45594000000E+02  0.51100000000E-03 0.  1.
         11   -1    0    0    0    0 -0.00000000000E+00 -0.00000000000E+00 -0.45593999997E+02  0.45594000000E+02  0.51100000000E-03 0. -1.
    9900012    2    1    2    0    0 -0.29362159187E+01  0.17159090138E+02 -0.26714520088E+02  0.59301932168E+02  0.49999978370E+02 0.  0.
        -12    1    1    2    0    0  0.29362159187E+01 -0.17159090138E+02  0.26714520088E+02  0.31886067832E+02  0.00000000000E+00 0.  1.
         11    1    3    3    0    0  0.15670938121E+02 -0.80872063651E+01 -0.11213376549E+02  0.20897871237E+02  0.51100000000E-03 0. -1.
        -11    1    3    3    0    0 -0.57925669189E+01  0.70723031722E+00  0.13572447589E+01  0.59913370651E+01  0.51100000000E-03 0.  1.
        -12    1    3    3    0    0 -0.12814587120E+02  0.24539066186E+02 -0.16858388298E+02  0.32412723865E+02  0.00000000000E+00 0.  1.
</event>
<event>
 7    1  0.1101380E-011  0.5930200E+02  0.7816164E-02  0.1266605E+00
        -11   -1    0    0    0    0  0.00000000000E+00  0.00000000000E+00  0.45593999997E+02  0.45594000000E+02  0.51100000000E-03 0.  1.
         11   -1    0    0    0    0 -0.00000000000E+00 -0.00000000000E+00 -0.45593999997E+02  0.45594000000E+02  0.51100000000E-03 0. -1.
    9900012    2    1    2    0    0 -0.19455396023E+02  0.38988485984E+01 -0.24960035146E+02  0.59302002927E+02  0.50000107419E+02 0.  0.
        -12    1    1    2    0    0  0.19455396023E+02 -0.38988485984E+01  0.24960035146E+02  0.31885997073E+02  0.00000000000E+00 0.  1.
         11    1    3    3    0    0 -0.90715207605E+01 -0.99710082880E+00 -0.22726167093E+02  0.24490107594E+02  0.51100000000E-03 0. -1.
        -11    1    3    3    0    0 -0.20172033796E+02  0.86233814656E+01  0.44531964883E+01  0.22385366081E+02  0.51100000000E-03 0.  1.
        -12    1    3    3    0    0  0.97881585333E+01 -0.37274320385E+01 -0.66870645418E+01  0.12426529252E+02  0.00000000000E+00 0.  1.
</event>
<event>
 7    1  0.1101380E-011  0.5930181E+02  0.7816164E-02  0.1266605E+00
        -11   -1    0    0    0    0  0.00000000000E+00  0.00000000000E+00  0.45593999997E+02  0.45594000000E+02  0.51100000000E-03 0.  1.
         11   -1    0    0    0    0 -0.00000000000E+00 -0.00000000000E+00 -0.45593999997E+02  0.45594000000E+02  0.51100000000E-03 0. -1.
    9900012    2    1    2    0    0  0.29477818112E+02 -0.66075273309E+01 -0.10204318725E+02  0.59301807084E+02  0.49999750246E+02 0.  0.
        -12    1    1    2    0    0 -0.29477818112E+02  0.66075273309E+01  0.10204318725E+02  0.31886192916E+02  0.00000000000E+00 0.  1.
         11    1    3    3    0    0  0.86667670629E+01 -0.53402941449E+01 -0.79998621325E+01  0.12947176807E+02  0.51100000000E-03 0. -1.
        -11    1    3    3    0    0  0.21254082838E+02 -0.18757585004E+02  0.18056480878E+01  0.28404988959E+02  0.51100000000E-03 0.  1.
         12    1    3    3    0    0 -0.44303178898E+00  0.17490351818E+02 -0.40101046804E+01  0.17949641318E+02  0.00000000000E+00 0. -1.
</event>
<event>
 7    1  0.1101380E-011  0.5930193E+02  0.7816164E-02  0.1266605E+00
        -11   -1    0    0    0    0  0.00000000000E+00  0.00000000000E+00  0.45593999997E+02  0.45594000000E+02  0.51100000000E-03 0. -1.
         11   -1    0    0    0    0 -0.00000000000E+00 -0.00000000000E+00 -0.45593999997E+02  0.45594000000E+02  0.51100000000E-03 0.  1.
    9900012    2    1    2    0    0 -0.34649978980E+01 -0.31207152566E+01  0.31543248559E+02  0.59301927746E+02  0.49999970305E+02 0.  0.
        -12    1    1    2    0    0  0.34649978980E+01  0.31207152566E+01 -0.31543248559E+02  0.31886072254E+02  0.00000000000E+00 0.  1.
         11    1    3    3    0    0 -0.10342740361E+02 -0.12013421119E+02  0.89430439828E+01  0.18200895613E+02  0.51100000000E-03 0. -1.
        -11    1    3    3    0    0 -0.33555876247E+01  0.12353109225E+02 -0.31448882294E+01  0.13181411081E+02  0.51100000000E-03 0.  1.
        -12    1    3    3    0    0  0.10233330088E+02 -0.34604033627E+01  0.25745092806E+02  0.27919621052E+02  0.00000000000E+00 0.  1.
</event>
<event>
 7    1  0.1101380E-011  0.5930195E+02  0.7816164E-02  0.1266605E+00
        -11   -1    0    0    0    0  0.00000000000E+00  0.00000000000E+00  0.45593999997E+02  0.45594000000E+02  0.51100000000E-03 0. -1.
         11   -1    0    0    0    0 -0.00000000000E+00 -0.00000000000E+00 -0.45593999997E+02  0.45594000000E+02  0.51100000000E-03 0.  1.
    9900012    2    1    2    0    0  0.21406472944E+00 -0.25607900759E+02 -0.18997627848E+02  0.59301948679E+02  0.50000008483E+02 0.  0.
        -12    1    1    2    0    0 -0.21406472944E+00  0.25607900759E+02  0.18997627848E+02  0.31886051321E+02  0.00000000000E+00 0.  1.
         11    1    3    3    0    0 -0.24588088755E+01 -0.14959617447E+02  0.20481333059E+01  0.15298063457E+02  0.51100000000E-03 0. -1.
        -11    1    3    3    0    0  0.19619292279E+02 -0.24808847284E+01 -0.95871308337E+01  0.21976908255E+02  0.51100000000E-03 0.  1.
         12    1    3    3    0    0 -0.16946418674E+02 -0.81673985839E+01 -0.11458630320E+02  0.22026976967E+02  0.00000000000E+00 0. -1.
</event>
<event>
 7    1  0.1101380E-011  0.5930193E+02  0.7816164E-02  0.1266605E+00
        -11   -1    0    0    0    0  0.00000000000E+00  0.00000000000E+00  0.45593999997E+02  0.45594000000E+02  0.51100000000E-03 0. -1.
         11   -1    0    0    0    0 -0.00000000000E+00 -0.00000000000E+00 -0.45593999997E+02  0.45594000000E+02  0.51100000000E-03 0.  1.
    9900012    2    1    2    0    0 -0.14805734342E+02  0.19327745784E+02  0.20590047552E+02  0.59301928045E+02  0.49999970852E+02 0.  0.
        -12    1    1    2    0    0  0.14805734342E+02 -0.19327745784E+02 -0.20590047552E+02  0.31886071955E+02  0.00000000000E+00 0.  1.
         11    1    3    3    0    0  0.19445111424E+01 -0.84428740907E+01 -0.42765860390E+01  0.96619063805E+01  0.51100000000E-03 0. -1.
        -11    1    3    3    0    0 -0.13670293458E+02  0.14081220429E+01  0.72577371410E+00  0.13761775999E+02  0.51100000000E-03 0.  1.
         12    1    3    3    0    0 -0.30799520264E+01  0.26362497832E+02  0.24140859877E+02  0.35878245665E+02  0.00000000000E+00 0. -1.
</event>
<event>
 7    1  0.1101380E-011  0.5930195E+02  0.7816164E-02  0.1266605E+00
        -11   -1    0    0    0    0  0.00000000000E+00  0.00000000000E+00  0.45593999997E+02  0.45594000000E+02  0.51100000000E-03 0.  1.
         11   -1    0    0    0    0 -0.00000000000E+00 -0.00000000000E+00 -0.45593999997E+02  0.45594000000E+02  0.51100000000E-03 0. -1.
    9900012    2    1    2    0    0 -0.21111550002E+02 -0.50980442745E+01 -0.23345927394E+02  0.59301954074E+02  0.50000018322E+02 0.  0.
        -12    1    1    2    0    0  0.21111550002E+02  0.50980442745E+01  0.23345927394E+02  0.31886045926E+02  0.00000000000E+00 0.  1.
         11    1    3    3    0    0 -0.19513908257E+02 -0.19648273291E+02 -0.11138266974E+02  0.29848086207E+02  0.51100000000E-03 0.  1.
        -11    1    3    3    0    0 -0.33898971802E+01  0.47746048630E+01 -0.17316039925E+02  0.18279318735E+02  0.51100000000E-03 0. -1.
        -12    1    3    3    0    0  0.17922554351E+01  0.97756241534E+01  0.51083795049E+01  0.11174549132E+02  0.00000000000E+00 0.  1.
</event>
