<event>
 7    1  0.3851772E-009  0.4778727E+02  0.7816164E-02  0.1312668E+00
        -11   -1    0    0    0    0  0.00000000000E+00  0.00000000000E+00  0.45593999997E+02  0.45594000000E+02  0.51100000000E-03 0. -1.
         11   -1    0    0    0    0 -0.00000000000E+00 -0.00000000000E+00 -0.45593999997E+02  0.45594000000E+02  0.51100000000E-03 0.  1.
    9900012    2    1    2    0    0  0.27956927910E+02 -0.31410420621E+02  0.10743343585E+02  0.47787265293E+02  0.19999973775E+02 0.  0.
         12    1    1    2    0    0 -0.27956927910E+02  0.31410420621E+02 -0.10743343585E+02  0.43400734707E+02  0.00000000000E+00 0. -1.
         11    1    3    3    0    0  0.11338707769E+01 -0.17720887434E+01 -0.12480135466E+01  0.24461192790E+01  0.51100000000E-03 0. -1.
        -11    1    3    3    0    0  0.23220300875E+02 -0.29187857126E+02  0.52245254796E+01  0.37661771641E+02  0.51100000000E-03 0.  1.
        -12    1    3    3    0    0  0.36027562579E+01 -0.45047475121E+00  0.67668316521E+01  0.76793743731E+01  0.00000000000E+00 0.  1.
</event>
<event>
 7    1  0.3851772E-009  0.4778727E+02  0.7816164E-02  0.1312668E+00
        -11   -1    0    0    0    0  0.00000000000E+00  0.00000000000E+00  0.45593999997E+02  0.45594000000E+02  0.51100000000E-03 0.  1.
         11   -1    0    0    0    0 -0.00000000000E+00 -0.00000000000E+00 -0.45593999997E+02  0.45594000000E+02  0.51100000000E-03 0. -1.
    9900012    2    1    2    0    0  0.13809523073E+02  0.38357374641E+02  0.14887314031E+02  0.47787271482E+02  0.20000001995E+02 0.  0.
         12    1    1    2    0    0 -0.13809523073E+02 -0.38357374641E+02 -0.14887314031E+02  0.43400728518E+02  0.00000000000E+00 0. -1.
         11    1    3    3    0    0  0.94470209917E+01  0.10266286465E+02 -0.96106890379E+00  0.13984509183E+02  0.51100000000E-03 0. -1.
        -11    1    3    3    0    0  0.44042740864E+01  0.22410862986E+02  0.16367451653E+02  0.28098716766E+02  0.51100000000E-03 0.  1.
        -12    1    3    3    0    0 -0.41772004694E-01  0.56802251893E+01 -0.51906871884E+00  0.57040455325E+01  0.00000000000E+00 0.  1.
</event>
<event>
 7    1  0.3851772E-009  0.4778727E+02  0.7816164E-02  0.1312668E+00
        -11   -1    0    0    0    0  0.00000000000E+00  0.00000000000E+00  0.45593999997E+02  0.45594000000E+02  0.51100000000E-03 0.  1.
         11   -1    0    0    0    0 -0.00000000000E+00 -0.00000000000E+00 -0.45593999997E+02  0.45594000000E+02  0.51100000000E-03 0. -1.
    9900012    2    1    2    0    0  0.78031820655E+01 -0.16008516885E+01  0.42663458375E+02  0.47787273543E+02  0.20000011393E+02 0.  0.
         12    1    1    2    0    0 -0.78031820655E+01  0.16008516885E+01 -0.42663458375E+02  0.43400726457E+02  0.00000000000E+00 0. -1.
         11    1    3    3    0    0  0.28120538224E+01  0.26839561065E+01 -0.25006040280E+00  0.38953558949E+01  0.51100000000E-03 0. -1.
        -11    1    3    3    0    0  0.15525858067E+01 -0.34558612828E+01  0.35232733366E+02  0.35435843444E+02  0.51100000000E-03 0.  1.
         12    1    3    3    0    0  0.34385424364E+01 -0.82894651218E+00  0.76807854118E+01  0.84560742044E+01  0.00000000000E+00 0. -1.
</event>
<event>
 7    1  0.3851772E-009  0.4778729E+02  0.7816164E-02  0.1312668E+00
        -11   -1    0    0    0    0  0.00000000000E+00  0.00000000000E+00  0.45593999997E+02  0.45594000000E+02  0.51100000000E-03 0.  1.
         11   -1    0    0    0    0 -0.00000000000E+00 -0.00000000000E+00 -0.45593999997E+02  0.45594000000E+02  0.51100000000E-03 0. -1.
    9900012    2    1    2    0    0 -0.73005141569E+01  0.18871648300E+02  0.38395118848E+02  0.47787288394E+02  0.20000079105E+02 0.  0.
         12    1    1    2    0    0  0.73005141569E+01 -0.18871648300E+02 -0.38395118848E+02  0.43400711606E+02  0.00000000000E+00 0. -1.
         11    1    3    3    0    0  0.43457161673E+01  0.37235518724E+01  0.78146951924E+01  0.96860491824E+01  0.51100000000E-03 0. -1.
        -11    1    3    3    0    0 -0.11801466571E+02  0.91786344503E+01  0.27686925389E+02  0.31465660352E+02  0.51100000000E-03 0.  1.
        -12    1    3    3    0    0  0.15523624714E+00  0.59694619773E+01  0.28934982669E+01  0.66355788603E+01  0.00000000000E+00 0.  1.
</event>
<event>
 7    1  0.3851772E-009  0.4778732E+02  0.7816164E-02  0.1312668E+00
        -11   -1    0    0    0    0  0.00000000000E+00  0.00000000000E+00  0.45593999997E+02  0.45594000000E+02  0.51100000000E-03 0.  1.
         11   -1    0    0    0    0 -0.00000000000E+00 -0.00000000000E+00 -0.45593999997E+02  0.45594000000E+02  0.51100000000E-03 0. -1.
    9900012    2    1    2    0    0  0.15637516052E+02 -0.21301082629E+02  0.34428930541E+02  0.47787316968E+02  0.20000209382E+02 0.  0.
         12    1    1    2    0    0 -0.15637516052E+02  0.21301082629E+02 -0.34428930541E+02  0.43400683032E+02  0.00000000000E+00 0. -1.
         11    1    3    3    0    0  0.11383767067E+02 -0.83715965062E+01  0.22801096574E+02  0.26824686130E+02  0.51100000000E-03 0. -1.
        -11    1    3    3    0    0  0.29328169692E+01  0.28540730955E+00  0.57049505217E+01  0.64210071969E+01  0.51100000000E-03 0.  1.
         12    1    3    3    0    0  0.13209320164E+01 -0.13214893432E+02  0.59228834451E+01  0.14541623641E+02  0.00000000000E+00 0. -1.
</event>
<event>
 7    1  0.3851772E-009  0.4778727E+02  0.7816164E-02  0.1312668E+00
        -11   -1    0    0    0    0  0.00000000000E+00  0.00000000000E+00  0.45593999997E+02  0.45594000000E+02  0.51100000000E-03 0.  1.
         11   -1    0    0    0    0 -0.00000000000E+00 -0.00000000000E+00 -0.45593999997E+02  0.45594000000E+02  0.51100000000E-03 0. -1.
    9900012    2    1    2    0    0 -0.23794114422E+02  0.34883221816E+02  0.10031161587E+02  0.47787271340E+02  0.20000001349E+02 0.  0.
         12    1    1    2    0    0  0.23794114422E+02 -0.34883221816E+02 -0.10031161587E+02  0.43400728660E+02  0.00000000000E+00 0. -1.
         11    1    3    3    0    0 -0.10396536348E+02  0.10808169073E+02  0.10790655774E+02  0.18475463162E+02  0.51100000000E-03 0. -1.
        -11    1    3    3    0    0 -0.62396975523E+01  0.78193782609E+01  0.42316972828E+01  0.10862033147E+02  0.51100000000E-03 0.  1.
         12    1    3    3    0    0 -0.71578805212E+01  0.16255674482E+02 -0.49911914694E+01  0.18449775031E+02  0.00000000000E+00 0. -1.
</event>
<event>
 7    1  0.3851772E-009  0.4778727E+02  0.7816164E-02  0.1312668E+00
        -11   -1    0    0    0    0  0.00000000000E+00  0.00000000000E+00  0.45593999997E+02  0.45594000000E+02  0.51100000000E-03 0.  1.
         11   -1    0    0    0    0 -0.00000000000E+00 -0.00000000000E+00 -0.45593999997E+02  0.45594000000E+02  0.51100000000E-03 0. -1.
    9900012    2    1    2    0    0 -0.38700052462E+02  0.12629233445E+02  0.15047648415E+02  0.47787270504E+02  0.19999997537E+02 0.  0.
         12    1    1    2    0    0  0.38700052462E+02 -0.12629233445E+02 -0.15047648415E+02  0.43400729496E+02  0.00000000000E+00 0. -1.
         11    1    3    3    0    0 -0.92072278141E+01  0.44965289588E+01 -0.42681359058E+01  0.11099945994E+02  0.51100000000E-03 0. -1.
        -11    1    3    3    0    0 -0.22094956805E+02  0.78325556201E+01  0.12237025961E+02  0.26443918930E+02  0.51100000000E-03 0.  1.
         12    1    3    3    0    0 -0.73978678425E+01  0.30014886615E+00  0.70787583600E+01  0.10243405580E+02  0.00000000000E+00 0. -1.
</event>
<event>
 7    1  0.3851772E-009  0.4778727E+02  0.7816164E-02  0.1312668E+00
        -11   -1    0    0    0    0  0.00000000000E+00  0.00000000000E+00  0.45593999997E+02  0.45594000000E+02  0.51100000000E-03 0.  1.
         11   -1    0    0    0    0 -0.00000000000E+00 -0.00000000000E+00 -0.45593999997E+02  0.45594000000E+02  0.51100000000E-03 0. -1.
    9900012    2    1    2    0    0  0.25263066512E+02 -0.16166452409E+02  0.31369522546E+02  0.47787266621E+02  0.19999979832E+02 0.  0.
         12    1    1    2    0    0 -0.25263066512E+02  0.16166452409E+02 -0.31369522546E+02  0.43400733379E+02  0.00000000000E+00 0. -1.
         11    1    3    3    0    0  0.13897748419E+02 -0.13169676250E+02  0.85581824625E+01  0.20972130816E+02  0.51100000000E-03 0. -1.
        -11    1    3    3    0    0  0.23847682305E+01 -0.42736698397E+01  0.97991955372E+01  0.10953337704E+02  0.51100000000E-03 0.  1.
         12    1    3    3    0    0  0.89805498624E+01  0.12768936812E+01  0.13012144546E+02  0.15861798101E+02  0.00000000000E+00 0. -1.
</event>
<event>
 7    1  0.3851772E-009  0.4778728E+02  0.7816164E-02  0.1312668E+00
        -11   -1    0    0    0    0  0.00000000000E+00  0.00000000000E+00  0.45593999997E+02  0.45594000000E+02  0.51100000000E-03 0.  1.
         11   -1    0    0    0    0 -0.00000000000E+00 -0.00000000000E+00 -0.45593999997E+02  0.45594000000E+02  0.51100000000E-03 0. -1.
    9900012    2    1    2    0    0  0.18155470164E+02  0.37879051207E+02 -0.10916895853E+02  0.47787283044E+02  0.20000054712E+02 0.  0.
         12    1    1    2    0    0 -0.18155470164E+02 -0.37879051207E+02  0.10916895853E+02  0.43400716956E+02  0.00000000000E+00 0. -1.
         11    1    3    3    0    0  0.68708723761E+01  0.73153676381E+01 -0.49305918428E+01  0.11181870464E+02  0.51100000000E-03 0. -1.
        -11    1    3    3    0    0  0.20567672614E+01  0.20448746729E+02 -0.92381747544E+01  0.22532762978E+02  0.51100000000E-03 0.  1.
        -12    1    3    3    0    0  0.92278305264E+01  0.10114936839E+02  0.32518707444E+01  0.14072649602E+02  0.00000000000E+00 0.  1.
</event>
<event>
 7    1  0.3851772E-009  0.4778728E+02  0.7816164E-02  0.1312668E+00
        -11   -1    0    0    0    0  0.00000000000E+00  0.00000000000E+00  0.45593999997E+02  0.45594000000E+02  0.51100000000E-03 0.  1.
         11   -1    0    0    0    0 -0.00000000000E+00 -0.00000000000E+00 -0.45593999997E+02  0.45594000000E+02  0.51100000000E-03 0. -1.
    9900012    2    1    2    0    0  0.22730297305E+02  0.19927043533E+02  0.31142717380E+02  0.47787281972E+02  0.20000049821E+02 0.  0.
         12    1    1    2    0    0 -0.22730297305E+02 -0.19927043533E+02 -0.31142717380E+02  0.43400718028E+02  0.00000000000E+00 0. -1.
         11    1    3    3    0    0 -0.15400076893E+01  0.46957643302E+01  0.11982278405E+02  0.12961358816E+02  0.51100000000E-03 0. -1.
        -11    1    3    3    0    0  0.20554389215E+02  0.10961598778E+02  0.14074398354E+02  0.27216323283E+02  0.51100000000E-03 0.  1.
        -12    1    3    3    0    0  0.37159157796E+01  0.42696804244E+01  0.50860406211E+01  0.76095998717E+01  0.00000000000E+00 0.  1.
</event>
<event>
 7    1  0.3851772E-009  0.4778727E+02  0.7816164E-02  0.1312668E+00
        -11   -1    0    0    0    0  0.00000000000E+00  0.00000000000E+00  0.45593999997E+02  0.45594000000E+02  0.51100000000E-03 0. -1.
         11   -1    0    0    0    0 -0.00000000000E+00 -0.00000000000E+00 -0.45593999997E+02  0.45594000000E+02  0.51100000000E-03 0.  1.
    9900012    2    1    2    0    0  0.27291640972E+02 -0.12833705613E+02 -0.31210345513E+02  0.47787270355E+02  0.19999996855E+02 0.  0.
         12    1    1    2    0    0 -0.27291640972E+02  0.12833705613E+02  0.31210345513E+02  0.43400729645E+02  0.00000000000E+00 0. -1.
         11    1    3    3    0    0  0.96333016299E+01 -0.60154212310E+01 -0.99051222333E+00  0.11400302961E+02  0.51100000000E-03 0. -1.
        -11    1    3    3    0    0  0.13467476221E+02 -0.75211330724E+01 -0.19554093816E+02  0.24905881708E+02  0.51100000000E-03 0.  1.
         12    1    3    3    0    0  0.41908631216E+01  0.70284869068E+00 -0.10665739474E+02  0.11481085685E+02  0.00000000000E+00 0. -1.
</event>
<event>
 7    1  0.3851772E-009  0.4778727E+02  0.7816164E-02  0.1312668E+00
        -11   -1    0    0    0    0  0.00000000000E+00  0.00000000000E+00  0.45593999997E+02  0.45594000000E+02  0.51100000000E-03 0.  1.
         11   -1    0    0    0    0 -0.00000000000E+00 -0.00000000000E+00 -0.45593999997E+02  0.45594000000E+02  0.51100000000E-03 0. -1.
    9900012    2    1    2    0    0  0.77901622883E+01 -0.40985969890E+02  0.11961898628E+02  0.47787269879E+02  0.19999994685E+02 0.  0.
         12    1    1    2    0    0 -0.77901622883E+01  0.40985969890E+02 -0.11961898628E+02  0.43400730121E+02  0.00000000000E+00 0. -1.
         11    1    3    3    0    0 -0.31794458237E+00  0.32254295304E-01  0.22314549653E+01  0.22542228418E+01  0.51100000000E-03 0. -1.
        -11    1    3    3    0    0  0.70362035276E+01 -0.12821987942E+02 -0.23966599912E+01  0.14820779812E+02  0.51100000000E-03 0.  1.
        -12    1    3    3    0    0  0.10719033431E+01 -0.28196236243E+02  0.12127103654E+02  0.30712267225E+02  0.00000000000E+00 0.  1.
</event>
<event>
 7    1  0.3851772E-009  0.4778726E+02  0.7816164E-02  0.1312668E+00
        -11   -1    0    0    0    0  0.00000000000E+00  0.00000000000E+00  0.45593999997E+02  0.45594000000E+02  0.51100000000E-03 0.  1.
         11   -1    0    0    0    0 -0.00000000000E+00 -0.00000000000E+00 -0.45593999997E+02  0.45594000000E+02  0.51100000000E-03 0. -1.
    9900012    2    1    2    0    0  0.25714690897E+01  0.18763600170E+02  0.39050464674E+02  0.47787263418E+02  0.19999965228E+02 0.  0.
         12    1    1    2    0    0 -0.25714690897E+01 -0.18763600170E+02 -0.39050464674E+02  0.43400736582E+02  0.00000000000E+00 0. -1.
         11    1    3    3    0    0  0.70336765635E+01  0.12328248200E+02  0.24056711508E+02  0.27931768267E+02  0.51100000000E-03 0.  1.
        -11    1    3    3    0    0 -0.72361821540E+01  0.52272336100E+01  0.14121954754E+02  0.16706762395E+02  0.51100000000E-03 0. -1.
         12    1    3    3    0    0  0.27739746802E+01  0.12081183604E+01  0.87179841158E+00  0.31487327561E+01  0.00000000000E+00 0. -1.
</event>
<event>
 7    1  0.3851772E-009  0.4778727E+02  0.7816164E-02  0.1312668E+00
        -11   -1    0    0    0    0  0.00000000000E+00  0.00000000000E+00  0.45593999997E+02  0.45594000000E+02  0.51100000000E-03 0.  1.
         11   -1    0    0    0    0 -0.00000000000E+00 -0.00000000000E+00 -0.45593999997E+02  0.45594000000E+02  0.51100000000E-03 0. -1.
    9900012    2    1    2    0    0  0.18653036631E+02 -0.35648259197E+02  0.16275408218E+02  0.47787273370E+02  0.20000010604E+02 0.  0.
         12    1    1    2    0    0 -0.18653036631E+02  0.35648259197E+02 -0.16275408218E+02  0.43400726630E+02  0.00000000000E+00 0. -1.
         11    1    3    3    0    0  0.62356108683E+01 -0.96709634925E+00  0.31059231606E+01  0.70331271274E+01  0.51100000000E-03 0. -1.
        -11    1    3    3    0    0  0.93258171914E+01 -0.33824589778E+02  0.13350969875E+02  0.37540939477E+02  0.51100000000E-03 0.  1.
        -12    1    3    3    0    0  0.30916085715E+01 -0.85657306944E+00 -0.18148481717E+00  0.32132067660E+01  0.00000000000E+00 0.  1.
</event>
<event>
 7    1  0.3851772E-009  0.4778727E+02  0.7816164E-02  0.1312668E+00
        -11   -1    0    0    0    0  0.00000000000E+00  0.00000000000E+00  0.45593999997E+02  0.45594000000E+02  0.51100000000E-03 0.  1.
         11   -1    0    0    0    0 -0.00000000000E+00 -0.00000000000E+00 -0.45593999997E+02  0.45594000000E+02  0.51100000000E-03 0. -1.
    9900012    2    1    2    0    0 -0.22962812126E+02  0.19613769852E+02  0.31171024971E+02  0.47787268367E+02  0.19999987793E+02 0.  0.
         12    1    1    2    0    0  0.22962812126E+02 -0.19613769852E+02 -0.31171024971E+02  0.43400731633E+02  0.00000000000E+00 0. -1.
         11    1    3    3    0    0 -0.11528391334E+02  0.37362776770E+01  0.95240134012E+01  0.15413319213E+02  0.51100000000E-03 0.  1.
        -11    1    3    3    0    0 -0.15922733647E+01  0.13780095892E+02  0.10820623409E+02  0.17592960765E+02  0.51100000000E-03 0. -1.
        -12    1    3    3    0    0 -0.98421474267E+01  0.20973962829E+01  0.10826388161E+02  0.14780988389E+02  0.00000000000E+00 0.  1.
</event>
<event>
 7    1  0.3851772E-009  0.4778728E+02  0.7816164E-02  0.1312668E+00
        -11   -1    0    0    0    0  0.00000000000E+00  0.00000000000E+00  0.45593999997E+02  0.45594000000E+02  0.51100000000E-03 0. -1.
         11   -1    0    0    0    0 -0.00000000000E+00 -0.00000000000E+00 -0.45593999997E+02  0.45594000000E+02  0.51100000000E-03 0.  1.
    9900012    2    1    2    0    0 -0.31051603783E+02 -0.94470422416E+01 -0.28812738042E+02  0.47787279060E+02  0.20000036545E+02 0.  0.
         12    1    1    2    0    0  0.31051603783E+02  0.94470422416E+01  0.28812738042E+02  0.43400720940E+02  0.00000000000E+00 0. -1.
         11    1    3    3    0    0 -0.59453766733E+01  0.58705672946E+01 -0.61769290733E+01  0.10390645658E+02  0.51100000000E-03 0. -1.
        -11    1    3    3    0    0 -0.19757770643E+02 -0.12716662682E+02 -0.20140222289E+02  0.30946915269E+02  0.51100000000E-03 0.  1.
         12    1    3    3    0    0 -0.53484564670E+01 -0.26009468543E+01 -0.24955866804E+01  0.64497181332E+01  0.00000000000E+00 0. -1.
</event>
<event>
 7    1  0.3851772E-009  0.4778727E+02  0.7816164E-02  0.1312668E+00
        -11   -1    0    0    0    0  0.00000000000E+00  0.00000000000E+00  0.45593999997E+02  0.45594000000E+02  0.51100000000E-03 0.  1.
         11   -1    0    0    0    0 -0.00000000000E+00 -0.00000000000E+00 -0.45593999997E+02  0.45594000000E+02  0.51100000000E-03 0. -1.
    9900012    2    1    2    0    0 -0.22605458714E+02 -0.29523185607E-01  0.37048827587E+02  0.47787271194E+02  0.20000000683E+02 0.  0.
         12    1    1    2    0    0  0.22605458714E+02  0.29523185607E-01 -0.37048827587E+02  0.43400728806E+02  0.00000000000E+00 0. -1.
         11    1    3    3    0    0 -0.11966097016E+02 -0.50017437469E+01  0.18225524191E+02  0.22369055648E+02  0.51100000000E-03 0. -1.
        -11    1    3    3    0    0 -0.56533546837E+01  0.58580162145E+01  0.18651974333E+02  0.20351238781E+02  0.51100000000E-03 0.  1.
        -12    1    3    3    0    0 -0.49860070139E+01 -0.88579565319E+00  0.17132906326E+00  0.50669767643E+01  0.00000000000E+00 0.  1.
</event>
<event>
 7    1  0.3851772E-009  0.4778727E+02  0.7816164E-02  0.1312668E+00
        -11   -1    0    0    0    0  0.00000000000E+00  0.00000000000E+00  0.45593999997E+02  0.45594000000E+02  0.51100000000E-03 0. -1.
         11   -1    0    0    0    0 -0.00000000000E+00 -0.00000000000E+00 -0.45593999997E+02  0.45594000000E+02  0.51100000000E-03 0.  1.
    9900012    2    1    2    0    0  0.14126546825E+02 -0.58115503234E+01 -0.40623757865E+02  0.47787272524E+02  0.20000006748E+02 0.  0.
         12    1    1    2    0    0 -0.14126546825E+02  0.58115503234E+01  0.40623757865E+02  0.43400727476E+02  0.00000000000E+00 0. -1.
         11    1    3    3    0    0  0.32317797476E+01 -0.98477315813E+01 -0.27225762820E+02  0.29131844758E+02  0.51100000000E-03 0.  1.
        -11    1    3    3    0    0  0.70549852452E+01  0.18932012540E+01 -0.41157761004E+01  0.83843092123E+01  0.51100000000E-03 0. -1.
        -12    1    3    3    0    0  0.38397818321E+01  0.21429800040E+01 -0.92822189446E+01  0.10271118554E+02  0.00000000000E+00 0.  1.
</event>
<event>
 7    1  0.3851772E-009  0.4778727E+02  0.7816164E-02  0.1312668E+00
        -11   -1    0    0    0    0  0.00000000000E+00  0.00000000000E+00  0.45593999997E+02  0.45594000000E+02  0.51100000000E-03 0. -1.
         11   -1    0    0    0    0 -0.00000000000E+00 -0.00000000000E+00 -0.45593999997E+02  0.45594000000E+02  0.51100000000E-03 0.  1.
    9900012    2    1    2    0    0 -0.29915462022E+02  0.24298930023E+02 -0.19956219708E+02  0.47787267595E+02  0.19999984273E+02 0.  0.
         12    1    1    2    0    0  0.29915462022E+02 -0.24298930023E+02  0.19956219708E+02  0.43400732405E+02  0.00000000000E+00 0. -1.
         11    1    3    3    0    0 -0.64230160003E+01  0.13692444658E+02 -0.44467689373E+01  0.15764261147E+02  0.51100000000E-03 0. -1.
        -11    1    3    3    0    0 -0.23038700583E+02  0.80247301608E+01 -0.10900486849E+02  0.26720752844E+02  0.51100000000E-03 0.  1.
        -12    1    3    3    0    0 -0.45374543816E+00  0.25817552042E+01 -0.46089639216E+01  0.53022536046E+01  0.00000000000E+00 0.  1.
</event>
<event>
 7    1  0.3851772E-009  0.4778727E+02  0.7816164E-02  0.1312668E+00
        -11   -1    0    0    0    0  0.00000000000E+00  0.00000000000E+00  0.45593999997E+02  0.45594000000E+02  0.51100000000E-03 0.  1.
         11   -1    0    0    0    0 -0.00000000000E+00 -0.00000000000E+00 -0.45593999997E+02  0.45594000000E+02  0.51100000000E-03 0. -1.
    9900012    2    1    2    0    0 -0.41811784422E+02  0.22447725057E+01  0.11417476743E+02  0.47787273101E+02  0.20000009376E+02 0.  0.
         12    1    1    2    0    0  0.41811784422E+02 -0.22447725057E+01 -0.11417476743E+02  0.43400726899E+02  0.00000000000E+00 0. -1.
         11    1    3    3    0    0 -0.19377016591E+01 -0.15866419357E+01  0.53633963799E+01  0.59193024370E+01  0.51100000000E-03 0. -1.
        -11    1    3    3    0    0 -0.28769683421E+02  0.22575512302E+01  0.90776250713E+01  0.30252181721E+02  0.51100000000E-03 0.  1.
         12    1    3    3    0    0 -0.11104399343E+02  0.15738632112E+01 -0.30235447077E+01  0.11615788943E+02  0.00000000000E+00 0. -1.
</event>
<event>
 7    1  0.3851772E-009  0.4778727E+02  0.7816164E-02  0.1312668E+00
        -11   -1    0    0    0    0  0.00000000000E+00  0.00000000000E+00  0.45593999997E+02  0.45594000000E+02  0.51100000000E-03 0. -1.
         11   -1    0    0    0    0 -0.00000000000E+00 -0.00000000000E+00 -0.45593999997E+02  0.45594000000E+02  0.51100000000E-03 0.  1.
    9900012    2    1    2    0    0  0.21723509301E+02 -0.19147009135E+02 -0.32328083002E+02  0.47787265378E+02  0.19999974164E+02 0.  0.
         12    1    1    2    0    0 -0.21723509301E+02  0.19147009135E+02  0.32328083002E+02  0.43400734622E+02  0.00000000000E+00 0. -1.
         11    1    3    3    0    0  0.67857115540E+01 -0.12892583980E+02 -0.72846697668E+01  0.16288984525E+02  0.51100000000E-03 0. -1.
        -11    1    3    3    0    0  0.97884199089E+01 -0.79350611334E+01 -0.21814317870E+02  0.25192118289E+02  0.51100000000E-03 0.  1.
        -12    1    3    3    0    0  0.51493778376E+01  0.16806359784E+01 -0.32290953660E+01  0.63061625644E+01  0.00000000000E+00 0.  1.
</event>
<event>
 7    1  0.3851772E-009  0.4778727E+02  0.7816164E-02  0.1312668E+00
        -11   -1    0    0    0    0  0.00000000000E+00  0.00000000000E+00  0.45593999997E+02  0.45594000000E+02  0.51100000000E-03 0. -1.
         11   -1    0    0    0    0 -0.00000000000E+00 -0.00000000000E+00 -0.45593999997E+02  0.45594000000E+02  0.51100000000E-03 0.  1.
    9900012    2    1    2    0    0  0.39920215008E+02 -0.29905349597E+01 -0.16764732282E+02  0.47787272885E+02  0.20000008392E+02 0.  0.
         12    1    1    2    0    0 -0.39920215008E+02  0.29905349597E+01  0.16764732282E+02  0.43400727115E+02  0.00000000000E+00 0. -1.
         11    1    3    3    0    0  0.30652673870E+00  0.11940896931E+01 -0.14718940109E+01  0.19199690302E+01  0.51100000000E-03 0. -1.
        -11    1    3    3    0    0  0.41192733525E+02 -0.45801913740E+01 -0.15448443312E+02  0.44232045502E+02  0.51100000000E-03 0.  1.
        -12    1    3    3    0    0 -0.15790452560E+01  0.39556672124E+00  0.15560504036E+00  0.16352583527E+01  0.00000000000E+00 0.  1.
</event>
<event>
 7    1  0.3851772E-009  0.4778727E+02  0.7816164E-02  0.1312668E+00
        -11   -1    0    0    0    0  0.00000000000E+00  0.00000000000E+00  0.45593999997E+02  0.45594000000E+02  0.51100000000E-03 0. -1.
         11   -1    0    0    0    0 -0.00000000000E+00 -0.00000000000E+00 -0.45593999997E+02  0.45594000000E+02  0.51100000000E-03 0.  1.
    9900012    2    1    2    0    0  0.11655319903E+02  0.29412021623E+02 -0.29710429889E+02  0.47787272562E+02  0.20000006919E+02 0.  0.
         12    1    1    2    0    0 -0.11655319903E+02 -0.29412021623E+02  0.29710429889E+02  0.43400727438E+02  0.00000000000E+00 0. -1.
         11    1    3    3    0    0  0.12093754305E+02  0.82234042307E+01 -0.13586307584E+02  0.19961739012E+02  0.51100000000E-03 0. -1.
        -11    1    3    3    0    0  0.40690575094E+00  0.16779483024E+02 -0.81132957139E+01  0.18642483484E+02  0.51100000000E-03 0.  1.
        -12    1    3    3    0    0 -0.84534015382E+00  0.44091343685E+01 -0.80108265906E+01  0.91830500662E+01  0.00000000000E+00 0.  1.
</event>
<event>
 7    1  0.3851772E-009  0.4778726E+02  0.7816164E-02  0.1312668E+00
        -11   -1    0    0    0    0  0.00000000000E+00  0.00000000000E+00  0.45593999997E+02  0.45594000000E+02  0.51100000000E-03 0. -1.
         11   -1    0    0    0    0 -0.00000000000E+00 -0.00000000000E+00 -0.45593999997E+02  0.45594000000E+02  0.51100000000E-03 0.  1.
    9900012    2    1    2    0    0  0.15314902268E+02 -0.91374347202E+01 -0.39567480609E+02  0.47787257305E+02  0.19999937355E+02 0.  0.
         12    1    1    2    0    0 -0.15314902268E+02  0.91374347202E+01  0.39567480609E+02  0.43400742695E+02  0.00000000000E+00 0. -1.
         11    1    3    3    0    0  0.13335235432E+02 -0.67374726340E+01 -0.13477041305E+02  0.20120951373E+02  0.51100000000E-03 0. -1.
        -11    1    3    3    0    0  0.20100315836E+01  0.22721112909E+01 -0.36568120436E+01  0.47513146885E+01  0.51100000000E-03 0.  1.
         12    1    3    3    0    0 -0.30364747550E-01 -0.46720733772E+01 -0.22433627260E+02  0.22914991244E+02  0.00000000000E+00 0. -1.
</event>
<event>
 7    1  0.3851772E-009  0.4778727E+02  0.7816164E-02  0.1312668E+00
        -11   -1    0    0    0    0  0.00000000000E+00  0.00000000000E+00  0.45593999997E+02  0.45594000000E+02  0.51100000000E-03 0. -1.
         11   -1    0    0    0    0 -0.00000000000E+00 -0.00000000000E+00 -0.45593999997E+02  0.45594000000E+02  0.51100000000E-03 0.  1.
    9900012    2    1    2    0    0 -0.35605526711E+02  0.35827649271E+01 -0.24556745477E+02  0.47787268609E+02  0.19999988895E+02 0.  0.
         12    1    1    2    0    0  0.35605526711E+02 -0.35827649271E+01  0.24556745477E+02  0.43400731391E+02  0.00000000000E+00 0. -1.
         11    1    3    3    0    0 -0.17696770789E+02 -0.41736005103E+01 -0.14738972866E+02  0.23405810368E+02  0.51100000000E-03 0. -1.
        -11    1    3    3    0    0 -0.52195714846E+01 -0.23790100833E+00 -0.75971725869E+01  0.92204964589E+01  0.51100000000E-03 0.  1.
         12    1    3    3    0    0 -0.12689184437E+02  0.79942664457E+01 -0.22206000239E+01  0.15160961782E+02  0.00000000000E+00 0. -1.
</event>
<event>
 7    1  0.3851772E-009  0.4778727E+02  0.7816164E-02  0.1312668E+00
        -11   -1    0    0    0    0  0.00000000000E+00  0.00000000000E+00  0.45593999997E+02  0.45594000000E+02  0.51100000000E-03 0.  1.
         11   -1    0    0    0    0 -0.00000000000E+00 -0.00000000000E+00 -0.45593999997E+02  0.45594000000E+02  0.51100000000E-03 0. -1.
    9900012    2    1    2    0    0 -0.12475105665E+02 -0.26156180466E+02  0.32308652956E+02  0.47787273119E+02  0.20000009460E+02 0.  0.
         12    1    1    2    0    0  0.12475105665E+02  0.26156180466E+02 -0.32308652956E+02  0.43400726881E+02  0.00000000000E+00 0. -1.
         11    1    3    3    0    0 -0.11757522410E+02 -0.98064138103E+01  0.56263168126E+01  0.16311361874E+02  0.51100000000E-03 0. -1.
        -11    1    3    3    0    0 -0.82384631271E+00 -0.80851532493E+01  0.16224850116E+02  0.18146464872E+02  0.51100000000E-03 0.  1.
         12    1    3    3    0    0  0.10626305773E+00 -0.82646134066E+01  0.10457486027E+02  0.13329446373E+02  0.00000000000E+00 0. -1.
</event>
<event>
 7    1  0.3851772E-009  0.4778727E+02  0.7816164E-02  0.1312668E+00
        -11   -1    0    0    0    0  0.00000000000E+00  0.00000000000E+00  0.45593999997E+02  0.45594000000E+02  0.51100000000E-03 0.  1.
         11   -1    0    0    0    0 -0.00000000000E+00 -0.00000000000E+00 -0.45593999997E+02  0.45594000000E+02  0.51100000000E-03 0. -1.
    9900012    2    1    2    0    0  0.37188635226E+02 -0.15898983570E+02  0.15743288934E+02  0.47787269419E+02  0.19999992587E+02 0.  0.
         12    1    1    2    0    0 -0.37188635226E+02  0.15898983570E+02 -0.15743288934E+02  0.43400730581E+02  0.00000000000E+00 0. -1.
         11    1    3    3    0    0  0.54619033356E+00 -0.59060486420E+01  0.33492559552E+01  0.68115526979E+01  0.51100000000E-03 0. -1.
        -11    1    3    3    0    0  0.11683655565E+02 -0.66034639003E+01  0.14014844970E+01  0.13493617080E+02  0.51100000000E-03 0.  1.
         12    1    3    3    0    0  0.24958789328E+02 -0.33894710282E+01  0.10992548482E+02  0.27482099641E+02  0.00000000000E+00 0. -1.
</event>
<event>
 7    1  0.3851772E-009  0.4778728E+02  0.7816164E-02  0.1312668E+00
        -11   -1    0    0    0    0  0.00000000000E+00  0.00000000000E+00  0.45593999997E+02  0.45594000000E+02  0.51100000000E-03 0.  1.
         11   -1    0    0    0    0 -0.00000000000E+00 -0.00000000000E+00 -0.45593999997E+02  0.45594000000E+02  0.51100000000E-03 0. -1.
    9900012    2    1    2    0    0 -0.38639889021E+02  0.11801969539E+02  0.15852295164E+02  0.47787276844E+02  0.20000026442E+02 0.  0.
         12    1    1    2    0    0  0.38639889021E+02 -0.11801969539E+02 -0.15852295164E+02  0.43400723156E+02  0.00000000000E+00 0. -1.
         11    1    3    3    0    0 -0.31515610606E+01 -0.73495393309E+00  0.16153204310E+01  0.36168708517E+01  0.51100000000E-03 0. -1.
        -11    1    3    3    0    0 -0.18654510216E+02  0.99436492809E+01  0.16727442635E+02  0.26956896145E+02  0.51100000000E-03 0.  1.
        -12    1    3    3    0    0 -0.16833817744E+02  0.25932741908E+01 -0.24904679023E+01  0.17213509847E+02  0.00000000000E+00 0.  1.
</event>
<event>
 7    1  0.3851772E-009  0.4778727E+02  0.7816164E-02  0.1312668E+00
        -11   -1    0    0    0    0  0.00000000000E+00  0.00000000000E+00  0.45593999997E+02  0.45594000000E+02  0.51100000000E-03 0.  1.
         11   -1    0    0    0    0 -0.00000000000E+00 -0.00000000000E+00 -0.45593999997E+02  0.45594000000E+02  0.51100000000E-03 0. -1.
    9900012    2    1    2    0    0 -0.35502956258E+02  0.23169386128E+02  0.92920912029E+01  0.47787270565E+02  0.19999997813E+02 0.  0.
         12    1    1    2    0    0  0.35502956258E+02 -0.23169386128E+02 -0.92920912029E+01  0.43400729435E+02  0.00000000000E+00 0. -1.
         11    1    3    3    0    0 -0.94357547609E+01 -0.61084908646E+00  0.23754688548E+01  0.97493311081E+01  0.51100000000E-03 0. -1.
        -11    1    3    3    0    0 -0.15593194012E+02  0.16768565981E+02  0.10116967969E+02  0.25033688216E+02  0.51100000000E-03 0.  1.
        -12    1    3    3    0    0 -0.10474007485E+02  0.70116692334E+01 -0.32003456206E+01  0.13004251240E+02  0.00000000000E+00 0.  1.
</event>
<event>
 7    1  0.3851772E-009  0.4778728E+02  0.7816164E-02  0.1312668E+00
        -11   -1    0    0    0    0  0.00000000000E+00  0.00000000000E+00  0.45593999997E+02  0.45594000000E+02  0.51100000000E-03 0. -1.
         11   -1    0    0    0    0 -0.00000000000E+00 -0.00000000000E+00 -0.45593999997E+02  0.45594000000E+02  0.51100000000E-03 0.  1.
    9900012    2    1    2    0    0  0.13246156149E+01 -0.39434709528E+02 -0.18076814085E+02  0.47787284228E+02  0.20000060109E+02 0.  0.
         12    1    1    2    0    0 -0.13246156149E+01  0.39434709528E+02  0.18076814085E+02  0.43400715772E+02  0.00000000000E+00 0. -1.
         11    1    3    3    0    0 -0.47968117562E+01 -0.91040091957E+01 -0.12841248035E+01  0.10370215197E+02  0.51100000000E-03 0. -1.
        -11    1    3    3    0    0  0.34183491217E+01 -0.21795638185E+02 -0.17880950157E+02  0.28398298072E+02  0.51100000000E-03 0.  1.
        -12    1    3    3    0    0  0.27030782494E+01 -0.85350621475E+01  0.10882608757E+01  0.90187709594E+01  0.00000000000E+00 0.  1.
</event>
<event>
 7    1  0.3851772E-009  0.4778727E+02  0.7816164E-02  0.1312668E+00
        -11   -1    0    0    0    0  0.00000000000E+00  0.00000000000E+00  0.45593999997E+02  0.45594000000E+02  0.51100000000E-03 0.  1.
         11   -1    0    0    0    0 -0.00000000000E+00 -0.00000000000E+00 -0.45593999997E+02  0.45594000000E+02  0.51100000000E-03 0. -1.
    9900012    2    1    2    0    0 -0.22785236274E+02 -0.25390106805E+02  0.26829066854E+02  0.47787270238E+02  0.19999996323E+02 0.  0.
         12    1    1    2    0    0  0.22785236274E+02  0.25390106805E+02 -0.26829066854E+02  0.43400729762E+02  0.00000000000E+00 0. -1.
         11    1    3    3    0    0 -0.14385628508E+02 -0.65976530985E+01  0.77861423795E+01  0.17638008601E+02  0.51100000000E-03 0. -1.
        -11    1    3    3    0    0 -0.10638307980E+02 -0.12337358891E+02  0.11317600385E+02  0.19836131171E+02  0.51100000000E-03 0.  1.
         12    1    3    3    0    0  0.22387002150E+01 -0.64550948152E+01  0.77253240898E+01  0.10313130466E+02  0.00000000000E+00 0. -1.
</event>
<event>
 7    1  0.3851772E-009  0.4778727E+02  0.7816164E-02  0.1312668E+00
        -11   -1    0    0    0    0  0.00000000000E+00  0.00000000000E+00  0.45593999997E+02  0.45594000000E+02  0.51100000000E-03 0. -1.
         11   -1    0    0    0    0 -0.00000000000E+00 -0.00000000000E+00 -0.45593999997E+02  0.45594000000E+02  0.51100000000E-03 0.  1.
    9900012    2    1    2    0    0 -0.30263904726E+02 -0.30958360686E+02 -0.30494809660E+01  0.47787270054E+02  0.19999995486E+02 0.  0.
         12    1    1    2    0    0  0.30263904726E+02  0.30958360686E+02  0.30494809660E+01  0.43400729946E+02  0.00000000000E+00 0. -1.
         11    1    3    3    0    0 -0.11145795439E+02 -0.12878369179E+02 -0.72639037078E+01  0.18516086142E+02  0.51100000000E-03 0. -1.
        -11    1    3    3    0    0 -0.16377186151E+02 -0.14328348008E+02  0.80952667990E+01  0.23217388476E+02  0.51100000000E-03 0.  1.
        -12    1    3    3    0    0 -0.27409231364E+01 -0.37516434995E+01 -0.38808440572E+01  0.60537954362E+01  0.00000000000E+00 0.  1.
</event>
<event>
 7    1  0.3851772E-009  0.4778727E+02  0.7816164E-02  0.1312668E+00
        -11   -1    0    0    0    0  0.00000000000E+00  0.00000000000E+00  0.45593999997E+02  0.45594000000E+02  0.51100000000E-03 0.  1.
         11   -1    0    0    0    0 -0.00000000000E+00 -0.00000000000E+00 -0.45593999997E+02  0.45594000000E+02  0.51100000000E-03 0. -1.
    9900012    2    1    2    0    0 -0.34942014472E+02  0.24569528784E+02  0.76822818674E+01  0.47787267578E+02  0.19999984196E+02 0.  0.
         12    1    1    2    0    0  0.34942014472E+02 -0.24569528784E+02 -0.76822818674E+01  0.43400732422E+02  0.00000000000E+00 0. -1.
         11    1    3    3    0    0 -0.12731434014E+01 -0.11112912840E+01  0.19084556366E+01  0.25491303648E+01  0.51100000000E-03 0. -1.
        -11    1    3    3    0    0 -0.27688024850E+02  0.26837525313E+02  0.64973560524E+01  0.39103645878E+02  0.51100000000E-03 0.  1.
        -12    1    3    3    0    0 -0.59808462211E+01 -0.11567052446E+01 -0.72352982167E+00  0.61344913356E+01  0.00000000000E+00 0.  1.
</event>
<event>
 7    1  0.3851772E-009  0.4778727E+02  0.7816164E-02  0.1312668E+00
        -11   -1    0    0    0    0  0.00000000000E+00  0.00000000000E+00  0.45593999997E+02  0.45594000000E+02  0.51100000000E-03 0. -1.
         11   -1    0    0    0    0 -0.00000000000E+00 -0.00000000000E+00 -0.45593999997E+02  0.45594000000E+02  0.51100000000E-03 0.  1.
    9900012    2    1    2    0    0 -0.11257302666E+02  0.27975636997E+02 -0.31213140158E+02  0.47787271352E+02  0.20000001401E+02 0.  0.
         12    1    1    2    0    0  0.11257302666E+02 -0.27975636997E+02  0.31213140158E+02  0.43400728648E+02  0.00000000000E+00 0. -1.
         11    1    3    3    0    0  0.38988946144E+01  0.10183113091E+02 -0.57990943016E+01  0.12350168680E+02  0.51100000000E-03 0. -1.
        -11    1    3    3    0    0 -0.26895502718E+01  0.83230017335E+01 -0.65761590586E+01  0.10943121435E+02  0.51100000000E-03 0.  1.
         12    1    3    3    0    0 -0.12466647009E+02  0.94695221719E+01 -0.18837886798E+02  0.24493981236E+02  0.00000000000E+00 0. -1.
</event>
<event>
 7    1  0.3851772E-009  0.4778727E+02  0.7816164E-02  0.1312668E+00
        -11   -1    0    0    0    0  0.00000000000E+00  0.00000000000E+00  0.45593999997E+02  0.45594000000E+02  0.51100000000E-03 0.  1.
         11   -1    0    0    0    0 -0.00000000000E+00 -0.00000000000E+00 -0.45593999997E+02  0.45594000000E+02  0.51100000000E-03 0. -1.
    9900012    2    1    2    0    0  0.39742176797E+02 -0.13061222324E+02  0.11557986092E+02  0.47787272038E+02  0.20000004528E+02 0.  0.
         12    1    1    2    0    0 -0.39742176797E+02  0.13061222324E+02 -0.11557986092E+02  0.43400727962E+02  0.00000000000E+00 0. -1.
         11    1    3    3    0    0  0.27026724437E+02 -0.15686546349E+02  0.26892946609E+01  0.31364691553E+02  0.51100000000E-03 0. -1.
        -11    1    3    3    0    0  0.79052883830E+01  0.91406849732E+00  0.79242963130E+01  0.11230475411E+02  0.51100000000E-03 0.  1.
         12    1    3    3    0    0  0.48101639766E+01  0.17112555269E+01  0.94439511793E+00  0.51921050739E+01  0.00000000000E+00 0. -1.
</event>
<event>
 7    1  0.3851772E-009  0.4778727E+02  0.7816164E-02  0.1312668E+00
        -11   -1    0    0    0    0  0.00000000000E+00  0.00000000000E+00  0.45593999997E+02  0.45594000000E+02  0.51100000000E-03 0. -1.
         11   -1    0    0    0    0 -0.00000000000E+00 -0.00000000000E+00 -0.45593999997E+02  0.45594000000E+02  0.51100000000E-03 0.  1.
    9900012    2    1    2    0    0  0.21151173963E+02  0.32671942218E+02 -0.19204039792E+02  0.47787272902E+02  0.20000008470E+02 0.  0.
         12    1    1    2    0    0 -0.21151173963E+02 -0.32671942218E+02  0.19204039792E+02  0.43400727098E+02  0.00000000000E+00 0. -1.
         11    1    3    3    0    0  0.10367626369E+02  0.26730781930E+02 -0.11045201999E+02  0.30724890017E+02  0.51100000000E-03 0. -1.
        -11    1    3    3    0    0  0.25436644531E+01  0.61913429412E+01 -0.43380083874E+01  0.79762944590E+01  0.51100000000E-03 0.  1.
         12    1    3    3    0    0  0.82398831405E+01 -0.25018265339E+00 -0.38208294058E+01  0.90860884256E+01  0.00000000000E+00 0. -1.
</event>
<event>
 7    1  0.3851772E-009  0.4778728E+02  0.7816164E-02  0.1312668E+00
        -11   -1    0    0    0    0  0.00000000000E+00  0.00000000000E+00  0.45593999997E+02  0.45594000000E+02  0.51100000000E-03 0.  1.
         11   -1    0    0    0    0 -0.00000000000E+00 -0.00000000000E+00 -0.45593999997E+02  0.45594000000E+02  0.51100000000E-03 0. -1.
    9900012    2    1    2    0    0  0.13338492756E+02  0.30225850847E+01  0.41189452880E+02  0.47787280672E+02  0.20000043898E+02 0.  0.
         12    1    1    2    0    0 -0.13338492756E+02 -0.30225850847E+01 -0.41189452880E+02  0.43400719328E+02  0.00000000000E+00 0. -1.
         11    1    3    3    0    0 -0.19383346484E+01 -0.60286073835E+01  0.95821096496E+01  0.11485559359E+02  0.51100000000E-03 0. -1.
        -11    1    3    3    0    0  0.65547802322E+01  0.32642095156E+01  0.11508523448E+02  0.13640612885E+02  0.51100000000E-03 0.  1.
         12    1    3    3    0    0  0.87220471719E+01  0.57869829527E+01  0.20098819783E+02  0.22661108429E+02  0.00000000000E+00 0. -1.
</event>
<event>
 7    1  0.3851772E-009  0.4778728E+02  0.7816164E-02  0.1312668E+00
        -11   -1    0    0    0    0  0.00000000000E+00  0.00000000000E+00  0.45593999997E+02  0.45594000000E+02  0.51100000000E-03 0.  1.
         11   -1    0    0    0    0 -0.00000000000E+00 -0.00000000000E+00 -0.45593999997E+02  0.45594000000E+02  0.51100000000E-03 0. -1.
    9900012    2    1    2    0    0  0.41161245688E+02 -0.11841085790E+02  0.70116616297E+01  0.47787275834E+02  0.20000021839E+02 0.  0.
         12    1    1    2    0    0 -0.41161245688E+02  0.11841085790E+02 -0.70116616297E+01  0.43400724166E+02  0.00000000000E+00 0. -1.
         11    1    3    3    0    0  0.38283547499E+00 -0.83066536857E+00  0.84119434903E+00  0.12426488440E+01  0.51100000000E-03 0. -1.
        -11    1    3    3    0    0 -0.19797671245E+01 -0.96593569896E+00  0.49013129702E+00  0.22567096825E+01  0.51100000000E-03 0.  1.
        -12    1    3    3    0    0  0.42758177338E+02 -0.10044484723E+02  0.56803359836E+01  0.44287917308E+02  0.00000000000E+00 0.  1.
</event>
<event>
 7    1  0.3851772E-009  0.4778727E+02  0.7816164E-02  0.1312668E+00
        -11   -1    0    0    0    0  0.00000000000E+00  0.00000000000E+00  0.45593999997E+02  0.45594000000E+02  0.51100000000E-03 0.  1.
         11   -1    0    0    0    0 -0.00000000000E+00 -0.00000000000E+00 -0.45593999997E+02  0.45594000000E+02  0.51100000000E-03 0. -1.
    9900012    2    1    2    0    0  0.27381930359E+01  0.34172298851E+02  0.26615402046E+02  0.47787270330E+02  0.19999996741E+02 0.  0.
         12    1    1    2    0    0 -0.27381930359E+01 -0.34172298851E+02 -0.26615402046E+02  0.43400729670E+02  0.00000000000E+00 0. -1.
         11    1    3    3    0    0 -0.14480141478E+01  0.49453704629E+01 -0.90490036204E+00  0.52318523406E+01  0.51100000000E-03 0. -1.
        -11    1    3    3    0    0  0.64649840392E+01  0.21844741932E+02  0.26196981521E+02  0.34717007500E+02  0.51100000000E-03 0.  1.
         12    1    3    3    0    0 -0.22787768554E+01  0.73821864556E+01  0.13233208874E+01  0.78384104889E+01  0.00000000000E+00 0. -1.
</event>
<event>
 7    1  0.3851772E-009  0.4778727E+02  0.7816164E-02  0.1312668E+00
        -11   -1    0    0    0    0  0.00000000000E+00  0.00000000000E+00  0.45593999997E+02  0.45594000000E+02  0.51100000000E-03 0. -1.
         11   -1    0    0    0    0 -0.00000000000E+00 -0.00000000000E+00 -0.45593999997E+02  0.45594000000E+02  0.51100000000E-03 0.  1.
    9900012    2    1    2    0    0 -0.72181313336E+00  0.43034500090E+02  0.55798360639E+01  0.47787265182E+02  0.19999973273E+02 0.  0.
         12    1    1    2    0    0  0.72181313336E+00 -0.43034500090E+02 -0.55798360639E+01  0.43400734818E+02  0.00000000000E+00 0. -1.
         11    1    3    3    0    0 -0.65318074993E+00  0.26738541669E+01 -0.13496786353E+01  0.30655788813E+01  0.51100000000E-03 0. -1.
        -11    1    3    3    0    0 -0.82513414179E+00  0.42040104021E+02  0.76598653071E+01  0.42740200388E+02  0.51100000000E-03 0.  1.
        -12    1    3    3    0    0  0.75650175836E+00 -0.16794580977E+01 -0.73035060790E+00  0.19814859129E+01  0.00000000000E+00 0.  1.
</event>
<event>
 7    1  0.3851772E-009  0.4778727E+02  0.7816164E-02  0.1312668E+00
        -11   -1    0    0    0    0  0.00000000000E+00  0.00000000000E+00  0.45593999997E+02  0.45594000000E+02  0.51100000000E-03 0.  1.
         11   -1    0    0    0    0 -0.00000000000E+00 -0.00000000000E+00 -0.45593999997E+02  0.45594000000E+02  0.51100000000E-03 0. -1.
    9900012    2    1    2    0    0  0.85763822963E+01  0.18117780393E+01  0.42506311218E+02  0.47787269979E+02  0.19999995142E+02 0.  0.
         12    1    1    2    0    0 -0.85763822963E+01 -0.18117780393E+01 -0.42506311218E+02  0.43400730021E+02  0.00000000000E+00 0. -1.
         11    1    3    3    0    0  0.30136039855E+01 -0.32887332004E+01  0.29713372648E+02  0.30046332378E+02  0.51100000000E-03 0.  1.
        -11    1    3    3    0    0  0.23229475297E+01  0.63329670433E+01  0.30562302714E+01  0.74056127721E+01  0.51100000000E-03 0. -1.
        -12    1    3    3    0    0  0.32398307811E+01 -0.12324558036E+01  0.97367082995E+01  0.10335324828E+02  0.00000000000E+00 0.  1.
</event>
<event>
 7    1  0.3851772E-009  0.4778727E+02  0.7816164E-02  0.1312668E+00
        -11   -1    0    0    0    0  0.00000000000E+00  0.00000000000E+00  0.45593999997E+02  0.45594000000E+02  0.51100000000E-03 0.  1.
         11   -1    0    0    0    0 -0.00000000000E+00 -0.00000000000E+00 -0.45593999997E+02  0.45594000000E+02  0.51100000000E-03 0. -1.
    9900012    2    1    2    0    0  0.26048557416E+02 -0.10560521762E+02  0.33069187475E+02  0.47787272776E+02  0.20000007894E+02 0.  0.
         12    1    1    2    0    0 -0.26048557416E+02  0.10560521762E+02 -0.33069187475E+02  0.43400727224E+02  0.00000000000E+00 0. -1.
         11    1    3    3    0    0  0.21946183380E+02  0.11850235235E+01  0.20985809435E+02  0.30388212248E+02  0.51100000000E-03 0. -1.
        -11    1    3    3    0    0  0.29613342286E+01 -0.98172553535E+01  0.10315291296E+02  0.14544869813E+02  0.51100000000E-03 0.  1.
         12    1    3    3    0    0  0.11410398070E+01 -0.19282899322E+01  0.17680867435E+01  0.28541907148E+01  0.00000000000E+00 0. -1.
</event>
<event>
 7    1  0.3851772E-009  0.4778729E+02  0.7816164E-02  0.1312668E+00
        -11   -1    0    0    0    0  0.00000000000E+00  0.00000000000E+00  0.45593999997E+02  0.45594000000E+02  0.51100000000E-03 0.  1.
         11   -1    0    0    0    0 -0.00000000000E+00 -0.00000000000E+00 -0.45593999997E+02  0.45594000000E+02  0.51100000000E-03 0. -1.
    9900012    2    1    2    0    0  0.15158207096E+02  0.15400277400E+02  0.37638836258E+02  0.47787288241E+02  0.20000078405E+02 0.  0.
         12    1    1    2    0    0 -0.15158207096E+02 -0.15400277400E+02 -0.37638836258E+02  0.43400711759E+02  0.00000000000E+00 0. -1.
         11    1    3    3    0    0  0.30922529446E-01 -0.59295744045E+00  0.53888616025E+00  0.80184367794E+00  0.51100000000E-03 0. -1.
        -11    1    3    3    0    0  0.10854829026E+02  0.18123842694E+02  0.36501060883E+02  0.42173788459E+02  0.51100000000E-03 0.  1.
        -12    1    3    3    0    0  0.42724555403E+01 -0.21306078535E+01  0.59888921510E+00  0.48116561038E+01  0.00000000000E+00 0.  1.
</event>
<event>
 7    1  0.3851772E-009  0.4778727E+02  0.7816164E-02  0.1312668E+00
        -11   -1    0    0    0    0  0.00000000000E+00  0.00000000000E+00  0.45593999997E+02  0.45594000000E+02  0.51100000000E-03 0.  1.
         11   -1    0    0    0    0 -0.00000000000E+00 -0.00000000000E+00 -0.45593999997E+02  0.45594000000E+02  0.51100000000E-03 0. -1.
    9900012    2    1    2    0    0 -0.19122578914E+02 -0.38253490765E+02  0.73905945922E+01  0.47787268802E+02  0.19999989778E+02 0.  0.
         12    1    1    2    0    0  0.19122578914E+02  0.38253490765E+02 -0.73905945922E+01  0.43400731198E+02  0.00000000000E+00 0. -1.
         11    1    3    3    0    0 -0.15844120484E+01 -0.44562930626E+00  0.48704379804E+01  0.51410226026E+01  0.51100000000E-03 0. -1.
        -11    1    3    3    0    0 -0.12462407324E+02 -0.24123419642E+02  0.56135702771E+01  0.27726578278E+02  0.51100000000E-03 0.  1.
         12    1    3    3    0    0 -0.50757595423E+01 -0.13684441817E+02 -0.30934136653E+01  0.14919667922E+02  0.00000000000E+00 0. -1.
</event>
<event>
 7    1  0.3851772E-009  0.4778727E+02  0.7816164E-02  0.1312668E+00
        -11   -1    0    0    0    0  0.00000000000E+00  0.00000000000E+00  0.45593999997E+02  0.45594000000E+02  0.51100000000E-03 0.  1.
         11   -1    0    0    0    0 -0.00000000000E+00 -0.00000000000E+00 -0.45593999997E+02  0.45594000000E+02  0.51100000000E-03 0. -1.
    9900012    2    1    2    0    0  0.42424006798E+01 -0.22942180396E+02  0.36596196973E+02  0.47787271461E+02  0.20000001898E+02 0.  0.
         12    1    1    2    0    0 -0.42424006798E+01  0.22942180396E+02 -0.36596196973E+02  0.43400728539E+02  0.00000000000E+00 0. -1.
         11    1    3    3    0    0 -0.41618904500E+01 -0.12627928399E+02  0.14486187713E+02  0.19663050183E+02  0.51100000000E-03 0. -1.
        -11    1    3    3    0    0  0.89945430537E+01 -0.12166972758E+02  0.21006585716E+02  0.25888485366E+02  0.51100000000E-03 0.  1.
         12    1    3    3    0    0 -0.59025192388E+00  0.18527207608E+01  0.11034235440E+01  0.22357359121E+01  0.00000000000E+00 0. -1.
</event>
<event>
 7    1  0.3851772E-009  0.4778727E+02  0.7816164E-02  0.1312668E+00
        -11   -1    0    0    0    0  0.00000000000E+00  0.00000000000E+00  0.45593999997E+02  0.45594000000E+02  0.51100000000E-03 0. -1.
         11   -1    0    0    0    0 -0.00000000000E+00 -0.00000000000E+00 -0.45593999997E+02  0.45594000000E+02  0.51100000000E-03 0.  1.
    9900012    2    1    2    0    0 -0.31086946185E+02  0.30050924204E+02 -0.37638880573E+01  0.47787272795E+02  0.20000007982E+02 0.  0.
         12    1    1    2    0    0  0.31086946185E+02 -0.30050924204E+02  0.37638880573E+01  0.43400727205E+02  0.00000000000E+00 0. -1.
         11    1    3    3    0    0 -0.26409116001E+01 -0.23864260382E+01 -0.11755351405E+01  0.37485098964E+01  0.51100000000E-03 0. -1.
        -11    1    3    3    0    0 -0.77805210486E+01  0.50790992209E+01 -0.29566697959E+01  0.97506745011E+01  0.51100000000E-03 0.  1.
         12    1    3    3    0    0 -0.20665513536E+02  0.27358251021E+02  0.36831687910E+00  0.34288088398E+02  0.00000000000E+00 0. -1.
</event>
<event>
 7    1  0.3851772E-009  0.4778727E+02  0.7816164E-02  0.1312668E+00
        -11   -1    0    0    0    0  0.00000000000E+00  0.00000000000E+00  0.45593999997E+02  0.45594000000E+02  0.51100000000E-03 0.  1.
         11   -1    0    0    0    0 -0.00000000000E+00 -0.00000000000E+00 -0.45593999997E+02  0.45594000000E+02  0.51100000000E-03 0. -1.
    9900012    2    1    2    0    0 -0.12292681444E+02 -0.32400527383E+01  0.41497170373E+02  0.47787272958E+02  0.20000008725E+02 0.  0.
         12    1    1    2    0    0  0.12292681444E+02  0.32400527383E+01 -0.41497170373E+02  0.43400727042E+02  0.00000000000E+00 0. -1.
         11    1    3    3    0    0 -0.65412944119E+01  0.38985569775E+01  0.10645097705E+02  0.13088368290E+02  0.51100000000E-03 0. -1.
        -11    1    3    3    0    0  0.37628911869E+01 -0.21370135909E+01  0.14486988352E+02  0.15119491028E+02  0.51100000000E-03 0.  1.
        -12    1    3    3    0    0 -0.95142782186E+01 -0.50015961249E+01  0.16365084315E+02  0.19579413639E+02  0.00000000000E+00 0.  1.
</event>
<event>
 7    1  0.3851772E-009  0.4778727E+02  0.7816164E-02  0.1312668E+00
        -11   -1    0    0    0    0  0.00000000000E+00  0.00000000000E+00  0.45593999997E+02  0.45594000000E+02  0.51100000000E-03 0.  1.
         11   -1    0    0    0    0 -0.00000000000E+00 -0.00000000000E+00 -0.45593999997E+02  0.45594000000E+02  0.51100000000E-03 0. -1.
    9900012    2    1    2    0    0  0.17469558201E+02  0.38965611304E+02  0.77536366808E+01  0.47787271782E+02  0.20000003364E+02 0.  0.
         12    1    1    2    0    0 -0.17469558201E+02 -0.38965611304E+02 -0.77536366808E+01  0.43400728218E+02  0.00000000000E+00 0. -1.
         11    1    3    3    0    0 -0.38690272496E+01  0.67884632996E+01 -0.15713091866E+00  0.78151964924E+01  0.51100000000E-03 0. -1.
        -11    1    3    3    0    0  0.93638518901E+01  0.98891264970E+01  0.49834137580E+01  0.14502101849E+02  0.51100000000E-03 0.  1.
         12    1    3    3    0    0  0.11974733560E+02  0.22288021508E+02  0.29273538414E+01  0.25469973441E+02  0.00000000000E+00 0. -1.
</event>
<event>
 7    1  0.3851772E-009  0.4778728E+02  0.7816164E-02  0.1312668E+00
        -11   -1    0    0    0    0  0.00000000000E+00  0.00000000000E+00  0.45593999997E+02  0.45594000000E+02  0.51100000000E-03 0.  1.
         11   -1    0    0    0    0 -0.00000000000E+00 -0.00000000000E+00 -0.45593999997E+02  0.45594000000E+02  0.51100000000E-03 0. -1.
    9900012    2    1    2    0    0 -0.11978175463E+02  0.12201567657E+02  0.39890696146E+02  0.47787279041E+02  0.20000036461E+02 0.  0.
         12    1    1    2    0    0  0.11978175463E+02 -0.12201567657E+02 -0.39890696146E+02  0.43400720959E+02  0.00000000000E+00 0. -1.
         11    1    3    3    0    0 -0.76994352818E+00  0.16663710590E+01 -0.18404235629E+01  0.25993777515E+01  0.51100000000E-03 0. -1.
        -11    1    3    3    0    0 -0.78261850299E+01  0.10551324840E+02  0.37714679533E+02  0.39937159145E+02  0.51100000000E-03 0.  1.
        -12    1    3    3    0    0 -0.33820469045E+01 -0.16128242229E-01  0.40164401761E+01  0.52507421449E+01  0.00000000000E+00 0.  1.
</event>
<event>
 7    1  0.3851772E-009  0.4778727E+02  0.7816164E-02  0.1312668E+00
        -11   -1    0    0    0    0  0.00000000000E+00  0.00000000000E+00  0.45593999997E+02  0.45594000000E+02  0.51100000000E-03 0.  1.
         11   -1    0    0    0    0 -0.00000000000E+00 -0.00000000000E+00 -0.45593999997E+02  0.45594000000E+02  0.51100000000E-03 0. -1.
    9900012    2    1    2    0    0 -0.30707919162E+02 -0.10447699702E+02  0.28835617144E+02  0.47787267928E+02  0.19999985790E+02 0.  0.
         12    1    1    2    0    0  0.30707919162E+02  0.10447699702E+02 -0.28835617144E+02  0.43400732072E+02  0.00000000000E+00 0. -1.
         11    1    3    3    0    0 -0.29151116608E+01 -0.43567118583E+01  0.28015225914E+01  0.59436809557E+01  0.51100000000E-03 0. -1.
        -11    1    3    3    0    0 -0.22797811481E+02 -0.10672329199E+02  0.23968199132E+02  0.34757925553E+02  0.51100000000E-03 0.  1.
        -12    1    3    3    0    0 -0.49949960204E+01  0.45813413557E+01  0.20658954211E+01  0.70856614195E+01  0.00000000000E+00 0.  1.
</event>
<event>
 7    1  0.3851772E-009  0.4778727E+02  0.7816164E-02  0.1312668E+00
        -11   -1    0    0    0    0  0.00000000000E+00  0.00000000000E+00  0.45593999997E+02  0.45594000000E+02  0.51100000000E-03 0. -1.
         11   -1    0    0    0    0 -0.00000000000E+00 -0.00000000000E+00 -0.45593999997E+02  0.45594000000E+02  0.51100000000E-03 0.  1.
    9900012    2    1    2    0    0  0.21043295932E+02 -0.16833991487E+02 -0.34020876190E+02  0.47787267405E+02  0.19999983404E+02 0.  0.
         12    1    1    2    0    0 -0.21043295932E+02  0.16833991487E+02  0.34020876190E+02  0.43400732595E+02  0.00000000000E+00 0. -1.
         11    1    3    3    0    0 -0.10817502721E+01  0.85785848037E+00 -0.19478126851E+01  0.23874838934E+01  0.51100000000E-03 0. -1.
        -11    1    3    3    0    0  0.20981363711E+02 -0.17248151348E+02 -0.33750151358E+02  0.43321923607E+02  0.51100000000E-03 0.  1.
        -12    1    3    3    0    0  0.11436824940E+01 -0.44369861963E+00  0.16770878534E+01  0.20778599039E+01  0.00000000000E+00 0.  1.
</event>
<event>
 7    1  0.3851772E-009  0.4778727E+02  0.7816164E-02  0.1312668E+00
        -11   -1    0    0    0    0  0.00000000000E+00  0.00000000000E+00  0.45593999997E+02  0.45594000000E+02  0.51100000000E-03 0.  1.
         11   -1    0    0    0    0 -0.00000000000E+00 -0.00000000000E+00 -0.45593999997E+02  0.45594000000E+02  0.51100000000E-03 0. -1.
    9900012    2    1    2    0    0  0.27156248541E+01 -0.35263017447E+02  0.25154887570E+02  0.47787269747E+02  0.19999994085E+02 0.  0.
         12    1    1    2    0    0 -0.27156248541E+01  0.35263017447E+02 -0.25154887570E+02  0.43400730253E+02  0.00000000000E+00 0. -1.
         11    1    3    3    0    0  0.47111943347E+01 -0.21139776768E+01  0.52244159770E+01  0.73456637712E+01  0.51100000000E-03 0. -1.
        -11    1    3    3    0    0 -0.53143253373E+01 -0.24929623425E+02  0.10700998029E+02  0.27644882655E+02  0.51100000000E-03 0.  1.
        -12    1    3    3    0    0  0.33187558567E+01 -0.82194163454E+01  0.92294735639E+01  0.12796723321E+02  0.00000000000E+00 0.  1.
</event>
<event>
 7    1  0.3851772E-009  0.4778727E+02  0.7816164E-02  0.1312668E+00
        -11   -1    0    0    0    0  0.00000000000E+00  0.00000000000E+00  0.45593999997E+02  0.45594000000E+02  0.51100000000E-03 0.  1.
         11   -1    0    0    0    0 -0.00000000000E+00 -0.00000000000E+00 -0.45593999997E+02  0.45594000000E+02  0.51100000000E-03 0. -1.
    9900012    2    1    2    0    0 -0.35231534151E+02  0.21375725826E+02  0.13617656959E+02  0.47787271501E+02  0.20000002081E+02 0.  0.
         12    1    1    2    0    0  0.35231534151E+02 -0.21375725826E+02 -0.13617656959E+02  0.43400728499E+02  0.00000000000E+00 0. -1.
         11    1    3    3    0    0 -0.94498150448E+01  0.14519137484E+02  0.10998525086E+02  0.20520036841E+02  0.51100000000E-03 0. -1.
        -11    1    3    3    0    0 -0.18173515731E+02  0.57311375698E+01  0.39528898813E+01  0.19461447802E+02  0.51100000000E-03 0.  1.
         12    1    3    3    0    0 -0.76082033757E+01  0.11254507721E+01 -0.13337580084E+01  0.78057868579E+01  0.00000000000E+00 0. -1.
</event>
<event>
 7    1  0.3851772E-009  0.4778727E+02  0.7816164E-02  0.1312668E+00
        -11   -1    0    0    0    0  0.00000000000E+00  0.00000000000E+00  0.45593999997E+02  0.45594000000E+02  0.51100000000E-03 0.  1.
         11   -1    0    0    0    0 -0.00000000000E+00 -0.00000000000E+00 -0.45593999997E+02  0.45594000000E+02  0.51100000000E-03 0. -1.
    9900012    2    1    2    0    0 -0.13450958165E+02 -0.22610024397E+02  0.34517848388E+02  0.47787270327E+02  0.19999996731E+02 0.  0.
         12    1    1    2    0    0  0.13450958165E+02  0.22610024397E+02 -0.34517848388E+02  0.43400729673E+02  0.00000000000E+00 0. -1.
         11    1    3    3    0    0 -0.11436562015E+02 -0.69100291416E+01  0.84556054377E+01  0.15812675834E+02  0.51100000000E-03 0. -1.
        -11    1    3    3    0    0  0.30987932807E+01 -0.10734748973E+02  0.13426562502E+02  0.17467396377E+02  0.51100000000E-03 0.  1.
        -12    1    3    3    0    0 -0.51131894311E+01 -0.49652462823E+01  0.12635680448E+02  0.14507198117E+02  0.00000000000E+00 0.  1.
</event>
<event>
 7    1  0.3851772E-009  0.4778727E+02  0.7816164E-02  0.1312668E+00
        -11   -1    0    0    0    0  0.00000000000E+00  0.00000000000E+00  0.45593999997E+02  0.45594000000E+02  0.51100000000E-03 0.  1.
         11   -1    0    0    0    0 -0.00000000000E+00 -0.00000000000E+00 -0.45593999997E+02  0.45594000000E+02  0.51100000000E-03 0. -1.
    9900012    2    1    2    0    0 -0.20342795627E+02  0.21411590819E+02  0.31801539382E+02  0.47787268872E+02  0.19999990097E+02 0.  0.
         12    1    1    2    0    0  0.20342795627E+02 -0.21411590819E+02 -0.31801539382E+02  0.43400731128E+02  0.00000000000E+00 0. -1.
         11    1    3    3    0    0  0.12866183554E+01 -0.11224239676E+01  0.58475532914E+01  0.60917240673E+01  0.51100000000E-03 0. -1.
        -11    1    3    3    0    0 -0.17113677553E+02  0.12115732061E+02  0.19502377582E+02  0.28635845620E+02  0.51100000000E-03 0.  1.
        -12    1    3    3    0    0 -0.45157364295E+01  0.10418282726E+02  0.64516085089E+01  0.13059699185E+02  0.00000000000E+00 0.  1.
</event>
<event>
 7    1  0.3851772E-009  0.4778727E+02  0.7816164E-02  0.1312668E+00
        -11   -1    0    0    0    0  0.00000000000E+00  0.00000000000E+00  0.45593999997E+02  0.45594000000E+02  0.51100000000E-03 0.  1.
         11   -1    0    0    0    0 -0.00000000000E+00 -0.00000000000E+00 -0.45593999997E+02  0.45594000000E+02  0.51100000000E-03 0. -1.
    9900012    2    1    2    0    0 -0.33613862733E+02  0.25967431692E+02  0.89120017480E+01  0.47787273604E+02  0.20000011671E+02 0.  0.
         12    1    1    2    0    0  0.33613862733E+02 -0.25967431692E+02 -0.89120017480E+01  0.43400726396E+02  0.00000000000E+00 0. -1.
         11    1    3    3    0    0 -0.61311084445E+01  0.40837286603E+01 -0.57816760270E+01  0.93645666463E+01  0.51100000000E-03 0. -1.
        -11    1    3    3    0    0 -0.17304640869E+02  0.10754102774E+02  0.94098007257E+01  0.22442051422E+02  0.51100000000E-03 0.  1.
         12    1    3    3    0    0 -0.10178113420E+02  0.11129600258E+02  0.52838770493E+01  0.15980655536E+02  0.00000000000E+00 0. -1.
</event>
<event>
 7    1  0.3851772E-009  0.4778727E+02  0.7816164E-02  0.1312668E+00
        -11   -1    0    0    0    0  0.00000000000E+00  0.00000000000E+00  0.45593999997E+02  0.45594000000E+02  0.51100000000E-03 0.  1.
         11   -1    0    0    0    0 -0.00000000000E+00 -0.00000000000E+00 -0.45593999997E+02  0.45594000000E+02  0.51100000000E-03 0. -1.
    9900012    2    1    2    0    0  0.59393693971E+01 -0.28413167249E+02  0.32265138163E+02  0.47787270483E+02  0.19999997440E+02 0.  0.
         12    1    1    2    0    0 -0.59393693971E+01  0.28413167249E+02 -0.32265138163E+02  0.43400729517E+02  0.00000000000E+00 0. -1.
         11    1    3    3    0    0  0.25480315188E+01  0.12424256043E+01  0.11507823605E+01  0.30594748414E+01  0.51100000000E-03 0. -1.
        -11    1    3    3    0    0 -0.33166965205E+01 -0.20583996209E+02  0.20103275610E+02  0.28962787612E+02  0.51100000000E-03 0.  1.
         12    1    3    3    0    0  0.67080343988E+01 -0.90715966437E+01  0.11011080193E+02  0.15765008030E+02  0.00000000000E+00 0. -1.
</event>
<event>
 7    1  0.3851772E-009  0.4778727E+02  0.7816164E-02  0.1312668E+00
        -11   -1    0    0    0    0  0.00000000000E+00  0.00000000000E+00  0.45593999997E+02  0.45594000000E+02  0.51100000000E-03 0. -1.
         11   -1    0    0    0    0 -0.00000000000E+00 -0.00000000000E+00 -0.45593999997E+02  0.45594000000E+02  0.51100000000E-03 0.  1.
    9900012    2    1    2    0    0 -0.22805921451E+02  0.33415574997E+02 -0.15713441640E+02  0.47787274732E+02  0.20000016814E+02 0.  0.
         12    1    1    2    0    0  0.22805921451E+02 -0.33415574997E+02  0.15713441640E+02  0.43400725268E+02  0.00000000000E+00 0. -1.
         11    1    3    3    0    0 -0.10827484946E+02  0.21093093754E+02 -0.15273469235E+02  0.28203402226E+02  0.51100000000E-03 0. -1.
        -11    1    3    3    0    0 -0.88428534287E+01  0.27349696159E+01 -0.17237501955E+01  0.94152764462E+01  0.51100000000E-03 0.  1.
         12    1    3    3    0    0 -0.31355830758E+01  0.95875116268E+01  0.12837777900E+01  0.10168596060E+02  0.00000000000E+00 0. -1.
</event>
<event>
 7    1  0.3851772E-009  0.4778728E+02  0.7816164E-02  0.1312668E+00
        -11   -1    0    0    0    0  0.00000000000E+00  0.00000000000E+00  0.45593999997E+02  0.45594000000E+02  0.51100000000E-03 0.  1.
         11   -1    0    0    0    0 -0.00000000000E+00 -0.00000000000E+00 -0.45593999997E+02  0.45594000000E+02  0.51100000000E-03 0. -1.
    9900012    2    1    2    0    0  0.12533286693E+02  0.40034024881E+02 -0.11127249551E+02  0.47787284498E+02  0.20000061340E+02 0.  0.
         12    1    1    2    0    0 -0.12533286693E+02 -0.40034024881E+02  0.11127249551E+02  0.43400715502E+02  0.00000000000E+00 0. -1.
         11    1    3    3    0    0  0.10701229732E+01  0.21986952321E+01 -0.64491165865E+01  0.68971391829E+01  0.51100000000E-03 0. -1.
        -11    1    3    3    0    0  0.11578570608E+02  0.32650326289E+02 -0.67699995340E+01  0.35297875263E+02  0.51100000000E-03 0.  1.
         12    1    3    3    0    0 -0.11540688827E+00  0.51850033602E+01  0.20918665697E+01  0.55922700526E+01  0.00000000000E+00 0. -1.
</event>
<event>
 7    1  0.3851772E-009  0.4778728E+02  0.7816164E-02  0.1312668E+00
        -11   -1    0    0    0    0  0.00000000000E+00  0.00000000000E+00  0.45593999997E+02  0.45594000000E+02  0.51100000000E-03 0.  1.
         11   -1    0    0    0    0 -0.00000000000E+00 -0.00000000000E+00 -0.45593999997E+02  0.45594000000E+02  0.51100000000E-03 0. -1.
    9900012    2    1    2    0    0 -0.94823314466E+01  0.10194112348E+02  0.41107035015E+02  0.47787275767E+02  0.20000021531E+02 0.  0.
         12    1    1    2    0    0  0.94823314466E+01 -0.10194112348E+02 -0.41107035015E+02  0.43400724233E+02  0.00000000000E+00 0. -1.
         11    1    3    3    0    0  0.91126408904E+00  0.37703728244E+00 -0.69200313364E+00  0.12047522361E+01  0.51100000000E-03 0. -1.
        -11    1    3    3    0    0 -0.90994397637E+01 -0.89485590287E+00  0.24972316718E+02  0.26593555115E+02  0.51100000000E-03 0.  1.
        -12    1    3    3    0    0 -0.12941557720E+01  0.10711930968E+02  0.16826721431E+02  0.19988968416E+02  0.00000000000E+00 0.  1.
</event>
<event>
 7    1  0.3851772E-009  0.4778727E+02  0.7816164E-02  0.1312668E+00
        -11   -1    0    0    0    0  0.00000000000E+00  0.00000000000E+00  0.45593999997E+02  0.45594000000E+02  0.51100000000E-03 0.  1.
         11   -1    0    0    0    0 -0.00000000000E+00 -0.00000000000E+00 -0.45593999997E+02  0.45594000000E+02  0.51100000000E-03 0. -1.
    9900012    2    1    2    0    0  0.24828341791E+02 -0.30670115626E+02  0.18069884337E+02  0.47787271106E+02  0.20000000279E+02 0.  0.
         12    1    1    2    0    0 -0.24828341791E+02  0.30670115626E+02 -0.18069884337E+02  0.43400728894E+02  0.00000000000E+00 0. -1.
         11    1    3    3    0    0  0.39031841148E+00 -0.13121882784E+01 -0.12690541707E+01  0.18667311776E+01  0.51100000000E-03 0. -1.
        -11    1    3    3    0    0  0.25590360936E+02 -0.20794966500E+02  0.14545902112E+02  0.36039984366E+02  0.51100000000E-03 0.  1.
        -12    1    3    3    0    0 -0.11523375566E+01 -0.85629608477E+01  0.47930363960E+01  0.98805555622E+01  0.00000000000E+00 0.  1.
</event>
<event>
 7    1  0.3851772E-009  0.4778727E+02  0.7816164E-02  0.1312668E+00
        -11   -1    0    0    0    0  0.00000000000E+00  0.00000000000E+00  0.45593999997E+02  0.45594000000E+02  0.51100000000E-03 0.  1.
         11   -1    0    0    0    0 -0.00000000000E+00 -0.00000000000E+00 -0.45593999997E+02  0.45594000000E+02  0.51100000000E-03 0. -1.
    9900012    2    1    2    0    0 -0.31653980757E+02  0.28465729790E+02  0.84469532774E+01  0.47787270860E+02  0.19999999157E+02 0.  0.
         12    1    1    2    0    0  0.31653980757E+02 -0.28465729790E+02 -0.84469532774E+01  0.43400729140E+02  0.00000000000E+00 0. -1.
         11    1    3    3    0    0  0.52825789836E-01 -0.91513200038E+00  0.50131598170E+00  0.10447847227E+01  0.51100000000E-03 0. -1.
        -11    1    3    3    0    0 -0.45178339412E+01 -0.80244465841E+00  0.37061423492E+01  0.58983245353E+01  0.51100000000E-03 0.  1.
        -12    1    3    3    0    0 -0.27188972606E+02  0.30183306449E+02  0.42394949465E+01  0.40844161602E+02  0.00000000000E+00 0.  1.
</event>
<event>
 7    1  0.3851772E-009  0.4778729E+02  0.7816164E-02  0.1312668E+00
        -11   -1    0    0    0    0  0.00000000000E+00  0.00000000000E+00  0.45593999997E+02  0.45594000000E+02  0.51100000000E-03 0.  1.
         11   -1    0    0    0    0 -0.00000000000E+00 -0.00000000000E+00 -0.45593999997E+02  0.45594000000E+02  0.51100000000E-03 0. -1.
    9900012    2    1    2    0    0 -0.41449506611E+02  0.10914513834E+02  0.68142100876E+01  0.47787289526E+02  0.20000084265E+02 0.  0.
         12    1    1    2    0    0  0.41449506611E+02 -0.10914513834E+02 -0.68142100876E+01  0.43400710474E+02  0.00000000000E+00 0. -1.
         11    1    3    3    0    0 -0.10558936296E+02  0.97888933198E+01 -0.36163023858E+01  0.14845578848E+02  0.51100000000E-03 0. -1.
        -11    1    3    3    0    0 -0.29673385859E+02  0.20109763117E+01  0.99531914362E+01  0.31362714712E+02  0.51100000000E-03 0.  1.
         12    1    3    3    0    0 -0.12171844556E+01 -0.88535579788E+00  0.47732103712E+00  0.15789959659E+01  0.00000000000E+00 0. -1.
</event>
<event>
 7    1  0.3851772E-009  0.4778725E+02  0.7816164E-02  0.1312668E+00
        -11   -1    0    0    0    0  0.00000000000E+00  0.00000000000E+00  0.45593999997E+02  0.45594000000E+02  0.51100000000E-03 0.  1.
         11   -1    0    0    0    0 -0.00000000000E+00 -0.00000000000E+00 -0.45593999997E+02  0.45594000000E+02  0.51100000000E-03 0. -1.
    9900012    2    1    2    0    0 -0.42738709595E+02  0.66758843639E+01  0.35298910666E+01  0.47787252762E+02  0.19999916642E+02 0.  0.
         12    1    1    2    0    0  0.42738709595E+02 -0.66758843639E+01 -0.35298910666E+01  0.43400747238E+02  0.00000000000E+00 0. -1.
         11    1    3    3    0    0 -0.13576421028E+02 -0.36903683656E+01  0.60673207943E+01  0.15321566777E+02  0.51100000000E-03 0. -1.
        -11    1    3    3    0    0 -0.50428240504E+01  0.59443960859E+01 -0.13837591704E+01  0.79171149374E+01  0.51100000000E-03 0.  1.
        -12    1    3    3    0    0 -0.24119464516E+02  0.44218566436E+01 -0.11536705574E+01  0.24548571048E+02  0.00000000000E+00 0.  1.
</event>
<event>
 7    1  0.3851772E-009  0.4778727E+02  0.7816164E-02  0.1312668E+00
        -11   -1    0    0    0    0  0.00000000000E+00  0.00000000000E+00  0.45593999997E+02  0.45594000000E+02  0.51100000000E-03 0.  1.
         11   -1    0    0    0    0 -0.00000000000E+00 -0.00000000000E+00 -0.45593999997E+02  0.45594000000E+02  0.51100000000E-03 0. -1.
    9900012    2    1    2    0    0  0.55927796640E+01  0.42939790756E+02 -0.29185916657E+01  0.47787274294E+02  0.20000014815E+02 0.  0.
         12    1    1    2    0    0 -0.55927796640E+01 -0.42939790756E+02  0.29185916657E+01  0.43400725706E+02  0.00000000000E+00 0. -1.
         11    1    3    3    0    0 -0.31505334386E+01  0.13138076021E+02 -0.56758723746E+01  0.14654365560E+02  0.51100000000E-03 0. -1.
        -11    1    3    3    0    0  0.10317140274E+02  0.20902489470E+02  0.49580431276E+01  0.23831484246E+02  0.51100000000E-03 0.  1.
        -12    1    3    3    0    0 -0.15738271713E+01  0.88992252649E+01 -0.22007624187E+01  0.93014244879E+01  0.00000000000E+00 0.  1.
</event>
<event>
 7    1  0.3851772E-009  0.4778728E+02  0.7816164E-02  0.1312668E+00
        -11   -1    0    0    0    0  0.00000000000E+00  0.00000000000E+00  0.45593999997E+02  0.45594000000E+02  0.51100000000E-03 0.  1.
         11   -1    0    0    0    0 -0.00000000000E+00 -0.00000000000E+00 -0.45593999997E+02  0.45594000000E+02  0.51100000000E-03 0. -1.
    9900012    2    1    2    0    0  0.26602190477E+02  0.29284077361E+02  0.17843463116E+02  0.47787275340E+02  0.20000019586E+02 0.  0.
         12    1    1    2    0    0 -0.26602190477E+02 -0.29284077361E+02 -0.17843463116E+02  0.43400724660E+02  0.00000000000E+00 0. -1.
         11    1    3    3    0    0  0.15177682722E+02  0.83955448251E+01  0.16027328039E+02  0.23616148502E+02  0.51100000000E-03 0. -1.
        -11    1    3    3    0    0  0.27758440460E+01  0.29945026754E+01  0.13171477627E+01  0.42903653610E+01  0.51100000000E-03 0.  1.
         12    1    3    3    0    0  0.86486637087E+01  0.17894029860E+02  0.49898731410E+00  0.19880761477E+02  0.00000000000E+00 0. -1.
</event>
<event>
 7    1  0.3851772E-009  0.4778727E+02  0.7816164E-02  0.1312668E+00
        -11   -1    0    0    0    0  0.00000000000E+00  0.00000000000E+00  0.45593999997E+02  0.45594000000E+02  0.51100000000E-03 0.  1.
         11   -1    0    0    0    0 -0.00000000000E+00 -0.00000000000E+00 -0.45593999997E+02  0.45594000000E+02  0.51100000000E-03 0. -1.
    9900012    2    1    2    0    0 -0.40720765340E+02 -0.51271495222E+01  0.14112225825E+02  0.47787270630E+02  0.19999998109E+02 0.  0.
         12    1    1    2    0    0  0.40720765340E+02  0.51271495222E+01 -0.14112225825E+02  0.43400729370E+02  0.00000000000E+00 0. -1.
         11    1    3    3    0    0 -0.20887089139E+02 -0.19322643577E+01  0.13936306859E+02  0.25183819953E+02  0.51100000000E-03 0. -1.
        -11    1    3    3    0    0 -0.76932615161E+01 -0.55380015548E+01 -0.28034588204E+01  0.98850956290E+01  0.51100000000E-03 0.  1.
        -12    1    3    3    0    0 -0.12140414685E+02  0.23431163902E+01  0.29793777857E+01  0.12718355048E+02  0.00000000000E+00 0.  1.
</event>
<event>
 7    1  0.3851772E-009  0.4778726E+02  0.7816164E-02  0.1312668E+00
        -11   -1    0    0    0    0  0.00000000000E+00  0.00000000000E+00  0.45593999997E+02  0.45594000000E+02  0.51100000000E-03 0. -1.
         11   -1    0    0    0    0 -0.00000000000E+00 -0.00000000000E+00 -0.45593999997E+02  0.45594000000E+02  0.51100000000E-03 0.  1.
    9900012    2    1    2    0    0 -0.10849812719E+02  0.37342749014E+02 -0.19272380063E+02  0.47787262987E+02  0.19999963265E+02 0.  0.
         12    1    1    2    0    0  0.10849812719E+02 -0.37342749014E+02  0.19272380063E+02  0.43400737013E+02  0.00000000000E+00 0. -1.
         11    1    3    3    0    0 -0.33166623679E+01  0.47036237085E+01  0.91707489352E+00  0.58279800853E+01  0.51100000000E-03 0. -1.
        -11    1    3    3    0    0  0.45135039304E+01  0.67102573447E+01 -0.57989942559E+01  0.99512615282E+01  0.51100000000E-03 0.  1.
        -12    1    3    3    0    0 -0.12046654281E+02  0.25928867961E+02 -0.14390460701E+02  0.32008021374E+02  0.00000000000E+00 0.  1.
</event>
<event>
 7    1  0.3851772E-009  0.4778727E+02  0.7816164E-02  0.1312668E+00
        -11   -1    0    0    0    0  0.00000000000E+00  0.00000000000E+00  0.45593999997E+02  0.45594000000E+02  0.51100000000E-03 0.  1.
         11   -1    0    0    0    0 -0.00000000000E+00 -0.00000000000E+00 -0.45593999997E+02  0.45594000000E+02  0.51100000000E-03 0. -1.
    9900012    2    1    2    0    0  0.32135907066E+02 -0.13417986818E+02  0.25901051818E+02  0.47787269840E+02  0.19999994507E+02 0.  0.
         12    1    1    2    0    0 -0.32135907066E+02  0.13417986818E+02 -0.25901051818E+02  0.43400730160E+02  0.00000000000E+00 0. -1.
         11    1    3    3    0    0  0.10464752563E+02 -0.65861718814E+00  0.24332397959E+01  0.10764082821E+02  0.51100000000E-03 0. -1.
        -11    1    3    3    0    0  0.12484382935E+02 -0.12077539914E+02  0.21434866033E+02  0.27589495642E+02  0.51100000000E-03 0.  1.
        -12    1    3    3    0    0  0.91867715680E+01 -0.68182971557E+00  0.20329459885E+01  0.94336913770E+01  0.00000000000E+00 0.  1.
</event>
<event>
 7    1  0.3851772E-009  0.4778727E+02  0.7816164E-02  0.1312668E+00
        -11   -1    0    0    0    0  0.00000000000E+00  0.00000000000E+00  0.45593999997E+02  0.45594000000E+02  0.51100000000E-03 0.  1.
         11   -1    0    0    0    0 -0.00000000000E+00 -0.00000000000E+00 -0.45593999997E+02  0.45594000000E+02  0.51100000000E-03 0. -1.
    9900012    2    1    2    0    0 -0.35639093026E+02  0.18967769568E+02  0.15928028301E+02  0.47787270517E+02  0.19999997594E+02 0.  0.
         12    1    1    2    0    0  0.35639093026E+02 -0.18967769568E+02 -0.15928028301E+02  0.43400729483E+02  0.00000000000E+00 0. -1.
         11    1    3    3    0    0 -0.31821865773E+01 -0.27264298586E+01  0.24476861048E+01  0.48529268195E+01  0.51100000000E-03 0. -1.
        -11    1    3    3    0    0 -0.28823369571E+02  0.14408486646E+02  0.13096612132E+02  0.34783794653E+02  0.51100000000E-03 0.  1.
         12    1    3    3    0    0 -0.36335368781E+01  0.72857127805E+01  0.38373006388E+00  0.81505490444E+01  0.00000000000E+00 0. -1.
</event>
<event>
 7    1  0.3851772E-009  0.4778727E+02  0.7816164E-02  0.1312668E+00
        -11   -1    0    0    0    0  0.00000000000E+00  0.00000000000E+00  0.45593999997E+02  0.45594000000E+02  0.51100000000E-03 0. -1.
         11   -1    0    0    0    0 -0.00000000000E+00 -0.00000000000E+00 -0.45593999997E+02  0.45594000000E+02  0.51100000000E-03 0.  1.
    9900012    2    1    2    0    0  0.42548466870E+02 -0.75104175803E+01  0.41042842756E+01  0.47787267810E+02  0.19999985254E+02 0.  0.
         12    1    1    2    0    0 -0.42548466870E+02  0.75104175803E+01 -0.41042842756E+01  0.43400732190E+02  0.00000000000E+00 0. -1.
         11    1    3    3    0    0  0.15774539396E+02 -0.11379253734E+02  0.71376633274E+00  0.19463632018E+02  0.51100000000E-03 0. -1.
        -11    1    3    3    0    0  0.14594919065E+02 -0.23179513054E-01 -0.14177603745E+01  0.14663636812E+02  0.51100000000E-03 0.  1.
         12    1    3    3    0    0  0.12179008408E+02  0.38920156666E+01  0.48082783173E+01  0.13659998980E+02  0.00000000000E+00 0. -1.
</event>
<event>
 7    1  0.3851772E-009  0.4778730E+02  0.7816164E-02  0.1312668E+00
        -11   -1    0    0    0    0  0.00000000000E+00  0.00000000000E+00  0.45593999997E+02  0.45594000000E+02  0.51100000000E-03 0.  1.
         11   -1    0    0    0    0 -0.00000000000E+00 -0.00000000000E+00 -0.45593999997E+02  0.45594000000E+02  0.51100000000E-03 0. -1.
    9900012    2    1    2    0    0 -0.30974943497E+02  0.10677309484E+02  0.28463467247E+02  0.47787296893E+02  0.20000117853E+02 0.  0.
         12    1    1    2    0    0  0.30974943497E+02 -0.10677309484E+02 -0.28463467247E+02  0.43400703107E+02  0.00000000000E+00 0. -1.
         11    1    3    3    0    0 -0.13219115620E+02 -0.81404143440E-01  0.20142369633E+02  0.24092876522E+02  0.51100000000E-03 0. -1.
        -11    1    3    3    0    0 -0.97794367749E+01  0.27984920223E+01  0.92231699420E+00  0.10213697182E+02  0.51100000000E-03 0.  1.
        -12    1    3    3    0    0 -0.79763911026E+01  0.79602216054E+01  0.73987806199E+01  0.13480723189E+02  0.00000000000E+00 0.  1.
</event>
<event>
 7    1  0.3851772E-009  0.4778727E+02  0.7816164E-02  0.1312668E+00
        -11   -1    0    0    0    0  0.00000000000E+00  0.00000000000E+00  0.45593999997E+02  0.45594000000E+02  0.51100000000E-03 0.  1.
         11   -1    0    0    0    0 -0.00000000000E+00 -0.00000000000E+00 -0.45593999997E+02  0.45594000000E+02  0.51100000000E-03 0. -1.
    9900012    2    1    2    0    0 -0.71603926699E+01 -0.25212681272E+02  0.34592954232E+02  0.47787274170E+02  0.20000014248E+02 0.  0.
         12    1    1    2    0    0  0.71603926699E+01  0.25212681272E+02 -0.34592954232E+02  0.43400725830E+02  0.00000000000E+00 0. -1.
         11    1    3    3    0    0  0.53548733614E+01 -0.47649255866E+01  0.10159305427E+02  0.12433449706E+02  0.51100000000E-03 0. -1.
        -11    1    3    3    0    0 -0.58483099015E+01 -0.17019110121E+02  0.18318365204E+02  0.25679083745E+02  0.51100000000E-03 0.  1.
         12    1    3    3    0    0 -0.66669561298E+01 -0.34286455650E+01  0.61152836010E+01  0.96747407183E+01  0.00000000000E+00 0. -1.
</event>
<event>
 7    1  0.3851772E-009  0.4778726E+02  0.7816164E-02  0.1312668E+00
        -11   -1    0    0    0    0  0.00000000000E+00  0.00000000000E+00  0.45593999997E+02  0.45594000000E+02  0.51100000000E-03 0. -1.
         11   -1    0    0    0    0 -0.00000000000E+00 -0.00000000000E+00 -0.45593999997E+02  0.45594000000E+02  0.51100000000E-03 0.  1.
    9900012    2    1    2    0    0  0.39834437246E+02  0.68047581050E+00 -0.17215653909E+02  0.47787260634E+02  0.19999952533E+02 0.  0.
         12    1    1    2    0    0 -0.39834437246E+02 -0.68047581050E+00  0.17215653909E+02  0.43400739366E+02  0.00000000000E+00 0. -1.
         11    1    3    3    0    0  0.66728161211E+01 -0.51589330514E+01 -0.11556864634E+01  0.85133234802E+01  0.51100000000E-03 0. -1.
        -11    1    3    3    0    0  0.22166211073E+02  0.90228595709E+01 -0.78486677276E+01  0.25186395008E+02  0.51100000000E-03 0.  1.
        -12    1    3    3    0    0  0.10995410052E+02 -0.31834507091E+01 -0.82112997177E+01  0.14087542145E+02  0.00000000000E+00 0.  1.
</event>
<event>
 7    1  0.3851772E-009  0.4778727E+02  0.7816164E-02  0.1312668E+00
        -11   -1    0    0    0    0  0.00000000000E+00  0.00000000000E+00  0.45593999997E+02  0.45594000000E+02  0.51100000000E-03 0.  1.
         11   -1    0    0    0    0 -0.00000000000E+00 -0.00000000000E+00 -0.45593999997E+02  0.45594000000E+02  0.51100000000E-03 0. -1.
    9900012    2    1    2    0    0 -0.91386630365E+01  0.23178945778E+02  0.35536529966E+02  0.47787266694E+02  0.19999980166E+02 0.  0.
         12    1    1    2    0    0  0.91386630365E+01 -0.23178945778E+02 -0.35536529966E+02  0.43400733306E+02  0.00000000000E+00 0. -1.
         11    1    3    3    0    0 -0.11029495898E+02  0.56630010962E+01  0.11014618105E+02  0.16584365331E+02  0.51100000000E-03 0. -1.
        -11    1    3    3    0    0  0.18713938938E+01  0.10212209056E+02  0.20211279779E+02  0.22721953250E+02  0.51100000000E-03 0.  1.
         12    1    3    3    0    0  0.19438967491E-01  0.73037356253E+01  0.43106320819E+01  0.84809481134E+01  0.00000000000E+00 0. -1.
</event>
<event>
 7    1  0.3851772E-009  0.4778727E+02  0.7816164E-02  0.1312668E+00
        -11   -1    0    0    0    0  0.00000000000E+00  0.00000000000E+00  0.45593999997E+02  0.45594000000E+02  0.51100000000E-03 0. -1.
         11   -1    0    0    0    0 -0.00000000000E+00 -0.00000000000E+00 -0.45593999997E+02  0.45594000000E+02  0.51100000000E-03 0.  1.
    9900012    2    1    2    0    0  0.44937999832E+01  0.37330891885E+02  0.21675646484E+02  0.47787269848E+02  0.19999994543E+02 0.  0.
         12    1    1    2    0    0 -0.44937999832E+01 -0.37330891885E+02 -0.21675646484E+02  0.43400730152E+02  0.00000000000E+00 0. -1.
         11    1    3    3    0    0  0.63625281302E+01  0.54607434271E+01  0.44695484757E+01  0.95014918209E+01  0.51100000000E-03 0.  1.
        -11    1    3    3    0    0 -0.14948372808E+01  0.31053141046E+02  0.18889348682E+02  0.36377734966E+02  0.51100000000E-03 0. -1.
         12    1    3    3    0    0 -0.37389086628E+00  0.81700741224E+00 -0.16832506740E+01  0.19080430611E+01  0.00000000000E+00 0. -1.
</event>
<event>
 7    1  0.3851772E-009  0.4778727E+02  0.7816164E-02  0.1312668E+00
        -11   -1    0    0    0    0  0.00000000000E+00  0.00000000000E+00  0.45593999997E+02  0.45594000000E+02  0.51100000000E-03 0. -1.
         11   -1    0    0    0    0 -0.00000000000E+00 -0.00000000000E+00 -0.45593999997E+02  0.45594000000E+02  0.51100000000E-03 0.  1.
    9900012    2    1    2    0    0 -0.41809125666E+02 -0.48250778271E+01 -0.10599004317E+02  0.47787271233E+02  0.20000000862E+02 0.  0.
         12    1    1    2    0    0  0.41809125666E+02  0.48250778271E+01  0.10599004317E+02  0.43400728767E+02  0.00000000000E+00 0. -1.
         11    1    3    3    0    0 -0.31791744750E+02 -0.50443844877E+01 -0.34383414929E+01  0.32372566188E+02  0.51100000000E-03 0.  1.
        -11    1    3    3    0    0 -0.79796617035E+01 -0.53350078217E-01 -0.15710332651E-01  0.79798555256E+01  0.51100000000E-03 0. -1.
         12    1    3    3    0    0 -0.20377192122E+01  0.27265673881E+00 -0.71449524912E+01  0.74348495201E+01  0.00000000000E+00 0. -1.
</event>
<event>
 7    1  0.3851772E-009  0.4778727E+02  0.7816164E-02  0.1312668E+00
        -11   -1    0    0    0    0  0.00000000000E+00  0.00000000000E+00  0.45593999997E+02  0.45594000000E+02  0.51100000000E-03 0. -1.
         11   -1    0    0    0    0 -0.00000000000E+00 -0.00000000000E+00 -0.45593999997E+02  0.45594000000E+02  0.51100000000E-03 0.  1.
    9900012    2    1    2    0    0  0.23943349018E+02  0.16617085057E+02 -0.32159162925E+02  0.47787271457E+02  0.20000001882E+02 0.  0.
         12    1    1    2    0    0 -0.23943349018E+02 -0.16617085057E+02  0.32159162925E+02  0.43400728543E+02  0.00000000000E+00 0. -1.
         11    1    3    3    0    0  0.10037919976E+02  0.12384657835E+02 -0.81642779087E+01  0.17910751552E+02  0.51100000000E-03 0.  1.
        -11    1    3    3    0    0  0.37266879241E+01 -0.26791051718E+01 -0.11306132420E+02  0.12202230860E+02  0.51100000000E-03 0. -1.
        -12    1    3    3    0    0  0.10178741118E+02  0.69115323936E+01 -0.12688752596E+02  0.17674289044E+02  0.00000000000E+00 0.  1.
</event>
<event>
 7    1  0.3851772E-009  0.4778727E+02  0.7816164E-02  0.1312668E+00
        -11   -1    0    0    0    0  0.00000000000E+00  0.00000000000E+00  0.45593999997E+02  0.45594000000E+02  0.51100000000E-03 0.  1.
         11   -1    0    0    0    0 -0.00000000000E+00 -0.00000000000E+00 -0.45593999997E+02  0.45594000000E+02  0.51100000000E-03 0. -1.
    9900012    2    1    2    0    0 -0.27709850475E+02  0.33398125685E+02  0.59378345888E+00  0.47787271995E+02  0.20000004333E+02 0.  0.
         12    1    1    2    0    0  0.27709850475E+02 -0.33398125685E+02 -0.59378345888E+00  0.43400728005E+02  0.00000000000E+00 0. -1.
         11    1    3    3    0    0 -0.21812380770E+02  0.23223386567E+02  0.31088272689E+01  0.32012035951E+02  0.51100000000E-03 0. -1.
        -11    1    3    3    0    0 -0.87370681712E+01  0.88525604312E+01 -0.21353325148E+01  0.12619977481E+02  0.51100000000E-03 0.  1.
         12    1    3    3    0    0  0.28395984663E+01  0.13221786868E+01 -0.37971129523E+00  0.31552585626E+01  0.00000000000E+00 0. -1.
</event>
<event>
 7    1  0.3851772E-009  0.4778727E+02  0.7816164E-02  0.1312668E+00
        -11   -1    0    0    0    0  0.00000000000E+00  0.00000000000E+00  0.45593999997E+02  0.45594000000E+02  0.51100000000E-03 0.  1.
         11   -1    0    0    0    0 -0.00000000000E+00 -0.00000000000E+00 -0.45593999997E+02  0.45594000000E+02  0.51100000000E-03 0. -1.
    9900012    2    1    2    0    0 -0.62382274638E+01  0.92184593399E+01  0.41949109753E+02  0.47787270933E+02  0.19999999492E+02 0.  0.
         12    1    1    2    0    0  0.62382274638E+01 -0.92184593399E+01 -0.41949109753E+02  0.43400729067E+02  0.00000000000E+00 0. -1.
         11    1    3    3    0    0 -0.11357592943E+02  0.58187672970E+01  0.30430112460E+02  0.32997647112E+02  0.51100000000E-03 0.  1.
        -11    1    3    3    0    0 -0.79724683507E+00  0.12050475575E+01  0.66877677156E+01  0.68420742038E+01  0.51100000000E-03 0. -1.
         12    1    3    3    0    0  0.59166123140E+01  0.21946444854E+01  0.48312295769E+01  0.79475496171E+01  0.00000000000E+00 0. -1.
</event>
<event>
 7    1  0.3851772E-009  0.4778728E+02  0.7816164E-02  0.1312668E+00
        -11   -1    0    0    0    0  0.00000000000E+00  0.00000000000E+00  0.45593999997E+02  0.45594000000E+02  0.51100000000E-03 0. -1.
         11   -1    0    0    0    0 -0.00000000000E+00 -0.00000000000E+00 -0.45593999997E+02  0.45594000000E+02  0.51100000000E-03 0.  1.
    9900012    2    1    2    0    0  0.10931350647E+01  0.35571518640E+02 -0.24841380890E+02  0.47787284716E+02  0.20000062335E+02 0.  0.
         12    1    1    2    0    0 -0.10931350647E+01 -0.35571518640E+02  0.24841380890E+02  0.43400715284E+02  0.00000000000E+00 0. -1.
         11    1    3    3    0    0  0.57967572569E+01  0.13952237500E+01 -0.60814910519E+01  0.85166647041E+01  0.51100000000E-03 0. -1.
        -11    1    3    3    0    0 -0.39597301679E+01  0.28200507108E+02 -0.15593350097E+02  0.32466915955E+02  0.51100000000E-03 0.  1.
         12    1    3    3    0    0 -0.74389202428E+00  0.59757877820E+01 -0.31665397409E+01  0.68037040566E+01  0.00000000000E+00 0. -1.
</event>
<event>
 7    1  0.3851772E-009  0.4778727E+02  0.7816164E-02  0.1312668E+00
        -11   -1    0    0    0    0  0.00000000000E+00  0.00000000000E+00  0.45593999997E+02  0.45594000000E+02  0.51100000000E-03 0.  1.
         11   -1    0    0    0    0 -0.00000000000E+00 -0.00000000000E+00 -0.45593999997E+02  0.45594000000E+02  0.51100000000E-03 0. -1.
    9900012    2    1    2    0    0  0.26675719613E+02 -0.17160124841E+01  0.34191877115E+02  0.47787272168E+02  0.20000005123E+02 0.  0.
         12    1    1    2    0    0 -0.26675719613E+02  0.17160124841E+01 -0.34191877115E+02  0.43400727832E+02  0.00000000000E+00 0. -1.
         11    1    3    3    0    0  0.23425570759E+01  0.42111325759E+01  0.18386512239E+00  0.48223456813E+01  0.51100000000E-03 0. -1.
        -11    1    3    3    0    0  0.21983650479E+02 -0.77042458549E+01  0.30658013467E+02  0.38503896979E+02  0.51100000000E-03 0.  1.
        -12    1    3    3    0    0  0.23495120580E+01  0.17771007949E+01  0.33499985251E+01  0.44610295072E+01  0.00000000000E+00 0.  1.
</event>
<event>
 7    1  0.3851772E-009  0.4778728E+02  0.7816164E-02  0.1312668E+00
        -11   -1    0    0    0    0  0.00000000000E+00  0.00000000000E+00  0.45593999997E+02  0.45594000000E+02  0.51100000000E-03 0.  1.
         11   -1    0    0    0    0 -0.00000000000E+00 -0.00000000000E+00 -0.45593999997E+02  0.45594000000E+02  0.51100000000E-03 0. -1.
    9900012    2    1    2    0    0  0.59766262768E+01 -0.20555695356E+02  0.37754018954E+02  0.47787278572E+02  0.20000034323E+02 0.  0.
         12    1    1    2    0    0 -0.59766262768E+01  0.20555695356E+02 -0.37754018954E+02  0.43400721428E+02  0.00000000000E+00 0. -1.
         11    1    3    3    0    0 -0.18600311919E+01  0.28708279334E+00  0.21401233502E+01  0.28499580313E+01  0.51100000000E-03 0. -1.
        -11    1    3    3    0    0  0.14572074961E+01 -0.14272961987E+02  0.93555667612E+01  0.17127974990E+02  0.51100000000E-03 0.  1.
        -12    1    3    3    0    0  0.63794499727E+01 -0.65698161626E+01  0.26258328843E+02  0.27809345551E+02  0.00000000000E+00 0.  1.
</event>
<event>
 7    1  0.3851772E-009  0.4778727E+02  0.7816164E-02  0.1312668E+00
        -11   -1    0    0    0    0  0.00000000000E+00  0.00000000000E+00  0.45593999997E+02  0.45594000000E+02  0.51100000000E-03 0.  1.
         11   -1    0    0    0    0 -0.00000000000E+00 -0.00000000000E+00 -0.45593999997E+02  0.45594000000E+02  0.51100000000E-03 0. -1.
    9900012    2    1    2    0    0  0.34691129321E+02 -0.25844276827E+02  0.34960225150E+01  0.47787271070E+02  0.20000000115E+02 0.  0.
         12    1    1    2    0    0 -0.34691129321E+02  0.25844276827E+02 -0.34960225150E+01  0.43400728930E+02  0.00000000000E+00 0. -1.
         11    1    3    3    0    0  0.60108113987E+01 -0.35811714422E+01  0.41894545835E+01  0.81551316689E+01  0.51100000000E-03 0. -1.
        -11    1    3    3    0    0  0.29742025637E+02 -0.20091718504E+02  0.20807894666E+01  0.35952676208E+02  0.51100000000E-03 0.  1.
        -12    1    3    3    0    0 -0.10617077154E+01 -0.21713868814E+01 -0.27742215351E+01  0.36794631929E+01  0.00000000000E+00 0.  1.
</event>
<event>
 7    1  0.3851772E-009  0.4778727E+02  0.7816164E-02  0.1312668E+00
        -11   -1    0    0    0    0  0.00000000000E+00  0.00000000000E+00  0.45593999997E+02  0.45594000000E+02  0.51100000000E-03 0.  1.
         11   -1    0    0    0    0 -0.00000000000E+00 -0.00000000000E+00 -0.45593999997E+02  0.45594000000E+02  0.51100000000E-03 0. -1.
    9900012    2    1    2    0    0 -0.36017531761E+02  0.23662474029E+02 -0.51427791106E+01  0.47787269035E+02  0.19999990838E+02 0.  0.
         12    1    1    2    0    0  0.36017531761E+02 -0.23662474029E+02  0.51427791106E+01  0.43400730965E+02  0.00000000000E+00 0. -1.
         11    1    3    3    0    0 -0.26740192048E+02  0.15042443314E+02 -0.82327544465E+01  0.31766196147E+02  0.51100000000E-03 0. -1.
        -11    1    3    3    0    0  0.13055957069E+01 -0.62177241407E+00 -0.48125347115E+00  0.15240689779E+01  0.51100000000E-03 0.  1.
         12    1    3    3    0    0 -0.10582935420E+02  0.92418031286E+01  0.35712288071E+01  0.14497003910E+02  0.00000000000E+00 0. -1.
</event>
<event>
 7    1  0.3851772E-009  0.4778725E+02  0.7816164E-02  0.1312668E+00
        -11   -1    0    0    0    0  0.00000000000E+00  0.00000000000E+00  0.45593999997E+02  0.45594000000E+02  0.51100000000E-03 0. -1.
         11   -1    0    0    0    0 -0.00000000000E+00 -0.00000000000E+00 -0.45593999997E+02  0.45594000000E+02  0.51100000000E-03 0.  1.
    9900012    2    1    2    0    0  0.23239220342E+02  0.26629923001E+02 -0.25187516046E+02  0.47787249710E+02  0.19999902726E+02 0.  0.
         12    1    1    2    0    0 -0.23239220342E+02 -0.26629923001E+02  0.25187516046E+02  0.43400750290E+02  0.00000000000E+00 0. -1.
         11    1    3    3    0    0  0.82814316483E+01  0.26385518846E+01 -0.16016454143E+01  0.88379485452E+01  0.51100000000E-03 0. -1.
        -11    1    3    3    0    0  0.10173202253E+02  0.16234124882E+02 -0.22830548094E+02  0.29803939023E+02  0.51100000000E-03 0.  1.
        -12    1    3    3    0    0  0.47845864409E+01  0.77572462347E+01 -0.75532253810E+00  0.91453621412E+01  0.00000000000E+00 0.  1.
</event>
<event>
 7    1  0.3851772E-009  0.4778727E+02  0.7816164E-02  0.1312668E+00
        -11   -1    0    0    0    0  0.00000000000E+00  0.00000000000E+00  0.45593999997E+02  0.45594000000E+02  0.51100000000E-03 0.  1.
         11   -1    0    0    0    0 -0.00000000000E+00 -0.00000000000E+00 -0.45593999997E+02  0.45594000000E+02  0.51100000000E-03 0. -1.
    9900012    2    1    2    0    0  0.40087161436E+02  0.13853915391E+02  0.92039027235E+01  0.47787270640E+02  0.19999998154E+02 0.  0.
         12    1    1    2    0    0 -0.40087161436E+02 -0.13853915391E+02 -0.92039027235E+01  0.43400729360E+02  0.00000000000E+00 0. -1.
         11    1    3    3    0    0  0.10626324594E+02  0.10020353595E+02  0.96181911555E+01  0.17488163480E+02  0.51100000000E-03 0. -1.
        -11    1    3    3    0    0  0.27921075801E+02  0.25633903070E+01  0.63167173197E+00  0.28045613796E+02  0.51100000000E-03 0.  1.
        -12    1    3    3    0    0  0.15397610415E+01  0.12701714882E+01 -0.10459601639E+01  0.22534933634E+01  0.00000000000E+00 0.  1.
</event>
<event>
 7    1  0.3851772E-009  0.4778727E+02  0.7816164E-02  0.1312668E+00
        -11   -1    0    0    0    0  0.00000000000E+00  0.00000000000E+00  0.45593999997E+02  0.45594000000E+02  0.51100000000E-03 0.  1.
         11   -1    0    0    0    0 -0.00000000000E+00 -0.00000000000E+00 -0.45593999997E+02  0.45594000000E+02  0.51100000000E-03 0. -1.
    9900012    2    1    2    0    0 -0.19519878636E+02  0.25838022044E+02  0.28896271593E+02  0.47787267781E+02  0.19999985122E+02 0.  0.
         12    1    1    2    0    0  0.19519878636E+02 -0.25838022044E+02 -0.28896271593E+02  0.43400732219E+02  0.00000000000E+00 0. -1.
         11    1    3    3    0    0 -0.11664735417E+02  0.21700606188E+02  0.10220538938E+02  0.26672865945E+02  0.51100000000E-03 0. -1.
        -11    1    3    3    0    0 -0.63272016932E+01  0.15966843400E+01  0.99519953828E+01  0.11900634206E+02  0.51100000000E-03 0.  1.
         12    1    3    3    0    0 -0.15279415263E+01  0.25407315164E+01  0.87237372726E+01  0.92137676304E+01  0.00000000000E+00 0. -1.
</event>
<event>
 7    1  0.3851772E-009  0.4778727E+02  0.7816164E-02  0.1312668E+00
        -11   -1    0    0    0    0  0.00000000000E+00  0.00000000000E+00  0.45593999997E+02  0.45594000000E+02  0.51100000000E-03 0.  1.
         11   -1    0    0    0    0 -0.00000000000E+00 -0.00000000000E+00 -0.45593999997E+02  0.45594000000E+02  0.51100000000E-03 0. -1.
    9900012    2    1    2    0    0 -0.15145638844E+02  0.40092371367E+02 -0.68435771211E+01  0.47787272292E+02  0.20000005686E+02 0.  0.
         12    1    1    2    0    0  0.15145638844E+02 -0.40092371367E+02  0.68435771211E+01  0.43400727708E+02  0.00000000000E+00 0. -1.
         11    1    3    3    0    0 -0.31954665444E+01  0.10633083021E+02 -0.82122833084E+01  0.13809962287E+02  0.51100000000E-03 0. -1.
        -11    1    3    3    0    0 -0.10636990666E+02  0.22231598206E+02  0.59059540306E+01  0.25343042882E+02  0.51100000000E-03 0.  1.
        -12    1    3    3    0    0 -0.13131816331E+01  0.72276901395E+01 -0.45372478433E+01  0.86342671226E+01  0.00000000000E+00 0.  1.
</event>
<event>
 7    1  0.3851772E-009  0.4778728E+02  0.7816164E-02  0.1312668E+00
        -11   -1    0    0    0    0  0.00000000000E+00  0.00000000000E+00  0.45593999997E+02  0.45594000000E+02  0.51100000000E-03 0. -1.
         11   -1    0    0    0    0 -0.00000000000E+00 -0.00000000000E+00 -0.45593999997E+02  0.45594000000E+02  0.51100000000E-03 0.  1.
    9900012    2    1    2    0    0 -0.14504330780E+02  0.26049136826E+02 -0.31538697243E+02  0.47787279216E+02  0.20000037257E+02 0.  0.
         12    1    1    2    0    0  0.14504330780E+02 -0.26049136826E+02  0.31538697243E+02  0.43400720784E+02  0.00000000000E+00 0. -1.
         11    1    3    3    0    0 -0.10604190058E+01  0.15105958284E+01 -0.82603761516E+01  0.84640535591E+01  0.51100000000E-03 0. -1.
        -11    1    3    3    0    0 -0.91128316910E+01  0.19949252027E+02 -0.89892407312E+01  0.23702801671E+02  0.51100000000E-03 0.  1.
        -12    1    3    3    0    0 -0.43310800830E+01  0.45892889708E+01 -0.14289080361E+02  0.15620423986E+02  0.00000000000E+00 0.  1.
</event>
<event>
 7    1  0.3851772E-009  0.4778727E+02  0.7816164E-02  0.1312668E+00
        -11   -1    0    0    0    0  0.00000000000E+00  0.00000000000E+00  0.45593999997E+02  0.45594000000E+02  0.51100000000E-03 0.  1.
         11   -1    0    0    0    0 -0.00000000000E+00 -0.00000000000E+00 -0.45593999997E+02  0.45594000000E+02  0.51100000000E-03 0. -1.
    9900012    2    1    2    0    0 -0.28375317284E+02  0.25212577078E+02  0.21042587180E+02  0.47787272482E+02  0.20000006554E+02 0.  0.
         12    1    1    2    0    0  0.28375317284E+02 -0.25212577078E+02 -0.21042587180E+02  0.43400727518E+02  0.00000000000E+00 0. -1.
         11    1    3    3    0    0 -0.51898597961E+00  0.33881660483E+01 -0.21564714518E+01  0.40496154140E+01  0.51100000000E-03 0. -1.
        -11    1    3    3    0    0 -0.79647179308E+01  0.70634537192E+01  0.13365331923E+02  0.17086872383E+02  0.51100000000E-03 0.  1.
         12    1    3    3    0    0 -0.19891613373E+02  0.14760957311E+02  0.98337267088E+01  0.26650784684E+02  0.00000000000E+00 0. -1.
</event>
<event>
 7    1  0.3851772E-009  0.4778728E+02  0.7816164E-02  0.1312668E+00
        -11   -1    0    0    0    0  0.00000000000E+00  0.00000000000E+00  0.45593999997E+02  0.45594000000E+02  0.51100000000E-03 0.  1.
         11   -1    0    0    0    0 -0.00000000000E+00 -0.00000000000E+00 -0.45593999997E+02  0.45594000000E+02  0.51100000000E-03 0. -1.
    9900012    2    1    2    0    0 -0.29542061995E+02  0.13553533667E+02  0.28760931183E+02  0.47787275763E+02  0.20000021513E+02 0.  0.
         12    1    1    2    0    0  0.29542061995E+02 -0.13553533667E+02 -0.28760931183E+02  0.43400724237E+02  0.00000000000E+00 0. -1.
         11    1    3    3    0    0 -0.81404384921E+01 -0.29302713889E+01  0.25473518276E+01  0.90189927848E+01  0.51100000000E-03 0. -1.
        -11    1    3    3    0    0 -0.89862363458E+01  0.18443993028E+01  0.10651267665E+02  0.14057160296E+02  0.51100000000E-03 0.  1.
         12    1    3    3    0    0 -0.12415387157E+02  0.14639405753E+02  0.15562311690E+02  0.24711122682E+02  0.00000000000E+00 0. -1.
</event>
<event>
 7    1  0.3851772E-009  0.4778727E+02  0.7816164E-02  0.1312668E+00
        -11   -1    0    0    0    0  0.00000000000E+00  0.00000000000E+00  0.45593999997E+02  0.45594000000E+02  0.51100000000E-03 0.  1.
         11   -1    0    0    0    0 -0.00000000000E+00 -0.00000000000E+00 -0.45593999997E+02  0.45594000000E+02  0.51100000000E-03 0. -1.
    9900012    2    1    2    0    0  0.33045058424E+02  0.26252999120E+02  0.10120660663E+02  0.47787267042E+02  0.19999981753E+02 0.  0.
         12    1    1    2    0    0 -0.33045058424E+02 -0.26252999120E+02 -0.10120660663E+02  0.43400732958E+02  0.00000000000E+00 0. -1.
         11    1    3    3    0    0  0.81410849032E+01  0.72048153072E+01  0.10609023124E+02  0.15190062506E+02  0.51100000000E-03 0. -1.
        -11    1    3    3    0    0  0.25378412190E+01  0.32532307517E+01  0.28481220121E+01  0.50135763317E+01  0.51100000000E-03 0.  1.
         12    1    3    3    0    0  0.22366132301E+02  0.15794953061E+02 -0.33364844733E+01  0.27583628205E+02  0.00000000000E+00 0. -1.
</event>
<event>
 7    1  0.3851772E-009  0.4778727E+02  0.7816164E-02  0.1312668E+00
        -11   -1    0    0    0    0  0.00000000000E+00  0.00000000000E+00  0.45593999997E+02  0.45594000000E+02  0.51100000000E-03 0. -1.
         11   -1    0    0    0    0 -0.00000000000E+00 -0.00000000000E+00 -0.45593999997E+02  0.45594000000E+02  0.51100000000E-03 0.  1.
    9900012    2    1    2    0    0  0.27949705565E+02 -0.15152935821E+02 -0.29543630017E+02  0.47787267521E+02  0.19999983935E+02 0.  0.
         12    1    1    2    0    0 -0.27949705565E+02  0.15152935821E+02  0.29543630017E+02  0.43400732479E+02  0.00000000000E+00 0. -1.
         11    1    3    3    0    0  0.23869989695E+01  0.36264332480E+01 -0.36114176362E+01  0.56472223072E+01  0.51100000000E-03 0. -1.
        -11    1    3    3    0    0  0.25677537471E+02 -0.15929171553E+02 -0.22480979598E+02  0.37662566042E+02  0.51100000000E-03 0.  1.
        -12    1    3    3    0    0 -0.11483087566E+00 -0.28501975169E+01 -0.34512327826E+01  0.44774791719E+01  0.00000000000E+00 0.  1.
</event>
<event>
 7    1  0.3851772E-009  0.4778727E+02  0.7816164E-02  0.1312668E+00
        -11   -1    0    0    0    0  0.00000000000E+00  0.00000000000E+00  0.45593999997E+02  0.45594000000E+02  0.51100000000E-03 0.  1.
         11   -1    0    0    0    0 -0.00000000000E+00 -0.00000000000E+00 -0.45593999997E+02  0.45594000000E+02  0.51100000000E-03 0. -1.
    9900012    2    1    2    0    0  0.31334252739E+02 -0.17989336457E+02  0.24045207576E+02  0.47787266961E+02  0.19999981384E+02 0.  0.
         12    1    1    2    0    0 -0.31334252739E+02  0.17989336457E+02 -0.24045207576E+02  0.43400733039E+02  0.00000000000E+00 0. -1.
         11    1    3    3    0    0  0.25721670827E+01 -0.43885162248E+01 -0.25760162229E+01  0.57018398783E+01  0.51100000000E-03 0. -1.
        -11    1    3    3    0    0  0.19175176142E+02 -0.80488017829E+01  0.12988342310E+02  0.24518719919E+02  0.51100000000E-03 0.  1.
         12    1    3    3    0    0  0.95869095142E+01 -0.55520184498E+01  0.13632881489E+02  0.17566707164E+02  0.00000000000E+00 0. -1.
</event>
<event>
 7    1  0.3851772E-009  0.4778727E+02  0.7816164E-02  0.1312668E+00
        -11   -1    0    0    0    0  0.00000000000E+00  0.00000000000E+00  0.45593999997E+02  0.45594000000E+02  0.51100000000E-03 0.  1.
         11   -1    0    0    0    0 -0.00000000000E+00 -0.00000000000E+00 -0.45593999997E+02  0.45594000000E+02  0.51100000000E-03 0. -1.
    9900012    2    1    2    0    0  0.27222476458E+02  0.40886538625E+01  0.33553589115E+02  0.47787266625E+02  0.19999979852E+02 0.  0.
         12    1    1    2    0    0 -0.27222476458E+02 -0.40886538625E+01 -0.33553589115E+02  0.43400733375E+02  0.00000000000E+00 0. -1.
         11    1    3    3    0    0  0.52154891566E+01 -0.66567487589E+01  0.47970032087E+01  0.97223902013E+01  0.51100000000E-03 0. -1.
        -11    1    3    3    0    0  0.16505964951E+02  0.63729300925E+01  0.22749569722E+02  0.28820201938E+02  0.51100000000E-03 0.  1.
         12    1    3    3    0    0  0.55010223505E+01  0.43724725289E+01  0.60070161847E+01  0.92446744865E+01  0.00000000000E+00 0. -1.
</event>
<event>
 7    1  0.3851772E-009  0.4778727E+02  0.7816164E-02  0.1312668E+00
        -11   -1    0    0    0    0  0.00000000000E+00  0.00000000000E+00  0.45593999997E+02  0.45594000000E+02  0.51100000000E-03 0.  1.
         11   -1    0    0    0    0 -0.00000000000E+00 -0.00000000000E+00 -0.45593999997E+02  0.45594000000E+02  0.51100000000E-03 0. -1.
    9900012    2    1    2    0    0 -0.31713581425E+02 -0.20823516994E+02  0.21077319141E+02  0.47787268566E+02  0.19999988702E+02 0.  0.
         12    1    1    2    0    0  0.31713581425E+02  0.20823516994E+02 -0.21077319141E+02  0.43400731434E+02  0.00000000000E+00 0. -1.
         11    1    3    3    0    0 -0.52231321788E+01 -0.12637738371E+02  0.56072331417E+01  0.14779533303E+02  0.51100000000E-03 0. -1.
        -11    1    3    3    0    0 -0.16793650281E+02 -0.67353193238E+01  0.14438989504E+02  0.23148987760E+02  0.51100000000E-03 0.  1.
         12    1    3    3    0    0 -0.96967989651E+01 -0.14504592995E+01  0.10310964948E+01  0.98587475032E+01  0.00000000000E+00 0. -1.
</event>
<event>
 7    1  0.3851772E-009  0.4778727E+02  0.7816164E-02  0.1312668E+00
        -11   -1    0    0    0    0  0.00000000000E+00  0.00000000000E+00  0.45593999997E+02  0.45594000000E+02  0.51100000000E-03 0.  1.
         11   -1    0    0    0    0 -0.00000000000E+00 -0.00000000000E+00 -0.45593999997E+02  0.45594000000E+02  0.51100000000E-03 0. -1.
    9900012    2    1    2    0    0  0.36402140818E+02  0.14932778617E+01  0.23585539836E+02  0.47787269312E+02  0.19999992100E+02 0.  0.
         12    1    1    2    0    0 -0.36402140818E+02 -0.14932778617E+01 -0.23585539836E+02  0.43400730688E+02  0.00000000000E+00 0. -1.
         11    1    3    3    0    0  0.87536339918E+01 -0.17340992255E+01 -0.14209196332E+01  0.90361618540E+01  0.51100000000E-03 0. -1.
        -11    1    3    3    0    0  0.14418600948E+02 -0.14569720777E+01  0.17865214661E+02  0.23004015216E+02  0.51100000000E-03 0.  1.
        -12    1    3    3    0    0  0.13229905878E+02  0.46843491649E+01  0.71412448088E+01  0.15747092241E+02  0.00000000000E+00 0.  1.
</event>
<event>
 7    1  0.3851772E-009  0.4778727E+02  0.7816164E-02  0.1312668E+00
        -11   -1    0    0    0    0  0.00000000000E+00  0.00000000000E+00  0.45593999997E+02  0.45594000000E+02  0.51100000000E-03 0.  1.
         11   -1    0    0    0    0 -0.00000000000E+00 -0.00000000000E+00 -0.45593999997E+02  0.45594000000E+02  0.51100000000E-03 0. -1.
    9900012    2    1    2    0    0 -0.27438041482E+02 -0.30149938193E+02 -0.14891555196E+02  0.47787270633E+02  0.19999998125E+02 0.  0.
         12    1    1    2    0    0  0.27438041482E+02  0.30149938193E+02  0.14891555196E+02  0.43400729367E+02  0.00000000000E+00 0. -1.
         11    1    3    3    0    0 -0.15708109589E+02 -0.74007619560E+01 -0.90652291039E+01  0.19588117912E+02  0.51100000000E-03 0. -1.
        -11    1    3    3    0    0 -0.31172051344E+01 -0.15794136952E+02 -0.58502001452E+01  0.17128822841E+02  0.51100000000E-03 0.  1.
        -12    1    3    3    0    0 -0.86127267590E+01 -0.69550392853E+01  0.23874053284E-01  0.11070329880E+02  0.00000000000E+00 0.  1.
</event>
<event>
 7    1  0.3851772E-009  0.4778728E+02  0.7816164E-02  0.1312668E+00
        -11   -1    0    0    0    0  0.00000000000E+00  0.00000000000E+00  0.45593999997E+02  0.45594000000E+02  0.51100000000E-03 0.  1.
         11   -1    0    0    0    0 -0.00000000000E+00 -0.00000000000E+00 -0.45593999997E+02  0.45594000000E+02  0.51100000000E-03 0. -1.
    9900012    2    1    2    0    0  0.17189728501E+02  0.27225863079E+02  0.29101345966E+02  0.47787277387E+02  0.20000028916E+02 0.  0.
         12    1    1    2    0    0 -0.17189728501E+02 -0.27225863079E+02 -0.29101345966E+02  0.43400722613E+02  0.00000000000E+00 0. -1.
         11    1    3    3    0    0  0.12723093519E+02  0.48622409223E+01  0.10198535096E+02  0.17015540363E+02  0.51100000000E-03 0. -1.
        -11    1    3    3    0    0  0.13120196063E+01  0.10472956269E+02  0.13990158305E+02  0.17525088819E+02  0.51100000000E-03 0.  1.
         12    1    3    3    0    0  0.31546153754E+01  0.11890665888E+02  0.49126525653E+01  0.13246648204E+02  0.00000000000E+00 0. -1.
</event>
<event>
 7    1  0.3851772E-009  0.4778727E+02  0.7816164E-02  0.1312668E+00
        -11   -1    0    0    0    0  0.00000000000E+00  0.00000000000E+00  0.45593999997E+02  0.45594000000E+02  0.51100000000E-03 0. -1.
         11   -1    0    0    0    0 -0.00000000000E+00 -0.00000000000E+00 -0.45593999997E+02  0.45594000000E+02  0.51100000000E-03 0.  1.
    9900012    2    1    2    0    0 -0.96785840856E+01 -0.29867237162E+02 -0.29964923464E+02  0.47787268626E+02  0.19999988974E+02 0.  0.
         12    1    1    2    0    0  0.96785840856E+01  0.29867237162E+02  0.29964923464E+02  0.43400731374E+02  0.00000000000E+00 0. -1.
         11    1    3    3    0    0 -0.59574738099E+01 -0.36437454601E+01 -0.25907532498E+01  0.74485151430E+01  0.51100000000E-03 0. -1.
        -11    1    3    3    0    0  0.41500095901E+01 -0.16705155855E+02 -0.17242147787E+02  0.24363424889E+02  0.51100000000E-03 0.  1.
        -12    1    3    3    0    0 -0.78711198658E+01 -0.95183358462E+01 -0.10132022427E+02  0.15975328594E+02  0.00000000000E+00 0.  1.
</event>
<event>
 7    1  0.3851772E-009  0.4778727E+02  0.7816164E-02  0.1312668E+00
        -11   -1    0    0    0    0  0.00000000000E+00  0.00000000000E+00  0.45593999997E+02  0.45594000000E+02  0.51100000000E-03 0.  1.
         11   -1    0    0    0    0 -0.00000000000E+00 -0.00000000000E+00 -0.45593999997E+02  0.45594000000E+02  0.51100000000E-03 0. -1.
    9900012    2    1    2    0    0 -0.25139493778E+01  0.20638615030E+02  0.38096600005E+02  0.47787270700E+02  0.19999998430E+02 0.  0.
         12    1    1    2    0    0  0.25139493778E+01 -0.20638615030E+02 -0.38096600005E+02  0.43400729300E+02  0.00000000000E+00 0. -1.
         11    1    3    3    0    0 -0.48835480847E+01 -0.79882175828E+00  0.55905565570E+01  0.74660217636E+01  0.51100000000E-03 0. -1.
        -11    1    3    3    0    0 -0.28964819739E+01  0.15798517845E+02  0.23462918183E+02  0.28433981498E+02  0.51100000000E-03 0.  1.
         12    1    3    3    0    0  0.52660806808E+01  0.56389189424E+01  0.90431252655E+01  0.11887267438E+02  0.00000000000E+00 0. -1.
</event>
<event>
 7    1  0.3851772E-009  0.4778728E+02  0.7816164E-02  0.1312668E+00
        -11   -1    0    0    0    0  0.00000000000E+00  0.00000000000E+00  0.45593999997E+02  0.45594000000E+02  0.51100000000E-03 0. -1.
         11   -1    0    0    0    0 -0.00000000000E+00 -0.00000000000E+00 -0.45593999997E+02  0.45594000000E+02  0.51100000000E-03 0.  1.
    9900012    2    1    2    0    0 -0.33794962212E+02 -0.22804427262E+02 -0.14882240781E+02  0.47787280371E+02  0.20000042521E+02 0.  0.
         12    1    1    2    0    0  0.33794962212E+02  0.22804427262E+02  0.14882240781E+02  0.43400719629E+02  0.00000000000E+00 0. -1.
         11    1    3    3    0    0 -0.11785616819E+02 -0.15344853597E+00 -0.74795920376E+01  0.13959534648E+02  0.51100000000E-03 0. -1.
        -11    1    3    3    0    0 -0.11653895232E+02 -0.16016729070E+02 -0.69692131536E+00  0.19820055090E+02  0.51100000000E-03 0.  1.
         12    1    3    3    0    0 -0.10355450161E+02 -0.66342496562E+01 -0.67057274284E+01  0.14007690633E+02  0.00000000000E+00 0. -1.
</event>
<event>
 7    1  0.3851772E-009  0.4778727E+02  0.7816164E-02  0.1312668E+00
        -11   -1    0    0    0    0  0.00000000000E+00  0.00000000000E+00  0.45593999997E+02  0.45594000000E+02  0.51100000000E-03 0. -1.
         11   -1    0    0    0    0 -0.00000000000E+00 -0.00000000000E+00 -0.45593999997E+02  0.45594000000E+02  0.51100000000E-03 0.  1.
    9900012    2    1    2    0    0 -0.19399390508E+02 -0.30631214641E+02 -0.23854051958E+02  0.47787268932E+02  0.19999990367E+02 0.  0.
         12    1    1    2    0    0  0.19399390508E+02  0.30631214641E+02  0.23854051958E+02  0.43400731068E+02  0.00000000000E+00 0. -1.
         11    1    3    3    0    0 -0.25066396263E+01  0.15895335125E+01 -0.12300650533E+01  0.32129300179E+01  0.51100000000E-03 0. -1.
        -11    1    3    3    0    0 -0.16421378971E+02 -0.33136186624E+02 -0.20672044357E+02  0.42367463571E+02  0.51100000000E-03 0.  1.
        -12    1    3    3    0    0 -0.47137191109E+00  0.91543847038E+00 -0.19519425472E+01  0.22068753429E+01  0.00000000000E+00 0.  1.
</event>
<event>
 7    1  0.3851772E-009  0.4778727E+02  0.7816164E-02  0.1312668E+00
        -11   -1    0    0    0    0  0.00000000000E+00  0.00000000000E+00  0.45593999997E+02  0.45594000000E+02  0.51100000000E-03 0. -1.
         11   -1    0    0    0    0 -0.00000000000E+00 -0.00000000000E+00 -0.45593999997E+02  0.45594000000E+02  0.51100000000E-03 0.  1.
    9900012    2    1    2    0    0 -0.38920889652E+02 -0.17475593248E+02 -0.79618699250E+01  0.47787269783E+02  0.19999994250E+02 0.  0.
         12    1    1    2    0    0  0.38920889652E+02  0.17475593248E+02  0.79618699250E+01  0.43400730217E+02  0.00000000000E+00 0. -1.
         11    1    3    3    0    0 -0.52441285469E+01 -0.24438555434E+01  0.48085327748E+01  0.75229849023E+01  0.51100000000E-03 0. -1.
        -11    1    3    3    0    0 -0.31164783709E+02 -0.12336933493E+02 -0.14079119411E+02  0.36354714622E+02  0.51100000000E-03 0.  1.
        -12    1    3    3    0    0 -0.25119773963E+01 -0.26948042114E+01  0.13087167113E+01  0.39095702587E+01  0.00000000000E+00 0.  1.
</event>
<event>
 7    1  0.3851772E-009  0.4778727E+02  0.7816164E-02  0.1312668E+00
        -11   -1    0    0    0    0  0.00000000000E+00  0.00000000000E+00  0.45593999997E+02  0.45594000000E+02  0.51100000000E-03 0.  1.
         11   -1    0    0    0    0 -0.00000000000E+00 -0.00000000000E+00 -0.45593999997E+02  0.45594000000E+02  0.51100000000E-03 0. -1.
    9900012    2    1    2    0    0  0.41103618961E+02  0.11825799151E+02  0.73665503618E+01  0.47787273261E+02  0.20000010106E+02 0.  0.
         12    1    1    2    0    0 -0.41103618961E+02 -0.11825799151E+02 -0.73665503618E+01  0.43400726739E+02  0.00000000000E+00 0. -1.
         11    1    3    3    0    0  0.14136858197E+02  0.81319728252E+01  0.69339465990E+01  0.17721719934E+02  0.51100000000E-03 0. -1.
        -11    1    3    3    0    0  0.23479643249E+02 -0.15748739054E+01 -0.11213344471E+01  0.23559101555E+02  0.51100000000E-03 0.  1.
        -12    1    3    3    0    0  0.34871175150E+01  0.52687002317E+01  0.15539382099E+01  0.65064517715E+01  0.00000000000E+00 0.  1.
</event>
<event>
 7    1  0.3851772E-009  0.4778727E+02  0.7816164E-02  0.1312668E+00
        -11   -1    0    0    0    0  0.00000000000E+00  0.00000000000E+00  0.45593999997E+02  0.45594000000E+02  0.51100000000E-03 0. -1.
         11   -1    0    0    0    0 -0.00000000000E+00 -0.00000000000E+00 -0.45593999997E+02  0.45594000000E+02  0.51100000000E-03 0.  1.
    9900012    2    1    2    0    0 -0.15437379512E+01 -0.17961250815E+02 -0.39479531013E+02  0.47787273892E+02  0.20000012983E+02 0.  0.
         12    1    1    2    0    0  0.15437379512E+01  0.17961250815E+02  0.39479531013E+02  0.43400726108E+02  0.00000000000E+00 0. -1.
         11    1    3    3    0    0  0.21663663743E+01 -0.10091508673E+02 -0.54869927358E+01  0.11689259177E+02  0.51100000000E-03 0.  1.
        -11    1    3    3    0    0  0.50567877600E+00  0.98199549765E+00 -0.11608456759E+02  0.11660887392E+02  0.51100000000E-03 0. -1.
         12    1    3    3    0    0 -0.42157831016E+01 -0.88517376397E+01 -0.22384081518E+02  0.24437127323E+02  0.00000000000E+00 0. -1.
</event>
<event>
 7    1  0.3851772E-009  0.4778727E+02  0.7816164E-02  0.1312668E+00
        -11   -1    0    0    0    0  0.00000000000E+00  0.00000000000E+00  0.45593999997E+02  0.45594000000E+02  0.51100000000E-03 0.  1.
         11   -1    0    0    0    0 -0.00000000000E+00 -0.00000000000E+00 -0.45593999997E+02  0.45594000000E+02  0.51100000000E-03 0. -1.
    9900012    2    1    2    0    0  0.73798749336E+01 -0.13910379056E+02  0.40443319524E+02  0.47787270817E+02  0.19999998961E+02 0.  0.
         12    1    1    2    0    0 -0.73798749336E+01  0.13910379056E+02 -0.40443319524E+02  0.43400729183E+02  0.00000000000E+00 0. -1.
         11    1    3    3    0    0  0.69138183579E+01 -0.32673906440E+01  0.12827458587E+02  0.14933868218E+02  0.51100000000E-03 0. -1.
        -11    1    3    3    0    0 -0.16232148671E+01 -0.12481769688E+02  0.13466914174E+02  0.18433317083E+02  0.51100000000E-03 0.  1.
        -12    1    3    3    0    0  0.20892714429E+01  0.18387812765E+01  0.14148946764E+02  0.14420085515E+02  0.00000000000E+00 0.  1.
</event>
<event>
 7    1  0.3851772E-009  0.4778728E+02  0.7816164E-02  0.1312668E+00
        -11   -1    0    0    0    0  0.00000000000E+00  0.00000000000E+00  0.45593999997E+02  0.45594000000E+02  0.51100000000E-03 0.  1.
         11   -1    0    0    0    0 -0.00000000000E+00 -0.00000000000E+00 -0.45593999997E+02  0.45594000000E+02  0.51100000000E-03 0. -1.
    9900012    2    1    2    0    0  0.41541200860E+02  0.10780077412E+02 -0.64607553730E+01  0.47787276528E+02  0.20000025000E+02 0.  0.
         12    1    1    2    0    0 -0.41541200860E+02 -0.10780077412E+02  0.64607553730E+01  0.43400723472E+02  0.00000000000E+00 0. -1.
         11    1    3    3    0    0 -0.98157174154E+00  0.16196272657E+01 -0.16701760786E+01  0.25251067221E+01  0.51100000000E-03 0. -1.
        -11    1    3    3    0    0  0.42762656718E+02  0.92064074529E+01 -0.58888442074E+01  0.44137073240E+02  0.51100000000E-03 0.  1.
        -12    1    3    3    0    0 -0.23988411643E+00 -0.45957306470E-01  0.10982649130E+01  0.11250965658E+01  0.00000000000E+00 0.  1.
</event>
<event>
 7    1  0.3851772E-009  0.4778727E+02  0.7816164E-02  0.1312668E+00
        -11   -1    0    0    0    0  0.00000000000E+00  0.00000000000E+00  0.45593999997E+02  0.45594000000E+02  0.51100000000E-03 0.  1.
         11   -1    0    0    0    0 -0.00000000000E+00 -0.00000000000E+00 -0.45593999997E+02  0.45594000000E+02  0.51100000000E-03 0. -1.
    9900012    2    1    2    0    0  0.17845951215E+02  0.75316942538E+01  0.38838366862E+02  0.47787272661E+02  0.20000007369E+02 0.  0.
         12    1    1    2    0    0 -0.17845951215E+02 -0.75316942538E+01 -0.38838366862E+02  0.43400727339E+02  0.00000000000E+00 0. -1.
         11    1    3    3    0    0  0.39101726541E+01 -0.53845402980E+01  0.11480952426E+02  0.13270078873E+02  0.51100000000E-03 0. -1.
        -11    1    3    3    0    0  0.89559258950E+01  0.12510106426E+02  0.23962588472E+02  0.28476604748E+02  0.51100000000E-03 0.  1.
        -12    1    3    3    0    0  0.49798526660E+01  0.40612812551E+00  0.33948259632E+01  0.60405890400E+01  0.00000000000E+00 0.  1.
</event>
<event>
 7    1  0.3851772E-009  0.4778727E+02  0.7816164E-02  0.1312668E+00
        -11   -1    0    0    0    0  0.00000000000E+00  0.00000000000E+00  0.45593999997E+02  0.45594000000E+02  0.51100000000E-03 0.  1.
         11   -1    0    0    0    0 -0.00000000000E+00 -0.00000000000E+00 -0.45593999997E+02  0.45594000000E+02  0.51100000000E-03 0. -1.
    9900012    2    1    2    0    0 -0.52937362082E+01  0.30259009531E+02  0.30659287802E+02  0.47787271557E+02  0.20000002338E+02 0.  0.
         12    1    1    2    0    0  0.52937362082E+01 -0.30259009531E+02 -0.30659287802E+02  0.43400728443E+02  0.00000000000E+00 0. -1.
         11    1    3    3    0    0  0.29302527774E+01  0.54399121335E+01  0.76782282554E+01  0.98556691687E+01  0.51100000000E-03 0.  1.
        -11    1    3    3    0    0 -0.25538697839E+01  0.14275110553E+02  0.32639746813E+01  0.14864540462E+02  0.51100000000E-03 0. -1.
        -12    1    3    3    0    0 -0.56701192018E+01  0.10543986845E+02  0.19717084865E+02  0.23067061926E+02  0.00000000000E+00 0.  1.
</event>
<event>
 7    1  0.3851772E-009  0.4778727E+02  0.7816164E-02  0.1312668E+00
        -11   -1    0    0    0    0  0.00000000000E+00  0.00000000000E+00  0.45593999997E+02  0.45594000000E+02  0.51100000000E-03 0. -1.
         11   -1    0    0    0    0 -0.00000000000E+00 -0.00000000000E+00 -0.45593999997E+02  0.45594000000E+02  0.51100000000E-03 0.  1.
    9900012    2    1    2    0    0  0.27781362606E+02 -0.10003443597E+02 -0.31808024922E+02  0.47787269113E+02  0.19999991195E+02 0.  0.
         12    1    1    2    0    0 -0.27781362606E+02  0.10003443597E+02  0.31808024922E+02  0.43400730887E+02  0.00000000000E+00 0. -1.
         11    1    3    3    0    0  0.14280992714E+02 -0.10724924613E+02 -0.69160601479E+01  0.19152092551E+02  0.51100000000E-03 0. -1.
        -11    1    3    3    0    0  0.11843705745E+02  0.30985152541E+00 -0.23862215554E+02  0.26641597271E+02  0.51100000000E-03 0.  1.
        -12    1    3    3    0    0  0.16566641471E+01  0.41162949099E+00 -0.10297492209E+01  0.19935792916E+01  0.00000000000E+00 0.  1.
</event>
<event>
 7    1  0.3851772E-009  0.4778727E+02  0.7816164E-02  0.1312668E+00
        -11   -1    0    0    0    0  0.00000000000E+00  0.00000000000E+00  0.45593999997E+02  0.45594000000E+02  0.51100000000E-03 0. -1.
         11   -1    0    0    0    0 -0.00000000000E+00 -0.00000000000E+00 -0.45593999997E+02  0.45594000000E+02  0.51100000000E-03 0.  1.
    9900012    2    1    2    0    0  0.29218727505E+02 -0.16378128678E+02 -0.27597931597E+02  0.47787274609E+02  0.20000016253E+02 0.  0.
         12    1    1    2    0    0 -0.29218727505E+02  0.16378128678E+02  0.27597931597E+02  0.43400725391E+02  0.00000000000E+00 0. -1.
         11    1    3    3    0    0  0.52161682068E+01  0.27755256108E+01  0.71478928314E+00  0.59517121199E+01  0.51100000000E-03 0. -1.
        -11    1    3    3    0    0  0.14222213144E+02 -0.10635795429E+02 -0.17751182650E+02  0.25109678947E+02  0.51100000000E-03 0.  1.
         12    1    3    3    0    0  0.97803461543E+01 -0.85178588603E+01 -0.10561538231E+02  0.16725883542E+02  0.00000000000E+00 0. -1.
</event>
<event>
 7    1  0.3851772E-009  0.4778727E+02  0.7816164E-02  0.1312668E+00
        -11   -1    0    0    0    0  0.00000000000E+00  0.00000000000E+00  0.45593999997E+02  0.45594000000E+02  0.51100000000E-03 0. -1.
         11   -1    0    0    0    0 -0.00000000000E+00 -0.00000000000E+00 -0.45593999997E+02  0.45594000000E+02  0.51100000000E-03 0.  1.
    9900012    2    1    2    0    0  0.36781785852E+02  0.21525837610E+02  0.82074397761E+01  0.47787268174E+02  0.19999986915E+02 0.  0.
         12    1    1    2    0    0 -0.36781785852E+02 -0.21525837610E+02 -0.82074397761E+01  0.43400731826E+02  0.00000000000E+00 0. -1.
         11    1    3    3    0    0  0.24241037820E+02  0.21565201601E+02  0.63059492818E+01  0.33052243967E+02  0.51100000000E-03 0. -1.
        -11    1    3    3    0    0  0.40613782671E+01 -0.41722225606E+00 -0.28769743178E+01  0.49945819971E+01  0.51100000000E-03 0.  1.
         12    1    3    3    0    0  0.84793697655E+01  0.37785826557E+00  0.47784648122E+01  0.97404422102E+01  0.00000000000E+00 0. -1.
</event>
<event>
 7    1  0.3851772E-009  0.4778726E+02  0.7816164E-02  0.1312668E+00
        -11   -1    0    0    0    0  0.00000000000E+00  0.00000000000E+00  0.45593999997E+02  0.45594000000E+02  0.51100000000E-03 0.  1.
         11   -1    0    0    0    0 -0.00000000000E+00 -0.00000000000E+00 -0.45593999997E+02  0.45594000000E+02  0.51100000000E-03 0. -1.
    9900012    2    1    2    0    0  0.22335456527E+01 -0.36994586119E+02  0.22583970453E+02  0.47787264410E+02  0.19999969752E+02 0.  0.
         12    1    1    2    0    0 -0.22335456527E+01  0.36994586119E+02 -0.22583970453E+02  0.43400735590E+02  0.00000000000E+00 0. -1.
         11    1    3    3    0    0 -0.51598245275E+00 -0.27280277987E+02  0.16113877197E+02  0.31688118333E+02  0.51100000000E-03 0. -1.
        -11    1    3    3    0    0  0.11555066408E+01 -0.11871956240E+02  0.60802943558E+01  0.13388372577E+02  0.51100000000E-03 0.  1.
         12    1    3    3    0    0  0.15940214647E+01  0.21576481073E+01  0.38979890078E+00  0.27107734999E+01  0.00000000000E+00 0. -1.
</event>
<event>
 7    1  0.3851772E-009  0.4778727E+02  0.7816164E-02  0.1312668E+00
        -11   -1    0    0    0    0  0.00000000000E+00  0.00000000000E+00  0.45593999997E+02  0.45594000000E+02  0.51100000000E-03 0.  1.
         11   -1    0    0    0    0 -0.00000000000E+00 -0.00000000000E+00 -0.45593999997E+02  0.45594000000E+02  0.51100000000E-03 0. -1.
    9900012    2    1    2    0    0 -0.33294326512E+02 -0.26131719711E+02  0.96044042655E+01  0.47787268045E+02  0.19999986325E+02 0.  0.
         12    1    1    2    0    0  0.33294326512E+02  0.26131719711E+02 -0.96044042655E+01  0.43400731955E+02  0.00000000000E+00 0. -1.
         11    1    3    3    0    0 -0.31781270466E+02 -0.20745221453E+02  0.57357077438E+01  0.38383742772E+02  0.51100000000E-03 0. -1.
        -11    1    3    3    0    0 -0.39480775820E+01 -0.21263323518E+01  0.23272339706E+01  0.50521900280E+01  0.51100000000E-03 0.  1.
         12    1    3    3    0    0  0.24350215368E+01 -0.32601659060E+01  0.15414625511E+01  0.43513352451E+01  0.00000000000E+00 0. -1.
</event>
<event>
 7    1  0.3851772E-009  0.4778726E+02  0.7816164E-02  0.1312668E+00
        -11   -1    0    0    0    0  0.00000000000E+00  0.00000000000E+00  0.45593999997E+02  0.45594000000E+02  0.51100000000E-03 0.  1.
         11   -1    0    0    0    0 -0.00000000000E+00 -0.00000000000E+00 -0.45593999997E+02  0.45594000000E+02  0.51100000000E-03 0. -1.
    9900012    2    1    2    0    0  0.29314294912E+02 -0.20257118704E+02  0.24777915869E+02  0.47787264301E+02  0.19999969255E+02 0.  0.
         12    1    1    2    0    0 -0.29314294912E+02  0.20257118704E+02 -0.24777915869E+02  0.43400735699E+02  0.00000000000E+00 0. -1.
         11    1    3    3    0    0  0.63941948467E+01 -0.43690108553E+01 -0.66773002988E+00  0.77730204712E+01  0.51100000000E-03 0. -1.
        -11    1    3    3    0    0  0.18664986168E+02 -0.11059421891E+02  0.25624942929E+02  0.33575738586E+02  0.51100000000E-03 0.  1.
        -12    1    3    3    0    0  0.42551138976E+01 -0.48286859572E+01 -0.17929702988E+00  0.64385052443E+01  0.00000000000E+00 0.  1.
</event>
<event>
 7    1  0.3851772E-009  0.4778726E+02  0.7816164E-02  0.1312668E+00
        -11   -1    0    0    0    0  0.00000000000E+00  0.00000000000E+00  0.45593999997E+02  0.45594000000E+02  0.51100000000E-03 0.  1.
         11   -1    0    0    0    0 -0.00000000000E+00 -0.00000000000E+00 -0.45593999997E+02  0.45594000000E+02  0.51100000000E-03 0. -1.
    9900012    2    1    2    0    0 -0.13918065809E+02  0.28917675315E+02  0.29217792015E+02  0.47787264157E+02  0.19999968599E+02 0.  0.
         12    1    1    2    0    0  0.13918065809E+02 -0.28917675315E+02 -0.29217792015E+02  0.43400735843E+02  0.00000000000E+00 0. -1.
         11    1    3    3    0    0  0.34815261133E+01  0.74934210528E+00  0.34994752071E+01  0.49928813980E+01  0.51100000000E-03 0. -1.
        -11    1    3    3    0    0 -0.15419452568E+02  0.18467674846E+02  0.20470623204E+02  0.31588937088E+02  0.51100000000E-03 0.  1.
         12    1    3    3    0    0 -0.19801393548E+01  0.97006583630E+01  0.52476936036E+01  0.11205445672E+02  0.00000000000E+00 0. -1.
</event>
<event>
 7    1  0.3851772E-009  0.4778730E+02  0.7816164E-02  0.1312668E+00
        -11   -1    0    0    0    0  0.00000000000E+00  0.00000000000E+00  0.45593999997E+02  0.45594000000E+02  0.51100000000E-03 0.  1.
         11   -1    0    0    0    0 -0.00000000000E+00 -0.00000000000E+00 -0.45593999997E+02  0.45594000000E+02  0.51100000000E-03 0. -1.
    9900012    2    1    2    0    0  0.34590295491E+02  0.26112034436E+02 -0.23009276598E+01  0.47787295482E+02  0.20000111421E+02 0.  0.
         12    1    1    2    0    0 -0.34590295491E+02 -0.26112034436E+02  0.23009276598E+01  0.43400704518E+02  0.00000000000E+00 0. -1.
         11    1    3    3    0    0  0.21218712242E+02  0.56477964307E+01 -0.33103878044E+01  0.22205630399E+02  0.51100000000E-03 0. -1.
        -11    1    3    3    0    0  0.95518957019E+01  0.12054885590E+02  0.39664176623E+01  0.15883684944E+02  0.51100000000E-03 0.  1.
         12    1    3    3    0    0  0.38196875465E+01  0.84093524158E+01 -0.29569575177E+01  0.96979801386E+01  0.00000000000E+00 0. -1.
</event>
<event>
 7    1  0.3851772E-009  0.4778725E+02  0.7816164E-02  0.1312668E+00
        -11   -1    0    0    0    0  0.00000000000E+00  0.00000000000E+00  0.45593999997E+02  0.45594000000E+02  0.51100000000E-03 0.  1.
         11   -1    0    0    0    0 -0.00000000000E+00 -0.00000000000E+00 -0.45593999997E+02  0.45594000000E+02  0.51100000000E-03 0. -1.
    9900012    2    1    2    0    0 -0.16280030743E+02 -0.12996437704E+02  0.38074638525E+02  0.47787252393E+02  0.19999914963E+02 0.  0.
         12    1    1    2    0    0  0.16280030743E+02  0.12996437704E+02 -0.38074638525E+02  0.43400747607E+02  0.00000000000E+00 0. -1.
         11    1    3    3    0    0 -0.10788836189E+00  0.36803603841E+00 -0.17042576397E+00  0.41968515145E+00  0.51100000000E-03 0. -1.
        -11    1    3    3    0    0 -0.40963865832E+01 -0.12119147291E+02  0.30216848534E+02  0.32813290747E+02  0.51100000000E-03 0.  1.
        -12    1    3    3    0    0 -0.12075755798E+02 -0.12453264515E+01  0.80282157551E+01  0.14554276495E+02  0.00000000000E+00 0.  1.
</event>
<event>
 7    1  0.3851772E-009  0.4778726E+02  0.7816164E-02  0.1312668E+00
        -11   -1    0    0    0    0  0.00000000000E+00  0.00000000000E+00  0.45593999997E+02  0.45594000000E+02  0.51100000000E-03 0.  1.
         11   -1    0    0    0    0 -0.00000000000E+00 -0.00000000000E+00 -0.45593999997E+02  0.45594000000E+02  0.51100000000E-03 0. -1.
    9900012    2    1    2    0    0 -0.29848444754E+02  0.30709756123E+02 -0.70431398515E+01  0.47787255832E+02  0.19999930640E+02 0.  0.
         12    1    1    2    0    0  0.29848444754E+02 -0.30709756123E+02  0.70431398515E+01  0.43400744168E+02  0.00000000000E+00 0. -1.
         11    1    3    3    0    0  0.20703928714E+01  0.86985266669E+00 -0.25230415438E+01  0.33777076837E+01  0.51100000000E-03 0. -1.
        -11    1    3    3    0    0 -0.15052953731E+02  0.12115441729E+02  0.92239298270E+00  0.19344925779E+02  0.51100000000E-03 0.  1.
        -12    1    3    3    0    0 -0.16865883895E+02  0.17724461727E+02 -0.54424912904E+01  0.25064622369E+02  0.00000000000E+00 0.  1.
</event>
<event>
 7    1  0.3851772E-009  0.4778727E+02  0.7816164E-02  0.1312668E+00
        -11   -1    0    0    0    0  0.00000000000E+00  0.00000000000E+00  0.45593999997E+02  0.45594000000E+02  0.51100000000E-03 0. -1.
         11   -1    0    0    0    0 -0.00000000000E+00 -0.00000000000E+00 -0.45593999997E+02  0.45594000000E+02  0.51100000000E-03 0.  1.
    9900012    2    1    2    0    0 -0.37122884572E+02 -0.45431394695E+01 -0.22019869537E+02  0.47787270402E+02  0.19999997071E+02 0.  0.
         12    1    1    2    0    0  0.37122884572E+02  0.45431394695E+01  0.22019869537E+02  0.43400729598E+02  0.00000000000E+00 0. -1.
         11    1    3    3    0    0 -0.20047157376E+02 -0.97237283150E+01 -0.75962704368E+01  0.23540236532E+02  0.51100000000E-03 0. -1.
        -11    1    3    3    0    0 -0.29303973831E+01 -0.20734871175E+01 -0.28436158677E+01  0.45795992306E+01  0.51100000000E-03 0.  1.
         12    1    3    3    0    0 -0.14145329814E+02  0.72540759630E+01 -0.11579983233E+02  0.19667434639E+02  0.00000000000E+00 0. -1.
</event>
<event>
 7    1  0.4576217E-008  0.4778727E+02  0.7816164E-02  0.1312668E+00
        -11   -1    0    0    0    0  0.00000000000E+00  0.00000000000E+00  0.45593999997E+02  0.45594000000E+02  0.51100000000E-03 0. -1.
         11   -1    0    0    0    0 -0.00000000000E+00 -0.00000000000E+00 -0.45593999997E+02  0.45594000000E+02  0.51100000000E-03 0.  1.
    9900012    2    1    2    0    0  0.14841187506E+02 -0.27076313152E+02 -0.30499766253E+02  0.47787270490E+02  0.19999997472E+02 0.  0.
         12    1    1    2    0    0 -0.14841187506E+02  0.27076313152E+02  0.30499766253E+02  0.43400729510E+02  0.00000000000E+00 0. -1.
         11    1    3    3    0    0  0.12076216257E+02 -0.77097408329E+01 -0.48450787729E+01  0.15124479871E+02  0.51100000000E-03 0. -1.
        -11    1    3    3    0    0  0.35476655369E+01 -0.78714995401E+01 -0.97511287078E+01  0.13024244589E+02  0.51100000000E-03 0.  1.
         12    1    3    3    0    0 -0.78269428795E+00 -0.11495072779E+02 -0.15903558773E+02  0.19638546030E+02  0.00000000000E+00 0. -1.
</event>
<event>
 7    1  0.3851772E-009  0.4778729E+02  0.7816164E-02  0.1312668E+00
        -11   -1    0    0    0    0  0.00000000000E+00  0.00000000000E+00  0.45593999997E+02  0.45594000000E+02  0.51100000000E-03 0.  1.
         11   -1    0    0    0    0 -0.00000000000E+00 -0.00000000000E+00 -0.45593999997E+02  0.45594000000E+02  0.51100000000E-03 0. -1.
    9900012    2    1    2    0    0  0.35403286196E+02 -0.23080977731E+02 -0.98740733354E+01  0.47787291126E+02  0.20000091561E+02 0.  0.
         12    1    1    2    0    0 -0.35403286196E+02  0.23080977731E+02  0.98740733354E+01  0.43400708874E+02  0.00000000000E+00 0. -1.
         11    1    3    3    0    0  0.93268190383E+01  0.18406756708E+01 -0.45310158312E+01  0.10531274615E+02  0.51100000000E-03 0. -1.
        -11    1    3    3    0    0  0.12508537216E+02 -0.16666153263E+02 -0.46964514481E+01  0.21360730894E+02  0.51100000000E-03 0.  1.
         12    1    3    3    0    0  0.13567929942E+02 -0.82555001389E+01 -0.64660605608E+00  0.15895285617E+02  0.00000000000E+00 0. -1.
</event>
<event>
 7    1  0.3851772E-009  0.4778727E+02  0.7816164E-02  0.1312668E+00
        -11   -1    0    0    0    0  0.00000000000E+00  0.00000000000E+00  0.45593999997E+02  0.45594000000E+02  0.51100000000E-03 0.  1.
         11   -1    0    0    0    0 -0.00000000000E+00 -0.00000000000E+00 -0.45593999997E+02  0.45594000000E+02  0.51100000000E-03 0. -1.
    9900012    2    1    2    0    0 -0.97470253829E+01 -0.38322579962E+02  0.17888504665E+02  0.47787271459E+02  0.20000001890E+02 0.  0.
         12    1    1    2    0    0  0.97470253829E+01  0.38322579962E+02 -0.17888504665E+02  0.43400728541E+02  0.00000000000E+00 0. -1.
         11    1    3    3    0    0 -0.54611360932E+01 -0.30180783748E+01 -0.18159237831E+01  0.64984908980E+01  0.51100000000E-03 0. -1.
        -11    1    3    3    0    0 -0.51742137816E+01 -0.24259523513E+02  0.10716060394E+02  0.27020934846E+02  0.51100000000E-03 0.  1.
        -12    1    3    3    0    0  0.88832449185E+00 -0.11044978074E+02  0.89883680550E+01  0.14267845715E+02  0.00000000000E+00 0.  1.
</event>
<event>
 7    1  0.3851772E-009  0.4778725E+02  0.7816164E-02  0.1312668E+00
        -11   -1    0    0    0    0  0.00000000000E+00  0.00000000000E+00  0.45593999997E+02  0.45594000000E+02  0.51100000000E-03 0.  1.
         11   -1    0    0    0    0 -0.00000000000E+00 -0.00000000000E+00 -0.45593999997E+02  0.45594000000E+02  0.51100000000E-03 0. -1.
    9900012    2    1    2    0    0  0.39907024785E+02 -0.13765372152E+02  0.10078153551E+02  0.47787247971E+02  0.19999894799E+02 0.  0.
         12    1    1    2    0    0 -0.39907024785E+02  0.13765372152E+02 -0.10078153551E+02  0.43400752029E+02  0.00000000000E+00 0. -1.
         11    1    3    3    0    0  0.15513792346E+02 -0.13174022421E+02  0.10637176100E+02  0.22964802097E+02  0.51100000000E-03 0. -1.
        -11    1    3    3    0    0  0.15112774361E+02 -0.18480829038E+01  0.12777009698E+01  0.15278870355E+02  0.51100000000E-03 0.  1.
         12    1    3    3    0    0  0.92804580782E+01  0.12567331730E+01 -0.18367235184E+01  0.95435755193E+01  0.00000000000E+00 0. -1.
</event>
<event>
 7    1  0.3851772E-009  0.4778727E+02  0.7816164E-02  0.1312668E+00
        -11   -1    0    0    0    0  0.00000000000E+00  0.00000000000E+00  0.45593999997E+02  0.45594000000E+02  0.51100000000E-03 0.  1.
         11   -1    0    0    0    0 -0.00000000000E+00 -0.00000000000E+00 -0.45593999997E+02  0.45594000000E+02  0.51100000000E-03 0. -1.
    9900012    2    1    2    0    0 -0.77834710816E+01 -0.39025679619E+02 -0.17321577339E+02  0.47787272664E+02  0.20000007384E+02 0.  0.
         12    1    1    2    0    0  0.77834710816E+01  0.39025679619E+02  0.17321577339E+02  0.43400727336E+02  0.00000000000E+00 0. -1.
         11    1    3    3    0    0 -0.34499683442E+01 -0.54071677093E+01  0.25472826457E+01  0.69013327228E+01  0.51100000000E-03 0. -1.
        -11    1    3    3    0    0  0.14550815183E+01 -0.23571158282E+02 -0.16506021912E+02  0.28812593160E+02  0.51100000000E-03 0.  1.
        -12    1    3    3    0    0 -0.57885842556E+01 -0.10047353628E+02 -0.33628380727E+01  0.12073346782E+02  0.00000000000E+00 0.  1.
</event>
<event>
 7    1  0.3851772E-009  0.4778727E+02  0.7816164E-02  0.1312668E+00
        -11   -1    0    0    0    0  0.00000000000E+00  0.00000000000E+00  0.45593999997E+02  0.45594000000E+02  0.51100000000E-03 0. -1.
         11   -1    0    0    0    0 -0.00000000000E+00 -0.00000000000E+00 -0.45593999997E+02  0.45594000000E+02  0.51100000000E-03 0.  1.
    9900012    2    1    2    0    0 -0.44998031904E+01 -0.30797561170E+02 -0.30247066847E+02  0.47787273559E+02  0.20000011464E+02 0.  0.
         12    1    1    2    0    0  0.44998031904E+01  0.30797561170E+02  0.30247066847E+02  0.43400726441E+02  0.00000000000E+00 0. -1.
         11    1    3    3    0    0  0.80071179339E+00  0.57308278200E+00  0.36146734582E+00  0.10489147507E+01  0.51100000000E-03 0. -1.
        -11    1    3    3    0    0 -0.67016325130E+00 -0.26563658311E+02 -0.16899199714E+02  0.31490633733E+02  0.51100000000E-03 0.  1.
        -12    1    3    3    0    0 -0.46303517325E+01 -0.48069856409E+01 -0.13709334479E+02  0.15247725075E+02  0.00000000000E+00 0.  1.
</event>
<event>
 7    1  0.3851772E-009  0.4778727E+02  0.7816164E-02  0.1312668E+00
        -11   -1    0    0    0    0  0.00000000000E+00  0.00000000000E+00  0.45593999997E+02  0.45594000000E+02  0.51100000000E-03 0.  1.
         11   -1    0    0    0    0 -0.00000000000E+00 -0.00000000000E+00 -0.45593999997E+02  0.45594000000E+02  0.51100000000E-03 0. -1.
    9900012    2    1    2    0    0 -0.25172056952E+02 -0.70746252923E+01  0.34640160113E+02  0.47787268821E+02  0.19999989862E+02 0.  0.
         12    1    1    2    0    0  0.25172056952E+02  0.70746252923E+01 -0.34640160113E+02  0.43400731179E+02  0.00000000000E+00 0. -1.
         11    1    3    3    0    0  0.36862730286E+00  0.41232082961E+01  0.13912408257E+01  0.43671826201E+01  0.51100000000E-03 0. -1.
        -11    1    3    3    0    0 -0.24528718258E+02 -0.10737046366E+02  0.31439312678E+02  0.41296156794E+02  0.51100000000E-03 0.  1.
         12    1    3    3    0    0 -0.10119659973E+01 -0.46078722209E+00  0.18096066094E+01  0.21239294067E+01  0.00000000000E+00 0. -1.
</event>
<event>
 7    1  0.3851772E-009  0.4778727E+02  0.7816164E-02  0.1312668E+00
        -11   -1    0    0    0    0  0.00000000000E+00  0.00000000000E+00  0.45593999997E+02  0.45594000000E+02  0.51100000000E-03 0.  1.
         11   -1    0    0    0    0 -0.00000000000E+00 -0.00000000000E+00 -0.45593999997E+02  0.45594000000E+02  0.51100000000E-03 0. -1.
    9900012    2    1    2    0    0 -0.28262286158E+02 -0.29594192010E+02  0.14458585834E+02  0.47787265860E+02  0.19999976362E+02 0.  0.
         12    1    1    2    0    0  0.28262286158E+02  0.29594192010E+02 -0.14458585834E+02  0.43400734140E+02  0.00000000000E+00 0. -1.
         11    1    3    3    0    0 -0.40188422964E+01 -0.41350840724E+01  0.81078292866E+01  0.99492165365E+01  0.51100000000E-03 0. -1.
        -11    1    3    3    0    0 -0.13678664222E+02 -0.10943295874E+02 -0.27132940357E+01  0.17726351691E+02  0.51100000000E-03 0.  1.
         12    1    3    3    0    0 -0.10564779639E+02 -0.14515812063E+02  0.90640505833E+01  0.20111697632E+02  0.00000000000E+00 0. -1.
</event>
<event>
 7    1  0.3851772E-009  0.4778728E+02  0.7816164E-02  0.1312668E+00
        -11   -1    0    0    0    0  0.00000000000E+00  0.00000000000E+00  0.45593999997E+02  0.45594000000E+02  0.51100000000E-03 0.  1.
         11   -1    0    0    0    0 -0.00000000000E+00 -0.00000000000E+00 -0.45593999997E+02  0.45594000000E+02  0.51100000000E-03 0. -1.
    9900012    2    1    2    0    0 -0.18556038263E+02 -0.38590437972E+02  0.70762991850E+01  0.47787280316E+02  0.20000042275E+02 0.  0.
         12    1    1    2    0    0  0.18556038263E+02  0.38590437972E+02 -0.70762991850E+01  0.43400719684E+02  0.00000000000E+00 0. -1.
         11    1    3    3    0    0 -0.16610352846E+02 -0.24467114484E+02  0.80105489461E+01  0.30638413920E+02  0.51100000000E-03 0. -1.
        -11    1    3    3    0    0 -0.50905636874E+01 -0.40719347061E+01  0.40934675228E+00  0.65316197019E+01  0.51100000000E-03 0.  1.
         12    1    3    3    0    0  0.31448782706E+01 -0.10051388782E+02 -0.13435965134E+01  0.10617246694E+02  0.00000000000E+00 0. -1.
</event>
<event>
 7    1  0.3851772E-009  0.4778727E+02  0.7816164E-02  0.1312668E+00
        -11   -1    0    0    0    0  0.00000000000E+00  0.00000000000E+00  0.45593999997E+02  0.45594000000E+02  0.51100000000E-03 0. -1.
         11   -1    0    0    0    0 -0.00000000000E+00 -0.00000000000E+00 -0.45593999997E+02  0.45594000000E+02  0.51100000000E-03 0.  1.
    9900012    2    1    2    0    0 -0.30426741760E+01 -0.39666661873E+02 -0.17347076072E+02  0.47787274447E+02  0.20000015513E+02 0.  0.
         12    1    1    2    0    0  0.30426741760E+01  0.39666661873E+02  0.17347076072E+02  0.43400725553E+02  0.00000000000E+00 0. -1.
         11    1    3    3    0    0 -0.85088522866E+01 -0.26676910813E+02 -0.15827853101E+02  0.32164873259E+02  0.51100000000E-03 0.  1.
        -11    1    3    3    0    0  0.44226545469E+01 -0.11816987537E+02  0.99681483096E+00  0.12656804800E+02  0.51100000000E-03 0. -1.
        -12    1    3    3    0    0  0.10435235637E+01 -0.11727635234E+01 -0.25160378023E+01  0.29655963874E+01  0.00000000000E+00 0.  1.
</event>
<event>
 7    1  0.3851772E-009  0.4778727E+02  0.7816164E-02  0.1312668E+00
        -11   -1    0    0    0    0  0.00000000000E+00  0.00000000000E+00  0.45593999997E+02  0.45594000000E+02  0.51100000000E-03 0.  1.
         11   -1    0    0    0    0 -0.00000000000E+00 -0.00000000000E+00 -0.45593999997E+02  0.45594000000E+02  0.51100000000E-03 0. -1.
    9900012    2    1    2    0    0  0.10026778256E+02 -0.36765803325E+02  0.20769275361E+02  0.47787269876E+02  0.19999994672E+02 0.  0.
         12    1    1    2    0    0 -0.10026778256E+02  0.36765803325E+02 -0.20769275361E+02  0.43400730124E+02  0.00000000000E+00 0. -1.
         11    1    3    3    0    0 -0.21964011229E+01 -0.94210882852E+01  0.91459039953E+01  0.13312724835E+02  0.51100000000E-03 0. -1.
        -11    1    3    3    0    0  0.96273922488E+01 -0.69001329687E+01  0.40359810020E+01  0.12513499087E+02  0.51100000000E-03 0.  1.
        -12    1    3    3    0    0  0.25957871300E+01 -0.20444582071E+02  0.75873903634E+01  0.21961045954E+02  0.00000000000E+00 0.  1.
</event>
<event>
 7    1  0.3851772E-009  0.4778728E+02  0.7816164E-02  0.1312668E+00
        -11   -1    0    0    0    0  0.00000000000E+00  0.00000000000E+00  0.45593999997E+02  0.45594000000E+02  0.51100000000E-03 0. -1.
         11   -1    0    0    0    0 -0.00000000000E+00 -0.00000000000E+00 -0.45593999997E+02  0.45594000000E+02  0.51100000000E-03 0.  1.
    9900012    2    1    2    0    0  0.27768179576E+02  0.33481360088E+00 -0.33353244635E+02  0.47787276218E+02  0.20000023587E+02 0.  0.
         12    1    1    2    0    0 -0.27768179576E+02 -0.33481360088E+00  0.33353244635E+02  0.43400723782E+02  0.00000000000E+00 0. -1.
         11    1    3    3    0    0  0.79515251073E+01 -0.58705998704E+01 -0.59470198391E+01  0.11535065652E+02  0.51100000000E-03 0. -1.
        -11    1    3    3    0    0  0.17993205786E+02  0.66784368440E+01 -0.28278336478E+02  0.34176326417E+02  0.51100000000E-03 0.  1.
        -12    1    3    3    0    0  0.18234486835E+01 -0.47302337272E+00  0.87211168233E+00  0.20758841487E+01  0.00000000000E+00 0.  1.
</event>
<event>
 7    1  0.3851772E-009  0.4778727E+02  0.7816164E-02  0.1312668E+00
        -11   -1    0    0    0    0  0.00000000000E+00  0.00000000000E+00  0.45593999997E+02  0.45594000000E+02  0.51100000000E-03 0.  1.
         11   -1    0    0    0    0 -0.00000000000E+00 -0.00000000000E+00 -0.45593999997E+02  0.45594000000E+02  0.51100000000E-03 0. -1.
    9900012    2    1    2    0    0  0.25757381871E+02 -0.21883610290E+02  0.27226612475E+02  0.47787267897E+02  0.19999985651E+02 0.  0.
         12    1    1    2    0    0 -0.25757381871E+02  0.21883610290E+02 -0.27226612475E+02  0.43400732103E+02  0.00000000000E+00 0. -1.
         11    1    3    3    0    0  0.11609633981E+02 -0.15439935758E+02  0.22416555535E+02  0.29591843128E+02  0.51100000000E-03 0. -1.
        -11    1    3    3    0    0  0.48955217081E+01 -0.49077284465E+01  0.54162170351E+01  0.87970073622E+01  0.51100000000E-03 0.  1.
         12    1    3    3    0    0  0.92522261818E+01 -0.15359460853E+01 -0.60616009509E+00  0.93984174071E+01  0.00000000000E+00 0. -1.
</event>
<event>
 7    1  0.3851772E-009  0.4778728E+02  0.7816164E-02  0.1312668E+00
        -11   -1    0    0    0    0  0.00000000000E+00  0.00000000000E+00  0.45593999997E+02  0.45594000000E+02  0.51100000000E-03 0.  1.
         11   -1    0    0    0    0 -0.00000000000E+00 -0.00000000000E+00 -0.45593999997E+02  0.45594000000E+02  0.51100000000E-03 0. -1.
    9900012    2    1    2    0    0  0.26951071491E+02 -0.24516656631E+02  0.23583805485E+02  0.47787278946E+02  0.20000036026E+02 0.  0.
         12    1    1    2    0    0 -0.26951071491E+02  0.24516656631E+02 -0.23583805485E+02  0.43400721054E+02  0.00000000000E+00 0. -1.
         11    1    3    3    0    0  0.70836825006E+01  0.62584494443E+00  0.87030783438E+00  0.71643335804E+01  0.51100000000E-03 0. -1.
        -11    1    3    3    0    0  0.29541077619E+01 -0.11565030908E+02  0.69684423804E+01  0.13821573067E+02  0.51100000000E-03 0.  1.
         12    1    3    3    0    0  0.16913281229E+02 -0.13577470667E+02  0.15745055270E+02  0.26801372299E+02  0.00000000000E+00 0. -1.
</event>
<event>
 7    1  0.3851772E-009  0.4778729E+02  0.7816164E-02  0.1312668E+00
        -11   -1    0    0    0    0  0.00000000000E+00  0.00000000000E+00  0.45593999997E+02  0.45594000000E+02  0.51100000000E-03 0. -1.
         11   -1    0    0    0    0 -0.00000000000E+00 -0.00000000000E+00 -0.45593999997E+02  0.45594000000E+02  0.51100000000E-03 0.  1.
    9900012    2    1    2    0    0  0.34260456951E+02 -0.21726857899E+02  0.15420319642E+02  0.47787291221E+02  0.20000091993E+02 0.  0.
         12    1    1    2    0    0 -0.34260456951E+02  0.21726857899E+02 -0.15420319642E+02  0.43400708779E+02  0.00000000000E+00 0. -1.
         11    1    3    3    0    0  0.10902315497E+01  0.11682938595E+00  0.28720564117E+01  0.30742417326E+01  0.51100000000E-03 0. -1.
        -11    1    3    3    0    0  0.70969819178E+01 -0.12789968480E+02  0.60547252905E+00  0.14639571145E+02  0.51100000000E-03 0.  1.
        -12    1    3    3    0    0  0.26073243483E+02 -0.90537188053E+01  0.11942790701E+02  0.30073478344E+02  0.00000000000E+00 0.  1.
</event>
<event>
 7    1  0.3851772E-009  0.4778727E+02  0.7816164E-02  0.1312668E+00
        -11   -1    0    0    0    0  0.00000000000E+00  0.00000000000E+00  0.45593999997E+02  0.45594000000E+02  0.51100000000E-03 0. -1.
         11   -1    0    0    0    0 -0.00000000000E+00 -0.00000000000E+00 -0.45593999997E+02  0.45594000000E+02  0.51100000000E-03 0.  1.
    9900012    2    1    2    0    0 -0.27475130588E+02 -0.28719392839E+02 -0.17433780702E+02  0.47787273792E+02  0.20000012526E+02 0.  0.
         12    1    1    2    0    0  0.27475130588E+02  0.28719392839E+02  0.17433780702E+02  0.43400726208E+02  0.00000000000E+00 0. -1.
         11    1    3    3    0    0 -0.20203809651E+02 -0.27143440602E+02 -0.11250865965E+02  0.35658691470E+02  0.51100000000E-03 0. -1.
        -11    1    3    3    0    0 -0.65278444996E+01  0.10931989699E+01 -0.16588462810E+01  0.68234601958E+01  0.51100000000E-03 0.  1.
         12    1    3    3    0    0 -0.74347643697E+00 -0.26691512063E+01 -0.45240684558E+01  0.53051221256E+01  0.00000000000E+00 0. -1.
</event>
<event>
 7    1  0.3851772E-009  0.4778727E+02  0.7816164E-02  0.1312668E+00
        -11   -1    0    0    0    0  0.00000000000E+00  0.00000000000E+00  0.45593999997E+02  0.45594000000E+02  0.51100000000E-03 0.  1.
         11   -1    0    0    0    0 -0.00000000000E+00 -0.00000000000E+00 -0.45593999997E+02  0.45594000000E+02  0.51100000000E-03 0. -1.
    9900012    2    1    2    0    0  0.25469313609E+02  0.14636869549E+02  0.31948386630E+02  0.47787270811E+02  0.19999998935E+02 0.  0.
         12    1    1    2    0    0 -0.25469313609E+02 -0.14636869549E+02 -0.31948386630E+02  0.43400729189E+02  0.00000000000E+00 0. -1.
         11    1    3    3    0    0  0.22697752135E-01 -0.25804850061E+01  0.61131127313E+01  0.66354777960E+01  0.51100000000E-03 0. -1.
        -11    1    3    3    0    0  0.11243858500E+02  0.61584915894E+01  0.53771208733E+01  0.13901971147E+02  0.51100000000E-03 0.  1.
         12    1    3    3    0    0  0.14202757356E+02  0.11058862966E+02  0.20458153025E+02  0.27249821868E+02  0.00000000000E+00 0. -1.
</event>
<event>
 7    1  0.3851772E-009  0.4778726E+02  0.7816164E-02  0.1312668E+00
        -11   -1    0    0    0    0  0.00000000000E+00  0.00000000000E+00  0.45593999997E+02  0.45594000000E+02  0.51100000000E-03 0.  1.
         11   -1    0    0    0    0 -0.00000000000E+00 -0.00000000000E+00 -0.45593999997E+02  0.45594000000E+02  0.51100000000E-03 0. -1.
    9900012    2    1    2    0    0 -0.21108541375E+02 -0.78186768667E+01  0.37106895386E+02  0.47787263691E+02  0.19999966473E+02 0.  0.
         12    1    1    2    0    0  0.21108541375E+02  0.78186768667E+01 -0.37106895386E+02  0.43400736309E+02  0.00000000000E+00 0. -1.
         11    1    3    3    0    0 -0.55321815406E+01  0.22020102591E+01  0.72722238683E+01  0.93988894042E+01  0.51100000000E-03 0. -1.
        -11    1    3    3    0    0  0.18633401119E+01 -0.42375535206E+01  0.20145300667E+01  0.50484876809E+01  0.51100000000E-03 0.  1.
        -12    1    3    3    0    0 -0.17439699947E+02 -0.57831336052E+01  0.27820141451E+02  0.33339886606E+02  0.00000000000E+00 0.  1.
</event>
<event>
 7    1  0.3851772E-009  0.4778727E+02  0.7816164E-02  0.1312668E+00
        -11   -1    0    0    0    0  0.00000000000E+00  0.00000000000E+00  0.45593999997E+02  0.45594000000E+02  0.51100000000E-03 0.  1.
         11   -1    0    0    0    0 -0.00000000000E+00 -0.00000000000E+00 -0.45593999997E+02  0.45594000000E+02  0.51100000000E-03 0. -1.
    9900012    2    1    2    0    0 -0.25354930401E+02  0.30433462891E+02  0.17735700488E+02  0.47787271539E+02  0.20000002254E+02 0.  0.
         12    1    1    2    0    0  0.25354930401E+02 -0.30433462891E+02 -0.17735700488E+02  0.43400728461E+02  0.00000000000E+00 0. -1.
         11    1    3    3    0    0 -0.84163906756E+01  0.21100468291E+02  0.31191440679E+01  0.22930208331E+02  0.51100000000E-03 0. -1.
        -11    1    3    3    0    0 -0.15684259812E+02  0.67147116374E+01  0.11374928226E+02  0.20505422469E+02  0.51100000000E-03 0.  1.
        -12    1    3    3    0    0 -0.12542799132E+01  0.26182829617E+01  0.32416281945E+01  0.43516407388E+01  0.00000000000E+00 0.  1.
</event>
<event>
 7    1  0.3851772E-009  0.4778728E+02  0.7816164E-02  0.1312668E+00
        -11   -1    0    0    0    0  0.00000000000E+00  0.00000000000E+00  0.45593999997E+02  0.45594000000E+02  0.51100000000E-03 0. -1.
         11   -1    0    0    0    0 -0.00000000000E+00 -0.00000000000E+00 -0.45593999997E+02  0.45594000000E+02  0.51100000000E-03 0.  1.
    9900012    2    1    2    0    0  0.45868096850E+01 -0.42966874283E+02 -0.40536148633E+01  0.47787275327E+02  0.20000019524E+02 0.  0.
         12    1    1    2    0    0 -0.45868096850E+01  0.42966874283E+02  0.40536148633E+01  0.43400724673E+02  0.00000000000E+00 0. -1.
         11    1    3    3    0    0 -0.13375706494E-01 -0.95271074033E+01 -0.74968400836E+01  0.12123059263E+02  0.51100000000E-03 0. -1.
        -11    1    3    3    0    0 -0.16792054488E+01 -0.16210540086E+02  0.55255350571E+01  0.17208511811E+02  0.51100000000E-03 0.  1.
        -12    1    3    3    0    0  0.62793908403E+01 -0.17229226793E+02 -0.20823098368E+01  0.18455704253E+02  0.00000000000E+00 0.  1.
</event>
<event>
 7    1  0.3851772E-009  0.4778727E+02  0.7816164E-02  0.1312668E+00
        -11   -1    0    0    0    0  0.00000000000E+00  0.00000000000E+00  0.45593999997E+02  0.45594000000E+02  0.51100000000E-03 0. -1.
         11   -1    0    0    0    0 -0.00000000000E+00 -0.00000000000E+00 -0.45593999997E+02  0.45594000000E+02  0.51100000000E-03 0.  1.
    9900012    2    1    2    0    0 -0.18177672971E+01  0.75572270204E+01 -0.42699033030E+02  0.47787269823E+02  0.19999994430E+02 0.  0.
         12    1    1    2    0    0  0.18177672971E+01 -0.75572270204E+01  0.42699033030E+02  0.43400730177E+02  0.00000000000E+00 0. -1.
         11    1    3    3    0    0  0.19127681424E+01  0.79183515848E+01 -0.44082123694E+01  0.92623598689E+01  0.51100000000E-03 0. -1.
        -11    1    3    3    0    0 -0.31862139105E+01  0.42953408233E+00 -0.26312743243E+02  0.26508431033E+02  0.51100000000E-03 0.  1.
         12    1    3    3    0    0 -0.54432152895E+00 -0.79065864666E+00 -0.11978077418E+02  0.12016478921E+02  0.00000000000E+00 0. -1.
</event>
<event>
 7    1  0.3851772E-009  0.4778727E+02  0.7816164E-02  0.1312668E+00
        -11   -1    0    0    0    0  0.00000000000E+00  0.00000000000E+00  0.45593999997E+02  0.45594000000E+02  0.51100000000E-03 0.  1.
         11   -1    0    0    0    0 -0.00000000000E+00 -0.00000000000E+00 -0.45593999997E+02  0.45594000000E+02  0.51100000000E-03 0. -1.
    9900012    2    1    2    0    0 -0.24798675458E+02  0.33752248059E+02  0.11376950886E+02  0.47787267691E+02  0.19999984710E+02 0.  0.
         12    1    1    2    0    0  0.24798675458E+02 -0.33752248059E+02 -0.11376950886E+02  0.43400732309E+02  0.00000000000E+00 0. -1.
         11    1    3    3    0    0 -0.19899540468E+02  0.22105340620E+02  0.14227151042E+02  0.32970435572E+02  0.51100000000E-03 0. -1.
        -11    1    3    3    0    0 -0.16973677857E+01  0.36862874418E+01 -0.45210066503E+01  0.60753003133E+01  0.51100000000E-03 0.  1.
        -12    1    3    3    0    0 -0.32017672037E+01  0.79606199973E+01  0.16708064944E+01  0.87415318057E+01  0.00000000000E+00 0.  1.
</event>
<event>
 7    1  0.3851772E-009  0.4778727E+02  0.7816164E-02  0.1312668E+00
        -11   -1    0    0    0    0  0.00000000000E+00  0.00000000000E+00  0.45593999997E+02  0.45594000000E+02  0.51100000000E-03 0.  1.
         11   -1    0    0    0    0 -0.00000000000E+00 -0.00000000000E+00 -0.45593999997E+02  0.45594000000E+02  0.51100000000E-03 0. -1.
    9900012    2    1    2    0    0 -0.31389606849E+02 -0.11385662141E+02  0.27725124506E+02  0.47787271327E+02  0.20000001287E+02 0.  0.
         12    1    1    2    0    0  0.31389606849E+02  0.11385662141E+02 -0.27725124506E+02  0.43400728673E+02  0.00000000000E+00 0. -1.
         11    1    3    3    0    0 -0.12651928731E+02 -0.11171709589E+02  0.15624331938E+02  0.22999959663E+02  0.51100000000E-03 0.  1.
        -11    1    3    3    0    0 -0.19674498066E+02 -0.73698008572E+00  0.12821217343E+02  0.23494948993E+02  0.51100000000E-03 0. -1.
        -12    1    3    3    0    0  0.93681994796E+00  0.52302753338E+00 -0.72042477475E+00  0.12923626703E+01  0.00000000000E+00 0.  1.
</event>
<event>
 7    1  0.3851772E-009  0.4778727E+02  0.7816164E-02  0.1312668E+00
        -11   -1    0    0    0    0  0.00000000000E+00  0.00000000000E+00  0.45593999997E+02  0.45594000000E+02  0.51100000000E-03 0.  1.
         11   -1    0    0    0    0 -0.00000000000E+00 -0.00000000000E+00 -0.45593999997E+02  0.45594000000E+02  0.51100000000E-03 0. -1.
    9900012    2    1    2    0    0 -0.35843229350E+02  0.24128768843E+02 -0.40851701665E+01  0.47787271994E+02  0.20000004330E+02 0.  0.
         12    1    1    2    0    0  0.35843229350E+02 -0.24128768843E+02  0.40851701665E+01  0.43400728006E+02  0.00000000000E+00 0. -1.
         11    1    3    3    0    0 -0.72915015723E+00  0.47502603564E-01 -0.32236466500E+00  0.79864615913E+00  0.51100000000E-03 0. -1.
        -11    1    3    3    0    0 -0.11746478291E+02 -0.17041895787E+01  0.77904188946E+00  0.11894995624E+02  0.51100000000E-03 0.  1.
        -12    1    3    3    0    0 -0.23367600902E+02  0.25785455818E+02 -0.45418473910E+01  0.35093630211E+02  0.00000000000E+00 0.  1.
</event>
<event>
 7    1  0.3851772E-009  0.4778726E+02  0.7816164E-02  0.1312668E+00
        -11   -1    0    0    0    0  0.00000000000E+00  0.00000000000E+00  0.45593999997E+02  0.45594000000E+02  0.51100000000E-03 0.  1.
         11   -1    0    0    0    0 -0.00000000000E+00 -0.00000000000E+00 -0.45593999997E+02  0.45594000000E+02  0.51100000000E-03 0. -1.
    9900012    2    1    2    0    0 -0.42969738389E+02 -0.15501511008E+01  0.59010680256E+01  0.47787262800E+02  0.19999962409E+02 0.  0.
         12    1    1    2    0    0  0.42969738389E+02  0.15501511008E+01 -0.59010680256E+01  0.43400737200E+02  0.00000000000E+00 0. -1.
         11    1    3    3    0    0 -0.18575692670E+02 -0.48739460205E+01 -0.27635351814E+01  0.19402289426E+02  0.51100000000E-03 0. -1.
        -11    1    3    3    0    0 -0.17614822845E+02  0.71984206960E+01  0.76577618676E+01  0.20511961424E+02  0.51100000000E-03 0.  1.
         12    1    3    3    0    0 -0.67792228743E+01 -0.38746257764E+01  0.10068413394E+01  0.78730119502E+01  0.00000000000E+00 0. -1.
</event>
<event>
 7    1  0.3851772E-009  0.4778723E+02  0.7816164E-02  0.1312668E+00
        -11   -1    0    0    0    0  0.00000000000E+00  0.00000000000E+00  0.45593999997E+02  0.45594000000E+02  0.51100000000E-03 0. -1.
         11   -1    0    0    0    0 -0.00000000000E+00 -0.00000000000E+00 -0.45593999997E+02  0.45594000000E+02  0.51100000000E-03 0.  1.
    9900012    2    1    2    0    0  0.26563435458E+02 -0.28416542323E+02 -0.19248662735E+02  0.47787228140E+02  0.19999804381E+02 0.  0.
         12    1    1    2    0    0 -0.26563435458E+02  0.28416542323E+02  0.19248662735E+02  0.43400771860E+02  0.00000000000E+00 0. -1.
         11    1    3    3    0    0 -0.65541912405E+00 -0.10665450366E+02 -0.53850607597E+01  0.11965796479E+02  0.51100000000E-03 0. -1.
        -11    1    3    3    0    0  0.26032913999E+02 -0.17113808371E+02 -0.11711580471E+02  0.33282971106E+02  0.51100000000E-03 0.  1.
        -12    1    3    3    0    0  0.11859405837E+01 -0.63728358636E+00 -0.21520215036E+01  0.25384605550E+01  0.00000000000E+00 0.  1.
</event>
<event>
 7    1  0.3851772E-009  0.4778727E+02  0.7816164E-02  0.1312668E+00
        -11   -1    0    0    0    0  0.00000000000E+00  0.00000000000E+00  0.45593999997E+02  0.45594000000E+02  0.51100000000E-03 0.  1.
         11   -1    0    0    0    0 -0.00000000000E+00 -0.00000000000E+00 -0.45593999997E+02  0.45594000000E+02  0.51100000000E-03 0. -1.
    9900012    2    1    2    0    0  0.85519635246E+01  0.27707992161E+02  0.32291710183E+02  0.47787268944E+02  0.19999990422E+02 0.  0.
         12    1    1    2    0    0 -0.85519635246E+01 -0.27707992161E+02 -0.32291710183E+02  0.43400731056E+02  0.00000000000E+00 0. -1.
         11    1    3    3    0    0  0.62378028664E+01  0.17614761217E+02  0.13833523601E+02  0.23249868232E+02  0.51100000000E-03 0.  1.
        -11    1    3    3    0    0 -0.44074258634E+01  0.59269925332E+01  0.12922349420E+02  0.14884278888E+02  0.51100000000E-03 0. -1.
        -12    1    3    3    0    0  0.67215865215E+01  0.41662384106E+01  0.55358371615E+01  0.96531218235E+01  0.00000000000E+00 0.  1.
</event>
<event>
 7    1  0.3851772E-009  0.4778727E+02  0.7816164E-02  0.1312668E+00
        -11   -1    0    0    0    0  0.00000000000E+00  0.00000000000E+00  0.45593999997E+02  0.45594000000E+02  0.51100000000E-03 0. -1.
         11   -1    0    0    0    0 -0.00000000000E+00 -0.00000000000E+00 -0.45593999997E+02  0.45594000000E+02  0.51100000000E-03 0.  1.
    9900012    2    1    2    0    0 -0.13367491132E+02 -0.40821896125E+02 -0.62053388950E+01  0.47787271283E+02  0.20000001086E+02 0.  0.
         12    1    1    2    0    0  0.13367491132E+02  0.40821896125E+02  0.62053388950E+01  0.43400728717E+02  0.00000000000E+00 0. -1.
         11    1    3    3    0    0 -0.43045825245E+01 -0.10462500406E+02  0.56403474866E+01  0.12641474024E+02  0.51100000000E-03 0. -1.
        -11    1    3    3    0    0 -0.65814763613E+01 -0.11525932644E+02 -0.10933061474E+01  0.13317592612E+02  0.51100000000E-03 0.  1.
         12    1    3    3    0    0 -0.24814322461E+01 -0.18833463075E+02 -0.10752380234E+02  0.21828204646E+02  0.00000000000E+00 0. -1.
</event>
<event>
 7    1  0.3851772E-009  0.4778727E+02  0.7816164E-02  0.1312668E+00
        -11   -1    0    0    0    0  0.00000000000E+00  0.00000000000E+00  0.45593999997E+02  0.45594000000E+02  0.51100000000E-03 0. -1.
         11   -1    0    0    0    0 -0.00000000000E+00 -0.00000000000E+00 -0.45593999997E+02  0.45594000000E+02  0.51100000000E-03 0.  1.
    9900012    2    1    2    0    0 -0.58519219241E+01  0.40121199763E+02 -0.15481195540E+02  0.47787273324E+02  0.20000010394E+02 0.  0.
         12    1    1    2    0    0  0.58519219241E+01 -0.40121199763E+02  0.15481195540E+02  0.43400726676E+02  0.00000000000E+00 0. -1.
         11    1    3    3    0    0 -0.74854581444E+00  0.19438458172E+02 -0.97484203946E+01  0.21758806892E+02  0.51100000000E-03 0. -1.
        -11    1    3    3    0    0 -0.55049664858E+01  0.31673633350E+01  0.23000119850E+01  0.67547688264E+01  0.51100000000E-03 0.  1.
        -12    1    3    3    0    0  0.40159037620E+00  0.17515378257E+02 -0.80327871307E+01  0.19273697605E+02  0.00000000000E+00 0.  1.
</event>
<event>
 7    1  0.3851772E-009  0.4778727E+02  0.7816164E-02  0.1312668E+00
        -11   -1    0    0    0    0  0.00000000000E+00  0.00000000000E+00  0.45593999997E+02  0.45594000000E+02  0.51100000000E-03 0.  1.
         11   -1    0    0    0    0 -0.00000000000E+00 -0.00000000000E+00 -0.45593999997E+02  0.45594000000E+02  0.51100000000E-03 0. -1.
    9900012    2    1    2    0    0  0.22517076706E+02  0.19339367500E+02  0.31663752788E+02  0.47787272825E+02  0.20000008118E+02 0.  0.
         12    1    1    2    0    0 -0.22517076706E+02 -0.19339367500E+02 -0.31663752788E+02  0.43400727175E+02  0.00000000000E+00 0. -1.
         11    1    3    3    0    0  0.10832330265E+01  0.89759929722E+01  0.14993340728E+02  0.17508344013E+02  0.51100000000E-03 0. -1.
        -11    1    3    3    0    0  0.18432586372E+02  0.10241005262E+02  0.10815318191E+02  0.23698302407E+02  0.51100000000E-03 0.  1.
        -12    1    3    3    0    0  0.30012573073E+01  0.12236926529E+00  0.58550938689E+01  0.65806264045E+01  0.00000000000E+00 0.  1.
</event>
<event>
 7    1  0.3851772E-009  0.4778727E+02  0.7816164E-02  0.1312668E+00
        -11   -1    0    0    0    0  0.00000000000E+00  0.00000000000E+00  0.45593999997E+02  0.45594000000E+02  0.51100000000E-03 0.  1.
         11   -1    0    0    0    0 -0.00000000000E+00 -0.00000000000E+00 -0.45593999997E+02  0.45594000000E+02  0.51100000000E-03 0. -1.
    9900012    2    1    2    0    0 -0.29417476287E+02  0.18839481138E+02  0.25754791907E+02  0.47787271126E+02  0.20000000372E+02 0.  0.
         12    1    1    2    0    0  0.29417476287E+02 -0.18839481138E+02 -0.25754791907E+02  0.43400728874E+02  0.00000000000E+00 0. -1.
         11    1    3    3    0    0  0.27129523970E+01  0.58795311686E+00  0.38794379818E+01  0.47703080499E+01  0.51100000000E-03 0. -1.
        -11    1    3    3    0    0 -0.52321156120E+00  0.73756911782E+00  0.52807992615E+00  0.10471996996E+01  0.51100000000E-03 0.  1.
         12    1    3    3    0    0 -0.31607217122E+02  0.17513958903E+02  0.21347273999E+02  0.41969763376E+02  0.00000000000E+00 0. -1.
</event>
<event>
 7    1  0.3851772E-009  0.4778727E+02  0.7816164E-02  0.1312668E+00
        -11   -1    0    0    0    0  0.00000000000E+00  0.00000000000E+00  0.45593999997E+02  0.45594000000E+02  0.51100000000E-03 0. -1.
         11   -1    0    0    0    0 -0.00000000000E+00 -0.00000000000E+00 -0.45593999997E+02  0.45594000000E+02  0.51100000000E-03 0.  1.
    9900012    2    1    2    0    0 -0.14194585421E+02 -0.40857101648E+02  0.35825601048E+01  0.47787265591E+02  0.19999975137E+02 0.  0.
         12    1    1    2    0    0  0.14194585421E+02  0.40857101648E+02 -0.35825601048E+01  0.43400734409E+02  0.00000000000E+00 0. -1.
         11    1    3    3    0    0 -0.99747592663E-01 -0.68278071325E+01  0.65026342063E+01  0.94293770580E+01  0.51100000000E-03 0. -1.
        -11    1    3    3    0    0 -0.13579881547E+02 -0.34188277677E+02 -0.41452824762E+01  0.37019385198E+02  0.51100000000E-03 0.  1.
         12    1    3    3    0    0 -0.51495628152E+00  0.15898316194E+00  0.12252083747E+01  0.13385033355E+01  0.00000000000E+00 0. -1.
</event>
<event>
 7    1  0.3851772E-009  0.4778727E+02  0.7816164E-02  0.1312668E+00
        -11   -1    0    0    0    0  0.00000000000E+00  0.00000000000E+00  0.45593999997E+02  0.45594000000E+02  0.51100000000E-03 0. -1.
         11   -1    0    0    0    0 -0.00000000000E+00 -0.00000000000E+00 -0.45593999997E+02  0.45594000000E+02  0.51100000000E-03 0.  1.
    9900012    2    1    2    0    0 -0.33869663572E+02  0.21068931207E+02 -0.17104654308E+02  0.47787272222E+02  0.20000005369E+02 0.  0.
         12    1    1    2    0    0  0.33869663572E+02 -0.21068931207E+02  0.17104654308E+02  0.43400727778E+02  0.00000000000E+00 0. -1.
         11    1    3    3    0    0 -0.14079919199E+01  0.31008227149E+01  0.31536567523E+01  0.46414538593E+01  0.51100000000E-03 0. -1.
        -11    1    3    3    0    0 -0.20926831964E+02  0.68623398218E+01 -0.10543242953E+02  0.24416878918E+02  0.51100000000E-03 0.  1.
         12    1    3    3    0    0 -0.11534839688E+02  0.11105768670E+02 -0.97150681081E+01  0.18728939444E+02  0.00000000000E+00 0. -1.
</event>
<event>
 7    1  0.3851772E-009  0.4778727E+02  0.7816164E-02  0.1312668E+00
        -11   -1    0    0    0    0  0.00000000000E+00  0.00000000000E+00  0.45593999997E+02  0.45594000000E+02  0.51100000000E-03 0.  1.
         11   -1    0    0    0    0 -0.00000000000E+00 -0.00000000000E+00 -0.45593999997E+02  0.45594000000E+02  0.51100000000E-03 0. -1.
    9900012    2    1    2    0    0  0.92425146605E+01 -0.31170629534E+02  0.28750495214E+02  0.47787271920E+02  0.20000003992E+02 0.  0.
         12    1    1    2    0    0 -0.92425146605E+01  0.31170629534E+02 -0.28750495214E+02  0.43400728080E+02  0.00000000000E+00 0. -1.
         11    1    3    3    0    0 -0.35938910162E+01 -0.65048640971E+01  0.12889813205E+02  0.14878729592E+02  0.51100000000E-03 0. -1.
        -11    1    3    3    0    0  0.93958474744E+01 -0.12087956366E+02  0.55509343986E+01  0.16285377240E+02  0.51100000000E-03 0.  1.
         12    1    3    3    0    0  0.34405582023E+01 -0.12577809070E+02  0.10309747611E+02  0.16623165089E+02  0.00000000000E+00 0. -1.
</event>
<event>
 7    1  0.3851772E-009  0.4778727E+02  0.7816164E-02  0.1312668E+00
        -11   -1    0    0    0    0  0.00000000000E+00  0.00000000000E+00  0.45593999997E+02  0.45594000000E+02  0.51100000000E-03 0.  1.
         11   -1    0    0    0    0 -0.00000000000E+00 -0.00000000000E+00 -0.45593999997E+02  0.45594000000E+02  0.51100000000E-03 0. -1.
    9900012    2    1    2    0    0 -0.65523258208E+01  0.39413991015E+01  0.42721844330E+02  0.47787267477E+02  0.19999983737E+02 0.  0.
         12    1    1    2    0    0  0.65523258208E+01 -0.39413991015E+01 -0.42721844330E+02  0.43400732523E+02  0.00000000000E+00 0. -1.
         11    1    3    3    0    0 -0.30148706334E+01  0.85350313955E+01  0.85499056541E+01  0.12451389192E+02  0.51100000000E-03 0. -1.
        -11    1    3    3    0    0 -0.11796276825E+01 -0.59651021222E+01  0.26642630922E+02  0.27327710250E+02  0.51100000000E-03 0.  1.
        -12    1    3    3    0    0 -0.23578275049E+01  0.13714698282E+01  0.75293077540E+01  0.80081680356E+01  0.00000000000E+00 0.  1.
</event>
<event>
 7    1  0.3851772E-009  0.4778727E+02  0.7816164E-02  0.1312668E+00
        -11   -1    0    0    0    0  0.00000000000E+00  0.00000000000E+00  0.45593999997E+02  0.45594000000E+02  0.51100000000E-03 0. -1.
         11   -1    0    0    0    0 -0.00000000000E+00 -0.00000000000E+00 -0.45593999997E+02  0.45594000000E+02  0.51100000000E-03 0.  1.
    9900012    2    1    2    0    0 -0.23918922344E+02  0.12469951461E+01 -0.36193278546E+02  0.47787271263E+02  0.20000000995E+02 0.  0.
         12    1    1    2    0    0  0.23918922344E+02 -0.12469951461E+01  0.36193278546E+02  0.43400728737E+02  0.00000000000E+00 0. -1.
         11    1    3    3    0    0 -0.10295194255E+01  0.53597865011E+01 -0.48258998799E+01  0.72853641980E+01  0.51100000000E-03 0. -1.
        -11    1    3    3    0    0 -0.73786455555E+01 -0.65301115237E+01 -0.13581142535E+02  0.16778980886E+02  0.51100000000E-03 0.  1.
        -12    1    3    3    0    0 -0.15510757363E+02  0.24173201687E+01 -0.17786236131E+02  0.23722926179E+02  0.00000000000E+00 0.  1.
</event>
<event>
 7    1  0.3851772E-009  0.4778724E+02  0.7816164E-02  0.1312668E+00
        -11   -1    0    0    0    0  0.00000000000E+00  0.00000000000E+00  0.45593999997E+02  0.45594000000E+02  0.51100000000E-03 0.  1.
         11   -1    0    0    0    0 -0.00000000000E+00 -0.00000000000E+00 -0.45593999997E+02  0.45594000000E+02  0.51100000000E-03 0. -1.
    9900012    2    1    2    0    0 -0.14073671051E+01 -0.20291536991E+02  0.38339264844E+02  0.47787235209E+02  0.19999836611E+02 0.  0.
         12    1    1    2    0    0  0.14073671051E+01  0.20291536991E+02 -0.38339264844E+02  0.43400764791E+02  0.00000000000E+00 0. -1.
         11    1    3    3    0    0 -0.71368655280E+01 -0.40764024256E+01  0.36805155987E+01  0.90054484415E+01  0.51100000000E-03 0. -1.
        -11    1    3    3    0    0  0.16006787440E+01 -0.82460220426E+01  0.15698974933E+02  0.17804967458E+02  0.51100000000E-03 0.  1.
         12    1    3    3    0    0  0.41288196789E+01 -0.79691125233E+01  0.18959774313E+02  0.20976819310E+02  0.00000000000E+00 0. -1.
</event>
<event>
 7    1  0.3851772E-009  0.4778727E+02  0.7816164E-02  0.1312668E+00
        -11   -1    0    0    0    0  0.00000000000E+00  0.00000000000E+00  0.45593999997E+02  0.45594000000E+02  0.51100000000E-03 0. -1.
         11   -1    0    0    0    0 -0.00000000000E+00 -0.00000000000E+00 -0.45593999997E+02  0.45594000000E+02  0.51100000000E-03 0.  1.
    9900012    2    1    2    0    0 -0.16577312330E+02  0.36889198766E+02  0.15748120956E+02  0.47787267479E+02  0.19999983744E+02 0.  0.
         12    1    1    2    0    0  0.16577312330E+02 -0.36889198766E+02 -0.15748120956E+02  0.43400732521E+02  0.00000000000E+00 0. -1.
         11    1    3    3    0    0 -0.10608449654E+02  0.34157878303E+02  0.15979694279E+02  0.39174615298E+02  0.51100000000E-03 0. -1.
        -11    1    3    3    0    0 -0.68405634451E+01  0.13446136988E+01 -0.20710340155E+00  0.69745384310E+01  0.51100000000E-03 0.  1.
         12    1    3    3    0    0  0.87170076897E+00  0.13867067648E+01 -0.24469921173E-01  0.16381137504E+01  0.00000000000E+00 0. -1.
</event>
<event>
 7    1  0.3851772E-009  0.4778727E+02  0.7816164E-02  0.1312668E+00
        -11   -1    0    0    0    0  0.00000000000E+00  0.00000000000E+00  0.45593999997E+02  0.45594000000E+02  0.51100000000E-03 0.  1.
         11   -1    0    0    0    0 -0.00000000000E+00 -0.00000000000E+00 -0.45593999997E+02  0.45594000000E+02  0.51100000000E-03 0. -1.
    9900012    2    1    2    0    0 -0.14747134986E+02 -0.13158761199E+02  0.38639260205E+02  0.47787269409E+02  0.19999992545E+02 0.  0.
         12    1    1    2    0    0  0.14747134986E+02  0.13158761199E+02 -0.38639260205E+02  0.43400730591E+02  0.00000000000E+00 0. -1.
         11    1    3    3    0    0 -0.55873685971E+01 -0.97282535854E+01  0.69351399395E+01  0.13189153570E+02  0.51100000000E-03 0. -1.
        -11    1    3    3    0    0 -0.36703643965E+00 -0.15346825413E+01  0.18813262886E+02  0.18879322734E+02  0.51100000000E-03 0.  1.
         12    1    3    3    0    0 -0.87927299495E+01 -0.18958250719E+01  0.12890857380E+02  0.15718793105E+02  0.00000000000E+00 0. -1.
</event>
<event>
 7    1  0.3851772E-009  0.4778725E+02  0.7816164E-02  0.1312668E+00
        -11   -1    0    0    0    0  0.00000000000E+00  0.00000000000E+00  0.45593999997E+02  0.45594000000E+02  0.51100000000E-03 0.  1.
         11   -1    0    0    0    0 -0.00000000000E+00 -0.00000000000E+00 -0.45593999997E+02  0.45594000000E+02  0.51100000000E-03 0. -1.
    9900012    2    1    2    0    0  0.25326297439E+02  0.78240128244E+01  0.34365517523E+02  0.47787247550E+02  0.19999892879E+02 0.  0.
         12    1    1    2    0    0 -0.25326297439E+02 -0.78240128244E+01 -0.34365517523E+02  0.43400752450E+02  0.00000000000E+00 0. -1.
         11    1    3    3    0    0  0.65261414648E+01  0.10052813449E+02  0.83845732252E+01  0.14627051962E+02  0.51100000000E-03 0. -1.
        -11    1    3    3    0    0  0.16800301182E+02  0.95996607136E+00  0.20750533657E+02  0.26716217958E+02  0.51100000000E-03 0.  1.
        -12    1    3    3    0    0  0.19998547921E+01 -0.31887666963E+01  0.52304106402E+01  0.64439776301E+01  0.00000000000E+00 0.  1.
</event>
<event>
 7    1  0.3851772E-009  0.4778727E+02  0.7816164E-02  0.1312668E+00
        -11   -1    0    0    0    0  0.00000000000E+00  0.00000000000E+00  0.45593999997E+02  0.45594000000E+02  0.51100000000E-03 0.  1.
         11   -1    0    0    0    0 -0.00000000000E+00 -0.00000000000E+00 -0.45593999997E+02  0.45594000000E+02  0.51100000000E-03 0. -1.
    9900012    2    1    2    0    0  0.14796784311E+02  0.20413131837E+02  0.35326794369E+02  0.47787272152E+02  0.20000005050E+02 0.  0.
         12    1    1    2    0    0 -0.14796784311E+02 -0.20413131837E+02 -0.35326794369E+02  0.43400727848E+02  0.00000000000E+00 0. -1.
         11    1    3    3    0    0  0.65615386749E+01  0.18904550727E+02  0.25256880510E+02  0.32223374146E+02  0.51100000000E-03 0. -1.
        -11    1    3    3    0    0  0.75486406054E+01 -0.69926133956E+00  0.30473801251E+01  0.81705242977E+01  0.51100000000E-03 0.  1.
        -12    1    3    3    0    0  0.68660503071E+00  0.22078424488E+01  0.70225337340E+01  0.73933737084E+01  0.00000000000E+00 0.  1.
</event>
<event>
 7    1  0.3851772E-009  0.4778729E+02  0.7816164E-02  0.1312668E+00
        -11   -1    0    0    0    0  0.00000000000E+00  0.00000000000E+00  0.45593999997E+02  0.45594000000E+02  0.51100000000E-03 0.  1.
         11   -1    0    0    0    0 -0.00000000000E+00 -0.00000000000E+00 -0.45593999997E+02  0.45594000000E+02  0.51100000000E-03 0. -1.
    9900012    2    1    2    0    0 -0.21902436281E+02  0.33843223971E+01  0.37315567254E+02  0.47787286726E+02  0.20000071501E+02 0.  0.
         12    1    1    2    0    0  0.21902436281E+02 -0.33843223971E+01 -0.37315567254E+02  0.43400713274E+02  0.00000000000E+00 0. -1.
         11    1    3    3    0    0  0.83155944215E+00 -0.25084093200E+01  0.94506753709E+01  0.98131989509E+01  0.51100000000E-03 0. -1.
        -11    1    3    3    0    0 -0.22335644239E+02  0.47856685714E+01  0.28587966274E+02  0.36593106498E+02  0.51100000000E-03 0.  1.
        -12    1    3    3    0    0 -0.39835148448E+00  0.11070631457E+01 -0.72307439078E+00  0.13809812773E+01  0.00000000000E+00 0.  1.
</event>
<event>
 7    1  0.3851772E-009  0.4778726E+02  0.7816164E-02  0.1312668E+00
        -11   -1    0    0    0    0  0.00000000000E+00  0.00000000000E+00  0.45593999997E+02  0.45594000000E+02  0.51100000000E-03 0. -1.
         11   -1    0    0    0    0 -0.00000000000E+00 -0.00000000000E+00 -0.45593999997E+02  0.45594000000E+02  0.51100000000E-03 0.  1.
    9900012    2    1    2    0    0 -0.92906213272E+01 -0.29444450123E+02 -0.30501361158E+02  0.47787258990E+02  0.19999945041E+02 0.  0.
         12    1    1    2    0    0  0.92906213272E+01  0.29444450123E+02  0.30501361158E+02  0.43400741010E+02  0.00000000000E+00 0. -1.
         11    1    3    3    0    0  0.18347815251E+01 -0.13863231479E+02 -0.67985146118E+01  0.15549128962E+02  0.51100000000E-03 0. -1.
        -11    1    3    3    0    0 -0.11487810513E+02 -0.96197943280E+01 -0.12378916579E+02  0.19435735366E+02  0.51100000000E-03 0.  1.
         12    1    3    3    0    0  0.36240766030E+00 -0.59614243156E+01 -0.11323929967E+02  0.12802394662E+02  0.00000000000E+00 0. -1.
</event>
<event>
 7    1  0.3851772E-009  0.4778727E+02  0.7816164E-02  0.1312668E+00
        -11   -1    0    0    0    0  0.00000000000E+00  0.00000000000E+00  0.45593999997E+02  0.45594000000E+02  0.51100000000E-03 0. -1.
         11   -1    0    0    0    0 -0.00000000000E+00 -0.00000000000E+00 -0.45593999997E+02  0.45594000000E+02  0.51100000000E-03 0.  1.
    9900012    2    1    2    0    0  0.21458282084E+02  0.35786817018E+02  0.11936030479E+02  0.47787274593E+02  0.20000016178E+02 0.  0.
         12    1    1    2    0    0 -0.21458282084E+02 -0.35786817018E+02 -0.11936030479E+02  0.43400725407E+02  0.00000000000E+00 0. -1.
         11    1    3    3    0    0  0.22942978726E+01  0.73001162325E+01  0.24210337726E+01  0.80260142366E+01  0.51100000000E-03 0. -1.
        -11    1    3    3    0    0 -0.21691251403E+01  0.54824007676E+01 -0.21696556944E+01  0.62824539906E+01  0.51100000000E-03 0.  1.
        -12    1    3    3    0    0  0.21333109352E+02  0.23004300018E+02  0.11684652401E+02  0.33478806366E+02  0.00000000000E+00 0.  1.
</event>
<event>
 7    1  0.3851772E-009  0.4778726E+02  0.7816164E-02  0.1312668E+00
        -11   -1    0    0    0    0  0.00000000000E+00  0.00000000000E+00  0.45593999997E+02  0.45594000000E+02  0.51100000000E-03 0. -1.
         11   -1    0    0    0    0 -0.00000000000E+00 -0.00000000000E+00 -0.45593999997E+02  0.45594000000E+02  0.51100000000E-03 0.  1.
    9900012    2    1    2    0    0  0.40446953078E+02 -0.13373387842E+02 -0.82958000726E+01  0.47787264816E+02  0.19999971604E+02 0.  0.
         12    1    1    2    0    0 -0.40446953078E+02  0.13373387842E+02  0.82958000726E+01  0.43400735184E+02  0.00000000000E+00 0. -1.
         11    1    3    3    0    0  0.14290121996E+02 -0.11742248136E+02  0.65847528809E+00  0.18507338218E+02  0.51100000000E-03 0. -1.
        -11    1    3    3    0    0  0.14648722643E+02 -0.17078720679E+01 -0.98530336802E+01  0.17736520939E+02  0.51100000000E-03 0.  1.
        -12    1    3    3    0    0  0.11508108438E+02  0.76732362013E-01  0.89875831953E+00  0.11543405659E+02  0.00000000000E+00 0.  1.
</event>
<event>
 7    1  0.3851772E-009  0.4778727E+02  0.7816164E-02  0.1312668E+00
        -11   -1    0    0    0    0  0.00000000000E+00  0.00000000000E+00  0.45593999997E+02  0.45594000000E+02  0.51100000000E-03 0. -1.
         11   -1    0    0    0    0 -0.00000000000E+00 -0.00000000000E+00 -0.45593999997E+02  0.45594000000E+02  0.51100000000E-03 0.  1.
    9900012    2    1    2    0    0 -0.31067596406E+02  0.29167036461E+02 -0.82287094865E+01  0.47787271640E+02  0.20000002716E+02 0.  0.
         12    1    1    2    0    0  0.31067596406E+02 -0.29167036461E+02  0.82287094865E+01  0.43400728360E+02  0.00000000000E+00 0. -1.
         11    1    3    3    0    0 -0.83738953810E+01  0.51740368680E+01 -0.73333722658E+01  0.12274816920E+02  0.51100000000E-03 0.  1.
        -11    1    3    3    0    0 -0.23004988800E+02  0.18674650627E+02  0.15059380848E+01  0.29668837785E+02  0.51100000000E-03 0. -1.
        -12    1    3    3    0    0  0.31128777442E+00  0.53183489656E+01 -0.24012753054E+01  0.58436169357E+01  0.00000000000E+00 0.  1.
</event>
<event>
 7    1  0.3851772E-009  0.4778727E+02  0.7816164E-02  0.1312668E+00
        -11   -1    0    0    0    0  0.00000000000E+00  0.00000000000E+00  0.45593999997E+02  0.45594000000E+02  0.51100000000E-03 0.  1.
         11   -1    0    0    0    0 -0.00000000000E+00 -0.00000000000E+00 -0.45593999997E+02  0.45594000000E+02  0.51100000000E-03 0. -1.
    9900012    2    1    2    0    0  0.55837784101E+00  0.20403728139E+02  0.38301429324E+02  0.47787269637E+02  0.19999993581E+02 0.  0.
         12    1    1    2    0    0 -0.55837784101E+00 -0.20403728139E+02 -0.38301429324E+02  0.43400730363E+02  0.00000000000E+00 0. -1.
         11    1    3    3    0    0  0.13561647278E+01 -0.89814301960E+00 -0.14134897006E+01  0.21549471101E+01  0.51100000000E-03 0. -1.
        -11    1    3    3    0    0  0.10397257677E+01  0.91665007613E+01  0.23863416332E+02  0.25584534492E+02  0.51100000000E-03 0.  1.
         12    1    3    3    0    0 -0.18375126545E+01  0.12135370398E+02  0.15851502693E+02  0.20047788034E+02  0.00000000000E+00 0. -1.
</event>
<event>
 7    1  0.3851772E-009  0.4778728E+02  0.7816164E-02  0.1312668E+00
        -11   -1    0    0    0    0  0.00000000000E+00  0.00000000000E+00  0.45593999997E+02  0.45594000000E+02  0.51100000000E-03 0.  1.
         11   -1    0    0    0    0 -0.00000000000E+00 -0.00000000000E+00 -0.45593999997E+02  0.45594000000E+02  0.51100000000E-03 0. -1.
    9900012    2    1    2    0    0  0.16436300251E+02 -0.30710044343E+01  0.40050466360E+02  0.47787275469E+02  0.20000020174E+02 0.  0.
         12    1    1    2    0    0 -0.16436300251E+02  0.30710044343E+01 -0.40050466360E+02  0.43400724531E+02  0.00000000000E+00 0. -1.
         11    1    3    3    0    0  0.89607156999E+01  0.37821876960E+01  0.18998621610E+02  0.21343546869E+02  0.51100000000E-03 0. -1.
        -11    1    3    3    0    0  0.24501654036E+01 -0.65659775730E+01  0.20144785408E+02  0.21329035407E+02  0.51100000000E-03 0.  1.
         12    1    3    3    0    0  0.50254191472E+01 -0.28721455728E+00  0.90705934148E+00  0.51146931928E+01  0.00000000000E+00 0. -1.
</event>
<event>
 7    1  0.3851772E-009  0.4778727E+02  0.7816164E-02  0.1312668E+00
        -11   -1    0    0    0    0  0.00000000000E+00  0.00000000000E+00  0.45593999997E+02  0.45594000000E+02  0.51100000000E-03 0.  1.
         11   -1    0    0    0    0 -0.00000000000E+00 -0.00000000000E+00 -0.45593999997E+02  0.45594000000E+02  0.51100000000E-03 0. -1.
    9900012    2    1    2    0    0  0.13577170252E+01 -0.19775390978E+02  0.38609767172E+02  0.47787267230E+02  0.19999982609E+02 0.  0.
         12    1    1    2    0    0 -0.13577170252E+01  0.19775390978E+02 -0.38609767172E+02  0.43400732770E+02  0.00000000000E+00 0. -1.
         11    1    3    3    0    0 -0.69787330450E+00  0.25296945215E+01  0.88076115651E+01  0.91902341246E+01  0.51100000000E-03 0. -1.
        -11    1    3    3    0    0 -0.17842760532E+01 -0.17478639224E+02  0.17304322988E+02  0.24660212175E+02  0.51100000000E-03 0.  1.
        -12    1    3    3    0    0  0.38398663829E+01 -0.48264462755E+01  0.12497832619E+02  0.13936820931E+02  0.00000000000E+00 0.  1.
</event>
<event>
 7    1  0.3851772E-009  0.4778727E+02  0.7816164E-02  0.1312668E+00
        -11   -1    0    0    0    0  0.00000000000E+00  0.00000000000E+00  0.45593999997E+02  0.45594000000E+02  0.51100000000E-03 0.  1.
         11   -1    0    0    0    0 -0.00000000000E+00 -0.00000000000E+00 -0.45593999997E+02  0.45594000000E+02  0.51100000000E-03 0. -1.
    9900012    2    1    2    0    0  0.10542441402E+02 -0.23429776551E+02  0.34978932366E+02  0.47787271787E+02  0.20000003387E+02 0.  0.
         12    1    1    2    0    0 -0.10542441402E+02  0.23429776551E+02 -0.34978932366E+02  0.43400728213E+02  0.00000000000E+00 0. -1.
         11    1    3    3    0    0  0.12005781955E+02 -0.17112224443E+02  0.19831745912E+02  0.28814322340E+02  0.51100000000E-03 0. -1.
        -11    1    3    3    0    0  0.44869672890E+00 -0.60168048985E+01  0.15813895876E+02  0.16925796081E+02  0.51100000000E-03 0.  1.
         12    1    3    3    0    0 -0.19120372819E+01 -0.30074720918E+00 -0.66670942221E+00  0.20471533662E+01  0.00000000000E+00 0. -1.
</event>
<event>
 7    1  0.3851772E-009  0.4778727E+02  0.7816164E-02  0.1312668E+00
        -11   -1    0    0    0    0  0.00000000000E+00  0.00000000000E+00  0.45593999997E+02  0.45594000000E+02  0.51100000000E-03 0.  1.
         11   -1    0    0    0    0 -0.00000000000E+00 -0.00000000000E+00 -0.45593999997E+02  0.45594000000E+02  0.51100000000E-03 0. -1.
    9900012    2    1    2    0    0  0.41272351280E+02 -0.90977927680E+01  0.98714888427E+01  0.47787272985E+02  0.20000008850E+02 0.  0.
         12    1    1    2    0    0 -0.41272351280E+02  0.90977927680E+01 -0.98714888427E+01  0.43400727015E+02  0.00000000000E+00 0. -1.
         11    1    3    3    0    0  0.25353992162E+01 -0.67842082630E+01 -0.74345617719E+00  0.72805534329E+01  0.51100000000E-03 0. -1.
        -11    1    3    3    0    0  0.34653711335E+02 -0.29141442077E+01  0.10680001107E+02  0.36379037503E+02  0.51100000000E-03 0.  1.
         12    1    3    3    0    0  0.40832407288E+01  0.60055970269E+00 -0.65056087252E-01  0.41276820493E+01  0.00000000000E+00 0. -1.
</event>
<event>
 7    1  0.3851772E-009  0.4778726E+02  0.7816164E-02  0.1312668E+00
        -11   -1    0    0    0    0  0.00000000000E+00  0.00000000000E+00  0.45593999997E+02  0.45594000000E+02  0.51100000000E-03 0.  1.
         11   -1    0    0    0    0 -0.00000000000E+00 -0.00000000000E+00 -0.45593999997E+02  0.45594000000E+02  0.51100000000E-03 0. -1.
    9900012    2    1    2    0    0 -0.93266715838E+01 -0.40681976821E+02  0.11900192708E+02  0.47787255451E+02  0.19999928904E+02 0.  0.
         12    1    1    2    0    0  0.93266715838E+01  0.40681976821E+02 -0.11900192708E+02  0.43400744549E+02  0.00000000000E+00 0. -1.
         11    1    3    3    0    0 -0.77237100296E+01 -0.12096823518E+02 -0.10689650368E+01  0.14392064562E+02  0.51100000000E-03 0. -1.
        -11    1    3    3    0    0 -0.48350056133E+01 -0.19346733306E+02  0.12623942630E+02  0.23601637585E+02  0.51100000000E-03 0.  1.
         12    1    3    3    0    0  0.32320440591E+01 -0.92384199972E+01  0.34521511433E+00  0.97935533041E+01  0.00000000000E+00 0. -1.
</event>
<event>
 7    1  0.3851772E-009  0.4778727E+02  0.7816164E-02  0.1312668E+00
        -11   -1    0    0    0    0  0.00000000000E+00  0.00000000000E+00  0.45593999997E+02  0.45594000000E+02  0.51100000000E-03 0.  1.
         11   -1    0    0    0    0 -0.00000000000E+00 -0.00000000000E+00 -0.45593999997E+02  0.45594000000E+02  0.51100000000E-03 0. -1.
    9900012    2    1    2    0    0  0.22835748686E+02 -0.32871642869E+02 -0.16781150305E+02  0.47787270415E+02  0.19999997128E+02 0.  0.
         12    1    1    2    0    0 -0.22835748686E+02  0.32871642869E+02  0.16781150305E+02  0.43400729585E+02  0.00000000000E+00 0. -1.
         11    1    3    3    0    0  0.10550241953E+02 -0.13959007691E+02 -0.17742735066E+02  0.24919192380E+02  0.51100000000E-03 0. -1.
        -11    1    3    3    0    0  0.86314180209E+01 -0.99810669982E+01  0.40086656540E+00  0.13201657840E+02  0.51100000000E-03 0.  1.
         12    1    3    3    0    0  0.36540887119E+01 -0.89315681801E+01  0.56071819543E+00  0.96664201939E+01  0.00000000000E+00 0. -1.
</event>
<event>
 7    1  0.3851772E-009  0.4778727E+02  0.7816164E-02  0.1312668E+00
        -11   -1    0    0    0    0  0.00000000000E+00  0.00000000000E+00  0.45593999997E+02  0.45594000000E+02  0.51100000000E-03 0.  1.
         11   -1    0    0    0    0 -0.00000000000E+00 -0.00000000000E+00 -0.45593999997E+02  0.45594000000E+02  0.51100000000E-03 0. -1.
    9900012    2    1    2    0    0  0.22431566429E+01  0.23058865535E+02  0.36699867160E+02  0.47787270962E+02  0.19999999623E+02 0.  0.
         12    1    1    2    0    0 -0.22431566429E+01 -0.23058865535E+02 -0.36699867160E+02  0.43400729038E+02  0.00000000000E+00 0. -1.
         11    1    3    3    0    0 -0.28930500824E+01  0.15593044313E+02  0.12971748931E+02  0.20488509958E+02  0.51100000000E-03 0. -1.
        -11    1    3    3    0    0  0.76697205021E+01  0.74180111032E+01  0.21120286722E+02  0.23662586773E+02  0.51100000000E-03 0.  1.
         12    1    3    3    0    0 -0.25335137769E+01  0.47810118766E-01  0.26078315079E+01  0.36361742311E+01  0.00000000000E+00 0. -1.
</event>
<event>
 7    1  0.3851772E-009  0.4778727E+02  0.7816164E-02  0.1312668E+00
        -11   -1    0    0    0    0  0.00000000000E+00  0.00000000000E+00  0.45593999997E+02  0.45594000000E+02  0.51100000000E-03 0.  1.
         11   -1    0    0    0    0 -0.00000000000E+00 -0.00000000000E+00 -0.45593999997E+02  0.45594000000E+02  0.51100000000E-03 0. -1.
    9900012    2    1    2    0    0  0.35543634583E+02 -0.29697916125E+01  0.24727586255E+02  0.47787272546E+02  0.20000006844E+02 0.  0.
         12    1    1    2    0    0 -0.35543634583E+02  0.29697916125E+01 -0.24727586255E+02  0.43400727454E+02  0.00000000000E+00 0. -1.
         11    1    3    3    0    0  0.50039863389E+01 -0.38975164150E+01  0.77220502694E+01  0.99930262738E+01  0.51100000000E-03 0. -1.
        -11    1    3    3    0    0  0.29765485268E+02 -0.43408154512E+00  0.11240438754E+02  0.31820119479E+02  0.51100000000E-03 0.  1.
        -12    1    3    3    0    0  0.77416297573E+00  0.13618063476E+01  0.57650972320E+01  0.59741267927E+01  0.00000000000E+00 0.  1.
</event>
<event>
 7    1  0.3851772E-009  0.4778728E+02  0.7816164E-02  0.1312668E+00
        -11   -1    0    0    0    0  0.00000000000E+00  0.00000000000E+00  0.45593999997E+02  0.45594000000E+02  0.51100000000E-03 0. -1.
         11   -1    0    0    0    0 -0.00000000000E+00 -0.00000000000E+00 -0.45593999997E+02  0.45594000000E+02  0.51100000000E-03 0.  1.
    9900012    2    1    2    0    0  0.35229124395E+02  0.22066548063E+02 -0.12473925693E+02  0.47787279139E+02  0.20000036905E+02 0.  0.
         12    1    1    2    0    0 -0.35229124395E+02 -0.22066548063E+02  0.12473925693E+02  0.43400720861E+02  0.00000000000E+00 0. -1.
         11    1    3    3    0    0  0.12597362011E+02  0.69086622923E+01 -0.83279392445E+01  0.16606556435E+02  0.51100000000E-03 0. -1.
        -11    1    3    3    0    0  0.60900143323E+01  0.15820334138E+01 -0.72028614122E+01  0.95641161156E+01  0.51100000000E-03 0.  1.
         12    1    3    3    0    0  0.16541748052E+02  0.13575852357E+02  0.30568749640E+01  0.21616606588E+02  0.00000000000E+00 0. -1.
</event>
<event>
 7    1  0.3851772E-009  0.4778727E+02  0.7816164E-02  0.1312668E+00
        -11   -1    0    0    0    0  0.00000000000E+00  0.00000000000E+00  0.45593999997E+02  0.45594000000E+02  0.51100000000E-03 0.  1.
         11   -1    0    0    0    0 -0.00000000000E+00 -0.00000000000E+00 -0.45593999997E+02  0.45594000000E+02  0.51100000000E-03 0. -1.
    9900012    2    1    2    0    0  0.35071524043E+02 -0.24919294651E+02  0.57131714005E+01  0.47787269914E+02  0.19999994845E+02 0.  0.
         12    1    1    2    0    0 -0.35071524043E+02  0.24919294651E+02 -0.57131714005E+01  0.43400730086E+02  0.00000000000E+00 0. -1.
         11    1    3    3    0    0  0.19324292138E+02 -0.19007717099E+02 -0.14513039132E+01  0.27144573293E+02  0.51100000000E-03 0. -1.
        -11    1    3    3    0    0  0.34235835860E+00  0.19432470451E+01  0.13875622330E+00  0.19780474905E+01  0.51100000000E-03 0.  1.
        -12    1    3    3    0    0  0.15404873547E+02 -0.78548245969E+01  0.70257190903E+01  0.18664649131E+02  0.00000000000E+00 0.  1.
</event>
<event>
 7    1  0.3851772E-009  0.4778727E+02  0.7816164E-02  0.1312668E+00
        -11   -1    0    0    0    0  0.00000000000E+00  0.00000000000E+00  0.45593999997E+02  0.45594000000E+02  0.51100000000E-03 0. -1.
         11   -1    0    0    0    0 -0.00000000000E+00 -0.00000000000E+00 -0.45593999997E+02  0.45594000000E+02  0.51100000000E-03 0.  1.
    9900012    2    1    2    0    0  0.68519982414E+01  0.27832977425E+02 -0.32588326018E+02  0.47787268383E+02  0.19999987864E+02 0.  0.
         12    1    1    2    0    0 -0.68519982414E+01 -0.27832977425E+02  0.32588326018E+02  0.43400731617E+02  0.00000000000E+00 0. -1.
         11    1    3    3    0    0  0.11311603884E+02  0.24419846771E+02 -0.20207150211E+02  0.33654274894E+02  0.51100000000E-03 0. -1.
        -11    1    3    3    0    0 -0.26991424128E+01  0.35588282984E+01 -0.11057634785E+02  0.11925683038E+02  0.51100000000E-03 0.  1.
         12    1    3    3    0    0 -0.17604632300E+01 -0.14569764414E+00 -0.13235410221E+01  0.22073104505E+01  0.00000000000E+00 0. -1.
</event>
<event>
 7    1  0.3851772E-009  0.4778727E+02  0.7816164E-02  0.1312668E+00
        -11   -1    0    0    0    0  0.00000000000E+00  0.00000000000E+00  0.45593999997E+02  0.45594000000E+02  0.51100000000E-03 0.  1.
         11   -1    0    0    0    0 -0.00000000000E+00 -0.00000000000E+00 -0.45593999997E+02  0.45594000000E+02  0.51100000000E-03 0. -1.
    9900012    2    1    2    0    0  0.30905526722E+02 -0.24106438078E+02  0.18637364397E+02  0.47787270853E+02  0.19999999128E+02 0.  0.
         12    1    1    2    0    0 -0.30905526722E+02  0.24106438078E+02 -0.18637364397E+02  0.43400729147E+02  0.00000000000E+00 0. -1.
         11    1    3    3    0    0  0.21696914211E+02 -0.25551969435E+02  0.15057971466E+02  0.36747812632E+02  0.51100000000E-03 0.  1.
        -11    1    3    3    0    0  0.70657787787E+01 -0.30413185932E+00  0.79908761579E+00  0.71173216322E+01  0.51100000000E-03 0. -1.
        -12    1    3    3    0    0  0.21428337324E+01  0.17496632164E+01  0.27803053152E+01  0.39221365888E+01  0.00000000000E+00 0.  1.
</event>
<event>
 7    1  0.3851772E-009  0.4778727E+02  0.7816164E-02  0.1312668E+00
        -11   -1    0    0    0    0  0.00000000000E+00  0.00000000000E+00  0.45593999997E+02  0.45594000000E+02  0.51100000000E-03 0.  1.
         11   -1    0    0    0    0 -0.00000000000E+00 -0.00000000000E+00 -0.45593999997E+02  0.45594000000E+02  0.51100000000E-03 0. -1.
    9900012    2    1    2    0    0  0.76207861138E+01 -0.32491780489E+02  0.27745830061E+02  0.47787271134E+02  0.20000000408E+02 0.  0.
         12    1    1    2    0    0 -0.76207861138E+01  0.32491780489E+02 -0.27745830061E+02  0.43400728866E+02  0.00000000000E+00 0. -1.
         11    1    3    3    0    0  0.63787075874E+01 -0.39807852944E+01 -0.21387620811E+00  0.75219881241E+01  0.51100000000E-03 0. -1.
        -11    1    3    3    0    0 -0.80951036104E+00 -0.24012442227E+02  0.23454337431E+02  0.33576161682E+02  0.51100000000E-03 0.  1.
         12    1    3    3    0    0  0.20515888875E+01 -0.44985529674E+01  0.45053688382E+01  0.66891213273E+01  0.00000000000E+00 0. -1.
</event>
<event>
 7    1  0.3851772E-009  0.4778728E+02  0.7816164E-02  0.1312668E+00
        -11   -1    0    0    0    0  0.00000000000E+00  0.00000000000E+00  0.45593999997E+02  0.45594000000E+02  0.51100000000E-03 0. -1.
         11   -1    0    0    0    0 -0.00000000000E+00 -0.00000000000E+00 -0.45593999997E+02  0.45594000000E+02  0.51100000000E-03 0.  1.
    9900012    2    1    2    0    0 -0.47880323940E+01 -0.43069388755E+02 -0.23927790634E+01  0.47787275426E+02  0.20000019977E+02 0.  0.
         12    1    1    2    0    0  0.47880323940E+01  0.43069388755E+02  0.23927790634E+01  0.43400724574E+02  0.00000000000E+00 0. -1.
         11    1    3    3    0    0  0.32766189024E+01 -0.80781358362E+01  0.18658848939E+01  0.89148211826E+01  0.51100000000E-03 0. -1.
        -11    1    3    3    0    0 -0.76811835323E+01 -0.32743644440E+02  0.45575038521E+00  0.33635614167E+02  0.51100000000E-03 0.  1.
        -12    1    3    3    0    0 -0.38346776403E+00 -0.22476084780E+01 -0.47144143425E+01  0.52368400768E+01  0.00000000000E+00 0.  1.
</event>
<event>
 7    1  0.3851772E-009  0.4778727E+02  0.7816164E-02  0.1312668E+00
        -11   -1    0    0    0    0  0.00000000000E+00  0.00000000000E+00  0.45593999997E+02  0.45594000000E+02  0.51100000000E-03 0.  1.
         11   -1    0    0    0    0 -0.00000000000E+00 -0.00000000000E+00 -0.45593999997E+02  0.45594000000E+02  0.51100000000E-03 0. -1.
    9900012    2    1    2    0    0 -0.87338678437E+01 -0.24895695101E+02  0.34460805784E+02  0.47787271695E+02  0.20000002968E+02 0.  0.
         12    1    1    2    0    0  0.87338678437E+01  0.24895695101E+02 -0.34460805784E+02  0.43400728305E+02  0.00000000000E+00 0. -1.
         11    1    3    3    0    0  0.22744024776E+01 -0.41759061549E+01  0.13478835760E+00  0.47570229143E+01  0.51100000000E-03 0. -1.
        -11    1    3    3    0    0 -0.93866812484E+01 -0.21860140304E+02  0.32844748921E+02  0.40555555118E+02  0.51100000000E-03 0.  1.
        -12    1    3    3    0    0 -0.16215890728E+01  0.11403513582E+01  0.14812685060E+01  0.24746936635E+01  0.00000000000E+00 0.  1.
</event>
<event>
 7    1  0.3851772E-009  0.4778727E+02  0.7816164E-02  0.1312668E+00
        -11   -1    0    0    0    0  0.00000000000E+00  0.00000000000E+00  0.45593999997E+02  0.45594000000E+02  0.51100000000E-03 0.  1.
         11   -1    0    0    0    0 -0.00000000000E+00 -0.00000000000E+00 -0.45593999997E+02  0.45594000000E+02  0.51100000000E-03 0. -1.
    9900012    2    1    2    0    0  0.12293294759E+02  0.26376628107E+02  0.32198939085E+02  0.47787270922E+02  0.19999999442E+02 0.  0.
         12    1    1    2    0    0 -0.12293294759E+02 -0.26376628107E+02 -0.32198939085E+02  0.43400729078E+02  0.00000000000E+00 0. -1.
         11    1    3    3    0    0  0.66631272573E+01  0.12071533259E+02  0.20790384163E+02  0.24947129173E+02  0.51100000000E-03 0. -1.
        -11    1    3    3    0    0  0.30801299140E+01  0.14807184864E+02  0.50074942817E+01  0.15931570015E+02  0.51100000000E-03 0.  1.
        -12    1    3    3    0    0  0.25500375880E+01 -0.50209001707E+00  0.64010606399E+01  0.69085717338E+01  0.00000000000E+00 0.  1.
</event>
<event>
 7    1  0.3851772E-009  0.4778727E+02  0.7816164E-02  0.1312668E+00
        -11   -1    0    0    0    0  0.00000000000E+00  0.00000000000E+00  0.45593999997E+02  0.45594000000E+02  0.51100000000E-03 0.  1.
         11   -1    0    0    0    0 -0.00000000000E+00 -0.00000000000E+00 -0.45593999997E+02  0.45594000000E+02  0.51100000000E-03 0. -1.
    9900012    2    1    2    0    0  0.25843377862E+02 -0.28208958079E+02  0.20493839027E+02  0.47787274969E+02  0.20000017892E+02 0.  0.
         12    1    1    2    0    0 -0.25843377862E+02  0.28208958079E+02 -0.20493839027E+02  0.43400725031E+02  0.00000000000E+00 0. -1.
         11    1    3    3    0    0  0.20276360308E+01 -0.80112704059E+00  0.79980658024E+01  0.82898835486E+01  0.51100000000E-03 0. -1.
        -11    1    3    3    0    0  0.18456189470E+02 -0.22300220262E+02  0.58153356671E+01  0.29525393861E+02  0.51100000000E-03 0.  1.
        -12    1    3    3    0    0  0.53595523610E+01 -0.51076107763E+01  0.66804375576E+01  0.99719975588E+01  0.00000000000E+00 0.  1.
</event>
<event>
 7    1  0.3851772E-009  0.4778727E+02  0.7816164E-02  0.1312668E+00
        -11   -1    0    0    0    0  0.00000000000E+00  0.00000000000E+00  0.45593999997E+02  0.45594000000E+02  0.51100000000E-03 0.  1.
         11   -1    0    0    0    0 -0.00000000000E+00 -0.00000000000E+00 -0.45593999997E+02  0.45594000000E+02  0.51100000000E-03 0. -1.
    9900012    2    1    2    0    0 -0.40949695349E+02 -0.61638180251E+01  0.12990501062E+02  0.47787270517E+02  0.19999997596E+02 0.  0.
         12    1    1    2    0    0  0.40949695349E+02  0.61638180251E+01 -0.12990501062E+02  0.43400729483E+02  0.00000000000E+00 0. -1.
         11    1    3    3    0    0 -0.62904372575E+00 -0.39058714850E+01 -0.24460922438E+00  0.39637560470E+01  0.51100000000E-03 0. -1.
        -11    1    3    3    0    0 -0.13794785940E+02 -0.58439991842E+01  0.39769550958E+01  0.15500471531E+02  0.51100000000E-03 0.  1.
         12    1    3    3    0    0 -0.26525865683E+02  0.35860526440E+01  0.92581551909E+01  0.28323042939E+02  0.00000000000E+00 0. -1.
</event>
<event>
 7    1  0.3851772E-009  0.4778727E+02  0.7816164E-02  0.1312668E+00
        -11   -1    0    0    0    0  0.00000000000E+00  0.00000000000E+00  0.45593999997E+02  0.45594000000E+02  0.51100000000E-03 0.  1.
         11   -1    0    0    0    0 -0.00000000000E+00 -0.00000000000E+00 -0.45593999997E+02  0.45594000000E+02  0.51100000000E-03 0. -1.
    9900012    2    1    2    0    0  0.16925437948E+02 -0.30428038925E+02  0.25909213987E+02  0.47787269914E+02  0.19999994848E+02 0.  0.
         12    1    1    2    0    0 -0.16925437948E+02  0.30428038925E+02 -0.25909213987E+02  0.43400730086E+02  0.00000000000E+00 0. -1.
         11    1    3    3    0    0  0.95579201984E+01 -0.33280526059E+01  0.38232789464E+01  0.10818837037E+02  0.51100000000E-03 0. -1.
        -11    1    3    3    0    0 -0.10119056376E+01 -0.13312129114E+02  0.11926242839E+02  0.17901731846E+02  0.51100000000E-03 0.  1.
        -12    1    3    3    0    0  0.83794233871E+01 -0.13787857205E+02  0.10159692202E+02  0.19066701032E+02  0.00000000000E+00 0.  1.
</event>
<event>
 7    1  0.3851772E-009  0.4778727E+02  0.7816164E-02  0.1312668E+00
        -11   -1    0    0    0    0  0.00000000000E+00  0.00000000000E+00  0.45593999997E+02  0.45594000000E+02  0.51100000000E-03 0. -1.
         11   -1    0    0    0    0 -0.00000000000E+00 -0.00000000000E+00 -0.45593999997E+02  0.45594000000E+02  0.51100000000E-03 0.  1.
    9900012    2    1    2    0    0 -0.22629751285E+02  0.34151994066E+02 -0.14323372684E+02  0.47787270202E+02  0.19999996159E+02 0.  0.
         12    1    1    2    0    0  0.22629751285E+02 -0.34151994066E+02  0.14323372684E+02  0.43400729798E+02  0.00000000000E+00 0. -1.
         11    1    3    3    0    0 -0.39566266007E+01  0.19547654271E+02 -0.11257399954E+02  0.22901850046E+02  0.51100000000E-03 0. -1.
        -11    1    3    3    0    0 -0.10539298864E+02  0.11087736755E+02  0.56725333877E+00  0.15308053550E+02  0.51100000000E-03 0.  1.
         12    1    3    3    0    0 -0.81338258210E+01  0.35166030408E+01 -0.36332260685E+01  0.95773666056E+01  0.00000000000E+00 0. -1.
</event>
<event>
 7    1  0.3851772E-009  0.4778727E+02  0.7816164E-02  0.1312668E+00
        -11   -1    0    0    0    0  0.00000000000E+00  0.00000000000E+00  0.45593999997E+02  0.45594000000E+02  0.51100000000E-03 0.  1.
         11   -1    0    0    0    0 -0.00000000000E+00 -0.00000000000E+00 -0.45593999997E+02  0.45594000000E+02  0.51100000000E-03 0. -1.
    9900012    2    1    2    0    0 -0.24999977060E+02  0.78852070824E+01  0.34589707106E+02  0.47787272110E+02  0.20000004856E+02 0.  0.
         12    1    1    2    0    0  0.24999977060E+02 -0.78852070824E+01 -0.34589707106E+02  0.43400727890E+02  0.00000000000E+00 0. -1.
         11    1    3    3    0    0  0.25550692752E+01  0.23721268483E+01  0.12161073399E+01  0.36924628785E+01  0.51100000000E-03 0. -1.
        -11    1    3    3    0    0 -0.18756627874E+02  0.93873608642E+00  0.19862844714E+02  0.27335415033E+02  0.51100000000E-03 0.  1.
         12    1    3    3    0    0 -0.87984184613E+01  0.45743441477E+01  0.13510755052E+02  0.16759394198E+02  0.00000000000E+00 0. -1.
</event>
<event>
 7    1  0.3851772E-009  0.4778727E+02  0.7816164E-02  0.1312668E+00
        -11   -1    0    0    0    0  0.00000000000E+00  0.00000000000E+00  0.45593999997E+02  0.45594000000E+02  0.51100000000E-03 0.  1.
         11   -1    0    0    0    0 -0.00000000000E+00 -0.00000000000E+00 -0.45593999997E+02  0.45594000000E+02  0.51100000000E-03 0. -1.
    9900012    2    1    2    0    0  0.10506393833E+02 -0.21267608215E+02  0.36344571020E+02  0.47787270592E+02  0.19999997937E+02 0.  0.
         12    1    1    2    0    0 -0.10506393833E+02  0.21267608215E+02 -0.36344571020E+02  0.43400729408E+02  0.00000000000E+00 0. -1.
         11    1    3    3    0    0  0.12761962327E+02 -0.95224749569E+01  0.18948215061E+02  0.24750354866E+02  0.51100000000E-03 0. -1.
        -11    1    3    3    0    0 -0.36055677338E+01 -0.10149143959E+02  0.17896484548E+02  0.20887541771E+02  0.51100000000E-03 0.  1.
         12    1    3    3    0    0  0.13499992398E+01 -0.15959892994E+01 -0.50012859021E+00  0.21493739548E+01  0.00000000000E+00 0. -1.
</event>
<event>
 7    1  0.3851772E-009  0.4778726E+02  0.7816164E-02  0.1312668E+00
        -11   -1    0    0    0    0  0.00000000000E+00  0.00000000000E+00  0.45593999997E+02  0.45594000000E+02  0.51100000000E-03 0. -1.
         11   -1    0    0    0    0 -0.00000000000E+00 -0.00000000000E+00 -0.45593999997E+02  0.45594000000E+02  0.51100000000E-03 0.  1.
    9900012    2    1    2    0    0 -0.12477245754E+02 -0.27587688393E+02 -0.31094400023E+02  0.47787263540E+02  0.19999965784E+02 0.  0.
         12    1    1    2    0    0  0.12477245754E+02  0.27587688393E+02  0.31094400023E+02  0.43400736460E+02  0.00000000000E+00 0. -1.
         11    1    3    3    0    0 -0.54722938949E+01 -0.20535311572E+02 -0.16793744807E+02  0.27086433630E+02  0.51100000000E-03 0. -1.
        -11    1    3    3    0    0 -0.40675420907E+01 -0.26953000483E+01 -0.14643322635E+02  0.15434909752E+02  0.51100000000E-03 0.  1.
        -12    1    3    3    0    0 -0.29374097687E+01 -0.43570767723E+01  0.34266741939E+00  0.52659201579E+01  0.00000000000E+00 0.  1.
</event>
<event>
 7    1  0.3851772E-009  0.4778727E+02  0.7816164E-02  0.1312668E+00
        -11   -1    0    0    0    0  0.00000000000E+00  0.00000000000E+00  0.45593999997E+02  0.45594000000E+02  0.51100000000E-03 0.  1.
         11   -1    0    0    0    0 -0.00000000000E+00 -0.00000000000E+00 -0.45593999997E+02  0.45594000000E+02  0.51100000000E-03 0. -1.
    9900012    2    1    2    0    0  0.36158774893E+02  0.13856939477E+02  0.19599782566E+02  0.47787271319E+02  0.20000001251E+02 0.  0.
         12    1    1    2    0    0 -0.36158774893E+02 -0.13856939477E+02 -0.19599782566E+02  0.43400728681E+02  0.00000000000E+00 0. -1.
         11    1    3    3    0    0  0.19718219104E+01 -0.68875836770E+00 -0.28442800912E+01  0.35287957201E+01  0.51100000000E-03 0. -1.
        -11    1    3    3    0    0  0.18874305349E+02  0.81701984092E+01  0.17348555292E+02  0.26906577549E+02  0.51100000000E-03 0.  1.
        -12    1    3    3    0    0  0.15312647633E+02  0.63754994359E+01  0.50955073657E+01  0.17351898049E+02  0.00000000000E+00 0.  1.
</event>
<event>
 7    1  0.3851772E-009  0.4778727E+02  0.7816164E-02  0.1312668E+00
        -11   -1    0    0    0    0  0.00000000000E+00  0.00000000000E+00  0.45593999997E+02  0.45594000000E+02  0.51100000000E-03 0.  1.
         11   -1    0    0    0    0 -0.00000000000E+00 -0.00000000000E+00 -0.45593999997E+02  0.45594000000E+02  0.51100000000E-03 0. -1.
    9900012    2    1    2    0    0 -0.28836855261E+02  0.82462484200E+01  0.31369708407E+02  0.47787269132E+02  0.19999991279E+02 0.  0.
         12    1    1    2    0    0  0.28836855261E+02 -0.82462484200E+01 -0.31369708407E+02  0.43400730868E+02  0.00000000000E+00 0. -1.
         11    1    3    3    0    0 -0.17147710235E+02  0.66803592091E+01  0.23698315192E+02  0.30004688112E+02  0.51100000000E-03 0. -1.
        -11    1    3    3    0    0 -0.32018773836E+01 -0.43716319465E+01  0.11403089834E+01  0.55374623695E+01  0.51100000000E-03 0.  1.
        -12    1    3    3    0    0 -0.84872676425E+01  0.59375211574E+01  0.65310842312E+01  0.12245118650E+02  0.00000000000E+00 0.  1.
</event>
<event>
 7    1  0.3851772E-009  0.4778727E+02  0.7816164E-02  0.1312668E+00
        -11   -1    0    0    0    0  0.00000000000E+00  0.00000000000E+00  0.45593999997E+02  0.45594000000E+02  0.51100000000E-03 0. -1.
         11   -1    0    0    0    0 -0.00000000000E+00 -0.00000000000E+00 -0.45593999997E+02  0.45594000000E+02  0.51100000000E-03 0.  1.
    9900012    2    1    2    0    0  0.37012609823E+02  0.19421421704E+02 -0.11683247160E+02  0.47787272228E+02  0.20000005397E+02 0.  0.
         12    1    1    2    0    0 -0.37012609823E+02 -0.19421421704E+02  0.11683247160E+02  0.43400727772E+02  0.00000000000E+00 0. -1.
         11    1    3    3    0    0  0.23811946322E+01 -0.25535100641E+00 -0.15297433375E+01  0.28417260516E+01  0.51100000000E-03 0. -1.
        -11    1    3    3    0    0  0.25101709041E+02  0.17838285385E+02 -0.14821740933E+02  0.34175784216E+02  0.51100000000E-03 0.  1.
        -12    1    3    3    0    0  0.95297061503E+01  0.18384873247E+01  0.46682371106E+01  0.10769761960E+02  0.00000000000E+00 0.  1.
</event>
<event>
 7    1  0.3851772E-009  0.4778727E+02  0.7816164E-02  0.1312668E+00
        -11   -1    0    0    0    0  0.00000000000E+00  0.00000000000E+00  0.45593999997E+02  0.45594000000E+02  0.51100000000E-03 0. -1.
         11   -1    0    0    0    0 -0.00000000000E+00 -0.00000000000E+00 -0.45593999997E+02  0.45594000000E+02  0.51100000000E-03 0.  1.
    9900012    2    1    2    0    0  0.10704370491E+02 -0.36471950123E+02 -0.20948426246E+02  0.47787271255E+02  0.20000000962E+02 0.  0.
         12    1    1    2    0    0 -0.10704370491E+02  0.36471950123E+02  0.20948426246E+02  0.43400728745E+02  0.00000000000E+00 0. -1.
         11    1    3    3    0    0 -0.36211089872E+01 -0.54372600369E+01 -0.30892296952E+01  0.72263107723E+01  0.51100000000E-03 0. -1.
        -11    1    3    3    0    0  0.12493450854E+02 -0.31711319288E+02 -0.18102840184E+02  0.38592834934E+02  0.51100000000E-03 0.  1.
        -12    1    3    3    0    0  0.18320286245E+01  0.67662920226E+00  0.24364363322E+00  0.19681255495E+01  0.00000000000E+00 0.  1.
</event>
<event>
 7    1  0.3851772E-009  0.4778727E+02  0.7816164E-02  0.1312668E+00
        -11   -1    0    0    0    0  0.00000000000E+00  0.00000000000E+00  0.45593999997E+02  0.45594000000E+02  0.51100000000E-03 0.  1.
         11   -1    0    0    0    0 -0.00000000000E+00 -0.00000000000E+00 -0.45593999997E+02  0.45594000000E+02  0.51100000000E-03 0. -1.
    9900012    2    1    2    0    0 -0.20336864729E+02 -0.99039340867E+01  0.37039805291E+02  0.47787272433E+02  0.20000006329E+02 0.  0.
         12    1    1    2    0    0  0.20336864729E+02  0.99039340867E+01 -0.37039805291E+02  0.43400727567E+02  0.00000000000E+00 0. -1.
         11    1    3    3    0    0 -0.66839578708E+01  0.21705701353E+00  0.90952860334E+01  0.11289226495E+02  0.51100000000E-03 0. -1.
        -11    1    3    3    0    0 -0.16274387205E+02 -0.10309297364E+02  0.18554293560E+02  0.26746945635E+02  0.51100000000E-03 0.  1.
        -12    1    3    3    0    0  0.26214803470E+01  0.18830626331E+00  0.93902256972E+01  0.97511003022E+01  0.00000000000E+00 0.  1.
</event>
<event>
 7    1  0.3851772E-009  0.4778727E+02  0.7816164E-02  0.1312668E+00
        -11   -1    0    0    0    0  0.00000000000E+00  0.00000000000E+00  0.45593999997E+02  0.45594000000E+02  0.51100000000E-03 0.  1.
         11   -1    0    0    0    0 -0.00000000000E+00 -0.00000000000E+00 -0.45593999997E+02  0.45594000000E+02  0.51100000000E-03 0. -1.
    9900012    2    1    2    0    0  0.39214863028E+02  0.69643297161E+01  0.17242852617E+02  0.47787270317E+02  0.19999996682E+02 0.  0.
         12    1    1    2    0    0 -0.39214863028E+02 -0.69643297161E+01 -0.17242852617E+02  0.43400729683E+02  0.00000000000E+00 0. -1.
         11    1    3    3    0    0  0.36446146261E+02  0.88715796057E+01  0.91052601932E+01  0.38599640743E+02  0.51100000000E-03 0.  1.
        -11    1    3    3    0    0  0.21820514461E+01 -0.25757656871E+01  0.64339872165E+01  0.72658178584E+01  0.51100000000E-03 0. -1.
        -12    1    3    3    0    0  0.58666532011E+00  0.66851579755E+00  0.17036052070E+01  0.19218117158E+01  0.00000000000E+00 0.  1.
</event>
<event>
 7    1  0.3851772E-009  0.4778728E+02  0.7816164E-02  0.1312668E+00
        -11   -1    0    0    0    0  0.00000000000E+00  0.00000000000E+00  0.45593999997E+02  0.45594000000E+02  0.51100000000E-03 0.  1.
         11   -1    0    0    0    0 -0.00000000000E+00 -0.00000000000E+00 -0.45593999997E+02  0.45594000000E+02  0.51100000000E-03 0. -1.
    9900012    2    1    2    0    0  0.97641246461E+01 -0.26609021434E+02  0.32867070496E+02  0.47787280250E+02  0.20000041973E+02 0.  0.
         12    1    1    2    0    0 -0.97641246461E+01  0.26609021434E+02 -0.32867070496E+02  0.43400719750E+02  0.00000000000E+00 0. -1.
         11    1    3    3    0    0 -0.36319427954E+00 -0.69721145231E+01  0.35315562362E+01  0.78239491766E+01  0.51100000000E-03 0. -1.
        -11    1    3    3    0    0 -0.58088967169E+00 -0.95886530489E+01  0.20964232854E+02  0.23060328695E+02  0.51100000000E-03 0.  1.
        -12    1    3    3    0    0  0.10708208597E+02 -0.10048253862E+02  0.83712814065E+01  0.16903002379E+02  0.00000000000E+00 0.  1.
</event>
<event>
 7    1  0.3851772E-009  0.4778727E+02  0.7816164E-02  0.1312668E+00
        -11   -1    0    0    0    0  0.00000000000E+00  0.00000000000E+00  0.45593999997E+02  0.45594000000E+02  0.51100000000E-03 0. -1.
         11   -1    0    0    0    0 -0.00000000000E+00 -0.00000000000E+00 -0.45593999997E+02  0.45594000000E+02  0.51100000000E-03 0.  1.
    9900012    2    1    2    0    0 -0.36199805001E+02  0.22120587577E+02  0.91584298067E+01  0.47787272894E+02  0.20000008431E+02 0.  0.
         12    1    1    2    0    0  0.36199805001E+02 -0.22120587577E+02 -0.91584298067E+01  0.43400727106E+02  0.00000000000E+00 0. -1.
         11    1    3    3    0    0  0.13830850478E+01  0.23633521630E+01 -0.20989257130E+01  0.34501952272E+01  0.51100000000E-03 0. -1.
        -11    1    3    3    0    0 -0.17890240428E+02  0.64807380809E+01  0.65598620058E+01  0.20126908815E+02  0.51100000000E-03 0.  1.
         12    1    3    3    0    0 -0.19692649620E+02  0.13276497333E+02  0.46974935139E+01  0.24210168852E+02  0.00000000000E+00 0. -1.
</event>
<event>
 7    1  0.3851772E-009  0.4778725E+02  0.7816164E-02  0.1312668E+00
        -11   -1    0    0    0    0  0.00000000000E+00  0.00000000000E+00  0.45593999997E+02  0.45594000000E+02  0.51100000000E-03 0. -1.
         11   -1    0    0    0    0 -0.00000000000E+00 -0.00000000000E+00 -0.45593999997E+02  0.45594000000E+02  0.51100000000E-03 0.  1.
    9900012    2    1    2    0    0  0.22741318621E+02 -0.17908286751E+02 -0.32338066317E+02  0.47787253000E+02  0.19999917730E+02 0.  0.
         12    1    1    2    0    0 -0.22741318621E+02  0.17908286751E+02  0.32338066317E+02  0.43400747000E+02  0.00000000000E+00 0. -1.
         11    1    3    3    0    0  0.43121423905E+01  0.11007131691E+01 -0.10298506602E+02  0.11218974105E+02  0.51100000000E-03 0. -1.
        -11    1    3    3    0    0  0.11654548096E+02 -0.18418980743E+02 -0.19691085700E+02  0.29373903371E+02  0.51100000000E-03 0.  1.
        -12    1    3    3    0    0  0.67746281344E+01 -0.59001917704E+00 -0.23484740157E+01  0.71943755247E+01  0.00000000000E+00 0.  1.
</event>
<event>
 7    1  0.3851772E-009  0.4778728E+02  0.7816164E-02  0.1312668E+00
        -11   -1    0    0    0    0  0.00000000000E+00  0.00000000000E+00  0.45593999997E+02  0.45594000000E+02  0.51100000000E-03 0.  1.
         11   -1    0    0    0    0 -0.00000000000E+00 -0.00000000000E+00 -0.45593999997E+02  0.45594000000E+02  0.51100000000E-03 0. -1.
    9900012    2    1    2    0    0  0.93019432343E+00 -0.26584211317E+02  0.34293398578E+02  0.47787277208E+02  0.20000028103E+02 0.  0.
         12    1    1    2    0    0 -0.93019432343E+00  0.26584211317E+02 -0.34293398578E+02  0.43400722792E+02  0.00000000000E+00 0. -1.
         11    1    3    3    0    0  0.53697427906E+01 -0.73447780259E+01  0.15237906784E+02  0.17747498564E+02  0.51100000000E-03 0. -1.
        -11    1    3    3    0    0 -0.17323753433E+01 -0.17625406120E+02  0.97538246018E+01  0.20218633976E+02  0.51100000000E-03 0.  1.
        -12    1    3    3    0    0 -0.27071731240E+01 -0.16140271713E+01  0.93016671926E+01  0.98211446682E+01  0.00000000000E+00 0.  1.
</event>
<event>
 7    1  0.3851772E-009  0.4778727E+02  0.7816164E-02  0.1312668E+00
        -11   -1    0    0    0    0  0.00000000000E+00  0.00000000000E+00  0.45593999997E+02  0.45594000000E+02  0.51100000000E-03 0. -1.
         11   -1    0    0    0    0 -0.00000000000E+00 -0.00000000000E+00 -0.45593999997E+02  0.45594000000E+02  0.51100000000E-03 0.  1.
    9900012    2    1    2    0    0  0.24192568449E+02  0.32272850518E+02  0.16025167845E+02  0.47787271283E+02  0.20000001087E+02 0.  0.
         12    1    1    2    0    0 -0.24192568449E+02 -0.32272850518E+02 -0.16025167845E+02  0.43400728717E+02  0.00000000000E+00 0. -1.
         11    1    3    3    0    0  0.12875347249E+01  0.13589217600E+02  0.92517782241E+01  0.16489996398E+02  0.51100000000E-03 0. -1.
        -11    1    3    3    0    0  0.70504584171E+01  0.17591723387E+01  0.26978288341E+01  0.77512535688E+01  0.51100000000E-03 0.  1.
         12    1    3    3    0    0  0.15854575307E+02  0.16924460579E+02  0.40755607871E+01  0.23546021316E+02  0.00000000000E+00 0. -1.
</event>
<event>
 7    1  0.3851772E-009  0.4778728E+02  0.7816164E-02  0.1312668E+00
        -11   -1    0    0    0    0  0.00000000000E+00  0.00000000000E+00  0.45593999997E+02  0.45594000000E+02  0.51100000000E-03 0.  1.
         11   -1    0    0    0    0 -0.00000000000E+00 -0.00000000000E+00 -0.45593999997E+02  0.45594000000E+02  0.51100000000E-03 0. -1.
    9900012    2    1    2    0    0  0.21821898163E+02 -0.14584160811E+02  0.34564860137E+02  0.47787279472E+02  0.20000038425E+02 0.  0.
         12    1    1    2    0    0 -0.21821898163E+02  0.14584160811E+02 -0.34564860137E+02  0.43400720528E+02  0.00000000000E+00 0. -1.
         11    1    3    3    0    0  0.16852334883E+02 -0.18138348953E+01  0.15756589610E+02  0.23142197485E+02  0.51100000000E-03 0. -1.
        -11    1    3    3    0    0  0.53102063422E+01 -0.29475183927E+01  0.65378839842E+01  0.89235689791E+01  0.51100000000E-03 0.  1.
         12    1    3    3    0    0 -0.34064306216E+00 -0.98228075235E+01  0.12270386543E+02  0.15721513008E+02  0.00000000000E+00 0. -1.
</event>
<event>
 7    1  0.3851772E-009  0.4778728E+02  0.7816164E-02  0.1312668E+00
        -11   -1    0    0    0    0  0.00000000000E+00  0.00000000000E+00  0.45593999997E+02  0.45594000000E+02  0.51100000000E-03 0.  1.
         11   -1    0    0    0    0 -0.00000000000E+00 -0.00000000000E+00 -0.45593999997E+02  0.45594000000E+02  0.51100000000E-03 0. -1.
    9900012    2    1    2    0    0 -0.21882515720E+02  0.35928106675E+02  0.10674711894E+02  0.47787276302E+02  0.20000023971E+02 0.  0.
         12    1    1    2    0    0  0.21882515720E+02 -0.35928106675E+02 -0.10674711894E+02  0.43400723698E+02  0.00000000000E+00 0. -1.
         11    1    3    3    0    0 -0.13952244579E+02  0.13599899805E+02  0.10647689566E+02  0.22203506409E+02  0.51100000000E-03 0. -1.
        -11    1    3    3    0    0 -0.24610792544E+01  0.12848858988E+02  0.43941139352E+01  0.13800663967E+02  0.51100000000E-03 0.  1.
         12    1    3    3    0    0 -0.54691918869E+01  0.94793478819E+01 -0.43670916070E+01  0.11783105926E+02  0.00000000000E+00 0. -1.
</event>
<event>
 7    1  0.3851772E-009  0.4778727E+02  0.7816164E-02  0.1312668E+00
        -11   -1    0    0    0    0  0.00000000000E+00  0.00000000000E+00  0.45593999997E+02  0.45594000000E+02  0.51100000000E-03 0.  1.
         11   -1    0    0    0    0 -0.00000000000E+00 -0.00000000000E+00 -0.45593999997E+02  0.45594000000E+02  0.51100000000E-03 0. -1.
    9900012    2    1    2    0    0 -0.25194577522E+02  0.12904501006E+02  0.32898788944E+02  0.47787271934E+02  0.20000004054E+02 0.  0.
         12    1    1    2    0    0  0.25194577522E+02 -0.12904501006E+02 -0.32898788944E+02  0.43400728066E+02  0.00000000000E+00 0. -1.
         11    1    3    3    0    0 -0.11084030097E+01  0.16915559655E+01  0.10837804845E+01  0.22944496543E+01  0.51100000000E-03 0. -1.
        -11    1    3    3    0    0 -0.19340292605E+02  0.16035813600E+02  0.21042916649E+02  0.32771917509E+02  0.51100000000E-03 0.  1.
        -12    1    3    3    0    0 -0.47458819079E+01 -0.48228685589E+01  0.10772091810E+02  0.12720904770E+02  0.00000000000E+00 0.  1.
</event>
<event>
 7    1  0.3851772E-009  0.4778725E+02  0.7816164E-02  0.1312668E+00
        -11   -1    0    0    0    0  0.00000000000E+00  0.00000000000E+00  0.45593999997E+02  0.45594000000E+02  0.51100000000E-03 0.  1.
         11   -1    0    0    0    0 -0.00000000000E+00 -0.00000000000E+00 -0.45593999997E+02  0.45594000000E+02  0.51100000000E-03 0. -1.
    9900012    2    1    2    0    0  0.18357480282E+02  0.20534702534E+02  0.33540338504E+02  0.47787246580E+02  0.19999888454E+02 0.  0.
         12    1    1    2    0    0 -0.18357480282E+02 -0.20534702534E+02 -0.33540338504E+02  0.43400753420E+02  0.00000000000E+00 0. -1.
         11    1    3    3    0    0 -0.11557669573E+01  0.99082939276E+01  0.87903192114E+01  0.13295856419E+02  0.51100000000E-03 0. -1.
        -11    1    3    3    0    0  0.14852450292E+02  0.61900634560E+01  0.11551236538E+02  0.19807655871E+02  0.51100000000E-03 0.  1.
        -12    1    3    3    0    0  0.46607969467E+01  0.44363451507E+01  0.13198782755E+02  0.14683734290E+02  0.00000000000E+00 0.  1.
</event>
<event>
 7    1  0.3851772E-009  0.4778727E+02  0.7816164E-02  0.1312668E+00
        -11   -1    0    0    0    0  0.00000000000E+00  0.00000000000E+00  0.45593999997E+02  0.45594000000E+02  0.51100000000E-03 0.  1.
         11   -1    0    0    0    0 -0.00000000000E+00 -0.00000000000E+00 -0.45593999997E+02  0.45594000000E+02  0.51100000000E-03 0. -1.
    9900012    2    1    2    0    0  0.32650052101E+02 -0.28092996752E+02  0.53274008144E+01  0.47787267654E+02  0.19999984541E+02 0.  0.
         12    1    1    2    0    0 -0.32650052101E+02  0.28092996752E+02 -0.53274008144E+01  0.43400732346E+02  0.00000000000E+00 0. -1.
         11    1    3    3    0    0  0.25205036670E+02 -0.12368613228E+02  0.76345137484E+01  0.29095743111E+02  0.51100000000E-03 0. -1.
        -11    1    3    3    0    0  0.50302034731E+01 -0.13042624334E+02 -0.42266298560E+01  0.14604019882E+02  0.51100000000E-03 0.  1.
         12    1    3    3    0    0  0.24148119586E+01 -0.26817591897E+01  0.19195169220E+01  0.40875046619E+01  0.00000000000E+00 0. -1.
</event>
<event>
 7    1  0.3851772E-009  0.4778727E+02  0.7816164E-02  0.1312668E+00
        -11   -1    0    0    0    0  0.00000000000E+00  0.00000000000E+00  0.45593999997E+02  0.45594000000E+02  0.51100000000E-03 0.  1.
         11   -1    0    0    0    0 -0.00000000000E+00 -0.00000000000E+00 -0.45593999997E+02  0.45594000000E+02  0.51100000000E-03 0. -1.
    9900012    2    1    2    0    0 -0.13079725503E+02 -0.24862561294E+02  0.33081673272E+02  0.47787270976E+02  0.19999999688E+02 0.  0.
         12    1    1    2    0    0  0.13079725503E+02  0.24862561294E+02 -0.33081673272E+02  0.43400729024E+02  0.00000000000E+00 0. -1.
         11    1    3    3    0    0 -0.11123613472E+02 -0.95673333039E+01  0.95048751169E+01  0.17481741746E+02  0.51100000000E-03 0.  1.
        -11    1    3    3    0    0  0.26744639632E+01  0.32196931892E+00  0.25696290972E+01  0.37228236181E+01  0.51100000000E-03 0. -1.
        -12    1    3    3    0    0 -0.46305759941E+01 -0.15617197309E+02  0.21007169058E+02  0.26582705612E+02  0.00000000000E+00 0.  1.
</event>
<event>
 7    1  0.3851772E-009  0.4778727E+02  0.7816164E-02  0.1312668E+00
        -11   -1    0    0    0    0  0.00000000000E+00  0.00000000000E+00  0.45593999997E+02  0.45594000000E+02  0.51100000000E-03 0.  1.
         11   -1    0    0    0    0 -0.00000000000E+00 -0.00000000000E+00 -0.45593999997E+02  0.45594000000E+02  0.51100000000E-03 0. -1.
    9900012    2    1    2    0    0 -0.27904317103E+02  0.30246233125E+02  0.13789037250E+02  0.47787273284E+02  0.20000010209E+02 0.  0.
         12    1    1    2    0    0  0.27904317103E+02 -0.30246233125E+02 -0.13789037250E+02  0.43400726716E+02  0.00000000000E+00 0. -1.
         11    1    3    3    0    0 -0.13541622723E+02  0.89461626568E+01  0.13025290606E+02  0.20810275536E+02  0.51100000000E-03 0. -1.
        -11    1    3    3    0    0 -0.27304669315E+01  0.65429067552E+01  0.36367702149E+01  0.79681350596E+01  0.51100000000E-03 0.  1.
         12    1    3    3    0    0 -0.11632227449E+02  0.14757163713E+02 -0.28730235705E+01  0.19008862688E+02  0.00000000000E+00 0. -1.
</event>
<event>
 7    1  0.3851772E-009  0.4778727E+02  0.7816164E-02  0.1312668E+00
        -11   -1    0    0    0    0  0.00000000000E+00  0.00000000000E+00  0.45593999997E+02  0.45594000000E+02  0.51100000000E-03 0.  1.
         11   -1    0    0    0    0 -0.00000000000E+00 -0.00000000000E+00 -0.45593999997E+02  0.45594000000E+02  0.51100000000E-03 0. -1.
    9900012    2    1    2    0    0  0.14453815953E+02  0.40657501162E+02  0.46559515201E+01  0.47787273267E+02  0.20000010135E+02 0.  0.
         12    1    1    2    0    0 -0.14453815953E+02 -0.40657501162E+02 -0.46559515201E+01  0.43400726733E+02  0.00000000000E+00 0. -1.
         11    1    3    3    0    0  0.42041520508E+01  0.23267971711E+01 -0.42360983371E+01  0.64057325049E+01  0.51100000000E-03 0. -1.
        -11    1    3    3    0    0  0.30024612179E+01  0.25515418465E+02  0.55216128037E+01  0.26278119435E+02  0.51100000000E-03 0.  1.
        -12    1    3    3    0    0  0.72472026845E+01  0.12815285526E+02  0.33704370536E+01  0.15103421328E+02  0.00000000000E+00 0.  1.
</event>
<event>
 7    1  0.3851772E-009  0.4778727E+02  0.7816164E-02  0.1312668E+00
        -11   -1    0    0    0    0  0.00000000000E+00  0.00000000000E+00  0.45593999997E+02  0.45594000000E+02  0.51100000000E-03 0.  1.
         11   -1    0    0    0    0 -0.00000000000E+00 -0.00000000000E+00 -0.45593999997E+02  0.45594000000E+02  0.51100000000E-03 0. -1.
    9900012    2    1    2    0    0  0.12792747751E+02  0.78341322292E+01  0.40725853346E+02  0.47787272431E+02  0.20000006321E+02 0.  0.
         12    1    1    2    0    0 -0.12792747751E+02 -0.78341322292E+01 -0.40725853346E+02  0.43400727569E+02  0.00000000000E+00 0. -1.
         11    1    3    3    0    0  0.19015655577E+01  0.13118602634E+01  0.48085651024E+00  0.23596932354E+01  0.51100000000E-03 0. -1.
        -11    1    3    3    0    0  0.26602402472E+00 -0.22439685455E+01 -0.58704835344E+00  0.23346926233E+01  0.51100000000E-03 0.  1.
        -12    1    3    3    0    0  0.10625158169E+02  0.87662405113E+01  0.40832045189E+02  0.43092886572E+02  0.00000000000E+00 0.  1.
</event>
<event>
 7    1  0.3851772E-009  0.4778727E+02  0.7816164E-02  0.1312668E+00
        -11   -1    0    0    0    0  0.00000000000E+00  0.00000000000E+00  0.45593999997E+02  0.45594000000E+02  0.51100000000E-03 0.  1.
         11   -1    0    0    0    0 -0.00000000000E+00 -0.00000000000E+00 -0.45593999997E+02  0.45594000000E+02  0.51100000000E-03 0. -1.
    9900012    2    1    2    0    0  0.88551630257E+01 -0.41677582579E+02 -0.82576120344E+01  0.47787274679E+02  0.20000016572E+02 0.  0.
         12    1    1    2    0    0 -0.88551630257E+01  0.41677582579E+02  0.82576120344E+01  0.43400725321E+02  0.00000000000E+00 0. -1.
         11    1    3    3    0    0  0.62345905700E+01 -0.64000359905E+01 -0.17417153283E+01  0.91029749423E+01  0.51100000000E-03 0. -1.
        -11    1    3    3    0    0  0.46256729884E+01 -0.35768221860E+02 -0.62335275946E+01  0.36600811632E+02  0.51100000000E-03 0.  1.
        -12    1    3    3    0    0 -0.20051005327E+01  0.49067527072E+00 -0.28236911158E+00  0.20834881047E+01  0.00000000000E+00 0.  1.
</event>
<event>
 7    1  0.3851772E-009  0.4778726E+02  0.7816164E-02  0.1312668E+00
        -11   -1    0    0    0    0  0.00000000000E+00  0.00000000000E+00  0.45593999997E+02  0.45594000000E+02  0.51100000000E-03 0.  1.
         11   -1    0    0    0    0 -0.00000000000E+00 -0.00000000000E+00 -0.45593999997E+02  0.45594000000E+02  0.51100000000E-03 0. -1.
    9900012    2    1    2    0    0  0.26586524053E+01  0.29270916093E+02  0.31933819671E+02  0.47787264979E+02  0.19999972347E+02 0.  0.
         12    1    1    2    0    0 -0.26586524053E+01 -0.29270916093E+02 -0.31933819671E+02  0.43400735021E+02  0.00000000000E+00 0. -1.
         11    1    3    3    0    0  0.46047675686E+00  0.15434838363E+02  0.22951042791E+02  0.27662187903E+02  0.51100000000E-03 0.  1.
        -11    1    3    3    0    0 -0.34528295451E+01  0.34607058183E+01 -0.58340512011E+00  0.49232995464E+01  0.51100000000E-03 0. -1.
         12    1    3    3    0    0  0.56510051935E+01  0.10375371912E+02  0.95661819998E+01  0.15201777530E+02  0.00000000000E+00 0. -1.
</event>
<event>
 7    1  0.3851772E-009  0.4778727E+02  0.7816164E-02  0.1312668E+00
        -11   -1    0    0    0    0  0.00000000000E+00  0.00000000000E+00  0.45593999997E+02  0.45594000000E+02  0.51100000000E-03 0.  1.
         11   -1    0    0    0    0 -0.00000000000E+00 -0.00000000000E+00 -0.45593999997E+02  0.45594000000E+02  0.51100000000E-03 0. -1.
    9900012    2    1    2    0    0  0.82109383703E+01  0.22611868032E+02  0.36123501920E+02  0.47787268718E+02  0.19999989395E+02 0.  0.
         12    1    1    2    0    0 -0.82109383703E+01 -0.22611868032E+02 -0.36123501920E+02  0.43400731282E+02  0.00000000000E+00 0. -1.
         11    1    3    3    0    0  0.22615084343E+01 -0.32566381805E+00  0.16444098548E+01  0.28150597423E+01  0.51100000000E-03 0. -1.
        -11    1    3    3    0    0  0.92926611158E+01  0.15882514605E+02  0.14203112235E+02  0.23245133216E+02  0.51100000000E-03 0.  1.
        -12    1    3    3    0    0 -0.33432311798E+01  0.70550172454E+01  0.20275979829E+02  0.21727075760E+02  0.00000000000E+00 0.  1.
</event>
<event>
 7    1  0.3851772E-009  0.4778729E+02  0.7816164E-02  0.1312668E+00
        -11   -1    0    0    0    0  0.00000000000E+00  0.00000000000E+00  0.45593999997E+02  0.45594000000E+02  0.51100000000E-03 0.  1.
         11   -1    0    0    0    0 -0.00000000000E+00 -0.00000000000E+00 -0.45593999997E+02  0.45594000000E+02  0.51100000000E-03 0. -1.
    9900012    2    1    2    0    0 -0.59802403909E+01  0.32943044246E+02  0.27615476528E+02  0.47787285914E+02  0.20000067796E+02 0.  0.
         12    1    1    2    0    0  0.59802403909E+01 -0.32943044246E+02 -0.27615476528E+02  0.43400714086E+02  0.00000000000E+00 0. -1.
         11    1    3    3    0    0  0.49412771836E+01  0.32436223396E+01  0.92096167202E+01  0.10943232908E+02  0.51100000000E-03 0. -1.
        -11    1    3    3    0    0 -0.64383115001E+01  0.20816790020E+02  0.10795384935E+02  0.24317297092E+02  0.51100000000E-03 0.  1.
         12    1    3    3    0    0 -0.44832060745E+01  0.88826318861E+01  0.76104748724E+01  0.12526755913E+02  0.00000000000E+00 0. -1.
</event>
<event>
 7    1  0.3851772E-009  0.4778727E+02  0.7816164E-02  0.1312668E+00
        -11   -1    0    0    0    0  0.00000000000E+00  0.00000000000E+00  0.45593999997E+02  0.45594000000E+02  0.51100000000E-03 0. -1.
         11   -1    0    0    0    0 -0.00000000000E+00 -0.00000000000E+00 -0.45593999997E+02  0.45594000000E+02  0.51100000000E-03 0.  1.
    9900012    2    1    2    0    0 -0.11450984030E+02 -0.40704128590E+02  0.97812318104E+01  0.47787267111E+02  0.19999982067E+02 0.  0.
         12    1    1    2    0    0  0.11450984030E+02  0.40704128590E+02 -0.97812318104E+01  0.43400732889E+02  0.00000000000E+00 0. -1.
         11    1    3    3    0    0 -0.50353735406E+01 -0.55110528716E+01  0.91760346984E+01  0.11829044910E+02  0.51100000000E-03 0. -1.
        -11    1    3    3    0    0 -0.46313956662E+01 -0.19401965293E+02  0.17609563877E+01  0.20024661064E+02  0.51100000000E-03 0.  1.
         12    1    3    3    0    0 -0.17842148236E+01 -0.15791110425E+02 -0.11557592757E+01  0.15933561137E+02  0.00000000000E+00 0. -1.
</event>
<event>
 7    1  0.3851772E-009  0.4778727E+02  0.7816164E-02  0.1312668E+00
        -11   -1    0    0    0    0  0.00000000000E+00  0.00000000000E+00  0.45593999997E+02  0.45594000000E+02  0.51100000000E-03 0.  1.
         11   -1    0    0    0    0 -0.00000000000E+00 -0.00000000000E+00 -0.45593999997E+02  0.45594000000E+02  0.51100000000E-03 0. -1.
    9900012    2    1    2    0    0 -0.10670716692E+02 -0.12603106090E+02  0.40136280910E+02  0.47787268173E+02  0.19999986909E+02 0.  0.
         12    1    1    2    0    0  0.10670716692E+02  0.12603106090E+02 -0.40136280910E+02  0.43400731827E+02  0.00000000000E+00 0. -1.
         11    1    3    3    0    0 -0.12251620995E+01 -0.60628683319E+00  0.23125929517E+02  0.23166294960E+02  0.51100000000E-03 0. -1.
        -11    1    3    3    0    0 -0.69411204591E+01 -0.12160176181E+02  0.17110481897E+02  0.22109220452E+02  0.51100000000E-03 0.  1.
        -12    1    3    3    0    0 -0.25044341339E+01  0.16335692395E+00 -0.10013050429E+00  0.25117527612E+01  0.00000000000E+00 0.  1.
</event>
<event>
 7    1  0.3851772E-009  0.4778727E+02  0.7816164E-02  0.1312668E+00
        -11   -1    0    0    0    0  0.00000000000E+00  0.00000000000E+00  0.45593999997E+02  0.45594000000E+02  0.51100000000E-03 0.  1.
         11   -1    0    0    0    0 -0.00000000000E+00 -0.00000000000E+00 -0.45593999997E+02  0.45594000000E+02  0.51100000000E-03 0. -1.
    9900012    2    1    2    0    0  0.21700801342E+02 -0.12652919312E+02  0.35392118282E+02  0.47787272097E+02  0.20000004799E+02 0.  0.
         12    1    1    2    0    0 -0.21700801342E+02  0.12652919312E+02 -0.35392118282E+02  0.43400727903E+02  0.00000000000E+00 0. -1.
         11    1    3    3    0    0  0.18980206538E+01  0.70522018711E+00 -0.17914226246E+01  0.27035186694E+01  0.51100000000E-03 0. -1.
        -11    1    3    3    0    0  0.19146358768E+02 -0.11441150577E+02  0.28625718486E+02  0.36289319912E+02  0.51100000000E-03 0.  1.
         12    1    3    3    0    0  0.65642191997E+00 -0.19169889218E+01  0.85578224212E+01  0.87944335154E+01  0.00000000000E+00 0. -1.
</event>
<event>
 7    1  0.3851772E-009  0.4778728E+02  0.7816164E-02  0.1312668E+00
        -11   -1    0    0    0    0  0.00000000000E+00  0.00000000000E+00  0.45593999997E+02  0.45594000000E+02  0.51100000000E-03 0. -1.
         11   -1    0    0    0    0 -0.00000000000E+00 -0.00000000000E+00 -0.45593999997E+02  0.45594000000E+02  0.51100000000E-03 0.  1.
    9900012    2    1    2    0    0  0.10613195616E+02 -0.29563818689E+02 -0.29949350421E+02  0.47787275498E+02  0.20000020305E+02 0.  0.
         12    1    1    2    0    0 -0.10613195616E+02  0.29563818689E+02  0.29949350421E+02  0.43400724502E+02  0.00000000000E+00 0. -1.
         11    1    3    3    0    0  0.26524250605E+01 -0.10805576501E+01  0.19993422192E+01  0.34928975232E+01  0.51100000000E-03 0. -1.
        -11    1    3    3    0    0  0.88032070346E+01 -0.22253034635E+02 -0.21889566645E+02  0.32432192845E+02  0.51100000000E-03 0.  1.
        -12    1    3    3    0    0 -0.84243647880E+00 -0.62302264034E+01 -0.10059125996E+02  0.11862185130E+02  0.00000000000E+00 0.  1.
</event>
<event>
 7    1  0.3851772E-009  0.4778727E+02  0.7816164E-02  0.1312668E+00
        -11   -1    0    0    0    0  0.00000000000E+00  0.00000000000E+00  0.45593999997E+02  0.45594000000E+02  0.51100000000E-03 0. -1.
         11   -1    0    0    0    0 -0.00000000000E+00 -0.00000000000E+00 -0.45593999997E+02  0.45594000000E+02  0.51100000000E-03 0.  1.
    9900012    2    1    2    0    0  0.35646258076E+02  0.17628150851E+02 -0.17384350788E+02  0.47787273398E+02  0.20000010733E+02 0.  0.
         12    1    1    2    0    0 -0.35646258076E+02 -0.17628150851E+02  0.17384350788E+02  0.43400726602E+02  0.00000000000E+00 0. -1.
         11    1    3    3    0    0  0.28900766146E+00  0.66415801380E+00  0.20599567858E+01  0.21835873044E+01  0.51100000000E-03 0. -1.
        -11    1    3    3    0    0  0.33891318239E+02  0.13085813857E+02 -0.14413551649E+02  0.39084657446E+02  0.51100000000E-03 0.  1.
        -12    1    3    3    0    0  0.14659321756E+01  0.38781789800E+01 -0.50307559242E+01  0.65190286480E+01  0.00000000000E+00 0.  1.
</event>
<event>
 7    1  0.3851772E-009  0.4778727E+02  0.7816164E-02  0.1312668E+00
        -11   -1    0    0    0    0  0.00000000000E+00  0.00000000000E+00  0.45593999997E+02  0.45594000000E+02  0.51100000000E-03 0. -1.
         11   -1    0    0    0    0 -0.00000000000E+00 -0.00000000000E+00 -0.45593999997E+02  0.45594000000E+02  0.51100000000E-03 0.  1.
    9900012    2    1    2    0    0 -0.26234748607E+02 -0.27496432680E+02 -0.20959657336E+02  0.47787273275E+02  0.20000010170E+02 0.  0.
         12    1    1    2    0    0  0.26234748607E+02  0.27496432680E+02  0.20959657336E+02  0.43400726725E+02  0.00000000000E+00 0. -1.
         11    1    3    3    0    0 -0.92692517455E+01 -0.34201666363E+01 -0.13213135323E+02  0.16498591245E+02  0.51100000000E-03 0. -1.
        -11    1    3    3    0    0 -0.16682634100E+02 -0.21394691293E+02 -0.85997168306E+01  0.28460467773E+02  0.51100000000E-03 0.  1.
         12    1    3    3    0    0 -0.28286276160E+00 -0.26815747506E+01  0.85319481760E+00  0.28282142567E+01  0.00000000000E+00 0. -1.
</event>
<event>
 7    1  0.3851772E-009  0.4778727E+02  0.7816164E-02  0.1312668E+00
        -11   -1    0    0    0    0  0.00000000000E+00  0.00000000000E+00  0.45593999997E+02  0.45594000000E+02  0.51100000000E-03 0.  1.
         11   -1    0    0    0    0 -0.00000000000E+00 -0.00000000000E+00 -0.45593999997E+02  0.45594000000E+02  0.51100000000E-03 0. -1.
    9900012    2    1    2    0    0 -0.19682368078E+01  0.39232965963E+02  0.18453279387E+02  0.47787273110E+02  0.20000009419E+02 0.  0.
         12    1    1    2    0    0  0.19682368078E+01 -0.39232965963E+02 -0.18453279387E+02  0.43400726890E+02  0.00000000000E+00 0. -1.
         11    1    3    3    0    0 -0.26754477193E+01  0.54431726475E+01  0.11484544062E+02  0.12987721183E+02  0.51100000000E-03 0. -1.
        -11    1    3    3    0    0  0.13767607787E+01  0.32365515000E+02  0.59833567262E+01  0.32942716789E+02  0.51100000000E-03 0.  1.
         12    1    3    3    0    0 -0.66954986726E+00  0.14242783158E+01  0.98537859956E+00  0.18568351381E+01  0.00000000000E+00 0. -1.
</event>
<event>
 7    1  0.3851772E-009  0.4778728E+02  0.7816164E-02  0.1312668E+00
        -11   -1    0    0    0    0  0.00000000000E+00  0.00000000000E+00  0.45593999997E+02  0.45594000000E+02  0.51100000000E-03 0.  1.
         11   -1    0    0    0    0 -0.00000000000E+00 -0.00000000000E+00 -0.45593999997E+02  0.45594000000E+02  0.51100000000E-03 0. -1.
    9900012    2    1    2    0    0  0.11672644350E+02 -0.37708164550E+02  0.18040691029E+02  0.47787276128E+02  0.20000023176E+02 0.  0.
         12    1    1    2    0    0 -0.11672644350E+02  0.37708164550E+02 -0.18040691029E+02  0.43400723872E+02  0.00000000000E+00 0. -1.
         11    1    3    3    0    0 -0.22317622441E+01 -0.10515881872E+01  0.23884124865E+01  0.34338192871E+01  0.51100000000E-03 0. -1.
        -11    1    3    3    0    0  0.12091190760E+02 -0.19860918445E+02  0.34326289738E+01  0.23503955357E+02  0.51100000000E-03 0.  1.
        -12    1    3    3    0    0  0.18132158341E+01 -0.16795657917E+02  0.12219649568E+02  0.20849501484E+02  0.00000000000E+00 0.  1.
</event>
<event>
 7    1  0.3851772E-009  0.4778727E+02  0.7816164E-02  0.1312668E+00
        -11   -1    0    0    0    0  0.00000000000E+00  0.00000000000E+00  0.45593999997E+02  0.45594000000E+02  0.51100000000E-03 0. -1.
         11   -1    0    0    0    0 -0.00000000000E+00 -0.00000000000E+00 -0.45593999997E+02  0.45594000000E+02  0.51100000000E-03 0.  1.
    9900012    2    1    2    0    0  0.38373052634E+02  0.18977532357E+02  0.71404368368E+01  0.47787265662E+02  0.19999975459E+02 0.  0.
         12    1    1    2    0    0 -0.38373052634E+02 -0.18977532357E+02 -0.71404368368E+01  0.43400734338E+02  0.00000000000E+00 0. -1.
         11    1    3    3    0    0  0.83613630894E+01  0.76702925912E+01 -0.60003373669E+01  0.12835491028E+02  0.51100000000E-03 0. -1.
        -11    1    3    3    0    0  0.23344900581E+02  0.92550261904E+01  0.82516704659E+01  0.26433500689E+02  0.51100000000E-03 0.  1.
         12    1    3    3    0    0  0.66667889639E+01  0.20522135756E+01  0.48891037378E+01  0.85182739454E+01  0.00000000000E+00 0. -1.
</event>
<event>
 7    1  0.3851772E-009  0.4778727E+02  0.7816164E-02  0.1312668E+00
        -11   -1    0    0    0    0  0.00000000000E+00  0.00000000000E+00  0.45593999997E+02  0.45594000000E+02  0.51100000000E-03 0.  1.
         11   -1    0    0    0    0 -0.00000000000E+00 -0.00000000000E+00 -0.45593999997E+02  0.45594000000E+02  0.51100000000E-03 0. -1.
    9900012    2    1    2    0    0 -0.34270911611E+02 -0.13255045324E+02  0.23096142266E+02  0.47787269629E+02  0.19999993548E+02 0.  0.
         12    1    1    2    0    0  0.34270911611E+02  0.13255045324E+02 -0.23096142266E+02  0.43400730371E+02  0.00000000000E+00 0. -1.
         11    1    3    3    0    0 -0.24095090725E+02 -0.56383176105E+01  0.93454931849E+01  0.26451885862E+02  0.51100000000E-03 0. -1.
        -11    1    3    3    0    0 -0.10841051867E+02 -0.91926247252E+01  0.13506297113E+02  0.19607468396E+02  0.51100000000E-03 0.  1.
         12    1    3    3    0    0  0.66523098065E+00  0.15758970116E+01  0.24435196754E+00  0.17279153720E+01  0.00000000000E+00 0. -1.
</event>
<event>
 7    1  0.3851772E-009  0.4778727E+02  0.7816164E-02  0.1312668E+00
        -11   -1    0    0    0    0  0.00000000000E+00  0.00000000000E+00  0.45593999997E+02  0.45594000000E+02  0.51100000000E-03 0. -1.
         11   -1    0    0    0    0 -0.00000000000E+00 -0.00000000000E+00 -0.45593999997E+02  0.45594000000E+02  0.51100000000E-03 0.  1.
    9900012    2    1    2    0    0 -0.21073139629E+02  0.23417456002E+02 -0.29852454382E+02  0.47787268530E+02  0.19999988537E+02 0.  0.
         12    1    1    2    0    0  0.21073139629E+02 -0.23417456002E+02  0.29852454382E+02  0.43400731470E+02  0.00000000000E+00 0. -1.
         11    1    3    3    0    0  0.23178698634E+00  0.98896280639E+01 -0.49839958227E+01  0.11076943760E+02  0.51100000000E-03 0. -1.
        -11    1    3    3    0    0 -0.11900264233E+02  0.25350427099E+01 -0.14405916269E+02  0.18856647480E+02  0.51100000000E-03 0.  1.
        -12    1    3    3    0    0 -0.94046623828E+01  0.10992785228E+02 -0.10462542291E+02  0.17853677290E+02  0.00000000000E+00 0.  1.
</event>
<event>
 7    1  0.3851772E-009  0.4778727E+02  0.7816164E-02  0.1312668E+00
        -11   -1    0    0    0    0  0.00000000000E+00  0.00000000000E+00  0.45593999997E+02  0.45594000000E+02  0.51100000000E-03 0. -1.
         11   -1    0    0    0    0 -0.00000000000E+00 -0.00000000000E+00 -0.45593999997E+02  0.45594000000E+02  0.51100000000E-03 0.  1.
    9900012    2    1    2    0    0 -0.24287656309E+02 -0.34767722363E+02  0.92162116231E+01  0.47787270467E+02  0.19999997367E+02 0.  0.
         12    1    1    2    0    0  0.24287656309E+02  0.34767722363E+02 -0.92162116231E+01  0.43400729533E+02  0.00000000000E+00 0. -1.
         11    1    3    3    0    0 -0.87486633140E+01 -0.48848231226E+01  0.27694012461E+01  0.10395681327E+02  0.51100000000E-03 0. -1.
        -11    1    3    3    0    0 -0.54887603913E+01 -0.37094019882E+00  0.22104542769E+01  0.59287600420E+01  0.51100000000E-03 0.  1.
        -12    1    3    3    0    0 -0.10050232604E+02 -0.29511959042E+02  0.42363561001E+01  0.31462829098E+02  0.00000000000E+00 0.  1.
</event>
<event>
 7    1  0.3851772E-009  0.4778727E+02  0.7816164E-02  0.1312668E+00
        -11   -1    0    0    0    0  0.00000000000E+00  0.00000000000E+00  0.45593999997E+02  0.45594000000E+02  0.51100000000E-03 0.  1.
         11   -1    0    0    0    0 -0.00000000000E+00 -0.00000000000E+00 -0.45593999997E+02  0.45594000000E+02  0.51100000000E-03 0. -1.
    9900012    2    1    2    0    0  0.86138562894E+00 -0.43112677175E+02  0.49171518225E+01  0.47787270738E+02  0.19999998605E+02 0.  0.
         12    1    1    2    0    0 -0.86138562894E+00  0.43112677175E+02 -0.49171518225E+01  0.43400729262E+02  0.00000000000E+00 0. -1.
         11    1    3    3    0    0  0.29038256052E+01 -0.38551044519E+01 -0.20427475773E+01  0.52408826934E+01  0.51100000000E-03 0. -1.
        -11    1    3    3    0    0  0.41384539211E+01 -0.27091852868E+02  0.87835342811E+01  0.28779259326E+02  0.51100000000E-03 0.  1.
        -12    1    3    3    0    0 -0.61808938973E+01 -0.12165719856E+02 -0.18236348813E+01  0.13767128719E+02  0.00000000000E+00 0.  1.
</event>
<event>
 7    1  0.3851772E-009  0.4778726E+02  0.7816164E-02  0.1312668E+00
        -11   -1    0    0    0    0  0.00000000000E+00  0.00000000000E+00  0.45593999997E+02  0.45594000000E+02  0.51100000000E-03 0.  1.
         11   -1    0    0    0    0 -0.00000000000E+00 -0.00000000000E+00 -0.45593999997E+02  0.45594000000E+02  0.51100000000E-03 0. -1.
    9900012    2    1    2    0    0  0.20967638739E+02 -0.37692722225E+02  0.48209244149E+01  0.47787256974E+02  0.19999935846E+02 0.  0.
         12    1    1    2    0    0 -0.20967638739E+02  0.37692722225E+02 -0.48209244149E+01  0.43400743026E+02  0.00000000000E+00 0. -1.
         11    1    3    3    0    0  0.16162583791E+02 -0.23000296073E+02  0.66571183134E+01  0.28888751423E+02  0.51100000000E-03 0. -1.
        -11    1    3    3    0    0 -0.33728859106E+01 -0.34517980425E+01  0.29611212386E+00  0.48351785637E+01  0.51100000000E-03 0.  1.
        -12    1    3    3    0    0  0.81779408586E+01 -0.11240628109E+02 -0.21323060223E+01  0.14063326987E+02  0.00000000000E+00 0.  1.
</event>
<event>
 7    1  0.3851772E-009  0.4778727E+02  0.7816164E-02  0.1312668E+00
        -11   -1    0    0    0    0  0.00000000000E+00  0.00000000000E+00  0.45593999997E+02  0.45594000000E+02  0.51100000000E-03 0.  1.
         11   -1    0    0    0    0 -0.00000000000E+00 -0.00000000000E+00 -0.45593999997E+02  0.45594000000E+02  0.51100000000E-03 0. -1.
    9900012    2    1    2    0    0  0.21631237895E+02  0.36708568627E+02  0.82579368587E+01  0.47787274376E+02  0.20000015189E+02 0.  0.
         12    1    1    2    0    0 -0.21631237895E+02 -0.36708568627E+02 -0.82579368587E+01  0.43400725624E+02  0.00000000000E+00 0. -1.
         11    1    3    3    0    0  0.84550012229E+01  0.83475414079E+01  0.73732314315E+01  0.13983312742E+02  0.51100000000E-03 0. -1.
        -11    1    3    3    0    0  0.11719584631E+02  0.10399852038E+02  0.17310624341E+01  0.15763951400E+02  0.51100000000E-03 0.  1.
         12    1    3    3    0    0  0.14566520416E+01  0.17961175181E+02 -0.84635700695E+00  0.18040010234E+02  0.00000000000E+00 0. -1.
</event>
<event>
 7    1  0.3851772E-009  0.4778727E+02  0.7816164E-02  0.1312668E+00
        -11   -1    0    0    0    0  0.00000000000E+00  0.00000000000E+00  0.45593999997E+02  0.45594000000E+02  0.51100000000E-03 0. -1.
         11   -1    0    0    0    0 -0.00000000000E+00 -0.00000000000E+00 -0.45593999997E+02  0.45594000000E+02  0.51100000000E-03 0.  1.
    9900012    2    1    2    0    0  0.15120493111E+02 -0.32553411263E+02 -0.24398149885E+02  0.47787267119E+02  0.19999982102E+02 0.  0.
         12    1    1    2    0    0 -0.15120493111E+02  0.32553411263E+02  0.24398149885E+02  0.43400732881E+02  0.00000000000E+00 0. -1.
         11    1    3    3    0    0  0.31932756833E+01  0.96368591277E+00 -0.22019200548E+01  0.39967677337E+01  0.51100000000E-03 0. -1.
        -11    1    3    3    0    0  0.34696967828E+01 -0.18043023772E+02 -0.47353839572E+01  0.18974018133E+02  0.51100000000E-03 0.  1.
        -12    1    3    3    0    0  0.84575206453E+01 -0.15474073403E+02 -0.17460845873E+02  0.24816481253E+02  0.00000000000E+00 0.  1.
</event>
<event>
 7    1  0.3851772E-009  0.4778727E+02  0.7816164E-02  0.1312668E+00
        -11   -1    0    0    0    0  0.00000000000E+00  0.00000000000E+00  0.45593999997E+02  0.45594000000E+02  0.51100000000E-03 0.  1.
         11   -1    0    0    0    0 -0.00000000000E+00 -0.00000000000E+00 -0.45593999997E+02  0.45594000000E+02  0.51100000000E-03 0. -1.
    9900012    2    1    2    0    0 -0.15630930318E+01 -0.12256524908E+02  0.41604778329E+02  0.47787271406E+02  0.20000001648E+02 0.  0.
         12    1    1    2    0    0  0.15630930318E+01  0.12256524908E+02 -0.41604778329E+02  0.43400728594E+02  0.00000000000E+00 0. -1.
         11    1    3    3    0    0  0.39369874808E+01 -0.17317748854E+01  0.46348781875E+01  0.63230539103E+01  0.51100000000E-03 0. -1.
        -11    1    3    3    0    0 -0.35735480454E+01  0.26086987649E+01  0.41687277110E+01  0.60789675002E+01  0.51100000000E-03 0.  1.
        -12    1    3    3    0    0 -0.19265324673E+01 -0.13133448788E+02  0.32801172431E+02  0.35385249996E+02  0.00000000000E+00 0.  1.
</event>
<event>
 7    1  0.3851772E-009  0.4778727E+02  0.7816164E-02  0.1312668E+00
        -11   -1    0    0    0    0  0.00000000000E+00  0.00000000000E+00  0.45593999997E+02  0.45594000000E+02  0.51100000000E-03 0.  1.
         11   -1    0    0    0    0 -0.00000000000E+00 -0.00000000000E+00 -0.45593999997E+02  0.45594000000E+02  0.51100000000E-03 0. -1.
    9900012    2    1    2    0    0 -0.24396791159E+02  0.31612052889E+02  0.17002885145E+02  0.47787269477E+02  0.19999992854E+02 0.  0.
         12    1    1    2    0    0  0.24396791159E+02 -0.31612052889E+02 -0.17002885145E+02  0.43400730523E+02  0.00000000000E+00 0. -1.
         11    1    3    3    0    0 -0.99691587076E+01  0.17678378360E+01  0.35421588398E+01  0.10726428364E+02  0.51100000000E-03 0. -1.
        -11    1    3    3    0    0 -0.99165384293E+01  0.22358554422E+02  0.51393742669E+01  0.24993116219E+02  0.51100000000E-03 0.  1.
        -12    1    3    3    0    0 -0.45110940217E+01  0.74856606310E+01  0.83213520382E+01  0.12067724893E+02  0.00000000000E+00 0.  1.
</event>
<event>
 7    1  0.3851772E-009  0.4778727E+02  0.7816164E-02  0.1312668E+00
        -11   -1    0    0    0    0  0.00000000000E+00  0.00000000000E+00  0.45593999997E+02  0.45594000000E+02  0.51100000000E-03 0.  1.
         11   -1    0    0    0    0 -0.00000000000E+00 -0.00000000000E+00 -0.45593999997E+02  0.45594000000E+02  0.51100000000E-03 0. -1.
    9900012    2    1    2    0    0 -0.12845138858E+02  0.14067427603E+02  0.38996579306E+02  0.47787270638E+02  0.19999998145E+02 0.  0.
         12    1    1    2    0    0  0.12845138858E+02 -0.14067427603E+02 -0.38996579306E+02  0.43400729362E+02  0.00000000000E+00 0. -1.
         11    1    3    3    0    0 -0.20628225394E+01  0.85198742999E+01  0.12073739703E+02  0.14920411710E+02  0.51100000000E-03 0. -1.
        -11    1    3    3    0    0 -0.71228150448E+01  0.24497312223E+01  0.27041308238E+02  0.28070768224E+02  0.51100000000E-03 0.  1.
        -12    1    3    3    0    0 -0.36595012734E+01  0.30978220811E+01 -0.11846863523E+00  0.47960907033E+01  0.00000000000E+00 0.  1.
</event>
<event>
 7    1  0.3851772E-009  0.4778727E+02  0.7816164E-02  0.1312668E+00
        -11   -1    0    0    0    0  0.00000000000E+00  0.00000000000E+00  0.45593999997E+02  0.45594000000E+02  0.51100000000E-03 0.  1.
         11   -1    0    0    0    0 -0.00000000000E+00 -0.00000000000E+00 -0.45593999997E+02  0.45594000000E+02  0.51100000000E-03 0. -1.
    9900012    2    1    2    0    0  0.41880095315E+01 -0.28650884819E+02  0.32329716859E+02  0.47787271700E+02  0.20000002990E+02 0.  0.
         12    1    1    2    0    0 -0.41880095315E+01  0.28650884819E+02 -0.32329716859E+02  0.43400728300E+02  0.00000000000E+00 0. -1.
         11    1    3    3    0    0 -0.48335309275E+01 -0.12277361379E+02  0.20338519184E+02  0.24243596815E+02  0.51100000000E-03 0. -1.
        -11    1    3    3    0    0  0.20613015414E+01 -0.70026427588E+01  0.88173667139E+01  0.11446917737E+02  0.51100000000E-03 0.  1.
         12    1    3    3    0    0  0.69602389176E+01 -0.93708806814E+01  0.31738309608E+01  0.12096757148E+02  0.00000000000E+00 0. -1.
</event>
<event>
 7    1  0.3851772E-009  0.4778727E+02  0.7816164E-02  0.1312668E+00
        -11   -1    0    0    0    0  0.00000000000E+00  0.00000000000E+00  0.45593999997E+02  0.45594000000E+02  0.51100000000E-03 0. -1.
         11   -1    0    0    0    0 -0.00000000000E+00 -0.00000000000E+00 -0.45593999997E+02  0.45594000000E+02  0.51100000000E-03 0.  1.
    9900012    2    1    2    0    0  0.17936534734E+02 -0.31799576903E+02 -0.23466804758E+02  0.47787270800E+02  0.19999998887E+02 0.  0.
         12    1    1    2    0    0 -0.17936534734E+02  0.31799576903E+02  0.23466804758E+02  0.43400729200E+02  0.00000000000E+00 0. -1.
         11    1    3    3    0    0  0.16349695059E+02 -0.19052246312E+02 -0.19251159074E+02  0.31637126039E+02  0.51100000000E-03 0.  1.
        -11    1    3    3    0    0 -0.28031766549E+01 -0.48312139944E+01 -0.43778782425E+01  0.70967771689E+01  0.51100000000E-03 0. -1.
         12    1    3    3    0    0  0.43900163299E+01 -0.79161165973E+01  0.16223255825E+00  0.90533675923E+01  0.00000000000E+00 0. -1.
</event>
<event>
 7    1  0.3851772E-009  0.4778727E+02  0.7816164E-02  0.1312668E+00
        -11   -1    0    0    0    0  0.00000000000E+00  0.00000000000E+00  0.45593999997E+02  0.45594000000E+02  0.51100000000E-03 0. -1.
         11   -1    0    0    0    0 -0.00000000000E+00 -0.00000000000E+00 -0.45593999997E+02  0.45594000000E+02  0.51100000000E-03 0.  1.
    9900012    2    1    2    0    0 -0.59057507855E+01 -0.41911933284E+02 -0.95987011131E+01  0.47787272967E+02  0.20000008766E+02 0.  0.
         12    1    1    2    0    0  0.59057507855E+01  0.41911933284E+02  0.95987011131E+01  0.43400727033E+02  0.00000000000E+00 0. -1.
         11    1    3    3    0    0 -0.14191899296E+01 -0.33469048886E+00 -0.14355366365E+01  0.20461875465E+01  0.51100000000E-03 0. -1.
        -11    1    3    3    0    0 -0.73930175091E+01 -0.24883338199E+02 -0.11630769136E+02  0.28444894423E+02  0.51100000000E-03 0.  1.
        -12    1    3    3    0    0  0.29064566532E+01 -0.16693904596E+02  0.34676046590E+01  0.17296190997E+02  0.00000000000E+00 0.  1.
</event>
<event>
 7    1  0.3851772E-009  0.4778734E+02  0.7816164E-02  0.1312667E+00
        -11   -1    0    0    0    0  0.00000000000E+00  0.00000000000E+00  0.45593999997E+02  0.45594000000E+02  0.51100000000E-03 0. -1.
         11   -1    0    0    0    0 -0.00000000000E+00 -0.00000000000E+00 -0.45593999997E+02  0.45594000000E+02  0.51100000000E-03 0.  1.
    9900012    2    1    2    0    0  0.10463955130E+02  0.38154236596E+02 -0.17843138483E+02  0.47787335050E+02  0.20000291826E+02 0.  0.
         12    1    1    2    0    0 -0.10463955130E+02 -0.38154236596E+02  0.17843138483E+02  0.43400664950E+02  0.00000000000E+00 0. -1.
         11    1    3    3    0    0 -0.36841179347E+01  0.13667180759E+02 -0.92300125084E+01  0.16898452178E+02  0.51100000000E-03 0. -1.
        -11    1    3    3    0    0  0.12039170114E+02  0.18486070008E+02 -0.27380220363E+01  0.22230005990E+02  0.51100000000E-03 0.  1.
        -12    1    3    3    0    0  0.21089029502E+01  0.60009858281E+01 -0.58751039385E+01  0.86588768816E+01  0.00000000000E+00 0.  1.
</event>
<event>
 7    1  0.3851772E-009  0.4778728E+02  0.7816164E-02  0.1312668E+00
        -11   -1    0    0    0    0  0.00000000000E+00  0.00000000000E+00  0.45593999997E+02  0.45594000000E+02  0.51100000000E-03 0.  1.
         11   -1    0    0    0    0 -0.00000000000E+00 -0.00000000000E+00 -0.45593999997E+02  0.45594000000E+02  0.51100000000E-03 0. -1.
    9900012    2    1    2    0    0 -0.26096914601E+02 -0.45448988520E+01  0.34379021621E+02  0.47787283591E+02  0.20000057203E+02 0.  0.
         12    1    1    2    0    0  0.26096914601E+02  0.45448988520E+01 -0.34379021621E+02  0.43400716409E+02  0.00000000000E+00 0. -1.
         11    1    3    3    0    0 -0.83446009337E+01  0.45982441876E+01  0.67701846083E+01  0.11688097118E+02  0.51100000000E-03 0. -1.
        -11    1    3    3    0    0 -0.11936206845E+02  0.37221028292E+00  0.12136483139E+02  0.17026620264E+02  0.51100000000E-03 0.  1.
         12    1    3    3    0    0 -0.58161068217E+01 -0.95153533225E+01  0.15472353873E+02  0.19072566209E+02  0.00000000000E+00 0. -1.
</event>
<event>
 7    1  0.3851772E-009  0.4778727E+02  0.7816164E-02  0.1312668E+00
        -11   -1    0    0    0    0  0.00000000000E+00  0.00000000000E+00  0.45593999997E+02  0.45594000000E+02  0.51100000000E-03 0.  1.
         11   -1    0    0    0    0 -0.00000000000E+00 -0.00000000000E+00 -0.45593999997E+02  0.45594000000E+02  0.51100000000E-03 0. -1.
    9900012    2    1    2    0    0 -0.33371766575E+02 -0.27623153474E+02 -0.26287208522E+01  0.47787267454E+02  0.19999983630E+02 0.  0.
         12    1    1    2    0    0  0.33371766575E+02  0.27623153474E+02  0.26287208522E+01  0.43400732546E+02  0.00000000000E+00 0. -1.
         11    1    3    3    0    0 -0.20258393421E+02 -0.16733617572E+02  0.38519097276E+01  0.26556612545E+02  0.51100000000E-03 0. -1.
        -11    1    3    3    0    0 -0.63346552929E+01 -0.10430380861E+02 -0.55586223141E+00  0.12215960284E+02  0.51100000000E-03 0.  1.
         12    1    3    3    0    0 -0.67787178614E+01 -0.45915504059E+00 -0.59247683484E+01  0.90146946248E+01  0.00000000000E+00 0. -1.
</event>
<event>
 7    1  0.3851772E-009  0.4778727E+02  0.7816164E-02  0.1312668E+00
        -11   -1    0    0    0    0  0.00000000000E+00  0.00000000000E+00  0.45593999997E+02  0.45594000000E+02  0.51100000000E-03 0.  1.
         11   -1    0    0    0    0 -0.00000000000E+00 -0.00000000000E+00 -0.45593999997E+02  0.45594000000E+02  0.51100000000E-03 0. -1.
    9900012    2    1    2    0    0 -0.12775982224E+02 -0.23756129949E+02  0.34000641286E+02  0.47787273741E+02  0.20000012295E+02 0.  0.
         12    1    1    2    0    0  0.12775982224E+02  0.23756129949E+02 -0.34000641286E+02  0.43400726259E+02  0.00000000000E+00 0. -1.
         11    1    3    3    0    0 -0.42181067722E+01 -0.15600696262E+02  0.10860255322E+02  0.19470985967E+02  0.51100000000E-03 0. -1.
        -11    1    3    3    0    0 -0.52844644255E+01 -0.83059899621E+01  0.23020593391E+02  0.25037227359E+02  0.51100000000E-03 0.  1.
         12    1    3    3    0    0 -0.32734110267E+01  0.15055627595E+00  0.11979257345E+00  0.32790604146E+01  0.00000000000E+00 0. -1.
</event>
<event>
 7    1  0.3851772E-009  0.4778727E+02  0.7816164E-02  0.1312668E+00
        -11   -1    0    0    0    0  0.00000000000E+00  0.00000000000E+00  0.45593999997E+02  0.45594000000E+02  0.51100000000E-03 0.  1.
         11   -1    0    0    0    0 -0.00000000000E+00 -0.00000000000E+00 -0.45593999997E+02  0.45594000000E+02  0.51100000000E-03 0. -1.
    9900012    2    1    2    0    0 -0.36377219464E+02  0.35304844282E+01  0.23406342849E+02  0.47787270722E+02  0.19999998531E+02 0.  0.
         12    1    1    2    0    0  0.36377219464E+02 -0.35304844282E+01 -0.23406342849E+02  0.43400729278E+02  0.00000000000E+00 0. -1.
         11    1    3    3    0    0 -0.11457524915E+02 -0.11943461790E+01  0.14391349963E+02  0.18433998319E+02  0.51100000000E-03 0.  1.
        -11    1    3    3    0    0 -0.19196470891E+02  0.39700227777E+00  0.19763709847E+01  0.19302024454E+02  0.51100000000E-03 0. -1.
        -12    1    3    3    0    0 -0.57232236582E+01  0.43278283294E+01  0.70386219012E+01  0.10051247950E+02  0.00000000000E+00 0.  1.
</event>
<event>
 7    1  0.3851772E-009  0.4778727E+02  0.7816164E-02  0.1312668E+00
        -11   -1    0    0    0    0  0.00000000000E+00  0.00000000000E+00  0.45593999997E+02  0.45594000000E+02  0.51100000000E-03 0. -1.
         11   -1    0    0    0    0 -0.00000000000E+00 -0.00000000000E+00 -0.45593999997E+02  0.45594000000E+02  0.51100000000E-03 0.  1.
    9900012    2    1    2    0    0 -0.25603813924E+02  0.21630849386E+02 -0.27571258056E+02  0.47787271857E+02  0.20000003703E+02 0.  0.
         12    1    1    2    0    0  0.25603813924E+02 -0.21630849386E+02  0.27571258056E+02  0.43400728143E+02  0.00000000000E+00 0. -1.
         11    1    3    3    0    0  0.13251113223E+01  0.10924927275E+01 -0.62879102106E+01  0.65182264040E+01  0.51100000000E-03 0. -1.
        -11    1    3    3    0    0 -0.15956061805E+02  0.17338451957E+02 -0.11479883453E+02  0.26210790697E+02  0.51100000000E-03 0.  1.
         12    1    3    3    0    0 -0.10972863441E+02  0.31999047010E+01 -0.98034643925E+01  0.15058254756E+02  0.00000000000E+00 0. -1.
</event>
<event>
 7    1  0.3851772E-009  0.4778727E+02  0.7816164E-02  0.1312668E+00
        -11   -1    0    0    0    0  0.00000000000E+00  0.00000000000E+00  0.45593999997E+02  0.45594000000E+02  0.51100000000E-03 0.  1.
         11   -1    0    0    0    0 -0.00000000000E+00 -0.00000000000E+00 -0.45593999997E+02  0.45594000000E+02  0.51100000000E-03 0. -1.
    9900012    2    1    2    0    0 -0.12586309376E+02  0.18679969833E+02  0.37098074622E+02  0.47787267318E+02  0.19999983008E+02 0.  0.
         12    1    1    2    0    0  0.12586309376E+02 -0.18679969833E+02 -0.37098074622E+02  0.43400732682E+02  0.00000000000E+00 0. -1.
         11    1    3    3    0    0  0.14979025627E+01  0.10376575264E+02  0.24845066398E+02  0.26966541322E+02  0.51100000000E-03 0. -1.
        -11    1    3    3    0    0 -0.11107054782E+02  0.67690719043E+01  0.11557332560E+02  0.17399969440E+02  0.51100000000E-03 0.  1.
         12    1    3    3    0    0 -0.29771571573E+01  0.15343226653E+01  0.69567566459E+00  0.34207565553E+01  0.00000000000E+00 0. -1.
</event>
<event>
 7    1  0.3851772E-009  0.4778727E+02  0.7816164E-02  0.1312668E+00
        -11   -1    0    0    0    0  0.00000000000E+00  0.00000000000E+00  0.45593999997E+02  0.45594000000E+02  0.51100000000E-03 0. -1.
         11   -1    0    0    0    0 -0.00000000000E+00 -0.00000000000E+00 -0.45593999997E+02  0.45594000000E+02  0.51100000000E-03 0.  1.
    9900012    2    1    2    0    0 -0.43044989233E+02 -0.53479518253E+01 -0.14668503508E+01  0.47787270320E+02  0.19999996697E+02 0.  0.
         12    1    1    2    0    0  0.43044989233E+02  0.53479518253E+01  0.14668503508E+01  0.43400729680E+02  0.00000000000E+00 0. -1.
         11    1    3    3    0    0 -0.15681084779E+02  0.61027778992E+01  0.35305396719E+00  0.16830477275E+02  0.51100000000E-03 0. -1.
        -11    1    3    3    0    0 -0.18696668177E+02 -0.42785391191E+01 -0.37482044741E+01  0.19542782170E+02  0.51100000000E-03 0.  1.
         12    1    3    3    0    0 -0.86672362772E+01 -0.71721906054E+01  0.19283001561E+01  0.11414010875E+02  0.00000000000E+00 0. -1.
</event>
<event>
 7    1  0.3851772E-009  0.4778728E+02  0.7816164E-02  0.1312668E+00
        -11   -1    0    0    0    0  0.00000000000E+00  0.00000000000E+00  0.45593999997E+02  0.45594000000E+02  0.51100000000E-03 0. -1.
         11   -1    0    0    0    0 -0.00000000000E+00 -0.00000000000E+00 -0.45593999997E+02  0.45594000000E+02  0.51100000000E-03 0.  1.
    9900012    2    1    2    0    0 -0.27249983933E+01  0.15764910934E+02 -0.40344326938E+02  0.47787277091E+02  0.20000027567E+02 0.  0.
         12    1    1    2    0    0  0.27249983933E+01 -0.15764910934E+02  0.40344326938E+02  0.43400722909E+02  0.00000000000E+00 0. -1.
         11    1    3    3    0    0  0.46966529525E+01  0.73854394689E+01 -0.22387097153E+02  0.24037166728E+02  0.51100000000E-03 0.  1.
        -11    1    3    3    0    0 -0.73631612981E+01  0.14772648772E+01 -0.13748074257E+02  0.15665503562E+02  0.51100000000E-03 0. -1.
         12    1    3    3    0    0 -0.58490047757E-01  0.69022065878E+01 -0.42091555278E+01  0.80846068008E+01  0.00000000000E+00 0. -1.
</event>
<event>
 7    1  0.3851772E-009  0.4778727E+02  0.7816164E-02  0.1312668E+00
        -11   -1    0    0    0    0  0.00000000000E+00  0.00000000000E+00  0.45593999997E+02  0.45594000000E+02  0.51100000000E-03 0. -1.
         11   -1    0    0    0    0 -0.00000000000E+00 -0.00000000000E+00 -0.45593999997E+02  0.45594000000E+02  0.51100000000E-03 0.  1.
    9900012    2    1    2    0    0 -0.27588831174E+02  0.33314063963E+02 -0.35570675209E+01  0.47787271981E+02  0.20000004269E+02 0.  0.
         12    1    1    2    0    0  0.27588831174E+02 -0.33314063963E+02  0.35570675209E+01  0.43400728019E+02  0.00000000000E+00 0. -1.
         11    1    3    3    0    0  0.12462148215E+01  0.77695489251E+01  0.22410623193E+01  0.81817664633E+01  0.51100000000E-03 0. -1.
        -11    1    3    3    0    0 -0.22718209998E+02  0.22390425606E+02 -0.69012930920E+01  0.32635503228E+02  0.51100000000E-03 0.  1.
        -12    1    3    3    0    0 -0.61168359969E+01  0.31540894322E+01  0.11031632519E+01  0.69700022898E+01  0.00000000000E+00 0.  1.
</event>
<event>
 7    1  0.3851772E-009  0.4778727E+02  0.7816164E-02  0.1312668E+00
        -11   -1    0    0    0    0  0.00000000000E+00  0.00000000000E+00  0.45593999997E+02  0.45594000000E+02  0.51100000000E-03 0.  1.
         11   -1    0    0    0    0 -0.00000000000E+00 -0.00000000000E+00 -0.45593999997E+02  0.45594000000E+02  0.51100000000E-03 0. -1.
    9900012    2    1    2    0    0 -0.32663121682E+02  0.27801565656E+02  0.66194283349E+01  0.47787269563E+02  0.19999993246E+02 0.  0.
         12    1    1    2    0    0  0.32663121682E+02 -0.27801565656E+02 -0.66194283349E+01  0.43400730437E+02  0.00000000000E+00 0. -1.
         11    1    3    3    0    0 -0.18721570183E+02  0.23048676431E+02  0.17918630808E+01  0.29748099921E+02  0.51100000000E-03 0. -1.
        -11    1    3    3    0    0  0.20067245319E+00  0.12733922026E+01  0.31195139576E+01  0.33753762350E+01  0.51100000000E-03 0.  1.
         12    1    3    3    0    0 -0.14142223953E+02  0.34794970221E+01  0.17080512965E+01  0.14663793407E+02  0.00000000000E+00 0. -1.
</event>
<event>
 7    1  0.3851772E-009  0.4778727E+02  0.7816164E-02  0.1312668E+00
        -11   -1    0    0    0    0  0.00000000000E+00  0.00000000000E+00  0.45593999997E+02  0.45594000000E+02  0.51100000000E-03 0.  1.
         11   -1    0    0    0    0 -0.00000000000E+00 -0.00000000000E+00 -0.45593999997E+02  0.45594000000E+02  0.51100000000E-03 0. -1.
    9900012    2    1    2    0    0 -0.19937780697E+02 -0.36116598479E+02  0.13479585287E+02  0.47787274150E+02  0.20000014158E+02 0.  0.
         12    1    1    2    0    0  0.19937780697E+02  0.36116598479E+02 -0.13479585287E+02  0.43400725850E+02  0.00000000000E+00 0. -1.
         11    1    3    3    0    0 -0.10662693960E+02 -0.62280655809E+01 -0.31142292464E+00  0.12352280270E+02  0.51100000000E-03 0. -1.
        -11    1    3    3    0    0 -0.36199290785E+01 -0.18214478185E+02  0.12529286287E+02  0.22402100732E+02  0.51100000000E-03 0.  1.
        -12    1    3    3    0    0 -0.56551576579E+01 -0.11674054713E+02  0.12617219248E+01  0.13032893148E+02  0.00000000000E+00 0.  1.
</event>
<event>
 7    1  0.3851772E-009  0.4778727E+02  0.7816164E-02  0.1312668E+00
        -11   -1    0    0    0    0  0.00000000000E+00  0.00000000000E+00  0.45593999997E+02  0.45594000000E+02  0.51100000000E-03 0.  1.
         11   -1    0    0    0    0 -0.00000000000E+00 -0.00000000000E+00 -0.45593999997E+02  0.45594000000E+02  0.51100000000E-03 0. -1.
    9900012    2    1    2    0    0 -0.29050636992E+02 -0.21619890647E+02  0.23922042420E+02  0.47787270804E+02  0.19999998902E+02 0.  0.
         12    1    1    2    0    0  0.29050636992E+02  0.21619890647E+02 -0.23922042420E+02  0.43400729196E+02  0.00000000000E+00 0. -1.
         11    1    3    3    0    0 -0.12465109006E+02 -0.70262067591E+00  0.36552599307E+01  0.13008979352E+02  0.51100000000E-03 0. -1.
        -11    1    3    3    0    0 -0.72483341951E+01 -0.35816920047E+01  0.89767375997E+01  0.12080922333E+02  0.51100000000E-03 0.  1.
         12    1    3    3    0    0 -0.93371937912E+01 -0.17335577966E+02  0.11290044890E+02  0.22697369119E+02  0.00000000000E+00 0. -1.
</event>
<event>
 7    1  0.3851772E-009  0.4778727E+02  0.7816164E-02  0.1312668E+00
        -11   -1    0    0    0    0  0.00000000000E+00  0.00000000000E+00  0.45593999997E+02  0.45594000000E+02  0.51100000000E-03 0.  1.
         11   -1    0    0    0    0 -0.00000000000E+00 -0.00000000000E+00 -0.45593999997E+02  0.45594000000E+02  0.51100000000E-03 0. -1.
    9900012    2    1    2    0    0 -0.22358320098E+02 -0.22452260457E+02  0.29658474115E+02  0.47787267701E+02  0.19999984757E+02 0.  0.
         12    1    1    2    0    0  0.22358320098E+02  0.22452260457E+02 -0.29658474115E+02  0.43400732299E+02  0.00000000000E+00 0. -1.
         11    1    3    3    0    0 -0.11258782456E+02 -0.76349518535E+01  0.47633072703E+01  0.14413249759E+02  0.51100000000E-03 0. -1.
        -11    1    3    3    0    0 -0.94933649292E+01 -0.69543410553E+01  0.21798056655E+02  0.24771800730E+02  0.51100000000E-03 0.  1.
        -12    1    3    3    0    0 -0.16061727127E+01 -0.78629675483E+01  0.30971101897E+01  0.86022172128E+01  0.00000000000E+00 0.  1.
</event>
<event>
 7    1  0.3851772E-009  0.4778727E+02  0.7816164E-02  0.1312668E+00
        -11   -1    0    0    0    0  0.00000000000E+00  0.00000000000E+00  0.45593999997E+02  0.45594000000E+02  0.51100000000E-03 0. -1.
         11   -1    0    0    0    0 -0.00000000000E+00 -0.00000000000E+00 -0.45593999997E+02  0.45594000000E+02  0.51100000000E-03 0.  1.
    9900012    2    1    2    0    0  0.30954501574E+02 -0.19906214657E+02 -0.23004016309E+02  0.47787270559E+02  0.19999997788E+02 0.  0.
         12    1    1    2    0    0 -0.30954501574E+02  0.19906214657E+02  0.23004016309E+02  0.43400729441E+02  0.00000000000E+00 0. -1.
         11    1    3    3    0    0  0.18159224259E+02 -0.10821351512E+02 -0.51796304672E+01  0.21764366434E+02  0.51100000000E-03 0. -1.
        -11    1    3    3    0    0  0.87488087348E+01 -0.11343006754E+02 -0.13589213135E+02  0.19745180941E+02  0.51100000000E-03 0.  1.
        -12    1    3    3    0    0  0.40464685800E+01  0.22581436088E+01 -0.42351727064E+01  0.62777231844E+01  0.00000000000E+00 0.  1.
</event>
<event>
 7    1  0.3851772E-009  0.4778728E+02  0.7816164E-02  0.1312668E+00
        -11   -1    0    0    0    0  0.00000000000E+00  0.00000000000E+00  0.45593999997E+02  0.45594000000E+02  0.51100000000E-03 0.  1.
         11   -1    0    0    0    0 -0.00000000000E+00 -0.00000000000E+00 -0.45593999997E+02  0.45594000000E+02  0.51100000000E-03 0. -1.
    9900012    2    1    2    0    0 -0.64979219774E+01  0.37071370640E+02  0.21612801104E+02  0.47787277855E+02  0.20000031052E+02 0.  0.
         12    1    1    2    0    0  0.64979219774E+01 -0.37071370640E+02 -0.21612801104E+02  0.43400722145E+02  0.00000000000E+00 0. -1.
         11    1    3    3    0    0 -0.64535289495E+01  0.52246492446E+01  0.86088892344E+00  0.83478216099E+01  0.51100000000E-03 0. -1.
        -11    1    3    3    0    0 -0.23065804749E+01  0.21481618077E+02  0.18826855620E+02  0.28657123399E+02  0.51100000000E-03 0.  1.
        -12    1    3    3    0    0  0.22621874470E+01  0.10365103318E+02  0.19250565606E+01  0.10782332846E+02  0.00000000000E+00 0.  1.
</event>
<event>
 7    1  0.3851772E-009  0.4778727E+02  0.7816164E-02  0.1312668E+00
        -11   -1    0    0    0    0  0.00000000000E+00  0.00000000000E+00  0.45593999997E+02  0.45594000000E+02  0.51100000000E-03 0.  1.
         11   -1    0    0    0    0 -0.00000000000E+00 -0.00000000000E+00 -0.45593999997E+02  0.45594000000E+02  0.51100000000E-03 0. -1.
    9900012    2    1    2    0    0 -0.23000796466E+02 -0.27135500772E+02 -0.24864662680E+02  0.47787268550E+02  0.19999988627E+02 0.  0.
         12    1    1    2    0    0  0.23000796466E+02  0.27135500772E+02  0.24864662680E+02  0.43400731450E+02  0.00000000000E+00 0. -1.
         11    1    3    3    0    0  0.14561767958E+01 -0.22059834298E+01 -0.32932189420E+01  0.42228077169E+01  0.51100000000E-03 0. -1.
        -11    1    3    3    0    0 -0.15804342656E+02 -0.58072240179E+01 -0.88562599743E+01  0.19024574596E+02  0.51100000000E-03 0.  1.
        -12    1    3    3    0    0 -0.86526306064E+01 -0.19122293324E+02 -0.12715183763E+02  0.24539886237E+02  0.00000000000E+00 0.  1.
</event>
<event>
 7    1  0.3851772E-009  0.4778728E+02  0.7816164E-02  0.1312668E+00
        -11   -1    0    0    0    0  0.00000000000E+00  0.00000000000E+00  0.45593999997E+02  0.45594000000E+02  0.51100000000E-03 0.  1.
         11   -1    0    0    0    0 -0.00000000000E+00 -0.00000000000E+00 -0.45593999997E+02  0.45594000000E+02  0.51100000000E-03 0. -1.
    9900012    2    1    2    0    0  0.14759015295E+02  0.94066680001E+01  0.39715345954E+02  0.47787278352E+02  0.20000033316E+02 0.  0.
         12    1    1    2    0    0 -0.14759015295E+02 -0.94066680001E+01 -0.39715345954E+02  0.43400721648E+02  0.00000000000E+00 0. -1.
         11    1    3    3    0    0  0.67316680514E+01 -0.49580879890E+01  0.21610208585E+02  0.23171083414E+02  0.51100000000E-03 0. -1.
        -11    1    3    3    0    0  0.46046009615E+01  0.54854435503E+01  0.77279915964E+01  0.10536332157E+02  0.51100000000E-03 0.  1.
         12    1    3    3    0    0  0.34227462823E+01  0.88793124388E+01  0.10377145773E+02  0.14079862780E+02  0.00000000000E+00 0. -1.
</event>
<event>
 7    1  0.3851772E-009  0.4778726E+02  0.7816164E-02  0.1312668E+00
        -11   -1    0    0    0    0  0.00000000000E+00  0.00000000000E+00  0.45593999997E+02  0.45594000000E+02  0.51100000000E-03 0. -1.
         11   -1    0    0    0    0 -0.00000000000E+00 -0.00000000000E+00 -0.45593999997E+02  0.45594000000E+02  0.51100000000E-03 0.  1.
    9900012    2    1    2    0    0 -0.40176918422E+02  0.10252564136E+02 -0.12818910613E+02  0.47787259055E+02  0.19999945334E+02 0.  0.
         12    1    1    2    0    0  0.40176918422E+02 -0.10252564136E+02  0.12818910613E+02  0.43400740945E+02  0.00000000000E+00 0. -1.
         11    1    3    3    0    0 -0.18202902451E+02 -0.37564403763E+01 -0.65665940344E+01  0.19712347892E+02  0.51100000000E-03 0. -1.
        -11    1    3    3    0    0 -0.20798401730E+02  0.10419338926E+02 -0.68516560596E+01  0.24250388227E+02  0.51100000000E-03 0.  1.
         12    1    3    3    0    0 -0.11756142415E+01  0.35896655865E+01  0.59933948065E+00  0.38245229351E+01  0.00000000000E+00 0. -1.
</event>
<event>
 7    1  0.3851772E-009  0.4778727E+02  0.7816164E-02  0.1312668E+00
        -11   -1    0    0    0    0  0.00000000000E+00  0.00000000000E+00  0.45593999997E+02  0.45594000000E+02  0.51100000000E-03 0.  1.
         11   -1    0    0    0    0 -0.00000000000E+00 -0.00000000000E+00 -0.45593999997E+02  0.45594000000E+02  0.51100000000E-03 0. -1.
    9900012    2    1    2    0    0  0.13980502636E+02 -0.23867545247E+02  0.33444117532E+02  0.47787272269E+02  0.20000005584E+02 0.  0.
         12    1    1    2    0    0 -0.13980502636E+02  0.23867545247E+02 -0.33444117532E+02  0.43400727731E+02  0.00000000000E+00 0. -1.
         11    1    3    3    0    0 -0.26703554635E+01  0.10668550771E+01  0.17696321373E+01  0.33764739329E+01  0.51100000000E-03 0. -1.
        -11    1    3    3    0    0  0.10625295164E+02 -0.21171346752E+02  0.21423714799E+02  0.31938978954E+02  0.51100000000E-03 0.  1.
        -12    1    3    3    0    0  0.60255629360E+01 -0.37630535725E+01  0.10250770596E+02  0.12471819382E+02  0.00000000000E+00 0.  1.
</event>
<event>
 7    1  0.3851772E-009  0.4778725E+02  0.7816164E-02  0.1312668E+00
        -11   -1    0    0    0    0  0.00000000000E+00  0.00000000000E+00  0.45593999997E+02  0.45594000000E+02  0.51100000000E-03 0.  1.
         11   -1    0    0    0    0 -0.00000000000E+00 -0.00000000000E+00 -0.45593999997E+02  0.45594000000E+02  0.51100000000E-03 0. -1.
    9900012    2    1    2    0    0 -0.30462400575E+02 -0.18116993416E+01  0.30860729406E+02  0.47787254352E+02  0.19999923894E+02 0.  0.
         12    1    1    2    0    0  0.30462400575E+02  0.18116993416E+01 -0.30860729406E+02  0.43400745648E+02  0.00000000000E+00 0. -1.
         11    1    3    3    0    0 -0.63335494062E+01 -0.59479460368E+00  0.17491916084E+02  0.18612757916E+02  0.51100000000E-03 0. -1.
        -11    1    3    3    0    0 -0.46199377295E+00  0.19419934137E+01  0.15812387697E+01  0.25465845702E+01  0.51100000000E-03 0.  1.
         12    1    3    3    0    0 -0.23666857395E+02 -0.31588981516E+01  0.11787574553E+02  0.26627911866E+02  0.00000000000E+00 0. -1.
</event>
<event>
 7    1  0.3851772E-009  0.4778727E+02  0.7816164E-02  0.1312668E+00
        -11   -1    0    0    0    0  0.00000000000E+00  0.00000000000E+00  0.45593999997E+02  0.45594000000E+02  0.51100000000E-03 0.  1.
         11   -1    0    0    0    0 -0.00000000000E+00 -0.00000000000E+00 -0.45593999997E+02  0.45594000000E+02  0.51100000000E-03 0. -1.
    9900012    2    1    2    0    0 -0.30059253578E+02 -0.21146102500E+01  0.31234487667E+02  0.47787268185E+02  0.19999986965E+02 0.  0.
         12    1    1    2    0    0  0.30059253578E+02  0.21146102500E+01 -0.31234487667E+02  0.43400731815E+02  0.00000000000E+00 0. -1.
         11    1    3    3    0    0 -0.27235166904E+01  0.36901599671E+01  0.94139507711E+01  0.10471737828E+02  0.51100000000E-03 0. -1.
        -11    1    3    3    0    0 -0.15603664312E+02 -0.18521622973E+00  0.57281673126E+01  0.16622892229E+02  0.51100000000E-03 0.  1.
        -12    1    3    3    0    0 -0.11732072576E+02 -0.56195539874E+01  0.16092369584E+02  0.20692638129E+02  0.00000000000E+00 0.  1.
</event>
<event>
 7    1  0.3851772E-009  0.4778727E+02  0.7816164E-02  0.1312668E+00
        -11   -1    0    0    0    0  0.00000000000E+00  0.00000000000E+00  0.45593999997E+02  0.45594000000E+02  0.51100000000E-03 0.  1.
         11   -1    0    0    0    0 -0.00000000000E+00 -0.00000000000E+00 -0.45593999997E+02  0.45594000000E+02  0.51100000000E-03 0. -1.
    9900012    2    1    2    0    0 -0.38734274478E+02 -0.15665903695E+01  0.19514736317E+02  0.47787272376E+02  0.20000006072E+02 0.  0.
         12    1    1    2    0    0  0.38734274478E+02  0.15665903695E+01 -0.19514736317E+02  0.43400727624E+02  0.00000000000E+00 0. -1.
         11    1    3    3    0    0 -0.71624805733E+01 -0.49908284154E+01  0.10178174475E+02  0.13409128687E+02  0.51100000000E-03 0. -1.
        -11    1    3    3    0    0 -0.22083524088E+02  0.15912348311E+01  0.10748438281E+02  0.24611846541E+02  0.51100000000E-03 0.  1.
         12    1    3    3    0    0 -0.94882698170E+01  0.18330032148E+01 -0.14118764392E+01  0.97662971481E+01  0.00000000000E+00 0. -1.
</event>
<event>
 7    1  0.3851772E-009  0.4778727E+02  0.7816164E-02  0.1312668E+00
        -11   -1    0    0    0    0  0.00000000000E+00  0.00000000000E+00  0.45593999997E+02  0.45594000000E+02  0.51100000000E-03 0.  1.
         11   -1    0    0    0    0 -0.00000000000E+00 -0.00000000000E+00 -0.45593999997E+02  0.45594000000E+02  0.51100000000E-03 0. -1.
    9900012    2    1    2    0    0  0.21835928483E+02 -0.37417006961E+02  0.26044956620E+01  0.47787267515E+02  0.19999983908E+02 0.  0.
         12    1    1    2    0    0 -0.21835928483E+02  0.37417006961E+02 -0.26044956620E+01  0.43400732485E+02  0.00000000000E+00 0. -1.
         11    1    3    3    0    0  0.80820132413E+01 -0.17224929869E+02 -0.45137432106E+01  0.19554821018E+02  0.51100000000E-03 0. -1.
        -11    1    3    3    0    0  0.12009511048E+02 -0.18560493468E+02  0.15355760466E+01  0.22160285815E+02  0.51100000000E-03 0.  1.
         12    1    3    3    0    0  0.17444041936E+01 -0.16315836244E+01  0.55826628260E+01  0.60721606816E+01  0.00000000000E+00 0. -1.
</event>
<event>
 7    1  0.3851772E-009  0.4778727E+02  0.7816164E-02  0.1312668E+00
        -11   -1    0    0    0    0  0.00000000000E+00  0.00000000000E+00  0.45593999997E+02  0.45594000000E+02  0.51100000000E-03 0.  1.
         11   -1    0    0    0    0 -0.00000000000E+00 -0.00000000000E+00 -0.45593999997E+02  0.45594000000E+02  0.51100000000E-03 0. -1.
    9900012    2    1    2    0    0  0.40905527357E+02  0.12294948194E+02  0.76938529512E+01  0.47787270828E+02  0.19999999011E+02 0.  0.
         12    1    1    2    0    0 -0.40905527357E+02 -0.12294948194E+02 -0.76938529512E+01  0.43400729172E+02  0.00000000000E+00 0. -1.
         11    1    3    3    0    0  0.77560363603E+01  0.12565214606E+01 -0.56178003188E+01  0.96589143741E+01  0.51100000000E-03 0.  1.
        -11    1    3    3    0    0  0.13796072425E+02  0.53085867218E+01  0.95452377375E+01  0.17596143642E+02  0.51100000000E-03 0. -1.
        -12    1    3    3    0    0  0.19353418572E+02  0.57298400118E+01  0.37664155325E+01  0.20532212812E+02  0.00000000000E+00 0.  1.
</event>
<event>
 7    1  0.3851772E-009  0.4778727E+02  0.7816164E-02  0.1312668E+00
        -11   -1    0    0    0    0  0.00000000000E+00  0.00000000000E+00  0.45593999997E+02  0.45594000000E+02  0.51100000000E-03 0. -1.
         11   -1    0    0    0    0 -0.00000000000E+00 -0.00000000000E+00 -0.45593999997E+02  0.45594000000E+02  0.51100000000E-03 0.  1.
    9900012    2    1    2    0    0 -0.37879108598E+02 -0.14783204540E+02 -0.15174106208E+02  0.47787268395E+02  0.19999987919E+02 0.  0.
         12    1    1    2    0    0  0.37879108598E+02  0.14783204540E+02  0.15174106208E+02  0.43400731605E+02  0.00000000000E+00 0. -1.
         11    1    3    3    0    0 -0.34934593917E+00 -0.55252239181E+01 -0.69391655096E+00  0.55795754651E+01  0.51100000000E-03 0. -1.
        -11    1    3    3    0    0 -0.28292188582E+02 -0.92981504722E+01 -0.77336007994E+01  0.30768687306E+02  0.51100000000E-03 0.  1.
         12    1    3    3    0    0 -0.92375740769E+01  0.40169849842E-01 -0.67465888579E+01  0.11439005624E+02  0.00000000000E+00 0. -1.
</event>
<event>
 7    1  0.3851772E-009  0.4778727E+02  0.7816164E-02  0.1312668E+00
        -11   -1    0    0    0    0  0.00000000000E+00  0.00000000000E+00  0.45593999997E+02  0.45594000000E+02  0.51100000000E-03 0.  1.
         11   -1    0    0    0    0 -0.00000000000E+00 -0.00000000000E+00 -0.45593999997E+02  0.45594000000E+02  0.51100000000E-03 0. -1.
    9900012    2    1    2    0    0 -0.15023778989E+02 -0.33225755552E+02  0.23536327609E+02  0.47787268619E+02  0.19999988942E+02 0.  0.
         12    1    1    2    0    0  0.15023778989E+02  0.33225755552E+02 -0.23536327609E+02  0.43400731381E+02  0.00000000000E+00 0. -1.
         11    1    3    3    0    0 -0.13789948069E+02 -0.19748684374E+02  0.91203295463E+01  0.25755652070E+02  0.51100000000E-03 0. -1.
        -11    1    3    3    0    0  0.14434402244E+01  0.40497339186E+00  0.45527007424E+01  0.47931834349E+01  0.51100000000E-03 0.  1.
        -12    1    3    3    0    0 -0.26772711440E+01 -0.13882044569E+02  0.98632973201E+01  0.17238433114E+02  0.00000000000E+00 0.  1.
</event>
<event>
 7    1  0.3851772E-009  0.4778727E+02  0.7816164E-02  0.1312668E+00
        -11   -1    0    0    0    0  0.00000000000E+00  0.00000000000E+00  0.45593999997E+02  0.45594000000E+02  0.51100000000E-03 0.  1.
         11   -1    0    0    0    0 -0.00000000000E+00 -0.00000000000E+00 -0.45593999997E+02  0.45594000000E+02  0.51100000000E-03 0. -1.
    9900012    2    1    2    0    0  0.18887362479E+02 -0.35080927715E+01  0.38917657420E+02  0.47787271488E+02  0.20000002023E+02 0.  0.
         12    1    1    2    0    0 -0.18887362479E+02  0.35080927715E+01 -0.38917657420E+02  0.43400728512E+02  0.00000000000E+00 0. -1.
         11    1    3    3    0    0  0.13401304104E+02 -0.68012638692E+01  0.27166193638E+02  0.31046001658E+02  0.51100000000E-03 0. -1.
        -11    1    3    3    0    0  0.30970177379E+01 -0.32301211215E+01  0.70591310824E+01  0.83580220883E+01  0.51100000000E-03 0.  1.
         12    1    3    3    0    0  0.23890406378E+01  0.65232922192E+01  0.46923326994E+01  0.83832477422E+01  0.00000000000E+00 0. -1.
</event>
<event>
 7    1  0.3851772E-009  0.4778727E+02  0.7816164E-02  0.1312668E+00
        -11   -1    0    0    0    0  0.00000000000E+00  0.00000000000E+00  0.45593999997E+02  0.45594000000E+02  0.51100000000E-03 0.  1.
         11   -1    0    0    0    0 -0.00000000000E+00 -0.00000000000E+00 -0.45593999997E+02  0.45594000000E+02  0.51100000000E-03 0. -1.
    9900012    2    1    2    0    0 -0.61400616525E-01 -0.12552200928E+02  0.41545896500E+02  0.47787273806E+02  0.20000012593E+02 0.  0.
         12    1    1    2    0    0  0.61400616525E-01  0.12552200928E+02 -0.41545896500E+02  0.43400726194E+02  0.00000000000E+00 0. -1.
         11    1    3    3    0    0  0.38929825981E+01 -0.12542610025E+02  0.14110734840E+02  0.19276545794E+02  0.51100000000E-03 0. -1.
        -11    1    3    3    0    0 -0.38646315005E+01  0.28936644622E+01  0.18207073060E+02  0.18836299539E+02  0.51100000000E-03 0.  1.
         12    1    3    3    0    0 -0.89751714108E-01 -0.29032553646E+01  0.92280886003E+01  0.96744284739E+01  0.00000000000E+00 0. -1.
</event>
<event>
 7    1  0.3851772E-009  0.4778727E+02  0.7816164E-02  0.1312668E+00
        -11   -1    0    0    0    0  0.00000000000E+00  0.00000000000E+00  0.45593999997E+02  0.45594000000E+02  0.51100000000E-03 0.  1.
         11   -1    0    0    0    0 -0.00000000000E+00 -0.00000000000E+00 -0.45593999997E+02  0.45594000000E+02  0.51100000000E-03 0. -1.
    9900012    2    1    2    0    0 -0.11686879949E+02  0.12648711337E+02  0.39837801791E+02  0.47787268290E+02  0.19999987442E+02 0.  0.
         12    1    1    2    0    0  0.11686879949E+02 -0.12648711337E+02 -0.39837801791E+02  0.43400731710E+02  0.00000000000E+00 0. -1.
         11    1    3    3    0    0  0.32804076925E+01  0.18827655542E+01  0.10309725603E+01  0.39203042538E+01  0.51100000000E-03 0. -1.
        -11    1    3    3    0    0 -0.14303424481E+02  0.74771902710E+01  0.36142941939E+02  0.39582932919E+02  0.51100000000E-03 0.  1.
        -12    1    3    3    0    0 -0.66386316022E+00  0.32887555116E+01  0.26638872919E+01  0.42840311174E+01  0.00000000000E+00 0.  1.
</event>
<event>
 7    1  0.3851772E-009  0.4778727E+02  0.7816164E-02  0.1312668E+00
        -11   -1    0    0    0    0  0.00000000000E+00  0.00000000000E+00  0.45593999997E+02  0.45594000000E+02  0.51100000000E-03 0.  1.
         11   -1    0    0    0    0 -0.00000000000E+00 -0.00000000000E+00 -0.45593999997E+02  0.45594000000E+02  0.51100000000E-03 0. -1.
    9900012    2    1    2    0    0 -0.32362019756E+02  0.28897452377E+02  0.11226723475E+01  0.47787268787E+02  0.19999989708E+02 0.  0.
         12    1    1    2    0    0  0.32362019756E+02 -0.28897452377E+02 -0.11226723475E+01  0.43400731213E+02  0.00000000000E+00 0. -1.
         11    1    3    3    0    0 -0.21556748097E+02  0.14905119098E+02 -0.54399763359E+01  0.26766570692E+02  0.51100000000E-03 0. -1.
        -11    1    3    3    0    0 -0.42399308158E+01  0.59817120411E+01  0.76623649467E+01  0.10605174638E+02  0.51100000000E-03 0.  1.
        -12    1    3    3    0    0 -0.65653408434E+01  0.80106212387E+01 -0.10997162632E+01  0.10415523457E+02  0.00000000000E+00 0.  1.
</event>
<event>
 7    1  0.3851772E-009  0.4778729E+02  0.7816164E-02  0.1312668E+00
        -11   -1    0    0    0    0  0.00000000000E+00  0.00000000000E+00  0.45593999997E+02  0.45594000000E+02  0.51100000000E-03 0.  1.
         11   -1    0    0    0    0 -0.00000000000E+00 -0.00000000000E+00 -0.45593999997E+02  0.45594000000E+02  0.51100000000E-03 0. -1.
    9900012    2    1    2    0    0  0.24279438789E+02  0.29111830995E+02  0.21133673563E+02  0.47787285605E+02  0.20000066385E+02 0.  0.
         12    1    1    2    0    0 -0.24279438789E+02 -0.29111830995E+02 -0.21133673563E+02  0.43400714395E+02  0.00000000000E+00 0. -1.
         11    1    3    3    0    0  0.47328813031E+01 -0.38107891108E+00 -0.10816794167E+01  0.48698477581E+01  0.51100000000E-03 0. -1.
        -11    1    3    3    0    0  0.10594267223E+02  0.17396723484E+02  0.18265772297E+02  0.27359146987E+02  0.51100000000E-03 0.  1.
         12    1    3    3    0    0  0.89522902622E+01  0.12096186423E+02  0.39495806821E+01  0.15558290860E+02  0.00000000000E+00 0. -1.
</event>
<event>
 7    1  0.3851772E-009  0.4778727E+02  0.7816164E-02  0.1312668E+00
        -11   -1    0    0    0    0  0.00000000000E+00  0.00000000000E+00  0.45593999997E+02  0.45594000000E+02  0.51100000000E-03 0. -1.
         11   -1    0    0    0    0 -0.00000000000E+00 -0.00000000000E+00 -0.45593999997E+02  0.45594000000E+02  0.51100000000E-03 0.  1.
    9900012    2    1    2    0    0 -0.38760845786E+02 -0.14003563663E+02 -0.13605886571E+02  0.47787272924E+02  0.20000008571E+02 0.  0.
         12    1    1    2    0    0  0.38760845786E+02  0.14003563663E+02  0.13605886571E+02  0.43400727076E+02  0.00000000000E+00 0. -1.
         11    1    3    3    0    0 -0.45073997329E+01 -0.20218362563E+01  0.16514785288E+01  0.52088247995E+01  0.51100000000E-03 0. -1.
        -11    1    3    3    0    0 -0.12797322538E+01 -0.21148607878E+01  0.27800841745E+01  0.37201100886E+01  0.51100000000E-03 0.  1.
        -12    1    3    3    0    0 -0.32973713799E+02 -0.98668666191E+01 -0.18037449274E+02  0.38858338036E+02  0.00000000000E+00 0.  1.
</event>
<event>
 7    1  0.3851772E-009  0.4778727E+02  0.7816164E-02  0.1312668E+00
        -11   -1    0    0    0    0  0.00000000000E+00  0.00000000000E+00  0.45593999997E+02  0.45594000000E+02  0.51100000000E-03 0.  1.
         11   -1    0    0    0    0 -0.00000000000E+00 -0.00000000000E+00 -0.45593999997E+02  0.45594000000E+02  0.51100000000E-03 0. -1.
    9900012    2    1    2    0    0  0.40191142412E+02  0.16354237226E+02  0.91353946760E+00  0.47787267771E+02  0.19999985077E+02 0.  0.
         12    1    1    2    0    0 -0.40191142412E+02 -0.16354237226E+02 -0.91353946760E+00  0.43400732229E+02  0.00000000000E+00 0. -1.
         11    1    3    3    0    0 -0.18764003853E+01 -0.29744882206E+00  0.18954654375E+00  0.19092622557E+01  0.51100000000E-03 0. -1.
        -11    1    3    3    0    0  0.32847044322E+02  0.10415281465E+02  0.27317921059E+01  0.34566878613E+02  0.51100000000E-03 0.  1.
         12    1    3    3    0    0  0.92204984756E+01  0.62364045829E+01 -0.20077991821E+01  0.11311126903E+02  0.00000000000E+00 0. -1.
</event>
<event>
 7    1  0.3851772E-009  0.4778727E+02  0.7816164E-02  0.1312668E+00
        -11   -1    0    0    0    0  0.00000000000E+00  0.00000000000E+00  0.45593999997E+02  0.45594000000E+02  0.51100000000E-03 0. -1.
         11   -1    0    0    0    0 -0.00000000000E+00 -0.00000000000E+00 -0.45593999997E+02  0.45594000000E+02  0.51100000000E-03 0.  1.
    9900012    2    1    2    0    0  0.29809779819E+02  0.11076598582E+02 -0.29534879329E+02  0.47787272979E+02  0.20000008820E+02 0.  0.
         12    1    1    2    0    0 -0.29809779819E+02 -0.11076598582E+02  0.29534879329E+02  0.43400727021E+02  0.00000000000E+00 0. -1.
         11    1    3    3    0    0  0.38016297766E+01  0.83591275504E+01 -0.66193936824E+01  0.11320060748E+02  0.51100000000E-03 0. -1.
        -11    1    3    3    0    0  0.19033267978E+02  0.42539850125E+01 -0.10514644753E+02  0.22156701761E+02  0.51100000000E-03 0.  1.
         12    1    3    3    0    0  0.69748820652E+01 -0.15365139812E+01 -0.12400840893E+02  0.14310510469E+02  0.00000000000E+00 0. -1.
</event>
<event>
 7    1  0.3851772E-009  0.4778728E+02  0.7816164E-02  0.1312668E+00
        -11   -1    0    0    0    0  0.00000000000E+00  0.00000000000E+00  0.45593999997E+02  0.45594000000E+02  0.51100000000E-03 0.  1.
         11   -1    0    0    0    0 -0.00000000000E+00 -0.00000000000E+00 -0.45593999997E+02  0.45594000000E+02  0.51100000000E-03 0. -1.
    9900012    2    1    2    0    0  0.24443635817E+02 -0.34885055542E+02  0.83165029362E+01  0.47787278194E+02  0.20000032600E+02 0.  0.
         12    1    1    2    0    0 -0.24443635817E+02  0.34885055542E+02 -0.83165029362E+01  0.43400721806E+02  0.00000000000E+00 0. -1.
         11    1    3    3    0    0 -0.80239613283E+00 -0.40663873313E+00  0.44635317215E+00  0.10042041768E+01  0.51100000000E-03 0. -1.
        -11    1    3    3    0    0  0.16252839891E+01 -0.19432278086E+01 -0.41123508335E+01  0.48300219461E+01  0.51100000000E-03 0.  1.
        -12    1    3    3    0    0  0.23620747961E+02 -0.32535189001E+02  0.11982500598E+02  0.41953052071E+02  0.00000000000E+00 0.  1.
</event>
<event>
 7    1  0.3851772E-009  0.4778727E+02  0.7816164E-02  0.1312668E+00
        -11   -1    0    0    0    0  0.00000000000E+00  0.00000000000E+00  0.45593999997E+02  0.45594000000E+02  0.51100000000E-03 0.  1.
         11   -1    0    0    0    0 -0.00000000000E+00 -0.00000000000E+00 -0.45593999997E+02  0.45594000000E+02  0.51100000000E-03 0. -1.
    9900012    2    1    2    0    0 -0.23094615892E+02  0.48907285911E+01  0.36418995669E+02  0.47787265503E+02  0.19999974732E+02 0.  0.
         12    1    1    2    0    0  0.23094615892E+02 -0.48907285911E+01 -0.36418995669E+02  0.43400734497E+02  0.00000000000E+00 0. -1.
         11    1    3    3    0    0 -0.18967974782E+02  0.82785321275E+01  0.19158923338E+02  0.28202526575E+02  0.51100000000E-03 0. -1.
        -11    1    3    3    0    0 -0.10601832665E+01 -0.53240708164E+01  0.82899862334E+01  0.99092679158E+01  0.51100000000E-03 0.  1.
         12    1    3    3    0    0 -0.30664578439E+01  0.19362672800E+01  0.89700860979E+01  0.96754710114E+01  0.00000000000E+00 0. -1.
</event>
<event>
 7    1  0.3851772E-009  0.4778728E+02  0.7816164E-02  0.1312668E+00
        -11   -1    0    0    0    0  0.00000000000E+00  0.00000000000E+00  0.45593999997E+02  0.45594000000E+02  0.51100000000E-03 0. -1.
         11   -1    0    0    0    0 -0.00000000000E+00 -0.00000000000E+00 -0.45593999997E+02  0.45594000000E+02  0.51100000000E-03 0.  1.
    9900012    2    1    2    0    0 -0.26477393286E+02  0.34297902937E+02  0.24948796594E+01  0.47787275057E+02  0.20000018293E+02 0.  0.
         12    1    1    2    0    0  0.26477393286E+02 -0.34297902937E+02 -0.24948796594E+01  0.43400724943E+02  0.00000000000E+00 0. -1.
         11    1    3    3    0    0 -0.12688330885E+02  0.37061993923E+01 -0.10344861672E+01  0.13258952314E+02  0.51100000000E-03 0. -1.
        -11    1    3    3    0    0 -0.36196771501E+01  0.12803000716E+02 -0.16137884635E+01  0.13402358131E+02  0.51100000000E-03 0.  1.
        -12    1    3    3    0    0 -0.10169385251E+02  0.17788702828E+02  0.51431542901E+01  0.21125964611E+02  0.00000000000E+00 0.  1.
</event>
<event>
 7    1  0.3851772E-009  0.4778724E+02  0.7816164E-02  0.1312668E+00
        -11   -1    0    0    0    0  0.00000000000E+00  0.00000000000E+00  0.45593999997E+02  0.45594000000E+02  0.51100000000E-03 0.  1.
         11   -1    0    0    0    0 -0.00000000000E+00 -0.00000000000E+00 -0.45593999997E+02  0.45594000000E+02  0.51100000000E-03 0. -1.
    9900012    2    1    2    0    0 -0.22142210684E+02  0.29270924469E+02  0.23163788269E+02  0.47787244243E+02  0.19999877803E+02 0.  0.
         12    1    1    2    0    0  0.22142210684E+02 -0.29270924469E+02 -0.23163788269E+02  0.43400755757E+02  0.00000000000E+00 0. -1.
         11    1    3    3    0    0  0.44927674998E+00  0.56074011866E+01  0.60573264439E+00  0.56578891792E+01  0.51100000000E-03 0. -1.
        -11    1    3    3    0    0 -0.10417898379E+02  0.14789138605E+02  0.19790082832E+02  0.26812284611E+02  0.51100000000E-03 0.  1.
        -12    1    3    3    0    0 -0.12173589055E+02  0.88743846780E+01  0.27679727933E+01  0.15317070454E+02  0.00000000000E+00 0.  1.
</event>
<event>
 7    1  0.3851772E-009  0.4778727E+02  0.7816164E-02  0.1312668E+00
        -11   -1    0    0    0    0  0.00000000000E+00  0.00000000000E+00  0.45593999997E+02  0.45594000000E+02  0.51100000000E-03 0.  1.
         11   -1    0    0    0    0 -0.00000000000E+00 -0.00000000000E+00 -0.45593999997E+02  0.45594000000E+02  0.51100000000E-03 0. -1.
    9900012    2    1    2    0    0 -0.73085285871E+01 -0.20690072156E+02  0.37445022236E+02  0.47787269981E+02  0.19999995150E+02 0.  0.
         12    1    1    2    0    0  0.73085285871E+01  0.20690072156E+02 -0.37445022236E+02  0.43400730019E+02  0.00000000000E+00 0. -1.
         11    1    3    3    0    0 -0.66238762720E+01 -0.30270454760E+01  0.76878760035E+01  0.10589720435E+02  0.51100000000E-03 0. -1.
        -11    1    3    3    0    0  0.39690018528E+01 -0.15439536289E+02  0.26985435251E+02  0.31342398959E+02  0.51100000000E-03 0.  1.
        -12    1    3    3    0    0 -0.46536541679E+01 -0.22234903904E+01  0.27717109819E+01  0.58551505872E+01  0.00000000000E+00 0.  1.
</event>
<event>
 7    1  0.3851772E-009  0.4778728E+02  0.7816164E-02  0.1312668E+00
        -11   -1    0    0    0    0  0.00000000000E+00  0.00000000000E+00  0.45593999997E+02  0.45594000000E+02  0.51100000000E-03 0. -1.
         11   -1    0    0    0    0 -0.00000000000E+00 -0.00000000000E+00 -0.45593999997E+02  0.45594000000E+02  0.51100000000E-03 0.  1.
    9900012    2    1    2    0    0 -0.19711512458E+01  0.17676098759E+02 -0.39589047788E+02  0.47787278700E+02  0.20000034905E+02 0.  0.
         12    1    1    2    0    0  0.19711512458E+01 -0.17676098759E+02  0.39589047788E+02  0.43400721300E+02  0.00000000000E+00 0. -1.
         11    1    3    3    0    0 -0.74490033418E+01  0.14131790114E+02 -0.21460739853E+02  0.26753663262E+02  0.51100000000E-03 0. -1.
        -11    1    3    3    0    0  0.50764181821E+01 -0.93441493522E-02 -0.16187172443E+02  0.16964511806E+02  0.51100000000E-03 0.  1.
        -12    1    3    3    0    0  0.40143391391E+00  0.35536527938E+01 -0.19411354924E+01  0.40691036318E+01  0.00000000000E+00 0.  1.
</event>
<event>
 7    1  0.3851772E-009  0.4778728E+02  0.7816164E-02  0.1312668E+00
        -11   -1    0    0    0    0  0.00000000000E+00  0.00000000000E+00  0.45593999997E+02  0.45594000000E+02  0.51100000000E-03 0.  1.
         11   -1    0    0    0    0 -0.00000000000E+00 -0.00000000000E+00 -0.45593999997E+02  0.45594000000E+02  0.51100000000E-03 0. -1.
    9900012    2    1    2    0    0 -0.25204560384E+02 -0.30871503131E+01  0.35196909379E+02  0.47787276607E+02  0.20000025363E+02 0.  0.
         12    1    1    2    0    0  0.25204560384E+02  0.30871503131E+01 -0.35196909379E+02  0.43400723393E+02  0.00000000000E+00 0. -1.
         11    1    3    3    0    0 -0.19085142780E+02 -0.24772284179E+01  0.17143951145E+02  0.25773909224E+02  0.51100000000E-03 0. -1.
        -11    1    3    3    0    0 -0.87399193757E+00  0.49002627994E+01  0.76039070882E+01  0.90882253866E+01  0.51100000000E-03 0.  1.
        -12    1    3    3    0    0 -0.52454256657E+01 -0.55101846946E+01  0.10449051146E+02  0.12925141997E+02  0.00000000000E+00 0.  1.
</event>
<event>
 7    1  0.3851772E-009  0.4778727E+02  0.7816164E-02  0.1312668E+00
        -11   -1    0    0    0    0  0.00000000000E+00  0.00000000000E+00  0.45593999997E+02  0.45594000000E+02  0.51100000000E-03 0.  1.
         11   -1    0    0    0    0 -0.00000000000E+00 -0.00000000000E+00 -0.45593999997E+02  0.45594000000E+02  0.51100000000E-03 0. -1.
    9900012    2    1    2    0    0 -0.25555223077E+02  0.73025223539E+01  0.34310742068E+02  0.47787270968E+02  0.19999999652E+02 0.  0.
         12    1    1    2    0    0  0.25555223077E+02 -0.73025223539E+01 -0.34310742068E+02  0.43400729032E+02  0.00000000000E+00 0. -1.
         11    1    3    3    0    0 -0.22951469514E+02  0.85948406548E+01  0.20713081737E+02  0.32088518103E+02  0.51100000000E-03 0. -1.
        -11    1    3    3    0    0 -0.41662612553E+01 -0.17399935101E+01  0.13301139414E+02  0.14046551899E+02  0.51100000000E-03 0.  1.
         12    1    3    3    0    0  0.15625076920E+01  0.44767520918E+00  0.29652091627E+00  0.16522009666E+01  0.00000000000E+00 0. -1.
</event>
<event>
 7    1  0.3851772E-009  0.4778725E+02  0.7816164E-02  0.1312668E+00
        -11   -1    0    0    0    0  0.00000000000E+00  0.00000000000E+00  0.45593999997E+02  0.45594000000E+02  0.51100000000E-03 0. -1.
         11   -1    0    0    0    0 -0.00000000000E+00 -0.00000000000E+00 -0.45593999997E+02  0.45594000000E+02  0.51100000000E-03 0.  1.
    9900012    2    1    2    0    0  0.61507948520E+00 -0.39030898651E+02  0.18969335467E+02  0.47787250463E+02  0.19999906162E+02 0.  0.
         12    1    1    2    0    0 -0.61507948520E+00  0.39030898651E+02 -0.18969335467E+02  0.43400749537E+02  0.00000000000E+00 0. -1.
         11    1    3    3    0    0 -0.13495365327E+01 -0.94757512758E+01 -0.86627260930E+00  0.96104911211E+01  0.51100000000E-03 0. -1.
        -11    1    3    3    0    0  0.52027004519E+01 -0.10908740040E+02  0.13728216138E+02  0.18290232909E+02  0.51100000000E-03 0.  1.
        -12    1    3    3    0    0 -0.32380844341E+01 -0.18646407335E+02  0.61073919385E+01  0.19886526434E+02  0.00000000000E+00 0.  1.
</event>
<event>
 7    1  0.3851772E-009  0.4778723E+02  0.7816164E-02  0.1312668E+00
        -11   -1    0    0    0    0  0.00000000000E+00  0.00000000000E+00  0.45593999997E+02  0.45594000000E+02  0.51100000000E-03 0. -1.
         11   -1    0    0    0    0 -0.00000000000E+00 -0.00000000000E+00 -0.45593999997E+02  0.45594000000E+02  0.51100000000E-03 0.  1.
    9900012    2    1    2    0    0  0.42352977502E+02 -0.41723660423E+01 -0.85113889574E+01  0.47787227153E+02  0.19999799882E+02 0.  0.
         12    1    1    2    0    0 -0.42352977502E+02  0.41723660423E+01  0.85113889574E+01  0.43400772847E+02  0.00000000000E+00 0. -1.
         11    1    3    3    0    0 -0.79631939985E+00 -0.70400389427E+00 -0.22692999614E+01  0.25058867983E+01  0.51100000000E-03 0. -1.
        -11    1    3    3    0    0  0.28095925801E+02 -0.65771358501E+01 -0.46119048557E+00  0.28859183279E+02  0.51100000000E-03 0.  1.
        -12    1    3    3    0    0  0.15053371101E+02  0.31087737021E+01 -0.57808985105E+01  0.16422157076E+02  0.00000000000E+00 0.  1.
</event>
<event>
 7    1  0.3851772E-009  0.4778727E+02  0.7816164E-02  0.1312668E+00
        -11   -1    0    0    0    0  0.00000000000E+00  0.00000000000E+00  0.45593999997E+02  0.45594000000E+02  0.51100000000E-03 0. -1.
         11   -1    0    0    0    0 -0.00000000000E+00 -0.00000000000E+00 -0.45593999997E+02  0.45594000000E+02  0.51100000000E-03 0.  1.
    9900012    2    1    2    0    0  0.30965709578E+02 -0.30215369822E+02  0.34321299110E+01  0.47787271217E+02  0.20000000788E+02 0.  0.
         12    1    1    2    0    0 -0.30965709578E+02  0.30215369822E+02 -0.34321299110E+01  0.43400728783E+02  0.00000000000E+00 0. -1.
         11    1    3    3    0    0  0.11469724468E+02 -0.87051520562E+01 -0.71327620713E+01  0.16068931101E+02  0.51100000000E-03 0. -1.
        -11    1    3    3    0    0  0.28539387616E+01 -0.32933694396E+01  0.45938386276E+01  0.63320298734E+01  0.51100000000E-03 0.  1.
         12    1    3    3    0    0  0.16642046348E+02 -0.18216848326E+02  0.59710533548E+01  0.25386310243E+02  0.00000000000E+00 0. -1.
</event>
<event>
 7    1  0.3851772E-009  0.4778727E+02  0.7816164E-02  0.1312668E+00
        -11   -1    0    0    0    0  0.00000000000E+00  0.00000000000E+00  0.45593999997E+02  0.45594000000E+02  0.51100000000E-03 0. -1.
         11   -1    0    0    0    0 -0.00000000000E+00 -0.00000000000E+00 -0.45593999997E+02  0.45594000000E+02  0.51100000000E-03 0.  1.
    9900012    2    1    2    0    0 -0.28515792054E+02 -0.23703580057E+02 -0.22552448298E+02  0.47787273875E+02  0.20000012904E+02 0.  0.
         12    1    1    2    0    0  0.28515792054E+02  0.23703580057E+02  0.22552448298E+02  0.43400726125E+02  0.00000000000E+00 0. -1.
         11    1    3    3    0    0  0.77033353502E+00 -0.36172919912E+00 -0.14142441357E+01  0.16505600580E+01  0.51100000000E-03 0. -1.
        -11    1    3    3    0    0 -0.19784512035E+02 -0.14493532169E+02 -0.43409020089E+01  0.24906481520E+02  0.51100000000E-03 0.  1.
        -12    1    3    3    0    0 -0.95016135539E+01 -0.88483186888E+01 -0.16797302153E+02  0.21230232297E+02  0.00000000000E+00 0.  1.
</event>
<event>
 7    1  0.3851772E-009  0.4778727E+02  0.7816164E-02  0.1312668E+00
        -11   -1    0    0    0    0  0.00000000000E+00  0.00000000000E+00  0.45593999997E+02  0.45594000000E+02  0.51100000000E-03 0. -1.
         11   -1    0    0    0    0 -0.00000000000E+00 -0.00000000000E+00 -0.45593999997E+02  0.45594000000E+02  0.51100000000E-03 0.  1.
    9900012    2    1    2    0    0  0.41495941997E+02 -0.12403406967E+02 -0.28046225415E+01  0.47787267124E+02  0.19999982125E+02 0.  0.
         12    1    1    2    0    0 -0.41495941997E+02  0.12403406967E+02  0.28046225415E+01  0.43400732876E+02  0.00000000000E+00 0. -1.
         11    1    3    3    0    0  0.22816573320E+01  0.23431096297E+01  0.28081451333E+00  0.32825264614E+01  0.51100000000E-03 0. -1.
        -11    1    3    3    0    0  0.30213258533E+02 -0.16442776065E+02  0.11421466263E+01  0.34416716506E+02  0.51100000000E-03 0.  1.
        -12    1    3    3    0    0  0.90010261320E+01  0.16962594678E+01 -0.42275836811E+01  0.10088024157E+02  0.00000000000E+00 0.  1.
</event>
<event>
 7    1  0.3851772E-009  0.4778727E+02  0.7816164E-02  0.1312668E+00
        -11   -1    0    0    0    0  0.00000000000E+00  0.00000000000E+00  0.45593999997E+02  0.45594000000E+02  0.51100000000E-03 0.  1.
         11   -1    0    0    0    0 -0.00000000000E+00 -0.00000000000E+00 -0.45593999997E+02  0.45594000000E+02  0.51100000000E-03 0. -1.
    9900012    2    1    2    0    0 -0.11322440815E+02  0.37117479868E+02  0.19434979079E+02  0.47787269711E+02  0.19999993922E+02 0.  0.
         12    1    1    2    0    0  0.11322440815E+02 -0.37117479868E+02 -0.19434979079E+02  0.43400730289E+02  0.00000000000E+00 0. -1.
         11    1    3    3    0    0  0.19432191325E+00  0.48815529556E+01  0.79963718648E+01  0.93706607838E+01  0.51100000000E-03 0. -1.
        -11    1    3    3    0    0 -0.42572843239E+01  0.25529014834E+02  0.43276460403E+01  0.26240876294E+02  0.51100000000E-03 0.  1.
        -12    1    3    3    0    0 -0.72594784040E+01  0.67069120789E+01  0.71109611743E+01  0.12175732633E+02  0.00000000000E+00 0.  1.
</event>
<event>
 7    1  0.3851772E-009  0.4778727E+02  0.7816164E-02  0.1312668E+00
        -11   -1    0    0    0    0  0.00000000000E+00  0.00000000000E+00  0.45593999997E+02  0.45594000000E+02  0.51100000000E-03 0.  1.
         11   -1    0    0    0    0 -0.00000000000E+00 -0.00000000000E+00 -0.45593999997E+02  0.45594000000E+02  0.51100000000E-03 0. -1.
    9900012    2    1    2    0    0  0.20768074252E+02 -0.76586723260E+01  0.37331690087E+02  0.47787271265E+02  0.20000001007E+02 0.  0.
         12    1    1    2    0    0 -0.20768074252E+02  0.76586723260E+01 -0.37331690087E+02  0.43400728735E+02  0.00000000000E+00 0. -1.
         11    1    3    3    0    0  0.52711242143E+01 -0.23384027237E+01  0.51672638331E+01  0.77429641328E+01  0.51100000000E-03 0. -1.
        -11    1    3    3    0    0  0.72014237758E+01  0.61076634664E+01  0.16016090209E+02  0.18592450168E+02  0.51100000000E-03 0.  1.
        -12    1    3    3    0    0  0.82955262618E+01 -0.11427933069E+02  0.16148336045E+02  0.21451856964E+02  0.00000000000E+00 0.  1.
</event>
<event>
 7    1  0.3851772E-009  0.4778724E+02  0.7816164E-02  0.1312668E+00
        -11   -1    0    0    0    0  0.00000000000E+00  0.00000000000E+00  0.45593999997E+02  0.45594000000E+02  0.51100000000E-03 0.  1.
         11   -1    0    0    0    0 -0.00000000000E+00 -0.00000000000E+00 -0.45593999997E+02  0.45594000000E+02  0.51100000000E-03 0. -1.
    9900012    2    1    2    0    0  0.31289497117E+02  0.29116390247E+02 -0.75385247675E+01  0.47787237719E+02  0.19999848056E+02 0.  0.
         12    1    1    2    0    0 -0.31289497117E+02 -0.29116390247E+02  0.75385247675E+01  0.43400762281E+02  0.00000000000E+00 0. -1.
         11    1    3    3    0    0  0.12712166505E+02  0.17313167617E+02 -0.12688352357E+02  0.24946727961E+02  0.51100000000E-03 0. -1.
        -11    1    3    3    0    0  0.13340999695E+02  0.96248913396E+01  0.48951847908E+01  0.17163439065E+02  0.51100000000E-03 0.  1.
         12    1    3    3    0    0  0.52363309180E+01  0.21783312910E+01  0.25464279839E+00  0.56770706928E+01  0.00000000000E+00 0. -1.
</event>
<event>
 7    1  0.3851772E-009  0.4778727E+02  0.7816164E-02  0.1312668E+00
        -11   -1    0    0    0    0  0.00000000000E+00  0.00000000000E+00  0.45593999997E+02  0.45594000000E+02  0.51100000000E-03 0.  1.
         11   -1    0    0    0    0 -0.00000000000E+00 -0.00000000000E+00 -0.45593999997E+02  0.45594000000E+02  0.51100000000E-03 0. -1.
    9900012    2    1    2    0    0 -0.17582207988E+02 -0.76999161551E+01  0.38925576845E+02  0.47787270982E+02  0.19999999717E+02 0.  0.
         12    1    1    2    0    0  0.17582207988E+02  0.76999161551E+01 -0.38925576845E+02  0.43400729018E+02  0.00000000000E+00 0. -1.
         11    1    3    3    0    0 -0.14781180652E+01 -0.69803816153E+01  0.50008528551E+01  0.87131561474E+01  0.51100000000E-03 0. -1.
        -11    1    3    3    0    0 -0.15857942143E+02 -0.35361773664E+01  0.31038329942E+02  0.35033652468E+02  0.51100000000E-03 0.  1.
         12    1    3    3    0    0 -0.24614777958E+00  0.28166428265E+01  0.28863940483E+01  0.40404623676E+01  0.00000000000E+00 0. -1.
</event>
<event>
 7    1  0.3851772E-009  0.4778727E+02  0.7816164E-02  0.1312668E+00
        -11   -1    0    0    0    0  0.00000000000E+00  0.00000000000E+00  0.45593999997E+02  0.45594000000E+02  0.51100000000E-03 0.  1.
         11   -1    0    0    0    0 -0.00000000000E+00 -0.00000000000E+00 -0.45593999997E+02  0.45594000000E+02  0.51100000000E-03 0. -1.
    9900012    2    1    2    0    0  0.13574178426E+02  0.30422180317E+02  0.27818267753E+02  0.47787269638E+02  0.19999993588E+02 0.  0.
         12    1    1    2    0    0 -0.13574178426E+02 -0.30422180317E+02 -0.27818267753E+02  0.43400730362E+02  0.00000000000E+00 0. -1.
         11    1    3    3    0    0 -0.23838671414E+01  0.29287028164E+00 -0.92857900450E+00  0.25750446168E+01  0.51100000000E-03 0. -1.
        -11    1    3    3    0    0  0.65008191512E+00  0.69647660029E+01  0.74526992121E+01  0.10221218018E+02  0.51100000000E-03 0.  1.
         12    1    3    3    0    0  0.15307963652E+02  0.23164544032E+02  0.21294147545E+02  0.34991007003E+02  0.00000000000E+00 0. -1.
</event>
<event>
 7    1  0.3851772E-009  0.4778727E+02  0.7816164E-02  0.1312668E+00
        -11   -1    0    0    0    0  0.00000000000E+00  0.00000000000E+00  0.45593999997E+02  0.45594000000E+02  0.51100000000E-03 0.  1.
         11   -1    0    0    0    0 -0.00000000000E+00 -0.00000000000E+00 -0.45593999997E+02  0.45594000000E+02  0.51100000000E-03 0. -1.
    9900012    2    1    2    0    0 -0.70929424277E+01 -0.40512465261E+02  0.13858339615E+02  0.47787271312E+02  0.20000001219E+02 0.  0.
         12    1    1    2    0    0  0.70929424277E+01  0.40512465261E+02 -0.13858339615E+02  0.43400728688E+02  0.00000000000E+00 0. -1.
         11    1    3    3    0    0 -0.21872804733E+01 -0.98847511489E+01 -0.21928098667E+01  0.10358615570E+02  0.51100000000E-03 0. -1.
        -11    1    3    3    0    0 -0.94210596982E+01 -0.22148365288E+02  0.12964187553E+02  0.27338189588E+02  0.51100000000E-03 0.  1.
        -12    1    3    3    0    0  0.45153977438E+01 -0.84793488236E+01  0.30869619281E+01  0.10090466154E+02  0.00000000000E+00 0.  1.
</event>
<event>
 7    1  0.3851772E-009  0.4778727E+02  0.7816164E-02  0.1312668E+00
        -11   -1    0    0    0    0  0.00000000000E+00  0.00000000000E+00  0.45593999997E+02  0.45594000000E+02  0.51100000000E-03 0.  1.
         11   -1    0    0    0    0 -0.00000000000E+00 -0.00000000000E+00 -0.45593999997E+02  0.45594000000E+02  0.51100000000E-03 0. -1.
    9900012    2    1    2    0    0 -0.11284171974E+02  0.17423196696E+02  0.38114604075E+02  0.47787270006E+02  0.19999995264E+02 0.  0.
         12    1    1    2    0    0  0.11284171974E+02 -0.17423196696E+02 -0.38114604075E+02  0.43400729994E+02  0.00000000000E+00 0. -1.
         11    1    3    3    0    0 -0.10004531908E+02  0.46161588010E+01  0.30077250972E+02  0.32031868617E+02  0.51100000000E-03 0. -1.
        -11    1    3    3    0    0 -0.11650957462E+01  0.91471335419E+01  0.78144972736E+01  0.12086929636E+02  0.51100000000E-03 0.  1.
         12    1    3    3    0    0 -0.11454431960E+00  0.36599043536E+01  0.22285582889E+00  0.36684717525E+01  0.00000000000E+00 0. -1.
</event>
<event>
 7    1  0.3851772E-009  0.4778727E+02  0.7816164E-02  0.1312668E+00
        -11   -1    0    0    0    0  0.00000000000E+00  0.00000000000E+00  0.45593999997E+02  0.45594000000E+02  0.51100000000E-03 0. -1.
         11   -1    0    0    0    0 -0.00000000000E+00 -0.00000000000E+00 -0.45593999997E+02  0.45594000000E+02  0.51100000000E-03 0.  1.
    9900012    2    1    2    0    0 -0.29337972522E+01  0.39859026177E+02 -0.16919637740E+02  0.47787271027E+02  0.19999999921E+02 0.  0.
         12    1    1    2    0    0  0.29337972522E+01 -0.39859026177E+02  0.16919637740E+02  0.43400728973E+02  0.00000000000E+00 0. -1.
         11    1    3    3    0    0 -0.52241142804E+00  0.39133798988E+01 -0.42665587300E+01  0.58130009109E+01  0.51100000000E-03 0. -1.
        -11    1    3    3    0    0 -0.91592492257E+01  0.21611984052E+02 -0.36576779932E+01  0.23756016282E+02  0.51100000000E-03 0.  1.
        -12    1    3    3    0    0  0.67478634015E+01  0.14333662227E+02 -0.89954010167E+01  0.18218253834E+02  0.00000000000E+00 0.  1.
</event>
<event>
 7    1  0.3851772E-009  0.4778727E+02  0.7816164E-02  0.1312668E+00
        -11   -1    0    0    0    0  0.00000000000E+00  0.00000000000E+00  0.45593999997E+02  0.45594000000E+02  0.51100000000E-03 0.  1.
         11   -1    0    0    0    0 -0.00000000000E+00 -0.00000000000E+00 -0.45593999997E+02  0.45594000000E+02  0.51100000000E-03 0. -1.
    9900012    2    1    2    0    0  0.97884191615E+01 -0.42117258836E+02 -0.37345420768E+01  0.47787269061E+02  0.19999990956E+02 0.  0.
         12    1    1    2    0    0 -0.97884191615E+01  0.42117258836E+02  0.37345420768E+01  0.43400730939E+02  0.00000000000E+00 0. -1.
         11    1    3    3    0    0 -0.22011010105E+01 -0.50993815119E+01  0.38156352995E+01  0.67385169334E+01  0.51100000000E-03 0. -1.
        -11    1    3    3    0    0 -0.37209542746E+00 -0.12359268667E+02  0.30436260054E+00  0.12368614063E+02  0.51100000000E-03 0.  1.
         12    1    3    3    0    0  0.12361615599E+02 -0.24658608657E+02 -0.78545399768E+01  0.28680138064E+02  0.00000000000E+00 0. -1.
</event>
<event>
 7    1  0.3851772E-009  0.4778727E+02  0.7816164E-02  0.1312668E+00
        -11   -1    0    0    0    0  0.00000000000E+00  0.00000000000E+00  0.45593999997E+02  0.45594000000E+02  0.51100000000E-03 0.  1.
         11   -1    0    0    0    0 -0.00000000000E+00 -0.00000000000E+00 -0.45593999997E+02  0.45594000000E+02  0.51100000000E-03 0. -1.
    9900012    2    1    2    0    0 -0.30940684466E+02 -0.83088554627E+01  0.29279006933E+02  0.47787270958E+02  0.19999999607E+02 0.  0.
         12    1    1    2    0    0  0.30940684466E+02  0.83088554627E+01 -0.29279006933E+02  0.43400729042E+02  0.00000000000E+00 0. -1.
         11    1    3    3    0    0 -0.21373307563E+02 -0.21792962013E+01  0.96951090426E+01  0.23570378608E+02  0.51100000000E-03 0. -1.
        -11    1    3    3    0    0 -0.68833131993E+01 -0.79956494007E+01  0.17173185790E+02  0.20155116482E+02  0.51100000000E-03 0.  1.
        -12    1    3    3    0    0 -0.26840637039E+01  0.18660901392E+01  0.24107121006E+01  0.40617758685E+01  0.00000000000E+00 0.  1.
</event>
<event>
 7    1  0.3851772E-009  0.4778727E+02  0.7816164E-02  0.1312668E+00
        -11   -1    0    0    0    0  0.00000000000E+00  0.00000000000E+00  0.45593999997E+02  0.45594000000E+02  0.51100000000E-03 0. -1.
         11   -1    0    0    0    0 -0.00000000000E+00 -0.00000000000E+00 -0.45593999997E+02  0.45594000000E+02  0.51100000000E-03 0.  1.
    9900012    2    1    2    0    0  0.41408341375E+02  0.85848293028E+01 -0.97608187316E+01  0.47787267150E+02  0.19999982243E+02 0.  0.
         12    1    1    2    0    0 -0.41408341375E+02 -0.85848293028E+01  0.97608187316E+01  0.43400732850E+02  0.00000000000E+00 0. -1.
         11    1    3    3    0    0  0.58654620960E+00  0.10276043818E+01  0.14775510937E+01  0.18929249106E+01  0.51100000000E-03 0. -1.
        -11    1    3    3    0    0  0.52271544892E+01  0.51938071997E+01 -0.66530627975E+01  0.99278407587E+01  0.51100000000E-03 0.  1.
        -12    1    3    3    0    0  0.35594640677E+02  0.23634177213E+01 -0.45853070278E+01  0.35966501481E+02  0.00000000000E+00 0.  1.
</event>
<event>
 7    1  0.3851772E-009  0.4778727E+02  0.7816164E-02  0.1312668E+00
        -11   -1    0    0    0    0  0.00000000000E+00  0.00000000000E+00  0.45593999997E+02  0.45594000000E+02  0.51100000000E-03 0.  1.
         11   -1    0    0    0    0 -0.00000000000E+00 -0.00000000000E+00 -0.45593999997E+02  0.45594000000E+02  0.51100000000E-03 0. -1.
    9900012    2    1    2    0    0 -0.19334433411E+02 -0.24251561531E+02  0.30358936962E+02  0.47787267225E+02  0.19999982583E+02 0.  0.
         12    1    1    2    0    0  0.19334433411E+02  0.24251561531E+02 -0.30358936962E+02  0.43400732775E+02  0.00000000000E+00 0. -1.
         11    1    3    3    0    0 -0.28297167027E+01 -0.10349816669E+01 -0.10088363973E+01  0.31774572862E+01  0.51100000000E-03 0. -1.
        -11    1    3    3    0    0 -0.85761127281E+01 -0.18953962909E+02  0.28249329003E+02  0.35083144227E+02  0.51100000000E-03 0.  1.
        -12    1    3    3    0    0 -0.79286039798E+01 -0.42626169545E+01  0.31184443566E+01  0.95266657113E+01  0.00000000000E+00 0.  1.
</event>
<event>
 7    1  0.3851772E-009  0.4778727E+02  0.7816164E-02  0.1312668E+00
        -11   -1    0    0    0    0  0.00000000000E+00  0.00000000000E+00  0.45593999997E+02  0.45594000000E+02  0.51100000000E-03 0.  1.
         11   -1    0    0    0    0 -0.00000000000E+00 -0.00000000000E+00 -0.45593999997E+02  0.45594000000E+02  0.51100000000E-03 0. -1.
    9900012    2    1    2    0    0 -0.33034106336E+00 -0.31972903794E+02  0.29347017553E+02  0.47787272570E+02  0.20000006954E+02 0.  0.
         12    1    1    2    0    0  0.33034106336E+00  0.31972903794E+02 -0.29347017553E+02  0.43400727430E+02  0.00000000000E+00 0. -1.
         11    1    3    3    0    0 -0.18986561966E+01 -0.20818841540E+02  0.88704514966E+01  0.22709336592E+02  0.51100000000E-03 0. -1.
        -11    1    3    3    0    0  0.34554919414E+01 -0.11041153265E+02  0.20036657869E+02  0.23136878545E+02  0.51100000000E-03 0.  1.
         12    1    3    3    0    0 -0.18871768082E+01 -0.11290898936E+00  0.43990818738E+00  0.19410574331E+01  0.00000000000E+00 0. -1.
</event>
<event>
 7    1  0.3851772E-009  0.4778727E+02  0.7816164E-02  0.1312668E+00
        -11   -1    0    0    0    0  0.00000000000E+00  0.00000000000E+00  0.45593999997E+02  0.45594000000E+02  0.51100000000E-03 0.  1.
         11   -1    0    0    0    0 -0.00000000000E+00 -0.00000000000E+00 -0.45593999997E+02  0.45594000000E+02  0.51100000000E-03 0. -1.
    9900012    2    1    2    0    0  0.38670298323E+02 -0.47846761382E+01  0.19113826261E+02  0.47787268987E+02  0.19999990617E+02 0.  0.
         12    1    1    2    0    0 -0.38670298323E+02  0.47846761382E+01 -0.19113826261E+02  0.43400731013E+02  0.00000000000E+00 0. -1.
         11    1    3    3    0    0  0.75114767299E+01  0.19626628983E+01 -0.23531698736E+01  0.81124433453E+01  0.51100000000E-03 0. -1.
        -11    1    3    3    0    0  0.19621131680E+02 -0.89892528175E+01  0.14693126344E+02  0.26109068093E+02  0.51100000000E-03 0.  1.
        -12    1    3    3    0    0  0.11537689913E+02  0.22419137811E+01  0.67738697902E+01  0.13565757549E+02  0.00000000000E+00 0.  1.
</event>
<event>
 7    1  0.3851772E-009  0.4778727E+02  0.7816164E-02  0.1312668E+00
        -11   -1    0    0    0    0  0.00000000000E+00  0.00000000000E+00  0.45593999997E+02  0.45594000000E+02  0.51100000000E-03 0. -1.
         11   -1    0    0    0    0 -0.00000000000E+00 -0.00000000000E+00 -0.45593999997E+02  0.45594000000E+02  0.51100000000E-03 0.  1.
    9900012    2    1    2    0    0  0.26531213385E+02 -0.32137482043E+02 -0.12120247813E+02  0.47787269099E+02  0.19999991130E+02 0.  0.
         12    1    1    2    0    0 -0.26531213385E+02  0.32137482043E+02  0.12120247813E+02  0.43400730901E+02  0.00000000000E+00 0. -1.
         11    1    3    3    0    0  0.10783321645E+02 -0.30226672431E+01 -0.70290937047E+01  0.13222129236E+02  0.51100000000E-03 0. -1.
        -11    1    3    3    0    0  0.10988193702E+02 -0.12745077109E+02 -0.48610678297E+01  0.17515917677E+02  0.51100000000E-03 0.  1.
         12    1    3    3    0    0  0.47596980377E+01 -0.16369737690E+02 -0.23008627814E+00  0.17049222186E+02  0.00000000000E+00 0. -1.
</event>
<event>
 7    1  0.3851772E-009  0.4778727E+02  0.7816164E-02  0.1312668E+00
        -11   -1    0    0    0    0  0.00000000000E+00  0.00000000000E+00  0.45593999997E+02  0.45594000000E+02  0.51100000000E-03 0.  1.
         11   -1    0    0    0    0 -0.00000000000E+00 -0.00000000000E+00 -0.45593999997E+02  0.45594000000E+02  0.51100000000E-03 0. -1.
    9900012    2    1    2    0    0  0.40888179499E+01  0.21069989941E+02 -0.37722151182E+02  0.47787267309E+02  0.19999982968E+02 0.  0.
         12    1    1    2    0    0 -0.40888179499E+01 -0.21069989941E+02  0.37722151182E+02  0.43400732691E+02  0.00000000000E+00 0. -1.
         11    1    3    3    0    0 -0.52636810652E+01  0.10934452735E+02 -0.27208285088E+02  0.29791934691E+02  0.51100000000E-03 0. -1.
        -11    1    3    3    0    0  0.51033900513E+01  0.84335422459E+01 -0.84106814565E+01  0.12957962326E+02  0.51100000000E-03 0.  1.
         12    1    3    3    0    0  0.42491089638E+01  0.17019949603E+01 -0.21031846378E+01  0.50373702913E+01  0.00000000000E+00 0. -1.
</event>
<event>
 7    1  0.3851772E-009  0.4778727E+02  0.7816164E-02  0.1312668E+00
        -11   -1    0    0    0    0  0.00000000000E+00  0.00000000000E+00  0.45593999997E+02  0.45594000000E+02  0.51100000000E-03 0.  1.
         11   -1    0    0    0    0 -0.00000000000E+00 -0.00000000000E+00 -0.45593999997E+02  0.45594000000E+02  0.51100000000E-03 0. -1.
    9900012    2    1    2    0    0 -0.19416605491E+02  0.12210168436E+02  0.36844677289E+02  0.47787273894E+02  0.20000012992E+02 0.  0.
         12    1    1    2    0    0  0.19416605491E+02 -0.12210168436E+02 -0.36844677289E+02  0.43400726106E+02  0.00000000000E+00 0. -1.
         11    1    3    3    0    0 -0.48861100211E+01  0.51035956672E+01 -0.28849159160E+00  0.70713497673E+01  0.51100000000E-03 0. -1.
        -11    1    3    3    0    0 -0.11455586524E+02  0.35548207367E+01  0.26094014029E+02  0.28718718312E+02  0.51100000000E-03 0.  1.
         12    1    3    3    0    0 -0.30749089457E+01  0.35517520317E+01  0.11039154852E+02  0.11997205815E+02  0.00000000000E+00 0. -1.
</event>
<event>
 7    1  0.3851772E-009  0.4778728E+02  0.7816164E-02  0.1312668E+00
        -11   -1    0    0    0    0  0.00000000000E+00  0.00000000000E+00  0.45593999997E+02  0.45594000000E+02  0.51100000000E-03 0. -1.
         11   -1    0    0    0    0 -0.00000000000E+00 -0.00000000000E+00 -0.45593999997E+02  0.45594000000E+02  0.51100000000E-03 0.  1.
    9900012    2    1    2    0    0 -0.38734610372E+02 -0.30220229985E+01 -0.19342185448E+02  0.47787276486E+02  0.20000024808E+02 0.  0.
         12    1    1    2    0    0  0.38734610372E+02  0.30220229985E+01  0.19342185448E+02  0.43400723514E+02  0.00000000000E+00 0. -1.
         11    1    3    3    0    0  0.58667478657E+00 -0.13303579501E+01  0.25614382997E+00  0.14763636081E+01  0.51100000000E-03 0. -1.
        -11    1    3    3    0    0 -0.17799092078E+02  0.44813253952E+01 -0.14390395942E+02  0.23323238448E+02  0.51100000000E-03 0.  1.
        -12    1    3    3    0    0 -0.21522193081E+02 -0.61729904436E+01 -0.52079333360E+01  0.22987674429E+02  0.00000000000E+00 0.  1.
</event>
<event>
 7    1  0.3851772E-009  0.4778727E+02  0.7816164E-02  0.1312668E+00
        -11   -1    0    0    0    0  0.00000000000E+00  0.00000000000E+00  0.45593999997E+02  0.45594000000E+02  0.51100000000E-03 0. -1.
         11   -1    0    0    0    0 -0.00000000000E+00 -0.00000000000E+00 -0.45593999997E+02  0.45594000000E+02  0.51100000000E-03 0.  1.
    9900012    2    1    2    0    0  0.33325216780E+02 -0.24832207152E+02 -0.12506586762E+02  0.47787270768E+02  0.19999998738E+02 0.  0.
         12    1    1    2    0    0 -0.33325216780E+02  0.24832207152E+02  0.12506586762E+02  0.43400729232E+02  0.00000000000E+00 0. -1.
         11    1    3    3    0    0  0.20479008969E+02 -0.21715755222E+02 -0.29792329995E+01  0.29997327593E+02  0.51100000000E-03 0. -1.
        -11    1    3    3    0    0  0.50432675850E+01 -0.46477179061E+01 -0.29310338305E+01  0.74583368954E+01  0.51100000000E-03 0.  1.
         12    1    3    3    0    0  0.78029402264E+01  0.15312659760E+01 -0.65963199316E+01  0.10331606279E+02  0.00000000000E+00 0. -1.
</event>
<event>
 7    1  0.3851772E-009  0.4778727E+02  0.7816164E-02  0.1312668E+00
        -11   -1    0    0    0    0  0.00000000000E+00  0.00000000000E+00  0.45593999997E+02  0.45594000000E+02  0.51100000000E-03 0. -1.
         11   -1    0    0    0    0 -0.00000000000E+00 -0.00000000000E+00 -0.45593999997E+02  0.45594000000E+02  0.51100000000E-03 0.  1.
    9900012    2    1    2    0    0  0.25871974625E+02  0.28048598161E+02  0.20677045573E+02  0.47787272547E+02  0.20000006851E+02 0.  0.
         12    1    1    2    0    0 -0.25871974625E+02 -0.28048598161E+02 -0.20677045573E+02  0.43400727453E+02  0.00000000000E+00 0. -1.
         11    1    3    3    0    0  0.14047139636E+02  0.52091890500E+01  0.12893536275E+02  0.19766159476E+02  0.51100000000E-03 0. -1.
        -11    1    3    3    0    0  0.62679552122E+01  0.91960845865E+01 -0.46262594039E+00  0.11138638036E+02  0.51100000000E-03 0.  1.
         12    1    3    3    0    0  0.55568797774E+01  0.13643324525E+02  0.82461352383E+01  0.16882475035E+02  0.00000000000E+00 0. -1.
</event>
<event>
 7    1  0.3851772E-009  0.4778728E+02  0.7816164E-02  0.1312668E+00
        -11   -1    0    0    0    0  0.00000000000E+00  0.00000000000E+00  0.45593999997E+02  0.45594000000E+02  0.51100000000E-03 0. -1.
         11   -1    0    0    0    0 -0.00000000000E+00 -0.00000000000E+00 -0.45593999997E+02  0.45594000000E+02  0.51100000000E-03 0.  1.
    9900012    2    1    2    0    0 -0.38409912004E+02  0.18391092512E+02 -0.83707320931E+01  0.47787276738E+02  0.20000025959E+02 0.  0.
         12    1    1    2    0    0  0.38409912004E+02 -0.18391092512E+02  0.83707320931E+01  0.43400723262E+02  0.00000000000E+00 0. -1.
         11    1    3    3    0    0 -0.41568974305E+01  0.27873309739E+00 -0.11664196712E+01  0.43264331149E+01  0.51100000000E-03 0. -1.
        -11    1    3    3    0    0 -0.35127516176E+02  0.16633780219E+02 -0.30747002012E+01  0.38988188194E+02  0.51100000000E-03 0.  1.
        -12    1    3    3    0    0  0.87450160323E+00  0.14785791958E+01 -0.41296122207E+01  0.44726554289E+01  0.00000000000E+00 0.  1.
</event>
<event>
 7    1  0.3851772E-009  0.4778727E+02  0.7816164E-02  0.1312668E+00
        -11   -1    0    0    0    0  0.00000000000E+00  0.00000000000E+00  0.45593999997E+02  0.45594000000E+02  0.51100000000E-03 0. -1.
         11   -1    0    0    0    0 -0.00000000000E+00 -0.00000000000E+00 -0.45593999997E+02  0.45594000000E+02  0.51100000000E-03 0.  1.
    9900012    2    1    2    0    0  0.27456268316E+02 -0.30036820180E+02 -0.15085287608E+02  0.47787272603E+02  0.20000007106E+02 0.  0.
         12    1    1    2    0    0 -0.27456268316E+02  0.30036820180E+02  0.15085287608E+02  0.43400727397E+02  0.00000000000E+00 0. -1.
         11    1    3    3    0    0  0.20221722184E+02 -0.10736472688E+02 -0.13219752138E+02  0.26437695450E+02  0.51100000000E-03 0. -1.
        -11    1    3    3    0    0  0.26395793676E+00 -0.40889335363E+01  0.13436260546E+01  0.43121204172E+01  0.51100000000E-03 0.  1.
         12    1    3    3    0    0  0.69705881954E+01 -0.15211413956E+02 -0.32091615249E+01  0.17037456736E+02  0.00000000000E+00 0. -1.
</event>
<event>
 7    1  0.3851772E-009  0.4778727E+02  0.7816164E-02  0.1312668E+00
        -11   -1    0    0    0    0  0.00000000000E+00  0.00000000000E+00  0.45593999997E+02  0.45594000000E+02  0.51100000000E-03 0. -1.
         11   -1    0    0    0    0 -0.00000000000E+00 -0.00000000000E+00 -0.45593999997E+02  0.45594000000E+02  0.51100000000E-03 0.  1.
    9900012    2    1    2    0    0 -0.24879103700E+02  0.23457338900E+02 -0.26728388524E+02  0.47787270718E+02  0.19999998510E+02 0.  0.
         12    1    1    2    0    0  0.24879103700E+02 -0.23457338900E+02  0.26728388524E+02  0.43400729282E+02  0.00000000000E+00 0. -1.
         11    1    3    3    0    0 -0.37278765049E+01  0.14218272770E+02 -0.53094494074E+01  0.15628390739E+02  0.51100000000E-03 0. -1.
        -11    1    3    3    0    0 -0.15427839897E+02  0.39830297815E+01 -0.16628927996E+02  0.23030501877E+02  0.51100000000E-03 0.  1.
        -12    1    3    3    0    0 -0.57233872977E+01  0.52560363479E+01 -0.47900111202E+01  0.91283781025E+01  0.00000000000E+00 0.  1.
</event>
<event>
 7    1  0.3851772E-009  0.4778727E+02  0.7816164E-02  0.1312668E+00
        -11   -1    0    0    0    0  0.00000000000E+00  0.00000000000E+00  0.45593999997E+02  0.45594000000E+02  0.51100000000E-03 0.  1.
         11   -1    0    0    0    0 -0.00000000000E+00 -0.00000000000E+00 -0.45593999997E+02  0.45594000000E+02  0.51100000000E-03 0. -1.
    9900012    2    1    2    0    0  0.21835224026E+02  0.35359830522E+02  0.12511143366E+02  0.47787270384E+02  0.19999996991E+02 0.  0.
         12    1    1    2    0    0 -0.21835224026E+02 -0.35359830522E+02 -0.12511143366E+02  0.43400729616E+02  0.00000000000E+00 0. -1.
         11    1    3    3    0    0  0.70468090360E+00  0.31239785849E+00 -0.83158474890E+00  0.11338875842E+01  0.51100000000E-03 0. -1.
        -11    1    3    3    0    0  0.12005021745E+02  0.29243008860E+02  0.31087984632E+01  0.31763796096E+02  0.51100000000E-03 0.  1.
        -12    1    3    3    0    0  0.91255213776E+01  0.58044238039E+01  0.10233929652E+02  0.14889586704E+02  0.00000000000E+00 0.  1.
</event>
<event>
 7    1  0.3851772E-009  0.4778727E+02  0.7816164E-02  0.1312668E+00
        -11   -1    0    0    0    0  0.00000000000E+00  0.00000000000E+00  0.45593999997E+02  0.45594000000E+02  0.51100000000E-03 0.  1.
         11   -1    0    0    0    0 -0.00000000000E+00 -0.00000000000E+00 -0.45593999997E+02  0.45594000000E+02  0.51100000000E-03 0. -1.
    9900012    2    1    2    0    0 -0.16466578427E+02  0.40114040533E+02 -0.18273314261E+01  0.47787267367E+02  0.19999983232E+02 0.  0.
         12    1    1    2    0    0  0.16466578427E+02 -0.40114040533E+02  0.18273314261E+01  0.43400732633E+02  0.00000000000E+00 0. -1.
         11    1    3    3    0    0 -0.48371146653E+01  0.21046197877E+02  0.48635379465E+01  0.22135810918E+02  0.51100000000E-03 0.  1.
        -11    1    3    3    0    0 -0.12704709186E+02  0.18962492796E+02 -0.45798780835E+01  0.23280056960E+02  0.51100000000E-03 0. -1.
         12    1    3    3    0    0  0.10752454243E+01  0.10534985994E+00 -0.21109912892E+01  0.23713994894E+01  0.00000000000E+00 0. -1.
</event>
<event>
 7    1  0.3851772E-009  0.4778727E+02  0.7816164E-02  0.1312668E+00
        -11   -1    0    0    0    0  0.00000000000E+00  0.00000000000E+00  0.45593999997E+02  0.45594000000E+02  0.51100000000E-03 0.  1.
         11   -1    0    0    0    0 -0.00000000000E+00 -0.00000000000E+00 -0.45593999997E+02  0.45594000000E+02  0.51100000000E-03 0. -1.
    9900012    2    1    2    0    0  0.47975895059E+01  0.43076548622E+02 -0.22399881868E+01  0.47787268977E+02  0.19999990572E+02 0.  0.
         12    1    1    2    0    0 -0.47975895059E+01 -0.43076548622E+02  0.22399881868E+01  0.43400731023E+02  0.00000000000E+00 0. -1.
         11    1    3    3    0    0 -0.16576070005E+01  0.90253766795E+01  0.33010850783E+01  0.97520381526E+01  0.51100000000E-03 0.  1.
        -11    1    3    3    0    0  0.40098941320E+01  0.77919466695E+01 -0.75759831093E+01  0.11584006396E+02  0.51100000000E-03 0. -1.
        -12    1    3    3    0    0  0.24453023744E+01  0.26259225273E+02  0.20349098442E+01  0.26451224428E+02  0.00000000000E+00 0.  1.
</event>
<event>
 7    1  0.3851772E-009  0.4778727E+02  0.7816164E-02  0.1312668E+00
        -11   -1    0    0    0    0  0.00000000000E+00  0.00000000000E+00  0.45593999997E+02  0.45594000000E+02  0.51100000000E-03 0.  1.
         11   -1    0    0    0    0 -0.00000000000E+00 -0.00000000000E+00 -0.45593999997E+02  0.45594000000E+02  0.51100000000E-03 0. -1.
    9900012    2    1    2    0    0 -0.11632415888E+02  0.35616999450E+02  0.21902956712E+02  0.47787271182E+02  0.20000000629E+02 0.  0.
         12    1    1    2    0    0  0.11632415888E+02 -0.35616999450E+02 -0.21902956712E+02  0.43400728818E+02  0.00000000000E+00 0. -1.
         11    1    3    3    0    0 -0.38199437402E+01 -0.10358727346E+01  0.19998235217E+01  0.44344443710E+01  0.51100000000E-03 0. -1.
        -11    1    3    3    0    0 -0.60499006824E+01  0.11952404351E+02  0.98449553901E+01  0.16624813230E+02  0.51100000000E-03 0.  1.
         12    1    3    3    0    0 -0.17625714652E+01  0.24700467833E+02  0.10058177800E+02  0.26728013581E+02  0.00000000000E+00 0. -1.
</event>
<event>
 7    1  0.3851772E-009  0.4778727E+02  0.7816164E-02  0.1312668E+00
        -11   -1    0    0    0    0  0.00000000000E+00  0.00000000000E+00  0.45593999997E+02  0.45594000000E+02  0.51100000000E-03 0.  1.
         11   -1    0    0    0    0 -0.00000000000E+00 -0.00000000000E+00 -0.45593999997E+02  0.45594000000E+02  0.51100000000E-03 0. -1.
    9900012    2    1    2    0    0  0.64425142124E+01 -0.41209495376E+02 -0.11995619734E+02  0.47787269692E+02  0.19999993832E+02 0.  0.
         12    1    1    2    0    0 -0.64425142124E+01  0.41209495376E+02  0.11995619734E+02  0.43400730308E+02  0.00000000000E+00 0. -1.
         11    1    3    3    0    0 -0.16761386913E+00 -0.15802210968E+02 -0.11996666219E+02  0.19840815672E+02  0.51100000000E-03 0. -1.
        -11    1    3    3    0    0  0.27085183995E+00 -0.16488710418E+02  0.26139161612E+01  0.16696810772E+02  0.51100000000E-03 0.  1.
         12    1    3    3    0    0  0.63392762416E+01 -0.89185739893E+01 -0.26128696757E+01  0.11249643248E+02  0.00000000000E+00 0. -1.
</event>
<event>
 7    1  0.3851772E-009  0.4778727E+02  0.7816164E-02  0.1312668E+00
        -11   -1    0    0    0    0  0.00000000000E+00  0.00000000000E+00  0.45593999997E+02  0.45594000000E+02  0.51100000000E-03 0.  1.
         11   -1    0    0    0    0 -0.00000000000E+00 -0.00000000000E+00 -0.45593999997E+02  0.45594000000E+02  0.51100000000E-03 0. -1.
    9900012    2    1    2    0    0 -0.11686821667E+02 -0.34361104409E+02  0.23798233055E+02  0.47787271971E+02  0.20000004225E+02 0.  0.
         12    1    1    2    0    0  0.11686821667E+02  0.34361104409E+02 -0.23798233055E+02  0.43400728029E+02  0.00000000000E+00 0. -1.
         11    1    3    3    0    0  0.11523756688E+01  0.41010624463E+00  0.56510782484E+00  0.13474063711E+01  0.51100000000E-03 0. -1.
        -11    1    3    3    0    0 -0.13774680682E+02 -0.36065290149E+02  0.22480308194E+02  0.44674503223E+02  0.51100000000E-03 0.  1.
        -12    1    3    3    0    0  0.93548334595E+00  0.12940794957E+01  0.75281703601E+00  0.17653623768E+01  0.00000000000E+00 0.  1.
</event>
<event>
 7    1  0.3851772E-009  0.4778730E+02  0.7816164E-02  0.1312668E+00
        -11   -1    0    0    0    0  0.00000000000E+00  0.00000000000E+00  0.45593999997E+02  0.45594000000E+02  0.51100000000E-03 0.  1.
         11   -1    0    0    0    0 -0.00000000000E+00 -0.00000000000E+00 -0.45593999997E+02  0.45594000000E+02  0.51100000000E-03 0. -1.
    9900012    2    1    2    0    0 -0.38712302972E+02 -0.50890107938E+01  0.18949420382E+02  0.47787297643E+02  0.20000121271E+02 0.  0.
         12    1    1    2    0    0  0.38712302972E+02  0.50890107938E+01 -0.18949420382E+02  0.43400702357E+02  0.00000000000E+00 0. -1.
         11    1    3    3    0    0 -0.75121935103E+01 -0.25814540092E+01  0.95755425925E+00  0.80008666129E+01  0.51100000000E-03 0. -1.
        -11    1    3    3    0    0 -0.33232578544E+02 -0.21436983111E+01  0.16113949473E+02  0.36995392781E+02  0.51100000000E-03 0.  1.
        -12    1    3    3    0    0  0.20324690823E+01 -0.36385847356E+00  0.18779166505E+01  0.27910382487E+01  0.00000000000E+00 0.  1.
</event>
<event>
 7    1  0.3851772E-009  0.4778727E+02  0.7816164E-02  0.1312668E+00
        -11   -1    0    0    0    0  0.00000000000E+00  0.00000000000E+00  0.45593999997E+02  0.45594000000E+02  0.51100000000E-03 0.  1.
         11   -1    0    0    0    0 -0.00000000000E+00 -0.00000000000E+00 -0.45593999997E+02  0.45594000000E+02  0.51100000000E-03 0. -1.
    9900012    2    1    2    0    0  0.21474510538E+02  0.19221646699E+02  0.32449919836E+02  0.47787267263E+02  0.19999982760E+02 0.  0.
         12    1    1    2    0    0 -0.21474510538E+02 -0.19221646699E+02 -0.32449919836E+02  0.43400732737E+02  0.00000000000E+00 0. -1.
         11    1    3    3    0    0 -0.10117833649E+01  0.40472182260E+00  0.86312388591E+01  0.86997580331E+01  0.51100000000E-03 0. -1.
        -11    1    3    3    0    0  0.19916819904E+02  0.18489152278E+02  0.24296664056E+02  0.36453482022E+02  0.51100000000E-03 0.  1.
         12    1    3    3    0    0  0.25694739992E+01  0.32777259855E+00 -0.47798307833E+00  0.26340272079E+01  0.00000000000E+00 0. -1.
</event>
<event>
 7    1  0.3851772E-009  0.4778727E+02  0.7816164E-02  0.1312668E+00
        -11   -1    0    0    0    0  0.00000000000E+00  0.00000000000E+00  0.45593999997E+02  0.45594000000E+02  0.51100000000E-03 0. -1.
         11   -1    0    0    0    0 -0.00000000000E+00 -0.00000000000E+00 -0.45593999997E+02  0.45594000000E+02  0.51100000000E-03 0.  1.
    9900012    2    1    2    0    0 -0.82487579556E+00 -0.27563291804E+02 -0.33514291920E+02  0.47787271457E+02  0.20000001882E+02 0.  0.
         12    1    1    2    0    0  0.82487579556E+00  0.27563291804E+02  0.33514291920E+02  0.43400728543E+02  0.00000000000E+00 0. -1.
         11    1    3    3    0    0 -0.70884201364E+00 -0.93111780993E+01 -0.14511628848E+01  0.94502046844E+01  0.51100000000E-03 0. -1.
        -11    1    3    3    0    0  0.21545002867E+01 -0.17104540686E+02 -0.31207988037E+02  0.35653130314E+02  0.51100000000E-03 0.  1.
         12    1    3    3    0    0 -0.22705340687E+01 -0.11475730185E+01 -0.85514099755E+00  0.26839364589E+01  0.00000000000E+00 0. -1.
</event>
<event>
 7    1  0.3851772E-009  0.4778727E+02  0.7816164E-02  0.1312668E+00
        -11   -1    0    0    0    0  0.00000000000E+00  0.00000000000E+00  0.45593999997E+02  0.45594000000E+02  0.51100000000E-03 0. -1.
         11   -1    0    0    0    0 -0.00000000000E+00 -0.00000000000E+00 -0.45593999997E+02  0.45594000000E+02  0.51100000000E-03 0.  1.
    9900012    2    1    2    0    0 -0.41407362362E+02 -0.10200543512E+02  0.80624138663E+01  0.47787271169E+02  0.20000000569E+02 0.  0.
         12    1    1    2    0    0  0.41407362362E+02  0.10200543512E+02 -0.80624138663E+01  0.43400728831E+02  0.00000000000E+00 0. -1.
         11    1    3    3    0    0 -0.37147870333E+02 -0.33167810081E+01  0.66061596594E+01  0.37876201660E+02  0.51100000000E-03 0.  1.
        -11    1    3    3    0    0 -0.20125821014E+01 -0.67771023423E+01 -0.27125520677E+00  0.70748273846E+01  0.51100000000E-03 0. -1.
        -12    1    3    3    0    0 -0.22469099279E+01 -0.10666016131E+00  0.17275094136E+01  0.28362421244E+01  0.00000000000E+00 0.  1.
</event>
<event>
 7    1  0.3851772E-009  0.4778727E+02  0.7816164E-02  0.1312668E+00
        -11   -1    0    0    0    0  0.00000000000E+00  0.00000000000E+00  0.45593999997E+02  0.45594000000E+02  0.51100000000E-03 0.  1.
         11   -1    0    0    0    0 -0.00000000000E+00 -0.00000000000E+00 -0.45593999997E+02  0.45594000000E+02  0.51100000000E-03 0. -1.
    9900012    2    1    2    0    0  0.22790116441E+02 -0.35912244165E+02  0.86339067625E+01  0.47787273804E+02  0.20000012582E+02 0.  0.
         12    1    1    2    0    0 -0.22790116441E+02  0.35912244165E+02 -0.86339067625E+01  0.43400726196E+02  0.00000000000E+00 0. -1.
         11    1    3    3    0    0  0.19202532950E+01 -0.81145843876E+01  0.24068439460E+00  0.83421688870E+01  0.51100000000E-03 0. -1.
        -11    1    3    3    0    0  0.33591374569E+01 -0.13679022503E+02  0.93917012170E+01  0.16929368361E+02  0.51100000000E-03 0.  1.
        -12    1    3    3    0    0  0.17510725690E+02 -0.14118637274E+02 -0.99847884907E+00  0.22515736556E+02  0.00000000000E+00 0.  1.
</event>
<event>
 7    1  0.3851772E-009  0.4778726E+02  0.7816164E-02  0.1312668E+00
        -11   -1    0    0    0    0  0.00000000000E+00  0.00000000000E+00  0.45593999997E+02  0.45594000000E+02  0.51100000000E-03 0. -1.
         11   -1    0    0    0    0 -0.00000000000E+00 -0.00000000000E+00 -0.45593999997E+02  0.45594000000E+02  0.51100000000E-03 0.  1.
    9900012    2    1    2    0    0 -0.31660162862E+02 -0.71941480496E+01 -0.28801079304E+02  0.47787264434E+02  0.19999969861E+02 0.  0.
         12    1    1    2    0    0  0.31660162862E+02  0.71941480496E+01  0.28801079304E+02  0.43400735566E+02  0.00000000000E+00 0. -1.
         11    1    3    3    0    0 -0.20979181140E+02 -0.17970128228E+01 -0.14720759968E+02  0.25691556408E+02  0.51100000000E-03 0. -1.
        -11    1    3    3    0    0 -0.85832187174E+01 -0.35043730729E+00 -0.19759604236E+01  0.88146962349E+01  0.51100000000E-03 0.  1.
         12    1    3    3    0    0 -0.20977630048E+01 -0.50466979195E+01 -0.12104358912E+02  0.13281011791E+02  0.00000000000E+00 0. -1.
</event>
<event>
 7    1  0.3851772E-009  0.4778728E+02  0.7816164E-02  0.1312668E+00
        -11   -1    0    0    0    0  0.00000000000E+00  0.00000000000E+00  0.45593999997E+02  0.45594000000E+02  0.51100000000E-03 0. -1.
         11   -1    0    0    0    0 -0.00000000000E+00 -0.00000000000E+00 -0.45593999997E+02  0.45594000000E+02  0.51100000000E-03 0.  1.
    9900012    2    1    2    0    0  0.52724219583E+01 -0.32329648681E+02 -0.28471352713E+02  0.47787279471E+02  0.20000038419E+02 0.  0.
         12    1    1    2    0    0 -0.52724219583E+01  0.32329648681E+02  0.28471352713E+02  0.43400720529E+02  0.00000000000E+00 0. -1.
         11    1    3    3    0    0 -0.78249791769E+00 -0.32853121668E+00  0.15119482019E+01  0.17338464113E+01  0.51100000000E-03 0. -1.
        -11    1    3    3    0    0  0.32633911116E+01 -0.31030448791E+02 -0.29712420510E+02  0.43085570747E+02  0.51100000000E-03 0.  1.
        -12    1    3    3    0    0  0.27915287644E+01 -0.97066867284E+00 -0.27088040518E+00  0.29678623130E+01  0.00000000000E+00 0.  1.
</event>
<event>
 7    1  0.3851772E-009  0.4778728E+02  0.7816164E-02  0.1312668E+00
        -11   -1    0    0    0    0  0.00000000000E+00  0.00000000000E+00  0.45593999997E+02  0.45594000000E+02  0.51100000000E-03 0. -1.
         11   -1    0    0    0    0 -0.00000000000E+00 -0.00000000000E+00 -0.45593999997E+02  0.45594000000E+02  0.51100000000E-03 0.  1.
    9900012    2    1    2    0    0  0.36940761393E+02 -0.16134290239E+02 -0.16083764536E+02  0.47787278169E+02  0.20000032481E+02 0.  0.
         12    1    1    2    0    0 -0.36940761393E+02  0.16134290239E+02  0.16083764536E+02  0.43400721831E+02  0.00000000000E+00 0. -1.
         11    1    3    3    0    0  0.23599064421E+01 -0.78734806417E+01 -0.99623623285E+00  0.82796946033E+01  0.51100000000E-03 0. -1.
        -11    1    3    3    0    0  0.28789906527E+02 -0.99592724989E+01 -0.12175240345E+02  0.32806741750E+02  0.51100000000E-03 0.  1.
         12    1    3    3    0    0  0.57909484245E+01  0.16984629014E+01 -0.29122879575E+01  0.67008418150E+01  0.00000000000E+00 0. -1.
</event>
<event>
 7    1  0.3851772E-009  0.4778727E+02  0.7816164E-02  0.1312668E+00
        -11   -1    0    0    0    0  0.00000000000E+00  0.00000000000E+00  0.45593999997E+02  0.45594000000E+02  0.51100000000E-03 0.  1.
         11   -1    0    0    0    0 -0.00000000000E+00 -0.00000000000E+00 -0.45593999997E+02  0.45594000000E+02  0.51100000000E-03 0. -1.
    9900012    2    1    2    0    0  0.23321130085E+02  0.15264004402E+02  0.33267976119E+02  0.47787272196E+02  0.20000005252E+02 0.  0.
         12    1    1    2    0    0 -0.23321130085E+02 -0.15264004402E+02 -0.33267976119E+02  0.43400727804E+02  0.00000000000E+00 0. -1.
         11    1    3    3    0    0  0.12865337438E+01  0.13611415778E+01  0.15426446822E+02  0.15539727710E+02  0.51100000000E-03 0.  1.
        -11    1    3    3    0    0  0.82882196615E+01  0.62914000279E+01  0.35134025796E+01  0.10982727230E+02  0.51100000000E-03 0. -1.
        -12    1    3    3    0    0  0.13746376680E+02  0.76114627958E+01  0.14328126718E+02  0.21264817256E+02  0.00000000000E+00 0.  1.
</event>
<event>
 7    1  0.3851772E-009  0.4778727E+02  0.7816164E-02  0.1312668E+00
        -11   -1    0    0    0    0  0.00000000000E+00  0.00000000000E+00  0.45593999997E+02  0.45594000000E+02  0.51100000000E-03 0.  1.
         11   -1    0    0    0    0 -0.00000000000E+00 -0.00000000000E+00 -0.45593999997E+02  0.45594000000E+02  0.51100000000E-03 0. -1.
    9900012    2    1    2    0    0 -0.17475814679E+02 -0.25196773379E+02  0.30713867280E+02  0.47787272694E+02  0.20000007520E+02 0.  0.
         12    1    1    2    0    0  0.17475814679E+02  0.25196773379E+02 -0.30713867280E+02  0.43400727306E+02  0.00000000000E+00 0. -1.
         11    1    3    3    0    0 -0.94988094243E+01 -0.22278190519E+02  0.13151316705E+02  0.27559069008E+02  0.51100000000E-03 0. -1.
        -11    1    3    3    0    0 -0.85490679262E+01 -0.17408382340E+01  0.15101825948E+02  0.17440820720E+02  0.51100000000E-03 0.  1.
         12    1    3    3    0    0  0.57206267160E+00 -0.11777446264E+01  0.24607246269E+01  0.27873829652E+01  0.00000000000E+00 0. -1.
</event>
<event>
 7    1  0.3851772E-009  0.4778727E+02  0.7816164E-02  0.1312668E+00
        -11   -1    0    0    0    0  0.00000000000E+00  0.00000000000E+00  0.45593999997E+02  0.45594000000E+02  0.51100000000E-03 0.  1.
         11   -1    0    0    0    0 -0.00000000000E+00 -0.00000000000E+00 -0.45593999997E+02  0.45594000000E+02  0.51100000000E-03 0. -1.
    9900012    2    1    2    0    0  0.15292144339E+02 -0.21071798115E+02  0.34723958155E+02  0.47787267008E+02  0.19999981597E+02 0.  0.
         12    1    1    2    0    0 -0.15292144339E+02  0.21071798115E+02 -0.34723958155E+02  0.43400732992E+02  0.00000000000E+00 0. -1.
         11    1    3    3    0    0  0.43362720387E+01  0.16647783834E+01  0.88186938214E+01  0.99671512097E+01  0.51100000000E-03 0. -1.
        -11    1    3    3    0    0  0.42376302176E+01 -0.19416475421E+02  0.20700407247E+02  0.28696060497E+02  0.51100000000E-03 0.  1.
         12    1    3    3    0    0  0.67182420828E+01 -0.33201010777E+01  0.52048570869E+01  0.91240553015E+01  0.00000000000E+00 0. -1.
</event>
<event>
 7    1  0.3851772E-009  0.4778733E+02  0.7816164E-02  0.1312668E+00
        -11   -1    0    0    0    0  0.00000000000E+00  0.00000000000E+00  0.45593999997E+02  0.45594000000E+02  0.51100000000E-03 0. -1.
         11   -1    0    0    0    0 -0.00000000000E+00 -0.00000000000E+00 -0.45593999997E+02  0.45594000000E+02  0.51100000000E-03 0.  1.
    9900012    2    1    2    0    0  0.26099521466E+01  0.42125298897E+02  0.10112643950E+02  0.47787329210E+02  0.20000265198E+02 0.  0.
         12    1    1    2    0    0 -0.26099521466E+01 -0.42125298897E+02 -0.10112643950E+02  0.43400670790E+02  0.00000000000E+00 0. -1.
         11    1    3    3    0    0  0.16037156792E+00  0.68829481705E+01 -0.42171585200E+01  0.80737302903E+01  0.51100000000E-03 0. -1.
        -11    1    3    3    0    0  0.33006918155E+01  0.27577390666E+02  0.15664261989E+02  0.31886927514E+02  0.51100000000E-03 0.  1.
        -12    1    3    3    0    0 -0.85111123682E+00  0.76649600611E+01 -0.13344595191E+01  0.78266714051E+01  0.00000000000E+00 0.  1.
</event>
<event>
 7    1  0.3851772E-009  0.4778727E+02  0.7816164E-02  0.1312668E+00
        -11   -1    0    0    0    0  0.00000000000E+00  0.00000000000E+00  0.45593999997E+02  0.45594000000E+02  0.51100000000E-03 0. -1.
         11   -1    0    0    0    0 -0.00000000000E+00 -0.00000000000E+00 -0.45593999997E+02  0.45594000000E+02  0.51100000000E-03 0.  1.
    9900012    2    1    2    0    0  0.53041434234E+01 -0.32383193938E+02 -0.28404548816E+02  0.47787267512E+02  0.19999983893E+02 0.  0.
         12    1    1    2    0    0 -0.53041434234E+01  0.32383193938E+02  0.28404548816E+02  0.43400732488E+02  0.00000000000E+00 0. -1.
         11    1    3    3    0    0  0.69314813645E+00 -0.11979855953E+02 -0.22058618253E+02  0.25111352861E+02  0.51100000000E-03 0. -1.
        -11    1    3    3    0    0 -0.47905530319E+00 -0.99933698328E+01 -0.15040904319E+01  0.10117273491E+02  0.51100000000E-03 0.  1.
         12    1    3    3    0    0  0.50900505902E+01 -0.10409968152E+02 -0.48418401308E+01  0.12558641160E+02  0.00000000000E+00 0. -1.
</event>
<event>
 7    1  0.3851772E-009  0.4778724E+02  0.7816164E-02  0.1312668E+00
        -11   -1    0    0    0    0  0.00000000000E+00  0.00000000000E+00  0.45593999997E+02  0.45594000000E+02  0.51100000000E-03 0.  1.
         11   -1    0    0    0    0 -0.00000000000E+00 -0.00000000000E+00 -0.45593999997E+02  0.45594000000E+02  0.51100000000E-03 0. -1.
    9900012    2    1    2    0    0 -0.44273370698E+01 -0.15739830904E+02  0.40203014282E+02  0.47787240239E+02  0.19999859547E+02 0.  0.
         12    1    1    2    0    0  0.44273370698E+01  0.15739830904E+02 -0.40203014282E+02  0.43400759761E+02  0.00000000000E+00 0. -1.
         11    1    3    3    0    0 -0.14652995120E+01  0.56738249940E+00  0.29178822986E+01  0.33140704473E+01  0.51100000000E-03 0.  1.
        -11    1    3    3    0    0  0.19475282267E+01  0.18331627285E+01 -0.49925066204E-01  0.26750410383E+01  0.51100000000E-03 0. -1.
        -12    1    3    3    0    0 -0.49095657845E+01 -0.18140376132E+02  0.37335057050E+02  0.41798128754E+02  0.00000000000E+00 0.  1.
</event>
<event>
 7    1  0.3851772E-009  0.4778727E+02  0.7816164E-02  0.1312668E+00
        -11   -1    0    0    0    0  0.00000000000E+00  0.00000000000E+00  0.45593999997E+02  0.45594000000E+02  0.51100000000E-03 0.  1.
         11   -1    0    0    0    0 -0.00000000000E+00 -0.00000000000E+00 -0.45593999997E+02  0.45594000000E+02  0.51100000000E-03 0. -1.
    9900012    2    1    2    0    0 -0.10797264739E+02  0.35420084587E+02  0.22637576675E+02  0.47787271945E+02  0.20000004104E+02 0.  0.
         12    1    1    2    0    0  0.10797264739E+02 -0.35420084587E+02 -0.22637576675E+02  0.43400728055E+02  0.00000000000E+00 0. -1.
         11    1    3    3    0    0 -0.29057144707E+01  0.10745184752E+02  0.12242223293E+02  0.16546123514E+02  0.51100000000E-03 0. -1.
        -11    1    3    3    0    0 -0.25216138673E+01  0.10782177607E+01 -0.25944938135E+01  0.37752468058E+01  0.51100000000E-03 0.  1.
        -12    1    3    3    0    0 -0.53699364007E+01  0.23596682074E+02  0.12989847196E+02  0.27465901624E+02  0.00000000000E+00 0.  1.
</event>
<event>
 7    1  0.3851772E-009  0.4778727E+02  0.7816164E-02  0.1312668E+00
        -11   -1    0    0    0    0  0.00000000000E+00  0.00000000000E+00  0.45593999997E+02  0.45594000000E+02  0.51100000000E-03 0. -1.
         11   -1    0    0    0    0 -0.00000000000E+00 -0.00000000000E+00 -0.45593999997E+02  0.45594000000E+02  0.51100000000E-03 0.  1.
    9900012    2    1    2    0    0 -0.10721544565E+02 -0.26110053682E+02 -0.32968720738E+02  0.47787274566E+02  0.20000016056E+02 0.  0.
         12    1    1    2    0    0  0.10721544565E+02  0.26110053682E+02  0.32968720738E+02  0.43400725434E+02  0.00000000000E+00 0. -1.
         11    1    3    3    0    0 -0.11382528790E+02 -0.97904046537E+01 -0.97022806023E+01  0.17875912119E+02  0.51100000000E-03 0. -1.
        -11    1    3    3    0    0  0.29015826208E+01 -0.22161220014E+01 -0.16565771425E+01  0.40093174632E+01  0.51100000000E-03 0.  1.
         12    1    3    3    0    0 -0.22405983953E+01 -0.14103527026E+02 -0.21609862993E+02  0.25902044984E+02  0.00000000000E+00 0. -1.
</event>
<event>
 7    1  0.3851772E-009  0.4778727E+02  0.7816164E-02  0.1312668E+00
        -11   -1    0    0    0    0  0.00000000000E+00  0.00000000000E+00  0.45593999997E+02  0.45594000000E+02  0.51100000000E-03 0.  1.
         11   -1    0    0    0    0 -0.00000000000E+00 -0.00000000000E+00 -0.45593999997E+02  0.45594000000E+02  0.51100000000E-03 0. -1.
    9900012    2    1    2    0    0  0.22181773431E+01 -0.63567366593E+01  0.42875341368E+02  0.47787270639E+02  0.19999998149E+02 0.  0.
         12    1    1    2    0    0 -0.22181773431E+01  0.63567366593E+01 -0.42875341368E+02  0.43400729361E+02  0.00000000000E+00 0. -1.
         11    1    3    3    0    0  0.35963593697E+01 -0.29158430484E+01  0.33107635323E+02  0.33429798958E+02  0.51100000000E-03 0. -1.
        -11    1    3    3    0    0 -0.51417329994E+01 -0.34265459649E+01  0.82312896626E+01  0.10292364415E+02  0.51100000000E-03 0.  1.
         12    1    3    3    0    0  0.37635509728E+01 -0.14347645958E-01  0.15364163821E+01  0.40651072654E+01  0.00000000000E+00 0. -1.
</event>
<event>
 7    1  0.3851772E-009  0.4778727E+02  0.7816164E-02  0.1312668E+00
        -11   -1    0    0    0    0  0.00000000000E+00  0.00000000000E+00  0.45593999997E+02  0.45594000000E+02  0.51100000000E-03 0.  1.
         11   -1    0    0    0    0 -0.00000000000E+00 -0.00000000000E+00 -0.45593999997E+02  0.45594000000E+02  0.51100000000E-03 0. -1.
    9900012    2    1    2    0    0  0.14778973223E+02 -0.34718674163E+02  0.21443393927E+02  0.47787268114E+02  0.19999986638E+02 0.  0.
         12    1    1    2    0    0 -0.14778973223E+02  0.34718674163E+02 -0.21443393927E+02  0.43400731886E+02  0.00000000000E+00 0. -1.
         11    1    3    3    0    0  0.91390314029E+01 -0.99713179012E+01  0.16707146368E+02  0.21495995341E+02  0.51100000000E-03 0. -1.
        -11    1    3    3    0    0  0.54818572025E+01 -0.19130754941E+02  0.54341672202E+01  0.20629268447E+02  0.51100000000E-03 0.  1.
         12    1    3    3    0    0  0.15808461754E+00 -0.56166013205E+01 -0.69791966113E+00  0.56620043265E+01  0.00000000000E+00 0. -1.
</event>
<event>
 7    1  0.3851772E-009  0.4778727E+02  0.7816164E-02  0.1312668E+00
        -11   -1    0    0    0    0  0.00000000000E+00  0.00000000000E+00  0.45593999997E+02  0.45594000000E+02  0.51100000000E-03 0.  1.
         11   -1    0    0    0    0 -0.00000000000E+00 -0.00000000000E+00 -0.45593999997E+02  0.45594000000E+02  0.51100000000E-03 0. -1.
    9900012    2    1    2    0    0  0.15910423599E+02  0.32471630942E+02  0.24001561304E+02  0.47787270281E+02  0.19999996518E+02 0.  0.
         12    1    1    2    0    0 -0.15910423599E+02 -0.32471630942E+02 -0.24001561304E+02  0.43400729719E+02  0.00000000000E+00 0. -1.
         11    1    3    3    0    0 -0.20814753366E+01  0.16255674316E+01  0.72801866172E+01  0.77444255109E+01  0.51100000000E-03 0. -1.
        -11    1    3    3    0    0  0.75026918042E+01  0.19682060286E+02  0.99017677562E+01  0.23274855239E+02  0.51100000000E-03 0.  1.
         12    1    3    3    0    0  0.10489207131E+02  0.11164003224E+02  0.68196069310E+01  0.16767989531E+02  0.00000000000E+00 0. -1.
</event>
<event>
 7    1  0.3851772E-009  0.4778728E+02  0.7816164E-02  0.1312668E+00
        -11   -1    0    0    0    0  0.00000000000E+00  0.00000000000E+00  0.45593999997E+02  0.45594000000E+02  0.51100000000E-03 0.  1.
         11   -1    0    0    0    0 -0.00000000000E+00 -0.00000000000E+00 -0.45593999997E+02  0.45594000000E+02  0.51100000000E-03 0. -1.
    9900012    2    1    2    0    0  0.11168310204E+02 -0.10043529638E+02  0.40718774515E+02  0.47787282974E+02  0.20000054390E+02 0.  0.
         12    1    1    2    0    0 -0.11168310204E+02  0.10043529638E+02 -0.40718774515E+02  0.43400717026E+02  0.00000000000E+00 0. -1.
         11    1    3    3    0    0 -0.25321502396E+00 -0.34934572802E+01  0.76337771191E+00  0.35848441262E+01  0.51100000000E-03 0. -1.
        -11    1    3    3    0    0  0.62742529206E+01 -0.36385739013E+01  0.36783672285E+02  0.37491919353E+02  0.51100000000E-03 0.  1.
        -12    1    3    3    0    0  0.51472723070E+01 -0.29114984564E+01  0.31717245183E+01  0.67105194943E+01  0.00000000000E+00 0.  1.
</event>
<event>
 7    1  0.3851772E-009  0.4778728E+02  0.7816164E-02  0.1312668E+00
        -11   -1    0    0    0    0  0.00000000000E+00  0.00000000000E+00  0.45593999997E+02  0.45594000000E+02  0.51100000000E-03 0. -1.
         11   -1    0    0    0    0 -0.00000000000E+00 -0.00000000000E+00 -0.45593999997E+02  0.45594000000E+02  0.51100000000E-03 0.  1.
    9900012    2    1    2    0    0 -0.32216385816E+01 -0.27401274346E+02 -0.33502438026E+02  0.47787284054E+02  0.20000059315E+02 0.  0.
         12    1    1    2    0    0  0.32216385816E+01  0.27401274346E+02  0.33502438026E+02  0.43400715946E+02  0.00000000000E+00 0. -1.
         11    1    3    3    0    0 -0.68524037169E+01 -0.53343920685E+01 -0.16864500109E+02  0.18968988893E+02  0.51100000000E-03 0. -1.
        -11    1    3    3    0    0  0.26721313175E+01 -0.22172753928E+02 -0.14952902298E+02  0.26876766732E+02  0.51100000000E-03 0.  1.
        -12    1    3    3    0    0  0.95863381773E+00  0.10587165085E+00 -0.16850356186E+01  0.19415284286E+01  0.00000000000E+00 0.  1.
</event>
<event>
 7    1  0.3851772E-009  0.4778727E+02  0.7816164E-02  0.1312668E+00
        -11   -1    0    0    0    0  0.00000000000E+00  0.00000000000E+00  0.45593999997E+02  0.45594000000E+02  0.51100000000E-03 0. -1.
         11   -1    0    0    0    0 -0.00000000000E+00 -0.00000000000E+00 -0.45593999997E+02  0.45594000000E+02  0.51100000000E-03 0.  1.
    9900012    2    1    2    0    0  0.28859503337E+02  0.12980282391E+01 -0.32389308975E+02  0.47787272517E+02  0.20000006716E+02 0.  0.
         12    1    1    2    0    0 -0.28859503337E+02 -0.12980282391E+01  0.32389308975E+02  0.43400727483E+02  0.00000000000E+00 0. -1.
         11    1    3    3    0    0  0.22492677986E+02  0.79113787453E+01 -0.23869603790E+02  0.33738234423E+02  0.51100000000E-03 0. -1.
        -11    1    3    3    0    0  0.69633138592E+01 -0.62864971378E+01 -0.91624033148E+01  0.13113253636E+02  0.51100000000E-03 0.  1.
        -12    1    3    3    0    0 -0.59648850794E+00 -0.32685336840E+00  0.64269813075E+00  0.93578445799E+00  0.00000000000E+00 0.  1.
</event>
<event>
 7    1  0.3851772E-009  0.4778727E+02  0.7816164E-02  0.1312668E+00
        -11   -1    0    0    0    0  0.00000000000E+00  0.00000000000E+00  0.45593999997E+02  0.45594000000E+02  0.51100000000E-03 0.  1.
         11   -1    0    0    0    0 -0.00000000000E+00 -0.00000000000E+00 -0.45593999997E+02  0.45594000000E+02  0.51100000000E-03 0. -1.
    9900012    2    1    2    0    0  0.22239237596E+02  0.20833109978E+02  0.30903417364E+02  0.47787269995E+02  0.19999995217E+02 0.  0.
         12    1    1    2    0    0 -0.22239237596E+02 -0.20833109978E+02 -0.30903417364E+02  0.43400730005E+02  0.00000000000E+00 0. -1.
         11    1    3    3    0    0  0.11786698430E+02  0.80037907560E+01  0.19877350640E+02  0.24456001207E+02  0.51100000000E-03 0. -1.
        -11    1    3    3    0    0  0.63874196574E+01  0.10109479053E+02  0.78722715017E+00  0.11984173875E+02  0.51100000000E-03 0.  1.
        -12    1    3    3    0    0  0.40651195084E+01  0.27198401685E+01  0.10238839574E+02  0.11347094913E+02  0.00000000000E+00 0.  1.
</event>
<event>
 7    1  0.3851772E-009  0.4778724E+02  0.7816164E-02  0.1312668E+00
        -11   -1    0    0    0    0  0.00000000000E+00  0.00000000000E+00  0.45593999997E+02  0.45594000000E+02  0.51100000000E-03 0.  1.
         11   -1    0    0    0    0 -0.00000000000E+00 -0.00000000000E+00 -0.45593999997E+02  0.45594000000E+02  0.51100000000E-03 0. -1.
    9900012    2    1    2    0    0  0.40884618247E+02 -0.25962730794E+01  0.14329446960E+02  0.47787243172E+02  0.19999872917E+02 0.  0.
         12    1    1    2    0    0 -0.40884618247E+02  0.25962730794E+01 -0.14329446960E+02  0.43400756828E+02  0.00000000000E+00 0. -1.
         11    1    3    3    0    0  0.38530576845E+02 -0.55848048553E+01  0.93106689249E+01  0.40031037376E+02  0.51100000000E-03 0. -1.
        -11    1    3    3    0    0  0.78453901850E+00  0.38777399621E+01  0.25816898931E+01  0.47241392496E+01  0.51100000000E-03 0.  1.
         12    1    3    3    0    0  0.15695023826E+01 -0.88920818618E+00  0.24370881421E+01  0.30320665461E+01  0.00000000000E+00 0. -1.
</event>
<event>
 7    1  0.3851772E-009  0.4778727E+02  0.7816164E-02  0.1312668E+00
        -11   -1    0    0    0    0  0.00000000000E+00  0.00000000000E+00  0.45593999997E+02  0.45594000000E+02  0.51100000000E-03 0.  1.
         11   -1    0    0    0    0 -0.00000000000E+00 -0.00000000000E+00 -0.45593999997E+02  0.45594000000E+02  0.51100000000E-03 0. -1.
    9900012    2    1    2    0    0  0.26637565481E+02 -0.25978693028E+02  0.22342127775E+02  0.47787273511E+02  0.20000011248E+02 0.  0.
         12    1    1    2    0    0 -0.26637565481E+02  0.25978693028E+02 -0.22342127775E+02  0.43400726489E+02  0.00000000000E+00 0. -1.
         11    1    3    3    0    0  0.74885485778E+01  0.10702818057E+01  0.96608079302E+01  0.12270088552E+02  0.51100000000E-03 0. -1.
        -11    1    3    3    0    0  0.83506771472E+01 -0.12436603340E+02  0.64402829701E+01  0.16305831977E+02  0.51100000000E-03 0.  1.
         12    1    3    3    0    0  0.10798339756E+02 -0.14612371494E+02  0.62410368748E+01  0.19211352983E+02  0.00000000000E+00 0. -1.
</event>
<event>
 7    1  0.3851772E-009  0.4778727E+02  0.7816164E-02  0.1312668E+00
        -11   -1    0    0    0    0  0.00000000000E+00  0.00000000000E+00  0.45593999997E+02  0.45594000000E+02  0.51100000000E-03 0.  1.
         11   -1    0    0    0    0 -0.00000000000E+00 -0.00000000000E+00 -0.45593999997E+02  0.45594000000E+02  0.51100000000E-03 0. -1.
    9900012    2    1    2    0    0 -0.91151922709E+01 -0.17200174542E+02  0.38790340455E+02  0.47787271354E+02  0.20000001410E+02 0.  0.
         12    1    1    2    0    0  0.91151922709E+01  0.17200174542E+02 -0.38790340455E+02  0.43400728646E+02  0.00000000000E+00 0. -1.
         11    1    3    3    0    0 -0.87102702497E+01 -0.12139837973E+02  0.23402953194E+02  0.27765854791E+02  0.51100000000E-03 0.  1.
        -11    1    3    3    0    0  0.17204043742E-01  0.34245857439E+01  0.14935989714E+01  0.37361640281E+01  0.51100000000E-03 0. -1.
         12    1    3    3    0    0 -0.42212606498E+00 -0.84849223127E+01  0.13893788290E+02  0.16285252534E+02  0.00000000000E+00 0. -1.
</event>
<event>
 7    1  0.3851772E-009  0.4778727E+02  0.7816164E-02  0.1312668E+00
        -11   -1    0    0    0    0  0.00000000000E+00  0.00000000000E+00  0.45593999997E+02  0.45594000000E+02  0.51100000000E-03 0. -1.
         11   -1    0    0    0    0 -0.00000000000E+00 -0.00000000000E+00 -0.45593999997E+02  0.45594000000E+02  0.51100000000E-03 0.  1.
    9900012    2    1    2    0    0 -0.34934496590E+02  0.77464088081E+01 -0.24560077492E+02  0.47787270653E+02  0.19999998216E+02 0.  0.
         12    1    1    2    0    0  0.34934496590E+02 -0.77464088081E+01  0.24560077492E+02  0.43400729347E+02  0.00000000000E+00 0. -1.
         11    1    3    3    0    0 -0.10230020096E+02 -0.19742578244E+01 -0.51211668069E+01  0.11609364963E+02  0.51100000000E-03 0. -1.
        -11    1    3    3    0    0 -0.24664255672E+02  0.42463673126E+01 -0.16305208108E+02  0.29870000920E+02  0.51100000000E-03 0.  1.
        -12    1    3    3    0    0 -0.40220822454E-01  0.54742993199E+01 -0.31337025763E+01  0.63079047706E+01  0.00000000000E+00 0.  1.
</event>
<event>
 7    1  0.3851772E-009  0.4778727E+02  0.7816164E-02  0.1312668E+00
        -11   -1    0    0    0    0  0.00000000000E+00  0.00000000000E+00  0.45593999997E+02  0.45594000000E+02  0.51100000000E-03 0.  1.
         11   -1    0    0    0    0 -0.00000000000E+00 -0.00000000000E+00 -0.45593999997E+02  0.45594000000E+02  0.51100000000E-03 0. -1.
    9900012    2    1    2    0    0  0.42972983764E+02  0.25956721188E+01  0.54962149671E+01  0.47787271593E+02  0.20000002499E+02 0.  0.
         12    1    1    2    0    0 -0.42972983764E+02 -0.25956721188E+01 -0.54962149671E+01  0.43400728407E+02  0.00000000000E+00 0. -1.
         11    1    3    3    0    0  0.43491672112E+01 -0.21320600174E+01 -0.23215596930E+00  0.48492094205E+01  0.51100000000E-03 0. -1.
        -11    1    3    3    0    0 -0.10362449119E+01  0.21554068664E+01  0.18153278575E+01  0.30024985876E+01  0.51100000000E-03 0.  1.
        -12    1    3    3    0    0  0.39660061465E+02  0.25723252697E+01  0.39130430790E+01  0.39935563585E+02  0.00000000000E+00 0.  1.
</event>
<event>
 7    1  0.3851772E-009  0.4778727E+02  0.7816164E-02  0.1312668E+00
        -11   -1    0    0    0    0  0.00000000000E+00  0.00000000000E+00  0.45593999997E+02  0.45594000000E+02  0.51100000000E-03 0. -1.
         11   -1    0    0    0    0 -0.00000000000E+00 -0.00000000000E+00 -0.45593999997E+02  0.45594000000E+02  0.51100000000E-03 0.  1.
    9900012    2    1    2    0    0 -0.36509742181E+02  0.22871832745E+02  0.52480161975E+01  0.47787266352E+02  0.19999978604E+02 0.  0.
         12    1    1    2    0    0  0.36509742181E+02 -0.22871832745E+02 -0.52480161975E+01  0.43400733648E+02  0.00000000000E+00 0. -1.
         11    1    3    3    0    0 -0.81463940466E+01  0.11003359775E+02  0.83886900540E+01  0.16056393848E+02  0.51100000000E-03 0. -1.
        -11    1    3    3    0    0 -0.28776916146E+02  0.11934699611E+02 -0.31454565340E+01  0.31312008156E+02  0.51100000000E-03 0.  1.
         12    1    3    3    0    0  0.41356801190E+00 -0.66226641287E-01  0.47826775460E-02  0.41886434855E+00  0.00000000000E+00 0. -1.
</event>
<event>
 7    1  0.3851772E-009  0.4778727E+02  0.7816164E-02  0.1312668E+00
        -11   -1    0    0    0    0  0.00000000000E+00  0.00000000000E+00  0.45593999997E+02  0.45594000000E+02  0.51100000000E-03 0.  1.
         11   -1    0    0    0    0 -0.00000000000E+00 -0.00000000000E+00 -0.45593999997E+02  0.45594000000E+02  0.51100000000E-03 0. -1.
    9900012    2    1    2    0    0 -0.51057041501E+01  0.10927851805E+02  0.41690969781E+02  0.47787272803E+02  0.20000008018E+02 0.  0.
         12    1    1    2    0    0  0.51057041501E+01 -0.10927851805E+02 -0.41690969781E+02  0.43400727197E+02  0.00000000000E+00 0. -1.
         11    1    3    3    0    0  0.42490940427E+01 -0.15804962294E+01  0.65514236582E+01  0.79670521979E+01  0.51100000000E-03 0. -1.
        -11    1    3    3    0    0 -0.80639576162E+01  0.14093280843E+02  0.33393806443E+02  0.37132119336E+02  0.51100000000E-03 0.  1.
        -12    1    3    3    0    0 -0.12908405766E+01 -0.15849328089E+01  0.17457396802E+01  0.26881012693E+01  0.00000000000E+00 0.  1.
</event>
<event>
 7    1  0.3851772E-009  0.4778728E+02  0.7816164E-02  0.1312668E+00
        -11   -1    0    0    0    0  0.00000000000E+00  0.00000000000E+00  0.45593999997E+02  0.45594000000E+02  0.51100000000E-03 0. -1.
         11   -1    0    0    0    0 -0.00000000000E+00 -0.00000000000E+00 -0.45593999997E+02  0.45594000000E+02  0.51100000000E-03 0.  1.
    9900012    2    1    2    0    0  0.84516928169E+01 -0.12904721359E+01 -0.42550279555E+02  0.47787277425E+02  0.20000029091E+02 0.  0.
         12    1    1    2    0    0 -0.84516928169E+01  0.12904721359E+01  0.42550279555E+02  0.43400722575E+02  0.00000000000E+00 0. -1.
         11    1    3    3    0    0  0.11640994348E+02 -0.46506150207E+01 -0.14091332543E+02  0.18860186176E+02  0.51100000000E-03 0. -1.
        -11    1    3    3    0    0 -0.34294742688E+01  0.27300991634E+01 -0.21957195948E+02  0.22390470950E+02  0.51100000000E-03 0.  1.
         12    1    3    3    0    0  0.24017273729E+00  0.63004372144E+00 -0.65017510642E+01  0.65366202991E+01  0.00000000000E+00 0. -1.
</event>
<event>
 7    1  0.3851772E-009  0.4778727E+02  0.7816164E-02  0.1312668E+00
        -11   -1    0    0    0    0  0.00000000000E+00  0.00000000000E+00  0.45593999997E+02  0.45594000000E+02  0.51100000000E-03 0. -1.
         11   -1    0    0    0    0 -0.00000000000E+00 -0.00000000000E+00 -0.45593999997E+02  0.45594000000E+02  0.51100000000E-03 0.  1.
    9900012    2    1    2    0    0  0.20478043622E+01 -0.27595956972E+02 -0.33434903666E+02  0.47787272736E+02  0.20000007712E+02 0.  0.
         12    1    1    2    0    0 -0.20478043622E+01  0.27595956972E+02  0.33434903666E+02  0.43400727264E+02  0.00000000000E+00 0. -1.
         11    1    3    3    0    0 -0.57289164275E+01 -0.61237144657E+01 -0.85991118710E+01  0.12011040235E+02  0.51100000000E-03 0. -1.
        -11    1    3    3    0    0  0.85129554128E+01 -0.11041641126E+02 -0.19678457306E+02  0.24117005014E+02  0.51100000000E-03 0.  1.
        -12    1    3    3    0    0 -0.73623462310E+00 -0.10430601380E+02 -0.51573344889E+01  0.11659227487E+02  0.00000000000E+00 0.  1.
</event>
<event>
 7    1  0.3851772E-009  0.4778727E+02  0.7816164E-02  0.1312668E+00
        -11   -1    0    0    0    0  0.00000000000E+00  0.00000000000E+00  0.45593999997E+02  0.45594000000E+02  0.51100000000E-03 0. -1.
         11   -1    0    0    0    0 -0.00000000000E+00 -0.00000000000E+00 -0.45593999997E+02  0.45594000000E+02  0.51100000000E-03 0.  1.
    9900012    2    1    2    0    0 -0.21670280364E+02  0.33939384176E+02 -0.16190758036E+02  0.47787268496E+02  0.19999988380E+02 0.  0.
         12    1    1    2    0    0  0.21670280364E+02 -0.33939384176E+02  0.16190758036E+02  0.43400731504E+02  0.00000000000E+00 0. -1.
         11    1    3    3    0    0  0.11357755377E+01  0.73412876776E+00 -0.17041120857E+01  0.21755296784E+01  0.51100000000E-03 0. -1.
        -11    1    3    3    0    0 -0.76759563811E+01  0.18125908542E+02  0.20598060788E+00  0.19685306579E+02  0.51100000000E-03 0.  1.
        -12    1    3    3    0    0 -0.15130099521E+02  0.15079346866E+02 -0.14692626559E+02  0.25926432238E+02  0.00000000000E+00 0.  1.
</event>
<event>
 7    1  0.3851772E-009  0.4778728E+02  0.7816164E-02  0.1312668E+00
        -11   -1    0    0    0    0  0.00000000000E+00  0.00000000000E+00  0.45593999997E+02  0.45594000000E+02  0.51100000000E-03 0.  1.
         11   -1    0    0    0    0 -0.00000000000E+00 -0.00000000000E+00 -0.45593999997E+02  0.45594000000E+02  0.51100000000E-03 0. -1.
    9900012    2    1    2    0    0 -0.40916984239E+02  0.25446108210E+01  0.14245985975E+02  0.47787276967E+02  0.20000027003E+02 0.  0.
         12    1    1    2    0    0  0.40916984239E+02 -0.25446108210E+01 -0.14245985975E+02  0.43400723033E+02  0.00000000000E+00 0. -1.
         11    1    3    3    0    0 -0.16614211412E+02  0.10025951883E+02  0.30757743396E+01  0.19647191149E+02  0.51100000000E-03 0. -1.
        -11    1    3    3    0    0 -0.15800295322E+02 -0.34929165227E+01  0.89413039579E+01  0.18487744991E+02  0.51100000000E-03 0.  1.
         12    1    3    3    0    0 -0.85024775039E+01 -0.39884245389E+01  0.22289076771E+01  0.96523408269E+01  0.00000000000E+00 0. -1.
</event>
<event>
 7    1  0.3851772E-009  0.4778728E+02  0.7816164E-02  0.1312668E+00
        -11   -1    0    0    0    0  0.00000000000E+00  0.00000000000E+00  0.45593999997E+02  0.45594000000E+02  0.51100000000E-03 0.  1.
         11   -1    0    0    0    0 -0.00000000000E+00 -0.00000000000E+00 -0.45593999997E+02  0.45594000000E+02  0.51100000000E-03 0. -1.
    9900012    2    1    2    0    0  0.27422801654E+02  0.25552665623E+02  0.21878617413E+02  0.47787277991E+02  0.20000031673E+02 0.  0.
         12    1    1    2    0    0 -0.27422801654E+02 -0.25552665623E+02 -0.21878617413E+02  0.43400722009E+02  0.00000000000E+00 0. -1.
         11    1    3    3    0    0  0.73355382463E+01  0.14901325336E+01  0.12436660592E+02  0.14515548328E+02  0.51100000000E-03 0.  1.
        -11    1    3    3    0    0  0.14297082598E+02  0.16137743037E+02  0.36246925954E+01  0.21862564301E+02  0.51100000000E-03 0. -1.
        -12    1    3    3    0    0  0.57901808093E+01  0.79247900529E+01  0.58172642252E+01  0.11409165362E+02  0.00000000000E+00 0.  1.
</event>
<event>
 7    1  0.3851772E-009  0.4778726E+02  0.7816164E-02  0.1312668E+00
        -11   -1    0    0    0    0  0.00000000000E+00  0.00000000000E+00  0.45593999997E+02  0.45594000000E+02  0.51100000000E-03 0. -1.
         11   -1    0    0    0    0 -0.00000000000E+00 -0.00000000000E+00 -0.45593999997E+02  0.45594000000E+02  0.51100000000E-03 0.  1.
    9900012    2    1    2    0    0 -0.33116883547E+02 -0.19010371523E+02 -0.20627707254E+02  0.47787256828E+02  0.19999935183E+02 0.  0.
         12    1    1    2    0    0  0.33116883547E+02  0.19010371523E+02  0.20627707254E+02  0.43400743172E+02  0.00000000000E+00 0. -1.
         11    1    3    3    0    0 -0.12780821452E+02 -0.35152737193E+01 -0.58277518057E+01  0.14479959864E+02  0.51100000000E-03 0. -1.
        -11    1    3    3    0    0 -0.16140390325E+01  0.13133699369E+01  0.21328424193E+01  0.29797784542E+01  0.51100000000E-03 0.  1.
        -12    1    3    3    0    0 -0.18722023062E+02 -0.16808467741E+02 -0.16932797867E+02  0.30327518510E+02  0.00000000000E+00 0.  1.
</event>
<event>
 7    1  0.3851772E-009  0.4778727E+02  0.7816164E-02  0.1312668E+00
        -11   -1    0    0    0    0  0.00000000000E+00  0.00000000000E+00  0.45593999997E+02  0.45594000000E+02  0.51100000000E-03 0.  1.
         11   -1    0    0    0    0 -0.00000000000E+00 -0.00000000000E+00 -0.45593999997E+02  0.45594000000E+02  0.51100000000E-03 0. -1.
    9900012    2    1    2    0    0  0.15900238729E+02  0.10827001360E+02  0.38904774557E+02  0.47787273814E+02  0.20000012628E+02 0.  0.
         12    1    1    2    0    0 -0.15900238729E+02 -0.10827001360E+02 -0.38904774557E+02  0.43400726186E+02  0.00000000000E+00 0. -1.
         11    1    3    3    0    0  0.16228755916E+02  0.80074851012E+01  0.23826600203E+02  0.29919879908E+02  0.51100000000E-03 0. -1.
        -11    1    3    3    0    0 -0.16976440683E+01 -0.28160529833E+01  0.29229551242E+01  0.43995246001E+01  0.51100000000E-03 0.  1.
        -12    1    3    3    0    0  0.13691268812E+01  0.56355692424E+01  0.12155219230E+02  0.13467869306E+02  0.00000000000E+00 0.  1.
</event>
<event>
 7    1  0.3851772E-009  0.4778727E+02  0.7816164E-02  0.1312668E+00
        -11   -1    0    0    0    0  0.00000000000E+00  0.00000000000E+00  0.45593999997E+02  0.45594000000E+02  0.51100000000E-03 0.  1.
         11   -1    0    0    0    0 -0.00000000000E+00 -0.00000000000E+00 -0.45593999997E+02  0.45594000000E+02  0.51100000000E-03 0. -1.
    9900012    2    1    2    0    0 -0.39063854372E+02  0.49055840062E+01  0.18264011196E+02  0.47787267543E+02  0.19999984037E+02 0.  0.
         12    1    1    2    0    0  0.39063854372E+02 -0.49055840062E+01 -0.18264011196E+02  0.43400732457E+02  0.00000000000E+00 0. -1.
         11    1    3    3    0    0 -0.79840180226E+01 -0.35792902488E+01  0.73407020611E+01  0.11421110694E+02  0.51100000000E-03 0. -1.
        -11    1    3    3    0    0 -0.31073944811E+02  0.78693135835E+01  0.12705158086E+02  0.34480968441E+02  0.51100000000E-03 0.  1.
        -12    1    3    3    0    0 -0.58915380725E-02  0.61556067149E+00 -0.17818489512E+01  0.18851884084E+01  0.00000000000E+00 0.  1.
</event>
<event>
 7    1  0.3851772E-009  0.4778727E+02  0.7816164E-02  0.1312668E+00
        -11   -1    0    0    0    0  0.00000000000E+00  0.00000000000E+00  0.45593999997E+02  0.45594000000E+02  0.51100000000E-03 0.  1.
         11   -1    0    0    0    0 -0.00000000000E+00 -0.00000000000E+00 -0.45593999997E+02  0.45594000000E+02  0.51100000000E-03 0. -1.
    9900012    2    1    2    0    0 -0.30881683471E+02  0.20676978926E+02  0.22414452441E+02  0.47787268327E+02  0.19999987610E+02 0.  0.
         12    1    1    2    0    0  0.30881683471E+02 -0.20676978926E+02 -0.22414452441E+02  0.43400731673E+02  0.00000000000E+00 0. -1.
         11    1    3    3    0    0 -0.12785626983E+02  0.50378461739E+00  0.13620006137E+02  0.18687713176E+02  0.51100000000E-03 0. -1.
        -11    1    3    3    0    0 -0.15128597189E+02  0.12940741113E+02  0.59115263129E+01  0.20767363267E+02  0.51100000000E-03 0.  1.
         12    1    3    3    0    0 -0.29674592994E+01  0.72324531960E+01  0.28829199906E+01  0.83321918844E+01  0.00000000000E+00 0. -1.
</event>
<event>
 7    1  0.3851772E-009  0.4778727E+02  0.7816164E-02  0.1312668E+00
        -11   -1    0    0    0    0  0.00000000000E+00  0.00000000000E+00  0.45593999997E+02  0.45594000000E+02  0.51100000000E-03 0. -1.
         11   -1    0    0    0    0 -0.00000000000E+00 -0.00000000000E+00 -0.45593999997E+02  0.45594000000E+02  0.51100000000E-03 0.  1.
    9900012    2    1    2    0    0  0.16446210731E+02 -0.21796469561E+02 -0.33735138428E+02  0.47787268468E+02  0.19999988255E+02 0.  0.
         12    1    1    2    0    0 -0.16446210731E+02  0.21796469561E+02  0.33735138428E+02  0.43400731532E+02  0.00000000000E+00 0. -1.
         11    1    3    3    0    0  0.10574317969E+02 -0.24956626014E+01 -0.19057222520E+02  0.21936778770E+02  0.51100000000E-03 0. -1.
        -11    1    3    3    0    0  0.50850704361E+01 -0.15291393746E+02 -0.14628750168E+02  0.21764305543E+02  0.51100000000E-03 0.  1.
         12    1    3    3    0    0  0.78682232543E+00 -0.40094132135E+01 -0.49165740195E-01  0.40861841562E+01  0.00000000000E+00 0. -1.
</event>
<event>
 7    1  0.3851772E-009  0.4778727E+02  0.7816164E-02  0.1312668E+00
        -11   -1    0    0    0    0  0.00000000000E+00  0.00000000000E+00  0.45593999997E+02  0.45594000000E+02  0.51100000000E-03 0.  1.
         11   -1    0    0    0    0 -0.00000000000E+00 -0.00000000000E+00 -0.45593999997E+02  0.45594000000E+02  0.51100000000E-03 0. -1.
    9900012    2    1    2    0    0 -0.12605317374E+02  0.37476549869E+02 -0.17895173761E+02  0.47787273507E+02  0.20000011226E+02 0.  0.
         12    1    1    2    0    0  0.12605317374E+02 -0.37476549869E+02  0.17895173761E+02  0.43400726493E+02  0.00000000000E+00 0. -1.
         11    1    3    3    0    0  0.34396122466E+01  0.41193385092E+01 -0.26041001991E+01  0.59649996034E+01  0.51100000000E-03 0. -1.
        -11    1    3    3    0    0 -0.13165778192E+02  0.24522615342E+02 -0.55901356021E+01  0.28389187993E+02  0.51100000000E-03 0.  1.
        -12    1    3    3    0    0 -0.28791514290E+01  0.88345960178E+01 -0.97009379602E+01  0.13433085910E+02  0.00000000000E+00 0.  1.
</event>
<event>
 7    1  0.3851772E-009  0.4778727E+02  0.7816164E-02  0.1312668E+00
        -11   -1    0    0    0    0  0.00000000000E+00  0.00000000000E+00  0.45593999997E+02  0.45594000000E+02  0.51100000000E-03 0. -1.
         11   -1    0    0    0    0 -0.00000000000E+00 -0.00000000000E+00 -0.45593999997E+02  0.45594000000E+02  0.51100000000E-03 0.  1.
    9900012    2    1    2    0    0  0.25161264385E+02  0.60332112659E+01 -0.34844429330E+02  0.47787272829E+02  0.20000008137E+02 0.  0.
         12    1    1    2    0    0 -0.25161264385E+02 -0.60332112659E+01  0.34844429330E+02  0.43400727171E+02  0.00000000000E+00 0. -1.
         11    1    3    3    0    0  0.93607308949E+01  0.93914653388E+01 -0.18312374192E+02  0.22608979475E+02  0.51100000000E-03 0. -1.
        -11    1    3    3    0    0  0.12668047738E+02 -0.46847741323E+01 -0.17034740455E+02  0.21739570483E+02  0.51100000000E-03 0.  1.
        -12    1    3    3    0    0  0.31324857522E+01  0.13265200593E+01  0.50268531692E+00  0.34387228709E+01  0.00000000000E+00 0.  1.
</event>
<event>
 7    1  0.3851772E-009  0.4778727E+02  0.7816164E-02  0.1312668E+00
        -11   -1    0    0    0    0  0.00000000000E+00  0.00000000000E+00  0.45593999997E+02  0.45594000000E+02  0.51100000000E-03 0.  1.
         11   -1    0    0    0    0 -0.00000000000E+00 -0.00000000000E+00 -0.45593999997E+02  0.45594000000E+02  0.51100000000E-03 0. -1.
    9900012    2    1    2    0    0  0.22677090966E+02  0.30166901547E+02  0.21432005713E+02  0.47787271060E+02  0.20000000069E+02 0.  0.
         12    1    1    2    0    0 -0.22677090966E+02 -0.30166901547E+02 -0.21432005713E+02  0.43400728940E+02  0.00000000000E+00 0. -1.
         11    1    3    3    0    0  0.92686919076E+01  0.13553248617E+02  0.21314393736E+00  0.16420859550E+02  0.51100000000E-03 0. -1.
        -11    1    3    3    0    0  0.57024732834E+01  0.13731589083E+02  0.13372438759E+02  0.19997421307E+02  0.51100000000E-03 0.  1.
         12    1    3    3    0    0  0.77059257752E+01  0.28820638471E+01  0.78464230172E+01  0.11368990203E+02  0.00000000000E+00 0. -1.
</event>
<event>
 7    1  0.3851772E-009  0.4778727E+02  0.7816164E-02  0.1312668E+00
        -11   -1    0    0    0    0  0.00000000000E+00  0.00000000000E+00  0.45593999997E+02  0.45594000000E+02  0.51100000000E-03 0. -1.
         11   -1    0    0    0    0 -0.00000000000E+00 -0.00000000000E+00 -0.45593999997E+02  0.45594000000E+02  0.51100000000E-03 0.  1.
    9900012    2    1    2    0    0  0.31859414005E+02 -0.19030031224E+01 -0.29410533459E+02  0.47787272357E+02  0.20000005983E+02 0.  0.
         12    1    1    2    0    0 -0.31859414005E+02  0.19030031224E+01  0.29410533459E+02  0.43400727643E+02  0.00000000000E+00 0. -1.
         11    1    3    3    0    0  0.14914067716E+02  0.46082392449E+01 -0.16345249461E+02  0.22601603150E+02  0.51100000000E-03 0. -1.
        -11    1    3    3    0    0  0.91082698081E+01 -0.49093379166E+01 -0.58714336508E+00  0.10363730760E+02  0.51100000000E-03 0.  1.
         12    1    3    3    0    0  0.78370764808E+01 -0.16019044508E+01 -0.12478140633E+02  0.14821938446E+02  0.00000000000E+00 0. -1.
</event>
<event>
 7    1  0.3851772E-009  0.4778728E+02  0.7816164E-02  0.1312668E+00
        -11   -1    0    0    0    0  0.00000000000E+00  0.00000000000E+00  0.45593999997E+02  0.45594000000E+02  0.51100000000E-03 0.  1.
         11   -1    0    0    0    0 -0.00000000000E+00 -0.00000000000E+00 -0.45593999997E+02  0.45594000000E+02  0.51100000000E-03 0. -1.
    9900012    2    1    2    0    0  0.19735712069E+02 -0.25660888488E+02  0.28907492831E+02  0.47787277994E+02  0.20000031687E+02 0.  0.
         12    1    1    2    0    0 -0.19735712069E+02  0.25660888488E+02 -0.28907492831E+02  0.43400722006E+02  0.00000000000E+00 0. -1.
         11    1    3    3    0    0  0.65016761722E+01 -0.48392772751E+01 -0.80542190029E+00  0.81448819692E+01  0.51100000000E-03 0. -1.
        -11    1    3    3    0    0  0.42015865569E+01 -0.14535732064E+02  0.15415804163E+02  0.21600644770E+02  0.51100000000E-03 0.  1.
        -12    1    3    3    0    0  0.90324493398E+01 -0.62858791486E+01  0.14297110568E+02  0.18041751255E+02  0.00000000000E+00 0.  1.
</event>
<event>
 7    1  0.3851772E-009  0.4778727E+02  0.7816164E-02  0.1312668E+00
        -11   -1    0    0    0    0  0.00000000000E+00  0.00000000000E+00  0.45593999997E+02  0.45594000000E+02  0.51100000000E-03 0.  1.
         11   -1    0    0    0    0 -0.00000000000E+00 -0.00000000000E+00 -0.45593999997E+02  0.45594000000E+02  0.51100000000E-03 0. -1.
    9900012    2    1    2    0    0  0.26187324176E+02  0.25259665109E+01  0.34517628787E+02  0.47787272455E+02  0.20000006432E+02 0.  0.
         12    1    1    2    0    0 -0.26187324176E+02 -0.25259665109E+01 -0.34517628787E+02  0.43400727545E+02  0.00000000000E+00 0. -1.
         11    1    3    3    0    0  0.91277331342E+01  0.23211477623E+01  0.13528126393E+01  0.95149010190E+01  0.51100000000E-03 0. -1.
        -11    1    3    3    0    0  0.17567588930E+02 -0.78376700750E-01  0.33322458489E+02  0.37669783165E+02  0.51100000000E-03 0.  1.
        -12    1    3    3    0    0 -0.50799788765E+00  0.28319544938E+00 -0.15764234098E+00  0.60258827078E+00  0.00000000000E+00 0.  1.
</event>
<event>
 7    1  0.3851772E-009  0.4778727E+02  0.7816164E-02  0.1312668E+00
        -11   -1    0    0    0    0  0.00000000000E+00  0.00000000000E+00  0.45593999997E+02  0.45594000000E+02  0.51100000000E-03 0.  1.
         11   -1    0    0    0    0 -0.00000000000E+00 -0.00000000000E+00 -0.45593999997E+02  0.45594000000E+02  0.51100000000E-03 0. -1.
    9900012    2    1    2    0    0 -0.33189132441E+02  0.62756347103E+01  0.27252910868E+02  0.47787271273E+02  0.20000001044E+02 0.  0.
         12    1    1    2    0    0  0.33189132441E+02 -0.62756347103E+01 -0.27252910868E+02  0.43400728727E+02  0.00000000000E+00 0. -1.
         11    1    3    3    0    0 -0.12811478419E+02  0.12540766921E+02  0.12812018597E+02  0.22035258905E+02  0.51100000000E-03 0. -1.
        -11    1    3    3    0    0 -0.13101654235E+02 -0.42058456768E+01  0.93176156229E+01  0.16618075782E+02  0.51100000000E-03 0.  1.
         12    1    3    3    0    0 -0.72759997876E+01 -0.20592865338E+01  0.51232766483E+01  0.91339365857E+01  0.00000000000E+00 0. -1.
</event>
<event>
 7    1  0.3851772E-009  0.4778727E+02  0.7816164E-02  0.1312668E+00
        -11   -1    0    0    0    0  0.00000000000E+00  0.00000000000E+00  0.45593999997E+02  0.45594000000E+02  0.51100000000E-03 0. -1.
         11   -1    0    0    0    0 -0.00000000000E+00 -0.00000000000E+00 -0.45593999997E+02  0.45594000000E+02  0.51100000000E-03 0.  1.
    9900012    2    1    2    0    0  0.25769062426E+02  0.33534007140E+02 -0.97493230935E+01  0.47787268279E+02  0.19999987389E+02 0.  0.
         12    1    1    2    0    0 -0.25769062426E+02 -0.33534007140E+02  0.97493230935E+01  0.43400731721E+02  0.00000000000E+00 0. -1.
         11    1    3    3    0    0  0.63972582052E+00  0.21395011819E+00 -0.46326634570E+01  0.46815162870E+01  0.51100000000E-03 0. -1.
        -11    1    3    3    0    0  0.20252253564E+02  0.21166379224E+02 -0.76007217327E+00  0.29304386939E+02  0.51100000000E-03 0.  1.
        -12    1    3    3    0    0  0.48770830420E+01  0.12153677797E+02 -0.43565874633E+01  0.13801365053E+02  0.00000000000E+00 0.  1.
</event>
<event>
 7    1  0.3851772E-009  0.4778728E+02  0.7816164E-02  0.1312668E+00
        -11   -1    0    0    0    0  0.00000000000E+00  0.00000000000E+00  0.45593999997E+02  0.45594000000E+02  0.51100000000E-03 0. -1.
         11   -1    0    0    0    0 -0.00000000000E+00 -0.00000000000E+00 -0.45593999997E+02  0.45594000000E+02  0.51100000000E-03 0.  1.
    9900012    2    1    2    0    0 -0.37323689479E+02  0.17682105740E+02  0.13338205328E+02  0.47787281330E+02  0.20000046896E+02 0.  0.
         12    1    1    2    0    0  0.37323689479E+02 -0.17682105740E+02 -0.13338205328E+02  0.43400718670E+02  0.00000000000E+00 0. -1.
         11    1    3    3    0    0 -0.10330962007E+02  0.12973006422E+02  0.34929176903E+01  0.16947806521E+02  0.51100000000E-03 0.  1.
        -11    1    3    3    0    0 -0.24666593364E+02  0.26938238343E+01  0.11496106020E+02  0.27346991954E+02  0.51100000000E-03 0. -1.
         12    1    3    3    0    0 -0.23261341078E+01  0.20152754838E+01 -0.16508183827E+01  0.34924828554E+01  0.00000000000E+00 0. -1.
</event>
<event>
 7    1  0.3851772E-009  0.4778727E+02  0.7816164E-02  0.1312668E+00
        -11   -1    0    0    0    0  0.00000000000E+00  0.00000000000E+00  0.45593999997E+02  0.45594000000E+02  0.51100000000E-03 0.  1.
         11   -1    0    0    0    0 -0.00000000000E+00 -0.00000000000E+00 -0.45593999997E+02  0.45594000000E+02  0.51100000000E-03 0. -1.
    9900012    2    1    2    0    0  0.38488791580E+02 -0.19691079585E+02  0.38076248261E+01  0.47787266143E+02  0.19999977652E+02 0.  0.
         12    1    1    2    0    0 -0.38488791580E+02  0.19691079585E+02 -0.38076248261E+01  0.43400733857E+02  0.00000000000E+00 0. -1.
         11    1    3    3    0    0  0.10958794449E+02 -0.21310462294E+01 -0.59959722164E+01  0.12672340623E+02  0.51100000000E-03 0. -1.
        -11    1    3    3    0    0  0.17108505102E+02 -0.91498556552E+01  0.97711031913E+01  0.21723150397E+02  0.51100000000E-03 0.  1.
        -12    1    3    3    0    0  0.10421492030E+02 -0.84101777009E+01  0.32493851220E-01  0.13391775123E+02  0.00000000000E+00 0.  1.
</event>
<event>
 7    1  0.3851772E-009  0.4778728E+02  0.7816164E-02  0.1312668E+00
        -11   -1    0    0    0    0  0.00000000000E+00  0.00000000000E+00  0.45593999997E+02  0.45594000000E+02  0.51100000000E-03 0.  1.
         11   -1    0    0    0    0 -0.00000000000E+00 -0.00000000000E+00 -0.45593999997E+02  0.45594000000E+02  0.51100000000E-03 0. -1.
    9900012    2    1    2    0    0 -0.16614219018E+02 -0.28157147070E+02  0.28544100838E+02  0.47787275382E+02  0.20000019777E+02 0.  0.
         12    1    1    2    0    0  0.16614219018E+02  0.28157147070E+02 -0.28544100838E+02  0.43400724618E+02  0.00000000000E+00 0. -1.
         11    1    3    3    0    0  0.11032900754E+01 -0.48070780168E+01  0.61930140708E+01  0.79169862695E+01  0.51100000000E-03 0. -1.
        -11    1    3    3    0    0 -0.19803235637E+02 -0.20814070253E+02  0.22634185134E+02  0.36574581325E+02  0.51100000000E-03 0.  1.
        -12    1    3    3    0    0  0.20857265436E+01 -0.25359988009E+01 -0.28309836716E+00  0.32957077872E+01  0.00000000000E+00 0.  1.
</event>
<event>
 7    1  0.3851772E-009  0.4778725E+02  0.7816164E-02  0.1312668E+00
        -11   -1    0    0    0    0  0.00000000000E+00  0.00000000000E+00  0.45593999997E+02  0.45594000000E+02  0.51100000000E-03 0. -1.
         11   -1    0    0    0    0 -0.00000000000E+00 -0.00000000000E+00 -0.45593999997E+02  0.45594000000E+02  0.51100000000E-03 0.  1.
    9900012    2    1    2    0    0  0.53274593636E+01 -0.19181037891E+02 -0.38565936972E+02  0.47787245025E+02  0.19999881367E+02 0.  0.
         12    1    1    2    0    0 -0.53274593636E+01  0.19181037891E+02  0.38565936972E+02  0.43400754975E+02  0.00000000000E+00 0. -1.
         11    1    3    3    0    0 -0.16627763699E+01 -0.11207454157E+02 -0.85489065652E+01  0.14193507588E+02  0.51100000000E-03 0. -1.
        -11    1    3    3    0    0  0.80953031834E+01 -0.47937572408E+01 -0.28283529476E+02  0.29807248817E+02  0.51100000000E-03 0.  1.
        -12    1    3    3    0    0 -0.11050674499E+01 -0.31798264932E+01 -0.17335009307E+01  0.37864886204E+01  0.00000000000E+00 0.  1.
</event>
<event>
 7    1  0.3851772E-009  0.4778727E+02  0.7816164E-02  0.1312668E+00
        -11   -1    0    0    0    0  0.00000000000E+00  0.00000000000E+00  0.45593999997E+02  0.45594000000E+02  0.51100000000E-03 0. -1.
         11   -1    0    0    0    0 -0.00000000000E+00 -0.00000000000E+00 -0.45593999997E+02  0.45594000000E+02  0.51100000000E-03 0.  1.
    9900012    2    1    2    0    0  0.13995572238E+02 -0.32444750963E+02 -0.25200895772E+02  0.47787273565E+02  0.20000011494E+02 0.  0.
         12    1    1    2    0    0 -0.13995572238E+02  0.32444750963E+02  0.25200895772E+02  0.43400726435E+02  0.00000000000E+00 0. -1.
         11    1    3    3    0    0  0.70028870691E+01 -0.92566931629E+00 -0.40235670142E+01  0.81293531578E+01  0.51100000000E-03 0. -1.
        -11    1    3    3    0    0  0.89618095579E+01 -0.23529912411E+02 -0.14457113681E+02  0.29034099691E+02  0.51100000000E-03 0.  1.
         12    1    3    3    0    0 -0.19691243888E+01 -0.79891692360E+01 -0.67202150764E+01  0.10623820716E+02  0.00000000000E+00 0. -1.
</event>
<event>
 7    1  0.3851772E-009  0.4778727E+02  0.7816164E-02  0.1312668E+00
        -11   -1    0    0    0    0  0.00000000000E+00  0.00000000000E+00  0.45593999997E+02  0.45594000000E+02  0.51100000000E-03 0.  1.
         11   -1    0    0    0    0 -0.00000000000E+00 -0.00000000000E+00 -0.45593999997E+02  0.45594000000E+02  0.51100000000E-03 0. -1.
    9900012    2    1    2    0    0  0.26199976607E+02  0.25936538671E+02  0.22901535660E+02  0.47787272494E+02  0.20000006610E+02 0.  0.
         12    1    1    2    0    0 -0.26199976607E+02 -0.25936538671E+02 -0.22901535660E+02  0.43400727506E+02  0.00000000000E+00 0. -1.
         11    1    3    3    0    0  0.18539860817E+00  0.53726107090E+01  0.32884114517E+01  0.63018226420E+01  0.51100000000E-03 0. -1.
        -11    1    3    3    0    0  0.18749832492E+02  0.20751770291E+02  0.19714211338E+02  0.34217573228E+02  0.51100000000E-03 0.  1.
        -12    1    3    3    0    0  0.72647455065E+01 -0.18784232803E+00 -0.10108712996E+00  0.72678766241E+01  0.00000000000E+00 0.  1.
</event>
<event>
 7    1  0.3851772E-009  0.4778726E+02  0.7816164E-02  0.1312668E+00
        -11   -1    0    0    0    0  0.00000000000E+00  0.00000000000E+00  0.45593999997E+02  0.45594000000E+02  0.51100000000E-03 0.  1.
         11   -1    0    0    0    0 -0.00000000000E+00 -0.00000000000E+00 -0.45593999997E+02  0.45594000000E+02  0.51100000000E-03 0. -1.
    9900012    2    1    2    0    0  0.10831557613E+02 -0.37530497378E+02  0.18914624011E+02  0.47787264116E+02  0.19999968412E+02 0.  0.
         12    1    1    2    0    0 -0.10831557613E+02  0.37530497378E+02 -0.18914624011E+02  0.43400735884E+02  0.00000000000E+00 0. -1.
         11    1    3    3    0    0  0.23086755482E+01 -0.92566785035E+01  0.22818325878E+01  0.98093241319E+01  0.51100000000E-03 0. -1.
        -11    1    3    3    0    0  0.75734438736E+01 -0.30450571761E+02  0.13792786188E+02  0.34275870868E+02  0.51100000000E-03 0.  1.
        -12    1    3    3    0    0  0.94943819098E+00  0.21767528864E+01  0.28400052353E+01  0.37020691165E+01  0.00000000000E+00 0.  1.
</event>
<event>
 7    1  0.3851772E-009  0.4778728E+02  0.7816164E-02  0.1312668E+00
        -11   -1    0    0    0    0  0.00000000000E+00  0.00000000000E+00  0.45593999997E+02  0.45594000000E+02  0.51100000000E-03 0.  1.
         11   -1    0    0    0    0 -0.00000000000E+00 -0.00000000000E+00 -0.45593999997E+02  0.45594000000E+02  0.51100000000E-03 0. -1.
    9900012    2    1    2    0    0 -0.13033320542E+02  0.36540308980E+02  0.19456651884E+02  0.47787275038E+02  0.20000018210E+02 0.  0.
         12    1    1    2    0    0  0.13033320542E+02 -0.36540308980E+02 -0.19456651884E+02  0.43400724962E+02  0.00000000000E+00 0. -1.
         11    1    3    3    0    0 -0.11088237266E+02  0.89356262294E+01  0.18585509022E+01  0.14361359041E+02  0.51100000000E-03 0. -1.
        -11    1    3    3    0    0 -0.14411262458E+01  0.21425533636E+02  0.10199229337E+02  0.23772980793E+02  0.51100000000E-03 0.  1.
        -12    1    3    3    0    0 -0.50395703067E+00  0.61791491145E+01  0.73988716442E+01  0.96529352052E+01  0.00000000000E+00 0.  1.
</event>
<event>
 7    1  0.3851772E-009  0.4778727E+02  0.7816164E-02  0.1312668E+00
        -11   -1    0    0    0    0  0.00000000000E+00  0.00000000000E+00  0.45593999997E+02  0.45594000000E+02  0.51100000000E-03 0. -1.
         11   -1    0    0    0    0 -0.00000000000E+00 -0.00000000000E+00 -0.45593999997E+02  0.45594000000E+02  0.51100000000E-03 0.  1.
    9900012    2    1    2    0    0  0.56991764754E+01  0.28697603059E+02  0.32056055413E+02  0.47787265876E+02  0.19999976436E+02 0.  0.
         12    1    1    2    0    0 -0.56991764754E+01 -0.28697603059E+02 -0.32056055413E+02  0.43400734124E+02  0.00000000000E+00 0. -1.
         11    1    3    3    0    0 -0.62332324411E+01  0.12293613693E+02  0.15369860103E+02  0.20645065370E+02  0.51100000000E-03 0. -1.
        -11    1    3    3    0    0  0.58339949971E+01  0.10617971136E+02  0.59240066671E+01  0.13485943198E+02  0.51100000000E-03 0.  1.
         12    1    3    3    0    0  0.60984139193E+01  0.57860182304E+01  0.10762188642E+02  0.13656257308E+02  0.00000000000E+00 0. -1.
</event>
<event>
 7    1  0.3851772E-009  0.4778727E+02  0.7816164E-02  0.1312668E+00
        -11   -1    0    0    0    0  0.00000000000E+00  0.00000000000E+00  0.45593999997E+02  0.45594000000E+02  0.51100000000E-03 0.  1.
         11   -1    0    0    0    0 -0.00000000000E+00 -0.00000000000E+00 -0.45593999997E+02  0.45594000000E+02  0.51100000000E-03 0. -1.
    9900012    2    1    2    0    0 -0.14575373930E+01  0.35707353392E+01  0.43229026978E+02  0.47787270287E+02  0.19999996547E+02 0.  0.
         12    1    1    2    0    0  0.14575373930E+01 -0.35707353392E+01 -0.43229026978E+02  0.43400729713E+02  0.00000000000E+00 0. -1.
         11    1    3    3    0    0  0.83094886203E+01  0.39966463920E+01  0.25356711580E+02  0.26981171323E+02  0.51100000000E-03 0. -1.
        -11    1    3    3    0    0 -0.15492718759E+01  0.13935030742E+01  0.51068626527E+01  0.55156269434E+01  0.51100000000E-03 0.  1.
         12    1    3    3    0    0 -0.82177541374E+01 -0.18194141270E+01  0.12765452745E+02  0.15290472021E+02  0.00000000000E+00 0. -1.
</event>
<event>
 7    1  0.3851772E-009  0.4778727E+02  0.7816164E-02  0.1312668E+00
        -11   -1    0    0    0    0  0.00000000000E+00  0.00000000000E+00  0.45593999997E+02  0.45594000000E+02  0.51100000000E-03 0. -1.
         11   -1    0    0    0    0 -0.00000000000E+00 -0.00000000000E+00 -0.45593999997E+02  0.45594000000E+02  0.51100000000E-03 0.  1.
    9900012    2    1    2    0    0  0.40056501997E+02  0.57868648652E+01  0.15672019755E+02  0.47787270047E+02  0.19999995454E+02 0.  0.
         12    1    1    2    0    0 -0.40056501997E+02 -0.57868648652E+01 -0.15672019755E+02  0.43400729953E+02  0.00000000000E+00 0. -1.
         11    1    3    3    0    0  0.10697105282E+02  0.61510348040E+01  0.98224200052E+01  0.15771595531E+02  0.51100000000E-03 0. -1.
        -11    1    3    3    0    0  0.19113943488E+02  0.27567933638E+01 -0.94010344757E+00  0.19334594386E+02  0.51100000000E-03 0.  1.
         12    1    3    3    0    0  0.10245453227E+02 -0.31209633026E+01  0.67897031974E+01  0.12681080131E+02  0.00000000000E+00 0. -1.
</event>
<event>
 7    1  0.3851772E-009  0.4778727E+02  0.7816164E-02  0.1312668E+00
        -11   -1    0    0    0    0  0.00000000000E+00  0.00000000000E+00  0.45593999997E+02  0.45594000000E+02  0.51100000000E-03 0.  1.
         11   -1    0    0    0    0 -0.00000000000E+00 -0.00000000000E+00 -0.45593999997E+02  0.45594000000E+02  0.51100000000E-03 0. -1.
    9900012    2    1    2    0    0  0.30252559518E+02  0.12326264907E+02  0.28573927365E+02  0.47787268566E+02  0.19999988700E+02 0.  0.
         12    1    1    2    0    0 -0.30252559518E+02 -0.12326264907E+02 -0.28573927365E+02  0.43400731434E+02  0.00000000000E+00 0. -1.
         11    1    3    3    0    0  0.34693265648E+01 -0.36246380978E+01 -0.47791755304E+00  0.50401025388E+01  0.51100000000E-03 0. -1.
        -11    1    3    3    0    0  0.21796132070E+02  0.11539239041E+02  0.23707925276E+02  0.34209518149E+02  0.51100000000E-03 0.  1.
         12    1    3    3    0    0  0.49871008831E+01  0.44116639635E+01  0.53439196421E+01  0.85376478779E+01  0.00000000000E+00 0. -1.
</event>
<event>
 7    1  0.3851772E-009  0.4778727E+02  0.7816164E-02  0.1312668E+00
        -11   -1    0    0    0    0  0.00000000000E+00  0.00000000000E+00  0.45593999997E+02  0.45594000000E+02  0.51100000000E-03 0.  1.
         11   -1    0    0    0    0 -0.00000000000E+00 -0.00000000000E+00 -0.45593999997E+02  0.45594000000E+02  0.51100000000E-03 0. -1.
    9900012    2    1    2    0    0 -0.10263423846E+02 -0.40300392312E+02 -0.12416272783E+02  0.47787270521E+02  0.19999997611E+02 0.  0.
         12    1    1    2    0    0  0.10263423846E+02  0.40300392312E+02  0.12416272783E+02  0.43400729479E+02  0.00000000000E+00 0. -1.
         11    1    3    3    0    0 -0.10014032610E+02 -0.17228243836E+02 -0.10984084580E+02  0.22753974358E+02  0.51100000000E-03 0. -1.
        -11    1    3    3    0    0 -0.15755639550E+01 -0.21716368272E+02  0.11798052897E+01  0.21805389093E+02  0.51100000000E-03 0.  1.
        -12    1    3    3    0    0  0.13261727192E+01 -0.13557802039E+01 -0.26119934928E+01  0.32279070694E+01  0.00000000000E+00 0.  1.
</event>
<event>
 7    1  0.3851772E-009  0.4778727E+02  0.7816164E-02  0.1312668E+00
        -11   -1    0    0    0    0  0.00000000000E+00  0.00000000000E+00  0.45593999997E+02  0.45594000000E+02  0.51100000000E-03 0. -1.
         11   -1    0    0    0    0 -0.00000000000E+00 -0.00000000000E+00 -0.45593999997E+02  0.45594000000E+02  0.51100000000E-03 0.  1.
    9900012    2    1    2    0    0  0.10856446208E+02 -0.72804366492E+00 -0.42014647112E+02  0.47787273695E+02  0.20000012086E+02 0.  0.
         12    1    1    2    0    0 -0.10856446208E+02  0.72804366492E+00  0.42014647112E+02  0.43400726305E+02  0.00000000000E+00 0. -1.
         11    1    3    3    0    0  0.16151862985E+01 -0.32868528556E+00  0.15584462678E+01  0.22683949890E+01  0.51100000000E-03 0. -1.
        -11    1    3    3    0    0  0.34858020972E+01  0.47057853827E+00 -0.34880266541E+02  0.35057171230E+02  0.51100000000E-03 0.  1.
        -12    1    3    3    0    0  0.57554578118E+01 -0.86993691763E+00 -0.86928268391E+01  0.10461707476E+02  0.00000000000E+00 0.  1.
</event>
<event>
 7    1  0.3851772E-009  0.4778727E+02  0.7816164E-02  0.1312668E+00
        -11   -1    0    0    0    0  0.00000000000E+00  0.00000000000E+00  0.45593999997E+02  0.45594000000E+02  0.51100000000E-03 0. -1.
         11   -1    0    0    0    0 -0.00000000000E+00 -0.00000000000E+00 -0.45593999997E+02  0.45594000000E+02  0.51100000000E-03 0.  1.
    9900012    2    1    2    0    0 -0.40170875069E+02  0.10351768422E+02 -0.12757926397E+02  0.47787274209E+02  0.20000014427E+02 0.  0.
         12    1    1    2    0    0  0.40170875069E+02 -0.10351768422E+02  0.12757926397E+02  0.43400725791E+02  0.00000000000E+00 0. -1.
         11    1    3    3    0    0 -0.11008351502E+02  0.11049310116E+02 -0.58629735931E+01  0.16662698354E+02  0.51100000000E-03 0. -1.
        -11    1    3    3    0    0 -0.12503963319E+02 -0.38519479402E+01 -0.52227985134E+01  0.14087733181E+02  0.51100000000E-03 0.  1.
         12    1    3    3    0    0 -0.16658560249E+02  0.31544062465E+01 -0.16721542903E+01  0.17036842674E+02  0.00000000000E+00 0. -1.
</event>
<event>
 7    1  0.3851772E-009  0.4778728E+02  0.7816164E-02  0.1312668E+00
        -11   -1    0    0    0    0  0.00000000000E+00  0.00000000000E+00  0.45593999997E+02  0.45594000000E+02  0.51100000000E-03 0.  1.
         11   -1    0    0    0    0 -0.00000000000E+00 -0.00000000000E+00 -0.45593999997E+02  0.45594000000E+02  0.51100000000E-03 0. -1.
    9900012    2    1    2    0    0 -0.18324996500E+02  0.11237542825E+02  0.37703249403E+02  0.47787275570E+02  0.20000020635E+02 0.  0.
         12    1    1    2    0    0  0.18324996500E+02 -0.11237542825E+02 -0.37703249403E+02  0.43400724430E+02  0.00000000000E+00 0. -1.
         11    1    3    3    0    0 -0.15787996235E+02  0.10624757804E+02  0.13392240316E+02  0.23270118273E+02  0.51100000000E-03 0. -1.
        -11    1    3    3    0    0 -0.26043029607E+01  0.28315896602E+00  0.23397006440E+02  0.23543204615E+02  0.51100000000E-03 0.  1.
        -12    1    3    3    0    0  0.67302695391E-01  0.32962605425E+00  0.91400264694E+00  0.97395268214E+00  0.00000000000E+00 0.  1.
</event>
<event>
 7    1  0.3851772E-009  0.4778727E+02  0.7816164E-02  0.1312668E+00
        -11   -1    0    0    0    0  0.00000000000E+00  0.00000000000E+00  0.45593999997E+02  0.45594000000E+02  0.51100000000E-03 0. -1.
         11   -1    0    0    0    0 -0.00000000000E+00 -0.00000000000E+00 -0.45593999997E+02  0.45594000000E+02  0.51100000000E-03 0.  1.
    9900012    2    1    2    0    0 -0.10498869895E+02 -0.38691635426E+02 -0.16623914974E+02  0.47787268784E+02  0.19999989693E+02 0.  0.
         12    1    1    2    0    0  0.10498869895E+02  0.38691635426E+02  0.16623914974E+02  0.43400731216E+02  0.00000000000E+00 0. -1.
         11    1    3    3    0    0 -0.13400832486E+01 -0.12984115890E+02  0.23723228320E+01  0.13266913900E+02  0.51100000000E-03 0. -1.
        -11    1    3    3    0    0 -0.94424587384E+01 -0.12825956128E+02 -0.10004794184E+02  0.18808537544E+02  0.51100000000E-03 0.  1.
        -12    1    3    3    0    0  0.28367209243E+00 -0.12881563408E+02 -0.89914436220E+01  0.15711817340E+02  0.00000000000E+00 0.  1.
</event>
<event>
 7    1  0.3851772E-009  0.4778727E+02  0.7816164E-02  0.1312668E+00
        -11   -1    0    0    0    0  0.00000000000E+00  0.00000000000E+00  0.45593999997E+02  0.45594000000E+02  0.51100000000E-03 0. -1.
         11   -1    0    0    0    0 -0.00000000000E+00 -0.00000000000E+00 -0.45593999997E+02  0.45594000000E+02  0.51100000000E-03 0.  1.
    9900012    2    1    2    0    0  0.23912252865E+02 -0.27605934869E+02 -0.23446527346E+02  0.47787272798E+02  0.20000007994E+02 0.  0.
         12    1    1    2    0    0 -0.23912252865E+02  0.27605934869E+02  0.23446527346E+02  0.43400727202E+02  0.00000000000E+00 0. -1.
         11    1    3    3    0    0 -0.17302691421E+01 -0.92206452327E+01 -0.26059405180E+01  0.97367887959E+01  0.51100000000E-03 0. -1.
        -11    1    3    3    0    0  0.20032094042E+02 -0.15126958526E+02 -0.14552006247E+02  0.29015005635E+02  0.51100000000E-03 0.  1.
         12    1    3    3    0    0  0.56104279656E+01 -0.32583311105E+01 -0.62885805817E+01  0.90354783667E+01  0.00000000000E+00 0. -1.
</event>
<event>
 7    1  0.3851772E-009  0.4778727E+02  0.7816164E-02  0.1312668E+00
        -11   -1    0    0    0    0  0.00000000000E+00  0.00000000000E+00  0.45593999997E+02  0.45594000000E+02  0.51100000000E-03 0.  1.
         11   -1    0    0    0    0 -0.00000000000E+00 -0.00000000000E+00 -0.45593999997E+02  0.45594000000E+02  0.51100000000E-03 0. -1.
    9900012    2    1    2    0    0  0.29277167061E+02 -0.13384014555E+02  0.29109091145E+02  0.47787267932E+02  0.19999985810E+02 0.  0.
         12    1    1    2    0    0 -0.29277167061E+02  0.13384014555E+02 -0.29109091145E+02  0.43400732068E+02  0.00000000000E+00 0. -1.
         11    1    3    3    0    0  0.57950112475E+01 -0.53646295699E+01  0.74416156413E+01  0.10850762618E+02  0.51100000000E-03 0. -1.
        -11    1    3    3    0    0  0.25585344936E+02 -0.58915257217E+01  0.21508939282E+02  0.33940454035E+02  0.51100000000E-03 0.  1.
        -12    1    3    3    0    0 -0.21031891227E+01 -0.21278592638E+01  0.15853622253E+00  0.29960512790E+01  0.00000000000E+00 0.  1.
</event>
<event>
 7    1  0.3851772E-009  0.4778727E+02  0.7816164E-02  0.1312668E+00
        -11   -1    0    0    0    0  0.00000000000E+00  0.00000000000E+00  0.45593999997E+02  0.45594000000E+02  0.51100000000E-03 0.  1.
         11   -1    0    0    0    0 -0.00000000000E+00 -0.00000000000E+00 -0.45593999997E+02  0.45594000000E+02  0.51100000000E-03 0. -1.
    9900012    2    1    2    0    0 -0.23321991198E+02  0.32784414892E+02  0.16275451408E+02  0.47787268995E+02  0.19999990656E+02 0.  0.
         12    1    1    2    0    0  0.23321991198E+02 -0.32784414892E+02 -0.16275451408E+02  0.43400731005E+02  0.00000000000E+00 0. -1.
         11    1    3    3    0    0 -0.33935174533E+01  0.10565278995E+01 -0.42163575989E+00  0.35791044806E+01  0.51100000000E-03 0. -1.
        -11    1    3    3    0    0 -0.12395140159E+02  0.21161563948E+02  0.20059041176E+01  0.24606400384E+02  0.51100000000E-03 0.  1.
        -12    1    3    3    0    0 -0.75333335856E+01  0.10566323045E+02  0.14691183050E+02  0.19601764130E+02  0.00000000000E+00 0.  1.
</event>
<event>
 7    1  0.3851772E-009  0.4778727E+02  0.7816164E-02  0.1312668E+00
        -11   -1    0    0    0    0  0.00000000000E+00  0.00000000000E+00  0.45593999997E+02  0.45594000000E+02  0.51100000000E-03 0.  1.
         11   -1    0    0    0    0 -0.00000000000E+00 -0.00000000000E+00 -0.45593999997E+02  0.45594000000E+02  0.51100000000E-03 0. -1.
    9900012    2    1    2    0    0  0.14399211312E+02 -0.28558801966E+02  0.29337360095E+02  0.47787272431E+02  0.20000006324E+02 0.  0.
         12    1    1    2    0    0 -0.14399211312E+02  0.28558801966E+02 -0.29337360095E+02  0.43400727569E+02  0.00000000000E+00 0. -1.
         11    1    3    3    0    0 -0.12324784091E+01 -0.12268294273E+02  0.10140472310E+02  0.15964311020E+02  0.51100000000E-03 0. -1.
        -11    1    3    3    0    0  0.10649390050E+02 -0.28721880942E+01  0.75028144725E+01  0.13339835012E+02  0.51100000000E-03 0.  1.
         12    1    3    3    0    0  0.49822996708E+01 -0.13418319599E+02  0.11694073313E+02  0.18483126400E+02  0.00000000000E+00 0. -1.
</event>
<event>
 7    1  0.3851772E-009  0.4778727E+02  0.7816164E-02  0.1312668E+00
        -11   -1    0    0    0    0  0.00000000000E+00  0.00000000000E+00  0.45593999997E+02  0.45594000000E+02  0.51100000000E-03 0.  1.
         11   -1    0    0    0    0 -0.00000000000E+00 -0.00000000000E+00 -0.45593999997E+02  0.45594000000E+02  0.51100000000E-03 0. -1.
    9900012    2    1    2    0    0  0.12864887815E+02  0.33738443753E+02  0.24079765203E+02  0.47787273997E+02  0.20000013463E+02 0.  0.
         12    1    1    2    0    0 -0.12864887815E+02 -0.33738443753E+02 -0.24079765203E+02  0.43400726003E+02  0.00000000000E+00 0. -1.
         11    1    3    3    0    0  0.10852229539E+01  0.86416516453E+00 -0.14088306978E+01  0.19771935888E+01  0.51100000000E-03 0. -1.
        -11    1    3    3    0    0  0.93415451305E+01  0.61137075193E+01  0.66802918720E+01  0.13010310712E+02  0.51100000000E-03 0.  1.
         12    1    3    3    0    0  0.24381197307E+01  0.26760571069E+02  0.18808304028E+02  0.32799769697E+02  0.00000000000E+00 0. -1.
</event>
<event>
 7    1  0.3851772E-009  0.4778726E+02  0.7816164E-02  0.1312668E+00
        -11   -1    0    0    0    0  0.00000000000E+00  0.00000000000E+00  0.45593999997E+02  0.45594000000E+02  0.51100000000E-03 0.  1.
         11   -1    0    0    0    0 -0.00000000000E+00 -0.00000000000E+00 -0.45593999997E+02  0.45594000000E+02  0.51100000000E-03 0. -1.
    9900012    2    1    2    0    0 -0.13617607772E+02  0.17122230428E+02  0.37483524182E+02  0.47787255751E+02  0.19999930273E+02 0.  0.
         12    1    1    2    0    0  0.13617607772E+02 -0.17122230428E+02 -0.37483524182E+02  0.43400744249E+02  0.00000000000E+00 0. -1.
         11    1    3    3    0    0 -0.91898117091E+01  0.13420707923E+02  0.12749948039E+02  0.20667104675E+02  0.51100000000E-03 0. -1.
        -11    1    3    3    0    0  0.12548144777E+01  0.44013913549E+01  0.16272705683E+02  0.16904075123E+02  0.51100000000E-03 0.  1.
        -12    1    3    3    0    0 -0.56826105402E+01 -0.69986884971E+00  0.84608704591E+01  0.10216075953E+02  0.00000000000E+00 0.  1.
</event>
<event>
 7    1  0.3851772E-009  0.4778726E+02  0.7816164E-02  0.1312668E+00
        -11   -1    0    0    0    0  0.00000000000E+00  0.00000000000E+00  0.45593999997E+02  0.45594000000E+02  0.51100000000E-03 0. -1.
         11   -1    0    0    0    0 -0.00000000000E+00 -0.00000000000E+00 -0.45593999997E+02  0.45594000000E+02  0.51100000000E-03 0.  1.
    9900012    2    1    2    0    0  0.40357525482E+02  0.17185399852E+01  0.15872661776E+02  0.47787255368E+02  0.19999928526E+02 0.  0.
         12    1    1    2    0    0 -0.40357525482E+02 -0.17185399852E+01 -0.15872661776E+02  0.43400744632E+02  0.00000000000E+00 0. -1.
         11    1    3    3    0    0  0.19221538999E+02 -0.66944695361E+01  0.10734894711E+02  0.23011333047E+02  0.51100000000E-03 0. -1.
        -11    1    3    3    0    0  0.62389489590E+01  0.61785979161E+00 -0.18971497552E+01  0.65502223084E+01  0.51100000000E-03 0.  1.
         12    1    3    3    0    0  0.14897037524E+02  0.77951497297E+01  0.70349168202E+01  0.18225700013E+02  0.00000000000E+00 0. -1.
</event>
<event>
 7    1  0.3851772E-009  0.4778727E+02  0.7816164E-02  0.1312668E+00
        -11   -1    0    0    0    0  0.00000000000E+00  0.00000000000E+00  0.45593999997E+02  0.45594000000E+02  0.51100000000E-03 0.  1.
         11   -1    0    0    0    0 -0.00000000000E+00 -0.00000000000E+00 -0.45593999997E+02  0.45594000000E+02  0.51100000000E-03 0. -1.
    9900012    2    1    2    0    0  0.61732335126E+01 -0.12109367771E+02  0.41217440873E+02  0.47787273832E+02  0.20000012708E+02 0.  0.
         12    1    1    2    0    0 -0.61732335126E+01  0.12109367771E+02 -0.41217440873E+02  0.43400726168E+02  0.00000000000E+00 0. -1.
         11    1    3    3    0    0 -0.21621903343E+01 -0.61729835091E+01  0.12767361264E+02  0.14345253792E+02  0.51100000000E-03 0. -1.
        -11    1    3    3    0    0  0.45348188577E+01 -0.46943800379E+01  0.21979530854E+01  0.68871462914E+01  0.51100000000E-03 0.  1.
        -12    1    3    3    0    0  0.38006049892E+01 -0.12420042242E+01  0.26252126524E+02  0.26554873748E+02  0.00000000000E+00 0.  1.
</event>
<event>
 7    1  0.3851772E-009  0.4778727E+02  0.7816164E-02  0.1312668E+00
        -11   -1    0    0    0    0  0.00000000000E+00  0.00000000000E+00  0.45593999997E+02  0.45594000000E+02  0.51100000000E-03 0.  1.
         11   -1    0    0    0    0 -0.00000000000E+00 -0.00000000000E+00 -0.45593999997E+02  0.45594000000E+02  0.51100000000E-03 0. -1.
    9900012    2    1    2    0    0  0.19361316960E+02 -0.32323216558E+02  0.21540018320E+02  0.47787270602E+02  0.19999997983E+02 0.  0.
         12    1    1    2    0    0 -0.19361316960E+02  0.32323216558E+02 -0.21540018320E+02  0.43400729398E+02  0.00000000000E+00 0. -1.
         11    1    3    3    0    0 -0.30650412240E+01 -0.56015802015E+01  0.39133010595E+01  0.74890656228E+01  0.51100000000E-03 0. -1.
        -11    1    3    3    0    0  0.19527829176E+02 -0.16836492875E+02  0.10887295988E+02  0.27988154974E+02  0.51100000000E-03 0.  1.
        -12    1    3    3    0    0  0.28985290083E+01 -0.98851434810E+01  0.67394212721E+01  0.12310050005E+02  0.00000000000E+00 0.  1.
</event>
<event>
 7    1  0.3851772E-009  0.4778727E+02  0.7816164E-02  0.1312668E+00
        -11   -1    0    0    0    0  0.00000000000E+00  0.00000000000E+00  0.45593999997E+02  0.45594000000E+02  0.51100000000E-03 0.  1.
         11   -1    0    0    0    0 -0.00000000000E+00 -0.00000000000E+00 -0.45593999997E+02  0.45594000000E+02  0.51100000000E-03 0. -1.
    9900012    2    1    2    0    0  0.17772794624E+02  0.39369329335E+02 -0.42198116778E+01  0.47787272684E+02  0.20000007474E+02 0.  0.
         12    1    1    2    0    0 -0.17772794624E+02 -0.39369329335E+02  0.42198116778E+01  0.43400727316E+02  0.00000000000E+00 0. -1.
         11    1    3    3    0    0  0.81336446515E+01  0.21048031449E+02  0.39186336695E+01  0.22902652538E+02  0.51100000000E-03 0. -1.
        -11    1    3    3    0    0  0.18991393546E+01  0.13032776135E+02 -0.81919121348E+01  0.15510235613E+02  0.51100000000E-03 0.  1.
        -12    1    3    3    0    0  0.77400106178E+01  0.52885217506E+01  0.53466787430E-01  0.93743845327E+01  0.00000000000E+00 0.  1.
</event>
<event>
 7    1  0.3851772E-009  0.4778727E+02  0.7816164E-02  0.1312668E+00
        -11   -1    0    0    0    0  0.00000000000E+00  0.00000000000E+00  0.45593999997E+02  0.45594000000E+02  0.51100000000E-03 0. -1.
         11   -1    0    0    0    0 -0.00000000000E+00 -0.00000000000E+00 -0.45593999997E+02  0.45594000000E+02  0.51100000000E-03 0.  1.
    9900012    2    1    2    0    0 -0.24338335328E+02  0.26459214438E+02 -0.24314171726E+02  0.47787267956E+02  0.19999985918E+02 0.  0.
         12    1    1    2    0    0  0.24338335328E+02 -0.26459214438E+02  0.24314171726E+02  0.43400732044E+02  0.00000000000E+00 0. -1.
         11    1    3    3    0    0 -0.37558053968E+01  0.28368461582E+01  0.10439857695E+01  0.48211696560E+01  0.51100000000E-03 0. -1.
        -11    1    3    3    0    0 -0.20666706241E+00  0.77418582417E+01 -0.10871668580E+02  0.13348118156E+02  0.51100000000E-03 0.  1.
        -12    1    3    3    0    0 -0.20375862869E+02  0.15880510038E+02 -0.14486488915E+02  0.29617980144E+02  0.00000000000E+00 0.  1.
</event>
<event>
 7    1  0.3851772E-009  0.4778727E+02  0.7816164E-02  0.1312668E+00
        -11   -1    0    0    0    0  0.00000000000E+00  0.00000000000E+00  0.45593999997E+02  0.45594000000E+02  0.51100000000E-03 0.  1.
         11   -1    0    0    0    0 -0.00000000000E+00 -0.00000000000E+00 -0.45593999997E+02  0.45594000000E+02  0.51100000000E-03 0. -1.
    9900012    2    1    2    0    0 -0.23076123771E+02 -0.14237607336E+02  0.33888143910E+02  0.47787271335E+02  0.20000001326E+02 0.  0.
         12    1    1    2    0    0  0.23076123771E+02  0.14237607336E+02 -0.33888143910E+02  0.43400728665E+02  0.00000000000E+00 0. -1.
         11    1    3    3    0    0 -0.16614777401E+02 -0.11574938421E+02  0.11050876873E+02  0.23068417967E+02  0.51100000000E-03 0. -1.
        -11    1    3    3    0    0 -0.10865331821E+01 -0.36329723812E+01  0.11970556673E+02  0.12556801742E+02  0.51100000000E-03 0.  1.
         12    1    3    3    0    0 -0.53748131878E+01  0.97030346655E+00  0.10866710364E+02  0.12162051626E+02  0.00000000000E+00 0. -1.
</event>
<event>
 7    1  0.3851772E-009  0.4778727E+02  0.7816164E-02  0.1312668E+00
        -11   -1    0    0    0    0  0.00000000000E+00  0.00000000000E+00  0.45593999997E+02  0.45594000000E+02  0.51100000000E-03 0.  1.
         11   -1    0    0    0    0 -0.00000000000E+00 -0.00000000000E+00 -0.45593999997E+02  0.45594000000E+02  0.51100000000E-03 0. -1.
    9900012    2    1    2    0    0 -0.25667758117E+02  0.58790090454E+01  0.34499661126E+02  0.47787272219E+02  0.20000005355E+02 0.  0.
         12    1    1    2    0    0  0.25667758117E+02 -0.58790090454E+01 -0.34499661126E+02  0.43400727781E+02  0.00000000000E+00 0. -1.
         11    1    3    3    0    0 -0.18848996363E+02  0.69975359502E+01  0.18946852056E+02  0.27626678707E+02  0.51100000000E-03 0. -1.
        -11    1    3    3    0    0 -0.71991575290E+00 -0.53522404181E+01  0.67769562963E+01  0.86655578637E+01  0.51100000000E-03 0.  1.
        -12    1    3    3    0    0 -0.60988460007E+01  0.42337135133E+01  0.87758527734E+01  0.11495035648E+02  0.00000000000E+00 0.  1.
</event>
<event>
 7    1  0.3851772E-009  0.4778727E+02  0.7816164E-02  0.1312668E+00
        -11   -1    0    0    0    0  0.00000000000E+00  0.00000000000E+00  0.45593999997E+02  0.45594000000E+02  0.51100000000E-03 0.  1.
         11   -1    0    0    0    0 -0.00000000000E+00 -0.00000000000E+00 -0.45593999997E+02  0.45594000000E+02  0.51100000000E-03 0. -1.
    9900012    2    1    2    0    0 -0.62592239981E+01  0.42771457713E+02  0.38791573203E+01  0.47787270265E+02  0.19999996447E+02 0.  0.
         12    1    1    2    0    0  0.62592239981E+01 -0.42771457713E+02 -0.38791573203E+01  0.43400729735E+02  0.00000000000E+00 0. -1.
         11    1    3    3    0    0 -0.49848960985E+01  0.14905690991E+02 -0.57815101911E+01  0.16746780985E+02  0.51100000000E-03 0. -1.
        -11    1    3    3    0    0  0.36954447517E+01  0.57882408152E+01  0.23851672485E+01  0.72697363578E+01  0.51100000000E-03 0.  1.
         12    1    3    3    0    0 -0.49697726512E+01  0.22077525908E+02  0.72755002629E+01  0.23770752922E+02  0.00000000000E+00 0. -1.
</event>
<event>
 7    1  0.3851772E-009  0.4778727E+02  0.7816164E-02  0.1312668E+00
        -11   -1    0    0    0    0  0.00000000000E+00  0.00000000000E+00  0.45593999997E+02  0.45594000000E+02  0.51100000000E-03 0.  1.
         11   -1    0    0    0    0 -0.00000000000E+00 -0.00000000000E+00 -0.45593999997E+02  0.45594000000E+02  0.51100000000E-03 0. -1.
    9900012    2    1    2    0    0 -0.74310971985E+01  0.42640148417E+02  0.31968788017E+01  0.47787268477E+02  0.19999988296E+02 0.  0.
         12    1    1    2    0    0  0.74310971985E+01 -0.42640148417E+02 -0.31968788017E+01  0.43400731523E+02  0.00000000000E+00 0. -1.
         11    1    3    3    0    0  0.37824110202E+01  0.23857290004E+01  0.19257320984E+01  0.48689609123E+01  0.51100000000E-03 0. -1.
        -11    1    3    3    0    0 -0.45949937150E+01  0.21276901556E+02 -0.40187547220E+01  0.22135286238E+02  0.51100000000E-03 0.  1.
         12    1    3    3    0    0 -0.66185145037E+01  0.18977517861E+02  0.52899014253E+01  0.20783021327E+02  0.00000000000E+00 0. -1.
</event>
<event>
 7    1  0.3851772E-009  0.4778728E+02  0.7816164E-02  0.1312668E+00
        -11   -1    0    0    0    0  0.00000000000E+00  0.00000000000E+00  0.45593999997E+02  0.45594000000E+02  0.51100000000E-03 0.  1.
         11   -1    0    0    0    0 -0.00000000000E+00 -0.00000000000E+00 -0.45593999997E+02  0.45594000000E+02  0.51100000000E-03 0. -1.
    9900012    2    1    2    0    0 -0.11285695257E+02 -0.39627014318E+02  0.13636543962E+02  0.47787279817E+02  0.20000039997E+02 0.  0.
         12    1    1    2    0    0  0.11285695257E+02  0.39627014318E+02 -0.13636543962E+02  0.43400720183E+02  0.00000000000E+00 0. -1.
         11    1    3    3    0    0  0.21902751998E+01 -0.19094181766E+02  0.33944326229E+01  0.19516845438E+02  0.51100000000E-03 0. -1.
        -11    1    3    3    0    0  0.14156197113E+01 -0.15394935317E+01  0.16052215497E+01  0.26364286423E+01  0.51100000000E-03 0.  1.
         12    1    3    3    0    0 -0.14891590168E+02 -0.18993339021E+02  0.86368897889E+01  0.25634005737E+02  0.00000000000E+00 0. -1.
</event>
<event>
 7    1  0.3851772E-009  0.4778727E+02  0.7816164E-02  0.1312668E+00
        -11   -1    0    0    0    0  0.00000000000E+00  0.00000000000E+00  0.45593999997E+02  0.45594000000E+02  0.51100000000E-03 0. -1.
         11   -1    0    0    0    0 -0.00000000000E+00 -0.00000000000E+00 -0.45593999997E+02  0.45594000000E+02  0.51100000000E-03 0.  1.
    9900012    2    1    2    0    0 -0.42891352716E+02 -0.65929366486E+01 -0.69899993819E+00  0.47787267836E+02  0.19999985371E+02 0.  0.
         12    1    1    2    0    0  0.42891352716E+02  0.65929366486E+01  0.69899993819E+00  0.43400732164E+02  0.00000000000E+00 0. -1.
         11    1    3    3    0    0 -0.36207913554E+02 -0.75134145581E+01 -0.56176998972E+00  0.36983509677E+02  0.51100000000E-03 0.  1.
        -11    1    3    3    0    0 -0.48253027137E+00 -0.32752462791E+01  0.11353203143E+00  0.33125463672E+01  0.51100000000E-03 0. -1.
         12    1    3    3    0    0 -0.62009088905E+01  0.41957241886E+01 -0.25076197989E+00  0.74912117916E+01  0.00000000000E+00 0. -1.
</event>
<event>
 7    1  0.3851772E-009  0.4778727E+02  0.7816164E-02  0.1312668E+00
        -11   -1    0    0    0    0  0.00000000000E+00  0.00000000000E+00  0.45593999997E+02  0.45594000000E+02  0.51100000000E-03 0.  1.
         11   -1    0    0    0    0 -0.00000000000E+00 -0.00000000000E+00 -0.45593999997E+02  0.45594000000E+02  0.51100000000E-03 0. -1.
    9900012    2    1    2    0    0  0.30573737572E+02 -0.59808918212E+01  0.30217524641E+02  0.47787270841E+02  0.19999999073E+02 0.  0.
         12    1    1    2    0    0 -0.30573737572E+02  0.59808918212E+01 -0.30217524641E+02  0.43400729159E+02  0.00000000000E+00 0. -1.
         11    1    3    3    0    0 -0.74534757581E+00  0.37678866084E+00  0.26203766871E+01  0.27502521606E+01  0.51100000000E-03 0. -1.
        -11    1    3    3    0    0  0.30818523423E+02 -0.67477755794E+01  0.29401105964E+02  0.43124690067E+02  0.51100000000E-03 0.  1.
        -12    1    3    3    0    0  0.50056172481E+00  0.39009509739E+00 -0.18039580097E+01  0.19123286135E+01  0.00000000000E+00 0.  1.
</event>
<event>
 7    1  0.3851772E-009  0.4778726E+02  0.7816164E-02  0.1312668E+00
        -11   -1    0    0    0    0  0.00000000000E+00  0.00000000000E+00  0.45593999997E+02  0.45594000000E+02  0.51100000000E-03 0.  1.
         11   -1    0    0    0    0 -0.00000000000E+00 -0.00000000000E+00 -0.45593999997E+02  0.45594000000E+02  0.51100000000E-03 0. -1.
    9900012    2    1    2    0    0  0.24960123248E+02 -0.25390221316E+02  0.24818404606E+02  0.47787259243E+02  0.19999946194E+02 0.  0.
         12    1    1    2    0    0 -0.24960123248E+02  0.25390221316E+02 -0.24818404606E+02  0.43400740757E+02  0.00000000000E+00 0. -1.
         11    1    3    3    0    0  0.12637518984E+02 -0.95221063560E+01  0.14497878644E+01  0.15889596617E+02  0.51100000000E-03 0. -1.
        -11    1    3    3    0    0  0.10382353847E+01 -0.36070030705E+01  0.95114354259E+01  0.10225253444E+02  0.51100000000E-03 0.  1.
        -12    1    3    3    0    0  0.11284368879E+02 -0.12261111890E+02  0.13857181316E+02  0.21672409183E+02  0.00000000000E+00 0.  1.
</event>
<event>
 7    1  0.3851772E-009  0.4778727E+02  0.7816164E-02  0.1312668E+00
        -11   -1    0    0    0    0  0.00000000000E+00  0.00000000000E+00  0.45593999997E+02  0.45594000000E+02  0.51100000000E-03 0. -1.
         11   -1    0    0    0    0 -0.00000000000E+00 -0.00000000000E+00 -0.45593999997E+02  0.45594000000E+02  0.51100000000E-03 0.  1.
    9900012    2    1    2    0    0  0.78038189654E+01 -0.11848698858E+02 -0.41016241477E+02  0.47787270514E+02  0.19999997580E+02 0.  0.
         12    1    1    2    0    0 -0.78038189654E+01  0.11848698858E+02  0.41016241477E+02  0.43400729486E+02  0.00000000000E+00 0. -1.
         11    1    3    3    0    0  0.12002390246E+02 -0.71939122011E+01 -0.14874081911E+02  0.20421754512E+02  0.51100000000E-03 0. -1.
        -11    1    3    3    0    0 -0.31696518966E+01 -0.49935813357E+01 -0.14313761833E+02  0.15487618467E+02  0.51100000000E-03 0.  1.
         12    1    3    3    0    0 -0.10289193843E+01  0.33879467868E+00 -0.11828397733E+02  0.11877897535E+02  0.00000000000E+00 0. -1.
</event>
<event>
 7    1  0.3851772E-009  0.4778728E+02  0.7816164E-02  0.1312668E+00
        -11   -1    0    0    0    0  0.00000000000E+00  0.00000000000E+00  0.45593999997E+02  0.45594000000E+02  0.51100000000E-03 0. -1.
         11   -1    0    0    0    0 -0.00000000000E+00 -0.00000000000E+00 -0.45593999997E+02  0.45594000000E+02  0.51100000000E-03 0.  1.
    9900012    2    1    2    0    0 -0.11360375296E+02  0.38989263949E+02  0.15310193741E+02  0.47787275784E+02  0.20000021608E+02 0.  0.
         12    1    1    2    0    0  0.11360375296E+02 -0.38989263949E+02 -0.15310193741E+02  0.43400724216E+02  0.00000000000E+00 0. -1.
         11    1    3    3    0    0 -0.89760808852E+01  0.19963711136E+02  0.90333716031E+00  0.21907437291E+02  0.51100000000E-03 0.  1.
        -11    1    3    3    0    0  0.19812378694E+01  0.14196978830E+02  0.67930277989E+01  0.15862683831E+02  0.51100000000E-03 0. -1.
         12    1    3    3    0    0 -0.43655322802E+01  0.48285739826E+01  0.76138287815E+01  0.10017154661E+02  0.00000000000E+00 0. -1.
</event>
<event>
 7    1  0.3851772E-009  0.4778726E+02  0.7816164E-02  0.1312668E+00
        -11   -1    0    0    0    0  0.00000000000E+00  0.00000000000E+00  0.45593999997E+02  0.45594000000E+02  0.51100000000E-03 0.  1.
         11   -1    0    0    0    0 -0.00000000000E+00 -0.00000000000E+00 -0.45593999997E+02  0.45594000000E+02  0.51100000000E-03 0. -1.
    9900012    2    1    2    0    0 -0.15448212643E+02  0.87915782057E+01  0.39594000582E+02  0.47787262641E+02  0.19999961685E+02 0.  0.
         12    1    1    2    0    0  0.15448212643E+02 -0.87915782057E+01 -0.39594000582E+02  0.43400737359E+02  0.00000000000E+00 0. -1.
         11    1    3    3    0    0  0.15672697142E+01  0.30312708581E+01  0.21242477469E+02  0.21514827135E+02  0.51100000000E-03 0.  1.
        -11    1    3    3    0    0 -0.11828933591E+02  0.26976648104E+01  0.88298858454E+01  0.15005597277E+02  0.51100000000E-03 0. -1.
        -12    1    3    3    0    0 -0.51865487660E+01  0.30626425372E+01  0.95216372678E+01  0.11266838229E+02  0.00000000000E+00 0.  1.
</event>
<event>
 7    1  0.3851772E-009  0.4778727E+02  0.7816164E-02  0.1312668E+00
        -11   -1    0    0    0    0  0.00000000000E+00  0.00000000000E+00  0.45593999997E+02  0.45594000000E+02  0.51100000000E-03 0. -1.
         11   -1    0    0    0    0 -0.00000000000E+00 -0.00000000000E+00 -0.45593999997E+02  0.45594000000E+02  0.51100000000E-03 0.  1.
    9900012    2    1    2    0    0  0.14514358259E+02 -0.70109955117E+01 -0.40296435975E+02  0.47787269522E+02  0.19999993058E+02 0.  0.
         12    1    1    2    0    0 -0.14514358259E+02  0.70109955117E+01  0.40296435975E+02  0.43400730478E+02  0.00000000000E+00 0. -1.
         11    1    3    3    0    0  0.33179997554E+01 -0.10486839765E+02 -0.12295961648E+02  0.16497684799E+02  0.51100000000E-03 0. -1.
        -11    1    3    3    0    0  0.12029279878E+02  0.19520584384E+01 -0.23646887663E+02  0.26602432275E+02  0.51100000000E-03 0.  1.
        -12    1    3    3    0    0 -0.83292137399E+00  0.15237858149E+01 -0.43535866641E+01  0.46871524475E+01  0.00000000000E+00 0.  1.
</event>
<event>
 7    1  0.3851772E-009  0.4778727E+02  0.7816164E-02  0.1312668E+00
        -11   -1    0    0    0    0  0.00000000000E+00  0.00000000000E+00  0.45593999997E+02  0.45594000000E+02  0.51100000000E-03 0.  1.
         11   -1    0    0    0    0 -0.00000000000E+00 -0.00000000000E+00 -0.45593999997E+02  0.45594000000E+02  0.51100000000E-03 0. -1.
    9900012    2    1    2    0    0  0.14587071067E+02 -0.27248650261E+02  0.30468863503E+02  0.47787271590E+02  0.20000002488E+02 0.  0.
         12    1    1    2    0    0 -0.14587071067E+02  0.27248650261E+02 -0.30468863503E+02  0.43400728410E+02  0.00000000000E+00 0. -1.
         11    1    3    3    0    0  0.47499087914E+01 -0.20428322634E+01  0.12662356011E+01  0.53233589059E+01  0.51100000000E-03 0. -1.
        -11    1    3    3    0    0 -0.12961334394E+01 -0.27490216086E+01  0.11196480635E+02  0.11601649045E+02  0.51100000000E-03 0.  1.
        -12    1    3    3    0    0  0.11133295715E+02 -0.22456796389E+02  0.18006147266E+02  0.30862263639E+02  0.00000000000E+00 0.  1.
</event>
<event>
 7    1  0.3851772E-009  0.4778727E+02  0.7816164E-02  0.1312668E+00
        -11   -1    0    0    0    0  0.00000000000E+00  0.00000000000E+00  0.45593999997E+02  0.45594000000E+02  0.51100000000E-03 0.  1.
         11   -1    0    0    0    0 -0.00000000000E+00 -0.00000000000E+00 -0.45593999997E+02  0.45594000000E+02  0.51100000000E-03 0. -1.
    9900012    2    1    2    0    0  0.99174691088E+01 -0.17108826175E+02  0.38633601419E+02  0.47787270914E+02  0.19999999406E+02 0.  0.
         12    1    1    2    0    0 -0.99174691088E+01  0.17108826175E+02 -0.38633601419E+02  0.43400729086E+02  0.00000000000E+00 0. -1.
         11    1    3    3    0    0  0.76073194222E+01 -0.14194059626E+02  0.23889183223E+02  0.28810340379E+02  0.51100000000E-03 0.  1.
        -11    1    3    3    0    0  0.24477317376E+01 -0.57753227677E+01  0.31215084776E+01  0.70063941630E+01  0.51100000000E-03 0. -1.
         12    1    3    3    0    0 -0.13758205088E+00  0.28605562193E+01  0.11622909719E+02  0.11970536372E+02  0.00000000000E+00 0. -1.
</event>
<event>
 7    1  0.3851772E-009  0.4778727E+02  0.7816164E-02  0.1312668E+00
        -11   -1    0    0    0    0  0.00000000000E+00  0.00000000000E+00  0.45593999997E+02  0.45594000000E+02  0.51100000000E-03 0. -1.
         11   -1    0    0    0    0 -0.00000000000E+00 -0.00000000000E+00 -0.45593999997E+02  0.45594000000E+02  0.51100000000E-03 0.  1.
    9900012    2    1    2    0    0 -0.19394669275E+02 -0.40735767110E+01 -0.38611862195E+02  0.47787272751E+02  0.20000007783E+02 0.  0.
         12    1    1    2    0    0  0.19394669275E+02  0.40735767110E+01  0.38611862195E+02  0.43400727249E+02  0.00000000000E+00 0. -1.
         11    1    3    3    0    0  0.37702926758E+01 -0.47629296122E-01 -0.81765479394E+01  0.90040719609E+01  0.51100000000E-03 0. -1.
        -11    1    3    3    0    0 -0.16721235527E+02 -0.34873393866E+01 -0.25298319468E+02  0.30524845974E+02  0.51100000000E-03 0.  1.
        -12    1    3    3    0    0 -0.64437264233E+01 -0.53860802827E+00 -0.51369947885E+01  0.82583548170E+01  0.00000000000E+00 0.  1.
</event>
<event>
 7    1  0.3851772E-009  0.4778727E+02  0.7816164E-02  0.1312668E+00
        -11   -1    0    0    0    0  0.00000000000E+00  0.00000000000E+00  0.45593999997E+02  0.45594000000E+02  0.51100000000E-03 0.  1.
         11   -1    0    0    0    0 -0.00000000000E+00 -0.00000000000E+00 -0.45593999997E+02  0.45594000000E+02  0.51100000000E-03 0. -1.
    9900012    2    1    2    0    0 -0.19285448381E+02  0.21496401125E+02  0.32397523716E+02  0.47787270472E+02  0.19999997391E+02 0.  0.
         12    1    1    2    0    0  0.19285448381E+02 -0.21496401125E+02 -0.32397523716E+02  0.43400729528E+02  0.00000000000E+00 0. -1.
         11    1    3    3    0    0 -0.21063228345E+02  0.15343578298E+02  0.21158459374E+02  0.33567326176E+02  0.51100000000E-03 0. -1.
        -11    1    3    3    0    0 -0.85250116170E-01  0.59805131394E+01  0.10724316688E+02  0.12279445170E+02  0.51100000000E-03 0.  1.
         12    1    3    3    0    0  0.18630300807E+01  0.17230968792E+00  0.51474765480E+00  0.19404991261E+01  0.00000000000E+00 0. -1.
</event>
<event>
 7    1  0.3851772E-009  0.4778727E+02  0.7816164E-02  0.1312668E+00
        -11   -1    0    0    0    0  0.00000000000E+00  0.00000000000E+00  0.45593999997E+02  0.45594000000E+02  0.51100000000E-03 0.  1.
         11   -1    0    0    0    0 -0.00000000000E+00 -0.00000000000E+00 -0.45593999997E+02  0.45594000000E+02  0.51100000000E-03 0. -1.
    9900012    2    1    2    0    0  0.10505516169E+02 -0.38516340010E+02  0.17022014182E+02  0.47787270922E+02  0.19999999440E+02 0.  0.
         12    1    1    2    0    0 -0.10505516169E+02  0.38516340010E+02 -0.17022014182E+02  0.43400729078E+02  0.00000000000E+00 0. -1.
         11    1    3    3    0    0  0.49902110438E+01 -0.25330226059E+02  0.14193736282E+02  0.29461580208E+02  0.51100000000E-03 0. -1.
        -11    1    3    3    0    0 -0.32486030878E+01 -0.20800461293E+01 -0.18103571368E+00  0.38617079269E+01  0.51100000000E-03 0.  1.
         12    1    3    3    0    0  0.87639082129E+01 -0.11106067822E+02  0.30093136141E+01  0.14463982787E+02  0.00000000000E+00 0. -1.
</event>
<event>
 7    1  0.3851772E-009  0.4778727E+02  0.7816164E-02  0.1312668E+00
        -11   -1    0    0    0    0  0.00000000000E+00  0.00000000000E+00  0.45593999997E+02  0.45594000000E+02  0.51100000000E-03 0. -1.
         11   -1    0    0    0    0 -0.00000000000E+00 -0.00000000000E+00 -0.45593999997E+02  0.45594000000E+02  0.51100000000E-03 0.  1.
    9900012    2    1    2    0    0  0.51045010234E+01  0.19237978499E+02 -0.38567699507E+02  0.47787271980E+02  0.20000004266E+02 0.  0.
         12    1    1    2    0    0 -0.51045010234E+01 -0.19237978499E+02  0.38567699507E+02  0.43400728020E+02  0.00000000000E+00 0. -1.
         11    1    3    3    0    0  0.40192116518E+01 -0.72225201178E+00 -0.30931924166E+00  0.40952886253E+01  0.51100000000E-03 0. -1.
        -11    1    3    3    0    0  0.24344404121E+01  0.19508722928E+02 -0.35179666801E+02  0.40300443259E+02  0.51100000000E-03 0.  1.
        -12    1    3    3    0    0 -0.13491510405E+01  0.45150758270E+00 -0.30787134642E+01  0.33915400959E+01  0.00000000000E+00 0.  1.
</event>
<event>
 7    1  0.3851772E-009  0.4778727E+02  0.7816164E-02  0.1312668E+00
        -11   -1    0    0    0    0  0.00000000000E+00  0.00000000000E+00  0.45593999997E+02  0.45594000000E+02  0.51100000000E-03 0.  1.
         11   -1    0    0    0    0 -0.00000000000E+00 -0.00000000000E+00 -0.45593999997E+02  0.45594000000E+02  0.51100000000E-03 0. -1.
    9900012    2    1    2    0    0  0.29897770974E+02 -0.21908973612E+01  0.31383857438E+02  0.47787271341E+02  0.20000001354E+02 0.  0.
         12    1    1    2    0    0 -0.29897770974E+02  0.21908973612E+01 -0.31383857438E+02  0.43400728659E+02  0.00000000000E+00 0. -1.
         11    1    3    3    0    0  0.24881401318E+02 -0.32846356748E+01  0.13339943314E+02  0.28422298481E+02  0.51100000000E-03 0. -1.
        -11    1    3    3    0    0  0.56593443133E+01  0.17318836033E+01  0.16896509268E+02  0.17903061877E+02  0.51100000000E-03 0.  1.
         12    1    3    3    0    0 -0.64297465747E+00 -0.63814528967E+00  0.11474048560E+01  0.14619109837E+01  0.00000000000E+00 0. -1.
</event>
<event>
 7    1  0.3851772E-009  0.4778727E+02  0.7816164E-02  0.1312668E+00
        -11   -1    0    0    0    0  0.00000000000E+00  0.00000000000E+00  0.45593999997E+02  0.45594000000E+02  0.51100000000E-03 0.  1.
         11   -1    0    0    0    0 -0.00000000000E+00 -0.00000000000E+00 -0.45593999997E+02  0.45594000000E+02  0.51100000000E-03 0. -1.
    9900012    2    1    2    0    0 -0.77194966106E+01 -0.53821024610E+01  0.42368217044E+02  0.47787268781E+02  0.19999989681E+02 0.  0.
         12    1    1    2    0    0  0.77194966106E+01  0.53821024610E+01 -0.42368217044E+02  0.43400731219E+02  0.00000000000E+00 0. -1.
         11    1    3    3    0    0 -0.88873653380E+01 -0.57042085740E-01  0.81774323748E+01  0.12077206505E+02  0.51100000000E-03 0. -1.
        -11    1    3    3    0    0 -0.83912810296E-01  0.24314761695E+01  0.89423654884E+01  0.92674170356E+01  0.51100000000E-03 0.  1.
         12    1    3    3    0    0  0.12517815377E+01 -0.77565365448E+01  0.25248419181E+02  0.26442645241E+02  0.00000000000E+00 0. -1.
</event>
<event>
 7    1  0.3851772E-009  0.4778727E+02  0.7816164E-02  0.1312668E+00
        -11   -1    0    0    0    0  0.00000000000E+00  0.00000000000E+00  0.45593999997E+02  0.45594000000E+02  0.51100000000E-03 0.  1.
         11   -1    0    0    0    0 -0.00000000000E+00 -0.00000000000E+00 -0.45593999997E+02  0.45594000000E+02  0.51100000000E-03 0. -1.
    9900012    2    1    2    0    0 -0.37025283418E+02 -0.16949367108E+02  0.15015674844E+02  0.47787272488E+02  0.20000006581E+02 0.  0.
         12    1    1    2    0    0  0.37025283418E+02  0.16949367108E+02 -0.15015674844E+02  0.43400727512E+02  0.00000000000E+00 0. -1.
         11    1    3    3    0    0  0.15994085514E+01  0.96290458205E+00  0.14482820187E+01  0.23627979210E+01  0.51100000000E-03 0. -1.
        -11    1    3    3    0    0 -0.11151483759E+02 -0.91201348084E+01  0.59774388430E+01  0.15596865850E+02  0.51100000000E-03 0.  1.
         12    1    3    3    0    0 -0.27473208211E+02 -0.87921368814E+01  0.75899539821E+01  0.29827608717E+02  0.00000000000E+00 0. -1.
</event>
<event>
 7    1  0.3851772E-009  0.4778727E+02  0.7816164E-02  0.1312668E+00
        -11   -1    0    0    0    0  0.00000000000E+00  0.00000000000E+00  0.45593999997E+02  0.45594000000E+02  0.51100000000E-03 0.  1.
         11   -1    0    0    0    0 -0.00000000000E+00 -0.00000000000E+00 -0.45593999997E+02  0.45594000000E+02  0.51100000000E-03 0. -1.
    9900012    2    1    2    0    0  0.27129232378E+02 -0.30468448997E+02  0.14808851819E+02  0.47787265837E+02  0.19999976257E+02 0.  0.
         12    1    1    2    0    0 -0.27129232378E+02  0.30468448997E+02 -0.14808851819E+02  0.43400734163E+02  0.00000000000E+00 0. -1.
         11    1    3    3    0    0  0.15520258915E+02 -0.98404870501E+01  0.36356650928E+01  0.18733170663E+02  0.51100000000E-03 0. -1.
        -11    1    3    3    0    0  0.77579217845E+01 -0.19244036323E+02  0.45081054546E+01  0.21233023795E+02  0.51100000000E-03 0.  1.
        -12    1    3    3    0    0  0.38510516787E+01 -0.13839256237E+01  0.66650812714E+01  0.78210713793E+01  0.00000000000E+00 0.  1.
</event>
<event>
 7    1  0.3851772E-009  0.4778727E+02  0.7816164E-02  0.1312668E+00
        -11   -1    0    0    0    0  0.00000000000E+00  0.00000000000E+00  0.45593999997E+02  0.45594000000E+02  0.51100000000E-03 0.  1.
         11   -1    0    0    0    0 -0.00000000000E+00 -0.00000000000E+00 -0.45593999997E+02  0.45594000000E+02  0.51100000000E-03 0. -1.
    9900012    2    1    2    0    0  0.38832235618E+02  0.16277069811E+02 -0.10523205294E+02  0.47787269886E+02  0.19999994719E+02 0.  0.
         12    1    1    2    0    0 -0.38832235618E+02 -0.16277069811E+02  0.10523205294E+02  0.43400730114E+02  0.00000000000E+00 0. -1.
         11    1    3    3    0    0  0.32456921943E+02  0.91201000375E+01 -0.84094837171E+01  0.34746905234E+02  0.51100000000E-03 0.  1.
        -11    1    3    3    0    0  0.66931592833E+01  0.82321394882E+01  0.42784769927E-01  0.10609822456E+02  0.51100000000E-03 0. -1.
         12    1    3    3    0    0 -0.31784560782E+00 -0.10751697144E+01 -0.21565063466E+01  0.24305421963E+01  0.00000000000E+00 0. -1.
</event>
<event>
 7    1  0.3851772E-009  0.4778730E+02  0.7816164E-02  0.1312668E+00
        -11   -1    0    0    0    0  0.00000000000E+00  0.00000000000E+00  0.45593999997E+02  0.45594000000E+02  0.51100000000E-03 0.  1.
         11   -1    0    0    0    0 -0.00000000000E+00 -0.00000000000E+00 -0.45593999997E+02  0.45594000000E+02  0.51100000000E-03 0. -1.
    9900012    2    1    2    0    0 -0.22594160564E+02 -0.36476744255E+02  0.65247032793E+01  0.47787300513E+02  0.20000134360E+02 0.  0.
         12    1    1    2    0    0  0.22594160564E+02  0.36476744255E+02 -0.65247032793E+01  0.43400699487E+02  0.00000000000E+00 0. -1.
         11    1    3    3    0    0 -0.13029158288E+02 -0.30451045649E+02  0.45056535050E+01  0.33426427577E+02  0.51100000000E-03 0. -1.
        -11    1    3    3    0    0 -0.29593498551E+01 -0.51970407058E+01  0.42530412721E+01  0.73386200328E+01  0.51100000000E-03 0.  1.
         12    1    3    3    0    0 -0.66056524212E+01 -0.82865789996E+00 -0.22339914978E+01  0.70222529032E+01  0.00000000000E+00 0. -1.
</event>
<event>
 7    1  0.3851772E-009  0.4778727E+02  0.7816164E-02  0.1312668E+00
        -11   -1    0    0    0    0  0.00000000000E+00  0.00000000000E+00  0.45593999997E+02  0.45594000000E+02  0.51100000000E-03 0.  1.
         11   -1    0    0    0    0 -0.00000000000E+00 -0.00000000000E+00 -0.45593999997E+02  0.45594000000E+02  0.51100000000E-03 0. -1.
    9900012    2    1    2    0    0  0.96315617851E+01  0.28876530065E+02  0.30935456416E+02  0.47787269192E+02  0.19999991553E+02 0.  0.
         12    1    1    2    0    0 -0.96315617851E+01 -0.28876530065E+02 -0.30935456416E+02  0.43400730808E+02  0.00000000000E+00 0. -1.
         11    1    3    3    0    0  0.10280140132E+02  0.14571265126E+02  0.10055030826E+02  0.20472095488E+02  0.51100000000E-03 0.  1.
        -11    1    3    3    0    0 -0.53525340805E+01  0.64818772415E+01  0.87512262961E+01  0.12134591695E+02  0.51100000000E-03 0. -1.
         12    1    3    3    0    0  0.47039557335E+01  0.78233876976E+01  0.12129199294E+02  0.15180582009E+02  0.00000000000E+00 0. -1.
</event>
<event>
 7    1  0.3851772E-009  0.4778727E+02  0.7816164E-02  0.1312668E+00
        -11   -1    0    0    0    0  0.00000000000E+00  0.00000000000E+00  0.45593999997E+02  0.45594000000E+02  0.51100000000E-03 0.  1.
         11   -1    0    0    0    0 -0.00000000000E+00 -0.00000000000E+00 -0.45593999997E+02  0.45594000000E+02  0.51100000000E-03 0. -1.
    9900012    2    1    2    0    0  0.10355614400E+02 -0.22375839079E+02  0.35717029900E+02  0.47787272483E+02  0.20000006561E+02 0.  0.
         12    1    1    2    0    0 -0.10355614400E+02  0.22375839079E+02 -0.35717029900E+02  0.43400727517E+02  0.00000000000E+00 0. -1.
         11    1    3    3    0    0  0.50839703553E+01 -0.25468280003E+01  0.47516883444E+01  0.74102381757E+01  0.51100000000E-03 0. -1.
        -11    1    3    3    0    0 -0.28299156421E+01 -0.53058291739E+01  0.18893584949E+02  0.19827450624E+02  0.51100000000E-03 0.  1.
        -12    1    3    3    0    0  0.81015596869E+01 -0.14523181905E+02  0.12071756606E+02  0.20549583684E+02  0.00000000000E+00 0.  1.
</event>
<event>
 7    1  0.3851772E-009  0.4778727E+02  0.7816164E-02  0.1312668E+00
        -11   -1    0    0    0    0  0.00000000000E+00  0.00000000000E+00  0.45593999997E+02  0.45594000000E+02  0.51100000000E-03 0. -1.
         11   -1    0    0    0    0 -0.00000000000E+00 -0.00000000000E+00 -0.45593999997E+02  0.45594000000E+02  0.51100000000E-03 0.  1.
    9900012    2    1    2    0    0 -0.13105013859E+02 -0.41362137800E+02 -0.10272227986E+01  0.47787273989E+02  0.20000013425E+02 0.  0.
         12    1    1    2    0    0  0.13105013859E+02  0.41362137800E+02  0.10272227986E+01  0.43400726011E+02  0.00000000000E+00 0. -1.
         11    1    3    3    0    0  0.23501487196E+01 -0.22968710555E+01 -0.30508492035E+01  0.44840268479E+01  0.51100000000E-03 0. -1.
        -11    1    3    3    0    0 -0.12762002680E+02 -0.34534460371E+02 -0.16895730930E+01  0.36855831601E+02  0.51100000000E-03 0.  1.
        -12    1    3    3    0    0 -0.26931598992E+01 -0.45308063734E+01  0.37131994979E+01  0.64474155401E+01  0.00000000000E+00 0.  1.
</event>
<event>
 7    1  0.3851772E-009  0.4778728E+02  0.7816164E-02  0.1312668E+00
        -11   -1    0    0    0    0  0.00000000000E+00  0.00000000000E+00  0.45593999997E+02  0.45594000000E+02  0.51100000000E-03 0. -1.
         11   -1    0    0    0    0 -0.00000000000E+00 -0.00000000000E+00 -0.45593999997E+02  0.45594000000E+02  0.51100000000E-03 0.  1.
    9900012    2    1    2    0    0 -0.32247635129E+02  0.85525604383E+01 -0.27759073872E+02  0.47787280609E+02  0.20000043608E+02 0.  0.
         12    1    1    2    0    0  0.32247635129E+02 -0.85525604383E+01  0.27759073872E+02  0.43400719391E+02  0.00000000000E+00 0. -1.
         11    1    3    3    0    0 -0.59977251119E+01  0.21922743866E+01 -0.80380682125E+01  0.10265929785E+02  0.51100000000E-03 0. -1.
        -11    1    3    3    0    0 -0.17188915821E+02 -0.14652662871E+01 -0.18796776876E+02  0.25513225072E+02  0.51100000000E-03 0.  1.
        -12    1    3    3    0    0 -0.90609941959E+01  0.78255523388E+01 -0.92422878321E+00  0.12008125752E+02  0.00000000000E+00 0.  1.
</event>
<event>
 7    1  0.3851772E-009  0.4778727E+02  0.7816164E-02  0.1312668E+00
        -11   -1    0    0    0    0  0.00000000000E+00  0.00000000000E+00  0.45593999997E+02  0.45594000000E+02  0.51100000000E-03 0.  1.
         11   -1    0    0    0    0 -0.00000000000E+00 -0.00000000000E+00 -0.45593999997E+02  0.45594000000E+02  0.51100000000E-03 0. -1.
    9900012    2    1    2    0    0  0.11241975238E+02  0.15815274237E+02  0.38821625236E+02  0.47787268527E+02  0.19999988522E+02 0.  0.
         12    1    1    2    0    0 -0.11241975238E+02 -0.15815274237E+02 -0.38821625236E+02  0.43400731473E+02  0.00000000000E+00 0. -1.
         11    1    3    3    0    0  0.28092033893E+01 -0.34701607968E+01  0.40209818360E+01  0.60084885641E+01  0.51100000000E-03 0. -1.
        -11    1    3    3    0    0 -0.16330048805E+00  0.86113124695E+01  0.19009804911E+02  0.20869931781E+02  0.51100000000E-03 0.  1.
        -12    1    3    3    0    0  0.85960723369E+01  0.10674122565E+02  0.15790838488E+02  0.20908848182E+02  0.00000000000E+00 0.  1.
</event>
<event>
 7    1  0.3851772E-009  0.4778727E+02  0.7816164E-02  0.1312668E+00
        -11   -1    0    0    0    0  0.00000000000E+00  0.00000000000E+00  0.45593999997E+02  0.45594000000E+02  0.51100000000E-03 0.  1.
         11   -1    0    0    0    0 -0.00000000000E+00 -0.00000000000E+00 -0.45593999997E+02  0.45594000000E+02  0.51100000000E-03 0. -1.
    9900012    2    1    2    0    0  0.13217994395E+02 -0.26138308008E+01  0.41256219475E+02  0.47787272672E+02  0.20000007419E+02 0.  0.
         12    1    1    2    0    0 -0.13217994395E+02  0.26138308008E+01 -0.41256219475E+02  0.43400727328E+02  0.00000000000E+00 0. -1.
         11    1    3    3    0    0  0.12219578886E+02 -0.65204339819E+01  0.13219522259E+02  0.19146538499E+02  0.51100000000E-03 0. -1.
        -11    1    3    3    0    0  0.24745546681E+01  0.19449037995E+01  0.19707920606E+02  0.19957660345E+02  0.51100000000E-03 0.  1.
         12    1    3    3    0    0 -0.14761391589E+01  0.19616993817E+01  0.83287766096E+01  0.86830738275E+01  0.00000000000E+00 0. -1.
</event>
<event>
 7    1  0.3851772E-009  0.4778728E+02  0.7816164E-02  0.1312668E+00
        -11   -1    0    0    0    0  0.00000000000E+00  0.00000000000E+00  0.45593999997E+02  0.45594000000E+02  0.51100000000E-03 0.  1.
         11   -1    0    0    0    0 -0.00000000000E+00 -0.00000000000E+00 -0.45593999997E+02  0.45594000000E+02  0.51100000000E-03 0. -1.
    9900012    2    1    2    0    0 -0.10477661002E+02 -0.13530096783E+02  0.39884557162E+02  0.47787276515E+02  0.20000024943E+02 0.  0.
         12    1    1    2    0    0  0.10477661002E+02  0.13530096783E+02 -0.39884557162E+02  0.43400723485E+02  0.00000000000E+00 0. -1.
         11    1    3    3    0    0 -0.15364330393E+01  0.14389945558E-01  0.40850032458E+00  0.15898761999E+01  0.51100000000E-03 0. -1.
        -11    1    3    3    0    0 -0.11404000813E+02 -0.78229459448E+01  0.36989870543E+02  0.39490508238E+02  0.51100000000E-03 0.  1.
        -12    1    3    3    0    0  0.24627728506E+01 -0.57215407836E+01  0.24861862938E+01  0.67068920775E+01  0.00000000000E+00 0.  1.
</event>
<event>
 7    1  0.3851772E-009  0.4778727E+02  0.7816164E-02  0.1312668E+00
        -11   -1    0    0    0    0  0.00000000000E+00  0.00000000000E+00  0.45593999997E+02  0.45594000000E+02  0.51100000000E-03 0. -1.
         11   -1    0    0    0    0 -0.00000000000E+00 -0.00000000000E+00 -0.45593999997E+02  0.45594000000E+02  0.51100000000E-03 0.  1.
    9900012    2    1    2    0    0  0.24486073284E+02  0.35590254301E+02 -0.41700502429E+01  0.47787270685E+02  0.19999998359E+02 0.  0.
         12    1    1    2    0    0 -0.24486073284E+02 -0.35590254301E+02  0.41700502429E+01  0.43400729315E+02  0.00000000000E+00 0. -1.
         11    1    3    3    0    0  0.92705455749E+01  0.16523467078E+02  0.51882661295E+01  0.19643983435E+02  0.51100000000E-03 0. -1.
        -11    1    3    3    0    0  0.57854991052E+01  0.26015805981E+01 -0.62698668334E+01  0.89191620612E+01  0.51100000000E-03 0.  1.
         12    1    3    3    0    0  0.94300286035E+01  0.16465206626E+02 -0.30884495390E+01  0.19224125188E+02  0.00000000000E+00 0. -1.
</event>
<event>
 7    1  0.3851772E-009  0.4778727E+02  0.7816164E-02  0.1312668E+00
        -11   -1    0    0    0    0  0.00000000000E+00  0.00000000000E+00  0.45593999997E+02  0.45594000000E+02  0.51100000000E-03 0.  1.
         11   -1    0    0    0    0 -0.00000000000E+00 -0.00000000000E+00 -0.45593999997E+02  0.45594000000E+02  0.51100000000E-03 0. -1.
    9900012    2    1    2    0    0  0.13014217977E+02 -0.25835890332E+02  0.32353672219E+02  0.47787271840E+02  0.20000003626E+02 0.  0.
         12    1    1    2    0    0 -0.13014217977E+02  0.25835890332E+02 -0.32353672219E+02  0.43400728160E+02  0.00000000000E+00 0. -1.
         11    1    3    3    0    0 -0.25549529630E+01 -0.17135595369E+01  0.25356352477E+00  0.30868050881E+01  0.51100000000E-03 0. -1.
        -11    1    3    3    0    0  0.11943244561E+02 -0.76183330741E+01  0.15831104988E+02  0.21243916185E+02  0.51100000000E-03 0.  1.
        -12    1    3    3    0    0  0.36259263785E+01 -0.16503997722E+02  0.16269003706E+02  0.23456550567E+02  0.00000000000E+00 0.  1.
</event>
<event>
 7    1  0.3851772E-009  0.4778727E+02  0.7816164E-02  0.1312668E+00
        -11   -1    0    0    0    0  0.00000000000E+00  0.00000000000E+00  0.45593999997E+02  0.45594000000E+02  0.51100000000E-03 0. -1.
         11   -1    0    0    0    0 -0.00000000000E+00 -0.00000000000E+00 -0.45593999997E+02  0.45594000000E+02  0.51100000000E-03 0.  1.
    9900012    2    1    2    0    0 -0.20323385796E+02 -0.20070810760E+01 -0.38295626922E+02  0.47787269292E+02  0.19999992010E+02 0.  0.
         12    1    1    2    0    0  0.20323385796E+02  0.20070810760E+01  0.38295626922E+02  0.43400730708E+02  0.00000000000E+00 0. -1.
         11    1    3    3    0    0 -0.76302133640E+01 -0.18622662247E+00 -0.19817788871E+01  0.78855744340E+01  0.51100000000E-03 0. -1.
        -11    1    3    3    0    0 -0.13387036537E+02 -0.15014294239E+01 -0.36664731452E+02  0.39061100474E+02  0.51100000000E-03 0.  1.
         12    1    3    3    0    0  0.69386410500E+00 -0.31942502967E+00  0.35088341706E+00  0.84059438385E+00  0.00000000000E+00 0. -1.
</event>
<event>
 7    1  0.3851772E-009  0.4778727E+02  0.7816164E-02  0.1312668E+00
        -11   -1    0    0    0    0  0.00000000000E+00  0.00000000000E+00  0.45593999997E+02  0.45594000000E+02  0.51100000000E-03 0.  1.
         11   -1    0    0    0    0 -0.00000000000E+00 -0.00000000000E+00 -0.45593999997E+02  0.45594000000E+02  0.51100000000E-03 0. -1.
    9900012    2    1    2    0    0  0.67403432016E+01  0.12430250294E+02  0.41032669077E+02  0.47787270969E+02  0.19999999656E+02 0.  0.
         12    1    1    2    0    0 -0.67403432016E+01 -0.12430250294E+02 -0.41032669077E+02  0.43400729031E+02  0.00000000000E+00 0. -1.
         11    1    3    3    0    0  0.95153114069E+00  0.54987962721E+01  0.34506876389E+00  0.55911756068E+01  0.51100000000E-03 0. -1.
        -11    1    3    3    0    0  0.70790666376E+01  0.45694821461E+01  0.28773935423E+02  0.29982206582E+02  0.51100000000E-03 0.  1.
         12    1    3    3    0    0 -0.12902545767E+01  0.23619718757E+01  0.11913664890E+02  0.12213888780E+02  0.00000000000E+00 0. -1.
</event>
<event>
 7    1  0.3851772E-009  0.4778728E+02  0.7816164E-02  0.1312668E+00
        -11   -1    0    0    0    0  0.00000000000E+00  0.00000000000E+00  0.45593999997E+02  0.45594000000E+02  0.51100000000E-03 0.  1.
         11   -1    0    0    0    0 -0.00000000000E+00 -0.00000000000E+00 -0.45593999997E+02  0.45594000000E+02  0.51100000000E-03 0. -1.
    9900012    2    1    2    0    0 -0.17580796135E+02 -0.75749294408E+01  0.38950723671E+02  0.47787276236E+02  0.20000023671E+02 0.  0.
         12    1    1    2    0    0  0.17580796135E+02  0.75749294408E+01 -0.38950723671E+02  0.43400723764E+02  0.00000000000E+00 0. -1.
         11    1    3    3    0    0 -0.30262171638E+01 -0.77089210436E+01  0.25778284739E+02  0.27075919529E+02  0.51100000000E-03 0. -1.
        -11    1    3    3    0    0 -0.14153450571E+02  0.17230470498E+01  0.11100512612E+02  0.18069599739E+02  0.51100000000E-03 0.  1.
        -12    1    3    3    0    0 -0.40112839937E+00 -0.15890554470E+01  0.20719263198E+01  0.26417569686E+01  0.00000000000E+00 0.  1.
</event>
<event>
 7    1  0.3851772E-009  0.4778727E+02  0.7816164E-02  0.1312668E+00
        -11   -1    0    0    0    0  0.00000000000E+00  0.00000000000E+00  0.45593999997E+02  0.45594000000E+02  0.51100000000E-03 0.  1.
         11   -1    0    0    0    0 -0.00000000000E+00 -0.00000000000E+00 -0.45593999997E+02  0.45594000000E+02  0.51100000000E-03 0. -1.
    9900012    2    1    2    0    0  0.63772962262E+01  0.97136259125E+01  0.41816252471E+02  0.47787269519E+02  0.19999993045E+02 0.  0.
         12    1    1    2    0    0 -0.63772962262E+01 -0.97136259125E+01 -0.41816252471E+02  0.43400730481E+02  0.00000000000E+00 0. -1.
         11    1    3    3    0    0  0.13877842016E+01  0.63663861937E+00  0.27319171568E+02  0.27361805297E+02  0.51100000000E-03 0. -1.
        -11    1    3    3    0    0 -0.69957964964E+00  0.86452615286E+01  0.91098930752E+01  0.12578557576E+02  0.51100000000E-03 0.  1.
         12    1    3    3    0    0  0.56890916741E+01  0.43172576457E+00  0.53871878287E+01  0.78469066462E+01  0.00000000000E+00 0. -1.
</event>
<event>
 7    1  0.3851772E-009  0.4778727E+02  0.7816164E-02  0.1312668E+00
        -11   -1    0    0    0    0  0.00000000000E+00  0.00000000000E+00  0.45593999997E+02  0.45594000000E+02  0.51100000000E-03 0. -1.
         11   -1    0    0    0    0 -0.00000000000E+00 -0.00000000000E+00 -0.45593999997E+02  0.45594000000E+02  0.51100000000E-03 0.  1.
    9900012    2    1    2    0    0  0.21775954489E+02 -0.25551095926E+02 -0.27505861051E+02  0.47787273174E+02  0.20000009708E+02 0.  0.
         12    1    1    2    0    0 -0.21775954489E+02  0.25551095926E+02  0.27505861051E+02  0.43400726826E+02  0.00000000000E+00 0. -1.
         11    1    3    3    0    0  0.17222906382E+01 -0.26495431454E+01 -0.24779883401E+00  0.31698215162E+01  0.51100000000E-03 0. -1.
        -11    1    3    3    0    0  0.10920770754E+02 -0.78312919199E+00 -0.54026650633E+01  0.12209230739E+02  0.51100000000E-03 0.  1.
        -12    1    3    3    0    0  0.91328930969E+01 -0.22118423588E+02 -0.21855397153E+02  0.32408220918E+02  0.00000000000E+00 0.  1.
</event>
<event>
 7    1  0.3851772E-009  0.4778728E+02  0.7816164E-02  0.1312668E+00
        -11   -1    0    0    0    0  0.00000000000E+00  0.00000000000E+00  0.45593999997E+02  0.45594000000E+02  0.51100000000E-03 0. -1.
         11   -1    0    0    0    0 -0.00000000000E+00 -0.00000000000E+00 -0.45593999997E+02  0.45594000000E+02  0.51100000000E-03 0.  1.
    9900012    2    1    2    0    0  0.14395102491E+02 -0.40867762330E+02  0.24959419322E+01  0.47787277659E+02  0.20000030157E+02 0.  0.
         12    1    1    2    0    0 -0.14395102491E+02  0.40867762330E+02 -0.24959419322E+01  0.43400722341E+02  0.00000000000E+00 0. -1.
         11    1    3    3    0    0  0.44686013654E+01 -0.20384101140E+02  0.92626424781E+01  0.22831480972E+02  0.51100000000E-03 0. -1.
        -11    1    3    3    0    0  0.30334333033E+01 -0.77927859274E+01 -0.63632767917E+01  0.10508116953E+02  0.51100000000E-03 0.  1.
        -12    1    3    3    0    0  0.68930678221E+01 -0.12690875263E+02 -0.40342375420E+00  0.14447679733E+02  0.00000000000E+00 0.  1.
</event>
<event>
 7    1  0.3851772E-009  0.4778727E+02  0.7816164E-02  0.1312668E+00
        -11   -1    0    0    0    0  0.00000000000E+00  0.00000000000E+00  0.45593999997E+02  0.45594000000E+02  0.51100000000E-03 0.  1.
         11   -1    0    0    0    0 -0.00000000000E+00 -0.00000000000E+00 -0.45593999997E+02  0.45594000000E+02  0.51100000000E-03 0. -1.
    9900012    2    1    2    0    0  0.39272320418E+02  0.16636438454E+02  0.80335019628E+01  0.47787269715E+02  0.19999993938E+02 0.  0.
         12    1    1    2    0    0 -0.39272320418E+02 -0.16636438454E+02 -0.80335019628E+01  0.43400730285E+02  0.00000000000E+00 0. -1.
         11    1    3    3    0    0  0.93003990883E+00 -0.12980286743E+01  0.35242576297E+01  0.38691400560E+01  0.51100000000E-03 0. -1.
        -11    1    3    3    0    0  0.26585107000E+02  0.15542434229E+02 -0.78240150514E+00  0.30804988692E+02  0.51100000000E-03 0.  1.
         12    1    3    3    0    0  0.11757173510E+02  0.23920328995E+01  0.52916458382E+01  0.13113140967E+02  0.00000000000E+00 0. -1.
</event>
<event>
 7    1  0.3851772E-009  0.4778728E+02  0.7816164E-02  0.1312668E+00
        -11   -1    0    0    0    0  0.00000000000E+00  0.00000000000E+00  0.45593999997E+02  0.45594000000E+02  0.51100000000E-03 0.  1.
         11   -1    0    0    0    0 -0.00000000000E+00 -0.00000000000E+00 -0.45593999997E+02  0.45594000000E+02  0.51100000000E-03 0. -1.
    9900012    2    1    2    0    0 -0.88152899518E+01 -0.29468591316E+01  0.42393743053E+02  0.47787276899E+02  0.20000026691E+02 0.  0.
         12    1    1    2    0    0  0.88152899518E+01  0.29468591316E+01 -0.42393743053E+02  0.43400723101E+02  0.00000000000E+00 0. -1.
         11    1    3    3    0    0  0.23078344352E+01  0.15282815176E+01  0.37699056971E+00  0.27935401068E+01  0.51100000000E-03 0. -1.
        -11    1    3    3    0    0 -0.89737913194E+01 -0.18503092655E+01  0.40023642823E+02  0.41059037496E+02  0.51100000000E-03 0.  1.
        -12    1    3    3    0    0 -0.21493330677E+01 -0.26248313838E+01  0.19931096606E+01  0.39346992958E+01  0.00000000000E+00 0.  1.
</event>
<event>
 7    1  0.3851772E-009  0.4778727E+02  0.7816164E-02  0.1312668E+00
        -11   -1    0    0    0    0  0.00000000000E+00  0.00000000000E+00  0.45593999997E+02  0.45594000000E+02  0.51100000000E-03 0. -1.
         11   -1    0    0    0    0 -0.00000000000E+00 -0.00000000000E+00 -0.45593999997E+02  0.45594000000E+02  0.51100000000E-03 0.  1.
    9900012    2    1    2    0    0 -0.52556201054E+01  0.20998609180E+02 -0.37617285691E+02  0.47787270594E+02  0.19999997947E+02 0.  0.
         12    1    1    2    0    0  0.52556201054E+01 -0.20998609180E+02  0.37617285691E+02  0.43400729406E+02  0.00000000000E+00 0. -1.
         11    1    3    3    0    0 -0.14006905833E+01 -0.11554810920E+01 -0.31722847848E+01  0.36551965311E+01  0.51100000000E-03 0. -1.
        -11    1    3    3    0    0 -0.13214568163E+01  0.24176657289E+02 -0.31665981350E+02  0.39862154745E+02  0.51100000000E-03 0.  1.
        -12    1    3    3    0    0 -0.25334727059E+01 -0.20225670171E+01 -0.27790195563E+01  0.42699193182E+01  0.00000000000E+00 0.  1.
</event>
<event>
 7    1  0.3851772E-009  0.4778727E+02  0.7816164E-02  0.1312668E+00
        -11   -1    0    0    0    0  0.00000000000E+00  0.00000000000E+00  0.45593999997E+02  0.45594000000E+02  0.51100000000E-03 0.  1.
         11   -1    0    0    0    0 -0.00000000000E+00 -0.00000000000E+00 -0.45593999997E+02  0.45594000000E+02  0.51100000000E-03 0. -1.
    9900012    2    1    2    0    0  0.20727892271E+02 -0.48474849519E+01  0.37821685826E+02  0.47787267897E+02  0.19999985648E+02 0.  0.
         12    1    1    2    0    0 -0.20727892271E+02  0.48474849519E+01 -0.37821685826E+02  0.43400732103E+02  0.00000000000E+00 0. -1.
         11    1    3    3    0    0  0.12055893665E+00  0.71447028049E-01 -0.85095844084E+00  0.86242081618E+00  0.51100000000E-03 0. -1.
        -11    1    3    3    0    0 -0.25852058010E+01 -0.14583893050E+00  0.19984515554E+01  0.32708358118E+01  0.51100000000E-03 0.  1.
        -12    1    3    3    0    0  0.23192539135E+02 -0.47730930495E+01  0.36674192712E+02  0.43654011269E+02  0.00000000000E+00 0.  1.
</event>
<event>
 7    1  0.3851772E-009  0.4778728E+02  0.7816164E-02  0.1312668E+00
        -11   -1    0    0    0    0  0.00000000000E+00  0.00000000000E+00  0.45593999997E+02  0.45594000000E+02  0.51100000000E-03 0.  1.
         11   -1    0    0    0    0 -0.00000000000E+00 -0.00000000000E+00 -0.45593999997E+02  0.45594000000E+02  0.51100000000E-03 0. -1.
    9900012    2    1    2    0    0 -0.14617521355E+02 -0.31529147434E+02  0.25997381099E+02  0.47787275438E+02  0.20000020033E+02 0.  0.
         12    1    1    2    0    0  0.14617521355E+02  0.31529147434E+02 -0.25997381099E+02  0.43400724562E+02  0.00000000000E+00 0. -1.
         11    1    3    3    0    0  0.10576073899E+01 -0.12640834079E+02  0.12605780905E+02  0.17883370266E+02  0.51100000000E-03 0. -1.
        -11    1    3    3    0    0 -0.14368476965E+02 -0.20131909632E+02  0.13334764456E+02  0.28099161181E+02  0.51100000000E-03 0.  1.
         12    1    3    3    0    0 -0.13066517799E+01  0.12435962760E+01  0.56835737667E-01  0.18047439909E+01  0.00000000000E+00 0. -1.
</event>
<event>
 7    1  0.3851772E-009  0.4778727E+02  0.7816164E-02  0.1312668E+00
        -11   -1    0    0    0    0  0.00000000000E+00  0.00000000000E+00  0.45593999997E+02  0.45594000000E+02  0.51100000000E-03 0.  1.
         11   -1    0    0    0    0 -0.00000000000E+00 -0.00000000000E+00 -0.45593999997E+02  0.45594000000E+02  0.51100000000E-03 0. -1.
    9900012    2    1    2    0    0  0.15954361488E+02 -0.35374912795E+02  0.19434430480E+02  0.47787271966E+02  0.20000004204E+02 0.  0.
         12    1    1    2    0    0 -0.15954361488E+02  0.35374912795E+02 -0.19434430480E+02  0.43400728034E+02  0.00000000000E+00 0. -1.
         11    1    3    3    0    0  0.11546509838E+02 -0.92244909789E+01  0.70306236672E+01  0.16365903356E+02  0.51100000000E-03 0. -1.
        -11    1    3    3    0    0  0.67973628740E+01 -0.82904128765E+01  0.32025353054E+01  0.11188892722E+02  0.51100000000E-03 0.  1.
         12    1    3    3    0    0 -0.23895112233E+01 -0.17860008940E+02  0.92012715076E+01  0.20232475888E+02  0.00000000000E+00 0. -1.
</event>
<event>
 7    1  0.3851772E-009  0.4778727E+02  0.7816164E-02  0.1312668E+00
        -11   -1    0    0    0    0  0.00000000000E+00  0.00000000000E+00  0.45593999997E+02  0.45594000000E+02  0.51100000000E-03 0.  1.
         11   -1    0    0    0    0 -0.00000000000E+00 -0.00000000000E+00 -0.45593999997E+02  0.45594000000E+02  0.51100000000E-03 0. -1.
    9900012    2    1    2    0    0 -0.70912943627E+01 -0.26822013153E+02  0.33375385806E+02  0.47787271631E+02  0.20000002673E+02 0.  0.
         12    1    1    2    0    0  0.70912943627E+01  0.26822013153E+02 -0.33375385806E+02  0.43400728369E+02  0.00000000000E+00 0. -1.
         11    1    3    3    0    0 -0.73909789733E+01 -0.42560540951E+01  0.44792154318E+01  0.96334800457E+01  0.51100000000E-03 0. -1.
        -11    1    3    3    0    0  0.49355906222E+01 -0.16442975091E+02  0.21223956597E+02  0.27298128480E+02  0.51100000000E-03 0.  1.
        -12    1    3    3    0    0 -0.46359060116E+01 -0.61229839667E+01  0.76722137770E+01  0.10855663105E+02  0.00000000000E+00 0.  1.
</event>
<event>
 7    1  0.3851772E-009  0.4778727E+02  0.7816164E-02  0.1312668E+00
        -11   -1    0    0    0    0  0.00000000000E+00  0.00000000000E+00  0.45593999997E+02  0.45594000000E+02  0.51100000000E-03 0. -1.
         11   -1    0    0    0    0 -0.00000000000E+00 -0.00000000000E+00 -0.45593999997E+02  0.45594000000E+02  0.51100000000E-03 0.  1.
    9900012    2    1    2    0    0 -0.13665377377E+02 -0.24920555573E+02 -0.32800101533E+02  0.47787270864E+02  0.19999999178E+02 0.  0.
         12    1    1    2    0    0  0.13665377377E+02  0.24920555573E+02  0.32800101533E+02  0.43400729136E+02  0.00000000000E+00 0. -1.
         11    1    3    3    0    0 -0.99276161248E+01 -0.10487953247E+02 -0.25642305241E+02  0.29429280378E+02  0.51100000000E-03 0.  1.
        -11    1    3    3    0    0  0.18703512185E+01 -0.35556137679E+01  0.29702963217E+00  0.40285021795E+01  0.51100000000E-03 0. -1.
        -12    1    3    3    0    0 -0.56081124709E+01 -0.10876988558E+02 -0.74548259250E+01  0.14329488307E+02  0.00000000000E+00 0.  1.
</event>
<event>
 7    1  0.3851772E-009  0.4778727E+02  0.7816164E-02  0.1312668E+00
        -11   -1    0    0    0    0  0.00000000000E+00  0.00000000000E+00  0.45593999997E+02  0.45594000000E+02  0.51100000000E-03 0.  1.
         11   -1    0    0    0    0 -0.00000000000E+00 -0.00000000000E+00 -0.45593999997E+02  0.45594000000E+02  0.51100000000E-03 0. -1.
    9900012    2    1    2    0    0  0.12292295569E+02 -0.20201019826E+02  0.36392879181E+02  0.47787269736E+02  0.19999994036E+02 0.  0.
         12    1    1    2    0    0 -0.12292295569E+02  0.20201019826E+02 -0.36392879181E+02  0.43400730264E+02  0.00000000000E+00 0. -1.
         11    1    3    3    0    0 -0.25150953682E+01 -0.10737736021E+02  0.76848970485E+01  0.13441812470E+02  0.51100000000E-03 0. -1.
        -11    1    3    3    0    0  0.62872881877E+01 -0.76435426798E+01  0.17994376169E+02  0.20536584707E+02  0.51100000000E-03 0.  1.
         12    1    3    3    0    0  0.85201027500E+01 -0.18197411249E+01  0.10713605963E+02  0.13808872559E+02  0.00000000000E+00 0. -1.
</event>
<event>
 7    1  0.3851772E-009  0.4778727E+02  0.7816164E-02  0.1312668E+00
        -11   -1    0    0    0    0  0.00000000000E+00  0.00000000000E+00  0.45593999997E+02  0.45594000000E+02  0.51100000000E-03 0.  1.
         11   -1    0    0    0    0 -0.00000000000E+00 -0.00000000000E+00 -0.45593999997E+02  0.45594000000E+02  0.51100000000E-03 0. -1.
    9900012    2    1    2    0    0 -0.12475093321E+02  0.29097806566E+02  0.29686919733E+02  0.47787268398E+02  0.19999987936E+02 0.  0.
         12    1    1    2    0    0  0.12475093321E+02 -0.29097806566E+02 -0.29686919733E+02  0.43400731602E+02  0.00000000000E+00 0. -1.
         11    1    3    3    0    0 -0.26360063884E+01  0.64437226516E+01  0.31724611535E+01  0.76507908952E+01  0.51100000000E-03 0. -1.
        -11    1    3    3    0    0 -0.12537979712E+02  0.23974729315E+02  0.24647486469E+02  0.36599005048E+02  0.51100000000E-03 0.  1.
        -12    1    3    3    0    0  0.26988927801E+01 -0.13206454004E+01  0.18669721105E+01  0.35374724555E+01  0.00000000000E+00 0.  1.
</event>
<event>
 7    1  0.3851772E-009  0.4778728E+02  0.7816164E-02  0.1312668E+00
        -11   -1    0    0    0    0  0.00000000000E+00  0.00000000000E+00  0.45593999997E+02  0.45594000000E+02  0.51100000000E-03 0.  1.
         11   -1    0    0    0    0 -0.00000000000E+00 -0.00000000000E+00 -0.45593999997E+02  0.45594000000E+02  0.51100000000E-03 0. -1.
    9900012    2    1    2    0    0 -0.35619000727E+02  0.80611078871E+01  0.23450542774E+02  0.47787278467E+02  0.20000033843E+02 0.  0.
         12    1    1    2    0    0  0.35619000727E+02 -0.80611078871E+01 -0.23450542774E+02  0.43400721533E+02  0.00000000000E+00 0. -1.
         11    1    3    3    0    0 -0.14429669245E+02  0.34922541218E+01  0.10898260751E+01  0.14886198793E+02  0.51100000000E-03 0. -1.
        -11    1    3    3    0    0 -0.21287862670E+02  0.43165430597E+01  0.23340865954E+02  0.31884191455E+02  0.51100000000E-03 0.  1.
         12    1    3    3    0    0  0.98531186992E-01  0.25231070561E+00 -0.98014925528E+00  0.10168882188E+01  0.00000000000E+00 0. -1.
</event>
<event>
 7    1  0.3851772E-009  0.4778727E+02  0.7816164E-02  0.1312668E+00
        -11   -1    0    0    0    0  0.00000000000E+00  0.00000000000E+00  0.45593999997E+02  0.45594000000E+02  0.51100000000E-03 0.  1.
         11   -1    0    0    0    0 -0.00000000000E+00 -0.00000000000E+00 -0.45593999997E+02  0.45594000000E+02  0.51100000000E-03 0. -1.
    9900012    2    1    2    0    0  0.34336202049E+02  0.14582228142E+02  0.22181234971E+02  0.47787270357E+02  0.19999996866E+02 0.  0.
         12    1    1    2    0    0 -0.34336202049E+02 -0.14582228142E+02 -0.22181234971E+02  0.43400729643E+02  0.00000000000E+00 0. -1.
         11    1    3    3    0    0  0.26215306722E+01  0.37523097227E+00 -0.15102673447E+01  0.30486274062E+01  0.51100000000E-03 0. -1.
        -11    1    3    3    0    0  0.29734099430E+02  0.15680374867E+02  0.25048654657E+02  0.41921664152E+02  0.51100000000E-03 0.  1.
        -12    1    3    3    0    0  0.19805719466E+01 -0.14733776974E+01 -0.13571523418E+01  0.28169787989E+01  0.00000000000E+00 0.  1.
</event>
<event>
 7    1  0.3851772E-009  0.4778728E+02  0.7816164E-02  0.1312668E+00
        -11   -1    0    0    0    0  0.00000000000E+00  0.00000000000E+00  0.45593999997E+02  0.45594000000E+02  0.51100000000E-03 0.  1.
         11   -1    0    0    0    0 -0.00000000000E+00 -0.00000000000E+00 -0.45593999997E+02  0.45594000000E+02  0.51100000000E-03 0. -1.
    9900012    2    1    2    0    0  0.17123231368E+02  0.29736337734E+02  0.26573807981E+02  0.47787284512E+02  0.20000061402E+02 0.  0.
         12    1    1    2    0    0 -0.17123231368E+02 -0.29736337734E+02 -0.26573807981E+02  0.43400715488E+02  0.00000000000E+00 0. -1.
         11    1    3    3    0    0  0.18393787172E+02  0.18678639202E+02  0.22453257175E+02  0.34516253084E+02  0.51100000000E-03 0. -1.
        -11    1    3    3    0    0  0.11918331962E+01  0.96456158107E+01  0.37097533283E+01  0.10402915012E+02  0.51100000000E-03 0.  1.
         12    1    3    3    0    0 -0.24623890005E+01  0.14120827216E+01  0.41079747792E+00  0.28681164150E+01  0.00000000000E+00 0. -1.
</event>
<event>
 7    1  0.3851772E-009  0.4778727E+02  0.7816164E-02  0.1312668E+00
        -11   -1    0    0    0    0  0.00000000000E+00  0.00000000000E+00  0.45593999997E+02  0.45594000000E+02  0.51100000000E-03 0.  1.
         11   -1    0    0    0    0 -0.00000000000E+00 -0.00000000000E+00 -0.45593999997E+02  0.45594000000E+02  0.51100000000E-03 0. -1.
    9900012    2    1    2    0    0  0.24098026721E+02  0.33917533379E+01  0.35936119060E+02  0.47787268029E+02  0.19999986250E+02 0.  0.
         12    1    1    2    0    0 -0.24098026721E+02 -0.33917533379E+01 -0.35936119060E+02  0.43400731971E+02  0.00000000000E+00 0. -1.
         11    1    3    3    0    0 -0.21850060609E+01  0.60011253137E-01  0.32216425738E+01  0.38931778756E+01  0.51100000000E-03 0. -1.
        -11    1    3    3    0    0  0.18906840283E+02 -0.26508395052E+01  0.17164818878E+02  0.25673460361E+02  0.51100000000E-03 0.  1.
        -12    1    3    3    0    0  0.73761924993E+01  0.59825815900E+01  0.15549657609E+02  0.18220629792E+02  0.00000000000E+00 0.  1.
</event>
<event>
 7    1  0.3851772E-009  0.4778727E+02  0.7816164E-02  0.1312668E+00
        -11   -1    0    0    0    0  0.00000000000E+00  0.00000000000E+00  0.45593999997E+02  0.45594000000E+02  0.51100000000E-03 0.  1.
         11   -1    0    0    0    0 -0.00000000000E+00 -0.00000000000E+00 -0.45593999997E+02  0.45594000000E+02  0.51100000000E-03 0. -1.
    9900012    2    1    2    0    0 -0.32400111437E+02 -0.24272068745E+02  0.15643611731E+02  0.47787272698E+02  0.20000007541E+02 0.  0.
         12    1    1    2    0    0  0.32400111437E+02  0.24272068745E+02 -0.15643611731E+02  0.43400727302E+02  0.00000000000E+00 0. -1.
         11    1    3    3    0    0 -0.14772205814E+01  0.22211653281E+01  0.31961528398E+01  0.41630696965E+01  0.51100000000E-03 0. -1.
        -11    1    3    3    0    0 -0.29386484183E+01 -0.61987143320E+01 -0.66414064923E-01  0.68603298015E+01  0.51100000000E-03 0.  1.
         12    1    3    3    0    0 -0.27984242438E+02 -0.20294519741E+02  0.12513872956E+02  0.36763873200E+02  0.00000000000E+00 0. -1.
</event>
<event>
 7    1  0.3851772E-009  0.4778727E+02  0.7816164E-02  0.1312668E+00
        -11   -1    0    0    0    0  0.00000000000E+00  0.00000000000E+00  0.45593999997E+02  0.45594000000E+02  0.51100000000E-03 0.  1.
         11   -1    0    0    0    0 -0.00000000000E+00 -0.00000000000E+00 -0.45593999997E+02  0.45594000000E+02  0.51100000000E-03 0. -1.
    9900012    2    1    2    0    0 -0.12909069340E+02  0.37399353237E+02  0.17840050679E+02  0.47787273025E+02  0.20000009030E+02 0.  0.
         12    1    1    2    0    0  0.12909069340E+02 -0.37399353237E+02 -0.17840050679E+02  0.43400726975E+02  0.00000000000E+00 0. -1.
         11    1    3    3    0    0 -0.14197473131E+02  0.29119060109E+02  0.10308928385E+02  0.33996498491E+02  0.51100000000E-03 0. -1.
        -11    1    3    3    0    0 -0.43638412006E+00  0.55213226281E+01  0.87169661607E+01  0.10327678053E+02  0.51100000000E-03 0.  1.
         12    1    3    3    0    0  0.17247879118E+01  0.27589704999E+01 -0.11858438666E+01  0.34630964809E+01  0.00000000000E+00 0. -1.
</event>
<event>
 7    1  0.3851772E-009  0.4778727E+02  0.7816164E-02  0.1312668E+00
        -11   -1    0    0    0    0  0.00000000000E+00  0.00000000000E+00  0.45593999997E+02  0.45594000000E+02  0.51100000000E-03 0. -1.
         11   -1    0    0    0    0 -0.00000000000E+00 -0.00000000000E+00 -0.45593999997E+02  0.45594000000E+02  0.51100000000E-03 0.  1.
    9900012    2    1    2    0    0 -0.23198470459E+02 -0.32335038872E+02  0.17317609197E+02  0.47787270066E+02  0.19999995539E+02 0.  0.
         12    1    1    2    0    0  0.23198470459E+02  0.32335038872E+02 -0.17317609197E+02  0.43400729934E+02  0.00000000000E+00 0. -1.
         11    1    3    3    0    0 -0.41723312184E+00  0.20637316510E+01  0.31391604585E+01  0.37798677821E+01  0.51100000000E-03 0. -1.
        -11    1    3    3    0    0 -0.15620072995E+02 -0.21862410052E+02  0.64543004477E+01  0.27633487804E+02  0.51100000000E-03 0.  1.
         12    1    3    3    0    0 -0.71611643425E+01 -0.12536360471E+02  0.77241482904E+01  0.16373914480E+02  0.00000000000E+00 0. -1.
</event>
<event>
 7    1  0.3851772E-009  0.4778727E+02  0.7816164E-02  0.1312668E+00
        -11   -1    0    0    0    0  0.00000000000E+00  0.00000000000E+00  0.45593999997E+02  0.45594000000E+02  0.51100000000E-03 0.  1.
         11   -1    0    0    0    0 -0.00000000000E+00 -0.00000000000E+00 -0.45593999997E+02  0.45594000000E+02  0.51100000000E-03 0. -1.
    9900012    2    1    2    0    0 -0.35115580499E+02  0.74628906203E+01  0.24389033045E+02  0.47787266561E+02  0.19999979556E+02 0.  0.
         12    1    1    2    0    0  0.35115580499E+02 -0.74628906203E+01 -0.24389033045E+02  0.43400733439E+02  0.00000000000E+00 0. -1.
         11    1    3    3    0    0 -0.23674414947E+02  0.10108741062E+02  0.24751371206E+02  0.35711271971E+02  0.51100000000E-03 0. -1.
        -11    1    3    3    0    0 -0.65714189491E+01 -0.28872981712E+01  0.99556805830E-01  0.71784364282E+01  0.51100000000E-03 0.  1.
         12    1    3    3    0    0 -0.48697466029E+01  0.24144772944E+00 -0.46189496693E+00  0.48975581613E+01  0.00000000000E+00 0. -1.
</event>
<event>
 7    1 -0.6707243E-009  0.4778727E+02  0.7816164E-02  0.1312668E+00
        -11   -1    0    0    0    0  0.00000000000E+00  0.00000000000E+00  0.45593999997E+02  0.45594000000E+02  0.51100000000E-03 0.  1.
         11   -1    0    0    0    0 -0.00000000000E+00 -0.00000000000E+00 -0.45593999997E+02  0.45594000000E+02  0.51100000000E-03 0. -1.
    9900012    2    1    2    0    0  0.24829215999E+02  0.16368162785E+02  0.31610383846E+02  0.47787273198E+02  0.20000009819E+02 0.  0.
         12    1    1    2    0    0 -0.24829215999E+02 -0.16368162785E+02 -0.31610383846E+02  0.43400726802E+02  0.00000000000E+00 0. -1.
         11    1    3    3    0    0  0.12621711588E+01  0.82616032474E+00 -0.15099912549E+01  0.21344064204E+01  0.51100000000E-03 0. -1.
        -11    1    3    3    0    0  0.19891103918E+02  0.16153172364E+02  0.21497768316E+02  0.33447496697E+02  0.51100000000E-03 0.  1.
        -12    1    3    3    0    0  0.36759409223E+01 -0.61116990434E+00  0.11622606785E+02  0.12205370080E+02  0.00000000000E+00 0.  1.
</event>
<event>
 7    1  0.3851772E-009  0.4778727E+02  0.7816164E-02  0.1312668E+00
        -11   -1    0    0    0    0  0.00000000000E+00  0.00000000000E+00  0.45593999997E+02  0.45594000000E+02  0.51100000000E-03 0. -1.
         11   -1    0    0    0    0 -0.00000000000E+00 -0.00000000000E+00 -0.45593999997E+02  0.45594000000E+02  0.51100000000E-03 0.  1.
    9900012    2    1    2    0    0  0.24064188247E+02  0.35982808312E+02 -0.31265983783E+01  0.47787271118E+02  0.20000000336E+02 0.  0.
         12    1    1    2    0    0 -0.24064188247E+02 -0.35982808312E+02  0.31265983783E+01  0.43400728882E+02  0.00000000000E+00 0. -1.
         11    1    3    3    0    0  0.17995230174E+02  0.23369139675E+02 -0.92963353590E+01  0.30925181479E+02  0.51100000000E-03 0.  1.
        -11    1    3    3    0    0  0.73013852322E+01  0.12012451790E+02  0.46298703474E+01  0.14800166351E+02  0.51100000000E-03 0. -1.
         12    1    3    3    0    0 -0.12324271585E+01  0.60121684748E+00  0.15398666333E+01  0.20619232883E+01  0.00000000000E+00 0. -1.
</event>
<event>
 7    1  0.3851772E-009  0.4778727E+02  0.7816164E-02  0.1312668E+00
        -11   -1    0    0    0    0  0.00000000000E+00  0.00000000000E+00  0.45593999997E+02  0.45594000000E+02  0.51100000000E-03 0. -1.
         11   -1    0    0    0    0 -0.00000000000E+00 -0.00000000000E+00 -0.45593999997E+02  0.45594000000E+02  0.51100000000E-03 0.  1.
    9900012    2    1    2    0    0  0.27898476986E+02  0.33223913282E+02  0.12123875140E+01  0.47787270567E+02  0.19999997822E+02 0.  0.
         12    1    1    2    0    0 -0.27898476986E+02 -0.33223913282E+02 -0.12123875140E+01  0.43400729433E+02  0.00000000000E+00 0. -1.
         11    1    3    3    0    0  0.53634650979E+01  0.22360345889E+01  0.29550602871E+01  0.65191249490E+01  0.51100000000E-03 0. -1.
        -11    1    3    3    0    0  0.18752638824E+02  0.29414344620E+02  0.29866808884E+01  0.35011218135E+02  0.51100000000E-03 0.  1.
        -12    1    3    3    0    0  0.37823730639E+01  0.15735340723E+01 -0.47293536616E+01  0.62569274830E+01  0.00000000000E+00 0.  1.
</event>
<event>
 7    1  0.3851772E-009  0.4778727E+02  0.7816164E-02  0.1312668E+00
        -11   -1    0    0    0    0  0.00000000000E+00  0.00000000000E+00  0.45593999997E+02  0.45594000000E+02  0.51100000000E-03 0.  1.
         11   -1    0    0    0    0 -0.00000000000E+00 -0.00000000000E+00 -0.45593999997E+02  0.45594000000E+02  0.51100000000E-03 0. -1.
    9900012    2    1    2    0    0  0.24061856740E+02 -0.33069517464E+02  0.14527812542E+02  0.47787271062E+02  0.20000000080E+02 0.  0.
         12    1    1    2    0    0 -0.24061856740E+02  0.33069517464E+02 -0.14527812542E+02  0.43400728938E+02  0.00000000000E+00 0. -1.
         11    1    3    3    0    0  0.24145522091E+01 -0.13097006808E+01 -0.18766907075E+01  0.33267621671E+01  0.51100000000E-03 0. -1.
        -11    1    3    3    0    0  0.19307824980E+02 -0.29044284381E+02  0.19293134201E+02  0.39857089560E+02  0.51100000000E-03 0.  1.
        -12    1    3    3    0    0  0.23394795508E+01 -0.27155324030E+01 -0.28886309515E+01  0.46034193351E+01  0.00000000000E+00 0.  1.
</event>
<event>
 7    1  0.3851772E-009  0.4778727E+02  0.7816164E-02  0.1312668E+00
        -11   -1    0    0    0    0  0.00000000000E+00  0.00000000000E+00  0.45593999997E+02  0.45594000000E+02  0.51100000000E-03 0.  1.
         11   -1    0    0    0    0 -0.00000000000E+00 -0.00000000000E+00 -0.45593999997E+02  0.45594000000E+02  0.51100000000E-03 0. -1.
    9900012    2    1    2    0    0 -0.12888619904E+02 -0.22195143845E+02  0.34998320473E+02  0.47787269946E+02  0.19999994990E+02 0.  0.
         12    1    1    2    0    0  0.12888619904E+02  0.22195143845E+02 -0.34998320473E+02  0.43400730054E+02  0.00000000000E+00 0. -1.
         11    1    3    3    0    0 -0.15623058948E+02 -0.23374600995E+02  0.26101445897E+02  0.38363230061E+02  0.51100000000E-03 0.  1.
        -11    1    3    3    0    0  0.15480245573E+01  0.11366321768E+01  0.55290806911E+01  0.58531227806E+01  0.51100000000E-03 0. -1.
        -12    1    3    3    0    0  0.11864144867E+01  0.42824972338E-01  0.33677938844E+01  0.35709171035E+01  0.00000000000E+00 0.  1.
</event>
<event>
 7    1  0.3851772E-009  0.4778727E+02  0.7816164E-02  0.1312668E+00
        -11   -1    0    0    0    0  0.00000000000E+00  0.00000000000E+00  0.45593999997E+02  0.45594000000E+02  0.51100000000E-03 0.  1.
         11   -1    0    0    0    0 -0.00000000000E+00 -0.00000000000E+00 -0.45593999997E+02  0.45594000000E+02  0.51100000000E-03 0. -1.
    9900012    2    1    2    0    0  0.29385738753E+02 -0.84654910404E+01  0.30796703009E+02  0.47787273084E+02  0.20000009298E+02 0.  0.
         12    1    1    2    0    0 -0.29385738753E+02  0.84654910404E+01 -0.30796703009E+02  0.43400726916E+02  0.00000000000E+00 0. -1.
         11    1    3    3    0    0  0.96216578534E+01 -0.30642066895E+01 -0.78246087144E+00  0.10128075225E+02  0.51100000000E-03 0. -1.
        -11    1    3    3    0    0  0.92578824001E+01 -0.19753529062E+01  0.14719677496E+02  0.17500837451E+02  0.51100000000E-03 0.  1.
         12    1    3    3    0    0  0.10506198500E+02 -0.34259314448E+01  0.16859486385E+02  0.20158360408E+02  0.00000000000E+00 0. -1.
</event>
<event>
 7    1  0.3851772E-009  0.4778727E+02  0.7816164E-02  0.1312668E+00
        -11   -1    0    0    0    0  0.00000000000E+00  0.00000000000E+00  0.45593999997E+02  0.45594000000E+02  0.51100000000E-03 0.  1.
         11   -1    0    0    0    0 -0.00000000000E+00 -0.00000000000E+00 -0.45593999997E+02  0.45594000000E+02  0.51100000000E-03 0. -1.
    9900012    2    1    2    0    0  0.57009515360E+01  0.35638900287E+02  0.24103753656E+02  0.47787274172E+02  0.20000014258E+02 0.  0.
         12    1    1    2    0    0 -0.57009515360E+01 -0.35638900287E+02 -0.24103753656E+02  0.43400725828E+02  0.00000000000E+00 0. -1.
         11    1    3    3    0    0  0.47183374581E+01  0.25884059700E+01 -0.12923019466E+00  0.53832382948E+01  0.51100000000E-03 0. -1.
        -11    1    3    3    0    0 -0.44524899201E+01  0.13151223239E+02  0.71317643878E+01  0.15609016712E+02  0.51100000000E-03 0.  1.
        -12    1    3    3    0    0  0.54351039980E+01  0.19899271079E+02  0.17101219463E+02  0.26795019165E+02  0.00000000000E+00 0.  1.
</event>
<event>
 7    1  0.3851772E-009  0.4778729E+02  0.7816164E-02  0.1312668E+00
        -11   -1    0    0    0    0  0.00000000000E+00  0.00000000000E+00  0.45593999997E+02  0.45594000000E+02  0.51100000000E-03 0.  1.
         11   -1    0    0    0    0 -0.00000000000E+00 -0.00000000000E+00 -0.45593999997E+02  0.45594000000E+02  0.51100000000E-03 0. -1.
    9900012    2    1    2    0    0 -0.41240817850E+02 -0.13516451435E+02  0.34910011184E+00  0.47787292780E+02  0.20000099100E+02 0.  0.
         12    1    1    2    0    0  0.41240817850E+02  0.13516451435E+02 -0.34910011184E+00  0.43400707220E+02  0.00000000000E+00 0. -1.
         11    1    3    3    0    0  0.13979778421E+00 -0.24223541229E+01 -0.35550420340E+01  0.43041453324E+01  0.51100000000E-03 0. -1.
        -11    1    3    3    0    0 -0.16100321625E+02 -0.37688535576E+01  0.45668568650E+01  0.17154614407E+02  0.51100000000E-03 0.  1.
         12    1    3    3    0    0 -0.25280294010E+02 -0.73252437545E+01 -0.66271471915E+00  0.26328533041E+02  0.00000000000E+00 0. -1.
</event>
<event>
 7    1  0.3851772E-009  0.4778727E+02  0.7816164E-02  0.1312668E+00
        -11   -1    0    0    0    0  0.00000000000E+00  0.00000000000E+00  0.45593999997E+02  0.45594000000E+02  0.51100000000E-03 0. -1.
         11   -1    0    0    0    0 -0.00000000000E+00 -0.00000000000E+00 -0.45593999997E+02  0.45594000000E+02  0.51100000000E-03 0.  1.
    9900012    2    1    2    0    0  0.10688619140E+02 -0.41959489703E+02  0.29627074706E+01  0.47787274306E+02  0.20000014869E+02 0.  0.
         12    1    1    2    0    0 -0.10688619140E+02  0.41959489703E+02 -0.29627074706E+01  0.43400725694E+02  0.00000000000E+00 0. -1.
         11    1    3    3    0    0 -0.14413092478E+01 -0.17242776398E+02  0.35827066514E+01  0.17669932016E+02  0.51100000000E-03 0. -1.
        -11    1    3    3    0    0  0.11128905969E+01 -0.15520124080E+02  0.14087387480E+01  0.15623614245E+02  0.51100000000E-03 0.  1.
         12    1    3    3    0    0  0.11017037791E+02 -0.91965892249E+01 -0.20287379288E+01  0.14493728045E+02  0.00000000000E+00 0. -1.
</event>
<event>
 7    1  0.3851772E-009  0.4778727E+02  0.7816164E-02  0.1312668E+00
        -11   -1    0    0    0    0  0.00000000000E+00  0.00000000000E+00  0.45593999997E+02  0.45594000000E+02  0.51100000000E-03 0.  1.
         11   -1    0    0    0    0 -0.00000000000E+00 -0.00000000000E+00 -0.45593999997E+02  0.45594000000E+02  0.51100000000E-03 0. -1.
    9900012    2    1    2    0    0  0.85072852070E+01  0.57411616154E+01  0.42169756219E+02  0.47787272151E+02  0.20000005044E+02 0.  0.
         12    1    1    2    0    0 -0.85072852070E+01 -0.57411616154E+01 -0.42169756219E+02  0.43400727849E+02  0.00000000000E+00 0. -1.
         11    1    3    3    0    0  0.31342020241E+01  0.11202492545E+01 -0.83854939002E+00  0.34323965477E+01  0.51100000000E-03 0. -1.
        -11    1    3    3    0    0 -0.87362911132E-01  0.52780169817E+01  0.23541028177E+02  0.24125610944E+02  0.51100000000E-03 0.  1.
        -12    1    3    3    0    0  0.54604460941E+01 -0.65710462083E+00  0.19467277432E+02  0.20229264659E+02  0.00000000000E+00 0.  1.
</event>
<event>
 7    1  0.3851772E-009  0.4778727E+02  0.7816164E-02  0.1312668E+00
        -11   -1    0    0    0    0  0.00000000000E+00  0.00000000000E+00  0.45593999997E+02  0.45594000000E+02  0.51100000000E-03 0. -1.
         11   -1    0    0    0    0 -0.00000000000E+00 -0.00000000000E+00 -0.45593999997E+02  0.45594000000E+02  0.51100000000E-03 0.  1.
    9900012    2    1    2    0    0  0.32632052358E+02  0.12282043500E+02  0.25844228719E+02  0.47787267383E+02  0.19999983304E+02 0.  0.
         12    1    1    2    0    0 -0.32632052358E+02 -0.12282043500E+02 -0.25844228719E+02  0.43400732617E+02  0.00000000000E+00 0. -1.
         11    1    3    3    0    0  0.20365063016E+02  0.47369182545E+01  0.17464818529E+02  0.27243239028E+02  0.51100000000E-03 0. -1.
        -11    1    3    3    0    0  0.51719599764E+01 -0.54502280183E+00  0.82862465726E+01  0.97830517926E+01  0.51100000000E-03 0.  1.
         12    1    3    3    0    0  0.70950293654E+01  0.80901480470E+01  0.93163617639E-01  0.10760976562E+02  0.00000000000E+00 0. -1.
</event>
<event>
 7    1  0.3851772E-009  0.4778727E+02  0.7816164E-02  0.1312668E+00
        -11   -1    0    0    0    0  0.00000000000E+00  0.00000000000E+00  0.45593999997E+02  0.45594000000E+02  0.51100000000E-03 0. -1.
         11   -1    0    0    0    0 -0.00000000000E+00 -0.00000000000E+00 -0.45593999997E+02  0.45594000000E+02  0.51100000000E-03 0.  1.
    9900012    2    1    2    0    0 -0.36357691497E+02 -0.14610116401E+02 -0.18662435744E+02  0.47787265672E+02  0.19999975507E+02 0.  0.
         12    1    1    2    0    0  0.36357691497E+02  0.14610116401E+02  0.18662435744E+02  0.43400734328E+02  0.00000000000E+00 0. -1.
         11    1    3    3    0    0 -0.32487010427E+01 -0.40625799372E+01  0.14025352911E+01  0.53875522935E+01  0.51100000000E-03 0. -1.
        -11    1    3    3    0    0 -0.19844938850E+02 -0.63330883631E+01 -0.19401192925E+02  0.28466399374E+02  0.51100000000E-03 0.  1.
        -12    1    3    3    0    0 -0.13264051605E+02 -0.42144481009E+01 -0.66377811018E+00  0.13933314005E+02  0.00000000000E+00 0.  1.
</event>
<event>
 7    1  0.3851772E-009  0.4778728E+02  0.7816164E-02  0.1312668E+00
        -11   -1    0    0    0    0  0.00000000000E+00  0.00000000000E+00  0.45593999997E+02  0.45594000000E+02  0.51100000000E-03 0.  1.
         11   -1    0    0    0    0 -0.00000000000E+00 -0.00000000000E+00 -0.45593999997E+02  0.45594000000E+02  0.51100000000E-03 0. -1.
    9900012    2    1    2    0    0 -0.30168831260E+01  0.85326395208E+01  0.42446617003E+02  0.47787276319E+02  0.20000024051E+02 0.  0.
         12    1    1    2    0    0  0.30168831260E+01 -0.85326395208E+01 -0.42446617003E+02  0.43400723681E+02  0.00000000000E+00 0. -1.
         11    1    3    3    0    0  0.88021676641E+00  0.45688561911E+01  0.26450559681E+02  0.26856681406E+02  0.51100000000E-03 0. -1.
        -11    1    3    3    0    0 -0.17639463966E+01  0.37709832066E+01  0.17706656156E+02  0.18189488550E+02  0.51100000000E-03 0.  1.
         12    1    3    3    0    0 -0.21331534958E+01  0.19280012309E+00 -0.17105988336E+01  0.27411063631E+01  0.00000000000E+00 0. -1.
</event>
<event>
 7    1  0.3851772E-009  0.4778727E+02  0.7816164E-02  0.1312668E+00
        -11   -1    0    0    0    0  0.00000000000E+00  0.00000000000E+00  0.45593999997E+02  0.45594000000E+02  0.51100000000E-03 0.  1.
         11   -1    0    0    0    0 -0.00000000000E+00 -0.00000000000E+00 -0.45593999997E+02  0.45594000000E+02  0.51100000000E-03 0. -1.
    9900012    2    1    2    0    0  0.22481916686E+02 -0.36205168404E+02  0.82080659064E+01  0.47787272553E+02  0.20000006877E+02 0.  0.
         12    1    1    2    0    0 -0.22481916686E+02  0.36205168404E+02 -0.82080659064E+01  0.43400727447E+02  0.00000000000E+00 0. -1.
         11    1    3    3    0    0  0.81477799459E+00  0.12921379743E+00  0.41838783265E+01  0.42644340184E+01  0.51100000000E-03 0. -1.
        -11    1    3    3    0    0  0.20129487816E+02 -0.27539536498E+02  0.52405530416E+01  0.34512110146E+02  0.51100000000E-03 0.  1.
         12    1    3    3    0    0  0.15376508750E+01 -0.87948457032E+01 -0.12163654616E+01  0.90107283886E+01  0.00000000000E+00 0. -1.
</event>
<event>
 7    1  0.3851772E-009  0.4778730E+02  0.7816164E-02  0.1312668E+00
        -11   -1    0    0    0    0  0.00000000000E+00  0.00000000000E+00  0.45593999997E+02  0.45594000000E+02  0.51100000000E-03 0.  1.
         11   -1    0    0    0    0 -0.00000000000E+00 -0.00000000000E+00 -0.45593999997E+02  0.45594000000E+02  0.51100000000E-03 0. -1.
    9900012    2    1    2    0    0  0.70652339149E+00  0.67457211092E+01  0.42867437374E+02  0.47787295909E+02  0.20000113367E+02 0.  0.
         12    1    1    2    0    0 -0.70652339149E+00 -0.67457211092E+01 -0.42867437374E+02  0.43400704091E+02  0.00000000000E+00 0. -1.
         11    1    3    3    0    0  0.42450679711E+00 -0.24432774984E+01  0.20096455917E+02  0.20248885195E+02  0.51100000000E-03 0. -1.
        -11    1    3    3    0    0  0.22079638284E+01  0.10949495760E+02  0.22222880881E+02  0.24872132931E+02  0.51100000000E-03 0.  1.
        -12    1    3    3    0    0 -0.19259472340E+01 -0.17604971522E+01  0.54810057591E+00  0.26662777823E+01  0.00000000000E+00 0.  1.
</event>
<event>
 7    1  0.3851772E-009  0.4778727E+02  0.7816164E-02  0.1312668E+00
        -11   -1    0    0    0    0  0.00000000000E+00  0.00000000000E+00  0.45593999997E+02  0.45594000000E+02  0.51100000000E-03 0.  1.
         11   -1    0    0    0    0 -0.00000000000E+00 -0.00000000000E+00 -0.45593999997E+02  0.45594000000E+02  0.51100000000E-03 0. -1.
    9900012    2    1    2    0    0 -0.16881546894E+02 -0.32312270205E+02  0.23548968506E+02  0.47787270179E+02  0.19999996052E+02 0.  0.
         12    1    1    2    0    0  0.16881546894E+02  0.32312270205E+02 -0.23548968506E+02  0.43400729821E+02  0.00000000000E+00 0. -1.
         11    1    3    3    0    0 -0.76357715981E+01 -0.62504210357E+01 -0.37633707883E+00  0.98749380191E+01  0.51100000000E-03 0. -1.
        -11    1    3    3    0    0 -0.10563532926E+02 -0.17953761248E+02  0.19717555430E+02  0.28682882757E+02  0.51100000000E-03 0.  1.
        -12    1    3    3    0    0  0.13177576303E+01 -0.81080879214E+01  0.42077501548E+01  0.92294494028E+01  0.00000000000E+00 0.  1.
</event>
<event>
 7    1  0.3851772E-009  0.4778728E+02  0.7816164E-02  0.1312668E+00
        -11   -1    0    0    0    0  0.00000000000E+00  0.00000000000E+00  0.45593999997E+02  0.45594000000E+02  0.51100000000E-03 0. -1.
         11   -1    0    0    0    0 -0.00000000000E+00 -0.00000000000E+00 -0.45593999997E+02  0.45594000000E+02  0.51100000000E-03 0.  1.
    9900012    2    1    2    0    0 -0.14565121913E+02 -0.30385021607E+02 -0.27353802972E+02  0.47787275911E+02  0.20000022190E+02 0.  0.
         12    1    1    2    0    0  0.14565121913E+02  0.30385021607E+02  0.27353802972E+02  0.43400724089E+02  0.00000000000E+00 0. -1.
         11    1    3    3    0    0  0.18916462768E+00 -0.14135684374E+02 -0.51793310388E+01  0.15055856875E+02  0.51100000000E-03 0. -1.
        -11    1    3    3    0    0 -0.14025175872E+02 -0.10364270225E+02 -0.19688541776E+02  0.26301375117E+02  0.51100000000E-03 0.  1.
        -12    1    3    3    0    0 -0.72911066891E+00 -0.58850670077E+01 -0.24859301580E+01  0.64300439192E+01  0.00000000000E+00 0.  1.
</event>
<event>
 7    1  0.3851772E-009  0.4778727E+02  0.7816164E-02  0.1312668E+00
        -11   -1    0    0    0    0  0.00000000000E+00  0.00000000000E+00  0.45593999997E+02  0.45594000000E+02  0.51100000000E-03 0.  1.
         11   -1    0    0    0    0 -0.00000000000E+00 -0.00000000000E+00 -0.45593999997E+02  0.45594000000E+02  0.51100000000E-03 0. -1.
    9900012    2    1    2    0    0  0.16978348699E+02 -0.24716406887E+02  0.31376082652E+02  0.47787266636E+02  0.19999979902E+02 0.  0.
         12    1    1    2    0    0 -0.16978348699E+02  0.24716406887E+02 -0.31376082652E+02  0.43400733364E+02  0.00000000000E+00 0. -1.
         11    1    3    3    0    0  0.16564788043E+02 -0.20084865891E+02  0.20918490729E+02  0.33397264790E+02  0.51100000000E-03 0.  1.
        -11    1    3    3    0    0  0.33373718408E+01 -0.53549597992E+01  0.46172689625E+01  0.78187478657E+01  0.51100000000E-03 0. -1.
         12    1    3    3    0    0 -0.29238111844E+01  0.72341880363E+00  0.58403229598E+01  0.65712539810E+01  0.00000000000E+00 0. -1.
</event>
<event>
 7    1  0.3851772E-009  0.4778727E+02  0.7816164E-02  0.1312668E+00
        -11   -1    0    0    0    0  0.00000000000E+00  0.00000000000E+00  0.45593999997E+02  0.45594000000E+02  0.51100000000E-03 0. -1.
         11   -1    0    0    0    0 -0.00000000000E+00 -0.00000000000E+00 -0.45593999997E+02  0.45594000000E+02  0.51100000000E-03 0.  1.
    9900012    2    1    2    0    0 -0.32379416353E+02 -0.16396355741E+02 -0.23798238493E+02  0.47787271431E+02  0.20000001761E+02 0.  0.
         12    1    1    2    0    0  0.32379416353E+02  0.16396355741E+02  0.23798238493E+02  0.43400728569E+02  0.00000000000E+00 0. -1.
         11    1    3    3    0    0 -0.10848426670E+02 -0.68659076405E+01 -0.54030499688E+01  0.13929177943E+02  0.51100000000E-03 0. -1.
        -11    1    3    3    0    0 -0.14110116078E+02 -0.88353871323E+01 -0.20212920449E+02  0.26186286389E+02  0.51100000000E-03 0.  1.
        -12    1    3    3    0    0 -0.74208736048E+01 -0.69506096833E+00  0.18177319242E+01  0.76718070985E+01  0.00000000000E+00 0.  1.
</event>
<event>
 7    1  0.3851772E-009  0.4778727E+02  0.7816164E-02  0.1312668E+00
        -11   -1    0    0    0    0  0.00000000000E+00  0.00000000000E+00  0.45593999997E+02  0.45594000000E+02  0.51100000000E-03 0.  1.
         11   -1    0    0    0    0 -0.00000000000E+00 -0.00000000000E+00 -0.45593999997E+02  0.45594000000E+02  0.51100000000E-03 0. -1.
    9900012    2    1    2    0    0 -0.24702047514E+02 -0.70515039059E+01  0.34981548439E+02  0.47787267403E+02  0.19999983398E+02 0.  0.
         12    1    1    2    0    0  0.24702047514E+02  0.70515039059E+01 -0.34981548439E+02  0.43400732597E+02  0.00000000000E+00 0. -1.
         11    1    3    3    0    0 -0.13071749870E+00  0.39968022679E+00 -0.97817515740E+00  0.10647338859E+01  0.51100000000E-03 0.  1.
        -11    1    3    3    0    0 -0.18167167806E+02 -0.53704171243E+01  0.13466297918E+02  0.23242817085E+02  0.51100000000E-03 0. -1.
        -12    1    3    3    0    0 -0.64041622089E+01 -0.20807670084E+01  0.22493425679E+02  0.23479716432E+02  0.00000000000E+00 0.  1.
</event>
<event>
 7    1  0.3851772E-009  0.4778727E+02  0.7816164E-02  0.1312668E+00
        -11   -1    0    0    0    0  0.00000000000E+00  0.00000000000E+00  0.45593999997E+02  0.45594000000E+02  0.51100000000E-03 0.  1.
         11   -1    0    0    0    0 -0.00000000000E+00 -0.00000000000E+00 -0.45593999997E+02  0.45594000000E+02  0.51100000000E-03 0. -1.
    9900012    2    1    2    0    0  0.33819467345E+02 -0.15893283120E+02  0.22074205570E+02  0.47787269921E+02  0.19999994878E+02 0.  0.
         12    1    1    2    0    0 -0.33819467345E+02  0.15893283120E+02 -0.22074205570E+02  0.43400730079E+02  0.00000000000E+00 0. -1.
         11    1    3    3    0    0  0.16192827578E+02 -0.29196794716E+01  0.24588936893E+00  0.16455778773E+02  0.51100000000E-03 0. -1.
        -11    1    3    3    0    0  0.65221141860E+01 -0.77936074195E+01  0.87580870242E+01  0.13415751140E+02  0.51100000000E-03 0.  1.
         12    1    3    3    0    0  0.11104525582E+02 -0.51799962290E+01  0.13070229176E+02  0.17915740008E+02  0.00000000000E+00 0. -1.
</event>
<event>
 7    1  0.3851772E-009  0.4778727E+02  0.7816164E-02  0.1312668E+00
        -11   -1    0    0    0    0  0.00000000000E+00  0.00000000000E+00  0.45593999997E+02  0.45594000000E+02  0.51100000000E-03 0.  1.
         11   -1    0    0    0    0 -0.00000000000E+00 -0.00000000000E+00 -0.45593999997E+02  0.45594000000E+02  0.51100000000E-03 0. -1.
    9900012    2    1    2    0    0  0.31346874120E+02  0.28551828218E+02  0.92622844618E+01  0.47787270454E+02  0.19999997309E+02 0.  0.
         12    1    1    2    0    0 -0.31346874120E+02 -0.28551828218E+02 -0.92622844618E+01  0.43400729546E+02  0.00000000000E+00 0. -1.
         11    1    3    3    0    0  0.10633598287E+02  0.12438138981E+02 -0.89497545136E+00  0.16388462257E+02  0.51100000000E-03 0. -1.
        -11    1    3    3    0    0  0.16008625665E+02  0.38208274327E+01  0.68529673526E+01  0.17828011099E+02  0.51100000000E-03 0.  1.
        -12    1    3    3    0    0  0.47046501676E+01  0.12292861804E+02  0.33042925606E+01  0.13570797098E+02  0.00000000000E+00 0.  1.
</event>
<event>
 7    1  0.3851772E-009  0.4778725E+02  0.7816164E-02  0.1312668E+00
        -11   -1    0    0    0    0  0.00000000000E+00  0.00000000000E+00  0.45593999997E+02  0.45594000000E+02  0.51100000000E-03 0.  1.
         11   -1    0    0    0    0 -0.00000000000E+00 -0.00000000000E+00 -0.45593999997E+02  0.45594000000E+02  0.51100000000E-03 0. -1.
    9900012    2    1    2    0    0 -0.31404260796E+01  0.29021398871E+02  0.32117304264E+02  0.47787249988E+02  0.19999903997E+02 0.  0.
         12    1    1    2    0    0  0.31404260796E+01 -0.29021398871E+02 -0.32117304264E+02  0.43400750012E+02  0.00000000000E+00 0. -1.
         11    1    3    3    0    0 -0.24016231418E+01  0.24801558110E+01  0.62235612339E+00  0.35080327774E+01  0.51100000000E-03 0. -1.
        -11    1    3    3    0    0  0.17123562199E+01  0.11844323030E+02  0.33401300916E+01  0.12424838879E+02  0.51100000000E-03 0.  1.
        -12    1    3    3    0    0 -0.24511591577E+01  0.14696920030E+02  0.28154818049E+02  0.31854378332E+02  0.00000000000E+00 0.  1.
</event>
<event>
 7    1  0.3851772E-009  0.4778725E+02  0.7816164E-02  0.1312668E+00
        -11   -1    0    0    0    0  0.00000000000E+00  0.00000000000E+00  0.45593999997E+02  0.45594000000E+02  0.51100000000E-03 0.  1.
         11   -1    0    0    0    0 -0.00000000000E+00 -0.00000000000E+00 -0.45593999997E+02  0.45594000000E+02  0.51100000000E-03 0. -1.
    9900012    2    1    2    0    0 -0.65496464121E+01 -0.23940592937E+02  0.35603024746E+02  0.47787248516E+02  0.19999897284E+02 0.  0.
         12    1    1    2    0    0  0.65496464121E+01  0.23940592937E+02 -0.35603024746E+02  0.43400751484E+02  0.00000000000E+00 0. -1.
         11    1    3    3    0    0 -0.95362398173E+00  0.19987203768E+01  0.26790273561E+00  0.22307070584E+01  0.51100000000E-03 0. -1.
        -11    1    3    3    0    0  0.27171869798E+01 -0.13620993649E+02  0.17459870472E+02  0.22310572611E+02  0.51100000000E-03 0.  1.
        -12    1    3    3    0    0 -0.83132094101E+01 -0.12318319664E+02  0.17875251539E+02  0.23245968847E+02  0.00000000000E+00 0.  1.
</event>
<event>
 7    1  0.3851772E-009  0.4778727E+02  0.7816164E-02  0.1312668E+00
        -11   -1    0    0    0    0  0.00000000000E+00  0.00000000000E+00  0.45593999997E+02  0.45594000000E+02  0.51100000000E-03 0.  1.
         11   -1    0    0    0    0 -0.00000000000E+00 -0.00000000000E+00 -0.45593999997E+02  0.45594000000E+02  0.51100000000E-03 0. -1.
    9900012    2    1    2    0    0 -0.32034437545E+02  0.30293973001E+01  0.29124571724E+02  0.47787272876E+02  0.20000008349E+02 0.  0.
         12    1    1    2    0    0  0.32034437545E+02 -0.30293973001E+01 -0.29124571724E+02  0.43400727124E+02  0.00000000000E+00 0. -1.
         11    1    3    3    0    0 -0.90252758510E+01  0.18167262953E+01  0.18126923343E+02  0.20330800495E+02  0.51100000000E-03 0.  1.
        -11    1    3    3    0    0 -0.13721308081E+01  0.31156592035E+01  0.19804232334E+01  0.39385468985E+01  0.51100000000E-03 0. -1.
         12    1    3    3    0    0 -0.21637030886E+02 -0.19029881988E+01  0.90172251480E+01  0.23517925482E+02  0.00000000000E+00 0. -1.
</event>
<event>
 7    1  0.3851772E-009  0.4778727E+02  0.7816164E-02  0.1312668E+00
        -11   -1    0    0    0    0  0.00000000000E+00  0.00000000000E+00  0.45593999997E+02  0.45594000000E+02  0.51100000000E-03 0.  1.
         11   -1    0    0    0    0 -0.00000000000E+00 -0.00000000000E+00 -0.45593999997E+02  0.45594000000E+02  0.51100000000E-03 0. -1.
    9900012    2    1    2    0    0 -0.13481258377E+02  0.10778528047E+02  0.39820877325E+02  0.47787271144E+02  0.20000000454E+02 0.  0.
         12    1    1    2    0    0  0.13481258377E+02 -0.10778528047E+02 -0.39820877325E+02  0.43400728856E+02  0.00000000000E+00 0. -1.
         11    1    3    3    0    0  0.41344662963E+01  0.45227671753E+01  0.68706089241E+01  0.92062208166E+01  0.51100000000E-03 0. -1.
        -11    1    3    3    0    0 -0.14007784369E+02  0.77439862049E+01  0.24388119474E+02  0.29171350963E+02  0.51100000000E-03 0.  1.
         12    1    3    3    0    0 -0.36079403037E+01 -0.14882253329E+01  0.85621489268E+01  0.94096993640E+01  0.00000000000E+00 0. -1.
</event>
<event>
 7    1  0.3851772E-009  0.4778727E+02  0.7816164E-02  0.1312668E+00
        -11   -1    0    0    0    0  0.00000000000E+00  0.00000000000E+00  0.45593999997E+02  0.45594000000E+02  0.51100000000E-03 0.  1.
         11   -1    0    0    0    0 -0.00000000000E+00 -0.00000000000E+00 -0.45593999997E+02  0.45594000000E+02  0.51100000000E-03 0. -1.
    9900012    2    1    2    0    0  0.23857346185E+02  0.20862657350E+02  0.29651303717E+02  0.47787271310E+02  0.20000001210E+02 0.  0.
         12    1    1    2    0    0 -0.23857346185E+02 -0.20862657350E+02 -0.29651303717E+02  0.43400728690E+02  0.00000000000E+00 0. -1.
         11    1    3    3    0    0  0.13977137335E+02  0.10162903014E+02  0.65655574880E+01  0.18486522419E+02  0.51100000000E-03 0. -1.
        -11    1    3    3    0    0  0.10909599371E+02  0.54903917588E+01  0.12603703589E+02  0.17550416078E+02  0.51100000000E-03 0.  1.
         12    1    3    3    0    0 -0.10293905203E+01  0.52093625775E+01  0.10482042640E+02  0.11750332813E+02  0.00000000000E+00 0. -1.
</event>
<event>
 7    1  0.3851772E-009  0.4778727E+02  0.7816164E-02  0.1312668E+00
        -11   -1    0    0    0    0  0.00000000000E+00  0.00000000000E+00  0.45593999997E+02  0.45594000000E+02  0.51100000000E-03 0.  1.
         11   -1    0    0    0    0 -0.00000000000E+00 -0.00000000000E+00 -0.45593999997E+02  0.45594000000E+02  0.51100000000E-03 0. -1.
    9900012    2    1    2    0    0  0.10306210946E+02 -0.31714102589E+02  0.27778070603E+02  0.47787268514E+02  0.19999988463E+02 0.  0.
         12    1    1    2    0    0 -0.10306210946E+02  0.31714102589E+02 -0.27778070603E+02  0.43400731486E+02  0.00000000000E+00 0. -1.
         11    1    3    3    0    0  0.14165123098E+01 -0.15955768583E+02  0.21710207165E+02  0.26980106627E+02  0.51100000000E-03 0. -1.
        -11    1    3    3    0    0  0.61704363304E+01 -0.11842009039E+02  0.81071203783E+01  0.15621551257E+02  0.51100000000E-03 0.  1.
         12    1    3    3    0    0  0.27192623056E+01 -0.39163249673E+01 -0.20392569406E+01  0.51856106300E+01  0.00000000000E+00 0. -1.
</event>
<event>
 7    1  0.3851772E-009  0.4778727E+02  0.7816164E-02  0.1312668E+00
        -11   -1    0    0    0    0  0.00000000000E+00  0.00000000000E+00  0.45593999997E+02  0.45594000000E+02  0.51100000000E-03 0.  1.
         11   -1    0    0    0    0 -0.00000000000E+00 -0.00000000000E+00 -0.45593999997E+02  0.45594000000E+02  0.51100000000E-03 0. -1.
    9900012    2    1    2    0    0 -0.34436721538E+02  0.14627678745E+02  0.21994691170E+02  0.47787271718E+02  0.20000003070E+02 0.  0.
         12    1    1    2    0    0  0.34436721538E+02 -0.14627678745E+02 -0.21994691170E+02  0.43400728282E+02  0.00000000000E+00 0. -1.
         11    1    3    3    0    0 -0.32738877398E+02  0.10864855275E+02  0.15917687304E+02  0.37990155867E+02  0.51100000000E-03 0. -1.
        -11    1    3    3    0    0 -0.25318729867E+01  0.30257788461E+01  0.72037102563E+01  0.82133525533E+01  0.51100000000E-03 0.  1.
         12    1    3    3    0    0  0.83402884633E+00  0.73704462301E+00 -0.11267063901E+01  0.15837632975E+01  0.00000000000E+00 0. -1.
</event>
<event>
 7    1  0.3851772E-009  0.4778728E+02  0.7816164E-02  0.1312668E+00
        -11   -1    0    0    0    0  0.00000000000E+00  0.00000000000E+00  0.45593999997E+02  0.45594000000E+02  0.51100000000E-03 0. -1.
         11   -1    0    0    0    0 -0.00000000000E+00 -0.00000000000E+00 -0.45593999997E+02  0.45594000000E+02  0.51100000000E-03 0.  1.
    9900012    2    1    2    0    0 -0.41122156208E+02  0.19953939840E+01 -0.13733520131E+02  0.47787275311E+02  0.20000019452E+02 0.  0.
         12    1    1    2    0    0  0.41122156208E+02 -0.19953939840E+01  0.13733520131E+02  0.43400724689E+02  0.00000000000E+00 0. -1.
         11    1    3    3    0    0 -0.29073535245E+02  0.33413138962E+00 -0.97173251443E+01  0.30656296314E+02  0.51100000000E-03 0. -1.
        -11    1    3    3    0    0 -0.13214898833E+02  0.39562346548E+01 -0.45035506888E+01  0.14510937698E+02  0.51100000000E-03 0.  1.
         12    1    3    3    0    0  0.11662778703E+01 -0.22949720604E+01  0.48735570158E+00  0.26200412990E+01  0.00000000000E+00 0. -1.
</event>
<event>
 7    1  0.3851772E-009  0.4778728E+02  0.7816164E-02  0.1312668E+00
        -11   -1    0    0    0    0  0.00000000000E+00  0.00000000000E+00  0.45593999997E+02  0.45594000000E+02  0.51100000000E-03 0.  1.
         11   -1    0    0    0    0 -0.00000000000E+00 -0.00000000000E+00 -0.45593999997E+02  0.45594000000E+02  0.51100000000E-03 0. -1.
    9900012    2    1    2    0    0 -0.28300559531E+02  0.31684507823E+02  0.88765092018E+01  0.47787284322E+02  0.20000060537E+02 0.  0.
         12    1    1    2    0    0  0.28300559531E+02 -0.31684507823E+02 -0.88765092018E+01  0.43400715678E+02  0.00000000000E+00 0. -1.
         11    1    3    3    0    0 -0.31021048647E+01  0.25964500808E+01 -0.21220270456E+01  0.45681075575E+01  0.51100000000E-03 0. -1.
        -11    1    3    3    0    0 -0.17340664990E+02  0.81056554360E+01  0.27233141061E+01  0.19334341269E+02  0.51100000000E-03 0.  1.
        -12    1    3    3    0    0 -0.78577896767E+01  0.20982402306E+02  0.82752221413E+01  0.23884835495E+02  0.00000000000E+00 0.  1.
</event>
<event>
 7    1  0.3851772E-009  0.4778727E+02  0.7816164E-02  0.1312668E+00
        -11   -1    0    0    0    0  0.00000000000E+00  0.00000000000E+00  0.45593999997E+02  0.45594000000E+02  0.51100000000E-03 0.  1.
         11   -1    0    0    0    0 -0.00000000000E+00 -0.00000000000E+00 -0.45593999997E+02  0.45594000000E+02  0.51100000000E-03 0. -1.
    9900012    2    1    2    0    0  0.24021800482E+02  0.16474805484E+02  0.32173857440E+02  0.47787271703E+02  0.20000003002E+02 0.  0.
         12    1    1    2    0    0 -0.24021800482E+02 -0.16474805484E+02 -0.32173857440E+02  0.43400728297E+02  0.00000000000E+00 0. -1.
         11    1    3    3    0    0  0.14178362229E+01  0.33320843991E+01 -0.13331008508E+01  0.38587827274E+01  0.51100000000E-03 0. -1.
        -11    1    3    3    0    0  0.23449740719E+02  0.11202148178E+02  0.32415256568E+02  0.41546688463E+02  0.51100000000E-03 0.  1.
        -12    1    3    3    0    0 -0.84577646018E+00  0.19405729076E+01  0.10917017230E+01  0.23818005127E+01  0.00000000000E+00 0.  1.
</event>
<event>
 7    1  0.3851772E-009  0.4778727E+02  0.7816164E-02  0.1312668E+00
        -11   -1    0    0    0    0  0.00000000000E+00  0.00000000000E+00  0.45593999997E+02  0.45594000000E+02  0.51100000000E-03 0.  1.
         11   -1    0    0    0    0 -0.00000000000E+00 -0.00000000000E+00 -0.45593999997E+02  0.45594000000E+02  0.51100000000E-03 0. -1.
    9900012    2    1    2    0    0  0.16302795644E+02 -0.39635164441E+02  0.68480762049E+01  0.47787267820E+02  0.19999985296E+02 0.  0.
         12    1    1    2    0    0 -0.16302795644E+02  0.39635164441E+02 -0.68480762049E+01  0.43400732180E+02  0.00000000000E+00 0. -1.
         11    1    3    3    0    0 -0.16120876451E+00 -0.15770556895E+00 -0.15865985353E+01  0.16025462507E+01  0.51100000000E-03 0. -1.
        -11    1    3    3    0    0 -0.11464863576E-02 -0.17296915193E+02  0.65537791884E+01  0.18496899698E+02  0.51100000000E-03 0.  1.
        -12    1    3    3    0    0  0.16465150895E+02 -0.22180543679E+02  0.18808955518E+01  0.27687821871E+02  0.00000000000E+00 0.  1.
</event>
<event>
 7    1  0.3851772E-009  0.4778727E+02  0.7816164E-02  0.1312668E+00
        -11   -1    0    0    0    0  0.00000000000E+00  0.00000000000E+00  0.45593999997E+02  0.45594000000E+02  0.51100000000E-03 0.  1.
         11   -1    0    0    0    0 -0.00000000000E+00 -0.00000000000E+00 -0.45593999997E+02  0.45594000000E+02  0.51100000000E-03 0. -1.
    9900012    2    1    2    0    0  0.15855751395E+02 -0.14230674249E+02  0.37811459164E+02  0.47787269753E+02  0.19999994111E+02 0.  0.
         12    1    1    2    0    0 -0.15855751395E+02  0.14230674249E+02 -0.37811459164E+02  0.43400730247E+02  0.00000000000E+00 0. -1.
         11    1    3    3    0    0  0.31685084924E+01 -0.23328228670E+01 -0.25499804791E+00  0.39429091875E+01  0.51100000000E-03 0. -1.
        -11    1    3    3    0    0  0.10888934445E+02 -0.14712001992E+02  0.30446130597E+02  0.35524340452E+02  0.51100000000E-03 0.  1.
        -12    1    3    3    0    0  0.17983084580E+01  0.28141506101E+01  0.76203266152E+01  0.83200201135E+01  0.00000000000E+00 0.  1.
</event>
<event>
 7    1  0.3851772E-009  0.4778727E+02  0.7816164E-02  0.1312668E+00
        -11   -1    0    0    0    0  0.00000000000E+00  0.00000000000E+00  0.45593999997E+02  0.45594000000E+02  0.51100000000E-03 0.  1.
         11   -1    0    0    0    0 -0.00000000000E+00 -0.00000000000E+00 -0.45593999997E+02  0.45594000000E+02  0.51100000000E-03 0. -1.
    9900012    2    1    2    0    0  0.34455677623E+02  0.11292930706E+02 -0.23851613965E+02  0.47787268519E+02  0.19999988485E+02 0.  0.
         12    1    1    2    0    0 -0.34455677623E+02 -0.11292930706E+02  0.23851613965E+02  0.43400731481E+02  0.00000000000E+00 0. -1.
         11    1    3    3    0    0  0.77607415021E+01 -0.15690358939E+01 -0.14129617243E+02  0.16196822713E+02  0.51100000000E-03 0. -1.
        -11    1    3    3    0    0  0.14869557963E+02  0.87183607674E+01 -0.34531603029E+01  0.17579473394E+02  0.51100000000E-03 0.  1.
         12    1    3    3    0    0  0.11825378158E+02  0.41436058324E+01 -0.62688364188E+01  0.14010972411E+02  0.00000000000E+00 0. -1.
</event>
<event>
 7    1  0.3851772E-009  0.4778727E+02  0.7816164E-02  0.1312668E+00
        -11   -1    0    0    0    0  0.00000000000E+00  0.00000000000E+00  0.45593999997E+02  0.45594000000E+02  0.51100000000E-03 0.  1.
         11   -1    0    0    0    0 -0.00000000000E+00 -0.00000000000E+00 -0.45593999997E+02  0.45594000000E+02  0.51100000000E-03 0. -1.
    9900012    2    1    2    0    0 -0.15555278451E+02 -0.31231141660E+02  0.25812250782E+02  0.47787272039E+02  0.20000004536E+02 0.  0.
         12    1    1    2    0    0  0.15555278451E+02  0.31231141660E+02 -0.25812250782E+02  0.43400727961E+02  0.00000000000E+00 0. -1.
         11    1    3    3    0    0  0.12671169607E+01  0.68588220977E+00  0.15926882157E+01  0.21477140898E+01  0.51100000000E-03 0. -1.
        -11    1    3    3    0    0 -0.16862398821E+02 -0.17767872813E+02  0.16322768772E+02  0.29435872315E+02  0.51100000000E-03 0.  1.
        -12    1    3    3    0    0  0.40003410110E-01 -0.14149151057E+02  0.78967937944E+01  0.16203685635E+02  0.00000000000E+00 0.  1.
</event>
<event>
 7    1  0.3851772E-009  0.4778727E+02  0.7816164E-02  0.1312668E+00
        -11   -1    0    0    0    0  0.00000000000E+00  0.00000000000E+00  0.45593999997E+02  0.45594000000E+02  0.51100000000E-03 0. -1.
         11   -1    0    0    0    0 -0.00000000000E+00 -0.00000000000E+00 -0.45593999997E+02  0.45594000000E+02  0.51100000000E-03 0.  1.
    9900012    2    1    2    0    0  0.44364098376E+01  0.28798159194E+02 -0.32165318247E+02  0.47787269555E+02  0.19999993210E+02 0.  0.
         12    1    1    2    0    0 -0.44364098376E+01 -0.28798159194E+02  0.32165318247E+02  0.43400730445E+02  0.00000000000E+00 0. -1.
         11    1    3    3    0    0  0.11918674801E+02  0.22253064948E+02 -0.24766267796E+02  0.35364130548E+02  0.51100000000E-03 0. -1.
        -11    1    3    3    0    0 -0.32844769260E+01  0.23209664831E+01 -0.31166500860E+01  0.50880430534E+01  0.51100000000E-03 0.  1.
         12    1    3    3    0    0 -0.41977880377E+01  0.42241277626E+01 -0.42824003645E+01  0.73350959535E+01  0.00000000000E+00 0. -1.
</event>
<event>
 7    1  0.3851772E-009  0.4778730E+02  0.7816164E-02  0.1312668E+00
        -11   -1    0    0    0    0  0.00000000000E+00  0.00000000000E+00  0.45593999997E+02  0.45594000000E+02  0.51100000000E-03 0.  1.
         11   -1    0    0    0    0 -0.00000000000E+00 -0.00000000000E+00 -0.45593999997E+02  0.45594000000E+02  0.51100000000E-03 0. -1.
    9900012    2    1    2    0    0  0.13005855643E+02  0.37464697123E+01  0.41236302161E+02  0.47787298022E+02  0.20000123001E+02 0.  0.
         12    1    1    2    0    0 -0.13005855643E+02 -0.37464697123E+01 -0.41236302161E+02  0.43400701978E+02  0.00000000000E+00 0. -1.
         11    1    3    3    0    0 -0.61923006165E-01  0.71057046186E+01  0.19349935572E+02  0.20613463549E+02  0.51100000000E-03 0. -1.
        -11    1    3    3    0    0  0.85025111265E+01 -0.50834999520E+01  0.89610729437E+01  0.13357974988E+02  0.51100000000E-03 0.  1.
        -12    1    3    3    0    0  0.45652675222E+01  0.17242650457E+01  0.12925293645E+02  0.13815859485E+02  0.00000000000E+00 0.  1.
</event>
<event>
 7    1  0.3851772E-009  0.4778727E+02  0.7816164E-02  0.1312668E+00
        -11   -1    0    0    0    0  0.00000000000E+00  0.00000000000E+00  0.45593999997E+02  0.45594000000E+02  0.51100000000E-03 0. -1.
         11   -1    0    0    0    0 -0.00000000000E+00 -0.00000000000E+00 -0.45593999997E+02  0.45594000000E+02  0.51100000000E-03 0.  1.
    9900012    2    1    2    0    0 -0.29464651476E+01 -0.13960423081E+02 -0.40988391394E+02  0.47787270761E+02  0.19999998706E+02 0.  0.
         12    1    1    2    0    0  0.29464651476E+01  0.13960423081E+02  0.40988391394E+02  0.43400729239E+02  0.00000000000E+00 0. -1.
         11    1    3    3    0    0 -0.62923490921E+01 -0.12282598552E+02 -0.16729792497E+02  0.21687365942E+02  0.51100000000E-03 0.  1.
        -11    1    3    3    0    0  0.32135509607E+01 -0.82865460761E+00 -0.24841023099E+02  0.25061723945E+02  0.51100000000E-03 0. -1.
         12    1    3    3    0    0  0.13233298386E+00 -0.84916992189E+00  0.58242420173E+00  0.10381808733E+01  0.00000000000E+00 0. -1.
</event>
<event>
 7    1  0.3851772E-009  0.4778727E+02  0.7816164E-02  0.1312668E+00
        -11   -1    0    0    0    0  0.00000000000E+00  0.00000000000E+00  0.45593999997E+02  0.45594000000E+02  0.51100000000E-03 0. -1.
         11   -1    0    0    0    0 -0.00000000000E+00 -0.00000000000E+00 -0.45593999997E+02  0.45594000000E+02  0.51100000000E-03 0.  1.
    9900012    2    1    2    0    0  0.35840421504E+02  0.67495012644E+01  0.23527254231E+02  0.47787271060E+02  0.20000000072E+02 0.  0.
         12    1    1    2    0    0 -0.35840421504E+02 -0.67495012644E+01 -0.23527254231E+02  0.43400728940E+02  0.00000000000E+00 0. -1.
         11    1    3    3    0    0  0.23041805041E+02 -0.54812971913E+01  0.15229797556E+02  0.28158766527E+02  0.51100000000E-03 0. -1.
        -11    1    3    3    0    0  0.10800096862E+02  0.11078371102E+02  0.74369177125E+01  0.17166250139E+02  0.51100000000E-03 0.  1.
         12    1    3    3    0    0  0.19985196000E+01  0.11524273536E+01  0.86053896276E+00  0.24622543945E+01  0.00000000000E+00 0. -1.
</event>
<event>
 7    1  0.3851772E-009  0.4778727E+02  0.7816164E-02  0.1312668E+00
        -11   -1    0    0    0    0  0.00000000000E+00  0.00000000000E+00  0.45593999997E+02  0.45594000000E+02  0.51100000000E-03 0.  1.
         11   -1    0    0    0    0 -0.00000000000E+00 -0.00000000000E+00 -0.45593999997E+02  0.45594000000E+02  0.51100000000E-03 0. -1.
    9900012    2    1    2    0    0 -0.39756401047E+02 -0.11402484472E+02  0.13154274853E+02  0.47787273931E+02  0.20000013162E+02 0.  0.
         12    1    1    2    0    0  0.39756401047E+02  0.11402484472E+02 -0.13154274853E+02  0.43400726069E+02  0.00000000000E+00 0. -1.
         11    1    3    3    0    0 -0.85857869366E+01 -0.26456367583E+01 -0.45422519135E+01  0.10067133847E+02  0.51100000000E-03 0. -1.
        -11    1    3    3    0    0 -0.17616055174E+02 -0.89382124350E+01  0.10312725303E+02  0.22283835955E+02  0.51100000000E-03 0.  1.
         12    1    3    3    0    0 -0.13554558937E+02  0.18136472085E+00  0.73838014635E+01  0.15436304130E+02  0.00000000000E+00 0. -1.
</event>
<event>
 7    1  0.3851772E-009  0.4778727E+02  0.7816164E-02  0.1312668E+00
        -11   -1    0    0    0    0  0.00000000000E+00  0.00000000000E+00  0.45593999997E+02  0.45594000000E+02  0.51100000000E-03 0.  1.
         11   -1    0    0    0    0 -0.00000000000E+00 -0.00000000000E+00 -0.45593999997E+02  0.45594000000E+02  0.51100000000E-03 0. -1.
    9900012    2    1    2    0    0  0.22250973875E+02  0.32807708381E+02  0.17668375603E+02  0.47787273462E+02  0.20000011022E+02 0.  0.
         12    1    1    2    0    0 -0.22250973875E+02 -0.32807708381E+02 -0.17668375603E+02  0.43400726538E+02  0.00000000000E+00 0. -1.
         11    1    3    3    0    0 -0.24441528145E+01  0.38655693513E+01  0.31248903258E+01  0.55390837871E+01  0.51100000000E-03 0. -1.
        -11    1    3    3    0    0  0.15027367025E+02  0.15441473505E+02  0.13878713991E+02  0.25629661840E+02  0.51100000000E-03 0.  1.
        -12    1    3    3    0    0  0.96677596644E+01  0.13500665524E+02  0.66477128599E+00  0.16618527834E+02  0.00000000000E+00 0.  1.
</event>
<event>
 7    1  0.3851772E-009  0.4778727E+02  0.7816164E-02  0.1312668E+00
        -11   -1    0    0    0    0  0.00000000000E+00  0.00000000000E+00  0.45593999997E+02  0.45594000000E+02  0.51100000000E-03 0. -1.
         11   -1    0    0    0    0 -0.00000000000E+00 -0.00000000000E+00 -0.45593999997E+02  0.45594000000E+02  0.51100000000E-03 0.  1.
    9900012    2    1    2    0    0  0.35313126618E+02  0.19032120668E+02 -0.16564567111E+02  0.47787269450E+02  0.19999992732E+02 0.  0.
         12    1    1    2    0    0 -0.35313126618E+02 -0.19032120668E+02  0.16564567111E+02  0.43400730550E+02  0.00000000000E+00 0. -1.
         11    1    3    3    0    0  0.30839585830E+01  0.50643631781E+01 -0.18234298151E+01  0.62035047750E+01  0.51100000000E-03 0. -1.
        -11    1    3    3    0    0  0.54406541031E+01  0.66788845739E+01 -0.10366817012E+02  0.13478839395E+02  0.51100000000E-03 0.  1.
        -12    1    3    3    0    0  0.26788513932E+02  0.72888729165E+01 -0.43743202844E+01  0.28104925280E+02  0.00000000000E+00 0.  1.
</event>
<event>
 7    1  0.3851772E-009  0.4778724E+02  0.7816164E-02  0.1312668E+00
        -11   -1    0    0    0    0  0.00000000000E+00  0.00000000000E+00  0.45593999997E+02  0.45594000000E+02  0.51100000000E-03 0.  1.
         11   -1    0    0    0    0 -0.00000000000E+00 -0.00000000000E+00 -0.45593999997E+02  0.45594000000E+02  0.51100000000E-03 0. -1.
    9900012    2    1    2    0    0  0.32302872562E+02  0.34782424787E+01  0.28775894241E+02  0.47787241529E+02  0.19999865426E+02 0.  0.
         12    1    1    2    0    0 -0.32302872562E+02 -0.34782424787E+01 -0.28775894241E+02  0.43400758471E+02  0.00000000000E+00 0. -1.
         11    1    3    3    0    0  0.12363636852E+02  0.10120001723E+02  0.11152732141E+02  0.19484798832E+02  0.51100000000E-03 0. -1.
        -11    1    3    3    0    0  0.56425485834E+01  0.13017673748E+01  0.45663326478E+01  0.73745743555E+01  0.51100000000E-03 0.  1.
         12    1    3    3    0    0  0.14296687127E+02 -0.79435266188E+01  0.13056829452E+02  0.20927868341E+02  0.00000000000E+00 0. -1.
</event>
<event>
 7    1  0.3851772E-009  0.4778723E+02  0.7816164E-02  0.1312668E+00
        -11   -1    0    0    0    0  0.00000000000E+00  0.00000000000E+00  0.45593999997E+02  0.45594000000E+02  0.51100000000E-03 0.  1.
         11   -1    0    0    0    0 -0.00000000000E+00 -0.00000000000E+00 -0.45593999997E+02  0.45594000000E+02  0.51100000000E-03 0. -1.
    9900012    2    1    2    0    0  0.42670425320E+02  0.72229718672E+01 -0.32695437339E+01  0.47787234617E+02  0.19999833911E+02 0.  0.
         12    1    1    2    0    0 -0.42670425320E+02 -0.72229718672E+01  0.32695437339E+01  0.43400765383E+02  0.00000000000E+00 0. -1.
         11    1    3    3    0    0  0.20165140635E+02  0.88108649201E+01 -0.83117733920E+01  0.23523388673E+02  0.51100000000E-03 0. -1.
        -11    1    3    3    0    0  0.19324017115E+02 -0.31853787691E+01  0.21988717711E+01  0.19707849013E+02  0.51100000000E-03 0.  1.
         12    1    3    3    0    0  0.31812675702E+01  0.15974857163E+01  0.28433578870E+01  0.45559969316E+01  0.00000000000E+00 0. -1.
</event>
<event>
 7    1  0.3851772E-009  0.4778727E+02  0.7816164E-02  0.1312668E+00
        -11   -1    0    0    0    0  0.00000000000E+00  0.00000000000E+00  0.45593999997E+02  0.45594000000E+02  0.51100000000E-03 0.  1.
         11   -1    0    0    0    0 -0.00000000000E+00 -0.00000000000E+00 -0.45593999997E+02  0.45594000000E+02  0.51100000000E-03 0. -1.
    9900012    2    1    2    0    0  0.41191922616E+02  0.11395137761E+02 -0.75498141866E+01  0.47787270194E+02  0.19999996123E+02 0.  0.
         12    1    1    2    0    0 -0.41191922616E+02 -0.11395137761E+02  0.75498141866E+01  0.43400729806E+02  0.00000000000E+00 0. -1.
         11    1    3    3    0    0  0.27829688741E+01 -0.13661578949E-01  0.40376727958E+01  0.49038662563E+01  0.51100000000E-03 0. -1.
        -11    1    3    3    0    0  0.24113340431E+02  0.10283116457E+02 -0.11285216891E+02  0.28540353736E+02  0.51100000000E-03 0.  1.
         12    1    3    3    0    0  0.14295613311E+02  0.11256828833E+01 -0.30227009088E+00  0.14343050202E+02  0.00000000000E+00 0. -1.
</event>
<event>
 7    1  0.3851772E-009  0.4778727E+02  0.7816164E-02  0.1312668E+00
        -11   -1    0    0    0    0  0.00000000000E+00  0.00000000000E+00  0.45593999997E+02  0.45594000000E+02  0.51100000000E-03 0.  1.
         11   -1    0    0    0    0 -0.00000000000E+00 -0.00000000000E+00 -0.45593999997E+02  0.45594000000E+02  0.51100000000E-03 0. -1.
    9900012    2    1    2    0    0  0.23770864333E+02  0.18022562023E+02  0.31523902779E+02  0.47787272132E+02  0.20000004961E+02 0.  0.
         12    1    1    2    0    0 -0.23770864333E+02 -0.18022562023E+02 -0.31523902779E+02  0.43400727868E+02  0.00000000000E+00 0. -1.
         11    1    3    3    0    0  0.17165777701E+02  0.17187656860E+01  0.18677872392E+02  0.25425990578E+02  0.51100000000E-03 0.  1.
        -11    1    3    3    0    0  0.57029833895E+01  0.13832909828E+02  0.12862031543E+02  0.19730820295E+02  0.51100000000E-03 0. -1.
         12    1    3    3    0    0  0.90210324260E+00  0.24708865084E+01 -0.16001154813E-01  0.26304612589E+01  0.00000000000E+00 0. -1.
</event>
<event>
 7    1  0.3851772E-009  0.4778727E+02  0.7816164E-02  0.1312668E+00
        -11   -1    0    0    0    0  0.00000000000E+00  0.00000000000E+00  0.45593999997E+02  0.45594000000E+02  0.51100000000E-03 0.  1.
         11   -1    0    0    0    0 -0.00000000000E+00 -0.00000000000E+00 -0.45593999997E+02  0.45594000000E+02  0.51100000000E-03 0. -1.
    9900012    2    1    2    0    0  0.29437554772E+02  0.10042474927E+02  0.30268830903E+02  0.47787273533E+02  0.20000011348E+02 0.  0.
         12    1    1    2    0    0 -0.29437554772E+02 -0.10042474927E+02 -0.30268830903E+02  0.43400726467E+02  0.00000000000E+00 0. -1.
         11    1    3    3    0    0  0.78195615046E+01 -0.24941530040E+01  0.84577421403E+01  0.11785573542E+02  0.51100000000E-03 0. -1.
        -11    1    3    3    0    0  0.24611741365E+01  0.76084055262E+01  0.25517311974E+01  0.83938397141E+01  0.51100000000E-03 0.  1.
        -12    1    3    3    0    0  0.19156819131E+02  0.49282224045E+01  0.19259357565E+02  0.27607860278E+02  0.00000000000E+00 0.  1.
</event>
<event>
 7    1  0.3851772E-009  0.4778728E+02  0.7816164E-02  0.1312668E+00
        -11   -1    0    0    0    0  0.00000000000E+00  0.00000000000E+00  0.45593999997E+02  0.45594000000E+02  0.51100000000E-03 0.  1.
         11   -1    0    0    0    0 -0.00000000000E+00 -0.00000000000E+00 -0.45593999997E+02  0.45594000000E+02  0.51100000000E-03 0. -1.
    9900012    2    1    2    0    0  0.11960584664E+02  0.41110713602E+02 -0.71046357600E+01  0.47787283328E+02  0.20000056007E+02 0.  0.
         12    1    1    2    0    0 -0.11960584664E+02 -0.41110713602E+02  0.71046357600E+01  0.43400716672E+02  0.00000000000E+00 0. -1.
         11    1    3    3    0    0  0.70064380362E+01  0.11857467068E+02  0.32783024520E+01  0.14157576292E+02  0.51100000000E-03 0.  1.
        -11    1    3    3    0    0 -0.25519886359E+00 -0.95783882813E+00  0.48484724444E+00  0.11034757778E+01  0.51100000000E-03 0. -1.
         12    1    3    3    0    0  0.52093454917E+01  0.30211085362E+02 -0.10867785456E+02  0.32526231259E+02  0.00000000000E+00 0. -1.
</event>
<event>
 7    1  0.3851772E-009  0.4778727E+02  0.7816164E-02  0.1312668E+00
        -11   -1    0    0    0    0  0.00000000000E+00  0.00000000000E+00  0.45593999997E+02  0.45594000000E+02  0.51100000000E-03 0.  1.
         11   -1    0    0    0    0 -0.00000000000E+00 -0.00000000000E+00 -0.45593999997E+02  0.45594000000E+02  0.51100000000E-03 0. -1.
    9900012    2    1    2    0    0  0.91118640159E+01  0.40809288170E+02  0.11627532153E+02  0.47787267624E+02  0.19999984405E+02 0.  0.
         12    1    1    2    0    0 -0.91118640159E+01 -0.40809288170E+02 -0.11627532153E+02  0.43400732376E+02  0.00000000000E+00 0. -1.
         11    1    3    3    0    0 -0.41039519799E+01  0.79833395835E+01  0.65666922119E+01  0.11121941360E+02  0.51100000000E-03 0. -1.
        -11    1    3    3    0    0  0.11717529328E+02  0.21979739602E+02  0.81387174553E+00  0.24921312847E+02  0.51100000000E-03 0.  1.
        -12    1    3    3    0    0  0.14982866676E+01  0.10846208985E+02  0.42469681955E+01  0.11744013417E+02  0.00000000000E+00 0.  1.
</event>
<event>
 7    1  0.3851772E-009  0.4778727E+02  0.7816164E-02  0.1312668E+00
        -11   -1    0    0    0    0  0.00000000000E+00  0.00000000000E+00  0.45593999997E+02  0.45594000000E+02  0.51100000000E-03 0.  1.
         11   -1    0    0    0    0 -0.00000000000E+00 -0.00000000000E+00 -0.45593999997E+02  0.45594000000E+02  0.51100000000E-03 0. -1.
    9900012    2    1    2    0    0 -0.41438601432E+02 -0.29609523291E+01  0.12557793414E+02  0.47787273016E+02  0.20000008990E+02 0.  0.
         12    1    1    2    0    0  0.41438601432E+02  0.29609523291E+01 -0.12557793414E+02  0.43400726984E+02  0.00000000000E+00 0. -1.
         11    1    3    3    0    0 -0.59306979120E+01 -0.23426563035E+01  0.59581885986E+01  0.87270400433E+01  0.51100000000E-03 0. -1.
        -11    1    3    3    0    0 -0.17584278224E+02 -0.58478443687E+01 -0.17375137762E+01  0.18612444192E+02  0.51100000000E-03 0.  1.
        -12    1    3    3    0    0 -0.17923625296E+02  0.52295483430E+01  0.83371185918E+01  0.20447788781E+02  0.00000000000E+00 0.  1.
</event>
<event>
 7    1  0.3851772E-009  0.4778727E+02  0.7816164E-02  0.1312668E+00
        -11   -1    0    0    0    0  0.00000000000E+00  0.00000000000E+00  0.45593999997E+02  0.45594000000E+02  0.51100000000E-03 0. -1.
         11   -1    0    0    0    0 -0.00000000000E+00 -0.00000000000E+00 -0.45593999997E+02  0.45594000000E+02  0.51100000000E-03 0.  1.
    9900012    2    1    2    0    0 -0.76338149137E+01 -0.34372937755E+02 -0.25374185752E+02  0.47787270943E+02  0.19999999539E+02 0.  0.
         12    1    1    2    0    0  0.76338149137E+01  0.34372937755E+02  0.25374185752E+02  0.43400729057E+02  0.00000000000E+00 0. -1.
         11    1    3    3    0    0 -0.11198121615E+02 -0.26393401506E+02 -0.22154012786E+02  0.36232717998E+02  0.51100000000E-03 0. -1.
        -11    1    3    3    0    0  0.37426816076E+01 -0.38174968528E+01 -0.47153527909E+01  0.71284991436E+01  0.51100000000E-03 0.  1.
         12    1    3    3    0    0 -0.17837490648E+00 -0.41620393963E+01  0.14951798250E+01  0.44260538014E+01  0.00000000000E+00 0. -1.
</event>
<event>
 7    1  0.3851772E-009  0.4778727E+02  0.7816164E-02  0.1312668E+00
        -11   -1    0    0    0    0  0.00000000000E+00  0.00000000000E+00  0.45593999997E+02  0.45594000000E+02  0.51100000000E-03 0. -1.
         11   -1    0    0    0    0 -0.00000000000E+00 -0.00000000000E+00 -0.45593999997E+02  0.45594000000E+02  0.51100000000E-03 0.  1.
    9900012    2    1    2    0    0 -0.12555475339E+02 -0.41509615934E+02  0.17133205362E+01  0.47787266789E+02  0.19999980599E+02 0.  0.
         12    1    1    2    0    0  0.12555475339E+02  0.41509615934E+02 -0.17133205362E+01  0.43400733211E+02  0.00000000000E+00 0. -1.
         11    1    3    3    0    0  0.64150429413E+00  0.13645545404E+01 -0.33367677885E-01  0.15081944557E+01  0.51100000000E-03 0. -1.
        -11    1    3    3    0    0 -0.41067276727E+01 -0.30800300839E+02  0.68887084261E-01  0.31072954311E+02  0.51100000000E-03 0.  1.
        -12    1    3    3    0    0 -0.90902519599E+01 -0.12073869636E+02  0.16778011298E+01  0.15206118022E+02  0.00000000000E+00 0.  1.
</event>
<event>
 7    1  0.3851772E-009  0.4778728E+02  0.7816164E-02  0.1312668E+00
        -11   -1    0    0    0    0  0.00000000000E+00  0.00000000000E+00  0.45593999997E+02  0.45594000000E+02  0.51100000000E-03 0.  1.
         11   -1    0    0    0    0 -0.00000000000E+00 -0.00000000000E+00 -0.45593999997E+02  0.45594000000E+02  0.51100000000E-03 0. -1.
    9900012    2    1    2    0    0 -0.40146407241E+02 -0.51630728455E+01  0.15659872075E+02  0.47787275018E+02  0.20000018116E+02 0.  0.
         12    1    1    2    0    0  0.40146407241E+02  0.51630728455E+01 -0.15659872075E+02  0.43400724982E+02  0.00000000000E+00 0. -1.
         11    1    3    3    0    0 -0.21172518548E+02  0.37749000708E+01  0.54620070599E+01  0.22189162526E+02  0.51100000000E-03 0. -1.
        -11    1    3    3    0    0 -0.29584268138E+01  0.24161614660E+01  0.21266076110E+01  0.43717943267E+01  0.51100000000E-03 0.  1.
         12    1    3    3    0    0 -0.16015461879E+02 -0.11354134382E+02  0.80712574039E+01  0.21226318165E+02  0.00000000000E+00 0. -1.
</event>
<event>
 7    1  0.3851772E-009  0.4778727E+02  0.7816164E-02  0.1312668E+00
        -11   -1    0    0    0    0  0.00000000000E+00  0.00000000000E+00  0.45593999997E+02  0.45594000000E+02  0.51100000000E-03 0.  1.
         11   -1    0    0    0    0 -0.00000000000E+00 -0.00000000000E+00 -0.45593999997E+02  0.45594000000E+02  0.51100000000E-03 0. -1.
    9900012    2    1    2    0    0 -0.28303300963E+02 -0.32883185469E+02 -0.11146716566E+01  0.47787271609E+02  0.20000002574E+02 0.  0.
         12    1    1    2    0    0  0.28303300963E+02  0.32883185469E+02  0.11146716566E+01  0.43400728391E+02  0.00000000000E+00 0. -1.
         11    1    3    3    0    0 -0.18233388065E+02 -0.24744153077E+02  0.45444167440E+01  0.31070585376E+02  0.51100000000E-03 0. -1.
        -11    1    3    3    0    0 -0.10547132134E+01 -0.49767185294E+01  0.84798666805E+00  0.51574440311E+01  0.51100000000E-03 0.  1.
         12    1    3    3    0    0 -0.90151996852E+01 -0.31623138622E+01 -0.65070750686E+01  0.11559242202E+02  0.00000000000E+00 0. -1.
</event>
<event>
 7    1  0.3851772E-009  0.4778726E+02  0.7816164E-02  0.1312668E+00
        -11   -1    0    0    0    0  0.00000000000E+00  0.00000000000E+00  0.45593999997E+02  0.45594000000E+02  0.51100000000E-03 0.  1.
         11   -1    0    0    0    0 -0.00000000000E+00 -0.00000000000E+00 -0.45593999997E+02  0.45594000000E+02  0.51100000000E-03 0. -1.
    9900012    2    1    2    0    0  0.11015816361E+02  0.11657072093E+02  0.40328507799E+02  0.47787261744E+02  0.19999957596E+02 0.  0.
         12    1    1    2    0    0 -0.11015816361E+02 -0.11657072093E+02 -0.40328507799E+02  0.43400738256E+02  0.00000000000E+00 0. -1.
         11    1    3    3    0    0  0.71035597302E+00 -0.18889426415E+01  0.21086933051E+02  0.21183282457E+02  0.51100000000E-03 0. -1.
        -11    1    3    3    0    0  0.24628820757E+01  0.63165895792E+01  0.36126881647E+01  0.76822267649E+01  0.51100000000E-03 0.  1.
         12    1    3    3    0    0  0.78425783126E+01  0.72294251557E+01  0.15628886583E+02  0.18921752522E+02  0.00000000000E+00 0. -1.
</event>
<event>
 7    1  0.3851772E-009  0.4778727E+02  0.7816164E-02  0.1312668E+00
        -11   -1    0    0    0    0  0.00000000000E+00  0.00000000000E+00  0.45593999997E+02  0.45594000000E+02  0.51100000000E-03 0. -1.
         11   -1    0    0    0    0 -0.00000000000E+00 -0.00000000000E+00 -0.45593999997E+02  0.45594000000E+02  0.51100000000E-03 0.  1.
    9900012    2    1    2    0    0 -0.29823022197E+02 -0.29543205043E+02  0.11018590284E+02  0.47787274787E+02  0.20000017064E+02 0.  0.
         12    1    1    2    0    0  0.29823022197E+02  0.29543205043E+02 -0.11018590284E+02  0.43400725213E+02  0.00000000000E+00 0. -1.
         11    1    3    3    0    0 -0.48736009409E+01 -0.13811493244E+02  0.78250742524E+00  0.14667025939E+02  0.51100000000E-03 0. -1.
        -11    1    3    3    0    0 -0.21572493815E+02 -0.14545550038E+02  0.12520665619E+02  0.28874081511E+02  0.51100000000E-03 0.  1.
        -12    1    3    3    0    0 -0.33769274412E+01 -0.11861617602E+01 -0.22845827602E+01  0.42461673369E+01  0.00000000000E+00 0.  1.
</event>
<event>
 7    1  0.3851772E-009  0.4778728E+02  0.7816164E-02  0.1312668E+00
        -11   -1    0    0    0    0  0.00000000000E+00  0.00000000000E+00  0.45593999997E+02  0.45594000000E+02  0.51100000000E-03 0.  1.
         11   -1    0    0    0    0 -0.00000000000E+00 -0.00000000000E+00 -0.45593999997E+02  0.45594000000E+02  0.51100000000E-03 0. -1.
    9900012    2    1    2    0    0  0.17139649416E+02  0.12502578678E+02  0.37862118730E+02  0.47787284679E+02  0.20000062163E+02 0.  0.
         12    1    1    2    0    0 -0.17139649416E+02 -0.12502578678E+02 -0.37862118730E+02  0.43400715321E+02  0.00000000000E+00 0. -1.
         11    1    3    3    0    0  0.84901307948E+00 -0.20188524721E+01  0.16189527987E+01  0.27235265629E+01  0.51100000000E-03 0. -1.
        -11    1    3    3    0    0  0.18383599519E+02  0.12209209355E+02  0.24773007060E+02  0.33177151827E+02  0.51100000000E-03 0.  1.
        -12    1    3    3    0    0 -0.20929631826E+01  0.23122217954E+01  0.11470158872E+02  0.11886606288E+02  0.00000000000E+00 0.  1.
</event>
<event>
 7    1  0.3851772E-009  0.4778727E+02  0.7816164E-02  0.1312668E+00
        -11   -1    0    0    0    0  0.00000000000E+00  0.00000000000E+00  0.45593999997E+02  0.45594000000E+02  0.51100000000E-03 0. -1.
         11   -1    0    0    0    0 -0.00000000000E+00 -0.00000000000E+00 -0.45593999997E+02  0.45594000000E+02  0.51100000000E-03 0.  1.
    9900012    2    1    2    0    0 -0.14177556909E+02  0.36728186424E+02 -0.18266371019E+02  0.47787272954E+02  0.20000008707E+02 0.  0.
         12    1    1    2    0    0  0.14177556909E+02 -0.36728186424E+02  0.18266371019E+02  0.43400727046E+02  0.00000000000E+00 0. -1.
         11    1    3    3    0    0 -0.27392541902E+01 -0.15625320477E+01 -0.29550215738E+01  0.43217094628E+01  0.51100000000E-03 0. -1.
        -11    1    3    3    0    0 -0.95067432762E+01  0.18548510858E+02 -0.78940762525E+01  0.22287706542E+02  0.51100000000E-03 0.  1.
         12    1    3    3    0    0 -0.19315594422E+01  0.19742207614E+02 -0.74172731926E+01  0.21177856949E+02  0.00000000000E+00 0. -1.
</event>
<event>
 7    1  0.3851772E-009  0.4778728E+02  0.7816164E-02  0.1312668E+00
        -11   -1    0    0    0    0  0.00000000000E+00  0.00000000000E+00  0.45593999997E+02  0.45594000000E+02  0.51100000000E-03 0.  1.
         11   -1    0    0    0    0 -0.00000000000E+00 -0.00000000000E+00 -0.45593999997E+02  0.45594000000E+02  0.51100000000E-03 0. -1.
    9900012    2    1    2    0    0  0.37383569291E+02  0.25736245322E+01  0.21896748051E+02  0.47787281442E+02  0.20000047406E+02 0.  0.
         12    1    1    2    0    0 -0.37383569291E+02 -0.25736245322E+01 -0.21896748051E+02  0.43400718558E+02  0.00000000000E+00 0. -1.
         11    1    3    3    0    0  0.12929283681E+01  0.58046878123E+01  0.46517475872E+01  0.75501536567E+01  0.51100000000E-03 0. -1.
        -11    1    3    3    0    0  0.18315149897E+02 -0.22076488688E+01  0.72711997473E+01  0.19828988258E+02  0.51100000000E-03 0.  1.
         12    1    3    3    0    0  0.17775491025E+02 -0.10234144114E+01  0.99738007167E+01  0.20408139528E+02  0.00000000000E+00 0. -1.
</event>
<event>
 7    1  0.3851772E-009  0.4778727E+02  0.7816164E-02  0.1312668E+00
        -11   -1    0    0    0    0  0.00000000000E+00  0.00000000000E+00  0.45593999997E+02  0.45594000000E+02  0.51100000000E-03 0. -1.
         11   -1    0    0    0    0 -0.00000000000E+00 -0.00000000000E+00 -0.45593999997E+02  0.45594000000E+02  0.51100000000E-03 0.  1.
    9900012    2    1    2    0    0 -0.37122815584E+02  0.10171673820E+01 -0.22460741313E+02  0.47787274583E+02  0.20000016134E+02 0.  0.
         12    1    1    2    0    0  0.37122815584E+02 -0.10171673820E+01  0.22460741313E+02  0.43400725417E+02  0.00000000000E+00 0. -1.
         11    1    3    3    0    0 -0.34311085730E+01  0.72933394796E+00  0.35671942079E+01  0.50029300241E+01  0.51100000000E-03 0. -1.
        -11    1    3    3    0    0 -0.27710652126E+02 -0.23160055367E+00 -0.19316719299E+02  0.33779720615E+02  0.51100000000E-03 0.  1.
         12    1    3    3    0    0 -0.59810548853E+01  0.51943398772E+00 -0.67112162213E+01  0.90046239443E+01  0.00000000000E+00 0. -1.
</event>
<event>
 7    1  0.3851772E-009  0.4778727E+02  0.7816164E-02  0.1312668E+00
        -11   -1    0    0    0    0  0.00000000000E+00  0.00000000000E+00  0.45593999997E+02  0.45594000000E+02  0.51100000000E-03 0.  1.
         11   -1    0    0    0    0 -0.00000000000E+00 -0.00000000000E+00 -0.45593999997E+02  0.45594000000E+02  0.51100000000E-03 0. -1.
    9900012    2    1    2    0    0 -0.12176495024E+02 -0.40457240583E+02  0.99281339406E+01  0.47787272008E+02  0.20000004393E+02 0.  0.
         12    1    1    2    0    0  0.12176495024E+02  0.40457240583E+02 -0.99281339406E+01  0.43400727992E+02  0.00000000000E+00 0. -1.
         11    1    3    3    0    0 -0.13654498339E+01  0.15780348452E+01 -0.21089619060E+00  0.20974090412E+01  0.51100000000E-03 0. -1.
        -11    1    3    3    0    0 -0.10377410712E+02 -0.33606864806E+02  0.43160802700E+01  0.35436429904E+02  0.51100000000E-03 0.  1.
         12    1    3    3    0    0 -0.43363447783E+00 -0.84284106226E+01  0.58229498612E+01  0.10253433063E+02  0.00000000000E+00 0. -1.
</event>
<event>
 7    1  0.3851772E-009  0.4778727E+02  0.7816164E-02  0.1312668E+00
        -11   -1    0    0    0    0  0.00000000000E+00  0.00000000000E+00  0.45593999997E+02  0.45594000000E+02  0.51100000000E-03 0.  1.
         11   -1    0    0    0    0 -0.00000000000E+00 -0.00000000000E+00 -0.45593999997E+02  0.45594000000E+02  0.51100000000E-03 0. -1.
    9900012    2    1    2    0    0  0.10701169535E+02  0.27078247546E+02  0.32185039665E+02  0.47787270768E+02  0.19999998742E+02 0.  0.
         12    1    1    2    0    0 -0.10701169535E+02 -0.27078247546E+02 -0.32185039665E+02  0.43400729232E+02  0.00000000000E+00 0. -1.
         11    1    3    3    0    0  0.56122075232E+01 -0.13480173811E+00  0.12239572138E+02  0.13465592122E+02  0.51100000000E-03 0. -1.
        -11    1    3    3    0    0  0.39163544428E+01  0.18734576437E+02  0.15764111205E+02  0.24795753442E+02  0.51100000000E-03 0.  1.
         12    1    3    3    0    0  0.11726075693E+01  0.84784728462E+01  0.41813563220E+01  0.95259252048E+01  0.00000000000E+00 0. -1.
</event>
<event>
 7    1  0.3851772E-009  0.4778727E+02  0.7816164E-02  0.1312668E+00
        -11   -1    0    0    0    0  0.00000000000E+00  0.00000000000E+00  0.45593999997E+02  0.45594000000E+02  0.51100000000E-03 0.  1.
         11   -1    0    0    0    0 -0.00000000000E+00 -0.00000000000E+00 -0.45593999997E+02  0.45594000000E+02  0.51100000000E-03 0. -1.
    9900012    2    1    2    0    0  0.26246046723E+01 -0.41617302295E+02 -0.12030572088E+02  0.47787273453E+02  0.20000010983E+02 0.  0.
         12    1    1    2    0    0 -0.26246046723E+01  0.41617302295E+02  0.12030572088E+02  0.43400726547E+02  0.00000000000E+00 0. -1.
         11    1    3    3    0    0  0.96461042570E+00 -0.26877530090E+02 -0.10048004758E+02  0.28710529373E+02  0.51100000000E-03 0. -1.
        -11    1    3    3    0    0  0.24578758239E+01 -0.82959134685E+01  0.46266307467E+01  0.98116790699E+01  0.51100000000E-03 0.  1.
        -12    1    3    3    0    0 -0.79788157732E+00 -0.64438587367E+01 -0.66091980767E+01  0.92650650104E+01  0.00000000000E+00 0.  1.
</event>
<event>
 7    1  0.3851772E-009  0.4778727E+02  0.7816164E-02  0.1312668E+00
        -11   -1    0    0    0    0  0.00000000000E+00  0.00000000000E+00  0.45593999997E+02  0.45594000000E+02  0.51100000000E-03 0.  1.
         11   -1    0    0    0    0 -0.00000000000E+00 -0.00000000000E+00 -0.45593999997E+02  0.45594000000E+02  0.51100000000E-03 0. -1.
    9900012    2    1    2    0    0 -0.20260147538E+02  0.27314606900E+02  0.26964088296E+02  0.47787269753E+02  0.19999994110E+02 0.  0.
         12    1    1    2    0    0  0.20260147538E+02 -0.27314606900E+02 -0.26964088296E+02  0.43400730247E+02  0.00000000000E+00 0. -1.
         11    1    3    3    0    0  0.82279071150E+00  0.86340832759E+01  0.12054401056E+02  0.14850352307E+02  0.51100000000E-03 0. -1.
        -11    1    3    3    0    0 -0.10759503555E+02  0.13579569930E+02  0.11952442554E+02  0.21048337690E+02  0.51100000000E-03 0.  1.
         12    1    3    3    0    0 -0.10323434695E+02  0.51009536937E+01  0.29572446872E+01  0.11888579756E+02  0.00000000000E+00 0. -1.
</event>
<event>
 7    1  0.3851772E-009  0.4778727E+02  0.7816164E-02  0.1312668E+00
        -11   -1    0    0    0    0  0.00000000000E+00  0.00000000000E+00  0.45593999997E+02  0.45594000000E+02  0.51100000000E-03 0. -1.
         11   -1    0    0    0    0 -0.00000000000E+00 -0.00000000000E+00 -0.45593999997E+02  0.45594000000E+02  0.51100000000E-03 0.  1.
    9900012    2    1    2    0    0  0.60347420104E+01 -0.41625134705E+02 -0.10702964888E+02  0.47787269502E+02  0.19999992969E+02 0.  0.
         12    1    1    2    0    0 -0.60347420104E+01  0.41625134705E+02  0.10702964888E+02  0.43400730498E+02  0.00000000000E+00 0. -1.
         11    1    3    3    0    0  0.41681781548E+01 -0.11364056840E+02 -0.52140476177E+01  0.13179597483E+02  0.51100000000E-03 0. -1.
        -11    1    3    3    0    0 -0.39736959071E+01 -0.82932090324E+01 -0.73898922106E+01  0.11797376080E+02  0.51100000000E-03 0.  1.
        -12    1    3    3    0    0  0.58402597626E+01 -0.21967868832E+02  0.19009749404E+01  0.22810295940E+02  0.00000000000E+00 0.  1.
</event>
<event>
 7    1  0.3851772E-009  0.4778727E+02  0.7816164E-02  0.1312668E+00
        -11   -1    0    0    0    0  0.00000000000E+00  0.00000000000E+00  0.45593999997E+02  0.45594000000E+02  0.51100000000E-03 0. -1.
         11   -1    0    0    0    0 -0.00000000000E+00 -0.00000000000E+00 -0.45593999997E+02  0.45594000000E+02  0.51100000000E-03 0.  1.
    9900012    2    1    2    0    0  0.14728144832E+02 -0.58416696136E+01 -0.40405196487E+02  0.47787271236E+02  0.20000000872E+02 0.  0.
         12    1    1    2    0    0 -0.14728144832E+02  0.58416696136E+01  0.40405196487E+02  0.43400728764E+02  0.00000000000E+00 0. -1.
         11    1    3    3    0    0  0.34346257196E+01 -0.94113656392E+01 -0.12046264279E+02  0.15667895212E+02  0.51100000000E-03 0. -1.
        -11    1    3    3    0    0 -0.67132061576E+00  0.86114670189E+00 -0.98734605217E+01  0.99336533031E+01  0.51100000000E-03 0.  1.
         12    1    3    3    0    0  0.11964839728E+02  0.27085493236E+01 -0.18485471686E+02  0.22185722720E+02  0.00000000000E+00 0. -1.
</event>
<event>
 7    1  0.3851772E-009  0.4778726E+02  0.7816164E-02  0.1312668E+00
        -11   -1    0    0    0    0  0.00000000000E+00  0.00000000000E+00  0.45593999997E+02  0.45594000000E+02  0.51100000000E-03 0.  1.
         11   -1    0    0    0    0 -0.00000000000E+00 -0.00000000000E+00 -0.45593999997E+02  0.45594000000E+02  0.51100000000E-03 0. -1.
    9900012    2    1    2    0    0 -0.15087322284E+02 -0.14636460837E+02  0.37970653419E+02  0.47787264977E+02  0.19999972334E+02 0.  0.
         12    1    1    2    0    0  0.15087322284E+02  0.14636460837E+02 -0.37970653419E+02  0.43400735023E+02  0.00000000000E+00 0. -1.
         11    1    3    3    0    0 -0.28107412201E+01 -0.84933584297E+00 -0.91911622039E+00  0.30767535598E+01  0.51100000000E-03 0. -1.
        -11    1    3    3    0    0 -0.73156306811E+01 -0.26398336024E+01  0.25198294660E+02  0.26371219686E+02  0.51100000000E-03 0.  1.
        -12    1    3    3    0    0 -0.49609503831E+01 -0.11147291392E+02  0.13691474979E+02  0.18339291730E+02  0.00000000000E+00 0.  1.
</event>
<event>
 7    1  0.3851772E-009  0.4778727E+02  0.7816164E-02  0.1312668E+00
        -11   -1    0    0    0    0  0.00000000000E+00  0.00000000000E+00  0.45593999997E+02  0.45594000000E+02  0.51100000000E-03 0. -1.
         11   -1    0    0    0    0 -0.00000000000E+00 -0.00000000000E+00 -0.45593999997E+02  0.45594000000E+02  0.51100000000E-03 0.  1.
    9900012    2    1    2    0    0 -0.41288574031E+02 -0.19907403258E+01  0.13225501127E+02  0.47787271059E+02  0.20000000065E+02 0.  0.
         12    1    1    2    0    0  0.41288574031E+02  0.19907403258E+01 -0.13225501127E+02  0.43400728941E+02  0.00000000000E+00 0. -1.
         11    1    3    3    0    0 -0.21663113726E+02  0.59588734049E+01  0.29265637677E+00  0.22469630984E+02  0.51100000000E-03 0. -1.
        -11    1    3    3    0    0 -0.15440232745E+02 -0.39056807254E+01  0.89993663975E+01  0.18293269936E+02  0.51100000000E-03 0.  1.
         12    1    3    3    0    0 -0.41852275604E+01 -0.40439330053E+01  0.39334783532E+01  0.70243701383E+01  0.00000000000E+00 0. -1.
</event>
<event>
 7    1  0.3851772E-009  0.4778727E+02  0.7816164E-02  0.1312668E+00
        -11   -1    0    0    0    0  0.00000000000E+00  0.00000000000E+00  0.45593999997E+02  0.45594000000E+02  0.51100000000E-03 0.  1.
         11   -1    0    0    0    0 -0.00000000000E+00 -0.00000000000E+00 -0.45593999997E+02  0.45594000000E+02  0.51100000000E-03 0. -1.
    9900012    2    1    2    0    0  0.98043697392E+00 -0.10550896877E+02  0.42087296619E+02  0.47787271686E+02  0.20000002923E+02 0.  0.
         12    1    1    2    0    0 -0.98043697392E+00  0.10550896877E+02 -0.42087296619E+02  0.43400728314E+02  0.00000000000E+00 0. -1.
         11    1    3    3    0    0  0.40403622494E+01 -0.26820293377E+01  0.34556815489E+01  0.59547916591E+01  0.51100000000E-03 0. -1.
        -11    1    3    3    0    0 -0.62968989013E+01 -0.16773504464E+01  0.30138492449E+02  0.30834934209E+02  0.51100000000E-03 0.  1.
        -12    1    3    3    0    0  0.32369736258E+01 -0.61915170928E+01  0.84931226208E+01  0.10997545818E+02  0.00000000000E+00 0.  1.
</event>
<event>
 7    1  0.3851772E-009  0.4778727E+02  0.7816164E-02  0.1312668E+00
        -11   -1    0    0    0    0  0.00000000000E+00  0.00000000000E+00  0.45593999997E+02  0.45594000000E+02  0.51100000000E-03 0. -1.
         11   -1    0    0    0    0 -0.00000000000E+00 -0.00000000000E+00 -0.45593999997E+02  0.45594000000E+02  0.51100000000E-03 0.  1.
    9900012    2    1    2    0    0  0.39767034398E+02 -0.12775254596E+02 -0.11789780663E+02  0.47787273244E+02  0.20000010031E+02 0.  0.
         12    1    1    2    0    0 -0.39767034398E+02  0.12775254596E+02  0.11789780663E+02  0.43400726756E+02  0.00000000000E+00 0. -1.
         11    1    3    3    0    0  0.10127934725E+02 -0.10872943262E+01  0.41098300001E+01  0.10983987147E+02  0.51100000000E-03 0. -1.
        -11    1    3    3    0    0  0.29159876279E+02 -0.91364195731E+01 -0.15112269263E+02  0.34090368578E+02  0.51100000000E-03 0.  1.
        -12    1    3    3    0    0  0.47922339391E+00 -0.25515406971E+01 -0.78734140020E+00  0.27129175200E+01  0.00000000000E+00 0.  1.
</event>
<event>
 7    1  0.3851772E-009  0.4778727E+02  0.7816164E-02  0.1312668E+00
        -11   -1    0    0    0    0  0.00000000000E+00  0.00000000000E+00  0.45593999997E+02  0.45594000000E+02  0.51100000000E-03 0.  1.
         11   -1    0    0    0    0 -0.00000000000E+00 -0.00000000000E+00 -0.45593999997E+02  0.45594000000E+02  0.51100000000E-03 0. -1.
    9900012    2    1    2    0    0  0.11274665460E+02 -0.16876136890E+02  0.38362754780E+02  0.47787273832E+02  0.20000012710E+02 0.  0.
         12    1    1    2    0    0 -0.11274665460E+02  0.16876136890E+02 -0.38362754780E+02  0.43400726168E+02  0.00000000000E+00 0. -1.
         11    1    3    3    0    0 -0.31298786970E+01  0.21682909573E+01  0.37516844201E+01  0.53453496221E+01  0.51100000000E-03 0. -1.
        -11    1    3    3    0    0  0.94308798017E+01 -0.77639072187E+01  0.18085282292E+02  0.21824233892E+02  0.51100000000E-03 0.  1.
         12    1    3    3    0    0  0.49736643552E+01 -0.11280520629E+02  0.16525788068E+02  0.20617690318E+02  0.00000000000E+00 0. -1.
</event>
<event>
 7    1  0.3851772E-009  0.4778727E+02  0.7816164E-02  0.1312668E+00
        -11   -1    0    0    0    0  0.00000000000E+00  0.00000000000E+00  0.45593999997E+02  0.45594000000E+02  0.51100000000E-03 0. -1.
         11   -1    0    0    0    0 -0.00000000000E+00 -0.00000000000E+00 -0.45593999997E+02  0.45594000000E+02  0.51100000000E-03 0.  1.
    9900012    2    1    2    0    0 -0.28939589269E+02  0.16912419690E+02 -0.27569793642E+02  0.47787270878E+02  0.19999999242E+02 0.  0.
         12    1    1    2    0    0  0.28939589269E+02 -0.16912419690E+02  0.27569793642E+02  0.43400729122E+02  0.00000000000E+00 0. -1.
         11    1    3    3    0    0 -0.18147119547E+01 -0.23023527700E+01  0.89007010044E+00  0.30636959381E+01  0.51100000000E-03 0. -1.
        -11    1    3    3    0    0 -0.87714080583E+00  0.37238376354E+01 -0.17880125710E+01  0.42229529885E+01  0.51100000000E-03 0.  1.
         12    1    3    3    0    0 -0.26247736508E+02  0.15490934825E+02 -0.26671851172E+02  0.40500621952E+02  0.00000000000E+00 0. -1.
</event>
<event>
 7    1  0.3851772E-009  0.4778728E+02  0.7816164E-02  0.1312668E+00
        -11   -1    0    0    0    0  0.00000000000E+00  0.00000000000E+00  0.45593999997E+02  0.45594000000E+02  0.51100000000E-03 0.  1.
         11   -1    0    0    0    0 -0.00000000000E+00 -0.00000000000E+00 -0.45593999997E+02  0.45594000000E+02  0.51100000000E-03 0. -1.
    9900012    2    1    2    0    0 -0.42366365840E+01 -0.27065988651E+02  0.33661634615E+02  0.47787280235E+02  0.20000041901E+02 0.  0.
         12    1    1    2    0    0  0.42366365840E+01  0.27065988651E+02 -0.33661634615E+02  0.43400719765E+02  0.00000000000E+00 0. -1.
         11    1    3    3    0    0 -0.15211040275E+01 -0.24429435257E+02  0.24514147799E+02  0.34641802884E+02  0.51100000000E-03 0. -1.
        -11    1    3    3    0    0  0.20832041681E+01 -0.17356855437E+01  0.75278276997E+01  0.80012832752E+01  0.51100000000E-03 0.  1.
         12    1    3    3    0    0 -0.47987367246E+01 -0.90086785075E+00  0.16196591156E+01  0.51441940756E+01  0.00000000000E+00 0. -1.
</event>
<event>
 7    1  0.3851772E-009  0.4778727E+02  0.7816164E-02  0.1312668E+00
        -11   -1    0    0    0    0  0.00000000000E+00  0.00000000000E+00  0.45593999997E+02  0.45594000000E+02  0.51100000000E-03 0.  1.
         11   -1    0    0    0    0 -0.00000000000E+00 -0.00000000000E+00 -0.45593999997E+02  0.45594000000E+02  0.51100000000E-03 0. -1.
    9900012    2    1    2    0    0  0.15786298449E+02  0.37595951213E+02  0.14864735632E+02  0.47787272682E+02  0.20000007466E+02 0.  0.
         12    1    1    2    0    0 -0.15786298449E+02 -0.37595951213E+02 -0.14864735632E+02  0.43400727318E+02  0.00000000000E+00 0. -1.
         11    1    3    3    0    0  0.19960302886E+01 -0.20673293919E+01  0.28012413472E+01  0.40130961955E+01  0.51100000000E-03 0. -1.
        -11    1    3    3    0    0  0.57089404816E+01  0.20495070154E+02  0.59060402994E+01  0.22079882570E+02  0.51100000000E-03 0.  1.
         12    1    3    3    0    0  0.80813276793E+01  0.19168210451E+02  0.61574539852E+01  0.21694293916E+02  0.00000000000E+00 0. -1.
</event>
<event>
 7    1  0.3851772E-009  0.4778724E+02  0.7816164E-02  0.1312668E+00
        -11   -1    0    0    0    0  0.00000000000E+00  0.00000000000E+00  0.45593999997E+02  0.45594000000E+02  0.51100000000E-03 0.  1.
         11   -1    0    0    0    0 -0.00000000000E+00 -0.00000000000E+00 -0.45593999997E+02  0.45594000000E+02  0.51100000000E-03 0. -1.
    9900012    2    1    2    0    0  0.34456469654E+02 -0.24017410973E+02  0.10933499005E+02  0.47787242733E+02  0.19999870917E+02 0.  0.
         12    1    1    2    0    0 -0.34456469654E+02  0.24017410973E+02 -0.10933499005E+02  0.43400757267E+02  0.00000000000E+00 0. -1.
         11    1    3    3    0    0  0.10026137220E+02 -0.60703232910E+01 -0.20246044464E+01  0.11894169826E+02  0.51100000000E-03 0. -1.
        -11    1    3    3    0    0  0.26218309348E+02 -0.16163885118E+02  0.11029996838E+02  0.32715925138E+02  0.51100000000E-03 0.  1.
        -12    1    3    3    0    0 -0.17879769145E+01 -0.17832025638E+01  0.19281066143E+01  0.31771477690E+01  0.00000000000E+00 0.  1.
</event>
<event>
 7    1  0.3851772E-009  0.4778725E+02  0.7816164E-02  0.1312668E+00
        -11   -1    0    0    0    0  0.00000000000E+00  0.00000000000E+00  0.45593999997E+02  0.45594000000E+02  0.51100000000E-03 0.  1.
         11   -1    0    0    0    0 -0.00000000000E+00 -0.00000000000E+00 -0.45593999997E+02  0.45594000000E+02  0.51100000000E-03 0. -1.
    9900012    2    1    2    0    0  0.52754093350E+01  0.16969808230E+02  0.39595716984E+02  0.47787249563E+02  0.19999902057E+02 0.  0.
         12    1    1    2    0    0 -0.52754093350E+01 -0.16969808230E+02 -0.39595716984E+02  0.43400750437E+02  0.00000000000E+00 0. -1.
         11    1    3    3    0    0 -0.78909523006E+00 -0.86355279574E+00  0.13414920897E+01  0.17798865135E+01  0.51100000000E-03 0. -1.
        -11    1    3    3    0    0  0.50403173990E+01  0.16203097995E+02  0.14924586856E+02  0.22598417582E+02  0.51100000000E-03 0.  1.
        -12    1    3    3    0    0  0.10241871661E+01  0.16302630306E+01  0.23329638039E+02  0.23408945468E+02  0.00000000000E+00 0.  1.
</event>
<event>
 7    1  0.3851772E-009  0.4778727E+02  0.7816164E-02  0.1312668E+00
        -11   -1    0    0    0    0  0.00000000000E+00  0.00000000000E+00  0.45593999997E+02  0.45594000000E+02  0.51100000000E-03 0.  1.
         11   -1    0    0    0    0 -0.00000000000E+00 -0.00000000000E+00 -0.45593999997E+02  0.45594000000E+02  0.51100000000E-03 0. -1.
    9900012    2    1    2    0    0 -0.41043692220E+02 -0.43415049840E+01  0.13423481333E+02  0.47787272038E+02  0.20000004529E+02 0.  0.
         12    1    1    2    0    0  0.41043692220E+02  0.43415049840E+01 -0.13423481333E+02  0.43400727962E+02  0.00000000000E+00 0. -1.
         11    1    3    3    0    0 -0.14819050336E+02 -0.87531287964E+01  0.37690406357E+01  0.17618943900E+02  0.51100000000E-03 0. -1.
        -11    1    3    3    0    0 -0.13363244562E+02  0.38495272058E+01  0.10257747103E+02  0.17280524900E+02  0.51100000000E-03 0.  1.
         12    1    3    3    0    0 -0.12861397322E+02  0.56209660667E+00 -0.60330640594E+00  0.12887803237E+02  0.00000000000E+00 0. -1.
</event>
<event>
 7    1  0.3851772E-009  0.4778727E+02  0.7816164E-02  0.1312668E+00
        -11   -1    0    0    0    0  0.00000000000E+00  0.00000000000E+00  0.45593999997E+02  0.45594000000E+02  0.51100000000E-03 0.  1.
         11   -1    0    0    0    0 -0.00000000000E+00 -0.00000000000E+00 -0.45593999997E+02  0.45594000000E+02  0.51100000000E-03 0. -1.
    9900012    2    1    2    0    0  0.17766607631E+01  0.43149203495E+02 -0.43142732000E+01  0.47787271447E+02  0.20000001834E+02 0.  0.
         12    1    1    2    0    0 -0.17766607631E+01 -0.43149203495E+02  0.43142732000E+01  0.43400728553E+02  0.00000000000E+00 0. -1.
         11    1    3    3    0    0 -0.15848769314E+00  0.17628321065E+02 -0.89062630021E+01  0.19751059284E+02  0.51100000000E-03 0. -1.
        -11    1    3    3    0    0 -0.36064159432E+01  0.17017989975E+02  0.16768077335E+01  0.17476552954E+02  0.51100000000E-03 0.  1.
         12    1    3    3    0    0  0.55415643994E+01  0.85028924557E+01  0.29151820687E+01  0.10559659208E+02  0.00000000000E+00 0. -1.
</event>
<event>
 7    1  0.3851772E-009  0.4778727E+02  0.7816164E-02  0.1312668E+00
        -11   -1    0    0    0    0  0.00000000000E+00  0.00000000000E+00  0.45593999997E+02  0.45594000000E+02  0.51100000000E-03 0.  1.
         11   -1    0    0    0    0 -0.00000000000E+00 -0.00000000000E+00 -0.45593999997E+02  0.45594000000E+02  0.51100000000E-03 0. -1.
    9900012    2    1    2    0    0 -0.33129927477E+02 -0.62575210676E+01  0.27329004768E+02  0.47787272285E+02  0.20000005658E+02 0.  0.
         12    1    1    2    0    0  0.33129927477E+02  0.62575210676E+01 -0.27329004768E+02  0.43400727715E+02  0.00000000000E+00 0. -1.
         11    1    3    3    0    0 -0.11263452598E+02 -0.53353945697E+01  0.14346524735E+01  0.12545518228E+02  0.51100000000E-03 0. -1.
        -11    1    3    3    0    0 -0.92776283721E+01  0.37789018808E+01  0.14496153559E+02  0.17620810308E+02  0.51100000000E-03 0.  1.
        -12    1    3    3    0    0 -0.12588846507E+02 -0.47010283787E+01  0.11398198736E+02  0.17620943749E+02  0.00000000000E+00 0.  1.
</event>
<event>
 7    1  0.3851772E-009  0.4778727E+02  0.7816164E-02  0.1312668E+00
        -11   -1    0    0    0    0  0.00000000000E+00  0.00000000000E+00  0.45593999997E+02  0.45594000000E+02  0.51100000000E-03 0. -1.
         11   -1    0    0    0    0 -0.00000000000E+00 -0.00000000000E+00 -0.45593999997E+02  0.45594000000E+02  0.51100000000E-03 0.  1.
    9900012    2    1    2    0    0  0.29770008744E+02  0.21475267604E+02  0.23155624255E+02  0.47787268740E+02  0.19999989494E+02 0.  0.
         12    1    1    2    0    0 -0.29770008744E+02 -0.21475267604E+02 -0.23155624255E+02  0.43400731260E+02  0.00000000000E+00 0. -1.
         11    1    3    3    0    0  0.20695321442E+02  0.18421861622E+02  0.10739874764E+02  0.29715420667E+02  0.51100000000E-03 0. -1.
        -11    1    3    3    0    0  0.48698957802E+01  0.29669484976E+01  0.85043512529E+00  0.57655796293E+01  0.51100000000E-03 0.  1.
         12    1    3    3    0    0  0.42047915215E+01  0.86457484098E-01  0.11565314366E+02  0.12306268444E+02  0.00000000000E+00 0. -1.
</event>
<event>
 7    1  0.3851772E-009  0.4778727E+02  0.7816164E-02  0.1312668E+00
        -11   -1    0    0    0    0  0.00000000000E+00  0.00000000000E+00  0.45593999997E+02  0.45594000000E+02  0.51100000000E-03 0.  1.
         11   -1    0    0    0    0 -0.00000000000E+00 -0.00000000000E+00 -0.45593999997E+02  0.45594000000E+02  0.51100000000E-03 0. -1.
    9900012    2    1    2    0    0 -0.48561945611E+01  0.41174796010E+02  0.12832634683E+02  0.47787274603E+02  0.20000016227E+02 0.  0.
         12    1    1    2    0    0  0.48561945611E+01 -0.41174796010E+02 -0.12832634683E+02  0.43400725397E+02  0.00000000000E+00 0. -1.
         11    1    3    3    0    0  0.32441222438E+01  0.73076431132E+00  0.17726032884E+00  0.33301301922E+01  0.51100000000E-03 0. -1.
        -11    1    3    3    0    0 -0.38336120279E+01  0.21870803080E+02  0.12328666768E+02  0.25397335157E+02  0.51100000000E-03 0.  1.
         12    1    3    3    0    0 -0.42667047770E+01  0.18573228618E+02  0.32670758631E+00  0.19059809254E+02  0.00000000000E+00 0. -1.
</event>
<event>
 7    1  0.3851772E-009  0.4778727E+02  0.7816164E-02  0.1312668E+00
        -11   -1    0    0    0    0  0.00000000000E+00  0.00000000000E+00  0.45593999997E+02  0.45594000000E+02  0.51100000000E-03 0.  1.
         11   -1    0    0    0    0 -0.00000000000E+00 -0.00000000000E+00 -0.45593999997E+02  0.45594000000E+02  0.51100000000E-03 0. -1.
    9900012    2    1    2    0    0 -0.30428078576E+02  0.33700509438E+01  0.30763581565E+02  0.47787272357E+02  0.20000005984E+02 0.  0.
         12    1    1    2    0    0  0.30428078576E+02 -0.33700509438E+01 -0.30763581565E+02  0.43400727643E+02  0.00000000000E+00 0. -1.
         11    1    3    3    0    0 -0.83987375173E+01 -0.54757486547E+01  0.25845768061E+01  0.10353871389E+02  0.51100000000E-03 0. -1.
        -11    1    3    3    0    0 -0.32712781073E+01  0.37319467703E+01  0.79810008553E+01  0.93981414155E+01  0.51100000000E-03 0.  1.
         12    1    3    3    0    0 -0.18758062952E+02  0.51138528282E+01  0.20198003904E+02  0.28035259552E+02  0.00000000000E+00 0. -1.
</event>
<event>
 7    1  0.3851772E-009  0.4778727E+02  0.7816164E-02  0.1312668E+00
        -11   -1    0    0    0    0  0.00000000000E+00  0.00000000000E+00  0.45593999997E+02  0.45594000000E+02  0.51100000000E-03 0. -1.
         11   -1    0    0    0    0 -0.00000000000E+00 -0.00000000000E+00 -0.45593999997E+02  0.45594000000E+02  0.51100000000E-03 0.  1.
    9900012    2    1    2    0    0  0.19581600326E+02  0.94330873329E+01 -0.37565953018E+02  0.47787273806E+02  0.20000012593E+02 0.  0.
         12    1    1    2    0    0 -0.19581600326E+02 -0.94330873329E+01  0.37565953018E+02  0.43400726194E+02  0.00000000000E+00 0. -1.
         11    1    3    3    0    0  0.88571392193E+01  0.12889473903E+02 -0.13994153837E+02  0.20986276338E+02  0.51100000000E-03 0. -1.
        -11    1    3    3    0    0  0.81367887567E+01 -0.14996515769E+00 -0.18540413788E+02  0.20247882964E+02  0.51100000000E-03 0.  1.
         12    1    3    3    0    0  0.25876723497E+01 -0.33064214121E+01 -0.50313853931E+01  0.65531145052E+01  0.00000000000E+00 0. -1.
</event>
<event>
 7    1  0.3851772E-009  0.4778727E+02  0.7816164E-02  0.1312668E+00
        -11   -1    0    0    0    0  0.00000000000E+00  0.00000000000E+00  0.45593999997E+02  0.45594000000E+02  0.51100000000E-03 0.  1.
         11   -1    0    0    0    0 -0.00000000000E+00 -0.00000000000E+00 -0.45593999997E+02  0.45594000000E+02  0.51100000000E-03 0. -1.
    9900012    2    1    2    0    0  0.36458457332E+02 -0.14682727384E+02  0.18407109868E+02  0.47787270880E+02  0.19999999252E+02 0.  0.
         12    1    1    2    0    0 -0.36458457332E+02  0.14682727384E+02 -0.18407109868E+02  0.43400729120E+02  0.00000000000E+00 0. -1.
         11    1    3    3    0    0  0.28547420082E+02 -0.12984280531E+02  0.83509956375E+01  0.32454365849E+02  0.51100000000E-03 0. -1.
        -11    1    3    3    0    0 -0.91580188749E+00 -0.23339389884E+01  0.10865261694E+01  0.27324903800E+01  0.51100000000E-03 0.  1.
        -12    1    3    3    0    0  0.88268391374E+01  0.63549213560E+00  0.89695880609E+01  0.12600414652E+02  0.00000000000E+00 0.  1.
</event>
<event>
 7    1  0.3851772E-009  0.4778727E+02  0.7816164E-02  0.1312668E+00
        -11   -1    0    0    0    0  0.00000000000E+00  0.00000000000E+00  0.45593999997E+02  0.45594000000E+02  0.51100000000E-03 0.  1.
         11   -1    0    0    0    0 -0.00000000000E+00 -0.00000000000E+00 -0.45593999997E+02  0.45594000000E+02  0.51100000000E-03 0. -1.
    9900012    2    1    2    0    0  0.24694273767E+02  0.22119743332E+02  0.28009514780E+02  0.47787272815E+02  0.20000008072E+02 0.  0.
         12    1    1    2    0    0 -0.24694273767E+02 -0.22119743332E+02 -0.28009514780E+02  0.43400727185E+02  0.00000000000E+00 0. -1.
         11    1    3    3    0    0  0.13698589671E+02  0.38480396023E+01  0.54089884480E+01  0.15222218105E+02  0.51100000000E-03 0. -1.
        -11    1    3    3    0    0  0.16326824377E+01  0.67877291378E+01  0.13439513546E+02  0.15144617638E+02  0.51100000000E-03 0.  1.
        -12    1    3    3    0    0  0.93630016588E+01  0.11483974592E+02  0.91610127864E+01  0.17420437072E+02  0.00000000000E+00 0.  1.
</event>
<event>
 7    1  0.3851772E-009  0.4778727E+02  0.7816164E-02  0.1312668E+00
        -11   -1    0    0    0    0  0.00000000000E+00  0.00000000000E+00  0.45593999997E+02  0.45594000000E+02  0.51100000000E-03 0. -1.
         11   -1    0    0    0    0 -0.00000000000E+00 -0.00000000000E+00 -0.45593999997E+02  0.45594000000E+02  0.51100000000E-03 0.  1.
    9900012    2    1    2    0    0  0.33690794078E+02  0.25900875082E+02  0.88146725126E+01  0.47787269740E+02  0.19999994053E+02 0.  0.
         12    1    1    2    0    0 -0.33690794078E+02 -0.25900875082E+02 -0.88146725126E+01  0.43400730260E+02  0.00000000000E+00 0. -1.
         11    1    3    3    0    0  0.20288434308E+02  0.11241862527E+02  0.11623731270E+02  0.25944386072E+02  0.51100000000E-03 0. -1.
        -11    1    3    3    0    0  0.10285933018E+02  0.69232641035E+01  0.14412910883E+01  0.12482360520E+02  0.51100000000E-03 0.  1.
         12    1    3    3    0    0  0.31164267520E+01  0.77357484511E+01 -0.42503498454E+01  0.93605231482E+01  0.00000000000E+00 0. -1.
</event>
<event>
 7    1  0.3851772E-009  0.4778727E+02  0.7816164E-02  0.1312668E+00
        -11   -1    0    0    0    0  0.00000000000E+00  0.00000000000E+00  0.45593999997E+02  0.45594000000E+02  0.51100000000E-03 0. -1.
         11   -1    0    0    0    0 -0.00000000000E+00 -0.00000000000E+00 -0.45593999997E+02  0.45594000000E+02  0.51100000000E-03 0.  1.
    9900012    2    1    2    0    0 -0.83276372026E+01 -0.19929908594E+02 -0.37644023698E+02  0.47787270535E+02  0.19999997676E+02 0.  0.
         12    1    1    2    0    0  0.83276372026E+01  0.19929908594E+02  0.37644023698E+02  0.43400729465E+02  0.00000000000E+00 0. -1.
         11    1    3    3    0    0 -0.51110476167E+01 -0.90620180217E+01 -0.24774116174E+01  0.10694884148E+02  0.51100000000E-03 0. -1.
        -11    1    3    3    0    0 -0.38974933361E+01 -0.90551293254E+01 -0.29620785067E+02  0.31218211506E+02  0.51100000000E-03 0.  1.
         12    1    3    3    0    0  0.68090375014E+00 -0.18127612470E+01 -0.55458270137E+01  0.58741748801E+01  0.00000000000E+00 0. -1.
</event>
<event>
 7    1  0.3851772E-009  0.4778727E+02  0.7816164E-02  0.1312668E+00
        -11   -1    0    0    0    0  0.00000000000E+00  0.00000000000E+00  0.45593999997E+02  0.45594000000E+02  0.51100000000E-03 0.  1.
         11   -1    0    0    0    0 -0.00000000000E+00 -0.00000000000E+00 -0.45593999997E+02  0.45594000000E+02  0.51100000000E-03 0. -1.
    9900012    2    1    2    0    0 -0.12141656691E+02 -0.30812940445E+02  0.28049354519E+02  0.47787269418E+02  0.19999992585E+02 0.  0.
         12    1    1    2    0    0  0.12141656691E+02  0.30812940445E+02 -0.28049354519E+02  0.43400730582E+02  0.00000000000E+00 0. -1.
         11    1    3    3    0    0 -0.91089561310E+00 -0.19322726375E+02  0.12791190303E+02  0.23190774783E+02  0.51100000000E-03 0. -1.
        -11    1    3    3    0    0 -0.11930581116E+02 -0.11710118859E+02  0.16282652965E+02  0.23336461542E+02  0.51100000000E-03 0.  1.
        -12    1    3    3    0    0  0.69982003809E+00  0.21990478872E+00 -0.10244887484E+01  0.12600330938E+01  0.00000000000E+00 0.  1.
</event>
<event>
 7    1  0.3851772E-009  0.4778727E+02  0.7816164E-02  0.1312668E+00
        -11   -1    0    0    0    0  0.00000000000E+00  0.00000000000E+00  0.45593999997E+02  0.45594000000E+02  0.51100000000E-03 0.  1.
         11   -1    0    0    0    0 -0.00000000000E+00 -0.00000000000E+00 -0.45593999997E+02  0.45594000000E+02  0.51100000000E-03 0. -1.
    9900012    2    1    2    0    0 -0.19228182309E+02  0.52596195735E+01  0.38551739315E+02  0.47787271928E+02  0.20000004029E+02 0.  0.
         12    1    1    2    0    0  0.19228182309E+02 -0.52596195735E+01 -0.38551739315E+02  0.43400728072E+02  0.00000000000E+00 0. -1.
         11    1    3    3    0    0 -0.38656490471E+01 -0.33702831460E+01  0.71077270178E+01  0.87648065957E+01  0.51100000000E-03 0. -1.
        -11    1    3    3    0    0 -0.45446969838E+01  0.95369087891E+01  0.82170644539E+01  0.13383835341E+02  0.51100000000E-03 0.  1.
        -12    1    3    3    0    0 -0.10817836278E+02 -0.90700606963E+00  0.23226947843E+02  0.25638629992E+02  0.00000000000E+00 0.  1.
</event>
<event>
 7    1  0.3851772E-009  0.4778727E+02  0.7816164E-02  0.1312668E+00
        -11   -1    0    0    0    0  0.00000000000E+00  0.00000000000E+00  0.45593999997E+02  0.45594000000E+02  0.51100000000E-03 0.  1.
         11   -1    0    0    0    0 -0.00000000000E+00 -0.00000000000E+00 -0.45593999997E+02  0.45594000000E+02  0.51100000000E-03 0. -1.
    9900012    2    1    2    0    0 -0.36485099782E+02  0.12816624859E+02  0.19702670554E+02  0.47787267220E+02  0.19999982561E+02 0.  0.
         12    1    1    2    0    0  0.36485099782E+02 -0.12816624859E+02 -0.19702670554E+02  0.43400732780E+02  0.00000000000E+00 0. -1.
         11    1    3    3    0    0 -0.20275051021E+02  0.41727568215E+01  0.16388268467E+02  0.26401987368E+02  0.51100000000E-03 0.  1.
        -11    1    3    3    0    0 -0.89220341507E+01  0.99791623666E+01  0.39283243188E+01  0.13950559384E+02  0.51100000000E-03 0. -1.
         12    1    3    3    0    0 -0.72880146109E+01 -0.13352943294E+01 -0.61392223135E+00  0.74347204669E+01  0.00000000000E+00 0. -1.
</event>
<event>
 7    1  0.3851772E-009  0.4778727E+02  0.7816164E-02  0.1312668E+00
        -11   -1    0    0    0    0  0.00000000000E+00  0.00000000000E+00  0.45593999997E+02  0.45594000000E+02  0.51100000000E-03 0.  1.
         11   -1    0    0    0    0 -0.00000000000E+00 -0.00000000000E+00 -0.45593999997E+02  0.45594000000E+02  0.51100000000E-03 0. -1.
    9900012    2    1    2    0    0 -0.11423994325E+01  0.14810779701E+02  0.40779396462E+02  0.47787269043E+02  0.19999990873E+02 0.  0.
         12    1    1    2    0    0  0.11423994325E+01 -0.14810779701E+02 -0.40779396462E+02  0.43400730957E+02  0.00000000000E+00 0. -1.
         11    1    3    3    0    0  0.59550120203E+01  0.70747576260E+01  0.85535892027E+01  0.12596755620E+02  0.51100000000E-03 0. -1.
        -11    1    3    3    0    0 -0.40884611111E+01  0.96736000075E+01  0.22600556031E+02  0.24921460321E+02  0.51100000000E-03 0.  1.
         12    1    3    3    0    0 -0.30089503418E+01 -0.19375779324E+01  0.96252512289E+01  0.10269053103E+02  0.00000000000E+00 0. -1.
</event>
<event>
 7    1  0.3851772E-009  0.4778727E+02  0.7816164E-02  0.1312668E+00
        -11   -1    0    0    0    0  0.00000000000E+00  0.00000000000E+00  0.45593999997E+02  0.45594000000E+02  0.51100000000E-03 0. -1.
         11   -1    0    0    0    0 -0.00000000000E+00 -0.00000000000E+00 -0.45593999997E+02  0.45594000000E+02  0.51100000000E-03 0.  1.
    9900012    2    1    2    0    0 -0.17215001868E+02  0.37144976548E+02  0.14405478088E+02  0.47787269925E+02  0.19999994896E+02 0.  0.
         12    1    1    2    0    0  0.17215001868E+02 -0.37144976548E+02 -0.14405478088E+02  0.43400730075E+02  0.00000000000E+00 0. -1.
         11    1    3    3    0    0 -0.22570790679E+01  0.29510502359E+01 -0.44824076169E+01  0.58219482752E+01  0.51100000000E-03 0. -1.
        -11    1    3    3    0    0 -0.72000445446E+01  0.16590843699E+02  0.11041429358E+02  0.21189853671E+02  0.51100000000E-03 0.  1.
         12    1    3    3    0    0 -0.77578782558E+01  0.17603082614E+02  0.78464563470E+01  0.20775467979E+02  0.00000000000E+00 0. -1.
</event>
<event>
 7    1  0.3851772E-009  0.4778727E+02  0.7816164E-02  0.1312668E+00
        -11   -1    0    0    0    0  0.00000000000E+00  0.00000000000E+00  0.45593999997E+02  0.45594000000E+02  0.51100000000E-03 0.  1.
         11   -1    0    0    0    0 -0.00000000000E+00 -0.00000000000E+00 -0.45593999997E+02  0.45594000000E+02  0.51100000000E-03 0. -1.
    9900012    2    1    2    0    0 -0.15244417594E+02 -0.35251596530E+02 -0.20212769781E+02  0.47787269730E+02  0.19999994008E+02 0.  0.
         12    1    1    2    0    0  0.15244417594E+02  0.35251596530E+02  0.20212769781E+02  0.43400730270E+02  0.00000000000E+00 0. -1.
         11    1    3    3    0    0  0.64185414867E+00 -0.13414004290E+01  0.42327239671E+00  0.15461214836E+01  0.51100000000E-03 0.  1.
        -11    1    3    3    0    0 -0.10092328896E+02 -0.56668861384E+01 -0.10651671340E+02  0.15729806218E+02  0.51100000000E-03 0. -1.
        -12    1    3    3    0    0 -0.57939428465E+01 -0.28243309963E+02 -0.99843708377E+01  0.30511342029E+02  0.00000000000E+00 0.  1.
</event>
<event>
 7    1  0.3851772E-009  0.4778727E+02  0.7816164E-02  0.1312668E+00
        -11   -1    0    0    0    0  0.00000000000E+00  0.00000000000E+00  0.45593999997E+02  0.45594000000E+02  0.51100000000E-03 0.  1.
         11   -1    0    0    0    0 -0.00000000000E+00 -0.00000000000E+00 -0.45593999997E+02  0.45594000000E+02  0.51100000000E-03 0. -1.
    9900012    2    1    2    0    0  0.31872429881E+02 -0.22008495076E+02  0.19580540973E+02  0.47787271586E+02  0.20000002471E+02 0.  0.
         12    1    1    2    0    0 -0.31872429881E+02  0.22008495076E+02 -0.19580540973E+02  0.43400728414E+02  0.00000000000E+00 0. -1.
         11    1    3    3    0    0 -0.11598981910E+01  0.12585659449E+01  0.34197924505E+01  0.38241773909E+01  0.51100000000E-03 0. -1.
        -11    1    3    3    0    0  0.29020480472E+02 -0.19952773963E+02  0.11704366528E+02  0.37111907412E+02  0.51100000000E-03 0.  1.
        -12    1    3    3    0    0  0.40118475998E+01 -0.33142870572E+01  0.44563819946E+01  0.68511867835E+01  0.00000000000E+00 0.  1.
</event>
<event>
 7    1  0.3851772E-009  0.4778727E+02  0.7816164E-02  0.1312668E+00
        -11   -1    0    0    0    0  0.00000000000E+00  0.00000000000E+00  0.45593999997E+02  0.45594000000E+02  0.51100000000E-03 0.  1.
         11   -1    0    0    0    0 -0.00000000000E+00 -0.00000000000E+00 -0.45593999997E+02  0.45594000000E+02  0.51100000000E-03 0. -1.
    9900012    2    1    2    0    0 -0.19511778146E+02 -0.16956389881E+02  0.34862511037E+02  0.47787270513E+02  0.19999997575E+02 0.  0.
         12    1    1    2    0    0  0.19511778146E+02  0.16956389881E+02 -0.34862511037E+02  0.43400729487E+02  0.00000000000E+00 0. -1.
         11    1    3    3    0    0 -0.11261361614E+02 -0.42297853718E+01  0.44157963832E+01  0.12814390647E+02  0.51100000000E-03 0. -1.
        -11    1    3    3    0    0 -0.44422795707E+00 -0.26131091717E+01  0.92845729027E+00  0.28085069382E+01  0.51100000000E-03 0.  1.
         12    1    3    3    0    0 -0.78061885748E+01 -0.10113495337E+02  0.29518257364E+02  0.32164372927E+02  0.00000000000E+00 0. -1.
</event>
<event>
 7    1  0.3851772E-009  0.4778727E+02  0.7816164E-02  0.1312668E+00
        -11   -1    0    0    0    0  0.00000000000E+00  0.00000000000E+00  0.45593999997E+02  0.45594000000E+02  0.51100000000E-03 0. -1.
         11   -1    0    0    0    0 -0.00000000000E+00 -0.00000000000E+00 -0.45593999997E+02  0.45594000000E+02  0.51100000000E-03 0.  1.
    9900012    2    1    2    0    0 -0.10499332875E+02 -0.23419889337E+02 -0.34998522498E+02  0.47787265162E+02  0.19999973180E+02 0.  0.
         12    1    1    2    0    0  0.10499332875E+02  0.23419889337E+02  0.34998522498E+02  0.43400734838E+02  0.00000000000E+00 0. -1.
         11    1    3    3    0    0 -0.71134804721E+00 -0.98230147468E+00 -0.16005205692E+02  0.16051091605E+02  0.51100000000E-03 0. -1.
        -11    1    3    3    0    0 -0.85413938946E+01 -0.11124419752E+02 -0.11081220520E+02  0.17874606931E+02  0.51100000000E-03 0.  1.
         12    1    3    3    0    0 -0.12465909331E+01 -0.11313168111E+02 -0.79120962871E+01  0.13861566626E+02  0.00000000000E+00 0. -1.
</event>
<event>
 7    1  0.3851772E-009  0.4778727E+02  0.7816164E-02  0.1312668E+00
        -11   -1    0    0    0    0  0.00000000000E+00  0.00000000000E+00  0.45593999997E+02  0.45594000000E+02  0.51100000000E-03 0.  1.
         11   -1    0    0    0    0 -0.00000000000E+00 -0.00000000000E+00 -0.45593999997E+02  0.45594000000E+02  0.51100000000E-03 0. -1.
    9900012    2    1    2    0    0  0.30081654685E+01 -0.42846541537E+02  0.62248009557E+01  0.47787270420E+02  0.19999997151E+02 0.  0.
         12    1    1    2    0    0 -0.30081654685E+01  0.42846541537E+02 -0.62248009557E+01  0.43400729580E+02  0.00000000000E+00 0. -1.
         11    1    3    3    0    0  0.15866167500E+01 -0.22080481249E-01  0.35538078551E+01  0.38919649011E+01  0.51100000000E-03 0.  1.
        -11    1    3    3    0    0  0.38573098693E+01 -0.28252390348E+02 -0.14679668285E+01  0.28552256070E+02  0.51100000000E-03 0. -1.
        -12    1    3    3    0    0 -0.24357611507E+01 -0.14572070707E+02  0.41389599290E+01  0.15343049448E+02  0.00000000000E+00 0.  1.
</event>
<event>
 7    1  0.3851772E-009  0.4778728E+02  0.7816164E-02  0.1312668E+00
        -11   -1    0    0    0    0  0.00000000000E+00  0.00000000000E+00  0.45593999997E+02  0.45594000000E+02  0.51100000000E-03 0.  1.
         11   -1    0    0    0    0 -0.00000000000E+00 -0.00000000000E+00 -0.45593999997E+02  0.45594000000E+02  0.51100000000E-03 0. -1.
    9900012    2    1    2    0    0 -0.41515672067E+02  0.10069183777E+02  0.76604574808E+01  0.47787284592E+02  0.20000061768E+02 0.  0.
         12    1    1    2    0    0  0.41515672067E+02 -0.10069183777E+02 -0.76604574808E+01  0.43400715408E+02  0.00000000000E+00 0. -1.
         11    1    3    3    0    0 -0.38894423064E+02  0.11588638565E+02  0.42789414169E+01  0.40809092482E+02  0.51100000000E-03 0. -1.
        -11    1    3    3    0    0 -0.37043135803E+01 -0.18291615041E+01  0.39505324125E+01  0.57161593323E+01  0.51100000000E-03 0.  1.
         12    1    3    3    0    0  0.10830645770E+01  0.30970671536E+00 -0.56901634858E+00  0.12620327779E+01  0.00000000000E+00 0. -1.
</event>
<event>
 7    1  0.3851772E-009  0.4778727E+02  0.7816164E-02  0.1312668E+00
        -11   -1    0    0    0    0  0.00000000000E+00  0.00000000000E+00  0.45593999997E+02  0.45594000000E+02  0.51100000000E-03 0.  1.
         11   -1    0    0    0    0 -0.00000000000E+00 -0.00000000000E+00 -0.45593999997E+02  0.45594000000E+02  0.51100000000E-03 0. -1.
    9900012    2    1    2    0    0  0.28960260024E+02  0.15870727280E+02  0.28161086971E+02  0.47787268849E+02  0.19999989990E+02 0.  0.
         12    1    1    2    0    0 -0.28960260024E+02 -0.15870727280E+02 -0.28161086971E+02  0.43400731151E+02  0.00000000000E+00 0. -1.
         11    1    3    3    0    0  0.17933115173E+02  0.14921695688E+01  0.68225959353E+01  0.19245025471E+02  0.51100000000E-03 0. -1.
        -11    1    3    3    0    0  0.94606387865E+01  0.10781040597E+02  0.19505196927E+02  0.24211303765E+02  0.51100000000E-03 0.  1.
         12    1    3    3    0    0  0.15665060648E+01  0.35975171140E+01  0.18332941088E+01  0.43309396124E+01  0.00000000000E+00 0. -1.
</event>
<event>
 7    1  0.3851772E-009  0.4778727E+02  0.7816164E-02  0.1312668E+00
        -11   -1    0    0    0    0  0.00000000000E+00  0.00000000000E+00  0.45593999997E+02  0.45594000000E+02  0.51100000000E-03 0.  1.
         11   -1    0    0    0    0 -0.00000000000E+00 -0.00000000000E+00 -0.45593999997E+02  0.45594000000E+02  0.51100000000E-03 0. -1.
    9900012    2    1    2    0    0 -0.12418817372E+02 -0.84938134130E+01  0.40709350079E+02  0.47787273334E+02  0.20000010441E+02 0.  0.
         12    1    1    2    0    0  0.12418817372E+02  0.84938134130E+01 -0.40709350079E+02  0.43400726666E+02  0.00000000000E+00 0. -1.
         11    1    3    3    0    0  0.96686057770E+00 -0.78527372500E+01  0.15304868562E+02  0.17229025035E+02  0.51100000000E-03 0. -1.
        -11    1    3    3    0    0 -0.12700980208E+02 -0.32976115331E+01  0.24268631186E+02  0.27589048551E+02  0.51100000000E-03 0.  1.
         12    1    3    3    0    0 -0.68469774198E+00  0.26565353700E+01  0.11358503319E+01  0.29691997485E+01  0.00000000000E+00 0. -1.
</event>
<event>
 7    1  0.3851772E-009  0.4778727E+02  0.7816164E-02  0.1312668E+00
        -11   -1    0    0    0    0  0.00000000000E+00  0.00000000000E+00  0.45593999997E+02  0.45594000000E+02  0.51100000000E-03 0.  1.
         11   -1    0    0    0    0 -0.00000000000E+00 -0.00000000000E+00 -0.45593999997E+02  0.45594000000E+02  0.51100000000E-03 0. -1.
    9900012    2    1    2    0    0  0.37212558301E+02 -0.21904203455E+02 -0.43651708495E+01  0.47787270273E+02  0.19999996481E+02 0.  0.
         12    1    1    2    0    0 -0.37212558301E+02  0.21904203455E+02  0.43651708495E+01  0.43400729727E+02  0.00000000000E+00 0. -1.
         11    1    3    3    0    0  0.16399995196E+02 -0.15312956775E+02  0.30599220325E+01  0.22645299970E+02  0.51100000000E-03 0.  1.
        -11    1    3    3    0    0  0.20816004130E+02 -0.44803523286E+01 -0.83049857414E+01  0.22855029498E+02  0.51100000000E-03 0. -1.
        -12    1    3    3    0    0 -0.34410240898E-02 -0.21108943509E+01  0.87989285934E+00  0.22869408049E+01  0.00000000000E+00 0.  1.
</event>
<event>
 7    1  0.3851772E-009  0.4778727E+02  0.7816164E-02  0.1312668E+00
        -11   -1    0    0    0    0  0.00000000000E+00  0.00000000000E+00  0.45593999997E+02  0.45594000000E+02  0.51100000000E-03 0.  1.
         11   -1    0    0    0    0 -0.00000000000E+00 -0.00000000000E+00 -0.45593999997E+02  0.45594000000E+02  0.51100000000E-03 0. -1.
    9900012    2    1    2    0    0  0.28530348439E+01  0.37738499900E+02  0.21243563573E+02  0.47787272175E+02  0.20000005153E+02 0.  0.
         12    1    1    2    0    0 -0.28530348439E+01 -0.37738499900E+02 -0.21243563573E+02  0.43400727825E+02  0.00000000000E+00 0. -1.
         11    1    3    3    0    0  0.32598817603E+01  0.12272346705E+02 -0.20055482037E+01  0.12855331446E+02  0.51100000000E-03 0. -1.
        -11    1    3    3    0    0  0.17789272424E+01  0.29186769492E+01  0.30913343607E+01  0.46086446661E+01  0.51100000000E-03 0.  1.
         12    1    3    3    0    0 -0.21857741588E+01  0.22547476246E+02  0.20157777416E+02  0.30323296062E+02  0.00000000000E+00 0. -1.
</event>
<event>
 7    1  0.3851772E-009  0.4778727E+02  0.7816164E-02  0.1312668E+00
        -11   -1    0    0    0    0  0.00000000000E+00  0.00000000000E+00  0.45593999997E+02  0.45594000000E+02  0.51100000000E-03 0. -1.
         11   -1    0    0    0    0 -0.00000000000E+00 -0.00000000000E+00 -0.45593999997E+02  0.45594000000E+02  0.51100000000E-03 0.  1.
    9900012    2    1    2    0    0 -0.40249842663E+02  0.16059460756E+02  0.23805215709E+01  0.47787274233E+02  0.20000014537E+02 0.  0.
         12    1    1    2    0    0  0.40249842663E+02 -0.16059460756E+02 -0.23805215709E+01  0.43400725767E+02  0.00000000000E+00 0. -1.
         11    1    3    3    0    0 -0.57329909994E+01  0.45636055655E+01 -0.51130138705E+01  0.89351324925E+01  0.51100000000E-03 0.  1.
        -11    1    3    3    0    0 -0.29987370712E+02  0.11177415693E+02  0.10171878631E+02  0.33580413025E+02  0.51100000000E-03 0. -1.
        -12    1    3    3    0    0 -0.45294809514E+01  0.31843949770E+00 -0.26783431897E+01  0.52717287150E+01  0.00000000000E+00 0.  1.
</event>
<event>
 7    1  0.3851772E-009  0.4778727E+02  0.7816164E-02  0.1312668E+00
        -11   -1    0    0    0    0  0.00000000000E+00  0.00000000000E+00  0.45593999997E+02  0.45594000000E+02  0.51100000000E-03 0.  1.
         11   -1    0    0    0    0 -0.00000000000E+00 -0.00000000000E+00 -0.45593999997E+02  0.45594000000E+02  0.51100000000E-03 0. -1.
    9900012    2    1    2    0    0  0.12788402621E+02 -0.41391523319E+02  0.26118365719E+01  0.47787272650E+02  0.20000007320E+02 0.  0.
         12    1    1    2    0    0 -0.12788402621E+02  0.41391523319E+02 -0.26118365719E+01  0.43400727350E+02  0.00000000000E+00 0. -1.
         11    1    3    3    0    0  0.69093760151E+01 -0.12998228343E+02 -0.39873272395E+01  0.15250973600E+02  0.51100000000E-03 0.  1.
        -11    1    3    3    0    0  0.21982310102E+01 -0.98356530971E+01  0.89410701459E+01  0.13472751279E+02  0.51100000000E-03 0. -1.
        -12    1    3    3    0    0  0.36807955956E+01 -0.18557641879E+02 -0.23419063345E+01  0.19063547771E+02  0.00000000000E+00 0.  1.
</event>
<event>
 7    1  0.3851772E-009  0.4778727E+02  0.7816164E-02  0.1312668E+00
        -11   -1    0    0    0    0  0.00000000000E+00  0.00000000000E+00  0.45593999997E+02  0.45594000000E+02  0.51100000000E-03 0.  1.
         11   -1    0    0    0    0 -0.00000000000E+00 -0.00000000000E+00 -0.45593999997E+02  0.45594000000E+02  0.51100000000E-03 0. -1.
    9900012    2    1    2    0    0  0.13921140842E+02  0.23400479229E+02  0.33797086135E+02  0.47787267037E+02  0.19999981730E+02 0.  0.
         12    1    1    2    0    0 -0.13921140842E+02 -0.23400479229E+02 -0.33797086135E+02  0.43400732963E+02  0.00000000000E+00 0. -1.
         11    1    3    3    0    0  0.12714876311E+02  0.15596579106E+02  0.31716052321E+02  0.37561008167E+02  0.51100000000E-03 0. -1.
        -11    1    3    3    0    0  0.36314451840E+01  0.57955273427E+01  0.10928933775E+01  0.69260340384E+01  0.51100000000E-03 0.  1.
         12    1    3    3    0    0 -0.24251806526E+01  0.20083727802E+01  0.98814043621E+00  0.33002248323E+01  0.00000000000E+00 0. -1.
</event>
<event>
 7    1  0.3851772E-009  0.4778722E+02  0.7816164E-02  0.1312668E+00
        -11   -1    0    0    0    0  0.00000000000E+00  0.00000000000E+00  0.45593999997E+02  0.45594000000E+02  0.51100000000E-03 0.  1.
         11   -1    0    0    0    0 -0.00000000000E+00 -0.00000000000E+00 -0.45593999997E+02  0.45594000000E+02  0.51100000000E-03 0. -1.
    9900012    2    1    2    0    0  0.25783167690E+02 -0.27131592805E+02  0.21971176407E+02  0.47787220549E+02  0.19999769770E+02 0.  0.
         12    1    1    2    0    0 -0.25783167690E+02  0.27131592805E+02 -0.21971176407E+02  0.43400779451E+02  0.00000000000E+00 0. -1.
         11    1    3    3    0    0 -0.16925402908E+00 -0.17928736876E+01 -0.51242620678E+00  0.18723311312E+01  0.51100000000E-03 0. -1.
        -11    1    3    3    0    0  0.35712480488E+01 -0.11080277284E+02  0.13663388623E+02  0.17950335547E+02  0.51100000000E-03 0.  1.
        -12    1    3    3    0    0  0.22381173671E+02 -0.14258441833E+02  0.88202139903E+01  0.27964553871E+02  0.00000000000E+00 0.  1.
</event>
<event>
 7    1  0.3851772E-009  0.4778727E+02  0.7816164E-02  0.1312668E+00
        -11   -1    0    0    0    0  0.00000000000E+00  0.00000000000E+00  0.45593999997E+02  0.45594000000E+02  0.51100000000E-03 0.  1.
         11   -1    0    0    0    0 -0.00000000000E+00 -0.00000000000E+00 -0.45593999997E+02  0.45594000000E+02  0.51100000000E-03 0. -1.
    9900012    2    1    2    0    0 -0.15605072147E+01  0.79487191053E+01  0.42638081393E+02  0.47787270708E+02  0.19999998465E+02 0.  0.
         12    1    1    2    0    0  0.15605072147E+01 -0.79487191053E+01 -0.42638081393E+02  0.43400729292E+02  0.00000000000E+00 0. -1.
         11    1    3    3    0    0  0.23522503926E+01  0.33592803833E+01  0.52400784990E+01  0.66540415944E+01  0.51100000000E-03 0. -1.
        -11    1    3    3    0    0 -0.53440392103E+01 -0.47781722225E+01  0.21050897297E+02  0.22238029637E+02  0.51100000000E-03 0.  1.
        -12    1    3    3    0    0  0.14312816030E+01  0.93676109445E+01  0.16347105598E+02  0.18895199476E+02  0.00000000000E+00 0.  1.
</event>
<event>
 7    1  0.3851772E-009  0.4778727E+02  0.7816164E-02  0.1312668E+00
        -11   -1    0    0    0    0  0.00000000000E+00  0.00000000000E+00  0.45593999997E+02  0.45594000000E+02  0.51100000000E-03 0.  1.
         11   -1    0    0    0    0 -0.00000000000E+00 -0.00000000000E+00 -0.45593999997E+02  0.45594000000E+02  0.51100000000E-03 0. -1.
    9900012    2    1    2    0    0 -0.10342822998E+02 -0.22075639560E+02  0.35907036717E+02  0.47787272641E+02  0.20000007277E+02 0.  0.
         12    1    1    2    0    0  0.10342822998E+02  0.22075639560E+02 -0.35907036717E+02  0.43400727359E+02  0.00000000000E+00 0. -1.
         11    1    3    3    0    0 -0.96400193702E+01 -0.99373277530E+01  0.23854253479E+02  0.27580896751E+02  0.51100000000E-03 0. -1.
        -11    1    3    3    0    0  0.19160000168E+00 -0.64429723051E+01  0.12859998118E+02  0.14384997551E+02  0.51100000000E-03 0.  1.
         12    1    3    3    0    0 -0.89440362903E+00 -0.56953395018E+01 -0.80721487993E+00  0.58213783380E+01  0.00000000000E+00 0. -1.
</event>
<event>
 7    1  0.3851772E-009  0.4778728E+02  0.7816164E-02  0.1312668E+00
        -11   -1    0    0    0    0  0.00000000000E+00  0.00000000000E+00  0.45593999997E+02  0.45594000000E+02  0.51100000000E-03 0.  1.
         11   -1    0    0    0    0 -0.00000000000E+00 -0.00000000000E+00 -0.45593999997E+02  0.45594000000E+02  0.51100000000E-03 0. -1.
    9900012    2    1    2    0    0 -0.13670458355E+02 -0.97515551563E+01  0.40020601021E+02  0.47787276899E+02  0.20000026693E+02 0.  0.
         12    1    1    2    0    0  0.13670458355E+02  0.97515551563E+01 -0.40020601021E+02  0.43400723101E+02  0.00000000000E+00 0. -1.
         11    1    3    3    0    0  0.31358466566E+01  0.11370123975E+01  0.13712491731E+01  0.36064741787E+01  0.51100000000E-03 0. -1.
        -11    1    3    3    0    0  0.59767093930E+00 -0.13557658350E+01  0.18308562443E+01  0.23552805352E+01  0.51100000000E-03 0.  1.
         12    1    3    3    0    0 -0.17403975951E+02 -0.95328017188E+01  0.36818495604E+02  0.41825522185E+02  0.00000000000E+00 0. -1.
</event>
<event>
 7    1  0.3851772E-009  0.4778726E+02  0.7816164E-02  0.1312668E+00
        -11   -1    0    0    0    0  0.00000000000E+00  0.00000000000E+00  0.45593999997E+02  0.45594000000E+02  0.51100000000E-03 0. -1.
         11   -1    0    0    0    0 -0.00000000000E+00 -0.00000000000E+00 -0.45593999997E+02  0.45594000000E+02  0.51100000000E-03 0.  1.
    9900012    2    1    2    0    0  0.11817607903E+02 -0.25290729292E+02  0.33231716253E+02  0.47787264871E+02  0.19999971852E+02 0.  0.
         12    1    1    2    0    0 -0.11817607903E+02  0.25290729292E+02 -0.33231716253E+02  0.43400735129E+02  0.00000000000E+00 0. -1.
         11    1    3    3    0    0 -0.62155591871E+00 -0.20288617989E+02  0.15428901323E+02  0.25496379115E+02  0.51100000000E-03 0. -1.
        -11    1    3    3    0    0  0.79893957100E+01 -0.30959984373E+01  0.11076772360E+02  0.14003947169E+02  0.51100000000E-03 0.  1.
         12    1    3    3    0    0  0.44497681115E+01 -0.19061128658E+01  0.67260425693E+01  0.82869385872E+01  0.00000000000E+00 0. -1.
</event>
<event>
 7    1  0.3851772E-009  0.4778726E+02  0.7816164E-02  0.1312668E+00
        -11   -1    0    0    0    0  0.00000000000E+00  0.00000000000E+00  0.45593999997E+02  0.45594000000E+02  0.51100000000E-03 0.  1.
         11   -1    0    0    0    0 -0.00000000000E+00 -0.00000000000E+00 -0.45593999997E+02  0.45594000000E+02  0.51100000000E-03 0. -1.
    9900012    2    1    2    0    0 -0.60155942951E+01  0.20691087947E+02  0.37673804110E+02  0.47787262549E+02  0.19999961266E+02 0.  0.
         12    1    1    2    0    0  0.60155942951E+01 -0.20691087947E+02 -0.37673804110E+02  0.43400737451E+02  0.00000000000E+00 0. -1.
         11    1    3    3    0    0 -0.41737787028E+01 -0.14633873859E+01  0.14992216834E+01  0.46700746480E+01  0.51100000000E-03 0. -1.
        -11    1    3    3    0    0 -0.57621139917E+00  0.21303439507E+02  0.30274355458E+02  0.37023035438E+02  0.51100000000E-03 0.  1.
         12    1    3    3    0    0 -0.12656041932E+01  0.85103582505E+00  0.59002269693E+01  0.60941524627E+01  0.00000000000E+00 0. -1.
</event>
<event>
 7    1  0.3851772E-009  0.4778727E+02  0.7816164E-02  0.1312668E+00
        -11   -1    0    0    0    0  0.00000000000E+00  0.00000000000E+00  0.45593999997E+02  0.45594000000E+02  0.51100000000E-03 0. -1.
         11   -1    0    0    0    0 -0.00000000000E+00 -0.00000000000E+00 -0.45593999997E+02  0.45594000000E+02  0.51100000000E-03 0.  1.
    9900012    2    1    2    0    0  0.23397916788E+02  0.25398395546E+02 -0.26288437873E+02  0.47787274521E+02  0.20000015850E+02 0.  0.
         12    1    1    2    0    0 -0.23397916788E+02 -0.25398395546E+02  0.26288437873E+02  0.43400725479E+02  0.00000000000E+00 0. -1.
         11    1    3    3    0    0  0.21094825417E+02  0.20750194237E+02 -0.16638216594E+02  0.33946906662E+02  0.51100000000E-03 0. -1.
        -11    1    3    3    0    0  0.53187358778E+01  0.42739448765E+01 -0.59568855500E+01  0.90575958102E+01  0.51100000000E-03 0.  1.
         12    1    3    3    0    0 -0.30156445061E+01  0.37425643262E+00 -0.36933357286E+01  0.47827720486E+01  0.00000000000E+00 0. -1.
</event>
<event>
 7    1  0.3851772E-009  0.4778727E+02  0.7816164E-02  0.1312668E+00
        -11   -1    0    0    0    0  0.00000000000E+00  0.00000000000E+00  0.45593999997E+02  0.45594000000E+02  0.51100000000E-03 0.  1.
         11   -1    0    0    0    0 -0.00000000000E+00 -0.00000000000E+00 -0.45593999997E+02  0.45594000000E+02  0.51100000000E-03 0. -1.
    9900012    2    1    2    0    0 -0.28755737890E+02 -0.13061245465E+01  0.32481148807E+02  0.47787269006E+02  0.19999990708E+02 0.  0.
         12    1    1    2    0    0  0.28755737890E+02  0.13061245465E+01 -0.32481148807E+02  0.43400730994E+02  0.00000000000E+00 0. -1.
         11    1    3    3    0    0 -0.15965893259E+02 -0.48429500901E+01  0.13394290747E+02  0.21395582208E+02  0.51100000000E-03 0. -1.
        -11    1    3    3    0    0 -0.14179233988E+02  0.61591518196E+00  0.11940384562E+02  0.18547312790E+02  0.51100000000E-03 0.  1.
         12    1    3    3    0    0  0.13893893566E+01  0.29209103616E+01  0.71464734976E+01  0.78443740079E+01  0.00000000000E+00 0. -1.
</event>
<event>
 7    1  0.3851772E-009  0.4778725E+02  0.7816164E-02  0.1312668E+00
        -11   -1    0    0    0    0  0.00000000000E+00  0.00000000000E+00  0.45593999997E+02  0.45594000000E+02  0.51100000000E-03 0.  1.
         11   -1    0    0    0    0 -0.00000000000E+00 -0.00000000000E+00 -0.45593999997E+02  0.45594000000E+02  0.51100000000E-03 0. -1.
    9900012    2    1    2    0    0  0.25760901121E+02 -0.34115854345E+02 -0.74906210123E+01  0.47787251765E+02  0.19999912095E+02 0.  0.
         12    1    1    2    0    0 -0.25760901121E+02  0.34115854345E+02  0.74906210123E+01  0.43400748235E+02  0.00000000000E+00 0. -1.
         11    1    3    3    0    0  0.68161644618E+01 -0.76910640095E+01 -0.77999999659E+01  0.12901649635E+02  0.51100000000E-03 0. -1.
        -11    1    3    3    0    0  0.13372231615E+02 -0.87569662573E+01  0.26842459739E+01  0.16208214371E+02  0.51100000000E-03 0.  1.
        -12    1    3    3    0    0  0.55725050440E+01 -0.17667824078E+02 -0.23748670203E+01  0.18677387759E+02  0.00000000000E+00 0.  1.
</event>
<event>
 7    1  0.3851772E-009  0.4778727E+02  0.7816164E-02  0.1312668E+00
        -11   -1    0    0    0    0  0.00000000000E+00  0.00000000000E+00  0.45593999997E+02  0.45594000000E+02  0.51100000000E-03 0.  1.
         11   -1    0    0    0    0 -0.00000000000E+00 -0.00000000000E+00 -0.45593999997E+02  0.45594000000E+02  0.51100000000E-03 0. -1.
    9900012    2    1    2    0    0  0.28105031931E+02 -0.80071262760E+01  0.32087638910E+02  0.47787268879E+02  0.19999990126E+02 0.  0.
         12    1    1    2    0    0 -0.28105031931E+02  0.80071262760E+01 -0.32087638910E+02  0.43400731121E+02  0.00000000000E+00 0. -1.
         11    1    3    3    0    0 -0.26927438011E+01 -0.31187207816E+01  0.33576209188E+01  0.53151582278E+01  0.51100000000E-03 0. -1.
        -11    1    3    3    0    0  0.15111471328E+02 -0.33390414191E+01  0.13135637584E+02  0.20299032940E+02  0.51100000000E-03 0.  1.
         12    1    3    3    0    0  0.15686304404E+02 -0.15493640753E+01  0.15594380408E+02  0.22173077711E+02  0.00000000000E+00 0. -1.
</event>
<event>
 7    1  0.3851772E-009  0.4778728E+02  0.7816164E-02  0.1312668E+00
        -11   -1    0    0    0    0  0.00000000000E+00  0.00000000000E+00  0.45593999997E+02  0.45594000000E+02  0.51100000000E-03 0.  1.
         11   -1    0    0    0    0 -0.00000000000E+00 -0.00000000000E+00 -0.45593999997E+02  0.45594000000E+02  0.51100000000E-03 0. -1.
    9900012    2    1    2    0    0 -0.19504658758E+01  0.28931064247E+01  0.43260238111E+02  0.47787279000E+02  0.20000036273E+02 0.  0.
         12    1    1    2    0    0  0.19504658758E+01 -0.28931064247E+01 -0.43260238111E+02  0.43400721000E+02  0.00000000000E+00 0. -1.
         11    1    3    3    0    0  0.13303697351E+01 -0.34171263803E+00  0.60088200558E+00  0.14992366740E+01  0.51100000000E-03 0. -1.
        -11    1    3    3    0    0 -0.42882286588E+01  0.98054639146E+01  0.20125043953E+02  0.22793714528E+02  0.51100000000E-03 0.  1.
        -12    1    3    3    0    0  0.10073930479E+01 -0.65706448519E+01  0.22534312152E+02  0.23494327799E+02  0.00000000000E+00 0.  1.
</event>
<event>
 7    1  0.3851772E-009  0.4778727E+02  0.7816164E-02  0.1312668E+00
        -11   -1    0    0    0    0  0.00000000000E+00  0.00000000000E+00  0.45593999997E+02  0.45594000000E+02  0.51100000000E-03 0.  1.
         11   -1    0    0    0    0 -0.00000000000E+00 -0.00000000000E+00 -0.45593999997E+02  0.45594000000E+02  0.51100000000E-03 0. -1.
    9900012    2    1    2    0    0 -0.35823006726E+02  0.23524597807E+02  0.68504544922E+01  0.47787271439E+02  0.20000001799E+02 0.  0.
         12    1    1    2    0    0  0.35823006726E+02 -0.23524597807E+02 -0.68504544922E+01  0.43400728561E+02  0.00000000000E+00 0. -1.
         11    1    3    3    0    0 -0.14441291283E+02  0.15898010026E+02  0.30707478650E+01  0.21696246436E+02  0.51100000000E-03 0. -1.
        -11    1    3    3    0    0 -0.10784368063E+02 -0.16449770661E-01  0.67087085942E+01  0.12700773062E+02  0.51100000000E-03 0.  1.
        -12    1    3    3    0    0 -0.10597347380E+02  0.76430375521E+01 -0.29290019669E+01  0.13390251940E+02  0.00000000000E+00 0.  1.
</event>
<event>
 7    1  0.3851772E-009  0.4778727E+02  0.7816164E-02  0.1312668E+00
        -11   -1    0    0    0    0  0.00000000000E+00  0.00000000000E+00  0.45593999997E+02  0.45594000000E+02  0.51100000000E-03 0.  1.
         11   -1    0    0    0    0 -0.00000000000E+00 -0.00000000000E+00 -0.45593999997E+02  0.45594000000E+02  0.51100000000E-03 0. -1.
    9900012    2    1    2    0    0 -0.38269127370E+02  0.13671888329E+02 -0.15237342438E+02  0.47787271381E+02  0.20000001533E+02 0.  0.
         12    1    1    2    0    0  0.38269127370E+02 -0.13671888329E+02  0.15237342438E+02  0.43400728619E+02  0.00000000000E+00 0. -1.
         11    1    3    3    0    0 -0.79899035758E+01 -0.20739271628E+01  0.33529202420E+01  0.89096468751E+01  0.51100000000E-03 0. -1.
        -11    1    3    3    0    0 -0.19373650952E+02  0.97678561633E+01 -0.12302112933E+02  0.24941759122E+02  0.51100000000E-03 0.  1.
         12    1    3    3    0    0 -0.10905572842E+02  0.59779593286E+01 -0.62881497465E+01  0.13935865383E+02  0.00000000000E+00 0. -1.
</event>
<event>
 7    1  0.3851772E-009  0.4778727E+02  0.7816164E-02  0.1312668E+00
        -11   -1    0    0    0    0  0.00000000000E+00  0.00000000000E+00  0.45593999997E+02  0.45594000000E+02  0.51100000000E-03 0. -1.
         11   -1    0    0    0    0 -0.00000000000E+00 -0.00000000000E+00 -0.45593999997E+02  0.45594000000E+02  0.51100000000E-03 0.  1.
    9900012    2    1    2    0    0 -0.40868415166E+02 -0.93159165676E+01  0.11252089964E+02  0.47787272031E+02  0.20000004500E+02 0.  0.
         12    1    1    2    0    0  0.40868415166E+02  0.93159165676E+01 -0.11252089964E+02  0.43400727969E+02  0.00000000000E+00 0. -1.
         11    1    3    3    0    0 -0.15627405326E+02 -0.62694022594E+01 -0.39585450152E+01  0.17297146609E+02  0.51100000000E-03 0. -1.
        -11    1    3    3    0    0 -0.23149490855E+02 -0.15419374118E+01  0.11298199158E+02  0.25805538210E+02  0.51100000000E-03 0.  1.
         12    1    3    3    0    0 -0.20915189850E+01 -0.15045768964E+01  0.39124358211E+01  0.46845872129E+01  0.00000000000E+00 0. -1.
</event>
<event>
 7    1  0.3851772E-009  0.4778728E+02  0.7816164E-02  0.1312668E+00
        -11   -1    0    0    0    0  0.00000000000E+00  0.00000000000E+00  0.45593999997E+02  0.45594000000E+02  0.51100000000E-03 0. -1.
         11   -1    0    0    0    0 -0.00000000000E+00 -0.00000000000E+00 -0.45593999997E+02  0.45594000000E+02  0.51100000000E-03 0.  1.
    9900012    2    1    2    0    0 -0.10649848613E+02 -0.41934893218E+02  0.34158977013E+01  0.47787275331E+02  0.20000019546E+02 0.  0.
         12    1    1    2    0    0  0.10649848613E+02  0.41934893218E+02 -0.34158977013E+01  0.43400724669E+02  0.00000000000E+00 0. -1.
         11    1    3    3    0    0  0.30574345638E+01 -0.14378763136E+02 -0.20230887912E+01  0.14838787820E+02  0.51100000000E-03 0. -1.
        -11    1    3    3    0    0 -0.95906412770E+01 -0.79474770959E+01  0.18123337459E+01  0.12586792529E+02  0.51100000000E-03 0.  1.
        -12    1    3    3    0    0 -0.41166418997E+01 -0.19608652985E+02  0.36266527467E+01  0.20361694983E+02  0.00000000000E+00 0.  1.
</event>
<event>
 7    1  0.3851772E-009  0.4778727E+02  0.7816164E-02  0.1312668E+00
        -11   -1    0    0    0    0  0.00000000000E+00  0.00000000000E+00  0.45593999997E+02  0.45594000000E+02  0.51100000000E-03 0.  1.
         11   -1    0    0    0    0 -0.00000000000E+00 -0.00000000000E+00 -0.45593999997E+02  0.45594000000E+02  0.51100000000E-03 0. -1.
    9900012    2    1    2    0    0  0.15172057272E+02 -0.30283997293E+01  0.40549483679E+02  0.47787272433E+02  0.20000006329E+02 0.  0.
         12    1    1    2    0    0 -0.15172057272E+02  0.30283997293E+01 -0.40549483679E+02  0.43400727567E+02  0.00000000000E+00 0. -1.
         11    1    3    3    0    0  0.12947790106E+02 -0.37048341604E+01  0.19704083500E+02  0.23866754526E+02  0.51100000000E-03 0. -1.
        -11    1    3    3    0    0 -0.87151831951E+00  0.52691972567E+01  0.14736986288E+02  0.15674908263E+02  0.51100000000E-03 0.  1.
         12    1    3    3    0    0  0.30957854855E+01 -0.45927628255E+01  0.61084138903E+01  0.82456096439E+01  0.00000000000E+00 0. -1.
</event>
<event>
 7    1  0.3851772E-009  0.4778726E+02  0.7816164E-02  0.1312668E+00
        -11   -1    0    0    0    0  0.00000000000E+00  0.00000000000E+00  0.45593999997E+02  0.45594000000E+02  0.51100000000E-03 0. -1.
         11   -1    0    0    0    0 -0.00000000000E+00 -0.00000000000E+00 -0.45593999997E+02  0.45594000000E+02  0.51100000000E-03 0.  1.
    9900012    2    1    2    0    0  0.33532895900E+02 -0.37432495148E+00 -0.27550484024E+02  0.47787258110E+02  0.19999941028E+02 0.  0.
         12    1    1    2    0    0 -0.33532895900E+02  0.37432495148E+00  0.27550484024E+02  0.43400741890E+02  0.00000000000E+00 0. -1.
         11    1    3    3    0    0  0.16598360018E+02 -0.87445916337E+00 -0.14263565379E+02  0.21902500581E+02  0.51100000000E-03 0. -1.
        -11    1    3    3    0    0  0.92261176020E+01  0.35830081888E+00 -0.15341808901E+02  0.17905885237E+02  0.51100000000E-03 0.  1.
         12    1    3    3    0    0  0.77084182798E+01  0.14183339301E+00  0.20548902569E+01  0.79788722923E+01  0.00000000000E+00 0. -1.
</event>
<event>
 7    1  0.3851772E-009  0.4778727E+02  0.7816164E-02  0.1312668E+00
        -11   -1    0    0    0    0  0.00000000000E+00  0.00000000000E+00  0.45593999997E+02  0.45594000000E+02  0.51100000000E-03 0. -1.
         11   -1    0    0    0    0 -0.00000000000E+00 -0.00000000000E+00 -0.45593999997E+02  0.45594000000E+02  0.51100000000E-03 0.  1.
    9900012    2    1    2    0    0 -0.15753959809E+02 -0.32539548462E+02 -0.24012789832E+02  0.47787267987E+02  0.19999986059E+02 0.  0.
         12    1    1    2    0    0  0.15753959809E+02  0.32539548462E+02  0.24012789832E+02  0.43400732013E+02  0.00000000000E+00 0. -1.
         11    1    3    3    0    0 -0.38691488505E+01 -0.81534253272E+01 -0.16969610493E+02  0.19220206501E+02  0.51100000000E-03 0. -1.
        -11    1    3    3    0    0 -0.86530291739E+01 -0.15836064220E+02 -0.20782492806E+01  0.18165213024E+02  0.51100000000E-03 0.  1.
        -12    1    3    3    0    0 -0.32317817847E+01 -0.85500589146E+01 -0.49649300588E+01  0.10401848462E+02  0.00000000000E+00 0.  1.
</event>
<event>
 7    1  0.3851772E-009  0.4778727E+02  0.7816164E-02  0.1312668E+00
        -11   -1    0    0    0    0  0.00000000000E+00  0.00000000000E+00  0.45593999997E+02  0.45594000000E+02  0.51100000000E-03 0.  1.
         11   -1    0    0    0    0 -0.00000000000E+00 -0.00000000000E+00 -0.45593999997E+02  0.45594000000E+02  0.51100000000E-03 0. -1.
    9900012    2    1    2    0    0  0.30043130756E+02  0.13591400081E+02  0.28218919089E+02  0.47787271247E+02  0.20000000922E+02 0.  0.
         12    1    1    2    0    0 -0.30043130756E+02 -0.13591400081E+02 -0.28218919089E+02  0.43400728753E+02  0.00000000000E+00 0. -1.
         11    1    3    3    0    0  0.45380680012E+01 -0.47941980033E+01  0.60390147664E+01  0.89469601144E+01  0.51100000000E-03 0. -1.
        -11    1    3    3    0    0  0.17905713759E+02  0.15494263005E+02  0.17646390952E+02  0.29531032579E+02  0.51100000000E-03 0.  1.
        -12    1    3    3    0    0  0.75993489962E+01  0.28913350790E+01  0.45335133703E+01  0.93092785533E+01  0.00000000000E+00 0.  1.
</event>
<event>
 7    1  0.3851772E-009  0.4778727E+02  0.7816164E-02  0.1312668E+00
        -11   -1    0    0    0    0  0.00000000000E+00  0.00000000000E+00  0.45593999997E+02  0.45594000000E+02  0.51100000000E-03 0.  1.
         11   -1    0    0    0    0 -0.00000000000E+00 -0.00000000000E+00 -0.45593999997E+02  0.45594000000E+02  0.51100000000E-03 0. -1.
    9900012    2    1    2    0    0 -0.41820511985E+01  0.22152208391E+02  0.37086568524E+02  0.47787268973E+02  0.19999990554E+02 0.  0.
         12    1    1    2    0    0  0.41820511985E+01 -0.22152208391E+02 -0.37086568524E+02  0.43400731027E+02  0.00000000000E+00 0. -1.
         11    1    3    3    0    0 -0.96373091149E+01  0.10021614688E+02  0.18312198699E+02  0.22992327185E+02  0.51100000000E-03 0. -1.
        -11    1    3    3    0    0 -0.33153747904E+00  0.75855438085E+01  0.47464975786E+01  0.89543079853E+01  0.51100000000E-03 0.  1.
         12    1    3    3    0    0  0.57867953954E+01  0.45450498942E+01  0.14027872247E+02  0.15840633802E+02  0.00000000000E+00 0. -1.
</event>
<event>
 7    1  0.3851772E-009  0.4778728E+02  0.7816164E-02  0.1312668E+00
        -11   -1    0    0    0    0  0.00000000000E+00  0.00000000000E+00  0.45593999997E+02  0.45594000000E+02  0.51100000000E-03 0.  1.
         11   -1    0    0    0    0 -0.00000000000E+00 -0.00000000000E+00 -0.45593999997E+02  0.45594000000E+02  0.51100000000E-03 0. -1.
    9900012    2    1    2    0    0  0.45440717790E+01  0.16348008502E+02  0.39946417452E+02  0.47787282983E+02  0.20000054432E+02 0.  0.
         12    1    1    2    0    0 -0.45440717790E+01 -0.16348008502E+02 -0.39946417452E+02  0.43400717017E+02  0.00000000000E+00 0. -1.
         11    1    3    3    0    0  0.26875324084E+01 -0.24522725005E+01  0.55436474874E+01  0.66308746474E+01  0.51100000000E-03 0. -1.
        -11    1    3    3    0    0 -0.25326194077E+01  0.17503095753E+02  0.24194537141E+02  0.29969119936E+02  0.51100000000E-03 0.  1.
        -12    1    3    3    0    0  0.43891587783E+01  0.12971852498E+01  0.10208232824E+02  0.11187288400E+02  0.00000000000E+00 0.  1.
</event>
<event>
 7    1  0.3851772E-009  0.4778726E+02  0.7816164E-02  0.1312668E+00
        -11   -1    0    0    0    0  0.00000000000E+00  0.00000000000E+00  0.45593999997E+02  0.45594000000E+02  0.51100000000E-03 0.  1.
         11   -1    0    0    0    0 -0.00000000000E+00 -0.00000000000E+00 -0.45593999997E+02  0.45594000000E+02  0.51100000000E-03 0. -1.
    9900012    2    1    2    0    0  0.13786311333E+01  0.22766395755E+02  0.36924441777E+02  0.47787264983E+02  0.19999972366E+02 0.  0.
         12    1    1    2    0    0 -0.13786311333E+01 -0.22766395755E+02 -0.36924441777E+02  0.43400735017E+02  0.00000000000E+00 0. -1.
         11    1    3    3    0    0 -0.12361636238E+01 -0.23578785485E+01  0.11828510111E+02  0.12124411056E+02  0.51100000000E-03 0. -1.
        -11    1    3    3    0    0  0.18632484299E+01  0.17237531491E+02  0.18493980983E+02  0.25350177898E+02  0.51100000000E-03 0.  1.
         12    1    3    3    0    0  0.75154632721E+00  0.78867428117E+01  0.66019506836E+01  0.10312676029E+02  0.00000000000E+00 0. -1.
</event>
<event>
 7    1  0.3851772E-009  0.4778727E+02  0.7816164E-02  0.1312668E+00
        -11   -1    0    0    0    0  0.00000000000E+00  0.00000000000E+00  0.45593999997E+02  0.45594000000E+02  0.51100000000E-03 0. -1.
         11   -1    0    0    0    0 -0.00000000000E+00 -0.00000000000E+00 -0.45593999997E+02  0.45594000000E+02  0.51100000000E-03 0.  1.
    9900012    2    1    2    0    0  0.87246236476E+01  0.35623955231E+02 -0.23204268133E+02  0.47787270701E+02  0.19999998434E+02 0.  0.
         12    1    1    2    0    0 -0.87246236476E+01 -0.35623955231E+02  0.23204268133E+02  0.43400729299E+02  0.00000000000E+00 0. -1.
         11    1    3    3    0    0  0.62342708712E+01  0.23016497228E+02 -0.21492846691E+02  0.32102456870E+02  0.51100000000E-03 0. -1.
        -11    1    3    3    0    0  0.53606759855E+01  0.86929215917E+01 -0.30334499111E+01  0.10653898415E+02  0.51100000000E-03 0.  1.
         12    1    3    3    0    0 -0.28703232091E+01  0.39145364113E+01  0.13220284696E+01  0.50309154151E+01  0.00000000000E+00 0. -1.
</event>
<event>
 7    1  0.3851772E-009  0.4778727E+02  0.7816164E-02  0.1312668E+00
        -11   -1    0    0    0    0  0.00000000000E+00  0.00000000000E+00  0.45593999997E+02  0.45594000000E+02  0.51100000000E-03 0.  1.
         11   -1    0    0    0    0 -0.00000000000E+00 -0.00000000000E+00 -0.45593999997E+02  0.45594000000E+02  0.51100000000E-03 0. -1.
    9900012    2    1    2    0    0  0.19701613210E+02  0.22811222578E+02  0.31226878961E+02  0.47787269497E+02  0.19999992944E+02 0.  0.
         12    1    1    2    0    0 -0.19701613210E+02 -0.22811222578E+02 -0.31226878961E+02  0.43400730503E+02  0.00000000000E+00 0. -1.
         11    1    3    3    0    0 -0.20536867258E+01  0.74599304594E+00  0.30904870363E+00  0.22067274763E+01  0.51100000000E-03 0. -1.
        -11    1    3    3    0    0  0.21731788488E+02  0.23454972157E+02  0.28717198593E+02  0.42977713353E+02  0.51100000000E-03 0.  1.
        -12    1    3    3    0    0  0.23511447603E-01 -0.13897426247E+01  0.22006316641E+01  0.26028286674E+01  0.00000000000E+00 0.  1.
</event>
<event>
 7    1  0.3851772E-009  0.4778727E+02  0.7816164E-02  0.1312668E+00
        -11   -1    0    0    0    0  0.00000000000E+00  0.00000000000E+00  0.45593999997E+02  0.45594000000E+02  0.51100000000E-03 0. -1.
         11   -1    0    0    0    0 -0.00000000000E+00 -0.00000000000E+00 -0.45593999997E+02  0.45594000000E+02  0.51100000000E-03 0.  1.
    9900012    2    1    2    0    0 -0.26735432254E+02  0.18761980275E+02  0.28580206381E+02  0.47787269148E+02  0.19999991354E+02 0.  0.
         12    1    1    2    0    0  0.26735432254E+02 -0.18761980275E+02 -0.28580206381E+02  0.43400730852E+02  0.00000000000E+00 0. -1.
         11    1    3    3    0    0  0.32334995545E+00  0.52667722864E+00  0.39483089575E+01  0.39963843636E+01  0.51100000000E-03 0. -1.
        -11    1    3    3    0    0 -0.21551418905E+02  0.53972559094E+01  0.14410482976E+02  0.26481239549E+02  0.51100000000E-03 0.  1.
        -12    1    3    3    0    0 -0.55073633044E+01  0.12838047137E+02  0.10221414448E+02  0.17309645235E+02  0.00000000000E+00 0.  1.
</event>
<event>
 7    1  0.3851772E-009  0.4778727E+02  0.7816164E-02  0.1312668E+00
        -11   -1    0    0    0    0  0.00000000000E+00  0.00000000000E+00  0.45593999997E+02  0.45594000000E+02  0.51100000000E-03 0. -1.
         11   -1    0    0    0    0 -0.00000000000E+00 -0.00000000000E+00 -0.45593999997E+02  0.45594000000E+02  0.51100000000E-03 0.  1.
    9900012    2    1    2    0    0 -0.12803428152E+02 -0.31068899557E+02 -0.27466685078E+02  0.47787273263E+02  0.20000010114E+02 0.  0.
         12    1    1    2    0    0  0.12803428152E+02  0.31068899557E+02  0.27466685078E+02  0.43400726737E+02  0.00000000000E+00 0. -1.
         11    1    3    3    0    0 -0.11539275249E+02 -0.64642342141E+01 -0.73149616851E+01  0.15114557948E+02  0.51100000000E-03 0. -1.
        -11    1    3    3    0    0 -0.15697194699E+01 -0.45718157980E+01 -0.76746572924E+01  0.90700542293E+01  0.51100000000E-03 0.  1.
         12    1    3    3    0    0  0.30556656716E+00 -0.20032849545E+02 -0.12477066101E+02  0.23602661085E+02  0.00000000000E+00 0. -1.
</event>
<event>
 7    1  0.3851772E-009  0.4778728E+02  0.7816164E-02  0.1312668E+00
        -11   -1    0    0    0    0  0.00000000000E+00  0.00000000000E+00  0.45593999997E+02  0.45594000000E+02  0.51100000000E-03 0.  1.
         11   -1    0    0    0    0 -0.00000000000E+00 -0.00000000000E+00 -0.45593999997E+02  0.45594000000E+02  0.51100000000E-03 0. -1.
    9900012    2    1    2    0    0 -0.69022048404E+01 -0.12160627231E+02  0.41086513423E+02  0.47787275679E+02  0.20000021133E+02 0.  0.
         12    1    1    2    0    0  0.69022048404E+01  0.12160627231E+02 -0.41086513423E+02  0.43400724321E+02  0.00000000000E+00 0. -1.
         11    1    3    3    0    0  0.22567607676E+01  0.27163678613E+01  0.92475620974E+01  0.98989407780E+01  0.51100000000E-03 0. -1.
        -11    1    3    3    0    0 -0.10146674888E+02 -0.10791629206E+02  0.17405298557E+02  0.22855167694E+02  0.51100000000E-03 0.  1.
        -12    1    3    3    0    0  0.98770928014E+00 -0.40853658868E+01  0.14433652769E+02  0.15033167208E+02  0.00000000000E+00 0.  1.
</event>
<event>
 7    1  0.3851772E-009  0.4778727E+02  0.7816164E-02  0.1312668E+00
        -11   -1    0    0    0    0  0.00000000000E+00  0.00000000000E+00  0.45593999997E+02  0.45594000000E+02  0.51100000000E-03 0. -1.
         11   -1    0    0    0    0 -0.00000000000E+00 -0.00000000000E+00 -0.45593999997E+02  0.45594000000E+02  0.51100000000E-03 0.  1.
    9900012    2    1    2    0    0 -0.32710024229E+02 -0.24628316641E+02 -0.14391787449E+02  0.47787271762E+02  0.20000003270E+02 0.  0.
         12    1    1    2    0    0  0.32710024229E+02  0.24628316641E+02  0.14391787449E+02  0.43400728238E+02  0.00000000000E+00 0. -1.
         11    1    3    3    0    0  0.73237244285E+00 -0.17529828107E+01 -0.44170207705E+01  0.48082627713E+01  0.51100000000E-03 0. -1.
        -11    1    3    3    0    0 -0.25237240993E+02 -0.11447468087E+02 -0.59128290419E+01  0.28335920773E+02  0.51100000000E-03 0.  1.
         12    1    3    3    0    0 -0.82051556790E+01 -0.11427865743E+02 -0.40619376369E+01  0.14643088217E+02  0.00000000000E+00 0. -1.
</event>
<event>
 7    1  0.3851772E-009  0.4778727E+02  0.7816164E-02  0.1312668E+00
        -11   -1    0    0    0    0  0.00000000000E+00  0.00000000000E+00  0.45593999997E+02  0.45594000000E+02  0.51100000000E-03 0.  1.
         11   -1    0    0    0    0 -0.00000000000E+00 -0.00000000000E+00 -0.45593999997E+02  0.45594000000E+02  0.51100000000E-03 0. -1.
    9900012    2    1    2    0    0  0.41353168611E+02 -0.91719336075E+01 -0.94559066107E+01  0.47787273162E+02  0.20000009654E+02 0.  0.
         12    1    1    2    0    0 -0.41353168611E+02  0.91719336075E+01  0.94559066107E+01  0.43400726838E+02  0.00000000000E+00 0. -1.
         11    1    3    3    0    0  0.48375723644E+01 -0.13059871348E+01 -0.35869104295E+01  0.61622751859E+01  0.51100000000E-03 0. -1.
        -11    1    3    3    0    0  0.46943827665E+01 -0.28035237302E+01 -0.75937791973E+01  0.93574813717E+01  0.51100000000E-03 0.  1.
        -12    1    3    3    0    0  0.31821213480E+02 -0.50624227425E+01  0.17247830161E+01  0.32267516604E+02  0.00000000000E+00 0.  1.
</event>
<event>
 7    1  0.3851772E-009  0.4778729E+02  0.7816164E-02  0.1312668E+00
        -11   -1    0    0    0    0  0.00000000000E+00  0.00000000000E+00  0.45593999997E+02  0.45594000000E+02  0.51100000000E-03 0.  1.
         11   -1    0    0    0    0 -0.00000000000E+00 -0.00000000000E+00 -0.45593999997E+02  0.45594000000E+02  0.51100000000E-03 0. -1.
    9900012    2    1    2    0    0  0.19571204851E+01  0.40793488662E+02  0.14686149715E+02  0.47787285360E+02  0.20000065270E+02 0.  0.
         12    1    1    2    0    0 -0.19571204851E+01 -0.40793488662E+02 -0.14686149715E+02  0.43400714640E+02  0.00000000000E+00 0. -1.
         11    1    3    3    0    0 -0.47553913739E+01  0.23671272721E+02  0.13066702283E+02  0.27453262250E+02  0.51100000000E-03 0. -1.
        -11    1    3    3    0    0  0.19480100343E+01  0.14863462744E+02  0.14159282230E+01  0.15057294605E+02  0.51100000000E-03 0.  1.
         12    1    3    3    0    0  0.47645018247E+01  0.22587531967E+01  0.20351920881E+00  0.52767285045E+01  0.00000000000E+00 0. -1.
</event>
<event>
 7    1  0.3851772E-009  0.4778726E+02  0.7816164E-02  0.1312668E+00
        -11   -1    0    0    0    0  0.00000000000E+00  0.00000000000E+00  0.45593999997E+02  0.45594000000E+02  0.51100000000E-03 0.  1.
         11   -1    0    0    0    0 -0.00000000000E+00 -0.00000000000E+00 -0.45593999997E+02  0.45594000000E+02  0.51100000000E-03 0. -1.
    9900012    2    1    2    0    0 -0.24292808886E+02  0.23141152962E+02  0.27531273594E+02  0.47787256347E+02  0.19999932988E+02 0.  0.
         12    1    1    2    0    0  0.24292808886E+02 -0.23141152962E+02 -0.27531273594E+02  0.43400743653E+02  0.00000000000E+00 0. -1.
         11    1    3    3    0    0 -0.15158501010E+02  0.17272595683E+02  0.80633161536E+01  0.24354461238E+02  0.51100000000E-03 0.  1.
        -11    1    3    3    0    0 -0.52907196956E+01  0.59905027119E+01  0.17205199035E+02  0.18970943881E+02  0.51100000000E-03 0. -1.
         12    1    3    3    0    0 -0.38435881799E+01 -0.12194543354E+00  0.22627584050E+01  0.44618512284E+01  0.00000000000E+00 0. -1.
</event>
<event>
 7    1  0.3851772E-009  0.4778727E+02  0.7816164E-02  0.1312668E+00
        -11   -1    0    0    0    0  0.00000000000E+00  0.00000000000E+00  0.45593999997E+02  0.45594000000E+02  0.51100000000E-03 0.  1.
         11   -1    0    0    0    0 -0.00000000000E+00 -0.00000000000E+00 -0.45593999997E+02  0.45594000000E+02  0.51100000000E-03 0. -1.
    9900012    2    1    2    0    0 -0.36580461876E+02  0.21318641195E+02  0.95398331938E+01  0.47787273384E+02  0.20000010665E+02 0.  0.
         12    1    1    2    0    0  0.36580461876E+02 -0.21318641195E+02 -0.95398331938E+01  0.43400726616E+02  0.00000000000E+00 0. -1.
         11    1    3    3    0    0 -0.16898059919E+02 -0.11929878020E+00  0.32216275417E+01  0.17202835391E+02  0.51100000000E-03 0. -1.
        -11    1    3    3    0    0 -0.19676155694E+02  0.20228414476E+02  0.71564911275E+01  0.29112801662E+02  0.51100000000E-03 0.  1.
         12    1    3    3    0    0 -0.62462632316E-02  0.12095255000E+01 -0.83828547546E+00  0.14716363305E+01  0.00000000000E+00 0. -1.
</event>
<event>
 7    1  0.3851772E-009  0.4778727E+02  0.7816164E-02  0.1312668E+00
        -11   -1    0    0    0    0  0.00000000000E+00  0.00000000000E+00  0.45593999997E+02  0.45594000000E+02  0.51100000000E-03 0.  1.
         11   -1    0    0    0    0 -0.00000000000E+00 -0.00000000000E+00 -0.45593999997E+02  0.45594000000E+02  0.51100000000E-03 0. -1.
    9900012    2    1    2    0    0  0.19447859588E+02  0.18868367221E+02  0.33902639484E+02  0.47787268577E+02  0.19999988748E+02 0.  0.
         12    1    1    2    0    0 -0.19447859588E+02 -0.18868367221E+02 -0.33902639484E+02  0.43400731423E+02  0.00000000000E+00 0. -1.
         11    1    3    3    0    0 -0.14952048859E+01  0.11021697350E+02  0.12479623787E+02  0.16716891465E+02  0.51100000000E-03 0. -1.
        -11    1    3    3    0    0  0.10097555255E+02  0.46592177065E+01  0.93240371352E+01  0.14512291360E+02  0.51100000000E-03 0.  1.
         12    1    3    3    0    0  0.10845509219E+02  0.31874521641E+01  0.12098978562E+02  0.16558085751E+02  0.00000000000E+00 0. -1.
</event>
<event>
 7    1  0.3851772E-009  0.4778727E+02  0.7816164E-02  0.1312668E+00
        -11   -1    0    0    0    0  0.00000000000E+00  0.00000000000E+00  0.45593999997E+02  0.45594000000E+02  0.51100000000E-03 0. -1.
         11   -1    0    0    0    0 -0.00000000000E+00 -0.00000000000E+00 -0.45593999997E+02  0.45594000000E+02  0.51100000000E-03 0.  1.
    9900012    2    1    2    0    0  0.33208816577E+02 -0.10563069349E+01 -0.27922792758E+02  0.47787266847E+02  0.19999980862E+02 0.  0.
         12    1    1    2    0    0 -0.33208816577E+02  0.10563069349E+01  0.27922792758E+02  0.43400733153E+02  0.00000000000E+00 0. -1.
         11    1    3    3    0    0  0.10368991184E+02 -0.77270647201E+01 -0.87795239670E+01  0.15630212689E+02  0.51100000000E-03 0. -1.
        -11    1    3    3    0    0  0.11819120598E+01 -0.88702635258E+00 -0.49880890070E+01  0.52023806157E+01  0.51100000000E-03 0.  1.
         12    1    3    3    0    0  0.21657913334E+02  0.75577841377E+01 -0.14155179784E+02  0.26954673542E+02  0.00000000000E+00 0. -1.
</event>
<event>
 7    1  0.3851772E-009  0.4778728E+02  0.7816164E-02  0.1312668E+00
        -11   -1    0    0    0    0  0.00000000000E+00  0.00000000000E+00  0.45593999997E+02  0.45594000000E+02  0.51100000000E-03 0. -1.
         11   -1    0    0    0    0 -0.00000000000E+00 -0.00000000000E+00 -0.45593999997E+02  0.45594000000E+02  0.51100000000E-03 0.  1.
    9900012    2    1    2    0    0 -0.42765711361E+02 -0.27903946320E+01 -0.68505711768E+01  0.47787277704E+02  0.20000030362E+02 0.  0.
         12    1    1    2    0    0  0.42765711361E+02  0.27903946320E+01  0.68505711768E+01  0.43400722296E+02  0.00000000000E+00 0. -1.
         11    1    3    3    0    0 -0.32476881559E+02 -0.38725989632E+01 -0.21910312224E+01  0.32780260472E+02  0.51100000000E-03 0. -1.
        -11    1    3    3    0    0 -0.96707499035E+01  0.91853928981E+00 -0.73880944471E+01  0.12204550706E+02  0.51100000000E-03 0.  1.
         12    1    3    3    0    0 -0.61807989846E+00  0.16366504142E+00  0.27285544927E+01  0.28024665255E+01  0.00000000000E+00 0. -1.
</event>
<event>
 7    1  0.3851772E-009  0.4778727E+02  0.7816164E-02  0.1312668E+00
        -11   -1    0    0    0    0  0.00000000000E+00  0.00000000000E+00  0.45593999997E+02  0.45594000000E+02  0.51100000000E-03 0.  1.
         11   -1    0    0    0    0 -0.00000000000E+00 -0.00000000000E+00 -0.45593999997E+02  0.45594000000E+02  0.51100000000E-03 0. -1.
    9900012    2    1    2    0    0 -0.22260688839E+02 -0.18771728564E+02 -0.32182402949E+02  0.47787272812E+02  0.20000008060E+02 0.  0.
         12    1    1    2    0    0  0.22260688839E+02  0.18771728564E+02  0.32182402949E+02  0.43400727188E+02  0.00000000000E+00 0. -1.
         11    1    3    3    0    0 -0.12428435920E+02  0.11350479531E+01 -0.11708812353E+02  0.17112879367E+02  0.51100000000E-03 0. -1.
        -11    1    3    3    0    0 -0.95026576373E+01 -0.17021954000E+02 -0.19595076600E+02  0.27640811265E+02  0.51100000000E-03 0.  1.
         12    1    3    3    0    0 -0.32959528173E+00 -0.28848225168E+01 -0.87851399682E+00  0.30335821805E+01  0.00000000000E+00 0. -1.
</event>
<event>
 7    1  0.3851772E-009  0.4778726E+02  0.7816164E-02  0.1312668E+00
        -11   -1    0    0    0    0  0.00000000000E+00  0.00000000000E+00  0.45593999997E+02  0.45594000000E+02  0.51100000000E-03 0.  1.
         11   -1    0    0    0    0 -0.00000000000E+00 -0.00000000000E+00 -0.45593999997E+02  0.45594000000E+02  0.51100000000E-03 0. -1.
    9900012    2    1    2    0    0 -0.34583277734E+02  0.22017308138E+02  0.14242852846E+02  0.47787264826E+02  0.19999971647E+02 0.  0.
         12    1    1    2    0    0  0.34583277734E+02 -0.22017308138E+02 -0.14242852846E+02  0.43400735174E+02  0.00000000000E+00 0. -1.
         11    1    3    3    0    0 -0.24250968812E+02  0.68764842164E+01  0.34868477670E+01  0.25447075099E+02  0.51100000000E-03 0. -1.
        -11    1    3    3    0    0 -0.62313220396E+01  0.72969830735E+01  0.93134471197E+01  0.13372196299E+02  0.51100000000E-03 0.  1.
         12    1    3    3    0    0 -0.41009868821E+01  0.78438408481E+01  0.14425579596E+01  0.89679934279E+01  0.00000000000E+00 0. -1.
</event>
<event>
 7    1  0.3851772E-009  0.4778727E+02  0.7816164E-02  0.1312668E+00
        -11   -1    0    0    0    0  0.00000000000E+00  0.00000000000E+00  0.45593999997E+02  0.45594000000E+02  0.51100000000E-03 0. -1.
         11   -1    0    0    0    0 -0.00000000000E+00 -0.00000000000E+00 -0.45593999997E+02  0.45594000000E+02  0.51100000000E-03 0.  1.
    9900012    2    1    2    0    0  0.11485232596E+02  0.11177944086E+02 -0.40333188975E+02  0.47787272648E+02  0.20000007312E+02 0.  0.
         12    1    1    2    0    0 -0.11485232596E+02 -0.11177944086E+02  0.40333188975E+02  0.43400727352E+02  0.00000000000E+00 0. -1.
         11    1    3    3    0    0 -0.11059266248E+01  0.85151019139E+01 -0.21670175363E+02  0.23309365817E+02  0.51100000000E-03 0. -1.
        -11    1    3    3    0    0  0.12856045269E+02  0.30937953728E+01 -0.12188229287E+02  0.17983392427E+02  0.51100000000E-03 0.  1.
        -12    1    3    3    0    0 -0.26488604884E+00 -0.43095320038E+00 -0.64747843252E+01  0.64945144035E+01  0.00000000000E+00 0.  1.
</event>
<event>
 7    1  0.3851772E-009  0.4778727E+02  0.7816164E-02  0.1312668E+00
        -11   -1    0    0    0    0  0.00000000000E+00  0.00000000000E+00  0.45593999997E+02  0.45594000000E+02  0.51100000000E-03 0. -1.
         11   -1    0    0    0    0 -0.00000000000E+00 -0.00000000000E+00 -0.45593999997E+02  0.45594000000E+02  0.51100000000E-03 0.  1.
    9900012    2    1    2    0    0 -0.38084722647E+02 -0.20765390651E+02  0.14057059670E+01  0.47787267780E+02  0.19999985117E+02 0.  0.
         12    1    1    2    0    0  0.38084722647E+02  0.20765390651E+02 -0.14057059670E+01  0.43400732220E+02  0.00000000000E+00 0. -1.
         11    1    3    3    0    0 -0.18805755103E+02 -0.11992340197E+02  0.78860822727E+01  0.23657196416E+02  0.51100000000E-03 0. -1.
        -11    1    3    3    0    0 -0.21228076214E+01 -0.31603134136E+01  0.18696388928E+01  0.42413963408E+01  0.51100000000E-03 0.  1.
         12    1    3    3    0    0 -0.17156159923E+02 -0.56127370404E+01 -0.83500151985E+01  0.19888675024E+02  0.00000000000E+00 0. -1.
</event>
<event>
 7    1  0.3851772E-009  0.4778728E+02  0.7816164E-02  0.1312668E+00
        -11   -1    0    0    0    0  0.00000000000E+00  0.00000000000E+00  0.45593999997E+02  0.45594000000E+02  0.51100000000E-03 0. -1.
         11   -1    0    0    0    0 -0.00000000000E+00 -0.00000000000E+00 -0.45593999997E+02  0.45594000000E+02  0.51100000000E-03 0.  1.
    9900012    2    1    2    0    0 -0.36012224447E+02  0.22985868194E+02 -0.76414859846E+01  0.47787277030E+02  0.20000027291E+02 0.  0.
         12    1    1    2    0    0  0.36012224447E+02 -0.22985868194E+02  0.76414859846E+01  0.43400722970E+02  0.00000000000E+00 0. -1.
         11    1    3    3    0    0 -0.23166090046E+01  0.42664625494E+01  0.10778236414E+01  0.49730356955E+01  0.51100000000E-03 0. -1.
        -11    1    3    3    0    0 -0.28915560571E+02  0.19348974032E+02 -0.24125232629E+01  0.34875675018E+02  0.51100000000E-03 0.  1.
        -12    1    3    3    0    0 -0.47800548719E+01 -0.62956838741E+00 -0.63067863631E+01  0.79385663166E+01  0.00000000000E+00 0.  1.
</event>
<event>
 7    1  0.3851772E-009  0.4778730E+02  0.7816164E-02  0.1312668E+00
        -11   -1    0    0    0    0  0.00000000000E+00  0.00000000000E+00  0.45593999997E+02  0.45594000000E+02  0.51100000000E-03 0.  1.
         11   -1    0    0    0    0 -0.00000000000E+00 -0.00000000000E+00 -0.45593999997E+02  0.45594000000E+02  0.51100000000E-03 0. -1.
    9900012    2    1    2    0    0 -0.16734288488E+02  0.31572441181E+02  0.24632598060E+02  0.47787304839E+02  0.20000154081E+02 0.  0.
         12    1    1    2    0    0  0.16734288488E+02 -0.31572441181E+02 -0.24632598060E+02  0.43400695161E+02  0.00000000000E+00 0. -1.
         11    1    3    3    0    0 -0.95432520560E+01  0.37784417505E+01  0.13674931665E+01  0.10354724511E+02  0.51100000000E-03 0. -1.
        -11    1    3    3    0    0 -0.63313815104E+00  0.27558962064E+01  0.32370063106E+00  0.28461570896E+01  0.51100000000E-03 0.  1.
         12    1    3    3    0    0 -0.65578982806E+01  0.25038103224E+02  0.22941404262E+02  0.34586423239E+02  0.00000000000E+00 0. -1.
</event>
<event>
 7    1  0.3851772E-009  0.4778727E+02  0.7816164E-02  0.1312668E+00
        -11   -1    0    0    0    0  0.00000000000E+00  0.00000000000E+00  0.45593999997E+02  0.45594000000E+02  0.51100000000E-03 0.  1.
         11   -1    0    0    0    0 -0.00000000000E+00 -0.00000000000E+00 -0.45593999997E+02  0.45594000000E+02  0.51100000000E-03 0. -1.
    9900012    2    1    2    0    0  0.62671402272E+01  0.33466377911E+02  0.26913705943E+02  0.47787273455E+02  0.20000010990E+02 0.  0.
         12    1    1    2    0    0 -0.62671402272E+01 -0.33466377911E+02 -0.26913705943E+02  0.43400726545E+02  0.00000000000E+00 0. -1.
         11    1    3    3    0    0  0.12981922622E+01 -0.17601750976E+01  0.40591635249E+01  0.46108923547E+01  0.51100000000E-03 0. -1.
        -11    1    3    3    0    0  0.18721140961E+01  0.32292296814E+02  0.20627144493E+02  0.38363737238E+02  0.51100000000E-03 0.  1.
        -12    1    3    3    0    0  0.30968338688E+01  0.29342561944E+01  0.22273979247E+01  0.48126438618E+01  0.00000000000E+00 0.  1.
</event>
<event>
 7    1  0.3851772E-009  0.4778727E+02  0.7816164E-02  0.1312668E+00
        -11   -1    0    0    0    0  0.00000000000E+00  0.00000000000E+00  0.45593999997E+02  0.45594000000E+02  0.51100000000E-03 0.  1.
         11   -1    0    0    0    0 -0.00000000000E+00 -0.00000000000E+00 -0.45593999997E+02  0.45594000000E+02  0.51100000000E-03 0. -1.
    9900012    2    1    2    0    0 -0.12957548993E+02 -0.38000140959E+02  0.16483766796E+02  0.47787270092E+02  0.19999995657E+02 0.  0.
         12    1    1    2    0    0  0.12957548993E+02  0.38000140959E+02 -0.16483766796E+02  0.43400729908E+02  0.00000000000E+00 0. -1.
         11    1    3    3    0    0 -0.94968605528E+01 -0.14988169386E+02  0.65946682525E+01  0.18929480488E+02  0.51100000000E-03 0.  1.
        -11    1    3    3    0    0  0.40358938288E+01 -0.16617123010E+02  0.47658719630E+01  0.17751922486E+02  0.51100000000E-03 0. -1.
         12    1    3    3    0    0 -0.74965822688E+01 -0.63948485626E+01  0.51232265804E+01  0.11105867118E+02  0.00000000000E+00 0. -1.
</event>
<event>
 7    1  0.3851772E-009  0.4778728E+02  0.7816164E-02  0.1312668E+00
        -11   -1    0    0    0    0  0.00000000000E+00  0.00000000000E+00  0.45593999997E+02  0.45594000000E+02  0.51100000000E-03 0. -1.
         11   -1    0    0    0    0 -0.00000000000E+00 -0.00000000000E+00 -0.45593999997E+02  0.45594000000E+02  0.51100000000E-03 0.  1.
    9900012    2    1    2    0    0 -0.16993425355E+02 -0.25233168126E+02 -0.30953727738E+02  0.47787279500E+02  0.20000038554E+02 0.  0.
         12    1    1    2    0    0  0.16993425355E+02  0.25233168126E+02  0.30953727738E+02  0.43400720500E+02  0.00000000000E+00 0. -1.
         11    1    3    3    0    0 -0.20583002887E+01  0.65280288157E+00  0.78630591626E+00  0.22980489411E+01  0.51100000000E-03 0. -1.
        -11    1    3    3    0    0 -0.14265076730E+02 -0.21422776628E+02 -0.31881420967E+02  0.40973805971E+02  0.51100000000E-03 0.  1.
        -12    1    3    3    0    0 -0.67004833598E+00 -0.44631943797E+01  0.14138731252E+00  0.45154245887E+01  0.00000000000E+00 0.  1.
</event>
<event>
 7    1  0.3851772E-009  0.4778727E+02  0.7816164E-02  0.1312668E+00
        -11   -1    0    0    0    0  0.00000000000E+00  0.00000000000E+00  0.45593999997E+02  0.45594000000E+02  0.51100000000E-03 0.  1.
         11   -1    0    0    0    0 -0.00000000000E+00 -0.00000000000E+00 -0.45593999997E+02  0.45594000000E+02  0.51100000000E-03 0. -1.
    9900012    2    1    2    0    0 -0.23367046614E+02 -0.16551434879E+02  0.32613712721E+02  0.47787272800E+02  0.20000008006E+02 0.  0.
         12    1    1    2    0    0  0.23367046614E+02  0.16551434879E+02 -0.32613712721E+02  0.43400727200E+02  0.00000000000E+00 0. -1.
         11    1    3    3    0    0  0.16816911137E+00  0.17190088227E+01 -0.23878366736E+00  0.17436427625E+01  0.51100000000E-03 0. -1.
        -11    1    3    3    0    0 -0.23777219757E+02 -0.13222256821E+02  0.27726701169E+02  0.38845259849E+02  0.51100000000E-03 0.  1.
        -12    1    3    3    0    0  0.24200403161E+00 -0.50481868807E+01  0.51257952200E+01  0.71983701886E+01  0.00000000000E+00 0.  1.
</event>
<event>
 7    1  0.3851772E-009  0.4778727E+02  0.7816164E-02  0.1312668E+00
        -11   -1    0    0    0    0  0.00000000000E+00  0.00000000000E+00  0.45593999997E+02  0.45594000000E+02  0.51100000000E-03 0.  1.
         11   -1    0    0    0    0 -0.00000000000E+00 -0.00000000000E+00 -0.45593999997E+02  0.45594000000E+02  0.51100000000E-03 0. -1.
    9900012    2    1    2    0    0 -0.13112999173E+02 -0.25343595097E+02  0.32701294382E+02  0.47787271734E+02  0.20000003144E+02 0.  0.
         12    1    1    2    0    0  0.13112999173E+02  0.25343595097E+02 -0.32701294382E+02  0.43400728266E+02  0.00000000000E+00 0. -1.
         11    1    3    3    0    0 -0.10732546066E+02 -0.53914870135E+01  0.17949875661E+02  0.21597539531E+02  0.51100000000E-03 0.  1.
        -11    1    3    3    0    0  0.22749793974E+01 -0.13278527912E+02  0.98732230696E+01  0.16702555757E+02  0.51100000000E-03 0. -1.
         12    1    3    3    0    0 -0.46554325040E+01 -0.66735801716E+01  0.48781956516E+01  0.94871764462E+01  0.00000000000E+00 0. -1.
</event>
<event>
 7    1  0.3851772E-009  0.4778727E+02  0.7816164E-02  0.1312668E+00
        -11   -1    0    0    0    0  0.00000000000E+00  0.00000000000E+00  0.45593999997E+02  0.45594000000E+02  0.51100000000E-03 0. -1.
         11   -1    0    0    0    0 -0.00000000000E+00 -0.00000000000E+00 -0.45593999997E+02  0.45594000000E+02  0.51100000000E-03 0.  1.
    9900012    2    1    2    0    0  0.36999991716E+02  0.17100886361E+02 -0.14905830430E+02  0.47787268646E+02  0.19999989062E+02 0.  0.
         12    1    1    2    0    0 -0.36999991716E+02 -0.17100886361E+02  0.14905830430E+02  0.43400731354E+02  0.00000000000E+00 0. -1.
         11    1    3    3    0    0  0.43856161482E+01 -0.22544948515E+01 -0.51264684818E+00  0.49577397155E+01  0.51100000000E-03 0. -1.
        -11    1    3    3    0    0  0.21280836888E+02  0.17425389792E+02 -0.14976689159E+02  0.31318037079E+02  0.51100000000E-03 0.  1.
        -12    1    3    3    0    0  0.11333538679E+02  0.19299914206E+01  0.58350557674E+00  0.11511491851E+02  0.00000000000E+00 0.  1.
</event>
<event>
 7    1  0.3851772E-009  0.4778727E+02  0.7816164E-02  0.1312668E+00
        -11   -1    0    0    0    0  0.00000000000E+00  0.00000000000E+00  0.45593999997E+02  0.45594000000E+02  0.51100000000E-03 0.  1.
         11   -1    0    0    0    0 -0.00000000000E+00 -0.00000000000E+00 -0.45593999997E+02  0.45594000000E+02  0.51100000000E-03 0. -1.
    9900012    2    1    2    0    0 -0.34792081761E+02 -0.49556195457E+01  0.25467152877E+02  0.47787274269E+02  0.20000014703E+02 0.  0.
         12    1    1    2    0    0  0.34792081761E+02  0.49556195457E+01 -0.25467152877E+02  0.43400725731E+02  0.00000000000E+00 0. -1.
         11    1    3    3    0    0 -0.10554413731E+02 -0.17024926572E+01  0.66611385972E+00  0.10711574973E+02  0.51100000000E-03 0.  1.
        -11    1    3    3    0    0 -0.15343934744E+02 -0.31034784288E+01  0.69434514671E+01  0.17125403070E+02  0.51100000000E-03 0. -1.
        -12    1    3    3    0    0 -0.88937332856E+01 -0.14964845977E+00  0.17857587550E+02  0.19950296226E+02  0.00000000000E+00 0.  1.
</event>
<event>
 7    1  0.3851772E-009  0.4778727E+02  0.7816164E-02  0.1312668E+00
        -11   -1    0    0    0    0  0.00000000000E+00  0.00000000000E+00  0.45593999997E+02  0.45594000000E+02  0.51100000000E-03 0. -1.
         11   -1    0    0    0    0 -0.00000000000E+00 -0.00000000000E+00 -0.45593999997E+02  0.45594000000E+02  0.51100000000E-03 0.  1.
    9900012    2    1    2    0    0  0.12132089654E+02  0.32249333920E+02 -0.26389697806E+02  0.47787270883E+02  0.19999999262E+02 0.  0.
         12    1    1    2    0    0 -0.12132089654E+02 -0.32249333920E+02  0.26389697806E+02  0.43400729117E+02  0.00000000000E+00 0. -1.
         11    1    3    3    0    0  0.85735258073E+01  0.14295390448E+02 -0.16162467315E+02  0.23218287680E+02  0.51100000000E-03 0. -1.
        -11    1    3    3    0    0  0.66459420199E+01  0.16735201962E+02 -0.11079411612E+02  0.21142111814E+02  0.51100000000E-03 0.  1.
         12    1    3    3    0    0 -0.30873781732E+01  0.12187415095E+01  0.85218112018E+00  0.34268713884E+01  0.00000000000E+00 0. -1.
</event>
<event>
 7    1  0.3851772E-009  0.4778727E+02  0.7816164E-02  0.1312668E+00
        -11   -1    0    0    0    0  0.00000000000E+00  0.00000000000E+00  0.45593999997E+02  0.45594000000E+02  0.51100000000E-03 0.  1.
         11   -1    0    0    0    0 -0.00000000000E+00 -0.00000000000E+00 -0.45593999997E+02  0.45594000000E+02  0.51100000000E-03 0. -1.
    9900012    2    1    2    0    0  0.12618296584E+02 -0.12892609736E+02  0.39473823492E+02  0.47787268029E+02  0.19999986253E+02 0.  0.
         12    1    1    2    0    0 -0.12618296584E+02  0.12892609736E+02 -0.39473823492E+02  0.43400731971E+02  0.00000000000E+00 0. -1.
         11    1    3    3    0    0  0.41568864303E+01 -0.69648291107E+01  0.42836788236E+01  0.91727015574E+01  0.51100000000E-03 0.  1.
        -11    1    3    3    0    0  0.25688659408E+01 -0.22233883532E+00  0.26646951713E+02  0.26771412788E+02  0.51100000000E-03 0. -1.
        -12    1    3    3    0    0  0.58925442125E+01 -0.57054417900E+01  0.85431929553E+01  0.11843153684E+02  0.00000000000E+00 0.  1.
</event>
<event>
 7    1  0.3851772E-009  0.4778730E+02  0.7816164E-02  0.1312668E+00
        -11   -1    0    0    0    0  0.00000000000E+00  0.00000000000E+00  0.45593999997E+02  0.45594000000E+02  0.51100000000E-03 0.  1.
         11   -1    0    0    0    0 -0.00000000000E+00 -0.00000000000E+00 -0.45593999997E+02  0.45594000000E+02  0.51100000000E-03 0. -1.
    9900012    2    1    2    0    0  0.16717944340E+02 -0.23667588910E+02  0.32310627165E+02  0.47787296601E+02  0.20000116521E+02 0.  0.
         12    1    1    2    0    0 -0.16717944340E+02  0.23667588910E+02 -0.32310627165E+02  0.43400703399E+02  0.00000000000E+00 0. -1.
         11    1    3    3    0    0  0.33186438101E+01  0.16092415239E+01  0.54386035824E-01  0.36886329612E+01  0.51100000000E-03 0. -1.
        -11    1    3    3    0    0  0.12748902194E+02 -0.14960572152E+02  0.19606847552E+02  0.27762955488E+02  0.51100000000E-03 0.  1.
         12    1    3    3    0    0  0.65039833596E+00 -0.10316258282E+02  0.12649393577E+02  0.16335708151E+02  0.00000000000E+00 0. -1.
</event>
<event>
 7    1  0.3851772E-009  0.4778727E+02  0.7816164E-02  0.1312668E+00
        -11   -1    0    0    0    0  0.00000000000E+00  0.00000000000E+00  0.45593999997E+02  0.45594000000E+02  0.51100000000E-03 0.  1.
         11   -1    0    0    0    0 -0.00000000000E+00 -0.00000000000E+00 -0.45593999997E+02  0.45594000000E+02  0.51100000000E-03 0. -1.
    9900012    2    1    2    0    0  0.33632488856E+02 -0.46699858247E+01  0.27030919977E+02  0.47787266031E+02  0.19999977140E+02 0.  0.
         12    1    1    2    0    0 -0.33632488856E+02  0.46699858247E+01 -0.27030919977E+02  0.43400733969E+02  0.00000000000E+00 0. -1.
         11    1    3    3    0    0  0.56515789371E+01 -0.41386581776E+01  0.33320646251E+01  0.77570284852E+01  0.51100000000E-03 0. -1.
        -11    1    3    3    0    0  0.12059850953E+02  0.17229742351E+01  0.10140508359E+01  0.12224440461E+02  0.51100000000E-03 0.  1.
        -12    1    3    3    0    0  0.15921058966E+02 -0.22543018822E+01  0.22684804516E+02  0.27805797084E+02  0.00000000000E+00 0.  1.
</event>
<event>
 7    1  0.3851772E-009  0.4778727E+02  0.7816164E-02  0.1312668E+00
        -11   -1    0    0    0    0  0.00000000000E+00  0.00000000000E+00  0.45593999997E+02  0.45594000000E+02  0.51100000000E-03 0. -1.
         11   -1    0    0    0    0 -0.00000000000E+00 -0.00000000000E+00 -0.45593999997E+02  0.45594000000E+02  0.51100000000E-03 0.  1.
    9900012    2    1    2    0    0  0.11628145597E+02  0.28496042430E+02 -0.30600410050E+02  0.47787270750E+02  0.19999998657E+02 0.  0.
         12    1    1    2    0    0 -0.11628145597E+02 -0.28496042430E+02  0.30600410050E+02  0.43400729250E+02  0.00000000000E+00 0. -1.
         11    1    3    3    0    0 -0.53192748832E+01  0.57589419038E+01 -0.45824983138E+01  0.90807151806E+01  0.51100000000E-03 0. -1.
        -11    1    3    3    0    0  0.10023224119E+02  0.10795744279E+02 -0.15216536210E+02  0.21179142824E+02  0.51100000000E-03 0.  1.
         12    1    3    3    0    0  0.69241963615E+01  0.11941356248E+02 -0.10801375526E+02  0.17527412745E+02  0.00000000000E+00 0. -1.
</event>
<event>
 7    1  0.3851772E-009  0.4778727E+02  0.7816164E-02  0.1312668E+00
        -11   -1    0    0    0    0  0.00000000000E+00  0.00000000000E+00  0.45593999997E+02  0.45594000000E+02  0.51100000000E-03 0. -1.
         11   -1    0    0    0    0 -0.00000000000E+00 -0.00000000000E+00 -0.45593999997E+02  0.45594000000E+02  0.51100000000E-03 0.  1.
    9900012    2    1    2    0    0  0.18151551287E+02 -0.10735372422E+02 -0.37932783334E+02  0.47787273202E+02  0.20000009836E+02 0.  0.
         12    1    1    2    0    0 -0.18151551287E+02  0.10735372422E+02  0.37932783334E+02  0.43400726798E+02  0.00000000000E+00 0. -1.
         11    1    3    3    0    0  0.17523357954E+01 -0.36571341548E+01 -0.17089706450E+02  0.17564264225E+02  0.51100000000E-03 0. -1.
        -11    1    3    3    0    0  0.57128604665E+01  0.16789288309E+00 -0.14998167650E+02  0.16050233514E+02  0.51100000000E-03 0.  1.
         12    1    3    3    0    0  0.10686355025E+02 -0.72461311501E+01 -0.58449092337E+01  0.14172775462E+02  0.00000000000E+00 0. -1.
</event>
<event>
 7    1  0.3851772E-009  0.4778724E+02  0.7816164E-02  0.1312668E+00
        -11   -1    0    0    0    0  0.00000000000E+00  0.00000000000E+00  0.45593999997E+02  0.45594000000E+02  0.51100000000E-03 0.  1.
         11   -1    0    0    0    0 -0.00000000000E+00 -0.00000000000E+00 -0.45593999997E+02  0.45594000000E+02  0.51100000000E-03 0. -1.
    9900012    2    1    2    0    0 -0.16343896885E+02  0.30603646540E+02  0.26075265942E+02  0.47787243775E+02  0.19999875668E+02 0.  0.
         12    1    1    2    0    0  0.16343896885E+02 -0.30603646540E+02 -0.26075265942E+02  0.43400756225E+02  0.00000000000E+00 0. -1.
         11    1    3    3    0    0 -0.66272521792E+01  0.10918009488E+02  0.19508801816E+02  0.23317734692E+02  0.51100000000E-03 0. -1.
        -11    1    3    3    0    0 -0.84540549768E+01  0.20063491833E+02  0.72976201396E+01  0.22962360725E+02  0.51100000000E-03 0.  1.
        -12    1    3    3    0    0 -0.12625897288E+01 -0.37785478080E+00 -0.73115601318E+00  0.15071483584E+01  0.00000000000E+00 0.  1.
</event>
<event>
 7    1  0.3851772E-009  0.4778726E+02  0.7816164E-02  0.1312668E+00
        -11   -1    0    0    0    0  0.00000000000E+00  0.00000000000E+00  0.45593999997E+02  0.45594000000E+02  0.51100000000E-03 0. -1.
         11   -1    0    0    0    0 -0.00000000000E+00 -0.00000000000E+00 -0.45593999997E+02  0.45594000000E+02  0.51100000000E-03 0.  1.
    9900012    2    1    2    0    0  0.23627270768E+02 -0.48214170924E+00 -0.36402527005E+02  0.47787258567E+02  0.19999943109E+02 0.  0.
         12    1    1    2    0    0 -0.23627270768E+02  0.48214170924E+00  0.36402527005E+02  0.43400741433E+02  0.00000000000E+00 0. -1.
         11    1    3    3    0    0  0.11564752330E+02 -0.17249236900E+01 -0.28354775830E+02  0.30671031460E+02  0.51100000000E-03 0. -1.
        -11    1    3    3    0    0  0.92721562766E+00 -0.20357857499E+01 -0.44213186208E+01  0.49550187737E+01  0.51100000000E-03 0.  1.
         12    1    3    3    0    0  0.11135302810E+02  0.32785677306E+01 -0.36264325543E+01  0.12161208333E+02  0.00000000000E+00 0. -1.
</event>
<event>
 7    1  0.3851772E-009  0.4778730E+02  0.7816164E-02  0.1312668E+00
        -11   -1    0    0    0    0  0.00000000000E+00  0.00000000000E+00  0.45593999997E+02  0.45594000000E+02  0.51100000000E-03 0.  1.
         11   -1    0    0    0    0 -0.00000000000E+00 -0.00000000000E+00 -0.45593999997E+02  0.45594000000E+02  0.51100000000E-03 0. -1.
    9900012    2    1    2    0    0  0.26948587107E+02  0.28985662675E+02  0.17810825370E+02  0.47787303137E+02  0.20000146323E+02 0.  0.
         12    1    1    2    0    0 -0.26948587107E+02 -0.28985662675E+02 -0.17810825370E+02  0.43400696863E+02  0.00000000000E+00 0. -1.
         11    1    3    3    0    0  0.53611598299E-01  0.79044550936E+01  0.80864530241E+00  0.79458915180E+01  0.51100000000E-03 0. -1.
        -11    1    3    3    0    0  0.20407190572E+02  0.21234556342E+02  0.14994383335E+02  0.33048318292E+02  0.51100000000E-03 0.  1.
         12    1    3    3    0    0  0.64877849366E+01 -0.15334876046E+00  0.20077967335E+01  0.67930933269E+01  0.00000000000E+00 0. -1.
</event>
<event>
 7    1  0.3851772E-009  0.4778727E+02  0.7816164E-02  0.1312668E+00
        -11   -1    0    0    0    0  0.00000000000E+00  0.00000000000E+00  0.45593999997E+02  0.45594000000E+02  0.51100000000E-03 0. -1.
         11   -1    0    0    0    0 -0.00000000000E+00 -0.00000000000E+00 -0.45593999997E+02  0.45594000000E+02  0.51100000000E-03 0.  1.
    9900012    2    1    2    0    0  0.30016060744E+02 -0.54087699416E+00 -0.31342734188E+02  0.47787269167E+02  0.19999991438E+02 0.  0.
         12    1    1    2    0    0 -0.30016060744E+02  0.54087699416E+00  0.31342734188E+02  0.43400730833E+02  0.00000000000E+00 0. -1.
         11    1    3    3    0    0  0.73822047229E+01 -0.50154078920E+01 -0.54051417247E+01  0.10433926405E+02  0.51100000000E-03 0.  1.
        -11    1    3    3    0    0  0.61955624985E+01 -0.19826684251E+01 -0.68973125873E+00  0.65415363812E+01  0.51100000000E-03 0. -1.
        -12    1    3    3    0    0  0.16438293522E+02  0.64571993230E+01 -0.25247861205E+02  0.30811806381E+02  0.00000000000E+00 0.  1.
</event>
<event>
 7    1  0.3851772E-009  0.4778727E+02  0.7816164E-02  0.1312668E+00
        -11   -1    0    0    0    0  0.00000000000E+00  0.00000000000E+00  0.45593999997E+02  0.45594000000E+02  0.51100000000E-03 0.  1.
         11   -1    0    0    0    0 -0.00000000000E+00 -0.00000000000E+00 -0.45593999997E+02  0.45594000000E+02  0.51100000000E-03 0. -1.
    9900012    2    1    2    0    0 -0.31550117363E+02  0.28969618417E+02 -0.69981594301E+01  0.47787274980E+02  0.20000017944E+02 0.  0.
         12    1    1    2    0    0  0.31550117363E+02 -0.28969618417E+02  0.69981594301E+01  0.43400725020E+02  0.00000000000E+00 0. -1.
         11    1    3    3    0    0 -0.18192275038E+02  0.14178369366E+02 -0.92393537184E+01  0.24846542744E+02  0.51100000000E-03 0. -1.
        -11    1    3    3    0    0 -0.10472546156E+02  0.53103130700E+01 -0.24204491398E+01  0.11988837400E+02  0.51100000000E-03 0.  1.
         12    1    3    3    0    0 -0.28852961691E+01  0.94809359813E+01  0.46616434282E+01  0.10951894837E+02  0.00000000000E+00 0. -1.
</event>
<event>
 7    1  0.3851772E-009  0.4778727E+02  0.7816164E-02  0.1312668E+00
        -11   -1    0    0    0    0  0.00000000000E+00  0.00000000000E+00  0.45593999997E+02  0.45594000000E+02  0.51100000000E-03 0.  1.
         11   -1    0    0    0    0 -0.00000000000E+00 -0.00000000000E+00 -0.45593999997E+02  0.45594000000E+02  0.51100000000E-03 0. -1.
    9900012    2    1    2    0    0  0.42616155550E+02 -0.75740219991E+01 -0.31813579765E+01  0.47787267729E+02  0.19999984882E+02 0.  0.
         12    1    1    2    0    0 -0.42616155550E+02  0.75740219991E+01  0.31813579765E+01  0.43400732271E+02  0.00000000000E+00 0. -1.
         11    1    3    3    0    0  0.86649569357E+01  0.57235715871E+01 -0.17789688637E+01  0.10535913861E+02  0.51100000000E-03 0. -1.
        -11    1    3    3    0    0  0.25633099233E+02 -0.77010383943E+01  0.15213919980E+01  0.26808140601E+02  0.51100000000E-03 0.  1.
         12    1    3    3    0    0  0.83180993819E+01 -0.55965551918E+01 -0.29237811108E+01  0.10443213266E+02  0.00000000000E+00 0. -1.
</event>
<event>
 7    1  0.3851772E-009  0.4778727E+02  0.7816164E-02  0.1312668E+00
        -11   -1    0    0    0    0  0.00000000000E+00  0.00000000000E+00  0.45593999997E+02  0.45594000000E+02  0.51100000000E-03 0.  1.
         11   -1    0    0    0    0 -0.00000000000E+00 -0.00000000000E+00 -0.45593999997E+02  0.45594000000E+02  0.51100000000E-03 0. -1.
    9900012    2    1    2    0    0  0.20288994702E+02  0.52094416261E+01  0.38011078815E+02  0.47787266126E+02  0.19999977577E+02 0.  0.
         12    1    1    2    0    0 -0.20288994702E+02 -0.52094416261E+01 -0.38011078815E+02  0.43400733874E+02  0.00000000000E+00 0. -1.
         11    1    3    3    0    0  0.53334163825E+01  0.10500837352E+02  0.22479894494E+02  0.25378309087E+02  0.51100000000E-03 0. -1.
        -11    1    3    3    0    0  0.13495160887E+02 -0.37270294933E+01  0.13154071140E+02  0.19210406139E+02  0.51100000000E-03 0.  1.
        -12    1    3    3    0    0  0.14604174327E+01 -0.15643662323E+01  0.23771131812E+01  0.31985509005E+01  0.00000000000E+00 0.  1.
</event>
<event>
 7    1  0.3851772E-009  0.4778727E+02  0.7816164E-02  0.1312668E+00
        -11   -1    0    0    0    0  0.00000000000E+00  0.00000000000E+00  0.45593999997E+02  0.45594000000E+02  0.51100000000E-03 0. -1.
         11   -1    0    0    0    0 -0.00000000000E+00 -0.00000000000E+00 -0.45593999997E+02  0.45594000000E+02  0.51100000000E-03 0.  1.
    9900012    2    1    2    0    0 -0.13499719891E+01 -0.22806907270E+02 -0.36900483512E+02  0.47787272736E+02  0.20000007714E+02 0.  0.
         12    1    1    2    0    0  0.13499719891E+01  0.22806907270E+02  0.36900483512E+02  0.43400727264E+02  0.00000000000E+00 0. -1.
         11    1    3    3    0    0 -0.40960460398E+01  0.57297878074E-01 -0.12796026782E+02  0.13435742550E+02  0.51100000000E-03 0. -1.
        -11    1    3    3    0    0  0.25066683793E+01 -0.12090861168E+02 -0.18398714857E+02  0.22158181757E+02  0.51100000000E-03 0.  1.
         12    1    3    3    0    0  0.23940567131E+00 -0.10773343980E+02 -0.57057418731E+01  0.12193348429E+02  0.00000000000E+00 0. -1.
</event>
<event>
 7    1  0.3851772E-009  0.4778727E+02  0.7816164E-02  0.1312668E+00
        -11   -1    0    0    0    0  0.00000000000E+00  0.00000000000E+00  0.45593999997E+02  0.45594000000E+02  0.51100000000E-03 0. -1.
         11   -1    0    0    0    0 -0.00000000000E+00 -0.00000000000E+00 -0.45593999997E+02  0.45594000000E+02  0.51100000000E-03 0.  1.
    9900012    2    1    2    0    0 -0.35008428016E+01  0.42678287439E+02 -0.70662037034E+01  0.47787270124E+02  0.19999995802E+02 0.  0.
         12    1    1    2    0    0  0.35008428016E+01 -0.42678287439E+02  0.70662037034E+01  0.43400729876E+02  0.00000000000E+00 0. -1.
         11    1    3    3    0    0  0.25404012212E+01  0.32290901368E+02 -0.64760393935E+01  0.33031727718E+02  0.51100000000E-03 0.  1.
        -11    1    3    3    0    0 -0.43063140883E+01  0.87604743099E+01  0.32070200600E+01  0.10274980734E+02  0.51100000000E-03 0. -1.
        -12    1    3    3    0    0 -0.17349299345E+01  0.16269117604E+01 -0.37971843698E+01  0.44805616715E+01  0.00000000000E+00 0.  1.
</event>
<event>
 7    1  0.3851772E-009  0.4778727E+02  0.7816164E-02  0.1312668E+00
        -11   -1    0    0    0    0  0.00000000000E+00  0.00000000000E+00  0.45593999997E+02  0.45594000000E+02  0.51100000000E-03 0.  1.
         11   -1    0    0    0    0 -0.00000000000E+00 -0.00000000000E+00 -0.45593999997E+02  0.45594000000E+02  0.51100000000E-03 0. -1.
    9900012    2    1    2    0    0  0.18127832674E+01 -0.38904786409E+02  0.19150837381E+02  0.47787272344E+02  0.20000005924E+02 0.  0.
         12    1    1    2    0    0 -0.18127832674E+01  0.38904786409E+02 -0.19150837381E+02  0.43400727656E+02  0.00000000000E+00 0. -1.
         11    1    3    3    0    0  0.45818314057E+01 -0.87891967074E+01 -0.25730027729E+01  0.10240288146E+02  0.51100000000E-03 0. -1.
        -11    1    3    3    0    0  0.64666901605E+00 -0.18254720423E+02  0.12380125267E+02  0.22066275183E+02  0.51100000000E-03 0.  1.
         12    1    3    3    0    0 -0.34157171544E+01 -0.11860869278E+02  0.93437148865E+01  0.15480709015E+02  0.00000000000E+00 0. -1.
</event>
<event>
 7    1  0.3851772E-009  0.4778728E+02  0.7816164E-02  0.1312668E+00
        -11   -1    0    0    0    0  0.00000000000E+00  0.00000000000E+00  0.45593999997E+02  0.45594000000E+02  0.51100000000E-03 0.  1.
         11   -1    0    0    0    0 -0.00000000000E+00 -0.00000000000E+00 -0.45593999997E+02  0.45594000000E+02  0.51100000000E-03 0. -1.
    9900012    2    1    2    0    0  0.76002362401E+01 -0.25304416564E+02  0.34431755198E+02  0.47787275875E+02  0.20000022024E+02 0.  0.
         12    1    1    2    0    0 -0.76002362401E+01  0.25304416564E+02 -0.34431755198E+02  0.43400724125E+02  0.00000000000E+00 0. -1.
         11    1    3    3    0    0  0.10168856292E+01 -0.18462588987E+02  0.21415759250E+02  0.28293744768E+02  0.51100000000E-03 0. -1.
        -11    1    3    3    0    0  0.48870120712E+01 -0.98821210084E+01  0.10117380042E+02  0.14963307849E+02  0.51100000000E-03 0.  1.
         12    1    3    3    0    0  0.16963385398E+01  0.30402934317E+01  0.28986159065E+01  0.45302232579E+01  0.00000000000E+00 0. -1.
</event>
<event>
 7    1  0.3851772E-009  0.4778727E+02  0.7816164E-02  0.1312668E+00
        -11   -1    0    0    0    0  0.00000000000E+00  0.00000000000E+00  0.45593999997E+02  0.45594000000E+02  0.51100000000E-03 0.  1.
         11   -1    0    0    0    0 -0.00000000000E+00 -0.00000000000E+00 -0.45593999997E+02  0.45594000000E+02  0.51100000000E-03 0. -1.
    9900012    2    1    2    0    0 -0.36787993938E+02 -0.22849509745E+02 -0.28577451731E+01  0.47787270731E+02  0.19999998571E+02 0.  0.
         12    1    1    2    0    0  0.36787993938E+02  0.22849509745E+02  0.28577451731E+01  0.43400729269E+02  0.00000000000E+00 0. -1.
         11    1    3    3    0    0 -0.15213630270E+02 -0.11277495808E+02 -0.10016714733E+02  0.21423609220E+02  0.51100000000E-03 0. -1.
        -11    1    3    3    0    0 -0.19165667590E+02 -0.80947052863E+01  0.75102820459E+01  0.22119028110E+02  0.51100000000E-03 0.  1.
        -12    1    3    3    0    0 -0.24086960788E+01 -0.34773086508E+01 -0.35131248569E+00  0.42446334018E+01  0.00000000000E+00 0.  1.
</event>
<event>
 7    1  0.3851772E-009  0.4778729E+02  0.7816164E-02  0.1312668E+00
        -11   -1    0    0    0    0  0.00000000000E+00  0.00000000000E+00  0.45593999997E+02  0.45594000000E+02  0.51100000000E-03 0.  1.
         11   -1    0    0    0    0 -0.00000000000E+00 -0.00000000000E+00 -0.45593999997E+02  0.45594000000E+02  0.51100000000E-03 0. -1.
    9900012    2    1    2    0    0 -0.25764968070E+02  0.80683382003E+01  0.33980735234E+02  0.47787285397E+02  0.20000065441E+02 0.  0.
         12    1    1    2    0    0  0.25764968070E+02 -0.80683382003E+01 -0.33980735234E+02  0.43400714603E+02  0.00000000000E+00 0. -1.
         11    1    3    3    0    0  0.21802815079E+01 -0.11392848011E+01  0.14218402064E+01  0.28413424899E+01  0.51100000000E-03 0. -1.
        -11    1    3    3    0    0 -0.26053369382E+02  0.96330409272E+01  0.32811626064E+02  0.42990421478E+02  0.51100000000E-03 0.  1.
         12    1    3    3    0    0 -0.18918801949E+01 -0.42541792570E+00 -0.25273103565E+00  0.19555214291E+01  0.00000000000E+00 0. -1.
</event>
<event>
 7    1  0.3851772E-009  0.4778727E+02  0.7816164E-02  0.1312668E+00
        -11   -1    0    0    0    0  0.00000000000E+00  0.00000000000E+00  0.45593999997E+02  0.45594000000E+02  0.51100000000E-03 0. -1.
         11   -1    0    0    0    0 -0.00000000000E+00 -0.00000000000E+00 -0.45593999997E+02  0.45594000000E+02  0.51100000000E-03 0.  1.
    9900012    2    1    2    0    0  0.20925183931E+02 -0.26404175704E+02 -0.27360174728E+02  0.47787274449E+02  0.20000015525E+02 0.  0.
         12    1    1    2    0    0 -0.20925183931E+02  0.26404175704E+02  0.27360174728E+02  0.43400725551E+02  0.00000000000E+00 0. -1.
         11    1    3    3    0    0  0.58588746546E+01 -0.95349372769E+00 -0.69933997899E+01  0.91729604485E+01  0.51100000000E-03 0. -1.
        -11    1    3    3    0    0  0.10525900069E+02 -0.25642945199E+02 -0.14782641829E+02  0.31414673489E+02  0.51100000000E-03 0.  1.
        -12    1    3    3    0    0  0.45404092070E+01  0.19226322230E+00 -0.55841331092E+01  0.71996405115E+01  0.00000000000E+00 0.  1.
</event>
<event>
 7    1  0.3851772E-009  0.4778727E+02  0.7816164E-02  0.1312668E+00
        -11   -1    0    0    0    0  0.00000000000E+00  0.00000000000E+00  0.45593999997E+02  0.45594000000E+02  0.51100000000E-03 0.  1.
         11   -1    0    0    0    0 -0.00000000000E+00 -0.00000000000E+00 -0.45593999997E+02  0.45594000000E+02  0.51100000000E-03 0. -1.
    9900012    2    1    2    0    0  0.16840538823E+02  0.31105450929E+02  0.25148964588E+02  0.47787271375E+02  0.20000001505E+02 0.  0.
         12    1    1    2    0    0 -0.16840538823E+02 -0.31105450929E+02 -0.25148964588E+02  0.43400728625E+02  0.00000000000E+00 0. -1.
         11    1    3    3    0    0 -0.61144743322E+00  0.21394935632E+01 -0.29263052356E+01  0.36762158891E+01  0.51100000000E-03 0. -1.
        -11    1    3    3    0    0  0.83847695958E+01  0.16853148551E+02  0.14165903505E+02  0.23558561068E+02  0.51100000000E-03 0.  1.
         12    1    3    3    0    0  0.90672166609E+01  0.12112808815E+02  0.13909366319E+02  0.20552494417E+02  0.00000000000E+00 0. -1.
</event>
<event>
 7    1  0.3851772E-009  0.4778727E+02  0.7816164E-02  0.1312668E+00
        -11   -1    0    0    0    0  0.00000000000E+00  0.00000000000E+00  0.45593999997E+02  0.45594000000E+02  0.51100000000E-03 0.  1.
         11   -1    0    0    0    0 -0.00000000000E+00 -0.00000000000E+00 -0.45593999997E+02  0.45594000000E+02  0.51100000000E-03 0. -1.
    9900012    2    1    2    0    0 -0.33588324553E+02  0.22700626316E+02  0.15496106826E+02  0.47787270649E+02  0.19999998198E+02 0.  0.
         12    1    1    2    0    0  0.33588324553E+02 -0.22700626316E+02 -0.15496106826E+02  0.43400729351E+02  0.00000000000E+00 0. -1.
         11    1    3    3    0    0 -0.11344456934E+02  0.63533739328E+01  0.14832246064E+02  0.19724542758E+02  0.51100000000E-03 0. -1.
        -11    1    3    3    0    0 -0.17469386595E+02  0.10813277787E+02  0.19646171818E+01  0.20638947780E+02  0.51100000000E-03 0.  1.
         12    1    3    3    0    0 -0.47744810238E+01  0.55339745961E+01 -0.13007564201E+01  0.74237801113E+01  0.00000000000E+00 0. -1.
</event>
<event>
 7    1  0.3851772E-009  0.4778727E+02  0.7816164E-02  0.1312668E+00
        -11   -1    0    0    0    0  0.00000000000E+00  0.00000000000E+00  0.45593999997E+02  0.45594000000E+02  0.51100000000E-03 0. -1.
         11   -1    0    0    0    0 -0.00000000000E+00 -0.00000000000E+00 -0.45593999997E+02  0.45594000000E+02  0.51100000000E-03 0.  1.
    9900012    2    1    2    0    0 -0.13004829638E+02 -0.38847010684E+02 -0.14332034765E+02  0.47787273583E+02  0.20000011576E+02 0.  0.
         12    1    1    2    0    0  0.13004829638E+02  0.38847010684E+02  0.14332034765E+02  0.43400726417E+02  0.00000000000E+00 0. -1.
         11    1    3    3    0    0  0.19529552805E+01 -0.15421802604E+01 -0.28730606259E+01  0.38008988285E+01  0.51100000000E-03 0. -1.
        -11    1    3    3    0    0 -0.14945712709E+02 -0.38376628154E+02 -0.11834138371E+02  0.42850749679E+02  0.51100000000E-03 0.  1.
         12    1    3    3    0    0 -0.12072209686E-01  0.10717977301E+01  0.37516423130E+00  0.11356250758E+01  0.00000000000E+00 0. -1.
</event>
<event>
 7    1  0.3851772E-009  0.4778729E+02  0.7816164E-02  0.1312668E+00
        -11   -1    0    0    0    0  0.00000000000E+00  0.00000000000E+00  0.45593999997E+02  0.45594000000E+02  0.51100000000E-03 0.  1.
         11   -1    0    0    0    0 -0.00000000000E+00 -0.00000000000E+00 -0.45593999997E+02  0.45594000000E+02  0.51100000000E-03 0. -1.
    9900012    2    1    2    0    0  0.51031334434E+01 -0.27354786180E+02  0.33306086039E+02  0.47787289578E+02  0.20000084501E+02 0.  0.
         12    1    1    2    0    0 -0.51031334434E+01  0.27354786180E+02 -0.33306086039E+02  0.43400710422E+02  0.00000000000E+00 0. -1.
         11    1    3    3    0    0  0.98905063179E+01 -0.10357803548E+02  0.11371255376E+02  0.18286925894E+02  0.51100000000E-03 0. -1.
        -11    1    3    3    0    0 -0.28816352750E+01 -0.17459499597E+02  0.18937176995E+02  0.25918229508E+02  0.51100000000E-03 0.  1.
         12    1    3    3    0    0 -0.19057375995E+01  0.46251696438E+00  0.29976536683E+01  0.35821341761E+01  0.00000000000E+00 0. -1.
</event>
<event>
 7    1  0.3851772E-009  0.4778727E+02  0.7816164E-02  0.1312668E+00
        -11   -1    0    0    0    0  0.00000000000E+00  0.00000000000E+00  0.45593999997E+02  0.45594000000E+02  0.51100000000E-03 0.  1.
         11   -1    0    0    0    0 -0.00000000000E+00 -0.00000000000E+00 -0.45593999997E+02  0.45594000000E+02  0.51100000000E-03 0. -1.
    9900012    2    1    2    0    0 -0.78755248132E+01 -0.39374454114E+02  0.16469719694E+02  0.47787271958E+02  0.20000004163E+02 0.  0.
         12    1    1    2    0    0  0.78755248132E+01  0.39374454114E+02 -0.16469719694E+02  0.43400728042E+02  0.00000000000E+00 0. -1.
         11    1    3    3    0    0 -0.51799630020E+01 -0.35987131582E+01  0.53437639077E+01  0.82667143448E+01  0.51100000000E-03 0. -1.
        -11    1    3    3    0    0 -0.42176996006E+01 -0.22480331773E+02  0.12834977176E+01  0.22908550220E+02  0.51100000000E-03 0.  1.
        -12    1    3    3    0    0  0.15221377894E+01 -0.13295409183E+02  0.98424580685E+01  0.16612007393E+02  0.00000000000E+00 0.  1.
</event>
<event>
 7    1  0.3851772E-009  0.4778727E+02  0.7816164E-02  0.1312668E+00
        -11   -1    0    0    0    0  0.00000000000E+00  0.00000000000E+00  0.45593999997E+02  0.45594000000E+02  0.51100000000E-03 0. -1.
         11   -1    0    0    0    0 -0.00000000000E+00 -0.00000000000E+00 -0.45593999997E+02  0.45594000000E+02  0.51100000000E-03 0.  1.
    9900012    2    1    2    0    0  0.39112606603E+02  0.88172866866E+01 -0.16615736888E+02  0.47787271295E+02  0.20000001143E+02 0.  0.
         12    1    1    2    0    0 -0.39112606603E+02 -0.88172866866E+01  0.16615736888E+02  0.43400728705E+02  0.00000000000E+00 0. -1.
         11    1    3    3    0    0  0.26097920126E+01 -0.22208408812E+01  0.24365417086E+01  0.42047454534E+01  0.51100000000E-03 0. -1.
        -11    1    3    3    0    0  0.33749000610E+02  0.10497612972E+02 -0.20012500306E+02  0.40616438656E+02  0.51100000000E-03 0.  1.
        -12    1    3    3    0    0  0.27538139801E+01  0.54051459556E+00  0.96022170965E+00  0.29660871863E+01  0.00000000000E+00 0.  1.
</event>
<event>
 7    1  0.3851772E-009  0.4778727E+02  0.7816164E-02  0.1312668E+00
        -11   -1    0    0    0    0  0.00000000000E+00  0.00000000000E+00  0.45593999997E+02  0.45594000000E+02  0.51100000000E-03 0. -1.
         11   -1    0    0    0    0 -0.00000000000E+00 -0.00000000000E+00 -0.45593999997E+02  0.45594000000E+02  0.51100000000E-03 0.  1.
    9900012    2    1    2    0    0  0.20771590672E+02  0.34081727530E+02 -0.17046989942E+02  0.47787274239E+02  0.20000014567E+02 0.  0.
         12    1    1    2    0    0 -0.20771590672E+02 -0.34081727530E+02  0.17046989942E+02  0.43400725761E+02  0.00000000000E+00 0. -1.
         11    1    3    3    0    0  0.19748688790E+02  0.29739735360E+02 -0.17391355972E+02  0.39710475079E+02  0.51100000000E-03 0.  1.
        -11    1    3    3    0    0  0.33111566256E+00 -0.10252620246E+01  0.21226756135E+01  0.23804520205E+01  0.51100000000E-03 0. -1.
        -12    1    3    3    0    0  0.69178621999E+00  0.53672541943E+01 -0.17783095833E+01  0.56963471396E+01  0.00000000000E+00 0.  1.
</event>
<event>
 7    1  0.3851772E-009  0.4778727E+02  0.7816164E-02  0.1312668E+00
        -11   -1    0    0    0    0  0.00000000000E+00  0.00000000000E+00  0.45593999997E+02  0.45594000000E+02  0.51100000000E-03 0.  1.
         11   -1    0    0    0    0 -0.00000000000E+00 -0.00000000000E+00 -0.45593999997E+02  0.45594000000E+02  0.51100000000E-03 0. -1.
    9900012    2    1    2    0    0 -0.18124924423E+02 -0.24696834300E+02  0.30743727452E+02  0.47787270888E+02  0.19999999287E+02 0.  0.
         12    1    1    2    0    0  0.18124924423E+02  0.24696834300E+02 -0.30743727452E+02  0.43400729112E+02  0.00000000000E+00 0. -1.
         11    1    3    3    0    0 -0.14710420292E+02 -0.90123454892E+01  0.20927789695E+02  0.27121784937E+02  0.51100000000E-03 0. -1.
        -11    1    3    3    0    0 -0.56152813867E+01 -0.10038904948E+02  0.37674038104E+01  0.12103897279E+02  0.51100000000E-03 0.  1.
         12    1    3    3    0    0  0.22007772556E+01 -0.56455838627E+01  0.60485339473E+01  0.85615886721E+01  0.00000000000E+00 0. -1.
</event>
<event>
 7    1  0.3851772E-009  0.4778727E+02  0.7816164E-02  0.1312668E+00
        -11   -1    0    0    0    0  0.00000000000E+00  0.00000000000E+00  0.45593999997E+02  0.45594000000E+02  0.51100000000E-03 0. -1.
         11   -1    0    0    0    0 -0.00000000000E+00 -0.00000000000E+00 -0.45593999997E+02  0.45594000000E+02  0.51100000000E-03 0.  1.
    9900012    2    1    2    0    0  0.29835895406E+02 -0.31346740116E+02  0.32900204462E+01  0.47787274141E+02  0.20000014119E+02 0.  0.
         12    1    1    2    0    0 -0.29835895406E+02  0.31346740116E+02 -0.32900204462E+01  0.43400725859E+02  0.00000000000E+00 0. -1.
         11    1    3    3    0    0 -0.29211246782E+01 -0.18014453653E+01 -0.39191692322E+00  0.34542399925E+01  0.51100000000E-03 0. -1.
        -11    1    3    3    0    0  0.16821225199E+02 -0.16628107809E+02  0.14203569832E+01  0.23695252704E+02  0.51100000000E-03 0.  1.
         12    1    3    3    0    0  0.15935794885E+02 -0.12917186941E+02  0.22615803862E+01  0.20637781444E+02  0.00000000000E+00 0. -1.
</event>
<event>
 7    1  0.3851772E-009  0.4778728E+02  0.7816164E-02  0.1312668E+00
        -11   -1    0    0    0    0  0.00000000000E+00  0.00000000000E+00  0.45593999997E+02  0.45594000000E+02  0.51100000000E-03 0. -1.
         11   -1    0    0    0    0 -0.00000000000E+00 -0.00000000000E+00 -0.45593999997E+02  0.45594000000E+02  0.51100000000E-03 0.  1.
    9900012    2    1    2    0    0 -0.31928420935E+02 -0.27102204035E+02  0.11387242143E+02  0.47787276382E+02  0.20000024336E+02 0.  0.
         12    1    1    2    0    0  0.31928420935E+02  0.27102204035E+02 -0.11387242143E+02  0.43400723618E+02  0.00000000000E+00 0. -1.
         11    1    3    3    0    0 -0.18509267103E+02 -0.14210911870E+02  0.14275081663E+02  0.27355455427E+02  0.51100000000E-03 0. -1.
        -11    1    3    3    0    0 -0.21375493340E+01  0.87100603754E+00 -0.10690348022E+01  0.25437382614E+01  0.51100000000E-03 0.  1.
         12    1    3    3    0    0 -0.11281604499E+02 -0.13762298202E+02 -0.18188047176E+01  0.17888082694E+02  0.00000000000E+00 0. -1.
</event>
<event>
 7    1  0.3851772E-009  0.4778726E+02  0.7816164E-02  0.1312668E+00
        -11   -1    0    0    0    0  0.00000000000E+00  0.00000000000E+00  0.45593999997E+02  0.45594000000E+02  0.51100000000E-03 0.  1.
         11   -1    0    0    0    0 -0.00000000000E+00 -0.00000000000E+00 -0.45593999997E+02  0.45594000000E+02  0.51100000000E-03 0. -1.
    9900012    2    1    2    0    0  0.27984231507E+02  0.20756666700E+02  0.25877933132E+02  0.47787264422E+02  0.19999969805E+02 0.  0.
         12    1    1    2    0    0 -0.27984231507E+02 -0.20756666700E+02 -0.25877933132E+02  0.43400735578E+02  0.00000000000E+00 0. -1.
         11    1    3    3    0    0  0.56196013891E+01  0.75318175729E+01  0.52190102678E+00  0.94117254883E+01  0.51100000000E-03 0. -1.
        -11    1    3    3    0    0  0.10263467568E+02  0.89234558788E+01  0.20591249720E+02  0.24677244511E+02  0.51100000000E-03 0.  1.
        -12    1    3    3    0    0  0.12101162549E+02  0.43013932483E+01  0.47647823856E+01  0.13698294423E+02  0.00000000000E+00 0.  1.
</event>
<event>
 7    1  0.3851772E-009  0.4778727E+02  0.7816164E-02  0.1312668E+00
        -11   -1    0    0    0    0  0.00000000000E+00  0.00000000000E+00  0.45593999997E+02  0.45594000000E+02  0.51100000000E-03 0.  1.
         11   -1    0    0    0    0 -0.00000000000E+00 -0.00000000000E+00 -0.45593999997E+02  0.45594000000E+02  0.51100000000E-03 0. -1.
    9900012    2    1    2    0    0  0.19342656142E+00  0.37076473786E+02  0.22559279543E+02  0.47787269410E+02  0.19999992549E+02 0.  0.
         12    1    1    2    0    0 -0.19342656142E+00 -0.37076473786E+02 -0.22559279543E+02  0.43400730590E+02  0.00000000000E+00 0. -1.
         11    1    3    3    0    0  0.43423215890E+01  0.12095483783E+02  0.38695983336E+00  0.12857146764E+02  0.51100000000E-03 0. -1.
        -11    1    3    3    0    0 -0.36989510709E+01  0.12088779299E+02  0.16630519220E+02  0.20890069262E+02  0.51100000000E-03 0.  1.
        -12    1    3    3    0    0 -0.44994395668E+00  0.12892210703E+02  0.55418004901E+01  0.14040053385E+02  0.00000000000E+00 0.  1.
</event>
<event>
 7    1  0.3851772E-009  0.4778727E+02  0.7816164E-02  0.1312668E+00
        -11   -1    0    0    0    0  0.00000000000E+00  0.00000000000E+00  0.45593999997E+02  0.45594000000E+02  0.51100000000E-03 0.  1.
         11   -1    0    0    0    0 -0.00000000000E+00 -0.00000000000E+00 -0.45593999997E+02  0.45594000000E+02  0.51100000000E-03 0. -1.
    9900012    2    1    2    0    0 -0.68728659637E+00  0.16783584165E+02  0.40018273327E+02  0.47787271200E+02  0.20000000711E+02 0.  0.
         12    1    1    2    0    0  0.68728659637E+00 -0.16783584165E+02 -0.40018273327E+02  0.43400728800E+02  0.00000000000E+00 0. -1.
         11    1    3    3    0    0 -0.25111491597E+01 -0.63546916057E+00  0.47110561796E+00  0.26327992556E+01  0.51100000000E-03 0. -1.
        -11    1    3    3    0    0  0.31675235678E+01  0.14899947632E+02  0.39459936995E+02  0.42298088289E+02  0.51100000000E-03 0.  1.
        -12    1    3    3    0    0 -0.13436610045E+01  0.25191056936E+01  0.87230713533E-01  0.28563836555E+01  0.00000000000E+00 0.  1.
</event>
<event>
 7    1  0.3851772E-009  0.4778727E+02  0.7816164E-02  0.1312668E+00
        -11   -1    0    0    0    0  0.00000000000E+00  0.00000000000E+00  0.45593999997E+02  0.45594000000E+02  0.51100000000E-03 0.  1.
         11   -1    0    0    0    0 -0.00000000000E+00 -0.00000000000E+00 -0.45593999997E+02  0.45594000000E+02  0.51100000000E-03 0. -1.
    9900012    2    1    2    0    0  0.35797055040E+02 -0.82263125672E+01  0.23119728733E+02  0.47787271611E+02  0.20000002583E+02 0.  0.
         12    1    1    2    0    0 -0.35797055040E+02  0.82263125672E+01 -0.23119728733E+02  0.43400728389E+02  0.00000000000E+00 0. -1.
         11    1    3    3    0    0  0.29046400110E+01 -0.41556150192E+01  0.61579655778E+01  0.79766289935E+01  0.51100000000E-03 0. -1.
        -11    1    3    3    0    0  0.32482894262E+02 -0.61259276271E+01  0.13379797544E+02  0.35660684115E+02  0.51100000000E-03 0.  1.
        -12    1    3    3    0    0  0.40952076684E+00  0.20552300791E+01  0.35819656108E+01  0.41499585026E+01  0.00000000000E+00 0.  1.
</event>
<event>
 7    1  0.3851772E-009  0.4778727E+02  0.7816164E-02  0.1312668E+00
        -11   -1    0    0    0    0  0.00000000000E+00  0.00000000000E+00  0.45593999997E+02  0.45594000000E+02  0.51100000000E-03 0.  1.
         11   -1    0    0    0    0 -0.00000000000E+00 -0.00000000000E+00 -0.45593999997E+02  0.45594000000E+02  0.51100000000E-03 0. -1.
    9900012    2    1    2    0    0  0.17144657061E+01 -0.13824067125E+01  0.43344812252E+02  0.47787272009E+02  0.20000004398E+02 0.  0.
         12    1    1    2    0    0 -0.17144657061E+01  0.13824067125E+01 -0.43344812252E+02  0.43400727991E+02  0.00000000000E+00 0. -1.
         11    1    3    3    0    0  0.41247445519E+01  0.82109561708E+01  0.17060500829E+02  0.19377667756E+02  0.51100000000E-03 0. -1.
        -11    1    3    3    0    0 -0.19680992947E+01 -0.73188806628E+01  0.23950055787E+02  0.25120601137E+02  0.51100000000E-03 0.  1.
         12    1    3    3    0    0 -0.44217955110E+00 -0.22744822205E+01  0.23342556361E+01  0.32890031166E+01  0.00000000000E+00 0. -1.
</event>
<event>
 7    1  0.3851772E-009  0.4778727E+02  0.7816164E-02  0.1312668E+00
        -11   -1    0    0    0    0  0.00000000000E+00  0.00000000000E+00  0.45593999997E+02  0.45594000000E+02  0.51100000000E-03 0. -1.
         11   -1    0    0    0    0 -0.00000000000E+00 -0.00000000000E+00 -0.45593999997E+02  0.45594000000E+02  0.51100000000E-03 0.  1.
    9900012    2    1    2    0    0 -0.25019425495E+02 -0.31155680488E+02 -0.16940352287E+02  0.47787267121E+02  0.19999982112E+02 0.  0.
         12    1    1    2    0    0  0.25019425495E+02  0.31155680488E+02  0.16940352287E+02  0.43400732879E+02  0.00000000000E+00 0. -1.
         11    1    3    3    0    0 -0.51699475114E+01 -0.28828621033E+01 -0.10880620927E+02  0.12386571890E+02  0.51100000000E-03 0. -1.
        -11    1    3    3    0    0 -0.11222440115E+02 -0.19120348167E+02 -0.23910110111E+01  0.22299054017E+02  0.51100000000E-03 0.  1.
         12    1    3    3    0    0 -0.86270378694E+01 -0.91524702180E+01 -0.36687203498E+01  0.13101641214E+02  0.00000000000E+00 0. -1.
</event>
<event>
 7    1  0.3851772E-009  0.4778727E+02  0.7816164E-02  0.1312668E+00
        -11   -1    0    0    0    0  0.00000000000E+00  0.00000000000E+00  0.45593999997E+02  0.45594000000E+02  0.51100000000E-03 0.  1.
         11   -1    0    0    0    0 -0.00000000000E+00 -0.00000000000E+00 -0.45593999997E+02  0.45594000000E+02  0.51100000000E-03 0. -1.
    9900012    2    1    2    0    0  0.18695980857E+02  0.14232574907E+02  0.36489962626E+02  0.47787271191E+02  0.20000000667E+02 0.  0.
         12    1    1    2    0    0 -0.18695980857E+02 -0.14232574907E+02 -0.36489962626E+02  0.43400728809E+02  0.00000000000E+00 0. -1.
         11    1    3    3    0    0  0.16385862684E+02  0.53970523416E+01  0.16957623347E+02  0.24190610982E+02  0.51100000000E-03 0. -1.
        -11    1    3    3    0    0  0.29974537362E+01  0.10709230996E+02  0.15271504924E+02  0.18891564793E+02  0.51100000000E-03 0.  1.
         12    1    3    3    0    0 -0.68733556265E+00 -0.18737084306E+01  0.42608343561E+01  0.47050954155E+01  0.00000000000E+00 0. -1.
</event>
<event>
 7    1  0.3851772E-009  0.4778727E+02  0.7816164E-02  0.1312668E+00
        -11   -1    0    0    0    0  0.00000000000E+00  0.00000000000E+00  0.45593999997E+02  0.45594000000E+02  0.51100000000E-03 0.  1.
         11   -1    0    0    0    0 -0.00000000000E+00 -0.00000000000E+00 -0.45593999997E+02  0.45594000000E+02  0.51100000000E-03 0. -1.
    9900012    2    1    2    0    0 -0.31818670927E+02  0.16555742367E+02  0.24435690408E+02  0.47787269699E+02  0.19999993868E+02 0.  0.
         12    1    1    2    0    0  0.31818670927E+02 -0.16555742367E+02 -0.24435690408E+02  0.43400730301E+02  0.00000000000E+00 0. -1.
         11    1    3    3    0    0 -0.36892282824E+01 -0.43704758942E+01  0.40144137348E+01  0.69876306969E+01  0.51100000000E-03 0. -1.
        -11    1    3    3    0    0 -0.27392981652E+02  0.19555215006E+02  0.18796818163E+02  0.38549996770E+02  0.51100000000E-03 0.  1.
        -12    1    3    3    0    0 -0.73646099334E+00  0.13710032553E+01  0.16244585103E+01  0.22496422321E+01  0.00000000000E+00 0.  1.
</event>
<event>
 7    1  0.3851772E-009  0.4778727E+02  0.7816164E-02  0.1312668E+00
        -11   -1    0    0    0    0  0.00000000000E+00  0.00000000000E+00  0.45593999997E+02  0.45594000000E+02  0.51100000000E-03 0.  1.
         11   -1    0    0    0    0 -0.00000000000E+00 -0.00000000000E+00 -0.45593999997E+02  0.45594000000E+02  0.51100000000E-03 0. -1.
    9900012    2    1    2    0    0  0.14835160350E+02  0.37259755721E+02 -0.16590714114E+02  0.47787272197E+02  0.20000005257E+02 0.  0.
         12    1    1    2    0    0 -0.14835160350E+02 -0.37259755721E+02  0.16590714114E+02  0.43400727803E+02  0.00000000000E+00 0. -1.
         11    1    3    3    0    0  0.32769762718E+01  0.12353913225E+02 -0.84453878095E+01  0.15319344665E+02  0.51100000000E-03 0. -1.
        -11    1    3    3    0    0  0.49184630957E+01 -0.11532196859E+00 -0.38047935912E+01  0.62194077623E+01  0.51100000000E-03 0.  1.
        -12    1    3    3    0    0  0.66397209821E+01  0.25021164464E+02 -0.43405327136E+01  0.26248519770E+02  0.00000000000E+00 0.  1.
</event>
<event>
 7    1  0.3851772E-009  0.4778727E+02  0.7816164E-02  0.1312668E+00
        -11   -1    0    0    0    0  0.00000000000E+00  0.00000000000E+00  0.45593999997E+02  0.45594000000E+02  0.51100000000E-03 0.  1.
         11   -1    0    0    0    0 -0.00000000000E+00 -0.00000000000E+00 -0.45593999997E+02  0.45594000000E+02  0.51100000000E-03 0. -1.
    9900012    2    1    2    0    0 -0.87253433893E+01 -0.36981434385E+02 -0.20972961466E+02  0.47787271675E+02  0.20000002877E+02 0.  0.
         12    1    1    2    0    0  0.87253433893E+01  0.36981434385E+02  0.20972961466E+02  0.43400728325E+02  0.00000000000E+00 0. -1.
         11    1    3    3    0    0 -0.65867656832E+01 -0.56513923074E+01 -0.11101444017E+02  0.14091336938E+02  0.51100000000E-03 0. -1.
        -11    1    3    3    0    0  0.21389637210E+01 -0.15511850370E+02 -0.30839547402E+01  0.15959431218E+02  0.51100000000E-03 0.  1.
         12    1    3    3    0    0 -0.42775414271E+01 -0.15818191708E+02 -0.67875627087E+01  0.17736503520E+02  0.00000000000E+00 0. -1.
</event>
<event>
 7    1  0.3851772E-009  0.4778727E+02  0.7816164E-02  0.1312668E+00
        -11   -1    0    0    0    0  0.00000000000E+00  0.00000000000E+00  0.45593999997E+02  0.45594000000E+02  0.51100000000E-03 0. -1.
         11   -1    0    0    0    0 -0.00000000000E+00 -0.00000000000E+00 -0.45593999997E+02  0.45594000000E+02  0.51100000000E-03 0.  1.
    9900012    2    1    2    0    0  0.29130641265E+02 -0.32166931737E+02  0.56336434326E+00  0.47787272618E+02  0.20000007174E+02 0.  0.
         12    1    1    2    0    0 -0.29130641265E+02  0.32166931737E+02 -0.56336434326E+00  0.43400727382E+02  0.00000000000E+00 0. -1.
         11    1    3    3    0    0  0.69269635241E+00 -0.61203833904E+00  0.27728855270E+01  0.29228947248E+01  0.51100000000E-03 0. -1.
        -11    1    3    3    0    0  0.21343303469E+02 -0.30709615336E+02 -0.36500425611E+01  0.37575788589E+02  0.51100000000E-03 0.  1.
        -12    1    3    3    0    0  0.70946414433E+01 -0.84527806197E+00  0.14405213774E+01  0.72885893045E+01  0.00000000000E+00 0.  1.
</event>
<event>
 7    1 -0.8969994E-009  0.4778726E+02  0.7816164E-02  0.1312668E+00
        -11   -1    0    0    0    0  0.00000000000E+00  0.00000000000E+00  0.45593999997E+02  0.45594000000E+02  0.51100000000E-03 0.  1.
         11   -1    0    0    0    0 -0.00000000000E+00 -0.00000000000E+00 -0.45593999997E+02  0.45594000000E+02  0.51100000000E-03 0. -1.
    9900012    2    1    2    0    0 -0.29924709548E+02 -0.29214823845E+02  0.11603003905E+02  0.47787264137E+02  0.19999968504E+02 0.  0.
         12    1    1    2    0    0  0.29924709548E+02  0.29214823845E+02 -0.11603003905E+02  0.43400735863E+02  0.00000000000E+00 0. -1.
         11    1    3    3    0    0 -0.38069772300E+01 -0.35623333760E+01 -0.21402207474E+01  0.56359417864E+01  0.51100000000E-03 0. -1.
        -11    1    3    3    0    0 -0.26637760285E+02 -0.25860586487E+02  0.10113818028E+02  0.38478949074E+02  0.51100000000E-03 0.  1.
        -12    1    3    3    0    0  0.52002796644E+00  0.20809601801E+00  0.36294066238E+01  0.36723732762E+01  0.00000000000E+00 0.  1.
</event>
<event>
 7    1  0.3851772E-009  0.4778727E+02  0.7816164E-02  0.1312668E+00
        -11   -1    0    0    0    0  0.00000000000E+00  0.00000000000E+00  0.45593999997E+02  0.45594000000E+02  0.51100000000E-03 0.  1.
         11   -1    0    0    0    0 -0.00000000000E+00 -0.00000000000E+00 -0.45593999997E+02  0.45594000000E+02  0.51100000000E-03 0. -1.
    9900012    2    1    2    0    0  0.36339377571E+02  0.22854130329E+02  0.63845064886E+01  0.47787267766E+02  0.19999985053E+02 0.  0.
         12    1    1    2    0    0 -0.36339377571E+02 -0.22854130329E+02 -0.63845064886E+01  0.43400732234E+02  0.00000000000E+00 0. -1.
         11    1    3    3    0    0  0.14942804373E+02  0.17499330361E+02  0.27370444458E+01  0.23173376495E+02  0.51100000000E-03 0. -1.
        -11    1    3    3    0    0  0.94719811397E+01  0.75025026974E+01  0.49207467593E+00  0.12093308529E+02  0.51100000000E-03 0.  1.
         12    1    3    3    0    0  0.11924592058E+02 -0.21477027294E+01  0.31553873669E+01  0.12520582742E+02  0.00000000000E+00 0. -1.
</event>
<event>
 7    1  0.3851772E-009  0.4778727E+02  0.7816164E-02  0.1312668E+00
        -11   -1    0    0    0    0  0.00000000000E+00  0.00000000000E+00  0.45593999997E+02  0.45594000000E+02  0.51100000000E-03 0.  1.
         11   -1    0    0    0    0 -0.00000000000E+00 -0.00000000000E+00 -0.45593999997E+02  0.45594000000E+02  0.51100000000E-03 0. -1.
    9900012    2    1    2    0    0 -0.13259561280E+02 -0.39572038284E+02 -0.11910544823E+02  0.47787271236E+02  0.20000000871E+02 0.  0.
         12    1    1    2    0    0  0.13259561280E+02  0.39572038284E+02  0.11910544823E+02  0.43400728764E+02  0.00000000000E+00 0. -1.
         11    1    3    3    0    0 -0.14908568770E+02 -0.26545776427E+02 -0.78387900627E+01  0.31438675207E+02  0.51100000000E-03 0. -1.
        -11    1    3    3    0    0 -0.36308112457E+01 -0.56122252442E+01 -0.23494925590E+01  0.70851942838E+01  0.51100000000E-03 0.  1.
         12    1    3    3    0    0  0.52798187361E+01 -0.74140366132E+01 -0.17222622008E+01  0.92634017443E+01  0.00000000000E+00 0. -1.
</event>
<event>
 7    1  0.3851772E-009  0.4778730E+02  0.7816164E-02  0.1312668E+00
        -11   -1    0    0    0    0  0.00000000000E+00  0.00000000000E+00  0.45593999997E+02  0.45594000000E+02  0.51100000000E-03 0. -1.
         11   -1    0    0    0    0 -0.00000000000E+00 -0.00000000000E+00 -0.45593999997E+02  0.45594000000E+02  0.51100000000E-03 0.  1.
    9900012    2    1    2    0    0  0.30733664519E+02 -0.30503741828E+02 -0.29299329559E+01  0.47787298308E+02  0.20000124304E+02 0.  0.
         12    1    1    2    0    0 -0.30733664519E+02  0.30503741828E+02  0.29299329559E+01  0.43400701692E+02  0.00000000000E+00 0. -1.
         11    1    3    3    0    0  0.10993247236E+02 -0.18726418582E+01 -0.28517481020E+01  0.11510462190E+02  0.51100000000E-03 0. -1.
        -11    1    3    3    0    0  0.96375033570E+01 -0.21482329108E+02 -0.24604246279E+01  0.23673310382E+02  0.51100000000E-03 0.  1.
        -12    1    3    3    0    0  0.10102913926E+02 -0.71487708615E+01  0.23822397740E+01  0.12603525735E+02  0.00000000000E+00 0.  1.
</event>
<event>
 7    1  0.3851772E-009  0.4778727E+02  0.7816164E-02  0.1312668E+00
        -11   -1    0    0    0    0  0.00000000000E+00  0.00000000000E+00  0.45593999997E+02  0.45594000000E+02  0.51100000000E-03 0.  1.
         11   -1    0    0    0    0 -0.00000000000E+00 -0.00000000000E+00 -0.45593999997E+02  0.45594000000E+02  0.51100000000E-03 0. -1.
    9900012    2    1    2    0    0 -0.32141648455E+02  0.17374011448E+02  0.23423946764E+02  0.47787272803E+02  0.20000008019E+02 0.  0.
         12    1    1    2    0    0  0.32141648455E+02 -0.17374011448E+02 -0.23423946764E+02  0.43400727197E+02  0.00000000000E+00 0. -1.
         11    1    3    3    0    0 -0.20499708906E+02  0.10421252363E+02  0.55937621689E+01  0.23667081390E+02  0.51100000000E-03 0. -1.
        -11    1    3    3    0    0 -0.31258452212E+01  0.93095808224E+00  0.11422679440E+02  0.11879191771E+02  0.51100000000E-03 0.  1.
         12    1    3    3    0    0 -0.85160943284E+01  0.60218010022E+01  0.64075051555E+01  0.12240999642E+02  0.00000000000E+00 0. -1.
</event>
<event>
 7    1  0.3851772E-009  0.4778727E+02  0.7816164E-02  0.1312668E+00
        -11   -1    0    0    0    0  0.00000000000E+00  0.00000000000E+00  0.45593999997E+02  0.45594000000E+02  0.51100000000E-03 0. -1.
         11   -1    0    0    0    0 -0.00000000000E+00 -0.00000000000E+00 -0.45593999997E+02  0.45594000000E+02  0.51100000000E-03 0.  1.
    9900012    2    1    2    0    0  0.38296548268E+02  0.19032365035E+02  0.74004426620E+01  0.47787273282E+02  0.20000010202E+02 0.  0.
         12    1    1    2    0    0 -0.38296548268E+02 -0.19032365035E+02 -0.74004426620E+01  0.43400726718E+02  0.00000000000E+00 0. -1.
         11    1    3    3    0    0 -0.59374354073E+00 -0.20725744126E+01  0.68042215710E+00  0.22607677150E+01  0.51100000000E-03 0. -1.
        -11    1    3    3    0    0  0.27323351224E+02  0.10469926113E+02  0.33049098477E+01  0.29446685794E+02  0.51100000000E-03 0.  1.
         12    1    3    3    0    0  0.11566940585E+02  0.10635013334E+02  0.34151106573E+01  0.16079819773E+02  0.00000000000E+00 0. -1.
</event>
<event>
 7    1  0.3851772E-009  0.4778727E+02  0.7816164E-02  0.1312668E+00
        -11   -1    0    0    0    0  0.00000000000E+00  0.00000000000E+00  0.45593999997E+02  0.45594000000E+02  0.51100000000E-03 0.  1.
         11   -1    0    0    0    0 -0.00000000000E+00 -0.00000000000E+00 -0.45593999997E+02  0.45594000000E+02  0.51100000000E-03 0. -1.
    9900012    2    1    2    0    0  0.35501113470E+02  0.12761990457E+02  0.21457528288E+02  0.47787274450E+02  0.20000015528E+02 0.  0.
         12    1    1    2    0    0 -0.35501113470E+02 -0.12761990457E+02 -0.21457528288E+02  0.43400725550E+02  0.00000000000E+00 0. -1.
         11    1    3    3    0    0  0.52944597411E+01  0.28432192485E+01  0.65493547132E+00  0.60451749666E+01  0.51100000000E-03 0. -1.
        -11    1    3    3    0    0  0.31826196184E+02  0.11507365679E+02  0.18787850405E+02  0.38708003714E+02  0.51100000000E-03 0.  1.
        -12    1    3    3    0    0 -0.16195424548E+01 -0.15885944705E+01  0.20147424117E+01  0.30340957698E+01  0.00000000000E+00 0.  1.
</event>
<event>
 7    1  0.3851772E-009  0.4778727E+02  0.7816164E-02  0.1312668E+00
        -11   -1    0    0    0    0  0.00000000000E+00  0.00000000000E+00  0.45593999997E+02  0.45594000000E+02  0.51100000000E-03 0. -1.
         11   -1    0    0    0    0 -0.00000000000E+00 -0.00000000000E+00 -0.45593999997E+02  0.45594000000E+02  0.51100000000E-03 0.  1.
    9900012    2    1    2    0    0 -0.13489097265E+02 -0.21894741757E+02 -0.34961230755E+02  0.47787272845E+02  0.20000008211E+02 0.  0.
         12    1    1    2    0    0  0.13489097265E+02  0.21894741757E+02  0.34961230755E+02  0.43400727155E+02  0.00000000000E+00 0. -1.
         11    1    3    3    0    0 -0.31231614387E+01 -0.35830935876E+01  0.75023837601E+00  0.48120219151E+01  0.51100000000E-03 0. -1.
        -11    1    3    3    0    0 -0.71843070928E+01 -0.52912055360E+01 -0.22279231090E+02  0.23999484633E+02  0.51100000000E-03 0.  1.
        -12    1    3    3    0    0 -0.31816287339E+01 -0.13020442633E+02 -0.13432238042E+02  0.18975766297E+02  0.00000000000E+00 0.  1.
</event>
<event>
 7    1  0.3851772E-009  0.4778728E+02  0.7816164E-02  0.1312668E+00
        -11   -1    0    0    0    0  0.00000000000E+00  0.00000000000E+00  0.45593999997E+02  0.45594000000E+02  0.51100000000E-03 0.  1.
         11   -1    0    0    0    0 -0.00000000000E+00 -0.00000000000E+00 -0.45593999997E+02  0.45594000000E+02  0.51100000000E-03 0. -1.
    9900012    2    1    2    0    0  0.21287390571E+01 -0.40451804440E+02 -0.15580200548E+02  0.47787278099E+02  0.20000032165E+02 0.  0.
         12    1    1    2    0    0 -0.21287390571E+01  0.40451804440E+02  0.15580200548E+02  0.43400721901E+02  0.00000000000E+00 0. -1.
         11    1    3    3    0    0  0.63503278552E+01 -0.14346484464E+02 -0.13870912832E+02  0.20941597441E+02  0.51100000000E-03 0. -1.
        -11    1    3    3    0    0 -0.29285780951E+01 -0.23780179006E+02 -0.61156582329E+00  0.23967634348E+02  0.51100000000E-03 0.  1.
         12    1    3    3    0    0 -0.12930107030E+01 -0.23251409692E+01 -0.10977218930E+01  0.28780463094E+01  0.00000000000E+00 0. -1.
</event>
<event>
 7    1  0.3851772E-009  0.4778727E+02  0.7816164E-02  0.1312668E+00
        -11   -1    0    0    0    0  0.00000000000E+00  0.00000000000E+00  0.45593999997E+02  0.45594000000E+02  0.51100000000E-03 0.  1.
         11   -1    0    0    0    0 -0.00000000000E+00 -0.00000000000E+00 -0.45593999997E+02  0.45594000000E+02  0.51100000000E-03 0. -1.
    9900012    2    1    2    0    0 -0.16278229214E+02  0.18210563083E+02  0.35875027531E+02  0.47787274724E+02  0.20000016777E+02 0.  0.
         12    1    1    2    0    0  0.16278229214E+02 -0.18210563083E+02 -0.35875027531E+02  0.43400725276E+02  0.00000000000E+00 0. -1.
         11    1    3    3    0    0 -0.53490951492E+01  0.22300604123E+01  0.14511788779E+01  0.59742705626E+01  0.51100000000E-03 0. -1.
        -11    1    3    3    0    0 -0.27825002704E+01  0.14872619101E+02  0.25716531985E+02  0.29837512032E+02  0.51100000000E-03 0.  1.
        -12    1    3    3    0    0 -0.81466337945E+01  0.11078835700E+01  0.87073166678E+01  0.11975492129E+02  0.00000000000E+00 0.  1.
</event>
<event>
 7    1  0.3851772E-009  0.4778727E+02  0.7816164E-02  0.1312668E+00
        -11   -1    0    0    0    0  0.00000000000E+00  0.00000000000E+00  0.45593999997E+02  0.45594000000E+02  0.51100000000E-03 0.  1.
         11   -1    0    0    0    0 -0.00000000000E+00 -0.00000000000E+00 -0.45593999997E+02  0.45594000000E+02  0.51100000000E-03 0. -1.
    9900012    2    1    2    0    0 -0.82671731916E+01 -0.23203332188E+02  0.35733495835E+02  0.47787268419E+02  0.19999988028E+02 0.  0.
         12    1    1    2    0    0  0.82671731916E+01  0.23203332188E+02 -0.35733495835E+02  0.43400731581E+02  0.00000000000E+00 0. -1.
         11    1    3    3    0    0 -0.67005157123E+01 -0.19529818797E+02  0.25667797821E+02  0.32941563082E+02  0.51100000000E-03 0.  1.
        -11    1    3    3    0    0  0.37414525053E+01 -0.20114430380E+01  0.12607299930E+01  0.44310055655E+01  0.51100000000E-03 0. -1.
        -12    1    3    3    0    0 -0.53081099847E+01 -0.16620703529E+01  0.88049680210E+01  0.10414699771E+02  0.00000000000E+00 0.  1.
</event>
<event>
 7    1  0.3851772E-009  0.4778727E+02  0.7816164E-02  0.1312668E+00
        -11   -1    0    0    0    0  0.00000000000E+00  0.00000000000E+00  0.45593999997E+02  0.45594000000E+02  0.51100000000E-03 0.  1.
         11   -1    0    0    0    0 -0.00000000000E+00 -0.00000000000E+00 -0.45593999997E+02  0.45594000000E+02  0.51100000000E-03 0. -1.
    9900012    2    1    2    0    0  0.32740716323E+02  0.28095691906E+02  0.47224083746E+01  0.47787267865E+02  0.19999985503E+02 0.  0.
         12    1    1    2    0    0 -0.32740716323E+02 -0.28095691906E+02 -0.47224083746E+01  0.43400732135E+02  0.00000000000E+00 0. -1.
         11    1    3    3    0    0  0.11176386977E+02  0.19963017269E+02  0.32634574363E+01  0.23110253980E+02  0.51100000000E-03 0.  1.
        -11    1    3    3    0    0  0.11110467005E+02 -0.28787686688E+00 -0.42324210831E+00  0.11122251764E+02  0.51100000000E-03 0. -1.
         12    1    3    3    0    0  0.10453862341E+02  0.84205515042E+01  0.18821930466E+01  0.13554762121E+02  0.00000000000E+00 0. -1.
</event>
<event>
 7    1  0.3851772E-009  0.4778727E+02  0.7816164E-02  0.1312668E+00
        -11   -1    0    0    0    0  0.00000000000E+00  0.00000000000E+00  0.45593999997E+02  0.45594000000E+02  0.51100000000E-03 0. -1.
         11   -1    0    0    0    0 -0.00000000000E+00 -0.00000000000E+00 -0.45593999997E+02  0.45594000000E+02  0.51100000000E-03 0.  1.
    9900012    2    1    2    0    0 -0.20107235369E+02  0.32634001451E+02 -0.20355461274E+02  0.47787265345E+02  0.19999974015E+02 0.  0.
         12    1    1    2    0    0  0.20107235369E+02 -0.32634001451E+02  0.20355461274E+02  0.43400734655E+02  0.00000000000E+00 0. -1.
         11    1    3    3    0    0  0.15061425047E+01  0.69679400037E+01 -0.29657863971E+01  0.77211749336E+01  0.51100000000E-03 0. -1.
        -11    1    3    3    0    0 -0.13543961481E+02  0.15030732381E+02 -0.17446341673E+02  0.26715850100E+02  0.51100000000E-03 0.  1.
        -12    1    3    3    0    0 -0.80694163929E+01  0.10635329066E+02  0.56666795937E-01  0.13350240312E+02  0.00000000000E+00 0.  1.
</event>
<event>
 7    1  0.3851772E-009  0.4778727E+02  0.7816164E-02  0.1312668E+00
        -11   -1    0    0    0    0  0.00000000000E+00  0.00000000000E+00  0.45593999997E+02  0.45594000000E+02  0.51100000000E-03 0.  1.
         11   -1    0    0    0    0 -0.00000000000E+00 -0.00000000000E+00 -0.45593999997E+02  0.45594000000E+02  0.51100000000E-03 0. -1.
    9900012    2    1    2    0    0  0.31742605525E+02  0.10497403628E+02  0.27673720671E+02  0.47787270695E+02  0.19999998406E+02 0.  0.
         12    1    1    2    0    0 -0.31742605525E+02 -0.10497403628E+02 -0.27673720671E+02  0.43400729305E+02  0.00000000000E+00 0. -1.
         11    1    3    3    0    0 -0.16395713823E+01  0.20294475565E+01  0.84417206320E+00  0.27421667410E+01  0.51100000000E-03 0. -1.
        -11    1    3    3    0    0  0.27404362454E+02  0.33578984881E+01  0.16871615866E+02  0.32356235658E+02  0.51100000000E-03 0.  1.
        -12    1    3    3    0    0  0.59778144538E+01  0.51100575834E+01  0.99579327411E+01  0.12688868296E+02  0.00000000000E+00 0.  1.
</event>
<event>
 7    1  0.3851772E-009  0.4778722E+02  0.7816164E-02  0.1312668E+00
        -11   -1    0    0    0    0  0.00000000000E+00  0.00000000000E+00  0.45593999997E+02  0.45594000000E+02  0.51100000000E-03 0.  1.
         11   -1    0    0    0    0 -0.00000000000E+00 -0.00000000000E+00 -0.45593999997E+02  0.45594000000E+02  0.51100000000E-03 0. -1.
    9900012    2    1    2    0    0  0.35457116758E+02  0.11726686807E+02  0.22111208696E+02  0.47787218184E+02  0.19999758985E+02 0.  0.
         12    1    1    2    0    0 -0.35457116758E+02 -0.11726686807E+02 -0.22111208696E+02  0.43400781816E+02  0.00000000000E+00 0. -1.
         11    1    3    3    0    0 -0.16207137054E+01 -0.15152449301E+00 -0.84807149944E+00  0.18354558333E+01  0.51100000000E-03 0. -1.
        -11    1    3    3    0    0  0.21866887518E+02  0.29598995902E+01  0.14420551561E+02  0.26360464391E+02  0.51100000000E-03 0.  1.
         12    1    3    3    0    0  0.15210942946E+02  0.89183117098E+01  0.85387286346E+01  0.19591297960E+02  0.00000000000E+00 0. -1.
</event>
<event>
 7    1  0.3851772E-009  0.4778727E+02  0.7816164E-02  0.1312668E+00
        -11   -1    0    0    0    0  0.00000000000E+00  0.00000000000E+00  0.45593999997E+02  0.45594000000E+02  0.51100000000E-03 0. -1.
         11   -1    0    0    0    0 -0.00000000000E+00 -0.00000000000E+00 -0.45593999997E+02  0.45594000000E+02  0.51100000000E-03 0.  1.
    9900012    2    1    2    0    0  0.21682274224E+02 -0.29435777024E+01  0.37481163820E+02  0.47787270669E+02  0.19999998287E+02 0.  0.
         12    1    1    2    0    0 -0.21682274224E+02  0.29435777024E+01 -0.37481163820E+02  0.43400729331E+02  0.00000000000E+00 0. -1.
         11    1    3    3    0    0  0.20039937567E+02 -0.72756402992E+01  0.27136801754E+02  0.34509999263E+02  0.51100000000E-03 0. -1.
        -11    1    3    3    0    0 -0.16980279304E+01  0.53225927447E+00  0.19641693322E-01  0.17796024401E+01  0.51100000000E-03 0.  1.
         12    1    3    3    0    0  0.33403645872E+01  0.37998033224E+01  0.10324720372E+02  0.11497668965E+02  0.00000000000E+00 0. -1.
</event>
<event>
 7    1  0.3851772E-009  0.4778727E+02  0.7816164E-02  0.1312668E+00
        -11   -1    0    0    0    0  0.00000000000E+00  0.00000000000E+00  0.45593999997E+02  0.45594000000E+02  0.51100000000E-03 0. -1.
         11   -1    0    0    0    0 -0.00000000000E+00 -0.00000000000E+00 -0.45593999997E+02  0.45594000000E+02  0.51100000000E-03 0.  1.
    9900012    2    1    2    0    0  0.39246205016E+02 -0.14494949483E+01 -0.18473154561E+02  0.47787273241E+02  0.20000010016E+02 0.  0.
         12    1    1    2    0    0 -0.39246205016E+02  0.14494949483E+01  0.18473154561E+02  0.43400726759E+02  0.00000000000E+00 0. -1.
         11    1    3    3    0    0  0.15298538457E+02  0.10223923587E+01  0.15181334742E+01  0.15407637540E+02  0.51100000000E-03 0. -1.
        -11    1    3    3    0    0  0.11045002879E+02 -0.53114200877E+01 -0.99135586444E+01  0.15763309208E+02  0.51100000000E-03 0.  1.
         12    1    3    3    0    0  0.12902663680E+02  0.28395327807E+01 -0.10077729391E+02  0.16616326493E+02  0.00000000000E+00 0. -1.
</event>
<event>
 7    1  0.3851772E-009  0.4778727E+02  0.7816164E-02  0.1312668E+00
        -11   -1    0    0    0    0  0.00000000000E+00  0.00000000000E+00  0.45593999997E+02  0.45594000000E+02  0.51100000000E-03 0.  1.
         11   -1    0    0    0    0 -0.00000000000E+00 -0.00000000000E+00 -0.45593999997E+02  0.45594000000E+02  0.51100000000E-03 0. -1.
    9900012    2    1    2    0    0 -0.14642075712E+02  0.18186588298E+02  0.36585261845E+02  0.47787265452E+02  0.19999974500E+02 0.  0.
         12    1    1    2    0    0  0.14642075712E+02 -0.18186588298E+02 -0.36585261845E+02  0.43400734548E+02  0.00000000000E+00 0. -1.
         11    1    3    3    0    0 -0.44948960850E+01 -0.19582232210E+01  0.75867332620E+01  0.90331196632E+01  0.51100000000E-03 0. -1.
        -11    1    3    3    0    0 -0.51515515349E+01  0.16031095727E+02  0.12320318064E+02  0.20864437469E+02  0.51100000000E-03 0.  1.
        -12    1    3    3    0    0 -0.49956280916E+01  0.41137157922E+01  0.16678210519E+02  0.17889708320E+02  0.00000000000E+00 0.  1.
</event>
<event>
 7    1  0.3851772E-009  0.4778733E+02  0.7816164E-02  0.1312667E+00
        -11   -1    0    0    0    0  0.00000000000E+00  0.00000000000E+00  0.45593999997E+02  0.45594000000E+02  0.51100000000E-03 0.  1.
         11   -1    0    0    0    0 -0.00000000000E+00 -0.00000000000E+00 -0.45593999997E+02  0.45594000000E+02  0.51100000000E-03 0. -1.
    9900012    2    1    2    0    0 -0.35395789512E+02 -0.14202421775E+02  0.20713457607E+02  0.47787331509E+02  0.20000275679E+02 0.  0.
         12    1    1    2    0    0  0.35395789512E+02  0.14202421775E+02 -0.20713457607E+02  0.43400668491E+02  0.00000000000E+00 0. -1.
         11    1    3    3    0    0 -0.27713881377E+02 -0.15612437019E+02  0.14536245432E+02  0.34972987321E+02  0.51100000000E-03 0.  1.
        -11    1    3    3    0    0 -0.75467363842E+01  0.33126518587E+01  0.24020675237E+01  0.85846852615E+01  0.51100000000E-03 0. -1.
        -12    1    3    3    0    0 -0.13517175064E+00 -0.19026366147E+01  0.37751446512E+01  0.42296589257E+01  0.00000000000E+00 0.  1.
</event>
<event>
 7    1  0.3851772E-009  0.4778727E+02  0.7816164E-02  0.1312668E+00
        -11   -1    0    0    0    0  0.00000000000E+00  0.00000000000E+00  0.45593999997E+02  0.45594000000E+02  0.51100000000E-03 0. -1.
         11   -1    0    0    0    0 -0.00000000000E+00 -0.00000000000E+00 -0.45593999997E+02  0.45594000000E+02  0.51100000000E-03 0.  1.
    9900012    2    1    2    0    0  0.49662052819E+01  0.16852728221E+02 -0.39685585566E+02  0.47787270224E+02  0.19999996260E+02 0.  0.
         12    1    1    2    0    0 -0.49662052819E+01 -0.16852728221E+02  0.39685585566E+02  0.43400729776E+02  0.00000000000E+00 0. -1.
         11    1    3    3    0    0  0.24622410817E+01 -0.10729697131E+01  0.61984367858E+00  0.27564654173E+01  0.51100000000E-03 0. -1.
        -11    1    3    3    0    0  0.20102529762E+01  0.10874370015E+02 -0.33261700627E+02  0.35051872548E+02  0.51100000000E-03 0.  1.
        -12    1    3    3    0    0  0.49371122398E+00  0.70513279192E+01 -0.70437286174E+01  0.99789322592E+01  0.00000000000E+00 0.  1.
</event>
<event>
 7    1  0.3851772E-009  0.4778728E+02  0.7816164E-02  0.1312668E+00
        -11   -1    0    0    0    0  0.00000000000E+00  0.00000000000E+00  0.45593999997E+02  0.45594000000E+02  0.51100000000E-03 0.  1.
         11   -1    0    0    0    0 -0.00000000000E+00 -0.00000000000E+00 -0.45593999997E+02  0.45594000000E+02  0.51100000000E-03 0. -1.
    9900012    2    1    2    0    0  0.20129276075E+02  0.22547324941E+02  0.31145676573E+02  0.47787276660E+02  0.20000025603E+02 0.  0.
         12    1    1    2    0    0 -0.20129276075E+02 -0.22547324941E+02 -0.31145676573E+02  0.43400723340E+02  0.00000000000E+00 0. -1.
         11    1    3    3    0    0  0.26470485835E+01  0.38975341253E+01  0.12484936763E+02  0.13344335304E+02  0.51100000000E-03 0. -1.
        -11    1    3    3    0    0  0.15976221941E+02  0.10616850894E+02  0.74697546360E+01  0.20585296330E+02  0.51100000000E-03 0.  1.
        -12    1    3    3    0    0  0.15060055500E+01  0.80329399218E+01  0.11190985173E+02  0.13857645026E+02  0.00000000000E+00 0.  1.
</event>
<event>
 7    1  0.3851772E-009  0.4778727E+02  0.7816164E-02  0.1312668E+00
        -11   -1    0    0    0    0  0.00000000000E+00  0.00000000000E+00  0.45593999997E+02  0.45594000000E+02  0.51100000000E-03 0. -1.
         11   -1    0    0    0    0 -0.00000000000E+00 -0.00000000000E+00 -0.45593999997E+02  0.45594000000E+02  0.51100000000E-03 0.  1.
    9900012    2    1    2    0    0 -0.25620763784E+02  0.53368297315E+01 -0.34622510008E+02  0.47787268581E+02  0.19999988767E+02 0.  0.
         12    1    1    2    0    0  0.25620763784E+02 -0.53368297315E+01  0.34622510008E+02  0.43400731419E+02  0.00000000000E+00 0. -1.
         11    1    3    3    0    0 -0.39685533893E+01  0.19733402540E+01  0.16555797475E+01  0.47312189046E+01  0.51100000000E-03 0. -1.
        -11    1    3    3    0    0 -0.20291718828E+02  0.50230228754E+01 -0.34107054606E+02  0.40003447176E+02  0.51100000000E-03 0.  1.
         12    1    3    3    0    0 -0.13604915660E+01 -0.16595333980E+01 -0.21710351496E+01  0.30526024997E+01  0.00000000000E+00 0. -1.
</event>
<event>
 7    1  0.3851772E-009  0.4778727E+02  0.7816164E-02  0.1312668E+00
        -11   -1    0    0    0    0  0.00000000000E+00  0.00000000000E+00  0.45593999997E+02  0.45594000000E+02  0.51100000000E-03 0.  1.
         11   -1    0    0    0    0 -0.00000000000E+00 -0.00000000000E+00 -0.45593999997E+02  0.45594000000E+02  0.51100000000E-03 0. -1.
    9900012    2    1    2    0    0  0.28919826208E+02 -0.13013745552E+02  0.29629542222E+02  0.47787266211E+02  0.19999977961E+02 0.  0.
         12    1    1    2    0    0 -0.28919826208E+02  0.13013745552E+02 -0.29629542222E+02  0.43400733789E+02  0.00000000000E+00 0. -1.
         11    1    3    3    0    0  0.18911065724E+01 -0.41649992445E+00  0.11021024655E+02  0.11189849908E+02  0.51100000000E-03 0.  1.
        -11    1    3    3    0    0  0.30276288806E+00 -0.27398132037E+01  0.31557447704E+01  0.41901034683E+01  0.51100000000E-03 0. -1.
         12    1    3    3    0    0  0.26725956747E+02 -0.98574324240E+01  0.15452772796E+02  0.32407312835E+02  0.00000000000E+00 0. -1.
</event>
<event>
 7    1  0.3851772E-009  0.4778726E+02  0.7816164E-02  0.1312668E+00
        -11   -1    0    0    0    0  0.00000000000E+00  0.00000000000E+00  0.45593999997E+02  0.45594000000E+02  0.51100000000E-03 0.  1.
         11   -1    0    0    0    0 -0.00000000000E+00 -0.00000000000E+00 -0.45593999997E+02  0.45594000000E+02  0.51100000000E-03 0. -1.
    9900012    2    1    2    0    0  0.18451901318E+01  0.39549302159E+02  0.17778411359E+02  0.47787263389E+02  0.19999965098E+02 0.  0.
         12    1    1    2    0    0 -0.18451901318E+01 -0.39549302159E+02 -0.17778411359E+02  0.43400736611E+02  0.00000000000E+00 0. -1.
         11    1    3    3    0    0  0.79503639234E+00 -0.11668597889E+01  0.61587397873E+00  0.15404368377E+01  0.51100000000E-03 0. -1.
        -11    1    3    3    0    0 -0.52314478762E+00  0.39819882432E+02  0.18582766251E+02  0.43945601818E+02  0.51100000000E-03 0.  1.
        -12    1    3    3    0    0  0.15732985271E+01  0.89627951644E+00 -0.14202288715E+01  0.23012247336E+01  0.00000000000E+00 0.  1.
</event>
<event>
 7    1  0.3851772E-009  0.4778727E+02  0.7816164E-02  0.1312668E+00
        -11   -1    0    0    0    0  0.00000000000E+00  0.00000000000E+00  0.45593999997E+02  0.45594000000E+02  0.51100000000E-03 0.  1.
         11   -1    0    0    0    0 -0.00000000000E+00 -0.00000000000E+00 -0.45593999997E+02  0.45594000000E+02  0.51100000000E-03 0. -1.
    9900012    2    1    2    0    0 -0.32574267246E+02 -0.88168786273E+01  0.27291082771E+02  0.47787269198E+02  0.19999991583E+02 0.  0.
         12    1    1    2    0    0  0.32574267246E+02  0.88168786273E+01 -0.27291082771E+02  0.43400730802E+02  0.00000000000E+00 0. -1.
         11    1    3    3    0    0 -0.21775951157E+02 -0.11906455262E+02  0.22347702193E+02  0.33397238199E+02  0.51100000000E-03 0. -1.
        -11    1    3    3    0    0 -0.46635500074E+01 -0.10293397678E+01 -0.10332577488E+01  0.48862931620E+01  0.51100000000E-03 0.  1.
         12    1    3    3    0    0 -0.61347660809E+01  0.41189164028E+01  0.59766383263E+01  0.95037378375E+01  0.00000000000E+00 0. -1.
</event>
<event>
 7    1  0.3851772E-009  0.4778726E+02  0.7816164E-02  0.1312668E+00
        -11   -1    0    0    0    0  0.00000000000E+00  0.00000000000E+00  0.45593999997E+02  0.45594000000E+02  0.51100000000E-03 0.  1.
         11   -1    0    0    0    0 -0.00000000000E+00 -0.00000000000E+00 -0.45593999997E+02  0.45594000000E+02  0.51100000000E-03 0. -1.
    9900012    2    1    2    0    0 -0.27777908254E+02  0.33336242720E+02 -0.84058234433E+00  0.47787264473E+02  0.19999970036E+02 0.  0.
         12    1    1    2    0    0  0.27777908254E+02 -0.33336242720E+02  0.84058234433E+00  0.43400735527E+02  0.00000000000E+00 0. -1.
         11    1    3    3    0    0 -0.98451371282E+01  0.24490084187E+02 -0.26415386966E+01  0.26526753957E+02  0.51100000000E-03 0. -1.
        -11    1    3    3    0    0 -0.67008767794E+01  0.74418729926E+00  0.29595269842E+01  0.73630404440E+01  0.51100000000E-03 0.  1.
        -12    1    3    3    0    0 -0.11231894346E+02  0.81019712335E+01 -0.11585706319E+01  0.13897470071E+02  0.00000000000E+00 0.  1.
</event>
<event>
 7    1  0.3851772E-009  0.4778727E+02  0.7816164E-02  0.1312668E+00
        -11   -1    0    0    0    0  0.00000000000E+00  0.00000000000E+00  0.45593999997E+02  0.45594000000E+02  0.51100000000E-03 0.  1.
         11   -1    0    0    0    0 -0.00000000000E+00 -0.00000000000E+00 -0.45593999997E+02  0.45594000000E+02  0.51100000000E-03 0. -1.
    9900012    2    1    2    0    0  0.45276382370E+01 -0.28582326781E+02  0.32344619415E+02  0.47787270544E+02  0.19999997717E+02 0.  0.
         12    1    1    2    0    0 -0.45276382370E+01  0.28582326781E+02 -0.32344619415E+02  0.43400729456E+02  0.00000000000E+00 0. -1.
         11    1    3    3    0    0 -0.25664964273E+01 -0.13305289103E+02  0.12942038571E+02  0.18738035774E+02  0.51100000000E-03 0. -1.
        -11    1    3    3    0    0  0.11033704103E+02 -0.12331382998E+02  0.13426730328E+02  0.21309216796E+02  0.51100000000E-03 0.  1.
        -12    1    3    3    0    0 -0.39395694387E+01 -0.29456546805E+01  0.59758505159E+01  0.77400179746E+01  0.00000000000E+00 0.  1.
</event>
<event>
 7    1  0.3851772E-009  0.4778729E+02  0.7816164E-02  0.1312668E+00
        -11   -1    0    0    0    0  0.00000000000E+00  0.00000000000E+00  0.45593999997E+02  0.45594000000E+02  0.51100000000E-03 0.  1.
         11   -1    0    0    0    0 -0.00000000000E+00 -0.00000000000E+00 -0.45593999997E+02  0.45594000000E+02  0.51100000000E-03 0. -1.
    9900012    2    1    2    0    0  0.21060122051E+02  0.14163989822E+02  0.35206168185E+02  0.47787290020E+02  0.20000086518E+02 0.  0.
         12    1    1    2    0    0 -0.21060122051E+02 -0.14163989822E+02 -0.35206168185E+02  0.43400709980E+02  0.00000000000E+00 0. -1.
         11    1    3    3    0    0  0.21644284888E+01  0.17399543324E+00  0.18118496642E+02  0.18248149109E+02  0.51100000000E-03 0. -1.
        -11    1    3    3    0    0  0.13195007919E+02  0.12561092643E+02  0.12971607313E+02  0.22364075633E+02  0.51100000000E-03 0.  1.
         12    1    3    3    0    0  0.57006856427E+01  0.14289017458E+01  0.41160642298E+01  0.71750652777E+01  0.00000000000E+00 0. -1.
</event>
<event>
 7    1  0.3851772E-009  0.4778727E+02  0.7816164E-02  0.1312668E+00
        -11   -1    0    0    0    0  0.00000000000E+00  0.00000000000E+00  0.45593999997E+02  0.45594000000E+02  0.51100000000E-03 0. -1.
         11   -1    0    0    0    0 -0.00000000000E+00 -0.00000000000E+00 -0.45593999997E+02  0.45594000000E+02  0.51100000000E-03 0.  1.
    9900012    2    1    2    0    0  0.39645215026E+02  0.16834504138E+02  0.53366167493E+01  0.47787273251E+02  0.20000010060E+02 0.  0.
         12    1    1    2    0    0 -0.39645215026E+02 -0.16834504138E+02 -0.53366167493E+01  0.43400726749E+02  0.00000000000E+00 0. -1.
         11    1    3    3    0    0  0.74445880457E+01  0.31060225270E+00  0.74144408255E+01  0.10511531665E+02  0.51100000000E-03 0. -1.
        -11    1    3    3    0    0  0.67954388572E+01  0.77643142534E+01  0.56155271818E-01  0.10318222655E+02  0.51100000000E-03 0.  1.
         12    1    3    3    0    0  0.25405188123E+02  0.87595876323E+01 -0.21339793480E+01  0.26957518931E+02  0.00000000000E+00 0. -1.
</event>
<event>
 7    1  0.3851772E-009  0.4778727E+02  0.7816164E-02  0.1312668E+00
        -11   -1    0    0    0    0  0.00000000000E+00  0.00000000000E+00  0.45593999997E+02  0.45594000000E+02  0.51100000000E-03 0.  1.
         11   -1    0    0    0    0 -0.00000000000E+00 -0.00000000000E+00 -0.45593999997E+02  0.45594000000E+02  0.51100000000E-03 0. -1.
    9900012    2    1    2    0    0 -0.26863474702E+02  0.84386640502E+01  0.33026750731E+02  0.47787267427E+02  0.19999983506E+02 0.  0.
         12    1    1    2    0    0  0.26863474702E+02 -0.84386640502E+01 -0.33026750731E+02  0.43400732573E+02  0.00000000000E+00 0. -1.
         11    1    3    3    0    0 -0.13527814274E+02 -0.26084728932E+01  0.12985255006E+02  0.18932055824E+02  0.51100000000E-03 0. -1.
        -11    1    3    3    0    0 -0.12628328472E+02  0.12548202215E+02  0.14169246482E+02  0.22753013096E+02  0.51100000000E-03 0.  1.
         12    1    3    3    0    0 -0.70733195558E+00 -0.15010652719E+01  0.58722492430E+01  0.61021985069E+01  0.00000000000E+00 0. -1.
</event>
<event>
 7    1  0.3851772E-009  0.4778727E+02  0.7816164E-02  0.1312668E+00
        -11   -1    0    0    0    0  0.00000000000E+00  0.00000000000E+00  0.45593999997E+02  0.45594000000E+02  0.51100000000E-03 0. -1.
         11   -1    0    0    0    0 -0.00000000000E+00 -0.00000000000E+00 -0.45593999997E+02  0.45594000000E+02  0.51100000000E-03 0.  1.
    9900012    2    1    2    0    0 -0.33239343161E+02 -0.87741439600E+01 -0.26491200206E+02  0.47787271615E+02  0.20000002602E+02 0.  0.
         12    1    1    2    0    0  0.33239343161E+02  0.87741439600E+01  0.26491200206E+02  0.43400728385E+02  0.00000000000E+00 0. -1.
         11    1    3    3    0    0  0.16860125593E+00 -0.68928747080E-01  0.15306736848E+00  0.23792317266E+00  0.51100000000E-03 0. -1.
        -11    1    3    3    0    0  0.14000964627E+01 -0.38435848964E+01 -0.15962869858E+01  0.43910758776E+01  0.51100000000E-03 0.  1.
        -12    1    3    3    0    0 -0.34808040880E+02 -0.48616303165E+01 -0.25047980588E+02  0.43158272565E+02  0.00000000000E+00 0.  1.
</event>
<event>
 7    1  0.3851772E-009  0.4778727E+02  0.7816164E-02  0.1312668E+00
        -11   -1    0    0    0    0  0.00000000000E+00  0.00000000000E+00  0.45593999997E+02  0.45594000000E+02  0.51100000000E-03 0.  1.
         11   -1    0    0    0    0 -0.00000000000E+00 -0.00000000000E+00 -0.45593999997E+02  0.45594000000E+02  0.51100000000E-03 0. -1.
    9900012    2    1    2    0    0 -0.26398976205E+02 -0.12905048644E+02  0.31940207044E+02  0.47787273610E+02  0.20000011696E+02 0.  0.
         12    1    1    2    0    0  0.26398976205E+02  0.12905048644E+02 -0.31940207044E+02  0.43400726390E+02  0.00000000000E+00 0. -1.
         11    1    3    3    0    0 -0.10989712758E+02 -0.11877919471E+02  0.10970250963E+02  0.19550068131E+02  0.51100000000E-03 0. -1.
        -11    1    3    3    0    0 -0.17528460977E+01  0.54889983057E+00  0.11254885490E+02  0.11403780431E+02  0.51100000000E-03 0.  1.
        -12    1    3    3    0    0 -0.13656417349E+02 -0.15760290027E+01  0.97150705915E+01  0.16833425048E+02  0.00000000000E+00 0.  1.
</event>
<event>
 7    1  0.3851772E-009  0.4778727E+02  0.7816164E-02  0.1312668E+00
        -11   -1    0    0    0    0  0.00000000000E+00  0.00000000000E+00  0.45593999997E+02  0.45594000000E+02  0.51100000000E-03 0. -1.
         11   -1    0    0    0    0 -0.00000000000E+00 -0.00000000000E+00 -0.45593999997E+02  0.45594000000E+02  0.51100000000E-03 0.  1.
    9900012    2    1    2    0    0  0.21571600951E+02  0.32929653627E+02 -0.18273673807E+02  0.47787271781E+02  0.20000003356E+02 0.  0.
         12    1    1    2    0    0 -0.21571600951E+02 -0.32929653627E+02  0.18273673807E+02  0.43400728219E+02  0.00000000000E+00 0. -1.
         11    1    3    3    0    0 -0.55320634034E+00 -0.60280979971E+00  0.25022482514E+00  0.85558730347E+00  0.51100000000E-03 0. -1.
        -11    1    3    3    0    0  0.83065958126E+01  0.16079728369E+02 -0.16649888858E+02  0.24592193836E+02  0.51100000000E-03 0.  1.
        -12    1    3    3    0    0  0.13818211478E+02  0.17452735058E+02 -0.18740097735E+01  0.22339490641E+02  0.00000000000E+00 0.  1.
</event>
<event>
 7    1  0.3851772E-009  0.4778727E+02  0.7816164E-02  0.1312668E+00
        -11   -1    0    0    0    0  0.00000000000E+00  0.00000000000E+00  0.45593999997E+02  0.45594000000E+02  0.51100000000E-03 0. -1.
         11   -1    0    0    0    0 -0.00000000000E+00 -0.00000000000E+00 -0.45593999997E+02  0.45594000000E+02  0.51100000000E-03 0.  1.
    9900012    2    1    2    0    0  0.20709000533E+02 -0.28091174375E+02 -0.25800127333E+02  0.47787270153E+02  0.19999995937E+02 0.  0.
         12    1    1    2    0    0 -0.20709000533E+02  0.28091174375E+02  0.25800127333E+02  0.43400729847E+02  0.00000000000E+00 0. -1.
         11    1    3    3    0    0  0.15973123786E+02 -0.16088952494E+02 -0.95139839614E+01  0.24586804732E+02  0.51100000000E-03 0. -1.
        -11    1    3    3    0    0  0.30470415468E+01 -0.96319956786E+01 -0.17370534539E+02  0.20094657831E+02  0.51100000000E-03 0.  1.
        -12    1    3    3    0    0  0.16888352006E+01 -0.23702262022E+01  0.10843911672E+01  0.31058075903E+01  0.00000000000E+00 0.  1.
</event>
<event>
 7    1  0.3851772E-009  0.4778727E+02  0.7816164E-02  0.1312668E+00
        -11   -1    0    0    0    0  0.00000000000E+00  0.00000000000E+00  0.45593999997E+02  0.45594000000E+02  0.51100000000E-03 0. -1.
         11   -1    0    0    0    0 -0.00000000000E+00 -0.00000000000E+00 -0.45593999997E+02  0.45594000000E+02  0.51100000000E-03 0.  1.
    9900012    2    1    2    0    0  0.13622338692E+02  0.41195024380E+02  0.10125350941E+01  0.47787269909E+02  0.19999994825E+02 0.  0.
         12    1    1    2    0    0 -0.13622338692E+02 -0.41195024380E+02 -0.10125350941E+01  0.43400730091E+02  0.00000000000E+00 0. -1.
         11    1    3    3    0    0  0.89617865883E-02  0.11690339315E+02  0.83987840025E+01  0.14394571428E+02  0.51100000000E-03 0. -1.
        -11    1    3    3    0    0  0.65709467000E+01  0.16589172371E+02 -0.36036350396E+01  0.18203410841E+02  0.51100000000E-03 0.  1.
         12    1    3    3    0    0  0.70424302055E+01  0.12915512693E+02 -0.37826138688E+01  0.15189287640E+02  0.00000000000E+00 0. -1.
</event>
<event>
 7    1  0.3851772E-009  0.4778727E+02  0.7816164E-02  0.1312668E+00
        -11   -1    0    0    0    0  0.00000000000E+00  0.00000000000E+00  0.45593999997E+02  0.45594000000E+02  0.51100000000E-03 0.  1.
         11   -1    0    0    0    0 -0.00000000000E+00 -0.00000000000E+00 -0.45593999997E+02  0.45594000000E+02  0.51100000000E-03 0. -1.
    9900012    2    1    2    0    0  0.21625543704E+02 -0.32836822923E+02  0.18376676888E+02  0.47787270356E+02  0.19999996862E+02 0.  0.
         12    1    1    2    0    0 -0.21625543704E+02  0.32836822923E+02 -0.18376676888E+02  0.43400729644E+02  0.00000000000E+00 0. -1.
         11    1    3    3    0    0  0.20407360241E+02 -0.25043098122E+02  0.15643510793E+02  0.35893405324E+02  0.51100000000E-03 0. -1.
        -11    1    3    3    0    0  0.28804970213E+00 -0.94954176792E+01  0.29381029224E+01  0.99437607864E+01  0.51100000000E-03 0.  1.
         12    1    3    3    0    0  0.93013376089E+00  0.17016928783E+01 -0.20493682821E+00  0.19501042456E+01  0.00000000000E+00 0. -1.
</event>
<event>
 7    1  0.3851772E-009  0.4778727E+02  0.7816164E-02  0.1312668E+00
        -11   -1    0    0    0    0  0.00000000000E+00  0.00000000000E+00  0.45593999997E+02  0.45594000000E+02  0.51100000000E-03 0. -1.
         11   -1    0    0    0    0 -0.00000000000E+00 -0.00000000000E+00 -0.45593999997E+02  0.45594000000E+02  0.51100000000E-03 0.  1.
    9900012    2    1    2    0    0 -0.35947658189E+02 -0.24283787755E+02 -0.12988191568E+01  0.47787269497E+02  0.19999992944E+02 0.  0.
         12    1    1    2    0    0  0.35947658189E+02  0.24283787755E+02  0.12988191568E+01  0.43400730503E+02  0.00000000000E+00 0. -1.
         11    1    3    3    0    0 -0.14610017187E+02 -0.11831894781E+02  0.74660860132E+01  0.20228415087E+02  0.51100000000E-03 0. -1.
        -11    1    3    3    0    0 -0.21366176223E+02 -0.11671225981E+02 -0.65522660568E+01  0.25212361909E+02  0.51100000000E-03 0.  1.
         12    1    3    3    0    0  0.28535220822E-01 -0.78066699293E+00 -0.22126391132E+01  0.23464925011E+01  0.00000000000E+00 0. -1.
</event>
<event>
 7    1  0.3851772E-009  0.4778727E+02  0.7816164E-02  0.1312668E+00
        -11   -1    0    0    0    0  0.00000000000E+00  0.00000000000E+00  0.45593999997E+02  0.45594000000E+02  0.51100000000E-03 0.  1.
         11   -1    0    0    0    0 -0.00000000000E+00 -0.00000000000E+00 -0.45593999997E+02  0.45594000000E+02  0.51100000000E-03 0. -1.
    9900012    2    1    2    0    0  0.39773319196E+02  0.12384613201E+02 -0.12178990787E+02  0.47787269815E+02  0.19999994395E+02 0.  0.
         12    1    1    2    0    0 -0.39773319196E+02 -0.12384613201E+02  0.12178990787E+02  0.43400730185E+02  0.00000000000E+00 0. -1.
         11    1    3    3    0    0 -0.55265594261E+00 -0.17177139818E+01  0.11714766517E+01  0.21513548570E+01  0.51100000000E-03 0. -1.
        -11    1    3    3    0    0  0.11346976465E+02  0.63405564422E-01 -0.47914061458E+01  0.12317283316E+02  0.51100000000E-03 0.  1.
         12    1    3    3    0    0  0.28978998673E+02  0.14038921619E+02 -0.85590612925E+01  0.33318631643E+02  0.00000000000E+00 0. -1.
</event>
<event>
 7    1  0.3851772E-009  0.4778727E+02  0.7816164E-02  0.1312668E+00
        -11   -1    0    0    0    0  0.00000000000E+00  0.00000000000E+00  0.45593999997E+02  0.45594000000E+02  0.51100000000E-03 0.  1.
         11   -1    0    0    0    0 -0.00000000000E+00 -0.00000000000E+00 -0.45593999997E+02  0.45594000000E+02  0.51100000000E-03 0. -1.
    9900012    2    1    2    0    0 -0.51665971019E+01 -0.11862109858E+02  0.41427284035E+02  0.47787271453E+02  0.20000001862E+02 0.  0.
         12    1    1    2    0    0  0.51665971019E+01  0.11862109858E+02 -0.41427284035E+02  0.43400728547E+02  0.00000000000E+00 0. -1.
         11    1    3    3    0    0 -0.40045147401E+01 -0.95022395122E+00  0.76754314279E+01  0.87092658546E+01  0.51100000000E-03 0. -1.
        -11    1    3    3    0    0  0.19075286330E+01 -0.42655092798E+01  0.30851654986E+02  0.31203491000E+02  0.51100000000E-03 0.  1.
        -12    1    3    3    0    0 -0.30696109948E+01 -0.66463766266E+01  0.29001976210E+01  0.78745145986E+01  0.00000000000E+00 0.  1.
</event>
<event>
 7    1  0.3851772E-009  0.4778726E+02  0.7816164E-02  0.1312668E+00
        -11   -1    0    0    0    0  0.00000000000E+00  0.00000000000E+00  0.45593999997E+02  0.45594000000E+02  0.51100000000E-03 0.  1.
         11   -1    0    0    0    0 -0.00000000000E+00 -0.00000000000E+00 -0.45593999997E+02  0.45594000000E+02  0.51100000000E-03 0. -1.
    9900012    2    1    2    0    0  0.18545515597E+02  0.14414881535E+02  0.36495191189E+02  0.47787263389E+02  0.19999965096E+02 0.  0.
         12    1    1    2    0    0 -0.18545515597E+02 -0.14414881535E+02 -0.36495191189E+02  0.43400736611E+02  0.00000000000E+00 0. -1.
         11    1    3    3    0    0  0.14409518880E+02  0.31214938162E+01  0.95998190893E+01  0.17593592152E+02  0.51100000000E-03 0. -1.
        -11    1    3    3    0    0  0.57077324650E+01  0.10277392071E+02  0.24295299842E+02  0.26990083222E+02  0.51100000000E-03 0.  1.
         12    1    3    3    0    0 -0.15717357486E+01  0.10159956486E+01  0.26000722577E+01  0.32035880145E+01  0.00000000000E+00 0. -1.
</event>
<event>
 7    1  0.3851772E-009  0.4778727E+02  0.7816164E-02  0.1312668E+00
        -11   -1    0    0    0    0  0.00000000000E+00  0.00000000000E+00  0.45593999997E+02  0.45594000000E+02  0.51100000000E-03 0.  1.
         11   -1    0    0    0    0 -0.00000000000E+00 -0.00000000000E+00 -0.45593999997E+02  0.45594000000E+02  0.51100000000E-03 0. -1.
    9900012    2    1    2    0    0 -0.19460262247E+02  0.36132662214E+02  0.14119219060E+02  0.47787269220E+02  0.19999991683E+02 0.  0.
         12    1    1    2    0    0  0.19460262247E+02 -0.36132662214E+02 -0.14119219060E+02  0.43400730780E+02  0.00000000000E+00 0. -1.
         11    1    3    3    0    0 -0.23156999395E+01 -0.64669333779E+00  0.77306536047E+00  0.25255313887E+01  0.51100000000E-03 0. -1.
        -11    1    3    3    0    0 -0.12208556784E+02  0.33847089326E+02  0.69137685956E+01  0.36639794091E+02  0.51100000000E-03 0.  1.
        -12    1    3    3    0    0 -0.49360055235E+01  0.29322662258E+01  0.64323851039E+01  0.86219437409E+01  0.00000000000E+00 0.  1.
</event>
<event>
 7    1  0.3851772E-009  0.4778727E+02  0.7816164E-02  0.1312668E+00
        -11   -1    0    0    0    0  0.00000000000E+00  0.00000000000E+00  0.45593999997E+02  0.45594000000E+02  0.51100000000E-03 0.  1.
         11   -1    0    0    0    0 -0.00000000000E+00 -0.00000000000E+00 -0.45593999997E+02  0.45594000000E+02  0.51100000000E-03 0. -1.
    9900012    2    1    2    0    0 -0.91036589353E+01  0.40091624746E+02  0.13907129811E+02  0.47787271430E+02  0.20000001758E+02 0.  0.
         12    1    1    2    0    0  0.91036589353E+01 -0.40091624746E+02 -0.13907129811E+02  0.43400728570E+02  0.00000000000E+00 0. -1.
         11    1    3    3    0    0 -0.89205565445E+01  0.16683343077E+02 -0.91113973684E+00  0.18940444587E+02  0.51100000000E-03 0. -1.
        -11    1    3    3    0    0  0.23641640923E+01  0.89203781232E+01  0.22499074064E+01  0.94986578691E+01  0.51100000000E-03 0.  1.
         12    1    3    3    0    0 -0.25472664831E+01  0.14487903546E+02  0.12568362142E+02  0.19348168974E+02  0.00000000000E+00 0. -1.
</event>
<event>
 7    1  0.3851772E-009  0.4778727E+02  0.7816164E-02  0.1312668E+00
        -11   -1    0    0    0    0  0.00000000000E+00  0.00000000000E+00  0.45593999997E+02  0.45594000000E+02  0.51100000000E-03 0.  1.
         11   -1    0    0    0    0 -0.00000000000E+00 -0.00000000000E+00 -0.45593999997E+02  0.45594000000E+02  0.51100000000E-03 0. -1.
    9900012    2    1    2    0    0 -0.23372790857E+02  0.10591367611E+02  0.35002269931E+02  0.47787270506E+02  0.19999997546E+02 0.  0.
         12    1    1    2    0    0  0.23372790857E+02 -0.10591367611E+02 -0.35002269931E+02  0.43400729494E+02  0.00000000000E+00 0. -1.
         11    1    3    3    0    0 -0.78084076044E+01 -0.25942279007E+01  0.47011458371E+01  0.94763927821E+01  0.51100000000E-03 0. -1.
        -11    1    3    3    0    0 -0.64867053973E+01  0.11613574678E+02  0.12435465195E+02  0.18209702320E+02  0.51100000000E-03 0.  1.
        -12    1    3    3    0    0 -0.90776778552E+01  0.15720208336E+01  0.17865658898E+02  0.20101175404E+02  0.00000000000E+00 0.  1.
</event>
<event>
 7    1  0.3851772E-009  0.4778727E+02  0.7816164E-02  0.1312668E+00
        -11   -1    0    0    0    0  0.00000000000E+00  0.00000000000E+00  0.45593999997E+02  0.45594000000E+02  0.51100000000E-03 0.  1.
         11   -1    0    0    0    0 -0.00000000000E+00 -0.00000000000E+00 -0.45593999997E+02  0.45594000000E+02  0.51100000000E-03 0. -1.
    9900012    2    1    2    0    0  0.22890721358E+02 -0.26651731444E+02  0.25481817636E+02  0.47787274853E+02  0.20000017364E+02 0.  0.
         12    1    1    2    0    0 -0.22890721358E+02  0.26651731444E+02 -0.25481817636E+02  0.43400725147E+02  0.00000000000E+00 0. -1.
         11    1    3    3    0    0  0.35544738118E+01 -0.30478852001E+01  0.27326156416E+01  0.54213537771E+01  0.51100000000E-03 0. -1.
        -11    1    3    3    0    0  0.15759030334E+02 -0.23859898495E+02  0.11957551609E+02  0.30993948345E+02  0.51100000000E-03 0.  1.
        -12    1    3    3    0    0  0.35772172122E+01  0.25605225111E+00  0.10791650386E+02  0.11371972730E+02  0.00000000000E+00 0.  1.
</event>
<event>
 7    1  0.3851772E-009  0.4778728E+02  0.7816164E-02  0.1312668E+00
        -11   -1    0    0    0    0  0.00000000000E+00  0.00000000000E+00  0.45593999997E+02  0.45594000000E+02  0.51100000000E-03 0.  1.
         11   -1    0    0    0    0 -0.00000000000E+00 -0.00000000000E+00 -0.45593999997E+02  0.45594000000E+02  0.51100000000E-03 0. -1.
    9900012    2    1    2    0    0  0.40464122203E+02 -0.12050095798E+02  0.10053499960E+02  0.47787275861E+02  0.20000021960E+02 0.  0.
         12    1    1    2    0    0 -0.40464122203E+02  0.12050095798E+02 -0.10053499960E+02  0.43400724139E+02  0.00000000000E+00 0. -1.
         11    1    3    3    0    0  0.54840887875E+00  0.25705147822E+01 -0.16977811237E+01  0.31290189435E+01  0.51100000000E-03 0. -1.
        -11    1    3    3    0    0  0.34330502094E+02 -0.14689930241E+02  0.89016905053E+01  0.38387726146E+02  0.51100000000E-03 0.  1.
         12    1    3    3    0    0  0.55852112295E+01  0.69319660670E-01  0.28495905784E+01  0.62705307716E+01  0.00000000000E+00 0. -1.
</event>
<event>
 7    1  0.3851772E-009  0.4778728E+02  0.7816164E-02  0.1312668E+00
        -11   -1    0    0    0    0  0.00000000000E+00  0.00000000000E+00  0.45593999997E+02  0.45594000000E+02  0.51100000000E-03 0.  1.
         11   -1    0    0    0    0 -0.00000000000E+00 -0.00000000000E+00 -0.45593999997E+02  0.45594000000E+02  0.51100000000E-03 0. -1.
    9900012    2    1    2    0    0  0.24823460794E+02  0.29341005326E+02  0.20162439496E+02  0.47787276898E+02  0.20000026687E+02 0.  0.
         12    1    1    2    0    0 -0.24823460794E+02 -0.29341005326E+02 -0.20162439496E+02  0.43400723102E+02  0.00000000000E+00 0. -1.
         11    1    3    3    0    0  0.17686807322E+02  0.24162584134E+02  0.92367696970E+01  0.31336425130E+02  0.51100000000E-03 0. -1.
        -11    1    3    3    0    0  0.50203173107E+01  0.72185677138E+01  0.57725469286E+01  0.10518250997E+02  0.51100000000E-03 0.  1.
         12    1    3    3    0    0  0.21163361621E+01 -0.20401465212E+01  0.51531228704E+01  0.59326007700E+01  0.00000000000E+00 0. -1.
</event>
<event>
 7    1  0.3851772E-009  0.4778727E+02  0.7816164E-02  0.1312668E+00
        -11   -1    0    0    0    0  0.00000000000E+00  0.00000000000E+00  0.45593999997E+02  0.45594000000E+02  0.51100000000E-03 0.  1.
         11   -1    0    0    0    0 -0.00000000000E+00 -0.00000000000E+00 -0.45593999997E+02  0.45594000000E+02  0.51100000000E-03 0. -1.
    9900012    2    1    2    0    0  0.12441806753E+02  0.65176474932E+01  0.41065127403E+02  0.47787274513E+02  0.20000015817E+02 0.  0.
         12    1    1    2    0    0 -0.12441806753E+02 -0.65176474932E+01 -0.41065127403E+02  0.43400725487E+02  0.00000000000E+00 0. -1.
         11    1    3    3    0    0  0.24660426416E+01 -0.21875136314E+01  0.28260283380E+01  0.43420062904E+01  0.51100000000E-03 0. -1.
        -11    1    3    3    0    0  0.88543600097E+01  0.10517400721E+02  0.15962496167E+02  0.21066957380E+02  0.51100000000E-03 0.  1.
        -12    1    3    3    0    0  0.11214041013E+01 -0.18122395960E+01  0.22276602899E+02  0.22378310844E+02  0.00000000000E+00 0.  1.
</event>
<event>
 7    1  0.3851772E-009  0.4778727E+02  0.7816164E-02  0.1312668E+00
        -11   -1    0    0    0    0  0.00000000000E+00  0.00000000000E+00  0.45593999997E+02  0.45594000000E+02  0.51100000000E-03 0.  1.
         11   -1    0    0    0    0 -0.00000000000E+00 -0.00000000000E+00 -0.45593999997E+02  0.45594000000E+02  0.51100000000E-03 0. -1.
    9900012    2    1    2    0    0 -0.13555578001E+01 -0.10218167201E+02  0.42158921751E+02  0.47787272343E+02  0.20000005923E+02 0.  0.
         12    1    1    2    0    0  0.13555578001E+01  0.10218167201E+02 -0.42158921751E+02  0.43400727657E+02  0.00000000000E+00 0. -1.
         11    1    3    3    0    0  0.63378240715E+01 -0.11412786446E+02  0.27765409445E+02  0.30681226676E+02  0.51100000000E-03 0. -1.
        -11    1    3    3    0    0 -0.26978788980E+01  0.19411863236E+01  0.95349281092E+01  0.10097604132E+02  0.51100000000E-03 0.  1.
         12    1    3    3    0    0 -0.49955029736E+01 -0.74656707827E+00  0.48585841970E+01  0.70084415358E+01  0.00000000000E+00 0. -1.
</event>
<event>
 7    1  0.3851772E-009  0.4778727E+02  0.7816164E-02  0.1312668E+00
        -11   -1    0    0    0    0  0.00000000000E+00  0.00000000000E+00  0.45593999997E+02  0.45594000000E+02  0.51100000000E-03 0.  1.
         11   -1    0    0    0    0 -0.00000000000E+00 -0.00000000000E+00 -0.45593999997E+02  0.45594000000E+02  0.51100000000E-03 0. -1.
    9900012    2    1    2    0    0  0.79441610496E+01  0.18839811077E+02  0.38282829616E+02  0.47787271670E+02  0.20000002851E+02 0.  0.
         12    1    1    2    0    0 -0.79441610496E+01 -0.18839811077E+02 -0.38282829616E+02  0.43400728330E+02  0.00000000000E+00 0. -1.
         11    1    3    3    0    0 -0.23904323373E+01  0.79018050693E+01  0.10035692846E+02  0.12994915209E+02  0.51100000000E-03 0. -1.
        -11    1    3    3    0    0  0.97894361765E+01  0.16259366608E+01  0.20062844555E+02  0.22382905588E+02  0.51100000000E-03 0.  1.
        -12    1    3    3    0    0  0.54515721031E+00  0.93120693473E+01  0.81842922146E+01  0.12409450873E+02  0.00000000000E+00 0.  1.
</event>
<event>
 7    1  0.3851772E-009  0.4778726E+02  0.7816164E-02  0.1312668E+00
        -11   -1    0    0    0    0  0.00000000000E+00  0.00000000000E+00  0.45593999997E+02  0.45594000000E+02  0.51100000000E-03 0.  1.
         11   -1    0    0    0    0 -0.00000000000E+00 -0.00000000000E+00 -0.45593999997E+02  0.45594000000E+02  0.51100000000E-03 0. -1.
    9900012    2    1    2    0    0  0.30101167612E+01 -0.24940427958E+02  0.35391215842E+02  0.47787263734E+02  0.19999966668E+02 0.  0.
         12    1    1    2    0    0 -0.30101167612E+01  0.24940427958E+02 -0.35391215842E+02  0.43400736266E+02  0.00000000000E+00 0. -1.
         11    1    3    3    0    0 -0.20618281370E+01 -0.87179870012E+00  0.78771080848E+01  0.81890170522E+01  0.51100000000E-03 0. -1.
        -11    1    3    3    0    0  0.81452310618E+01 -0.23331914148E+02  0.26600398584E+02  0.36308459234E+02  0.51100000000E-03 0.  1.
        -12    1    3    3    0    0 -0.30732861636E+01 -0.73671510987E+00  0.91370917391E+00  0.32897874477E+01  0.00000000000E+00 0.  1.
</event>
<event>
 7    1  0.3851772E-009  0.4778727E+02  0.7816164E-02  0.1312668E+00
        -11   -1    0    0    0    0  0.00000000000E+00  0.00000000000E+00  0.45593999997E+02  0.45594000000E+02  0.51100000000E-03 0.  1.
         11   -1    0    0    0    0 -0.00000000000E+00 -0.00000000000E+00 -0.45593999997E+02  0.45594000000E+02  0.51100000000E-03 0. -1.
    9900012    2    1    2    0    0 -0.26300830042E+02 -0.34449926983E+02  0.22565655449E+01  0.47787271687E+02  0.20000002932E+02 0.  0.
         12    1    1    2    0    0  0.26300830042E+02  0.34449926983E+02 -0.22565655449E+01  0.43400728313E+02  0.00000000000E+00 0. -1.
         11    1    3    3    0    0 -0.60847325068E+01  0.11963240773E+01  0.14962907639E+01  0.63791886074E+01  0.51100000000E-03 0. -1.
        -11    1    3    3    0    0 -0.85406074649E+01 -0.20819168180E+02  0.11447249947E+01  0.22531980276E+02  0.51100000000E-03 0.  1.
         12    1    3    3    0    0 -0.11675490070E+02 -0.14827082880E+02 -0.38445021367E+00  0.18876102804E+02  0.00000000000E+00 0. -1.
</event>
<event>
 7    1  0.3851772E-009  0.4778727E+02  0.7816164E-02  0.1312668E+00
        -11   -1    0    0    0    0  0.00000000000E+00  0.00000000000E+00  0.45593999997E+02  0.45594000000E+02  0.51100000000E-03 0. -1.
         11   -1    0    0    0    0 -0.00000000000E+00 -0.00000000000E+00 -0.45593999997E+02  0.45594000000E+02  0.51100000000E-03 0.  1.
    9900012    2    1    2    0    0 -0.21872860009E+02 -0.27712340460E+02 -0.25243365687E+02  0.47787270399E+02  0.19999997055E+02 0.  0.
         12    1    1    2    0    0  0.21872860009E+02  0.27712340460E+02  0.25243365687E+02  0.43400729601E+02  0.00000000000E+00 0. -1.
         11    1    3    3    0    0  0.92750195525E+00 -0.22552050597E+01  0.19303323487E+01  0.31100471019E+01  0.51100000000E-03 0. -1.
        -11    1    3    3    0    0 -0.17349179352E+01 -0.30693362542E+01 -0.72024645249E+01  0.80191184539E+01  0.51100000000E-03 0.  1.
         12    1    3    3    0    0 -0.21065444029E+02 -0.22387799146E+02 -0.19971233510E+02  0.36658104843E+02  0.00000000000E+00 0. -1.
</event>
<event>
 7    1  0.3851772E-009  0.4778727E+02  0.7816164E-02  0.1312668E+00
        -11   -1    0    0    0    0  0.00000000000E+00  0.00000000000E+00  0.45593999997E+02  0.45594000000E+02  0.51100000000E-03 0.  1.
         11   -1    0    0    0    0 -0.00000000000E+00 -0.00000000000E+00 -0.45593999997E+02  0.45594000000E+02  0.51100000000E-03 0. -1.
    9900012    2    1    2    0    0 -0.36103516097E+01 -0.35262312103E+02  0.25043118653E+02  0.47787273215E+02  0.20000009896E+02 0.  0.
         12    1    1    2    0    0  0.36103516097E+01  0.35262312103E+02 -0.25043118653E+02  0.43400726785E+02  0.00000000000E+00 0. -1.
         11    1    3    3    0    0 -0.61077221863E+01 -0.25857386178E+01  0.25865754892E+01  0.71190369803E+01  0.51100000000E-03 0. -1.
        -11    1    3    3    0    0 -0.25558792857E+01 -0.15860026091E+02  0.13351331707E+02  0.20888537650E+02  0.51100000000E-03 0.  1.
         12    1    3    3    0    0  0.50532498623E+01 -0.16816547394E+02  0.91052114569E+01  0.19779698585E+02  0.00000000000E+00 0. -1.
</event>
<event>
 7    1  0.3851772E-009  0.4778727E+02  0.7816164E-02  0.1312668E+00
        -11   -1    0    0    0    0  0.00000000000E+00  0.00000000000E+00  0.45593999997E+02  0.45594000000E+02  0.51100000000E-03 0.  1.
         11   -1    0    0    0    0 -0.00000000000E+00 -0.00000000000E+00 -0.45593999997E+02  0.45594000000E+02  0.51100000000E-03 0. -1.
    9900012    2    1    2    0    0 -0.17746573795E+01  0.37446694781E+02  0.21868214122E+02  0.47787272498E+02  0.20000006627E+02 0.  0.
         12    1    1    2    0    0  0.17746573795E+01 -0.37446694781E+02 -0.21868214122E+02  0.43400727502E+02  0.00000000000E+00 0. -1.
         11    1    3    3    0    0 -0.35744356012E+01  0.81869306487E+01 -0.78493367754E+00  0.89676387334E+01  0.51100000000E-03 0. -1.
        -11    1    3    3    0    0  0.39290913513E+01  0.67800201961E+01  0.10723716262E+02  0.13281736462E+02  0.51100000000E-03 0.  1.
         12    1    3    3    0    0 -0.21293131296E+01  0.22479743936E+02  0.11929431537E+02  0.25537897303E+02  0.00000000000E+00 0. -1.
</event>
<event>
 7    1  0.3851772E-009  0.4778727E+02  0.7816164E-02  0.1312668E+00
        -11   -1    0    0    0    0  0.00000000000E+00  0.00000000000E+00  0.45593999997E+02  0.45594000000E+02  0.51100000000E-03 0.  1.
         11   -1    0    0    0    0 -0.00000000000E+00 -0.00000000000E+00 -0.45593999997E+02  0.45594000000E+02  0.51100000000E-03 0. -1.
    9900012    2    1    2    0    0 -0.41157129225E+02 -0.23591451655E+00 -0.13771647153E+02  0.47787271815E+02  0.20000003511E+02 0.  0.
         12    1    1    2    0    0  0.41157129225E+02  0.23591451655E+00  0.13771647153E+02  0.43400728185E+02  0.00000000000E+00 0. -1.
         11    1    3    3    0    0 -0.20447471776E+02  0.77234343739E+01 -0.70638495960E+01  0.22970601036E+02  0.51100000000E-03 0. -1.
        -11    1    3    3    0    0 -0.75257177127E+01 -0.75193050197E+01 -0.38933945228E+01  0.11328499294E+02  0.51100000000E-03 0.  1.
         12    1    3    3    0    0 -0.13183939736E+02 -0.44004387074E+00 -0.28144030346E+01  0.13488171485E+02  0.00000000000E+00 0. -1.
</event>
<event>
 7    1  0.3851772E-009  0.4778727E+02  0.7816164E-02  0.1312668E+00
        -11   -1    0    0    0    0  0.00000000000E+00  0.00000000000E+00  0.45593999997E+02  0.45594000000E+02  0.51100000000E-03 0.  1.
         11   -1    0    0    0    0 -0.00000000000E+00 -0.00000000000E+00 -0.45593999997E+02  0.45594000000E+02  0.51100000000E-03 0. -1.
    9900012    2    1    2    0    0  0.19805787665E+02 -0.21854336660E+02  0.31839312152E+02  0.47787273576E+02  0.20000011541E+02 0.  0.
         12    1    1    2    0    0 -0.19805787665E+02  0.21854336660E+02 -0.31839312152E+02  0.43400726424E+02  0.00000000000E+00 0. -1.
         11    1    3    3    0    0  0.10794882349E+02 -0.32755675481E+01  0.17360355871E+02  0.20703641804E+02  0.51100000000E-03 0. -1.
        -11    1    3    3    0    0  0.10725134573E+02 -0.18210931234E+02  0.13427832895E+02  0.25039433391E+02  0.51100000000E-03 0.  1.
        -12    1    3    3    0    0 -0.17142292572E+01 -0.36783787725E+00  0.10511233857E+01  0.20441983813E+01  0.00000000000E+00 0.  1.
</event>
<event>
 7    1  0.3851772E-009  0.4778728E+02  0.7816164E-02  0.1312668E+00
        -11   -1    0    0    0    0  0.00000000000E+00  0.00000000000E+00  0.45593999997E+02  0.45594000000E+02  0.51100000000E-03 0. -1.
         11   -1    0    0    0    0 -0.00000000000E+00 -0.00000000000E+00 -0.45593999997E+02  0.45594000000E+02  0.51100000000E-03 0.  1.
    9900012    2    1    2    0    0  0.12904234062E+02 -0.34437195929E+02 -0.23047409126E+02  0.47787276646E+02  0.20000025542E+02 0.  0.
         12    1    1    2    0    0 -0.12904234062E+02  0.34437195929E+02  0.23047409126E+02  0.43400723354E+02  0.00000000000E+00 0. -1.
         11    1    3    3    0    0  0.18551265023E+00 -0.33140041302E+01 -0.80473342251E+01  0.87049771228E+01  0.51100000000E-03 0. -1.
        -11    1    3    3    0    0  0.13623300390E+02 -0.31625412514E+02 -0.15687704992E+02  0.37839993636E+02  0.51100000000E-03 0.  1.
        -12    1    3    3    0    0 -0.90457897886E+00  0.50222071464E+00  0.68763009162E+00  0.12423058875E+01  0.00000000000E+00 0.  1.
</event>
<event>
 7    1  0.3851772E-009  0.4778727E+02  0.7816164E-02  0.1312668E+00
        -11   -1    0    0    0    0  0.00000000000E+00  0.00000000000E+00  0.45593999997E+02  0.45594000000E+02  0.51100000000E-03 0.  1.
         11   -1    0    0    0    0 -0.00000000000E+00 -0.00000000000E+00 -0.45593999997E+02  0.45594000000E+02  0.51100000000E-03 0. -1.
    9900012    2    1    2    0    0 -0.42858906528E+02 -0.30745732215E+01  0.61061275124E+01  0.47787266568E+02  0.19999979590E+02 0.  0.
         12    1    1    2    0    0  0.42858906528E+02  0.30745732215E+01 -0.61061275124E+01  0.43400733432E+02  0.00000000000E+00 0. -1.
         11    1    3    3    0    0  0.32246626553E+00 -0.27467135952E+01  0.22895499063E+01  0.35903285505E+01  0.51100000000E-03 0. -1.
        -11    1    3    3    0    0 -0.10021272422E+02 -0.37353175600E+01  0.11225984528E+01  0.10753544801E+02  0.51100000000E-03 0.  1.
         12    1    3    3    0    0 -0.33160100371E+02  0.34074579336E+01  0.26939791534E+01  0.33443393217E+02  0.00000000000E+00 0. -1.
</event>
<event>
 7    1  0.3851772E-009  0.4778727E+02  0.7816164E-02  0.1312668E+00
        -11   -1    0    0    0    0  0.00000000000E+00  0.00000000000E+00  0.45593999997E+02  0.45594000000E+02  0.51100000000E-03 0. -1.
         11   -1    0    0    0    0 -0.00000000000E+00 -0.00000000000E+00 -0.45593999997E+02  0.45594000000E+02  0.51100000000E-03 0.  1.
    9900012    2    1    2    0    0 -0.25796180037E+02  0.34296376134E+02  0.64760351122E+01  0.47787270154E+02  0.19999995940E+02 0.  0.
         12    1    1    2    0    0  0.25796180037E+02 -0.34296376134E+02 -0.64760351122E+01  0.43400729846E+02  0.00000000000E+00 0. -1.
         11    1    3    3    0    0 -0.17984392892E+02  0.30841480475E+02  0.80645876632E+01  0.36601542044E+02  0.51100000000E-03 0. -1.
        -11    1    3    3    0    0 -0.56196299223E+01 -0.84811332304E+00  0.89825760767E+00  0.57538164433E+01  0.51100000000E-03 0.  1.
        -12    1    3    3    0    0 -0.21921572226E+01  0.43030089818E+01 -0.24868101587E+01  0.54319116664E+01  0.00000000000E+00 0.  1.
</event>
<event>
 7    1  0.3851772E-009  0.4778726E+02  0.7816164E-02  0.1312668E+00
        -11   -1    0    0    0    0  0.00000000000E+00  0.00000000000E+00  0.45593999997E+02  0.45594000000E+02  0.51100000000E-03 0.  1.
         11   -1    0    0    0    0 -0.00000000000E+00 -0.00000000000E+00 -0.45593999997E+02  0.45594000000E+02  0.51100000000E-03 0. -1.
    9900012    2    1    2    0    0 -0.11254628621E+02 -0.33840034473E+02  0.24734781815E+02  0.47787262334E+02  0.19999960284E+02 0.  0.
         12    1    1    2    0    0  0.11254628621E+02  0.33840034473E+02 -0.24734781815E+02  0.43400737666E+02  0.00000000000E+00 0. -1.
         11    1    3    3    0    0 -0.79863106546E+01 -0.10651056450E+02  0.14017258184E+02  0.19331572327E+02  0.51100000000E-03 0. -1.
        -11    1    3    3    0    0  0.22755871534E+01 -0.18997871170E+02  0.96329092558E+01  0.21421726048E+02  0.51100000000E-03 0.  1.
         12    1    3    3    0    0 -0.55439051193E+01 -0.41911068536E+01  0.10846143746E+01  0.70339639586E+01  0.00000000000E+00 0. -1.
</event>
<event>
 7    1  0.3851772E-009  0.4778727E+02  0.7816164E-02  0.1312668E+00
        -11   -1    0    0    0    0  0.00000000000E+00  0.00000000000E+00  0.45593999997E+02  0.45594000000E+02  0.51100000000E-03 0.  1.
         11   -1    0    0    0    0 -0.00000000000E+00 -0.00000000000E+00 -0.45593999997E+02  0.45594000000E+02  0.51100000000E-03 0. -1.
    9900012    2    1    2    0    0 -0.15771005624E+02  0.31127938094E+02  0.25806016971E+02  0.47787266592E+02  0.19999979700E+02 0.  0.
         12    1    1    2    0    0  0.15771005624E+02 -0.31127938094E+02 -0.25806016971E+02  0.43400733408E+02  0.00000000000E+00 0. -1.
         11    1    3    3    0    0 -0.16100729803E+01 -0.15762602139E+01  0.17376812069E+01  0.28454292298E+01  0.51100000000E-03 0. -1.
        -11    1    3    3    0    0 -0.13942014695E+02  0.32926572728E+02  0.25215230187E+02  0.43753249011E+02  0.51100000000E-03 0.  1.
        -12    1    3    3    0    0 -0.21891794894E+00 -0.22237441984E+00 -0.11468944228E+01  0.11885883509E+01  0.00000000000E+00 0.  1.
</event>
<event>
 7    1  0.3851772E-009  0.4778729E+02  0.7816164E-02  0.1312668E+00
        -11   -1    0    0    0    0  0.00000000000E+00  0.00000000000E+00  0.45593999997E+02  0.45594000000E+02  0.51100000000E-03 0.  1.
         11   -1    0    0    0    0 -0.00000000000E+00 -0.00000000000E+00 -0.45593999997E+02  0.45594000000E+02  0.51100000000E-03 0. -1.
    9900012    2    1    2    0    0 -0.36074408203E+01  0.25531799886E+02  0.34910388980E+02  0.47787289252E+02  0.20000083017E+02 0.  0.
         12    1    1    2    0    0  0.36074408203E+01 -0.25531799886E+02 -0.34910388980E+02  0.43400710748E+02  0.00000000000E+00 0. -1.
         11    1    3    3    0    0  0.23019283328E+00 -0.24179127475E+01  0.14085213698E+00  0.24329262999E+01  0.51100000000E-03 0. -1.
        -11    1    3    3    0    0 -0.55039745867E+01  0.21766821268E+02  0.29432440778E+02  0.37018330794E+02  0.51100000000E-03 0.  1.
         12    1    3    3    0    0  0.16663409332E+01  0.61828913654E+01  0.53370960645E+01  0.83360321583E+01  0.00000000000E+00 0. -1.
</event>
<event>
 7    1  0.3851772E-009  0.4778727E+02  0.7816164E-02  0.1312668E+00
        -11   -1    0    0    0    0  0.00000000000E+00  0.00000000000E+00  0.45593999997E+02  0.45594000000E+02  0.51100000000E-03 0.  1.
         11   -1    0    0    0    0 -0.00000000000E+00 -0.00000000000E+00 -0.45593999997E+02  0.45594000000E+02  0.51100000000E-03 0. -1.
    9900012    2    1    2    0    0  0.72920025920E+01 -0.42638357039E+02 -0.35242883852E+01  0.47787269575E+02  0.19999993302E+02 0.  0.
         12    1    1    2    0    0 -0.72920025920E+01  0.42638357039E+02  0.35242883852E+01  0.43400730425E+02  0.00000000000E+00 0. -1.
         11    1    3    3    0    0  0.64704313674E+01 -0.34983269012E+02  0.31625388623E+01  0.35716904193E+02  0.51100000000E-03 0. -1.
        -11    1    3    3    0    0  0.31121040452E+01 -0.68982616329E+01 -0.56520435231E+01  0.94454645937E+01  0.51100000000E-03 0.  1.
         12    1    3    3    0    0 -0.22905328206E+01 -0.75682639412E+00 -0.10347837244E+01  0.26249007885E+01  0.00000000000E+00 0. -1.
</event>
<event>
 7    1  0.3851772E-009  0.4778727E+02  0.7816164E-02  0.1312668E+00
        -11   -1    0    0    0    0  0.00000000000E+00  0.00000000000E+00  0.45593999997E+02  0.45594000000E+02  0.51100000000E-03 0.  1.
         11   -1    0    0    0    0 -0.00000000000E+00 -0.00000000000E+00 -0.45593999997E+02  0.45594000000E+02  0.51100000000E-03 0. -1.
    9900012    2    1    2    0    0  0.19180117392E+02  0.30140773096E+02  0.24643055010E+02  0.47787271132E+02  0.20000000400E+02 0.  0.
         12    1    1    2    0    0 -0.19180117392E+02 -0.30140773096E+02 -0.24643055010E+02  0.43400728868E+02  0.00000000000E+00 0. -1.
         11    1    3    3    0    0  0.10258115465E+00  0.64356909025E+01  0.13327384293E+02  0.14800263938E+02  0.51100000000E-03 0. -1.
        -11    1    3    3    0    0  0.83251774129E+01  0.81694438717E+01  0.70119742102E+01  0.13609414929E+02  0.51100000000E-03 0.  1.
         12    1    3    3    0    0  0.10752358824E+02  0.15535638322E+02  0.43036965074E+01  0.19377592265E+02  0.00000000000E+00 0. -1.
</event>
<event>
 7    1  0.3851772E-009  0.4778727E+02  0.7816164E-02  0.1312668E+00
        -11   -1    0    0    0    0  0.00000000000E+00  0.00000000000E+00  0.45593999997E+02  0.45594000000E+02  0.51100000000E-03 0.  1.
         11   -1    0    0    0    0 -0.00000000000E+00 -0.00000000000E+00 -0.45593999997E+02  0.45594000000E+02  0.51100000000E-03 0. -1.
    9900012    2    1    2    0    0 -0.10228824612E+02 -0.39850998925E+02  0.13816390187E+02  0.47787267218E+02  0.19999982553E+02 0.  0.
         12    1    1    2    0    0  0.10228824612E+02  0.39850998925E+02 -0.13816390187E+02  0.43400732782E+02  0.00000000000E+00 0. -1.
         11    1    3    3    0    0  0.14749590494E+01 -0.66468894437E+00  0.29457345916E+01  0.33607541022E+01  0.51100000000E-03 0. -1.
        -11    1    3    3    0    0 -0.94255612970E+01 -0.29824968306E+02  0.14038057816E+02  0.34284646822E+02  0.51100000000E-03 0.  1.
        -12    1    3    3    0    0 -0.22782223643E+01 -0.93613416747E+01 -0.31674022212E+01  0.10141866294E+02  0.00000000000E+00 0.  1.
</event>
<event>
 7    1  0.3851772E-009  0.4778727E+02  0.7816164E-02  0.1312668E+00
        -11   -1    0    0    0    0  0.00000000000E+00  0.00000000000E+00  0.45593999997E+02  0.45594000000E+02  0.51100000000E-03 0.  1.
         11   -1    0    0    0    0 -0.00000000000E+00 -0.00000000000E+00 -0.45593999997E+02  0.45594000000E+02  0.51100000000E-03 0. -1.
    9900012    2    1    2    0    0 -0.27293396145E+02  0.24001374903E+02  0.23719779104E+02  0.47787269694E+02  0.19999993844E+02 0.  0.
         12    1    1    2    0    0  0.27293396145E+02 -0.24001374903E+02 -0.23719779104E+02  0.43400730306E+02  0.00000000000E+00 0. -1.
         11    1    3    3    0    0 -0.18410075121E+01 -0.96008125655E+00 -0.62336254083E+00  0.21678666466E+01  0.51100000000E-03 0. -1.
        -11    1    3    3    0    0  0.59588966451E-01  0.35446212321E+01  0.74949383382E+01  0.82910790299E+01  0.51100000000E-03 0.  1.
        -12    1    3    3    0    0 -0.25511977599E+02  0.21416834927E+02  0.16848203306E+02  0.37328324018E+02  0.00000000000E+00 0.  1.
</event>
<event>
 7    1  0.3851772E-009  0.4778727E+02  0.7816164E-02  0.1312668E+00
        -11   -1    0    0    0    0  0.00000000000E+00  0.00000000000E+00  0.45593999997E+02  0.45594000000E+02  0.51100000000E-03 0.  1.
         11   -1    0    0    0    0 -0.00000000000E+00 -0.00000000000E+00 -0.45593999997E+02  0.45594000000E+02  0.51100000000E-03 0. -1.
    9900012    2    1    2    0    0 -0.76111911381E+01 -0.27444760782E+02  0.32748709377E+02  0.47787273154E+02  0.20000009618E+02 0.  0.
         12    1    1    2    0    0  0.76111911381E+01  0.27444760782E+02 -0.32748709377E+02  0.43400726846E+02  0.00000000000E+00 0. -1.
         11    1    3    3    0    0 -0.63635480714E+01 -0.19400644859E+01  0.52311439799E+01  0.84630645671E+01  0.51100000000E-03 0. -1.
        -11    1    3    3    0    0 -0.37768539829E+01 -0.20751721202E+02  0.26458318458E+02  0.33836979397E+02  0.51100000000E-03 0.  1.
        -12    1    3    3    0    0  0.25292109162E+01 -0.47529750938E+01  0.10592469395E+01  0.54872291897E+01  0.00000000000E+00 0.  1.
</event>
<event>
 7    1  0.3851772E-009  0.4778727E+02  0.7816164E-02  0.1312668E+00
        -11   -1    0    0    0    0  0.00000000000E+00  0.00000000000E+00  0.45593999997E+02  0.45594000000E+02  0.51100000000E-03 0.  1.
         11   -1    0    0    0    0 -0.00000000000E+00 -0.00000000000E+00 -0.45593999997E+02  0.45594000000E+02  0.51100000000E-03 0. -1.
    9900012    2    1    2    0    0 -0.23004178994E+02 -0.30313193634E+02  0.20869623707E+02  0.47787272435E+02  0.20000006341E+02 0.  0.
         12    1    1    2    0    0  0.23004178994E+02  0.30313193634E+02 -0.20869623707E+02  0.43400727565E+02  0.00000000000E+00 0. -1.
         11    1    3    3    0    0 -0.24859509400E+02 -0.20360477578E+02  0.12051649491E+02  0.34318894366E+02  0.51100000000E-03 0. -1.
        -11    1    3    3    0    0  0.74560183800E+00 -0.67256730211E+01  0.59508088617E+01  0.90112555206E+01  0.51100000000E-03 0.  1.
         12    1    3    3    0    0  0.11097285678E+01 -0.32270430351E+01  0.28671653542E+01  0.44571225486E+01  0.00000000000E+00 0. -1.
</event>
<event>
 7    1  0.3851772E-009  0.4778728E+02  0.7816164E-02  0.1312668E+00
        -11   -1    0    0    0    0  0.00000000000E+00  0.00000000000E+00  0.45593999997E+02  0.45594000000E+02  0.51100000000E-03 0. -1.
         11   -1    0    0    0    0 -0.00000000000E+00 -0.00000000000E+00 -0.45593999997E+02  0.45594000000E+02  0.51100000000E-03 0.  1.
    9900012    2    1    2    0    0  0.36461064634E+02 -0.92059828684E+01  0.21667107731E+02  0.47787275211E+02  0.20000018995E+02 0.  0.
         12    1    1    2    0    0 -0.36461064634E+02  0.92059828684E+01 -0.21667107731E+02  0.43400724789E+02  0.00000000000E+00 0. -1.
         11    1    3    3    0    0  0.31798780543E+01 -0.91078410816E+00  0.56263294480E+01  0.65266174585E+01  0.51100000000E-03 0. -1.
        -11    1    3    3    0    0  0.26624620989E+02 -0.11680800933E+02  0.17080974428E+02  0.33720486961E+02  0.51100000000E-03 0.  1.
        -12    1    3    3    0    0  0.66565655907E+01  0.33856021724E+01 -0.10401961451E+01  0.75401707907E+01  0.00000000000E+00 0.  1.
</event>
<event>
 7    1  0.3851772E-009  0.4778727E+02  0.7816164E-02  0.1312668E+00
        -11   -1    0    0    0    0  0.00000000000E+00  0.00000000000E+00  0.45593999997E+02  0.45594000000E+02  0.51100000000E-03 0.  1.
         11   -1    0    0    0    0 -0.00000000000E+00 -0.00000000000E+00 -0.45593999997E+02  0.45594000000E+02  0.51100000000E-03 0. -1.
    9900012    2    1    2    0    0  0.11364820215E+02 -0.34200914493E+02  0.24181847594E+02  0.47787269088E+02  0.19999991081E+02 0.  0.
         12    1    1    2    0    0 -0.11364820215E+02  0.34200914493E+02 -0.24181847594E+02  0.43400730912E+02  0.00000000000E+00 0. -1.
         11    1    3    3    0    0  0.27128229329E+01 -0.96361110966E+01  0.59136005981E+00  0.10028148000E+02  0.51100000000E-03 0. -1.
        -11    1    3    3    0    0 -0.10023789810E+01 -0.97166123846E+01  0.15421982207E+02  0.18255269248E+02  0.51100000000E-03 0.  1.
        -12    1    3    3    0    0  0.96543762626E+01 -0.14848191011E+02  0.81685053269E+01  0.19503851840E+02  0.00000000000E+00 0.  1.
</event>
<event>
 7    1  0.3851772E-009  0.4778727E+02  0.7816164E-02  0.1312668E+00
        -11   -1    0    0    0    0  0.00000000000E+00  0.00000000000E+00  0.45593999997E+02  0.45594000000E+02  0.51100000000E-03 0. -1.
         11   -1    0    0    0    0 -0.00000000000E+00 -0.00000000000E+00 -0.45593999997E+02  0.45594000000E+02  0.51100000000E-03 0.  1.
    9900012    2    1    2    0    0 -0.34320158028E+02  0.25164133599E+02  0.85156667321E+01  0.47787269053E+02  0.19999990918E+02 0.  0.
         12    1    1    2    0    0  0.34320158028E+02 -0.25164133599E+02 -0.85156667321E+01  0.43400730947E+02  0.00000000000E+00 0. -1.
         11    1    3    3    0    0 -0.10538451708E+02  0.90426144023E+01  0.11201478053E+02  0.17840990737E+02  0.51100000000E-03 0. -1.
        -11    1    3    3    0    0 -0.20283396782E+01  0.25954582471E+01  0.20733837631E+01  0.38922340440E+01  0.51100000000E-03 0.  1.
         12    1    3    3    0    0 -0.21753366642E+02  0.13526060950E+02 -0.47591950842E+01  0.26054044272E+02  0.00000000000E+00 0. -1.
</event>
<event>
 7    1  0.3851772E-009  0.4778725E+02  0.7816164E-02  0.1312668E+00
        -11   -1    0    0    0    0  0.00000000000E+00  0.00000000000E+00  0.45593999997E+02  0.45594000000E+02  0.51100000000E-03 0.  1.
         11   -1    0    0    0    0 -0.00000000000E+00 -0.00000000000E+00 -0.45593999997E+02  0.45594000000E+02  0.51100000000E-03 0. -1.
    9900012    2    1    2    0    0 -0.28406609159E+01 -0.14832941106E+02  0.40688327693E+02  0.47787245321E+02  0.19999882714E+02 0.  0.
         12    1    1    2    0    0  0.28406609159E+01  0.14832941106E+02 -0.40688327693E+02  0.43400754679E+02  0.00000000000E+00 0. -1.
         11    1    3    3    0    0  0.50067457940E+01 -0.42436340695E+01  0.51558204410E+01  0.83461618869E+01  0.51100000000E-03 0. -1.
        -11    1    3    3    0    0 -0.88485664110E+00 -0.35216631340E+01  0.23803424627E+02  0.24078789561E+02  0.51100000000E-03 0.  1.
         12    1    3    3    0    0 -0.69625500688E+01 -0.70676439028E+01  0.11729082625E+02  0.15362293872E+02  0.00000000000E+00 0. -1.
</event>
<event>
 7    1  0.3851772E-009  0.4778727E+02  0.7816164E-02  0.1312668E+00
        -11   -1    0    0    0    0  0.00000000000E+00  0.00000000000E+00  0.45593999997E+02  0.45594000000E+02  0.51100000000E-03 0.  1.
         11   -1    0    0    0    0 -0.00000000000E+00 -0.00000000000E+00 -0.45593999997E+02  0.45594000000E+02  0.51100000000E-03 0. -1.
    9900012    2    1    2    0    0  0.37944460531E+02  0.40411074724E+01  0.20676338506E+02  0.47787267188E+02  0.19999982419E+02 0.  0.
         12    1    1    2    0    0 -0.37944460531E+02 -0.40411074724E+01 -0.20676338506E+02  0.43400732812E+02  0.00000000000E+00 0. -1.
         11    1    3    3    0    0  0.13398374591E+02  0.97080877005E+01  0.12288626629E+02  0.20610040106E+02  0.51100000000E-03 0. -1.
        -11    1    3    3    0    0  0.19152027794E+02 -0.61147715443E+01  0.47568047631E+01  0.20659569005E+02  0.51100000000E-03 0.  1.
         12    1    3    3    0    0  0.53940581459E+01  0.44779131620E+00  0.36309071137E+01  0.65176580773E+01  0.00000000000E+00 0. -1.
</event>
<event>
 7    1  0.3851772E-009  0.4778727E+02  0.7816164E-02  0.1312668E+00
        -11   -1    0    0    0    0  0.00000000000E+00  0.00000000000E+00  0.45593999997E+02  0.45594000000E+02  0.51100000000E-03 0.  1.
         11   -1    0    0    0    0 -0.00000000000E+00 -0.00000000000E+00 -0.45593999997E+02  0.45594000000E+02  0.51100000000E-03 0. -1.
    9900012    2    1    2    0    0 -0.30186155650E+02 -0.28788720868E+02  0.11984528940E+02  0.47787269867E+02  0.19999994632E+02 0.  0.
         12    1    1    2    0    0  0.30186155650E+02  0.28788720868E+02 -0.11984528940E+02  0.43400730133E+02  0.00000000000E+00 0. -1.
         11    1    3    3    0    0 -0.30455010089E+01  0.66931737029E+00  0.46649088850E+01  0.56110994737E+01  0.51100000000E-03 0. -1.
        -11    1    3    3    0    0 -0.27636301891E+02 -0.27195600913E+02  0.83156935015E+01  0.39654970052E+02  0.51100000000E-03 0.  1.
         12    1    3    3    0    0  0.49564724930E+00 -0.22624373257E+01 -0.99607344669E+00  0.25212003410E+01  0.00000000000E+00 0. -1.
</event>
<event>
 7    1  0.3851772E-009  0.4778727E+02  0.7816164E-02  0.1312668E+00
        -11   -1    0    0    0    0  0.00000000000E+00  0.00000000000E+00  0.45593999997E+02  0.45594000000E+02  0.51100000000E-03 0.  1.
         11   -1    0    0    0    0 -0.00000000000E+00 -0.00000000000E+00 -0.45593999997E+02  0.45594000000E+02  0.51100000000E-03 0. -1.
    9900012    2    1    2    0    0  0.27462253997E+02  0.11879983173E+02  0.31437460560E+02  0.47787270498E+02  0.19999997510E+02 0.  0.
         12    1    1    2    0    0 -0.27462253997E+02 -0.11879983173E+02 -0.31437460560E+02  0.43400729502E+02  0.00000000000E+00 0. -1.
         11    1    3    3    0    0  0.15007649764E+02 -0.17543457107E+01  0.78520691076E+01  0.17028278534E+02  0.51100000000E-03 0. -1.
        -11    1    3    3    0    0  0.11197968624E+02  0.75138665785E+01  0.15633491827E+02  0.20646034952E+02  0.51100000000E-03 0.  1.
         12    1    3    3    0    0  0.12566356098E+01  0.61204623052E+01  0.79518996256E+01  0.10112957013E+02  0.00000000000E+00 0. -1.
</event>
<event>
 7    1  0.3851772E-009  0.4778727E+02  0.7816164E-02  0.1312668E+00
        -11   -1    0    0    0    0  0.00000000000E+00  0.00000000000E+00  0.45593999997E+02  0.45594000000E+02  0.51100000000E-03 0. -1.
         11   -1    0    0    0    0 -0.00000000000E+00 -0.00000000000E+00 -0.45593999997E+02  0.45594000000E+02  0.51100000000E-03 0.  1.
    9900012    2    1    2    0    0  0.15384786384E+02 -0.30860580962E+02 -0.26354433032E+02  0.47787271321E+02  0.20000001261E+02 0.  0.
         12    1    1    2    0    0 -0.15384786384E+02  0.30860580962E+02  0.26354433032E+02  0.43400728679E+02  0.00000000000E+00 0. -1.
         11    1    3    3    0    0 -0.94450237715E+00 -0.20228718111E+00  0.56079019267E+00  0.11169112522E+01  0.51100000000E-03 0. -1.
        -11    1    3    3    0    0  0.21619198179E+01 -0.20462019960E+02 -0.16208982050E+02  0.26193496473E+02  0.51100000000E-03 0.  1.
        -12    1    3    3    0    0  0.14167368943E+02 -0.10196273821E+02 -0.10706241175E+02  0.20476863595E+02  0.00000000000E+00 0.  1.
</event>
<event>
 7    1  0.3851772E-009  0.4778727E+02  0.7816164E-02  0.1312668E+00
        -11   -1    0    0    0    0  0.00000000000E+00  0.00000000000E+00  0.45593999997E+02  0.45594000000E+02  0.51100000000E-03 0. -1.
         11   -1    0    0    0    0 -0.00000000000E+00 -0.00000000000E+00 -0.45593999997E+02  0.45594000000E+02  0.51100000000E-03 0.  1.
    9900012    2    1    2    0    0  0.27532311507E+02  0.24947625181E+02 -0.22432362563E+02  0.47787273402E+02  0.20000010748E+02 0.  0.
         12    1    1    2    0    0 -0.27532311507E+02 -0.24947625181E+02  0.22432362563E+02  0.43400726598E+02  0.00000000000E+00 0. -1.
         11    1    3    3    0    0  0.33873760441E+01 -0.31241272701E+00 -0.82103911496E+00  0.34994319061E+01  0.51100000000E-03 0. -1.
        -11    1    3    3    0    0  0.29780451967E+01 -0.23296584299E+01 -0.31260664870E+01  0.49059508289E+01  0.51100000000E-03 0.  1.
        -12    1    3    3    0    0  0.21166890266E+02  0.27589696338E+02 -0.18485256961E+02  0.39381890667E+02  0.00000000000E+00 0.  1.
</event>
<event>
 7    1  0.3851772E-009  0.4778727E+02  0.7816164E-02  0.1312668E+00
        -11   -1    0    0    0    0  0.00000000000E+00  0.00000000000E+00  0.45593999997E+02  0.45594000000E+02  0.51100000000E-03 0.  1.
         11   -1    0    0    0    0 -0.00000000000E+00 -0.00000000000E+00 -0.45593999997E+02  0.45594000000E+02  0.51100000000E-03 0. -1.
    9900012    2    1    2    0    0 -0.30792319280E+02 -0.13189001207E+02  0.27595409081E+02  0.47787270953E+02  0.19999999584E+02 0.  0.
         12    1    1    2    0    0  0.30792319280E+02  0.13189001207E+02 -0.27595409081E+02  0.43400729047E+02  0.00000000000E+00 0. -1.
         11    1    3    3    0    0 -0.14836544207E+01 -0.67480872866E+01  0.50487603191E+00  0.69276845004E+01  0.51100000000E-03 0. -1.
        -11    1    3    3    0    0 -0.21609699946E+02 -0.55983790670E+01  0.16594636681E+02  0.27815516295E+02  0.51100000000E-03 0.  1.
         12    1    3    3    0    0 -0.76989649124E+01 -0.84253485363E+00  0.10495896368E+02  0.13044070158E+02  0.00000000000E+00 0. -1.
</event>
<event>
 7    1  0.3851772E-009  0.4778728E+02  0.7816164E-02  0.1312668E+00
        -11   -1    0    0    0    0  0.00000000000E+00  0.00000000000E+00  0.45593999997E+02  0.45594000000E+02  0.51100000000E-03 0.  1.
         11   -1    0    0    0    0 -0.00000000000E+00 -0.00000000000E+00 -0.45593999997E+02  0.45594000000E+02  0.51100000000E-03 0. -1.
    9900012    2    1    2    0    0 -0.21666205206E+02 -0.36662149234E+02 -0.83716951450E+01  0.47787275189E+02  0.20000018899E+02 0.  0.
         12    1    1    2    0    0  0.21666205206E+02  0.36662149234E+02  0.83716951450E+01  0.43400724811E+02  0.00000000000E+00 0. -1.
         11    1    3    3    0    0 -0.14141527693E+02 -0.91214520455E+01 -0.80052475153E+01  0.18635119558E+02  0.51100000000E-03 0. -1.
        -11    1    3    3    0    0 -0.78526843530E+01 -0.18688929985E+02  0.24599190934E+00  0.20273166201E+02  0.51100000000E-03 0.  1.
         12    1    3    3    0    0  0.32800683999E+00 -0.88517672030E+01 -0.61243953911E+00  0.88789894296E+01  0.00000000000E+00 0. -1.
</event>
<event>
 7    1  0.3851772E-009  0.4778727E+02  0.7816164E-02  0.1312668E+00
        -11   -1    0    0    0    0  0.00000000000E+00  0.00000000000E+00  0.45593999997E+02  0.45594000000E+02  0.51100000000E-03 0.  1.
         11   -1    0    0    0    0 -0.00000000000E+00 -0.00000000000E+00 -0.45593999997E+02  0.45594000000E+02  0.51100000000E-03 0. -1.
    9900012    2    1    2    0    0 -0.25034277883E+02 -0.31783519033E+02  0.15707191837E+02  0.47787273892E+02  0.20000012983E+02 0.  0.
         12    1    1    2    0    0  0.25034277883E+02  0.31783519033E+02 -0.15707191837E+02  0.43400726108E+02  0.00000000000E+00 0. -1.
         11    1    3    3    0    0 -0.13664530975E+02 -0.33136472417E+01  0.66585351631E+01  0.15557498372E+02  0.51100000000E-03 0. -1.
        -11    1    3    3    0    0 -0.91065631913E+01 -0.23124277799E+02  0.55938601470E+01  0.25474555708E+02  0.51100000000E-03 0.  1.
        -12    1    3    3    0    0 -0.22631837169E+01 -0.53455939926E+01  0.34547965274E+01  0.67552198125E+01  0.00000000000E+00 0.  1.
</event>
<event>
 7    1  0.3851772E-009  0.4778726E+02  0.7816164E-02  0.1312668E+00
        -11   -1    0    0    0    0  0.00000000000E+00  0.00000000000E+00  0.45593999997E+02  0.45594000000E+02  0.51100000000E-03 0.  1.
         11   -1    0    0    0    0 -0.00000000000E+00 -0.00000000000E+00 -0.45593999997E+02  0.45594000000E+02  0.51100000000E-03 0. -1.
    9900012    2    1    2    0    0 -0.32186996322E+02  0.27912419755E+02 -0.82775907809E+01  0.47787257864E+02  0.19999939906E+02 0.  0.
         12    1    1    2    0    0  0.32186996322E+02 -0.27912419755E+02  0.82775907809E+01  0.43400742136E+02  0.00000000000E+00 0. -1.
         11    1    3    3    0    0 -0.13111633086E+00  0.21704755212E+00  0.31337180297E+01  0.31439608908E+01  0.51100000000E-03 0. -1.
        -11    1    3    3    0    0 -0.17125773015E+02  0.10303904058E+02 -0.77263506488E+01  0.21427996519E+02  0.51100000000E-03 0.  1.
         12    1    3    3    0    0 -0.14930106976E+02  0.17391468145E+02 -0.36849581617E+01  0.23215300455E+02  0.00000000000E+00 0. -1.
</event>
<event>
 7    1  0.3851772E-009  0.4778727E+02  0.7816164E-02  0.1312668E+00
        -11   -1    0    0    0    0  0.00000000000E+00  0.00000000000E+00  0.45593999997E+02  0.45594000000E+02  0.51100000000E-03 0.  1.
         11   -1    0    0    0    0 -0.00000000000E+00 -0.00000000000E+00 -0.45593999997E+02  0.45594000000E+02  0.51100000000E-03 0. -1.
    9900012    2    1    2    0    0  0.41976115148E+02  0.56961251561E+01  0.94436886427E+01  0.47787270284E+02  0.19999996534E+02 0.  0.
         12    1    1    2    0    0 -0.41976115148E+02 -0.56961251561E+01 -0.94436886427E+01  0.43400729716E+02  0.00000000000E+00 0. -1.
         11    1    3    3    0    0  0.22381897531E+02  0.18196388255E+01  0.37957373979E+01  0.22774284735E+02  0.51100000000E-03 0.  1.
        -11    1    3    3    0    0  0.37760702476E+01 -0.43587819611E+01 -0.12343358622E+01  0.58975649196E+01  0.51100000000E-03 0. -1.
        -12    1    3    3    0    0  0.15818147369E+02  0.82352682917E+01  0.68822871070E+01  0.19115420630E+02  0.00000000000E+00 0.  1.
</event>
<event>
 7    1  0.3851772E-009  0.4778726E+02  0.7816164E-02  0.1312668E+00
        -11   -1    0    0    0    0  0.00000000000E+00  0.00000000000E+00  0.45593999997E+02  0.45594000000E+02  0.51100000000E-03 0.  1.
         11   -1    0    0    0    0 -0.00000000000E+00 -0.00000000000E+00 -0.45593999997E+02  0.45594000000E+02  0.51100000000E-03 0. -1.
    9900012    2    1    2    0    0 -0.90182631856E+01 -0.27895751164E+02  0.32001908051E+02  0.47787261264E+02  0.19999955408E+02 0.  0.
         12    1    1    2    0    0  0.90182631856E+01  0.27895751164E+02 -0.32001908051E+02  0.43400738736E+02  0.00000000000E+00 0. -1.
         11    1    3    3    0    0 -0.76599960529E+00  0.88666813076E+00  0.88507713234E+01  0.89279946825E+01  0.51100000000E-03 0. -1.
        -11    1    3    3    0    0 -0.54642257291E+01 -0.15208721263E+02  0.70923663309E+01  0.17648360426E+02  0.51100000000E-03 0.  1.
         12    1    3    3    0    0 -0.27880378512E+01 -0.13573698032E+02  0.16058770396E+02  0.21210906156E+02  0.00000000000E+00 0. -1.
</event>
<event>
 7    1  0.3851772E-009  0.4778724E+02  0.7816164E-02  0.1312668E+00
        -11   -1    0    0    0    0  0.00000000000E+00  0.00000000000E+00  0.45593999997E+02  0.45594000000E+02  0.51100000000E-03 0.  1.
         11   -1    0    0    0    0 -0.00000000000E+00 -0.00000000000E+00 -0.45593999997E+02  0.45594000000E+02  0.51100000000E-03 0. -1.
    9900012    2    1    2    0    0  0.14780362719E+02  0.72500469819E+01  0.40157238837E+02  0.47787238090E+02  0.19999849747E+02 0.  0.
         12    1    1    2    0    0 -0.14780362719E+02 -0.72500469819E+01 -0.40157238837E+02  0.43400761910E+02  0.00000000000E+00 0. -1.
         11    1    3    3    0    0 -0.12101841071E+00  0.39370207106E+01  0.15354998011E+01  0.42275923919E+01  0.51100000000E-03 0. -1.
        -11    1    3    3    0    0  0.12633655680E+02  0.78114845419E+01  0.31608654798E+02  0.34924713384E+02  0.51100000000E-03 0.  1.
        -12    1    3    3    0    0  0.22677254499E+01 -0.44984582707E+01  0.70130842382E+01  0.86349323136E+01  0.00000000000E+00 0.  1.
</event>
<event>
 7    1  0.3851772E-009  0.4778726E+02  0.7816164E-02  0.1312668E+00
        -11   -1    0    0    0    0  0.00000000000E+00  0.00000000000E+00  0.45593999997E+02  0.45594000000E+02  0.51100000000E-03 0. -1.
         11   -1    0    0    0    0 -0.00000000000E+00 -0.00000000000E+00 -0.45593999997E+02  0.45594000000E+02  0.51100000000E-03 0.  1.
    9900012    2    1    2    0    0  0.38984616988E+02 -0.12260543494E+02  0.14611729361E+02  0.47787263562E+02  0.19999965884E+02 0.  0.
         12    1    1    2    0    0 -0.38984616988E+02  0.12260543494E+02 -0.14611729361E+02  0.43400736438E+02  0.00000000000E+00 0. -1.
         11    1    3    3    0    0  0.95376404550E+01  0.34609885348E+01  0.25798503848E+01  0.10469033162E+02  0.51100000000E-03 0. -1.
        -11    1    3    3    0    0  0.20057626421E+02 -0.98336887446E+01  0.21010748846E+01  0.22437119420E+02  0.51100000000E-03 0.  1.
        -12    1    3    3    0    0  0.93893501121E+01 -0.58878432840E+01  0.99308040917E+01  0.14881110979E+02  0.00000000000E+00 0.  1.
</event>
<event>
 7    1  0.3851772E-009  0.4778727E+02  0.7816164E-02  0.1312668E+00
        -11   -1    0    0    0    0  0.00000000000E+00  0.00000000000E+00  0.45593999997E+02  0.45594000000E+02  0.51100000000E-03 0.  1.
         11   -1    0    0    0    0 -0.00000000000E+00 -0.00000000000E+00 -0.45593999997E+02  0.45594000000E+02  0.51100000000E-03 0. -1.
    9900012    2    1    2    0    0 -0.35039153683E+01  0.21807556533E+02  0.37360088480E+02  0.47787272402E+02  0.20000006189E+02 0.  0.
         12    1    1    2    0    0  0.35039153683E+01 -0.21807556533E+02 -0.37360088480E+02  0.43400727598E+02  0.00000000000E+00 0. -1.
         11    1    3    3    0    0 -0.45767368301E+01  0.12126030369E+01  0.10479416060E+02  0.11499351606E+02  0.51100000000E-03 0. -1.
        -11    1    3    3    0    0  0.40213143363E+01  0.18942041679E+02  0.26592048373E+02  0.32895424437E+02  0.51100000000E-03 0.  1.
        -12    1    3    3    0    0 -0.29484928745E+01  0.16529118171E+01  0.28862404697E+00  0.33924963591E+01  0.00000000000E+00 0.  1.
</event>
<event>
 7    1  0.3851772E-009  0.4778727E+02  0.7816164E-02  0.1312668E+00
        -11   -1    0    0    0    0  0.00000000000E+00  0.00000000000E+00  0.45593999997E+02  0.45594000000E+02  0.51100000000E-03 0. -1.
         11   -1    0    0    0    0 -0.00000000000E+00 -0.00000000000E+00 -0.45593999997E+02  0.45594000000E+02  0.51100000000E-03 0.  1.
    9900012    2    1    2    0    0  0.41425144515E+02 -0.94015814304E+01 -0.88989468771E+01  0.47787267437E+02  0.19999983552E+02 0.  0.
         12    1    1    2    0    0 -0.41425144515E+02  0.94015814304E+01  0.88989468771E+01  0.43400732563E+02  0.00000000000E+00 0. -1.
         11    1    3    3    0    0  0.15956495710E+01 -0.43181895770E+01 -0.92702212925E+00  0.46959800964E+01  0.51100000000E-03 0.  1.
        -11    1    3    3    0    0  0.22980681689E+02  0.36884848747E+01 -0.30945279275E+01  0.23479624250E+02  0.51100000000E-03 0. -1.
        -12    1    3    3    0    0  0.16848813255E+02 -0.87718767280E+01 -0.48773968204E+01  0.19611663090E+02  0.00000000000E+00 0.  1.
</event>
<event>
 7    1  0.3851772E-009  0.4778730E+02  0.7816164E-02  0.1312668E+00
        -11   -1    0    0    0    0  0.00000000000E+00  0.00000000000E+00  0.45593999997E+02  0.45594000000E+02  0.51100000000E-03 0.  1.
         11   -1    0    0    0    0 -0.00000000000E+00 -0.00000000000E+00 -0.45593999997E+02  0.45594000000E+02  0.51100000000E-03 0. -1.
    9900012    2    1    2    0    0 -0.11124626208E+02  0.21204075402E+01  0.41897108040E+02  0.47787296105E+02  0.20000114263E+02 0.  0.
         12    1    1    2    0    0  0.11124626208E+02 -0.21204075402E+01 -0.41897108040E+02  0.43400703895E+02  0.00000000000E+00 0. -1.
         11    1    3    3    0    0 -0.11636642464E+02 -0.29475040134E+01  0.25108294905E+02  0.27830301849E+02  0.51100000000E-03 0. -1.
        -11    1    3    3    0    0  0.19107692374E+01 -0.10276136151E+01  0.11685173039E+02  0.11884876862E+02  0.51100000000E-03 0.  1.
         12    1    3    3    0    0 -0.13987529812E+01  0.60955251687E+01  0.51036400971E+01  0.80721173941E+01  0.00000000000E+00 0. -1.
</event>
<event>
 7    1  0.3851772E-009  0.4778727E+02  0.7816164E-02  0.1312668E+00
        -11   -1    0    0    0    0  0.00000000000E+00  0.00000000000E+00  0.45593999997E+02  0.45594000000E+02  0.51100000000E-03 0. -1.
         11   -1    0    0    0    0 -0.00000000000E+00 -0.00000000000E+00 -0.45593999997E+02  0.45594000000E+02  0.51100000000E-03 0.  1.
    9900012    2    1    2    0    0 -0.41426076578E+02  0.90598122003E+01 -0.92424840746E+01  0.47787268098E+02  0.19999986567E+02 0.  0.
         12    1    1    2    0    0  0.41426076578E+02 -0.90598122003E+01  0.92424840746E+01  0.43400731902E+02  0.00000000000E+00 0. -1.
         11    1    3    3    0    0 -0.10208420944E+01 -0.31711540680E+01  0.13036225256E+01  0.35773969105E+01  0.51100000000E-03 0. -1.
        -11    1    3    3    0    0 -0.30199309197E+02  0.79375397680E+01 -0.43635584176E+01  0.31528454702E+02  0.51100000000E-03 0.  1.
         12    1    3    3    0    0 -0.10205925286E+02  0.42934265003E+01 -0.61825481826E+01  0.12681416486E+02  0.00000000000E+00 0. -1.
</event>
<event>
 7    1  0.3851772E-009  0.4778727E+02  0.7816164E-02  0.1312668E+00
        -11   -1    0    0    0    0  0.00000000000E+00  0.00000000000E+00  0.45593999997E+02  0.45594000000E+02  0.51100000000E-03 0.  1.
         11   -1    0    0    0    0 -0.00000000000E+00 -0.00000000000E+00 -0.45593999997E+02  0.45594000000E+02  0.51100000000E-03 0. -1.
    9900012    2    1    2    0    0  0.34931035985E+02  0.20097504491E+02  0.16110127078E+02  0.47787272400E+02  0.20000006182E+02 0.  0.
         12    1    1    2    0    0 -0.34931035985E+02 -0.20097504491E+02 -0.16110127078E+02  0.43400727600E+02  0.00000000000E+00 0. -1.
         11    1    3    3    0    0  0.53088483074E+01 -0.29646820361E+01  0.12019841831E+01  0.61982236297E+01  0.51100000000E-03 0. -1.
        -11    1    3    3    0    0  0.18346107442E+02  0.17387156617E+02  0.14091683428E+02  0.28939046556E+02  0.51100000000E-03 0.  1.
         12    1    3    3    0    0  0.11276080236E+02  0.56750299097E+01  0.81645946670E+00  0.12650002214E+02  0.00000000000E+00 0. -1.
</event>
<event>
 7    1  0.3851772E-009  0.4778728E+02  0.7816164E-02  0.1312668E+00
        -11   -1    0    0    0    0  0.00000000000E+00  0.00000000000E+00  0.45593999997E+02  0.45594000000E+02  0.51100000000E-03 0.  1.
         11   -1    0    0    0    0 -0.00000000000E+00 -0.00000000000E+00 -0.45593999997E+02  0.45594000000E+02  0.51100000000E-03 0. -1.
    9900012    2    1    2    0    0 -0.31513994332E+02 -0.19137278133E+02  0.22896628525E+02  0.47787275918E+02  0.20000022219E+02 0.  0.
         12    1    1    2    0    0  0.31513994332E+02  0.19137278133E+02 -0.22896628525E+02  0.43400724082E+02  0.00000000000E+00 0. -1.
         11    1    3    3    0    0 -0.47092763019E+01  0.33617872084E+01  0.59423085339E+00  0.58165287836E+01  0.51100000000E-03 0. -1.
        -11    1    3    3    0    0 -0.22676632833E+02 -0.21618493136E+02  0.19460567942E+02  0.36882280664E+02  0.51100000000E-03 0.  1.
        -12    1    3    3    0    0 -0.41280851969E+01 -0.88057220504E+00  0.28418297298E+01  0.50884664698E+01  0.00000000000E+00 0.  1.
</event>
<event>
 7    1  0.3851772E-009  0.4778727E+02  0.7816164E-02  0.1312668E+00
        -11   -1    0    0    0    0  0.00000000000E+00  0.00000000000E+00  0.45593999997E+02  0.45594000000E+02  0.51100000000E-03 0. -1.
         11   -1    0    0    0    0 -0.00000000000E+00 -0.00000000000E+00 -0.45593999997E+02  0.45594000000E+02  0.51100000000E-03 0.  1.
    9900012    2    1    2    0    0  0.23405896510E+02  0.29055288823E+02 -0.22171550139E+02  0.47787269181E+02  0.19999991506E+02 0.  0.
         12    1    1    2    0    0 -0.23405896510E+02 -0.29055288823E+02  0.22171550139E+02  0.43400730819E+02  0.00000000000E+00 0. -1.
         11    1    3    3    0    0  0.21507179028E+02  0.24659158457E+02 -0.14941732404E+02  0.35970657668E+02  0.51100000000E-03 0. -1.
        -11    1    3    3    0    0  0.46772985256E+01  0.41685411323E+01 -0.35538342417E+01  0.72030267769E+01  0.51100000000E-03 0.  1.
         12    1    3    3    0    0 -0.27785810442E+01  0.22758923390E+00 -0.36759834937E+01  0.46135847370E+01  0.00000000000E+00 0. -1.
</event>
<event>
 7    1  0.3851772E-009  0.4778727E+02  0.7816164E-02  0.1312668E+00
        -11   -1    0    0    0    0  0.00000000000E+00  0.00000000000E+00  0.45593999997E+02  0.45594000000E+02  0.51100000000E-03 0.  1.
         11   -1    0    0    0    0 -0.00000000000E+00 -0.00000000000E+00 -0.45593999997E+02  0.45594000000E+02  0.51100000000E-03 0. -1.
    9900012    2    1    2    0    0  0.22608601906E+02  0.20744287720E+02  0.30694439176E+02  0.47787274782E+02  0.20000017040E+02 0.  0.
         12    1    1    2    0    0 -0.22608601906E+02 -0.20744287720E+02 -0.30694439176E+02  0.43400725218E+02  0.00000000000E+00 0. -1.
         11    1    3    3    0    0  0.14347514561E+02  0.16203335555E+01  0.12085912018E+02  0.18829389913E+02  0.51100000000E-03 0. -1.
        -11    1    3    3    0    0  0.85714547985E+01  0.18514867479E+02  0.19227934262E+02  0.28035399255E+02  0.51100000000E-03 0.  1.
         12    1    3    3    0    0 -0.31036745377E+00  0.60908668513E+00 -0.61940710481E+00  0.92248561390E+00  0.00000000000E+00 0. -1.
</event>
<event>
 7    1  0.3851772E-009  0.4778727E+02  0.7816164E-02  0.1312668E+00
        -11   -1    0    0    0    0  0.00000000000E+00  0.00000000000E+00  0.45593999997E+02  0.45594000000E+02  0.51100000000E-03 0. -1.
         11   -1    0    0    0    0 -0.00000000000E+00 -0.00000000000E+00 -0.45593999997E+02  0.45594000000E+02  0.51100000000E-03 0.  1.
    9900012    2    1    2    0    0  0.25474068715E+02  0.10978465420E+02 -0.33379161252E+02  0.47787270908E+02  0.19999999378E+02 0.  0.
         12    1    1    2    0    0 -0.25474068715E+02 -0.10978465420E+02  0.33379161252E+02  0.43400729092E+02  0.00000000000E+00 0. -1.
         11    1    3    3    0    0 -0.95703421562E+00 -0.14273675816E+01 -0.27536892654E+01  0.32459355407E+01  0.51100000000E-03 0. -1.
        -11    1    3    3    0    0  0.14466650006E+02  0.13051489383E+02 -0.23776967041E+02  0.30740356202E+02  0.51100000000E-03 0.  1.
        -12    1    3    3    0    0  0.11964452924E+02 -0.64565638117E+00 -0.68485049448E+01  0.13800979165E+02  0.00000000000E+00 0.  1.
</event>
<event>
 7    1  0.3851772E-009  0.4778727E+02  0.7816164E-02  0.1312668E+00
        -11   -1    0    0    0    0  0.00000000000E+00  0.00000000000E+00  0.45593999997E+02  0.45594000000E+02  0.51100000000E-03 0. -1.
         11   -1    0    0    0    0 -0.00000000000E+00 -0.00000000000E+00 -0.45593999997E+02  0.45594000000E+02  0.51100000000E-03 0.  1.
    9900012    2    1    2    0    0  0.20203960322E+02  0.24349277284E+02 -0.29707507957E+02  0.47787270214E+02  0.19999996213E+02 0.  0.
         12    1    1    2    0    0 -0.20203960322E+02 -0.24349277284E+02  0.29707507957E+02  0.43400729786E+02  0.00000000000E+00 0. -1.
         11    1    3    3    0    0  0.11022900164E+02  0.22597290441E+02 -0.23596984595E+02  0.34481292689E+02  0.51100000000E-03 0. -1.
        -11    1    3    3    0    0  0.17839138846E+01  0.17523770563E+01 -0.53053439014E+01  0.58651383844E+01  0.51100000000E-03 0.  1.
         12    1    3    3    0    0  0.73971462737E+01 -0.39021300610E-03 -0.80517946047E+00  0.74408391402E+01  0.00000000000E+00 0. -1.
</event>
<event>
 7    1  0.3851772E-009  0.4778727E+02  0.7816164E-02  0.1312668E+00
        -11   -1    0    0    0    0  0.00000000000E+00  0.00000000000E+00  0.45593999997E+02  0.45594000000E+02  0.51100000000E-03 0. -1.
         11   -1    0    0    0    0 -0.00000000000E+00 -0.00000000000E+00 -0.45593999997E+02  0.45594000000E+02  0.51100000000E-03 0.  1.
    9900012    2    1    2    0    0 -0.27244672742E+02 -0.12558892818E+02 -0.31362801062E+02  0.47787271065E+02  0.20000000095E+02 0.  0.
         12    1    1    2    0    0  0.27244672742E+02  0.12558892818E+02  0.31362801062E+02  0.43400728935E+02  0.00000000000E+00 0. -1.
         11    1    3    3    0    0 -0.12290909098E+02 -0.11267857906E+02 -0.53432589598E+01  0.17509468433E+02  0.51100000000E-03 0. -1.
        -11    1    3    3    0    0 -0.42627017028E+01 -0.11758601509E+01 -0.10873678800E+02  0.11738405506E+02  0.51100000000E-03 0.  1.
         12    1    3    3    0    0 -0.10691061941E+02 -0.11517476106E+00 -0.15145863301E+02  0.18539397126E+02  0.00000000000E+00 0. -1.
</event>
<event>
 7    1  0.3851772E-009  0.4778727E+02  0.7816164E-02  0.1312668E+00
        -11   -1    0    0    0    0  0.00000000000E+00  0.00000000000E+00  0.45593999997E+02  0.45594000000E+02  0.51100000000E-03 0. -1.
         11   -1    0    0    0    0 -0.00000000000E+00 -0.00000000000E+00 -0.45593999997E+02  0.45594000000E+02  0.51100000000E-03 0.  1.
    9900012    2    1    2    0    0  0.15907336101E+02 -0.95712070845E+01 -0.39229730764E+02  0.47787272786E+02  0.20000007941E+02 0.  0.
         12    1    1    2    0    0 -0.15907336101E+02  0.95712070845E+01  0.39229730764E+02  0.43400727214E+02  0.00000000000E+00 0. -1.
         11    1    3    3    0    0  0.10000078234E+02 -0.32675158358E+00 -0.15450719950E+02  0.18407419116E+02  0.51100000000E-03 0.  1.
        -11    1    3    3    0    0  0.42422913643E+01  0.27114799271E+01 -0.53246750212E+01  0.73281187051E+01  0.51100000000E-03 0. -1.
         12    1    3    3    0    0  0.16649665032E+01 -0.11955935428E+02 -0.18454335793E+02  0.22051734965E+02  0.00000000000E+00 0. -1.
</event>
<event>
 7    1  0.3851772E-009  0.4778727E+02  0.7816164E-02  0.1312668E+00
        -11   -1    0    0    0    0  0.00000000000E+00  0.00000000000E+00  0.45593999997E+02  0.45594000000E+02  0.51100000000E-03 0.  1.
         11   -1    0    0    0    0 -0.00000000000E+00 -0.00000000000E+00 -0.45593999997E+02  0.45594000000E+02  0.51100000000E-03 0. -1.
    9900012    2    1    2    0    0 -0.91817029573E+01 -0.33806424513E+02  0.25621186534E+02  0.47787271816E+02  0.20000003517E+02 0.  0.
         12    1    1    2    0    0  0.91817029573E+01  0.33806424513E+02 -0.25621186534E+02  0.43400728184E+02  0.00000000000E+00 0. -1.
         11    1    3    3    0    0 -0.48873578842E+01 -0.23386786595E+01  0.26725957133E+01  0.60413949605E+01  0.51100000000E-03 0. -1.
        -11    1    3    3    0    0 -0.49522870272E+01 -0.31503813012E+02  0.24398353904E+02  0.40153394060E+02  0.51100000000E-03 0.  1.
        -12    1    3    3    0    0  0.65794195406E+00  0.36067158730E-01 -0.14497630834E+01  0.15924827951E+01  0.00000000000E+00 0.  1.
</event>
<event>
 7    1  0.3851772E-009  0.4778727E+02  0.7816164E-02  0.1312668E+00
        -11   -1    0    0    0    0  0.00000000000E+00  0.00000000000E+00  0.45593999997E+02  0.45594000000E+02  0.51100000000E-03 0.  1.
         11   -1    0    0    0    0 -0.00000000000E+00 -0.00000000000E+00 -0.45593999997E+02  0.45594000000E+02  0.51100000000E-03 0. -1.
    9900012    2    1    2    0    0 -0.38796063450E+02 -0.65270870938E+01 -0.18327185763E+02  0.47787272551E+02  0.20000006868E+02 0.  0.
         12    1    1    2    0    0  0.38796063450E+02  0.65270870938E+01  0.18327185763E+02  0.43400727449E+02  0.00000000000E+00 0. -1.
         11    1    3    3    0    0 -0.48918231599E+00 -0.55799271407E+01 -0.14804050410E+01  0.57936590839E+01  0.51100000000E-03 0. -1.
        -11    1    3    3    0    0 -0.33133992995E+02 -0.10935112645E+01 -0.15752594729E+02  0.36704243618E+02  0.51100000000E-03 0.  1.
         12    1    3    3    0    0 -0.51728881394E+01  0.14635131134E+00 -0.10941859927E+01  0.52893698486E+01  0.00000000000E+00 0. -1.
</event>
<event>
 7    1  0.3851772E-009  0.4778727E+02  0.7816164E-02  0.1312668E+00
        -11   -1    0    0    0    0  0.00000000000E+00  0.00000000000E+00  0.45593999997E+02  0.45594000000E+02  0.51100000000E-03 0.  1.
         11   -1    0    0    0    0 -0.00000000000E+00 -0.00000000000E+00 -0.45593999997E+02  0.45594000000E+02  0.51100000000E-03 0. -1.
    9900012    2    1    2    0    0  0.17873658604E+02  0.29640341982E+02  0.26184075762E+02  0.47787269958E+02  0.19999995045E+02 0.  0.
         12    1    1    2    0    0 -0.17873658604E+02 -0.29640341982E+02 -0.26184075762E+02  0.43400730042E+02  0.00000000000E+00 0. -1.
         11    1    3    3    0    0  0.51176656141E+00 -0.14072448976E+01  0.29794095175E+01  0.33345351324E+01  0.51100000000E-03 0. -1.
        -11    1    3    3    0    0  0.91510904345E+01  0.25064243406E+02  0.21241632314E+02  0.34105215104E+02  0.51100000000E-03 0.  1.
        -12    1    3    3    0    0  0.82108016084E+01  0.59833434732E+01  0.19630339303E+01  0.10347519721E+02  0.00000000000E+00 0.  1.
</event>
<event>
 7    1  0.3851772E-009  0.4778727E+02  0.7816164E-02  0.1312668E+00
        -11   -1    0    0    0    0  0.00000000000E+00  0.00000000000E+00  0.45593999997E+02  0.45594000000E+02  0.51100000000E-03 0. -1.
         11   -1    0    0    0    0 -0.00000000000E+00 -0.00000000000E+00 -0.45593999997E+02  0.45594000000E+02  0.51100000000E-03 0.  1.
    9900012    2    1    2    0    0  0.11460225403E+02  0.18994015290E+01 -0.41817207250E+02  0.47787270575E+02  0.19999997858E+02 0.  0.
         12    1    1    2    0    0 -0.11460225403E+02 -0.18994015290E+01  0.41817207250E+02  0.43400729425E+02  0.00000000000E+00 0. -1.
         11    1    3    3    0    0  0.89878707485E+01 -0.31246802837E+01 -0.10414705847E+02  0.14107145197E+02  0.51100000000E-03 0. -1.
        -11    1    3    3    0    0  0.30064879934E+01  0.38052346463E+01 -0.31894688051E+02  0.32261275655E+02  0.51100000000E-03 0.  1.
        -12    1    3    3    0    0 -0.53413333873E+00  0.12188471664E+01  0.49218664786E+00  0.14188497225E+01  0.00000000000E+00 0.  1.
</event>
<event>
 7    1  0.3851772E-009  0.4778727E+02  0.7816164E-02  0.1312668E+00
        -11   -1    0    0    0    0  0.00000000000E+00  0.00000000000E+00  0.45593999997E+02  0.45594000000E+02  0.51100000000E-03 0.  1.
         11   -1    0    0    0    0 -0.00000000000E+00 -0.00000000000E+00 -0.45593999997E+02  0.45594000000E+02  0.51100000000E-03 0. -1.
    9900012    2    1    2    0    0  0.24725784453E+01  0.11145208577E+02  0.41872354978E+02  0.47787269248E+02  0.19999991809E+02 0.  0.
         12    1    1    2    0    0 -0.24725784453E+01 -0.11145208577E+02 -0.41872354978E+02  0.43400730752E+02  0.00000000000E+00 0. -1.
         11    1    3    3    0    0  0.44058258590E+01  0.96664075850E+01  0.83028744269E+01  0.13482895131E+02  0.51100000000E-03 0. -1.
        -11    1    3    3    0    0 -0.43192647636E+01  0.12410566932E+01  0.18066479440E+02  0.18617033852E+02  0.51100000000E-03 0.  1.
         12    1    3    3    0    0  0.23860173500E+01  0.23774429831E+00  0.15503001111E+02  0.15687340265E+02  0.00000000000E+00 0. -1.
</event>
<event>
 7    1  0.3851772E-009  0.4778727E+02  0.7816164E-02  0.1312668E+00
        -11   -1    0    0    0    0  0.00000000000E+00  0.00000000000E+00  0.45593999997E+02  0.45594000000E+02  0.51100000000E-03 0.  1.
         11   -1    0    0    0    0 -0.00000000000E+00 -0.00000000000E+00 -0.45593999997E+02  0.45594000000E+02  0.51100000000E-03 0. -1.
    9900012    2    1    2    0    0 -0.18700007716E+01  0.42011747327E+01  0.43156418254E+02  0.47787271797E+02  0.20000003433E+02 0.  0.
         12    1    1    2    0    0  0.18700007716E+01 -0.42011747327E+01 -0.43156418254E+02  0.43400728203E+02  0.00000000000E+00 0. -1.
         11    1    3    3    0    0  0.27422228962E+01 -0.31545049466E+01  0.19420001648E+01  0.46089101501E+01  0.51100000000E-03 0. -1.
        -11    1    3    3    0    0 -0.14699458043E+01  0.89180317380E+01  0.33596025253E+02  0.34790587000E+02  0.51100000000E-03 0.  1.
        -12    1    3    3    0    0 -0.31422778635E+01 -0.15623520588E+01  0.76183928364E+01  0.83877746475E+01  0.00000000000E+00 0.  1.
</event>
<event>
 7    1  0.3851772E-009  0.4778727E+02  0.7816164E-02  0.1312668E+00
        -11   -1    0    0    0    0  0.00000000000E+00  0.00000000000E+00  0.45593999997E+02  0.45594000000E+02  0.51100000000E-03 0.  1.
         11   -1    0    0    0    0 -0.00000000000E+00 -0.00000000000E+00 -0.45593999997E+02  0.45594000000E+02  0.51100000000E-03 0. -1.
    9900012    2    1    2    0    0  0.77107764253E+01 -0.12631174401E+02  0.40799764979E+02  0.47787268875E+02  0.19999990108E+02 0.  0.
         12    1    1    2    0    0 -0.77107764253E+01  0.12631174401E+02 -0.40799764979E+02  0.43400731125E+02  0.00000000000E+00 0. -1.
         11    1    3    3    0    0  0.35485820582E+01 -0.21811865860E+01 -0.34958851659E+00  0.41799787008E+01  0.51100000000E-03 0. -1.
        -11    1    3    3    0    0  0.62296157048E+01 -0.10098276063E+02  0.38112260042E+02  0.39916508578E+02  0.51100000000E-03 0.  1.
         12    1    3    3    0    0 -0.20674213377E+01 -0.35171175258E+00  0.30370934537E+01  0.36907815962E+01  0.00000000000E+00 0. -1.
</event>
<event>
 7    1  0.3851772E-009  0.4778726E+02  0.7816164E-02  0.1312668E+00
        -11   -1    0    0    0    0  0.00000000000E+00  0.00000000000E+00  0.45593999997E+02  0.45594000000E+02  0.51100000000E-03 0.  1.
         11   -1    0    0    0    0 -0.00000000000E+00 -0.00000000000E+00 -0.45593999997E+02  0.45594000000E+02  0.51100000000E-03 0. -1.
    9900012    2    1    2    0    0 -0.19254371283E+02  0.27052010332E+02  0.27947846783E+02  0.47787260187E+02  0.19999950498E+02 0.  0.
         12    1    1    2    0    0  0.19254371283E+02 -0.27052010332E+02 -0.27947846783E+02  0.43400739813E+02  0.00000000000E+00 0. -1.
         11    1    3    3    0    0 -0.64136958265E+01  0.44269014331E+01 -0.53606108455E+00  0.78115499231E+01  0.51100000000E-03 0. -1.
        -11    1    3    3    0    0 -0.14021055135E+02  0.18710584041E+02  0.26768196348E+02  0.35541697740E+02  0.51100000000E-03 0.  1.
        -12    1    3    3    0    0  0.11803796782E+01  0.39145248579E+01  0.17157115190E+01  0.44340125242E+01  0.00000000000E+00 0.  1.
</event>
<event>
 7    1  0.3851772E-009  0.4778724E+02  0.7816164E-02  0.1312668E+00
        -11   -1    0    0    0    0  0.00000000000E+00  0.00000000000E+00  0.45593999997E+02  0.45594000000E+02  0.51100000000E-03 0.  1.
         11   -1    0    0    0    0 -0.00000000000E+00 -0.00000000000E+00 -0.45593999997E+02  0.45594000000E+02  0.51100000000E-03 0. -1.
    9900012    2    1    2    0    0 -0.12275532368E+02 -0.18775782169E+02  0.37153828510E+02  0.47787243510E+02  0.19999874460E+02 0.  0.
         12    1    1    2    0    0  0.12275532368E+02  0.18775782169E+02 -0.37153828510E+02  0.43400756490E+02  0.00000000000E+00 0. -1.
         11    1    3    3    0    0  0.13824238189E+01 -0.46530743491E+00 -0.58980471266E+00  0.15733647016E+01  0.51100000000E-03 0. -1.
        -11    1    3    3    0    0 -0.49319226589E+01 -0.14931140055E+02  0.30730579946E+02  0.34520013739E+02  0.51100000000E-03 0.  1.
        -12    1    3    3    0    0 -0.87260335281E+01 -0.33793346785E+01  0.70130532758E+01  0.11693865069E+02  0.00000000000E+00 0.  1.
</event>
<event>
 7    1  0.3851772E-009  0.4778727E+02  0.7816164E-02  0.1312668E+00
        -11   -1    0    0    0    0  0.00000000000E+00  0.00000000000E+00  0.45593999997E+02  0.45594000000E+02  0.51100000000E-03 0.  1.
         11   -1    0    0    0    0 -0.00000000000E+00 -0.00000000000E+00 -0.45593999997E+02  0.45594000000E+02  0.51100000000E-03 0. -1.
    9900012    2    1    2    0    0 -0.26813974990E+02 -0.22325521996E+02  0.25810952433E+02  0.47787268985E+02  0.19999990609E+02 0.  0.
         12    1    1    2    0    0  0.26813974990E+02  0.22325521996E+02 -0.25810952433E+02  0.43400731015E+02  0.00000000000E+00 0. -1.
         11    1    3    3    0    0 -0.97008020591E+01 -0.73220982127E+01 -0.51169228082E+00  0.12164724086E+02  0.51100000000E-03 0. -1.
        -11    1    3    3    0    0 -0.63362165907E+01 -0.65627497550E+01  0.53428931764E+01  0.10571841504E+02  0.51100000000E-03 0.  1.
         12    1    3    3    0    0 -0.10776956340E+02 -0.84406740279E+01  0.20979751538E+02  0.25050703395E+02  0.00000000000E+00 0. -1.
</event>
<event>
 7    1  0.3851772E-009  0.4778726E+02  0.7816164E-02  0.1312668E+00
        -11   -1    0    0    0    0  0.00000000000E+00  0.00000000000E+00  0.45593999997E+02  0.45594000000E+02  0.51100000000E-03 0.  1.
         11   -1    0    0    0    0 -0.00000000000E+00 -0.00000000000E+00 -0.45593999997E+02  0.45594000000E+02  0.51100000000E-03 0. -1.
    9900012    2    1    2    0    0 -0.92524749685E+01  0.31912686330E+02  0.27921247208E+02  0.47787263975E+02  0.19999967770E+02 0.  0.
         12    1    1    2    0    0  0.92524749685E+01 -0.31912686330E+02 -0.27921247208E+02  0.43400736025E+02  0.00000000000E+00 0. -1.
         11    1    3    3    0    0  0.32626548637E+01  0.96210074831E+01  0.10131482508E+02  0.14347670188E+02  0.51100000000E-03 0. -1.
        -11    1    3    3    0    0 -0.11028881344E+02  0.16535289517E+02  0.18858869684E+02  0.27399069129E+02  0.51100000000E-03 0.  1.
        -12    1    3    3    0    0 -0.14862484884E+01  0.57563893299E+01 -0.10691049843E+01  0.60405246588E+01  0.00000000000E+00 0.  1.
</event>
<event>
 7    1  0.3851772E-009  0.4778723E+02  0.7816164E-02  0.1312668E+00
        -11   -1    0    0    0    0  0.00000000000E+00  0.00000000000E+00  0.45593999997E+02  0.45594000000E+02  0.51100000000E-03 0. -1.
         11   -1    0    0    0    0 -0.00000000000E+00 -0.00000000000E+00 -0.45593999997E+02  0.45594000000E+02  0.51100000000E-03 0.  1.
    9900012    2    1    2    0    0  0.12867358656E+02  0.37252198184E+02 -0.18175033923E+02  0.47787227583E+02  0.19999801841E+02 0.  0.
         12    1    1    2    0    0 -0.12867358656E+02 -0.37252198184E+02  0.18175033923E+02  0.43400772417E+02  0.00000000000E+00 0. -1.
         11    1    3    3    0    0  0.11687485303E+02  0.22476945829E+02 -0.16476271014E+02  0.30220488303E+02  0.51100000000E-03 0. -1.
        -11    1    3    3    0    0  0.16377652318E+01  0.76576842398E+01 -0.54185039983E+01  0.95227406093E+01  0.51100000000E-03 0.  1.
         12    1    3    3    0    0 -0.45789187901E+00  0.71175681146E+01  0.37197410888E+01  0.80439986702E+01  0.00000000000E+00 0. -1.
</event>
<event>
 7    1  0.3851772E-009  0.4778727E+02  0.7816164E-02  0.1312668E+00
        -11   -1    0    0    0    0  0.00000000000E+00  0.00000000000E+00  0.45593999997E+02  0.45594000000E+02  0.51100000000E-03 0.  1.
         11   -1    0    0    0    0 -0.00000000000E+00 -0.00000000000E+00 -0.45593999997E+02  0.45594000000E+02  0.51100000000E-03 0. -1.
    9900012    2    1    2    0    0 -0.33471697618E+02 -0.23242809957E+02  0.14934545145E+02  0.47787269651E+02  0.19999993647E+02 0.  0.
         12    1    1    2    0    0  0.33471697618E+02  0.23242809957E+02 -0.14934545145E+02  0.43400730349E+02  0.00000000000E+00 0. -1.
         11    1    3    3    0    0 -0.10436493557E+02  0.22088187733E+01  0.25442282227E+01  0.10966876294E+02  0.51100000000E-03 0. -1.
        -11    1    3    3    0    0 -0.19476083502E+02 -0.23789234793E+02  0.10990265266E+02  0.32650137082E+02  0.51100000000E-03 0.  1.
         12    1    3    3    0    0 -0.35591205588E+01 -0.16623939380E+01  0.14000516561E+01  0.41702562748E+01  0.00000000000E+00 0. -1.
</event>
<event>
 7    1  0.3851772E-009  0.4778727E+02  0.7816164E-02  0.1312668E+00
        -11   -1    0    0    0    0  0.00000000000E+00  0.00000000000E+00  0.45593999997E+02  0.45594000000E+02  0.51100000000E-03 0. -1.
         11   -1    0    0    0    0 -0.00000000000E+00 -0.00000000000E+00 -0.45593999997E+02  0.45594000000E+02  0.51100000000E-03 0.  1.
    9900012    2    1    2    0    0 -0.58284739354E+01  0.20389028491E+02 -0.37867396408E+02  0.47787270721E+02  0.19999998527E+02 0.  0.
         12    1    1    2    0    0  0.58284739354E+01 -0.20389028491E+02  0.37867396408E+02  0.43400729279E+02  0.00000000000E+00 0. -1.
         11    1    3    3    0    0  0.37269665723E+01  0.83799383219E+00 -0.11936970344E+01  0.40021777028E+01  0.51100000000E-03 0. -1.
        -11    1    3    3    0    0 -0.10232341973E+02  0.18028986657E+02 -0.27375962696E+02  0.34339314436E+02  0.51100000000E-03 0.  1.
         12    1    3    3    0    0  0.67690146529E+00  0.15220480020E+01 -0.92977366774E+01  0.94457785828E+01  0.00000000000E+00 0. -1.
</event>
<event>
 7    1  0.3851772E-009  0.4778727E+02  0.7816164E-02  0.1312668E+00
        -11   -1    0    0    0    0  0.00000000000E+00  0.00000000000E+00  0.45593999997E+02  0.45594000000E+02  0.51100000000E-03 0.  1.
         11   -1    0    0    0    0 -0.00000000000E+00 -0.00000000000E+00 -0.45593999997E+02  0.45594000000E+02  0.51100000000E-03 0. -1.
    9900012    2    1    2    0    0  0.32001902724E+02  0.39850483199E+00  0.29314545716E+02  0.47787272189E+02  0.20000005217E+02 0.  0.
         12    1    1    2    0    0 -0.32001902724E+02 -0.39850483199E+00 -0.29314545716E+02  0.43400727811E+02  0.00000000000E+00 0. -1.
         11    1    3    3    0    0  0.77977123064E+01 -0.18776231870E+01  0.17045167985E+02  0.18837928176E+02  0.51100000000E-03 0. -1.
        -11    1    3    3    0    0  0.24754973868E+02  0.10095332616E+01  0.11138237251E+02  0.27164097959E+02  0.51100000000E-03 0.  1.
        -12    1    3    3    0    0 -0.55078345058E+00  0.12665947573E+01  0.11311404794E+01  0.17852460539E+01  0.00000000000E+00 0.  1.
</event>
<event>
 7    1  0.3851772E-009  0.4778727E+02  0.7816164E-02  0.1312668E+00
        -11   -1    0    0    0    0  0.00000000000E+00  0.00000000000E+00  0.45593999997E+02  0.45594000000E+02  0.51100000000E-03 0.  1.
         11   -1    0    0    0    0 -0.00000000000E+00 -0.00000000000E+00 -0.45593999997E+02  0.45594000000E+02  0.51100000000E-03 0. -1.
    9900012    2    1    2    0    0 -0.21029938939E+02 -0.21282221344E+02  0.31439341640E+02  0.47787268671E+02  0.19999989179E+02 0.  0.
         12    1    1    2    0    0  0.21029938939E+02  0.21282221344E+02 -0.31439341640E+02  0.43400731329E+02  0.00000000000E+00 0. -1.
         11    1    3    3    0    0  0.12891615743E+00 -0.61792495832E+00  0.75097972635E-01  0.63568120656E+00  0.51100000000E-03 0. -1.
        -11    1    3    3    0    0 -0.15473438990E+01 -0.28926922321E+01 -0.25341067542E+01  0.41453152828E+01  0.51100000000E-03 0.  1.
        -12    1    3    3    0    0 -0.19611511197E+02 -0.17771604154E+02  0.33898350422E+02  0.43006272182E+02  0.00000000000E+00 0.  1.
</event>
<event>
 7    1  0.3851772E-009  0.4778727E+02  0.7816164E-02  0.1312668E+00
        -11   -1    0    0    0    0  0.00000000000E+00  0.00000000000E+00  0.45593999997E+02  0.45594000000E+02  0.51100000000E-03 0.  1.
         11   -1    0    0    0    0 -0.00000000000E+00 -0.00000000000E+00 -0.45593999997E+02  0.45594000000E+02  0.51100000000E-03 0. -1.
    9900012    2    1    2    0    0 -0.23550511289E+02 -0.34052700841E+02  0.13015766748E+02  0.47787271888E+02  0.20000003848E+02 0.  0.
         12    1    1    2    0    0  0.23550511289E+02  0.34052700841E+02 -0.13015766748E+02  0.43400728112E+02  0.00000000000E+00 0. -1.
         11    1    3    3    0    0  0.45881221896E-01 -0.40294624178E+01 -0.75723100108E+00  0.41002526158E+01  0.51100000000E-03 0. -1.
        -11    1    3    3    0    0 -0.78415102398E+01 -0.33577691453E+00  0.27529056531E+01  0.83174827186E+01  0.51100000000E-03 0.  1.
        -12    1    3    3    0    0 -0.15754882271E+02 -0.29687461509E+02  0.11020092096E+02  0.35369536554E+02  0.00000000000E+00 0.  1.
</event>
<event>
 7    1  0.3851772E-009  0.4778727E+02  0.7816164E-02  0.1312668E+00
        -11   -1    0    0    0    0  0.00000000000E+00  0.00000000000E+00  0.45593999997E+02  0.45594000000E+02  0.51100000000E-03 0.  1.
         11   -1    0    0    0    0 -0.00000000000E+00 -0.00000000000E+00 -0.45593999997E+02  0.45594000000E+02  0.51100000000E-03 0. -1.
    9900012    2    1    2    0    0  0.35498346848E+02  0.24929526802E+02  0.14176266200E+01  0.47787267279E+02  0.19999982831E+02 0.  0.
         12    1    1    2    0    0 -0.35498346848E+02 -0.24929526802E+02 -0.14176266200E+01  0.43400732721E+02  0.00000000000E+00 0. -1.
         11    1    3    3    0    0  0.33390730795E+01  0.10872088016E+02  0.34249415134E+01  0.11877791524E+02  0.51100000000E-03 0. -1.
        -11    1    3    3    0    0  0.22230661779E+02  0.58937327244E+01 -0.13983051695E+01  0.23041129880E+02  0.51100000000E-03 0.  1.
         12    1    3    3    0    0  0.99286119900E+01  0.81637060616E+01 -0.60900972394E+00  0.12868345875E+02  0.00000000000E+00 0. -1.
</event>
<event>
 7    1  0.3851772E-009  0.4778727E+02  0.7816164E-02  0.1312668E+00
        -11   -1    0    0    0    0  0.00000000000E+00  0.00000000000E+00  0.45593999997E+02  0.45594000000E+02  0.51100000000E-03 0.  1.
         11   -1    0    0    0    0 -0.00000000000E+00 -0.00000000000E+00 -0.45593999997E+02  0.45594000000E+02  0.51100000000E-03 0. -1.
    9900012    2    1    2    0    0  0.38661846192E+02 -0.12267265679E+02  0.15440190023E+02  0.47787266986E+02  0.19999981495E+02 0.  0.
         12    1    1    2    0    0 -0.38661846192E+02  0.12267265679E+02 -0.15440190023E+02  0.43400733014E+02  0.00000000000E+00 0. -1.
         11    1    3    3    0    0  0.24389764030E+02 -0.72585582194E+01  0.16665236441E+02  0.30418372125E+02  0.51100000000E-03 0. -1.
        -11    1    3    3    0    0  0.14245854344E+02 -0.51988612627E+01 -0.31047583673E+01  0.15479407263E+02  0.51100000000E-03 0.  1.
         12    1    3    3    0    0  0.26227817661E-01  0.19015380286E+00  0.18797119499E+01  0.18894875977E+01  0.00000000000E+00 0. -1.
</event>
<event>
 7    1  0.3851772E-009  0.4778727E+02  0.7816164E-02  0.1312668E+00
        -11   -1    0    0    0    0  0.00000000000E+00  0.00000000000E+00  0.45593999997E+02  0.45594000000E+02  0.51100000000E-03 0. -1.
         11   -1    0    0    0    0 -0.00000000000E+00 -0.00000000000E+00 -0.45593999997E+02  0.45594000000E+02  0.51100000000E-03 0.  1.
    9900012    2    1    2    0    0  0.56682698044E+01  0.42826585269E+02  0.41686217299E+01  0.47787273099E+02  0.20000009368E+02 0.  0.
         12    1    1    2    0    0 -0.56682698044E+01 -0.42826585269E+02 -0.41686217299E+01  0.43400726901E+02  0.00000000000E+00 0. -1.
         11    1    3    3    0    0  0.44216511747E+01  0.61662103457E+01  0.61815872638E+01  0.97869898589E+01  0.51100000000E-03 0. -1.
        -11    1    3    3    0    0  0.65635481969E+00  0.11292412657E+02 -0.51567095934E+01  0.12431453630E+02  0.51100000000E-03 0.  1.
         12    1    3    3    0    0  0.59026380995E+00  0.25367962266E+02  0.31437440595E+01  0.25568829610E+02  0.00000000000E+00 0. -1.
</event>
<event>
 7    1  0.3851772E-009  0.4778727E+02  0.7816164E-02  0.1312668E+00
        -11   -1    0    0    0    0  0.00000000000E+00  0.00000000000E+00  0.45593999997E+02  0.45594000000E+02  0.51100000000E-03 0.  1.
         11   -1    0    0    0    0 -0.00000000000E+00 -0.00000000000E+00 -0.45593999997E+02  0.45594000000E+02  0.51100000000E-03 0. -1.
    9900012    2    1    2    0    0  0.90084043243E+01 -0.42299267676E+02  0.36392002312E+01  0.47787272210E+02  0.20000005312E+02 0.  0.
         12    1    1    2    0    0 -0.90084043243E+01  0.42299267676E+02 -0.36392002312E+01  0.43400727790E+02  0.00000000000E+00 0. -1.
         11    1    3    3    0    0  0.21239509551E+01 -0.46698137117E+01 -0.63901443449E+01  0.81946490329E+01  0.51100000000E-03 0. -1.
        -11    1    3    3    0    0  0.42434663705E+01 -0.27021201528E+02  0.76940595986E+01  0.28413920748E+02  0.51100000000E-03 0.  1.
         12    1    3    3    0    0  0.26409869986E+01 -0.10608252436E+02  0.23352849776E+01  0.11178702429E+02  0.00000000000E+00 0. -1.
</event>
<event>
 7    1  0.3851772E-009  0.4778727E+02  0.7816164E-02  0.1312668E+00
        -11   -1    0    0    0    0  0.00000000000E+00  0.00000000000E+00  0.45593999997E+02  0.45594000000E+02  0.51100000000E-03 0.  1.
         11   -1    0    0    0    0 -0.00000000000E+00 -0.00000000000E+00 -0.45593999997E+02  0.45594000000E+02  0.51100000000E-03 0. -1.
    9900012    2    1    2    0    0  0.31245601597E+02  0.22534810440E+01  0.30037597297E+02  0.47787273654E+02  0.20000011900E+02 0.  0.
         12    1    1    2    0    0 -0.31245601597E+02 -0.22534810440E+01 -0.30037597297E+02  0.43400726346E+02  0.00000000000E+00 0. -1.
         11    1    3    3    0    0 -0.82443370556E+00  0.29123466397E+01  0.35105527232E+01  0.46352383507E+01  0.51100000000E-03 0. -1.
        -11    1    3    3    0    0  0.27511460042E+02 -0.27812924027E+01  0.17225006917E+02  0.32577858810E+02  0.51100000000E-03 0.  1.
        -12    1    3    3    0    0  0.45585752598E+01  0.21224268070E+01  0.93020376566E+01  0.10574176493E+02  0.00000000000E+00 0.  1.
</event>
<event>
 7    1  0.3851772E-009  0.4778727E+02  0.7816164E-02  0.1312668E+00
        -11   -1    0    0    0    0  0.00000000000E+00  0.00000000000E+00  0.45593999997E+02  0.45594000000E+02  0.51100000000E-03 0. -1.
         11   -1    0    0    0    0 -0.00000000000E+00 -0.00000000000E+00 -0.45593999997E+02  0.45594000000E+02  0.51100000000E-03 0.  1.
    9900012    2    1    2    0    0 -0.24843645327E+02  0.22224213931E+02 -0.27793894678E+02  0.47787274438E+02  0.20000015472E+02 0.  0.
         12    1    1    2    0    0  0.24843645327E+02 -0.22224213931E+02  0.27793894678E+02  0.43400725562E+02  0.00000000000E+00 0. -1.
         11    1    3    3    0    0 -0.10215870858E+02  0.39953661783E+01 -0.90180493200E+01  0.14200428940E+02  0.51100000000E-03 0. -1.
        -11    1    3    3    0    0 -0.91419891925E+01  0.18520794589E+02 -0.19034093567E+02  0.28087230493E+02  0.51100000000E-03 0.  1.
        -12    1    3    3    0    0 -0.54857852765E+01 -0.29194683666E+00  0.25824820962E+00  0.54996150041E+01  0.00000000000E+00 0.  1.
</event>
<event>
 7    1  0.3851772E-009  0.4778727E+02  0.7816164E-02  0.1312668E+00
        -11   -1    0    0    0    0  0.00000000000E+00  0.00000000000E+00  0.45593999997E+02  0.45594000000E+02  0.51100000000E-03 0.  1.
         11   -1    0    0    0    0 -0.00000000000E+00 -0.00000000000E+00 -0.45593999997E+02  0.45594000000E+02  0.51100000000E-03 0. -1.
    9900012    2    1    2    0    0  0.70147366793E+01  0.99100000724E+01  0.41667837427E+02  0.47787270652E+02  0.19999998210E+02 0.  0.
         12    1    1    2    0    0 -0.70147366793E+01 -0.99100000724E+01 -0.41667837427E+02  0.43400729348E+02  0.00000000000E+00 0. -1.
         11    1    3    3    0    0  0.15692681388E+01 -0.14635808883E+01  0.27697999101E+00  0.21636519324E+01  0.51100000000E-03 0. -1.
        -11    1    3    3    0    0  0.74766186306E+01  0.13714680572E+02  0.37675324178E+02  0.40785074985E+02  0.51100000000E-03 0.  1.
        -12    1    3    3    0    0 -0.20311500900E+01 -0.23410996117E+01  0.37155332578E+01  0.48385437344E+01  0.00000000000E+00 0.  1.
</event>
<event>
 7    1  0.3851772E-009  0.4778727E+02  0.7816164E-02  0.1312668E+00
        -11   -1    0    0    0    0  0.00000000000E+00  0.00000000000E+00  0.45593999997E+02  0.45594000000E+02  0.51100000000E-03 0.  1.
         11   -1    0    0    0    0 -0.00000000000E+00 -0.00000000000E+00 -0.45593999997E+02  0.45594000000E+02  0.51100000000E-03 0. -1.
    9900012    2    1    2    0    0 -0.27083209502E+02  0.10834757367E+02  0.32136131328E+02  0.47787272577E+02  0.20000006990E+02 0.  0.
         12    1    1    2    0    0  0.27083209502E+02 -0.10834757367E+02 -0.32136131328E+02  0.43400727423E+02  0.00000000000E+00 0. -1.
         11    1    3    3    0    0 -0.17100736320E+02  0.95589732166E+01  0.25339895967E+02  0.32029977826E+02  0.51100000000E-03 0. -1.
        -11    1    3    3    0    0 -0.27633601990E+01  0.43595482000E+01  0.59265077777E+01  0.78590912196E+01  0.51100000000E-03 0.  1.
         12    1    3    3    0    0 -0.72191129823E+01 -0.30837640500E+01  0.86972758328E+00  0.78982035322E+01  0.00000000000E+00 0. -1.
</event>
<event>
 7    1  0.3851772E-009  0.4778727E+02  0.7816164E-02  0.1312668E+00
        -11   -1    0    0    0    0  0.00000000000E+00  0.00000000000E+00  0.45593999997E+02  0.45594000000E+02  0.51100000000E-03 0. -1.
         11   -1    0    0    0    0 -0.00000000000E+00 -0.00000000000E+00 -0.45593999997E+02  0.45594000000E+02  0.51100000000E-03 0.  1.
    9900012    2    1    2    0    0  0.98013674171E+01  0.26920267806E+02 -0.32601464873E+02  0.47787272658E+02  0.20000007356E+02 0.  0.
         12    1    1    2    0    0 -0.98013674171E+01 -0.26920267806E+02  0.32601464873E+02  0.43400727342E+02  0.00000000000E+00 0. -1.
         11    1    3    3    0    0  0.91919603269E+01  0.27639258706E+01 -0.68315901092E+01  0.11781427950E+02  0.51100000000E-03 0. -1.
        -11    1    3    3    0    0 -0.12726806530E+01  0.19260167042E+02 -0.16678357990E+02  0.25509633005E+02  0.51100000000E-03 0.  1.
        -12    1    3    3    0    0  0.18820877432E+01  0.48961748929E+01 -0.90915167739E+01  0.10496211703E+02  0.00000000000E+00 0.  1.
</event>
<event>
 7    1  0.3851772E-009  0.4778727E+02  0.7816164E-02  0.1312668E+00
        -11   -1    0    0    0    0  0.00000000000E+00  0.00000000000E+00  0.45593999997E+02  0.45594000000E+02  0.51100000000E-03 0. -1.
         11   -1    0    0    0    0 -0.00000000000E+00 -0.00000000000E+00 -0.45593999997E+02  0.45594000000E+02  0.51100000000E-03 0.  1.
    9900012    2    1    2    0    0  0.13979195701E+02  0.38625518748E+01 -0.40905815864E+02  0.47787274304E+02  0.20000014861E+02 0.  0.
         12    1    1    2    0    0 -0.13979195701E+02 -0.38625518748E+01  0.40905815864E+02  0.43400725696E+02  0.00000000000E+00 0. -1.
         11    1    3    3    0    0  0.54986606822E+01  0.55402003587E+01 -0.82724439704E+01  0.11373760100E+02  0.51100000000E-03 0. -1.
        -11    1    3    3    0    0 -0.29879331152E+01  0.11284679223E+01 -0.13959485262E+02  0.14320209956E+02  0.51100000000E-03 0.  1.
        -12    1    3    3    0    0  0.11468468134E+02 -0.28061164061E+01 -0.18673886632E+02  0.22093304248E+02  0.00000000000E+00 0.  1.
</event>
<event>
 7    1  0.3851772E-009  0.4778727E+02  0.7816164E-02  0.1312668E+00
        -11   -1    0    0    0    0  0.00000000000E+00  0.00000000000E+00  0.45593999997E+02  0.45594000000E+02  0.51100000000E-03 0.  1.
         11   -1    0    0    0    0 -0.00000000000E+00 -0.00000000000E+00 -0.45593999997E+02  0.45594000000E+02  0.51100000000E-03 0. -1.
    9900012    2    1    2    0    0  0.16852023207E+02  0.31546552530E+02  0.24585514533E+02  0.47787272039E+02  0.20000004533E+02 0.  0.
         12    1    1    2    0    0 -0.16852023207E+02 -0.31546552530E+02 -0.24585514533E+02  0.43400727961E+02  0.00000000000E+00 0. -1.
         11    1    3    3    0    0 -0.22904536697E+01 -0.17741017919E+00  0.12350372668E+01  0.26082503132E+01  0.51100000000E-03 0. -1.
        -11    1    3    3    0    0  0.14283714682E+02  0.18074191888E+02  0.88438601434E+01  0.24676198654E+02  0.51100000000E-03 0.  1.
        -12    1    3    3    0    0  0.48587621950E+01  0.13649770821E+02  0.14506617123E+02  0.20502823071E+02  0.00000000000E+00 0.  1.
</event>
<event>
 7    1  0.3851772E-009  0.4778729E+02  0.7816164E-02  0.1312668E+00
        -11   -1    0    0    0    0  0.00000000000E+00  0.00000000000E+00  0.45593999997E+02  0.45594000000E+02  0.51100000000E-03 0.  1.
         11   -1    0    0    0    0 -0.00000000000E+00 -0.00000000000E+00 -0.45593999997E+02  0.45594000000E+02  0.51100000000E-03 0. -1.
    9900012    2    1    2    0    0 -0.22611347633E+02  0.73849484461E+01  0.36301673930E+02  0.47787285312E+02  0.20000065051E+02 0.  0.
         12    1    1    2    0    0  0.22611347633E+02 -0.73849484461E+01 -0.36301673930E+02  0.43400714688E+02  0.00000000000E+00 0. -1.
         11    1    3    3    0    0 -0.37547327754E+00  0.16452173676E+01  0.46783061392E+01  0.49733559054E+01  0.51100000000E-03 0. -1.
        -11    1    3    3    0    0 -0.41497354287E+01  0.27471856152E+01  0.21094121880E+02  0.21673239516E+02  0.51100000000E-03 0.  1.
        -12    1    3    3    0    0 -0.18086138927E+02  0.29925454633E+01  0.10529245910E+02  0.21140689891E+02  0.00000000000E+00 0.  1.
</event>
<event>
 7    1  0.3851772E-009  0.4778722E+02  0.7816164E-02  0.1312668E+00
        -11   -1    0    0    0    0  0.00000000000E+00  0.00000000000E+00  0.45593999997E+02  0.45594000000E+02  0.51100000000E-03 0. -1.
         11   -1    0    0    0    0 -0.00000000000E+00 -0.00000000000E+00 -0.45593999997E+02  0.45594000000E+02  0.51100000000E-03 0.  1.
    9900012    2    1    2    0    0 -0.12483518871E+02  0.24489714596E+02 -0.33586361976E+02  0.47787215731E+02  0.19999747802E+02 0.  0.
         12    1    1    2    0    0  0.12483518871E+02 -0.24489714596E+02  0.33586361976E+02  0.43400784269E+02  0.00000000000E+00 0. -1.
         11    1    3    3    0    0 -0.48294681380E+01  0.22368070014E+02 -0.30310715522E+02  0.37978859835E+02  0.51100000000E-03 0. -1.
        -11    1    3    3    0    0 -0.60918891579E+01  0.16163198252E+01 -0.45135294931E+01  0.77521320962E+01  0.51100000000E-03 0.  1.
         12    1    3    3    0    0 -0.15621615755E+01  0.50532475591E+00  0.12378830387E+01  0.20562237997E+01  0.00000000000E+00 0. -1.
</event>
<event>
 7    1  0.3851772E-009  0.4778727E+02  0.7816164E-02  0.1312668E+00
        -11   -1    0    0    0    0  0.00000000000E+00  0.00000000000E+00  0.45593999997E+02  0.45594000000E+02  0.51100000000E-03 0.  1.
         11   -1    0    0    0    0 -0.00000000000E+00 -0.00000000000E+00 -0.45593999997E+02  0.45594000000E+02  0.51100000000E-03 0. -1.
    9900012    2    1    2    0    0  0.12089813444E+02 -0.61738696699E+01  0.41223090899E+02  0.47787268680E+02  0.19999989220E+02 0.  0.
         12    1    1    2    0    0 -0.12089813444E+02  0.61738696699E+01 -0.41223090899E+02  0.43400731320E+02  0.00000000000E+00 0. -1.
         11    1    3    3    0    0  0.11096936666E+02 -0.13844855257E+01  0.27306284804E+02  0.29507490466E+02  0.51100000000E-03 0. -1.
        -11    1    3    3    0    0  0.71816619820E-01 -0.80556653467E+01  0.74314961483E+01  0.10960202419E+02  0.51100000000E-03 0.  1.
        -12    1    3    3    0    0  0.92106015836E+00  0.32662812025E+01  0.64853099466E+01  0.73195757945E+01  0.00000000000E+00 0.  1.
</event>
<event>
 7    1  0.3851772E-009  0.4778727E+02  0.7816164E-02  0.1312668E+00
        -11   -1    0    0    0    0  0.00000000000E+00  0.00000000000E+00  0.45593999997E+02  0.45594000000E+02  0.51100000000E-03 0. -1.
         11   -1    0    0    0    0 -0.00000000000E+00 -0.00000000000E+00 -0.45593999997E+02  0.45594000000E+02  0.51100000000E-03 0.  1.
    9900012    2    1    2    0    0 -0.14539559033E+02 -0.27966180286E+02 -0.29834831937E+02  0.47787271742E+02  0.20000003180E+02 0.  0.
         12    1    1    2    0    0  0.14539559033E+02  0.27966180286E+02  0.29834831937E+02  0.43400728258E+02  0.00000000000E+00 0. -1.
         11    1    3    3    0    0  0.44134156417E+01 -0.28176383162E+01 -0.67133625453E+01  0.85139039361E+01  0.51100000000E-03 0. -1.
        -11    1    3    3    0    0 -0.13896153998E+02 -0.15283442180E+02 -0.14758180678E+02  0.25386819375E+02  0.51100000000E-03 0.  1.
         12    1    3    3    0    0 -0.50568206773E+01 -0.98650997892E+01 -0.83632887129E+01  0.13886548430E+02  0.00000000000E+00 0. -1.
</event>
<event>
 7    1  0.3851772E-009  0.4778727E+02  0.7816164E-02  0.1312668E+00
        -11   -1    0    0    0    0  0.00000000000E+00  0.00000000000E+00  0.45593999997E+02  0.45594000000E+02  0.51100000000E-03 0. -1.
         11   -1    0    0    0    0 -0.00000000000E+00 -0.00000000000E+00 -0.45593999997E+02  0.45594000000E+02  0.51100000000E-03 0.  1.
    9900012    2    1    2    0    0  0.42502496206E+02  0.16071166208E+01 -0.86358739155E+01  0.47787270446E+02  0.19999997269E+02 0.  0.
         12    1    1    2    0    0 -0.42502496206E+02 -0.16071166208E+01  0.86358739155E+01  0.43400729554E+02  0.00000000000E+00 0. -1.
         11    1    3    3    0    0  0.46641289848E+01  0.53678794294E+01 -0.21124998482E+01  0.74182804359E+01  0.51100000000E-03 0. -1.
        -11    1    3    3    0    0  0.22126643961E+02 -0.37813473874E+01  0.19251229056E+01  0.22529825999E+02  0.51100000000E-03 0.  1.
        -12    1    3    3    0    0  0.15711723260E+02  0.20584578846E-01 -0.84484969728E+01  0.17839164011E+02  0.00000000000E+00 0.  1.
</event>
<event>
 7    1  0.3851772E-009  0.4778727E+02  0.7816164E-02  0.1312668E+00
        -11   -1    0    0    0    0  0.00000000000E+00  0.00000000000E+00  0.45593999997E+02  0.45594000000E+02  0.51100000000E-03 0.  1.
         11   -1    0    0    0    0 -0.00000000000E+00 -0.00000000000E+00 -0.45593999997E+02  0.45594000000E+02  0.51100000000E-03 0. -1.
    9900012    2    1    2    0    0 -0.37331984257E+02 -0.14653669091E+02  0.16589634491E+02  0.47787273751E+02  0.20000012338E+02 0.  0.
         12    1    1    2    0    0  0.37331984257E+02  0.14653669091E+02 -0.16589634491E+02  0.43400726249E+02  0.00000000000E+00 0. -1.
         11    1    3    3    0    0 -0.13299973237E+02 -0.66639894137E+01  0.40674823312E+01  0.15422141738E+02  0.51100000000E-03 0. -1.
        -11    1    3    3    0    0 -0.10429269623E+02 -0.11412564838E+02  0.90529613966E+01  0.17915702927E+02  0.51100000000E-03 0.  1.
        -12    1    3    3    0    0 -0.13602741398E+02  0.34228851608E+01  0.34691907635E+01  0.14449429086E+02  0.00000000000E+00 0.  1.
</event>
<event>
 7    1  0.3851772E-009  0.4778727E+02  0.7816164E-02  0.1312668E+00
        -11   -1    0    0    0    0  0.00000000000E+00  0.00000000000E+00  0.45593999997E+02  0.45594000000E+02  0.51100000000E-03 0.  1.
         11   -1    0    0    0    0 -0.00000000000E+00 -0.00000000000E+00 -0.45593999997E+02  0.45594000000E+02  0.51100000000E-03 0. -1.
    9900012    2    1    2    0    0  0.20936336096E+02  0.33337788800E+02  0.18272509992E+02  0.47787274746E+02  0.20000016876E+02 0.  0.
         12    1    1    2    0    0 -0.20936336096E+02 -0.33337788800E+02 -0.18272509992E+02  0.43400725254E+02  0.00000000000E+00 0. -1.
         11    1    3    3    0    0  0.42608881574E+01  0.14683963862E+00  0.17428791702E+01  0.46059046703E+01  0.51100000000E-03 0. -1.
        -11    1    3    3    0    0  0.10920781609E+02  0.23625808597E+02  0.38877792263E+01  0.26316480205E+02  0.51100000000E-03 0.  1.
        -12    1    3    3    0    0  0.57546663292E+01  0.95651405643E+01  0.12641851596E+02  0.16864889870E+02  0.00000000000E+00 0.  1.
</event>
<event>
 7    1  0.3851772E-009  0.4778727E+02  0.7816164E-02  0.1312668E+00
        -11   -1    0    0    0    0  0.00000000000E+00  0.00000000000E+00  0.45593999997E+02  0.45594000000E+02  0.51100000000E-03 0.  1.
         11   -1    0    0    0    0 -0.00000000000E+00 -0.00000000000E+00 -0.45593999997E+02  0.45594000000E+02  0.51100000000E-03 0. -1.
    9900012    2    1    2    0    0 -0.26280696734E+02 -0.27961220493E+02  0.20276054881E+02  0.47787271045E+02  0.20000000003E+02 0.  0.
         12    1    1    2    0    0  0.26280696734E+02  0.27961220493E+02 -0.20276054881E+02  0.43400728955E+02  0.00000000000E+00 0. -1.
         11    1    3    3    0    0 -0.13259937173E+01 -0.52621957038E+01  0.10401585872E+02  0.11732090686E+02  0.51100000000E-03 0. -1.
        -11    1    3    3    0    0 -0.78072575898E+01 -0.10032704608E+02  0.38007094237E+00  0.12718210842E+02  0.51100000000E-03 0.  1.
         12    1    3    3    0    0 -0.17147445427E+02 -0.12666320181E+02  0.94943980671E+01  0.23336969517E+02  0.00000000000E+00 0. -1.
</event>
<event>
 7    1  0.3851772E-009  0.4778727E+02  0.7816164E-02  0.1312668E+00
        -11   -1    0    0    0    0  0.00000000000E+00  0.00000000000E+00  0.45593999997E+02  0.45594000000E+02  0.51100000000E-03 0.  1.
         11   -1    0    0    0    0 -0.00000000000E+00 -0.00000000000E+00 -0.45593999997E+02  0.45594000000E+02  0.51100000000E-03 0. -1.
    9900012    2    1    2    0    0  0.41141909403E+02  0.13743074421E+02 -0.14472298651E+01  0.47787270995E+02  0.19999999775E+02 0.  0.
         12    1    1    2    0    0 -0.41141909403E+02 -0.13743074421E+02  0.14472298651E+01  0.43400729005E+02  0.00000000000E+00 0. -1.
         11    1    3    3    0    0  0.13429891811E+02  0.45632309092E+01 -0.93145243970E+01  0.16968955047E+02  0.51100000000E-03 0. -1.
        -11    1    3    3    0    0  0.18109732296E+02  0.38557347830E+01  0.28011159305E+01  0.18726327597E+02  0.51100000000E-03 0.  1.
        -12    1    3    3    0    0  0.96022852965E+01  0.53241087283E+01  0.50661786014E+01  0.12091988351E+02  0.00000000000E+00 0.  1.
</event>
<event>
 7    1  0.3851772E-009  0.4778728E+02  0.7816164E-02  0.1312668E+00
        -11   -1    0    0    0    0  0.00000000000E+00  0.00000000000E+00  0.45593999997E+02  0.45594000000E+02  0.51100000000E-03 0.  1.
         11   -1    0    0    0    0 -0.00000000000E+00 -0.00000000000E+00 -0.45593999997E+02  0.45594000000E+02  0.51100000000E-03 0. -1.
    9900012    2    1    2    0    0 -0.30746610477E+02  0.29873912525E+02  0.67688784561E+01  0.47787280870E+02  0.20000044800E+02 0.  0.
         12    1    1    2    0    0  0.30746610477E+02 -0.29873912525E+02 -0.67688784561E+01  0.43400719130E+02  0.00000000000E+00 0. -1.
         11    1    3    3    0    0 -0.31024429821E+01  0.51082015418E+01 -0.60388037702E+01  0.84962360304E+01  0.51100000000E-03 0. -1.
        -11    1    3    3    0    0 -0.14178386271E+02  0.13681009337E+02  0.69378178926E+01  0.20888512898E+02  0.51100000000E-03 0.  1.
         12    1    3    3    0    0 -0.13465781224E+02  0.11084701647E+02  0.58698643336E+01  0.18402531942E+02  0.00000000000E+00 0. -1.
</event>
<event>
 7    1  0.3851772E-009  0.4778727E+02  0.7816164E-02  0.1312668E+00
        -11   -1    0    0    0    0  0.00000000000E+00  0.00000000000E+00  0.45593999997E+02  0.45594000000E+02  0.51100000000E-03 0.  1.
         11   -1    0    0    0    0 -0.00000000000E+00 -0.00000000000E+00 -0.45593999997E+02  0.45594000000E+02  0.51100000000E-03 0. -1.
    9900012    2    1    2    0    0  0.21561010581E+02  0.30789255135E+02  0.21697183921E+02  0.47787271906E+02  0.20000003928E+02 0.  0.
         12    1    1    2    0    0 -0.21561010581E+02 -0.30789255135E+02 -0.21697183921E+02  0.43400728094E+02  0.00000000000E+00 0. -1.
         11    1    3    3    0    0  0.30622835770E+01  0.13527440498E+01  0.48135745787E+01  0.58632753352E+01  0.51100000000E-03 0. -1.
        -11    1    3    3    0    0  0.70017947660E+01  0.15143151247E+01 -0.31974744618E+00  0.71708102006E+01  0.51100000000E-03 0.  1.
        -12    1    3    3    0    0  0.11496932238E+02  0.27922195960E+02  0.17203356788E+02  0.34753186370E+02  0.00000000000E+00 0.  1.
</event>
<event>
 7    1  0.3851772E-009  0.4778727E+02  0.7816164E-02  0.1312668E+00
        -11   -1    0    0    0    0  0.00000000000E+00  0.00000000000E+00  0.45593999997E+02  0.45594000000E+02  0.51100000000E-03 0.  1.
         11   -1    0    0    0    0 -0.00000000000E+00 -0.00000000000E+00 -0.45593999997E+02  0.45594000000E+02  0.51100000000E-03 0. -1.
    9900012    2    1    2    0    0 -0.31847872323E+02 -0.34810124199E+00  0.29482463047E+02  0.47787265291E+02  0.19999973769E+02 0.  0.
         12    1    1    2    0    0  0.31847872323E+02  0.34810124199E+00 -0.29482463047E+02  0.43400734709E+02  0.00000000000E+00 0. -1.
         11    1    3    3    0    0 -0.12203770684E+02 -0.43129784087E+01  0.25466915276E+01  0.13191642796E+02  0.51100000000E-03 0. -1.
        -11    1    3    3    0    0 -0.20239973001E+02  0.31470287808E+01  0.24353789664E+02  0.31822434987E+02  0.51100000000E-03 0.  1.
        -12    1    3    3    0    0  0.59587136153E+00  0.81784838586E+00  0.25819818547E+01  0.27731875089E+01  0.00000000000E+00 0.  1.
</event>
<event>
 7    1  0.3851772E-009  0.4778728E+02  0.7816164E-02  0.1312668E+00
        -11   -1    0    0    0    0  0.00000000000E+00  0.00000000000E+00  0.45593999997E+02  0.45594000000E+02  0.51100000000E-03 0. -1.
         11   -1    0    0    0    0 -0.00000000000E+00 -0.00000000000E+00 -0.45593999997E+02  0.45594000000E+02  0.51100000000E-03 0.  1.
    9900012    2    1    2    0    0 -0.29612169507E+02  0.21060019344E+02 -0.23732208959E+02  0.47787277198E+02  0.20000028056E+02 0.  0.
         12    1    1    2    0    0  0.29612169507E+02 -0.21060019344E+02  0.23732208959E+02  0.43400722802E+02  0.00000000000E+00 0. -1.
         11    1    3    3    0    0 -0.91200324900E-01 -0.13627194598E+01  0.12135546090E+01  0.18270295224E+01  0.51100000000E-03 0. -1.
        -11    1    3    3    0    0 -0.28659189494E+02  0.23156753436E+02 -0.25387678288E+02  0.44745039739E+02  0.51100000000E-03 0.  1.
        -12    1    3    3    0    0 -0.86177968741E+00 -0.73401463180E+00  0.44191471938E+00  0.12152079363E+01  0.00000000000E+00 0.  1.
</event>
<event>
 7    1  0.3851772E-009  0.4778727E+02  0.7816164E-02  0.1312668E+00
        -11   -1    0    0    0    0  0.00000000000E+00  0.00000000000E+00  0.45593999997E+02  0.45594000000E+02  0.51100000000E-03 0.  1.
         11   -1    0    0    0    0 -0.00000000000E+00 -0.00000000000E+00 -0.45593999997E+02  0.45594000000E+02  0.51100000000E-03 0. -1.
    9900012    2    1    2    0    0 -0.15568857496E+02 -0.39317848407E+02 -0.97642489317E+01  0.47787273228E+02  0.20000009958E+02 0.  0.
         12    1    1    2    0    0  0.15568857496E+02  0.39317848407E+02  0.97642489317E+01  0.43400726772E+02  0.00000000000E+00 0. -1.
         11    1    3    3    0    0 -0.26338919820E+01 -0.35700471027E+01  0.43336097856E+01  0.62018382213E+01  0.51100000000E-03 0. -1.
        -11    1    3    3    0    0 -0.10927263492E+02 -0.35110862296E+02 -0.12179666498E+02  0.38736572058E+02  0.51100000000E-03 0.  1.
         12    1    3    3    0    0 -0.20077020223E+01 -0.63693900880E+00 -0.19181922196E+01  0.28488629491E+01  0.00000000000E+00 0. -1.
</event>
<event>
 7    1  0.3851772E-009  0.4778727E+02  0.7816164E-02  0.1312668E+00
        -11   -1    0    0    0    0  0.00000000000E+00  0.00000000000E+00  0.45593999997E+02  0.45594000000E+02  0.51100000000E-03 0. -1.
         11   -1    0    0    0    0 -0.00000000000E+00 -0.00000000000E+00 -0.45593999997E+02  0.45594000000E+02  0.51100000000E-03 0.  1.
    9900012    2    1    2    0    0 -0.32344339712E+02  0.15841872546E+02 -0.24217800615E+02  0.47787273004E+02  0.20000008936E+02 0.  0.
         12    1    1    2    0    0  0.32344339712E+02 -0.15841872546E+02  0.24217800615E+02  0.43400726996E+02  0.00000000000E+00 0. -1.
         11    1    3    3    0    0 -0.23937202642E+02  0.15020154831E+02 -0.12659119471E+02  0.30965271313E+02  0.51100000000E-03 0.  1.
        -11    1    3    3    0    0 -0.90130027551E+01 -0.36376020578E+00 -0.12334652333E+02  0.15281040167E+02  0.51100000000E-03 0. -1.
        -12    1    3    3    0    0  0.60586568547E+00  0.11854779212E+01  0.77597118963E+00  0.15409615237E+01  0.00000000000E+00 0.  1.
</event>
<event>
 7    1  0.3851772E-009  0.4778727E+02  0.7816164E-02  0.1312668E+00
        -11   -1    0    0    0    0  0.00000000000E+00  0.00000000000E+00  0.45593999997E+02  0.45594000000E+02  0.51100000000E-03 0.  1.
         11   -1    0    0    0    0 -0.00000000000E+00 -0.00000000000E+00 -0.45593999997E+02  0.45594000000E+02  0.51100000000E-03 0. -1.
    9900012    2    1    2    0    0  0.17705976948E+01 -0.26254960964E+02  0.34513262508E+02  0.47787270970E+02  0.19999999660E+02 0.  0.
         12    1    1    2    0    0 -0.17705976948E+01  0.26254960964E+02 -0.34513262508E+02  0.43400729030E+02  0.00000000000E+00 0. -1.
         11    1    3    3    0    0  0.18743483403E+01 -0.15750842954E+02  0.99351641022E+01  0.18716562757E+02  0.51100000000E-03 0.  1.
        -11    1    3    3    0    0 -0.52023580916E+01 -0.51516774940E+01  0.16873119390E+02  0.18393109278E+02  0.51100000000E-03 0. -1.
        -12    1    3    3    0    0  0.50986074461E+01 -0.53524405164E+01  0.77049790157E+01  0.10677598934E+02  0.00000000000E+00 0.  1.
</event>
<event>
 7    1  0.3851772E-009  0.4778728E+02  0.7816164E-02  0.1312668E+00
        -11   -1    0    0    0    0  0.00000000000E+00  0.00000000000E+00  0.45593999997E+02  0.45594000000E+02  0.51100000000E-03 0.  1.
         11   -1    0    0    0    0 -0.00000000000E+00 -0.00000000000E+00 -0.45593999997E+02  0.45594000000E+02  0.51100000000E-03 0. -1.
    9900012    2    1    2    0    0 -0.18335486258E+02  0.17848322186E+02  0.35055242975E+02  0.47787277411E+02  0.20000029029E+02 0.  0.
         12    1    1    2    0    0  0.18335486258E+02 -0.17848322186E+02 -0.35055242975E+02  0.43400722589E+02  0.00000000000E+00 0. -1.
         11    1    3    3    0    0 -0.21300878499E+02  0.13239607277E+02  0.28832407238E+02  0.38214164037E+02  0.51100000000E-03 0.  1.
        -11    1    3    3    0    0  0.20552637763E+01  0.40324801570E+01  0.15598021659E+01  0.47872735941E+01  0.51100000000E-03 0. -1.
        -12    1    3    3    0    0  0.91012846450E+00  0.57623475253E+00  0.46630335714E+01  0.47858397800E+01  0.00000000000E+00 0.  1.
</event>
<event>
 7    1  0.3851772E-009  0.4778727E+02  0.7816164E-02  0.1312668E+00
        -11   -1    0    0    0    0  0.00000000000E+00  0.00000000000E+00  0.45593999997E+02  0.45594000000E+02  0.51100000000E-03 0.  1.
         11   -1    0    0    0    0 -0.00000000000E+00 -0.00000000000E+00 -0.45593999997E+02  0.45594000000E+02  0.51100000000E-03 0. -1.
    9900012    2    1    2    0    0  0.99886044762E+01  0.23909216270E+02  0.34816670731E+02  0.47787269559E+02  0.19999993226E+02 0.  0.
         12    1    1    2    0    0 -0.99886044762E+01 -0.23909216270E+02 -0.34816670731E+02  0.43400730441E+02  0.00000000000E+00 0. -1.
         11    1    3    3    0    0  0.10157291538E+02  0.13059647063E+02  0.10049087511E+02  0.19357404600E+02  0.51100000000E-03 0. -1.
        -11    1    3    3    0    0 -0.10588088245E+01  0.15470172867E+01  0.14199139154E+02  0.14322356356E+02  0.51100000000E-03 0.  1.
        -12    1    3    3    0    0  0.89012176313E+00  0.93025519201E+01  0.10568444066E+02  0.14107508602E+02  0.00000000000E+00 0.  1.
</event>
<event>
 7    1  0.3851772E-009  0.4778727E+02  0.7816164E-02  0.1312668E+00
        -11   -1    0    0    0    0  0.00000000000E+00  0.00000000000E+00  0.45593999997E+02  0.45594000000E+02  0.51100000000E-03 0.  1.
         11   -1    0    0    0    0 -0.00000000000E+00 -0.00000000000E+00 -0.45593999997E+02  0.45594000000E+02  0.51100000000E-03 0. -1.
    9900012    2    1    2    0    0  0.20655775873E+01 -0.27305561937E+02  0.33671395870E+02  0.47787271628E+02  0.20000002659E+02 0.  0.
         12    1    1    2    0    0 -0.20655775873E+01  0.27305561937E+02 -0.33671395870E+02  0.43400728372E+02  0.00000000000E+00 0. -1.
         11    1    3    3    0    0 -0.60173320683E+01 -0.17056337517E+02  0.16495324970E+02  0.24479025325E+02  0.51100000000E-03 0. -1.
        -11    1    3    3    0    0  0.64518638862E+01 -0.14182402133E+01  0.56203222757E+01  0.86732909355E+01  0.51100000000E-03 0.  1.
         12    1    3    3    0    0  0.16310457694E+01 -0.88309842064E+01  0.11555748624E+02  0.14634955368E+02  0.00000000000E+00 0. -1.
</event>
<event>
 7    1  0.3851772E-009  0.4778726E+02  0.7816164E-02  0.1312668E+00
        -11   -1    0    0    0    0  0.00000000000E+00  0.00000000000E+00  0.45593999997E+02  0.45594000000E+02  0.51100000000E-03 0.  1.
         11   -1    0    0    0    0 -0.00000000000E+00 -0.00000000000E+00 -0.45593999997E+02  0.45594000000E+02  0.51100000000E-03 0. -1.
    9900012    2    1    2    0    0 -0.79198295012E+01 -0.33564534257E+02  0.26349993593E+02  0.47787264735E+02  0.19999971231E+02 0.  0.
         12    1    1    2    0    0  0.79198295012E+01  0.33564534257E+02 -0.26349993593E+02  0.43400735265E+02  0.00000000000E+00 0. -1.
         11    1    3    3    0    0  0.34147757373E+01 -0.78674442443E+01  0.93825050897E+01  0.12711757325E+02  0.51100000000E-03 0. -1.
        -11    1    3    3    0    0 -0.13183142758E+02 -0.15561273312E+02  0.11379891219E+02  0.23354879671E+02  0.51100000000E-03 0.  1.
        -12    1    3    3    0    0  0.18485375192E+01 -0.10135816702E+02  0.55875972844E+01  0.11720627738E+02  0.00000000000E+00 0.  1.
</event>
<event>
 7    1  0.3851772E-009  0.4778727E+02  0.7816164E-02  0.1312668E+00
        -11   -1    0    0    0    0  0.00000000000E+00  0.00000000000E+00  0.45593999997E+02  0.45594000000E+02  0.51100000000E-03 0. -1.
         11   -1    0    0    0    0 -0.00000000000E+00 -0.00000000000E+00 -0.45593999997E+02  0.45594000000E+02  0.51100000000E-03 0.  1.
    9900012    2    1    2    0    0  0.15043423381E+02 -0.38576857464E+02  0.13005575084E+02  0.47787268415E+02  0.19999988013E+02 0.  0.
         12    1    1    2    0    0 -0.15043423381E+02  0.38576857464E+02 -0.13005575084E+02  0.43400731585E+02  0.00000000000E+00 0. -1.
         11    1    3    3    0    0  0.43645515840E+01 -0.15851236788E+02 -0.41119518663E+01  0.16947541611E+02  0.51100000000E-03 0. -1.
        -11    1    3    3    0    0  0.99396510289E+01 -0.15903859732E+02  0.11788301732E+02  0.22151602085E+02  0.51100000000E-03 0.  1.
         12    1    3    3    0    0  0.73922076797E+00 -0.68217609445E+01  0.53292252173E+01  0.86881247197E+01  0.00000000000E+00 0. -1.
</event>
<event>
 7    1  0.3851772E-009  0.4778727E+02  0.7816164E-02  0.1312668E+00
        -11   -1    0    0    0    0  0.00000000000E+00  0.00000000000E+00  0.45593999997E+02  0.45594000000E+02  0.51100000000E-03 0.  1.
         11   -1    0    0    0    0 -0.00000000000E+00 -0.00000000000E+00 -0.45593999997E+02  0.45594000000E+02  0.51100000000E-03 0. -1.
    9900012    2    1    2    0    0  0.36832690894E+02 -0.14726103310E+02 -0.17610167250E+02  0.47787271575E+02  0.20000002420E+02 0.  0.
         12    1    1    2    0    0 -0.36832690894E+02  0.14726103310E+02  0.17610167250E+02  0.43400728425E+02  0.00000000000E+00 0. -1.
         11    1    3    3    0    0  0.49866017301E+01  0.18756725094E+01  0.81762283732E+00  0.53900697159E+01  0.51100000000E-03 0. -1.
        -11    1    3    3    0    0  0.26326215603E+02 -0.83491724031E+01 -0.16826251848E+02  0.32340393617E+02  0.51100000000E-03 0.  1.
        -12    1    3    3    0    0  0.55198735615E+01 -0.82526034167E+01 -0.16015382387E+01  0.10056808242E+02  0.00000000000E+00 0.  1.
</event>
<event>
 7    1  0.3851772E-009  0.4778729E+02  0.7816164E-02  0.1312668E+00
        -11   -1    0    0    0    0  0.00000000000E+00  0.00000000000E+00  0.45593999997E+02  0.45594000000E+02  0.51100000000E-03 0.  1.
         11   -1    0    0    0    0 -0.00000000000E+00 -0.00000000000E+00 -0.45593999997E+02  0.45594000000E+02  0.51100000000E-03 0. -1.
    9900012    2    1    2    0    0  0.36609846762E+01  0.22924848688E+02  0.36669748767E+02  0.47787286056E+02  0.20000068445E+02 0.  0.
         12    1    1    2    0    0 -0.36609846762E+01 -0.22924848688E+02 -0.36669748767E+02  0.43400713944E+02  0.00000000000E+00 0. -1.
         11    1    3    3    0    0 -0.55225693599E+01  0.34122166953E+01  0.34300669827E+01  0.73421628202E+01  0.51100000000E-03 0. -1.
        -11    1    3    3    0    0  0.10625967462E+02  0.17380451779E+02  0.30576472022E+02  0.36741147643E+02  0.51100000000E-03 0.  1.
        -12    1    3    3    0    0 -0.14424134260E+01  0.21321802138E+01  0.26632097623E+01  0.37039755930E+01  0.00000000000E+00 0.  1.
</event>
<event>
 7    1  0.3851772E-009  0.4778728E+02  0.7816164E-02  0.1312668E+00
        -11   -1    0    0    0    0  0.00000000000E+00  0.00000000000E+00  0.45593999997E+02  0.45594000000E+02  0.51100000000E-03 0.  1.
         11   -1    0    0    0    0 -0.00000000000E+00 -0.00000000000E+00 -0.45593999997E+02  0.45594000000E+02  0.51100000000E-03 0. -1.
    9900012    2    1    2    0    0  0.32828797078E+01  0.12824915605E+02  0.41332395881E+02  0.47787277555E+02  0.20000029684E+02 0.  0.
         12    1    1    2    0    0 -0.32828797078E+01 -0.12824915605E+02 -0.41332395881E+02  0.43400722445E+02  0.00000000000E+00 0. -1.
         11    1    3    3    0    0  0.27297345317E+01 -0.12974230680E+01 -0.13707917453E+00  0.30254831337E+01  0.51100000000E-03 0. -1.
        -11    1    3    3    0    0  0.20948572059E+00 -0.60149308229E+00  0.99588924868E+01  0.99792393507E+01  0.51100000000E-03 0.  1.
         12    1    3    3    0    0  0.34365945552E+00  0.14723831756E+02  0.31510582569E+02  0.34782555071E+02  0.00000000000E+00 0. -1.
</event>
<event>
 7    1  0.3851772E-009  0.4778731E+02  0.7816164E-02  0.1312668E+00
        -11   -1    0    0    0    0  0.00000000000E+00  0.00000000000E+00  0.45593999997E+02  0.45594000000E+02  0.51100000000E-03 0. -1.
         11   -1    0    0    0    0 -0.00000000000E+00 -0.00000000000E+00 -0.45593999997E+02  0.45594000000E+02  0.51100000000E-03 0.  1.
    9900012    2    1    2    0    0  0.32880309494E+02 -0.27705237577E+02 -0.59097689182E+01  0.47787305187E+02  0.20000155668E+02 0.  0.
         12    1    1    2    0    0 -0.32880309494E+02  0.27705237577E+02  0.59097689182E+01  0.43400694813E+02  0.00000000000E+00 0. -1.
         11    1    3    3    0    0  0.12810869887E+02 -0.41699011046E+00 -0.18513847650E+01  0.12950671559E+02  0.51100000000E-03 0. -1.
        -11    1    3    3    0    0  0.60823273719E+01 -0.14168342638E+02 -0.15675626133E+01  0.15498189965E+02  0.51100000000E-03 0.  1.
         12    1    3    3    0    0  0.13987112235E+02 -0.13119904829E+02 -0.24908215399E+01  0.19338443663E+02  0.00000000000E+00 0. -1.
</event>
<event>
 7    1  0.3851772E-009  0.4778727E+02  0.7816164E-02  0.1312668E+00
        -11   -1    0    0    0    0  0.00000000000E+00  0.00000000000E+00  0.45593999997E+02  0.45594000000E+02  0.51100000000E-03 0. -1.
         11   -1    0    0    0    0 -0.00000000000E+00 -0.00000000000E+00 -0.45593999997E+02  0.45594000000E+02  0.51100000000E-03 0.  1.
    9900012    2    1    2    0    0  0.18197353513E+02  0.38705892842E+02  0.73711048241E+01  0.47787274178E+02  0.20000014285E+02 0.  0.
         12    1    1    2    0    0 -0.18197353513E+02 -0.38705892842E+02 -0.73711048241E+01  0.43400725822E+02  0.00000000000E+00 0. -1.
         11    1    3    3    0    0  0.10259262710E+02  0.29568695753E+02 -0.20022069971E+01  0.31361904805E+02  0.51100000000E-03 0.  1.
        -11    1    3    3    0    0  0.70691789941E+01  0.54763486766E+01  0.89286466701E+01  0.12636630014E+02  0.51100000000E-03 0. -1.
         12    1    3    3    0    0  0.86891180834E+00  0.36608484126E+01  0.44466515106E+00  0.37887393586E+01  0.00000000000E+00 0. -1.
</event>
<event>
 7    1  0.3851772E-009  0.4778727E+02  0.7816164E-02  0.1312668E+00
        -11   -1    0    0    0    0  0.00000000000E+00  0.00000000000E+00  0.45593999997E+02  0.45594000000E+02  0.51100000000E-03 0. -1.
         11   -1    0    0    0    0 -0.00000000000E+00 -0.00000000000E+00 -0.45593999997E+02  0.45594000000E+02  0.51100000000E-03 0.  1.
    9900012    2    1    2    0    0  0.31341268509E+02  0.22193662914E+02 -0.20218551245E+02  0.47787267291E+02  0.19999982886E+02 0.  0.
         12    1    1    2    0    0 -0.31341268509E+02 -0.22193662914E+02  0.20218551245E+02  0.43400732709E+02  0.00000000000E+00 0. -1.
         11    1    3    3    0    0  0.98412882242E+01 -0.10338043611E+01 -0.27423562159E+01  0.10268408993E+02  0.51100000000E-03 0. -1.
        -11    1    3    3    0    0  0.20877481671E+02  0.24234352952E+02 -0.16544476416E+02  0.36012397922E+02  0.51100000000E-03 0.  1.
        -12    1    3    3    0    0  0.62249861348E+00 -0.10068856775E+01 -0.93171861316E+00  0.15064603763E+01  0.00000000000E+00 0.  1.
</event>
<event>
 7    1  0.3851772E-009  0.4778727E+02  0.7816164E-02  0.1312668E+00
        -11   -1    0    0    0    0  0.00000000000E+00  0.00000000000E+00  0.45593999997E+02  0.45594000000E+02  0.51100000000E-03 0.  1.
         11   -1    0    0    0    0 -0.00000000000E+00 -0.00000000000E+00 -0.45593999997E+02  0.45594000000E+02  0.51100000000E-03 0. -1.
    9900012    2    1    2    0    0 -0.18645038707E+02  0.36132572840E+02  0.15179691810E+02  0.47787270376E+02  0.19999996953E+02 0.  0.
         12    1    1    2    0    0  0.18645038707E+02 -0.36132572840E+02 -0.15179691810E+02  0.43400729624E+02  0.00000000000E+00 0. -1.
         11    1    3    3    0    0 -0.77546792842E+00 -0.18402181359E+01  0.13947433209E+01  0.24357878578E+01  0.51100000000E-03 0. -1.
        -11    1    3    3    0    0 -0.16385498706E+02  0.25966415105E+02  0.12624684297E+02  0.33198221867E+02  0.51100000000E-03 0.  1.
         12    1    3    3    0    0 -0.14840720726E+01  0.12006375870E+02  0.11602641926E+01  0.12153260651E+02  0.00000000000E+00 0. -1.
</event>
<event>
 7    1  0.3851772E-009  0.4778728E+02  0.7816164E-02  0.1312668E+00
        -11   -1    0    0    0    0  0.00000000000E+00  0.00000000000E+00  0.45593999997E+02  0.45594000000E+02  0.51100000000E-03 0.  1.
         11   -1    0    0    0    0 -0.00000000000E+00 -0.00000000000E+00 -0.45593999997E+02  0.45594000000E+02  0.51100000000E-03 0. -1.
    9900012    2    1    2    0    0 -0.19208306423E+02 -0.30023727825E+02  0.24763672545E+02  0.47787277125E+02  0.20000027724E+02 0.  0.
         12    1    1    2    0    0  0.19208306423E+02  0.30023727825E+02 -0.24763672545E+02  0.43400722875E+02  0.00000000000E+00 0. -1.
         11    1    3    3    0    0 -0.69900202749E+01 -0.36835448115E+01  0.22181242058E+01  0.82066412786E+01  0.51100000000E-03 0. -1.
        -11    1    3    3    0    0 -0.41760522748E+01 -0.37356073659E+00  0.72879796201E+01  0.84079490620E+01  0.51100000000E-03 0.  1.
        -12    1    3    3    0    0 -0.80422338728E+01 -0.25966622277E+02  0.15257568719E+02  0.31172686785E+02  0.00000000000E+00 0.  1.
</event>
<event>
 7    1  0.3851772E-009  0.4778727E+02  0.7816164E-02  0.1312668E+00
        -11   -1    0    0    0    0  0.00000000000E+00  0.00000000000E+00  0.45593999997E+02  0.45594000000E+02  0.51100000000E-03 0.  1.
         11   -1    0    0    0    0 -0.00000000000E+00 -0.00000000000E+00 -0.45593999997E+02  0.45594000000E+02  0.51100000000E-03 0. -1.
    9900012    2    1    2    0    0 -0.26685606270E+02  0.12207789440E+01  0.34205431503E+02  0.47787269274E+02  0.19999991929E+02 0.  0.
         12    1    1    2    0    0  0.26685606270E+02 -0.12207789440E+01 -0.34205431503E+02  0.43400730726E+02  0.00000000000E+00 0. -1.
         11    1    3    3    0    0  0.16876582673E+01  0.30946380171E+01  0.14754708383E+01  0.38212549431E+01  0.51100000000E-03 0. -1.
        -11    1    3    3    0    0 -0.24010898782E+02 -0.41614994734E+01  0.26119392712E+02  0.35722038213E+02  0.51100000000E-03 0.  1.
         12    1    3    3    0    0 -0.43623657554E+01  0.22876404002E+01  0.66105679522E+01  0.82439761180E+01  0.00000000000E+00 0. -1.
</event>
<event>
 7    1  0.3851772E-009  0.4778727E+02  0.7816164E-02  0.1312668E+00
        -11   -1    0    0    0    0  0.00000000000E+00  0.00000000000E+00  0.45593999997E+02  0.45594000000E+02  0.51100000000E-03 0.  1.
         11   -1    0    0    0    0 -0.00000000000E+00 -0.00000000000E+00 -0.45593999997E+02  0.45594000000E+02  0.51100000000E-03 0. -1.
    9900012    2    1    2    0    0 -0.12108875340E+01 -0.26809182062E+02  0.34109009982E+02  0.47787273584E+02  0.20000011578E+02 0.  0.
         12    1    1    2    0    0  0.12108875340E+01  0.26809182062E+02 -0.34109009982E+02  0.43400726416E+02  0.00000000000E+00 0. -1.
         11    1    3    3    0    0  0.51965185360E+01 -0.16130841724E+02  0.98339408935E+01  0.19593729950E+02  0.51100000000E-03 0. -1.
        -11    1    3    3    0    0 -0.33686105721E+01 -0.94359676896E+01  0.12782247708E+02  0.16241024603E+02  0.51100000000E-03 0.  1.
         12    1    3    3    0    0 -0.30387954979E+01 -0.12423726488E+01  0.11492821381E+02  0.11952519030E+02  0.00000000000E+00 0. -1.
</event>
<event>
 7    1  0.3851772E-009  0.4778727E+02  0.7816164E-02  0.1312668E+00
        -11   -1    0    0    0    0  0.00000000000E+00  0.00000000000E+00  0.45593999997E+02  0.45594000000E+02  0.51100000000E-03 0.  1.
         11   -1    0    0    0    0 -0.00000000000E+00 -0.00000000000E+00 -0.45593999997E+02  0.45594000000E+02  0.51100000000E-03 0. -1.
    9900012    2    1    2    0    0  0.33497036630E+02  0.26574263919E+02  0.74417958923E+01  0.47787270837E+02  0.19999999053E+02 0.  0.
         12    1    1    2    0    0 -0.33497036630E+02 -0.26574263919E+02 -0.74417958923E+01  0.43400729163E+02  0.00000000000E+00 0. -1.
         11    1    3    3    0    0  0.27664375323E+01  0.10679663195E+02  0.48868463612E+01  0.12066053630E+02  0.51100000000E-03 0. -1.
        -11    1    3    3    0    0  0.14530195299E+02  0.75247495540E+01  0.54737885076E+01  0.17254297788E+02  0.51100000000E-03 0.  1.
         12    1    3    3    0    0  0.16200403799E+02  0.83698511697E+01 -0.29188389764E+01  0.18466919419E+02  0.00000000000E+00 0. -1.
</event>
<event>
 7    1  0.3851772E-009  0.4778727E+02  0.7816164E-02  0.1312668E+00
        -11   -1    0    0    0    0  0.00000000000E+00  0.00000000000E+00  0.45593999997E+02  0.45594000000E+02  0.51100000000E-03 0.  1.
         11   -1    0    0    0    0 -0.00000000000E+00 -0.00000000000E+00 -0.45593999997E+02  0.45594000000E+02  0.51100000000E-03 0. -1.
    9900012    2    1    2    0    0  0.97943142744E+01  0.40508651055E+02  0.12113797468E+02  0.47787268538E+02  0.19999988571E+02 0.  0.
         12    1    1    2    0    0 -0.97943142744E+01 -0.40508651055E+02 -0.12113797468E+02  0.43400731462E+02  0.00000000000E+00 0. -1.
         11    1    3    3    0    0  0.59520780211E+01  0.57262585005E+01  0.24757839570E+01  0.86224576338E+01  0.51100000000E-03 0. -1.
        -11    1    3    3    0    0  0.40567954250E+01  0.28649044697E+02  0.13483710920E+02  0.31922340321E+02  0.51100000000E-03 0.  1.
        -12    1    3    3    0    0 -0.21455917167E+00  0.61333478572E+01 -0.38456974093E+01  0.72424705826E+01  0.00000000000E+00 0.  1.
</event>
<event>
 7    1  0.3851772E-009  0.4778727E+02  0.7816164E-02  0.1312668E+00
        -11   -1    0    0    0    0  0.00000000000E+00  0.00000000000E+00  0.45593999997E+02  0.45594000000E+02  0.51100000000E-03 0.  1.
         11   -1    0    0    0    0 -0.00000000000E+00 -0.00000000000E+00 -0.45593999997E+02  0.45594000000E+02  0.51100000000E-03 0. -1.
    9900012    2    1    2    0    0  0.21172605897E+02  0.36975045686E+02  0.82577207407E+01  0.47787271944E+02  0.20000004101E+02 0.  0.
         12    1    1    2    0    0 -0.21172605897E+02 -0.36975045686E+02 -0.82577207407E+01  0.43400728056E+02  0.00000000000E+00 0. -1.
         11    1    3    3    0    0  0.11449093077E+00  0.14749439342E+01 -0.24744931472E+01  0.28829991986E+01  0.51100000000E-03 0. -1.
        -11    1    3    3    0    0  0.76908556877E+01  0.16755072224E+02  0.11744539669E+02  0.21859000864E+02  0.51100000000E-03 0.  1.
        -12    1    3    3    0    0  0.13367259279E+02  0.18745029527E+02 -0.10123257811E+01  0.23045271882E+02  0.00000000000E+00 0.  1.
</event>
<event>
 7    1  0.3851772E-009  0.4778727E+02  0.7816164E-02  0.1312668E+00
        -11   -1    0    0    0    0  0.00000000000E+00  0.00000000000E+00  0.45593999997E+02  0.45594000000E+02  0.51100000000E-03 0. -1.
         11   -1    0    0    0    0 -0.00000000000E+00 -0.00000000000E+00 -0.45593999997E+02  0.45594000000E+02  0.51100000000E-03 0.  1.
    9900012    2    1    2    0    0 -0.38768198817E+02 -0.18282337714E+02 -0.68122046395E+01  0.47787271391E+02  0.20000001578E+02 0.  0.
         12    1    1    2    0    0  0.38768198817E+02  0.18282337714E+02  0.68122046395E+01  0.43400728609E+02  0.00000000000E+00 0. -1.
         11    1    3    3    0    0 -0.13049874523E+01 -0.28293727823E+01 -0.46559794621E+01  0.56023644655E+01  0.51100000000E-03 0. -1.
        -11    1    3    3    0    0 -0.19197389016E+02 -0.71225695951E+01  0.46302925479E+01  0.20993102486E+02  0.51100000000E-03 0.  1.
        -12    1    3    3    0    0 -0.18265822349E+02 -0.83303953368E+01 -0.67865177253E+01  0.21191804439E+02  0.00000000000E+00 0.  1.
</event>
<event>
 7    1  0.3851772E-009  0.4778727E+02  0.7816164E-02  0.1312668E+00
        -11   -1    0    0    0    0  0.00000000000E+00  0.00000000000E+00  0.45593999997E+02  0.45594000000E+02  0.51100000000E-03 0.  1.
         11   -1    0    0    0    0 -0.00000000000E+00 -0.00000000000E+00 -0.45593999997E+02  0.45594000000E+02  0.51100000000E-03 0. -1.
    9900012    2    1    2    0    0 -0.35027354119E+02 -0.23128842630E+02 -0.11034704233E+02  0.47787267339E+02  0.19999983106E+02 0.  0.
         12    1    1    2    0    0  0.35027354119E+02  0.23128842630E+02  0.11034704233E+02  0.43400732661E+02  0.00000000000E+00 0. -1.
         11    1    3    3    0    0 -0.53026175274E+01 -0.24341802098E+01 -0.72787506916E+01  0.93286225043E+01  0.51100000000E-03 0. -1.
        -11    1    3    3    0    0 -0.28737777932E+02 -0.18891173454E+02 -0.24705107421E+00  0.34391820967E+02  0.51100000000E-03 0.  1.
        -12    1    3    3    0    0 -0.98695865959E+00 -0.18034889658E+01 -0.35089024672E+01  0.40668238675E+01  0.00000000000E+00 0.  1.
</event>
<event>
 7    1  0.3851772E-009  0.4778729E+02  0.7816164E-02  0.1312668E+00
        -11   -1    0    0    0    0  0.00000000000E+00  0.00000000000E+00  0.45593999997E+02  0.45594000000E+02  0.51100000000E-03 0.  1.
         11   -1    0    0    0    0 -0.00000000000E+00 -0.00000000000E+00 -0.45593999997E+02  0.45594000000E+02  0.51100000000E-03 0. -1.
    9900012    2    1    2    0    0  0.22047141284E+02  0.26961444447E+02  0.25896439638E+02  0.47787291350E+02  0.20000092579E+02 0.  0.
         12    1    1    2    0    0 -0.22047141284E+02 -0.26961444447E+02 -0.25896439638E+02  0.43400708650E+02  0.00000000000E+00 0. -1.
         11    1    3    3    0    0 -0.20352548844E+00  0.10105579604E+02  0.31171327875E+01  0.10577366347E+02  0.51100000000E-03 0. -1.
        -11    1    3    3    0    0  0.14698349595E+02  0.12615200057E+02  0.20604725810E+02  0.28279665473E+02  0.51100000000E-03 0.  1.
        -12    1    3    3    0    0  0.75523171774E+01  0.42406647854E+01  0.21745810400E+01  0.89302595298E+01  0.00000000000E+00 0.  1.
</event>
<event>
 7    1  0.3851772E-009  0.4778728E+02  0.7816164E-02  0.1312668E+00
        -11   -1    0    0    0    0  0.00000000000E+00  0.00000000000E+00  0.45593999997E+02  0.45594000000E+02  0.51100000000E-03 0. -1.
         11   -1    0    0    0    0 -0.00000000000E+00 -0.00000000000E+00 -0.45593999997E+02  0.45594000000E+02  0.51100000000E-03 0.  1.
    9900012    2    1    2    0    0 -0.20660257895E+02 -0.12331187645E+01 -0.38147809453E+02  0.47787283367E+02  0.20000056182E+02 0.  0.
         12    1    1    2    0    0  0.20660257895E+02  0.12331187645E+01  0.38147809453E+02  0.43400716633E+02  0.00000000000E+00 0. -1.
         11    1    3    3    0    0  0.20026463475E+01 -0.21661050793E+01 -0.12010034588E+01  0.31851237303E+01  0.51100000000E-03 0. -1.
        -11    1    3    3    0    0 -0.22786909230E+02 -0.11833390514E+01 -0.34522078156E+02  0.41381365420E+02  0.51100000000E-03 0.  1.
        -12    1    3    3    0    0  0.12400498717E+00  0.21163253662E+01 -0.24247278390E+01  0.32207942166E+01  0.00000000000E+00 0.  1.
</event>
<event>
 7    1  0.3851772E-009  0.4778728E+02  0.7816164E-02  0.1312668E+00
        -11   -1    0    0    0    0  0.00000000000E+00  0.00000000000E+00  0.45593999997E+02  0.45594000000E+02  0.51100000000E-03 0. -1.
         11   -1    0    0    0    0 -0.00000000000E+00 -0.00000000000E+00 -0.45593999997E+02  0.45594000000E+02  0.51100000000E-03 0.  1.
    9900012    2    1    2    0    0  0.68924766878E+01  0.41414259730E+02  0.10998886853E+02  0.47787278164E+02  0.20000032463E+02 0.  0.
         12    1    1    2    0    0 -0.68924766878E+01 -0.41414259730E+02 -0.10998886853E+02  0.43400721836E+02  0.00000000000E+00 0. -1.
         11    1    3    3    0    0  0.79481924577E+00  0.36188789810E+02  0.10162425789E+02  0.37597009771E+02  0.51100000000E-03 0.  1.
        -11    1    3    3    0    0  0.22640992436E+01  0.13274986000E-01  0.26356304130E+01  0.34746035091E+01  0.51100000000E-03 0. -1.
         12    1    3    3    0    0  0.38335581984E+01  0.52121949339E+01 -0.17991693497E+01  0.67156648843E+01  0.00000000000E+00 0. -1.
</event>
<event>
 7    1  0.3851772E-009  0.4778727E+02  0.7816164E-02  0.1312668E+00
        -11   -1    0    0    0    0  0.00000000000E+00  0.00000000000E+00  0.45593999997E+02  0.45594000000E+02  0.51100000000E-03 0.  1.
         11   -1    0    0    0    0 -0.00000000000E+00 -0.00000000000E+00 -0.45593999997E+02  0.45594000000E+02  0.51100000000E-03 0. -1.
    9900012    2    1    2    0    0 -0.20564827247E+02  0.10608480420E+01  0.38204529029E+02  0.47787267787E+02  0.19999985148E+02 0.  0.
         12    1    1    2    0    0  0.20564827247E+02 -0.10608480420E+01 -0.38204529029E+02  0.43400732213E+02  0.00000000000E+00 0. -1.
         11    1    3    3    0    0 -0.66251873866E+01 -0.55261973239E+01  0.13360368858E+02  0.15903817814E+02  0.51100000000E-03 0. -1.
        -11    1    3    3    0    0 -0.13945389667E+02  0.95935888164E+01  0.20246133719E+02  0.26389709551E+02  0.51100000000E-03 0.  1.
        -12    1    3    3    0    0  0.57498057068E-02 -0.30065434505E+01  0.45980264522E+01  0.54937404230E+01  0.00000000000E+00 0.  1.
</event>
<event>
 7    1  0.3851772E-009  0.4778727E+02  0.7816164E-02  0.1312668E+00
        -11   -1    0    0    0    0  0.00000000000E+00  0.00000000000E+00  0.45593999997E+02  0.45594000000E+02  0.51100000000E-03 0.  1.
         11   -1    0    0    0    0 -0.00000000000E+00 -0.00000000000E+00 -0.45593999997E+02  0.45594000000E+02  0.51100000000E-03 0. -1.
    9900012    2    1    2    0    0 -0.87334444108E+01 -0.38217895460E+01  0.42340811482E+02  0.47787269089E+02  0.19999991085E+02 0.  0.
         12    1    1    2    0    0  0.87334444108E+01  0.38217895460E+01 -0.42340811482E+02  0.43400730911E+02  0.00000000000E+00 0. -1.
         11    1    3    3    0    0  0.34966927194E+01 -0.68011809341E+01  0.14501383975E+02  0.16394299605E+02  0.51100000000E-03 0. -1.
        -11    1    3    3    0    0 -0.31974355718E+01  0.33005316447E+01  0.15022624568E+02  0.15709753421E+02  0.51100000000E-03 0.  1.
         12    1    3    3    0    0 -0.90327015584E+01 -0.32114025655E+00  0.12816802939E+02  0.15683216063E+02  0.00000000000E+00 0. -1.
</event>
<event>
 7    1  0.3851772E-009  0.4778727E+02  0.7816164E-02  0.1312668E+00
        -11   -1    0    0    0    0  0.00000000000E+00  0.00000000000E+00  0.45593999997E+02  0.45594000000E+02  0.51100000000E-03 0.  1.
         11   -1    0    0    0    0 -0.00000000000E+00 -0.00000000000E+00 -0.45593999997E+02  0.45594000000E+02  0.51100000000E-03 0. -1.
    9900012    2    1    2    0    0  0.39285281042E+02  0.11042116170E+02  0.14777072414E+02  0.47787268380E+02  0.19999987849E+02 0.  0.
         12    1    1    2    0    0 -0.39285281042E+02 -0.11042116170E+02 -0.14777072414E+02  0.43400731620E+02  0.00000000000E+00 0. -1.
         11    1    3    3    0    0  0.25883708972E+02  0.10533995714E+02  0.44286076113E+01  0.28293886645E+02  0.51100000000E-03 0. -1.
        -11    1    3    3    0    0  0.14187298956E+02 -0.15507332748E+01  0.94307805055E+01  0.17106251681E+02  0.51100000000E-03 0.  1.
         12    1    3    3    0    0 -0.78572688584E+00  0.20588537311E+01  0.91768429666E+00  0.23871300538E+01  0.00000000000E+00 0. -1.
</event>
<event>
 7    1  0.3851772E-009  0.4778728E+02  0.7816164E-02  0.1312668E+00
        -11   -1    0    0    0    0  0.00000000000E+00  0.00000000000E+00  0.45593999997E+02  0.45594000000E+02  0.51100000000E-03 0.  1.
         11   -1    0    0    0    0 -0.00000000000E+00 -0.00000000000E+00 -0.45593999997E+02  0.45594000000E+02  0.51100000000E-03 0. -1.
    9900012    2    1    2    0    0 -0.10973076468E+02  0.32968313710E+02  0.26005853018E+02  0.47787279877E+02  0.20000040269E+02 0.  0.
         12    1    1    2    0    0  0.10973076468E+02 -0.32968313710E+02 -0.26005853018E+02  0.43400720123E+02  0.00000000000E+00 0. -1.
         11    1    3    3    0    0 -0.53355758389E+01  0.18177603951E+02  0.10898930437E+02  0.21855899429E+02  0.51100000000E-03 0. -1.
        -11    1    3    3    0    0  0.12270909039E+01  0.40693867223E+01 -0.19261985901E+01  0.46664656488E+01  0.51100000000E-03 0.  1.
        -12    1    3    3    0    0 -0.68645915326E+01  0.10721323037E+02  0.17033121171E+02  0.21264914798E+02  0.00000000000E+00 0.  1.
</event>
<event>
 7    1  0.3851772E-009  0.4778727E+02  0.7816164E-02  0.1312668E+00
        -11   -1    0    0    0    0  0.00000000000E+00  0.00000000000E+00  0.45593999997E+02  0.45594000000E+02  0.51100000000E-03 0. -1.
         11   -1    0    0    0    0 -0.00000000000E+00 -0.00000000000E+00 -0.45593999997E+02  0.45594000000E+02  0.51100000000E-03 0.  1.
    9900012    2    1    2    0    0 -0.99213566262E+01 -0.13729574010E+02 -0.39958592672E+02  0.47787266733E+02  0.19999980341E+02 0.  0.
         12    1    1    2    0    0  0.99213566262E+01  0.13729574010E+02  0.39958592672E+02  0.43400733267E+02  0.00000000000E+00 0. -1.
         11    1    3    3    0    0 -0.10290991370E+02 -0.65068193723E+01 -0.11043325879E+02  0.16437708127E+02  0.51100000000E-03 0. -1.
        -11    1    3    3    0    0  0.34774415358E+01 -0.42166380639E+00 -0.16405880660E+02  0.16775676454E+02  0.51100000000E-03 0.  1.
        -12    1    3    3    0    0 -0.31078067917E+01 -0.68010908312E+01 -0.12509386133E+02  0.14573882152E+02  0.00000000000E+00 0.  1.
</event>
<event>
 7    1  0.3851772E-009  0.4778727E+02  0.7816164E-02  0.1312668E+00
        -11   -1    0    0    0    0  0.00000000000E+00  0.00000000000E+00  0.45593999997E+02  0.45594000000E+02  0.51100000000E-03 0.  1.
         11   -1    0    0    0    0 -0.00000000000E+00 -0.00000000000E+00 -0.45593999997E+02  0.45594000000E+02  0.51100000000E-03 0. -1.
    9900012    2    1    2    0    0 -0.39130669000E+02 -0.30815672530E+01  0.18518049069E+02  0.47787268964E+02  0.19999990517E+02 0.  0.
         12    1    1    2    0    0  0.39130669000E+02  0.30815672530E+01 -0.18518049069E+02  0.43400731036E+02  0.00000000000E+00 0. -1.
         11    1    3    3    0    0 -0.80319000678E+01 -0.68324393770E+01  0.10297736097E+02  0.14738962498E+02  0.51100000000E-03 0.  1.
        -11    1    3    3    0    0 -0.19126197926E+02  0.51984862432E+01  0.65447321849E+01  0.20872690913E+02  0.51100000000E-03 0. -1.
        -12    1    3    3    0    0 -0.11972571006E+02 -0.14476141192E+01  0.16755807878E+01  0.12175615553E+02  0.00000000000E+00 0.  1.
</event>
<event>
 7    1  0.3851772E-009  0.4778727E+02  0.7816164E-02  0.1312668E+00
        -11   -1    0    0    0    0  0.00000000000E+00  0.00000000000E+00  0.45593999997E+02  0.45594000000E+02  0.51100000000E-03 0.  1.
         11   -1    0    0    0    0 -0.00000000000E+00 -0.00000000000E+00 -0.45593999997E+02  0.45594000000E+02  0.51100000000E-03 0. -1.
    9900012    2    1    2    0    0 -0.35531493035E+02  0.22682736412E+02  0.10326154176E+02  0.47787274332E+02  0.20000014990E+02 0.  0.
         12    1    1    2    0    0  0.35531493035E+02 -0.22682736412E+02 -0.10326154176E+02  0.43400725668E+02  0.00000000000E+00 0. -1.
         11    1    3    3    0    0  0.76368877476E+00  0.10504476128E+01 -0.29848313183E+00  0.13325738903E+01  0.51100000000E-03 0. -1.
        -11    1    3    3    0    0 -0.16443112498E+02  0.35887513930E+01  0.10089207051E+02  0.19622619202E+02  0.51100000000E-03 0.  1.
        -12    1    3    3    0    0 -0.19852069312E+02  0.18043537407E+02  0.53543025717E+00  0.26832081240E+02  0.00000000000E+00 0.  1.
</event>
<event>
 7    1  0.3851772E-009  0.4778727E+02  0.7816164E-02  0.1312668E+00
        -11   -1    0    0    0    0  0.00000000000E+00  0.00000000000E+00  0.45593999997E+02  0.45594000000E+02  0.51100000000E-03 0.  1.
         11   -1    0    0    0    0 -0.00000000000E+00 -0.00000000000E+00 -0.45593999997E+02  0.45594000000E+02  0.51100000000E-03 0. -1.
    9900012    2    1    2    0    0 -0.29494354076E+02 -0.28047996894E+02  0.15067060014E+02  0.47787270172E+02  0.19999996023E+02 0.  0.
         12    1    1    2    0    0  0.29494354076E+02  0.28047996894E+02 -0.15067060014E+02  0.43400729828E+02  0.00000000000E+00 0. -1.
         11    1    3    3    0    0 -0.13200937872E+02 -0.90525680174E+01 -0.17051446780E+01  0.16097244082E+02  0.51100000000E-03 0. -1.
        -11    1    3    3    0    0 -0.11386933279E+02 -0.67095678287E+01  0.55219364362E+01  0.14323837901E+02  0.51100000000E-03 0.  1.
         12    1    3    3    0    0 -0.49064829248E+01 -0.12285861048E+02  0.11250268256E+02  0.17366188189E+02  0.00000000000E+00 0. -1.
</event>
<event>
 7    1  0.3851772E-009  0.4778727E+02  0.7816164E-02  0.1312668E+00
        -11   -1    0    0    0    0  0.00000000000E+00  0.00000000000E+00  0.45593999997E+02  0.45594000000E+02  0.51100000000E-03 0.  1.
         11   -1    0    0    0    0 -0.00000000000E+00 -0.00000000000E+00 -0.45593999997E+02  0.45594000000E+02  0.51100000000E-03 0. -1.
    9900012    2    1    2    0    0  0.28464496958E+02  0.12828027752E+02  0.30146925667E+02  0.47787274081E+02  0.20000013847E+02 0.  0.
         12    1    1    2    0    0 -0.28464496958E+02 -0.12828027752E+02 -0.30146925667E+02  0.43400725919E+02  0.00000000000E+00 0. -1.
         11    1    3    3    0    0  0.20387540156E+02  0.32649706298E+01  0.99540484739E+01  0.22921494457E+02  0.51100000000E-03 0.  1.
        -11    1    3    3    0    0  0.56863845904E+01  0.44907799939E+01  0.53731707201E+01  0.90207005555E+01  0.51100000000E-03 0. -1.
         12    1    3    3    0    0  0.23905722113E+01  0.50722771285E+01  0.14819706473E+02  0.15845079069E+02  0.00000000000E+00 0. -1.
</event>
<event>
 7    1  0.3851772E-009  0.4778727E+02  0.7816164E-02  0.1312668E+00
        -11   -1    0    0    0    0  0.00000000000E+00  0.00000000000E+00  0.45593999997E+02  0.45594000000E+02  0.51100000000E-03 0.  1.
         11   -1    0    0    0    0 -0.00000000000E+00 -0.00000000000E+00 -0.45593999997E+02  0.45594000000E+02  0.51100000000E-03 0. -1.
    9900012    2    1    2    0    0 -0.25308271279E+01 -0.15636200027E+02  0.40407019432E+02  0.47787273548E+02  0.20000011412E+02 0.  0.
         12    1    1    2    0    0  0.25308271279E+01  0.15636200027E+02 -0.40407019432E+02  0.43400726452E+02  0.00000000000E+00 0. -1.
         11    1    3    3    0    0  0.14954133700E+01 -0.11892071942E+02  0.25766152796E+02  0.28417464109E+02  0.51100000000E-03 0.  1.
        -11    1    3    3    0    0 -0.62512333425E+01  0.16928516601E+00  0.30952701328E+01  0.69776266185E+01  0.51100000000E-03 0. -1.
         12    1    3    3    0    0  0.22249928447E+01 -0.39134132507E+01  0.11545596503E+02  0.12392182820E+02  0.00000000000E+00 0. -1.
</event>
<event>
 7    1  0.3851772E-009  0.4778727E+02  0.7816164E-02  0.1312668E+00
        -11   -1    0    0    0    0  0.00000000000E+00  0.00000000000E+00  0.45593999997E+02  0.45594000000E+02  0.51100000000E-03 0. -1.
         11   -1    0    0    0    0 -0.00000000000E+00 -0.00000000000E+00 -0.45593999997E+02  0.45594000000E+02  0.51100000000E-03 0.  1.
    9900012    2    1    2    0    0 -0.99846269149E+01 -0.25022646132E+02 -0.34026428809E+02  0.47787268997E+02  0.19999990665E+02 0.  0.
         12    1    1    2    0    0  0.99846269149E+01  0.25022646132E+02  0.34026428809E+02  0.43400731003E+02  0.00000000000E+00 0. -1.
         11    1    3    3    0    0  0.81825686212E+00 -0.86135544982E+01 -0.17310554879E+01  0.88237984309E+01  0.51100000000E-03 0. -1.
        -11    1    3    3    0    0 -0.10257893765E+02 -0.73121345933E+01 -0.16995545955E+02  0.21155147822E+02  0.51100000000E-03 0.  1.
        -12    1    3    3    0    0 -0.54499001182E+00 -0.90969570406E+01 -0.15299827366E+02  0.17808322744E+02  0.00000000000E+00 0.  1.
</event>
<event>
 7    1  0.3851772E-009  0.4778727E+02  0.7816164E-02  0.1312668E+00
        -11   -1    0    0    0    0  0.00000000000E+00  0.00000000000E+00  0.45593999997E+02  0.45594000000E+02  0.51100000000E-03 0. -1.
         11   -1    0    0    0    0 -0.00000000000E+00 -0.00000000000E+00 -0.45593999997E+02  0.45594000000E+02  0.51100000000E-03 0.  1.
    9900012    2    1    2    0    0  0.18281477290E+02  0.33982824420E+02 -0.19863998517E+02  0.47787271843E+02  0.20000003641E+02 0.  0.
         12    1    1    2    0    0 -0.18281477290E+02 -0.33982824420E+02  0.19863998517E+02  0.43400728157E+02  0.00000000000E+00 0. -1.
         11    1    3    3    0    0 -0.21299211041E+01  0.27317925884E+01 -0.26136053324E+00  0.34738399856E+01  0.51100000000E-03 0. -1.
        -11    1    3    3    0    0  0.20066864877E+02  0.19827571728E+02 -0.12483615363E+02  0.30848862530E+02  0.51100000000E-03 0.  1.
         12    1    3    3    0    0  0.34453351714E+00  0.11423460104E+02 -0.71190226199E+01  0.13464569327E+02  0.00000000000E+00 0. -1.
</event>
<event>
 7    1  0.3851772E-009  0.4778727E+02  0.7816164E-02  0.1312668E+00
        -11   -1    0    0    0    0  0.00000000000E+00  0.00000000000E+00  0.45593999997E+02  0.45594000000E+02  0.51100000000E-03 0.  1.
         11   -1    0    0    0    0 -0.00000000000E+00 -0.00000000000E+00 -0.45593999997E+02  0.45594000000E+02  0.51100000000E-03 0. -1.
    9900012    2    1    2    0    0  0.53835832802E+01 -0.40668674391E+02  0.14166829452E+02  0.47787273020E+02  0.20000009007E+02 0.  0.
         12    1    1    2    0    0 -0.53835832802E+01  0.40668674391E+02 -0.14166829452E+02  0.43400726980E+02  0.00000000000E+00 0. -1.
         11    1    3    3    0    0  0.76853849737E+00  0.15661377399E+01 -0.15422301924E+01  0.23285001760E+01  0.51100000000E-03 0. -1.
        -11    1    3    3    0    0  0.30663532143E+01 -0.28621106057E+02  0.87142000745E+01  0.30075031458E+02  0.51100000000E-03 0.  1.
         12    1    3    3    0    0  0.15486915685E+01 -0.13613706074E+02  0.69948595704E+01  0.15383741386E+02  0.00000000000E+00 0. -1.
</event>
<event>
 7    1  0.3851772E-009  0.4778727E+02  0.7816164E-02  0.1312668E+00
        -11   -1    0    0    0    0  0.00000000000E+00  0.00000000000E+00  0.45593999997E+02  0.45594000000E+02  0.51100000000E-03 0.  1.
         11   -1    0    0    0    0 -0.00000000000E+00 -0.00000000000E+00 -0.45593999997E+02  0.45594000000E+02  0.51100000000E-03 0. -1.
    9900012    2    1    2    0    0  0.33771226551E+01  0.41683557974E+02  0.11606007538E+02  0.47787269894E+02  0.19999994753E+02 0.  0.
         12    1    1    2    0    0 -0.33771226551E+01 -0.41683557974E+02 -0.11606007538E+02  0.43400730106E+02  0.00000000000E+00 0. -1.
         11    1    3    3    0    0 -0.35473267410E+01  0.32643502039E+02  0.22652624197E+01  0.32913723072E+02  0.51100000000E-03 0. -1.
        -11    1    3    3    0    0  0.37623710741E+01  0.65134281325E+01  0.58602088208E+01  0.95353148779E+01  0.51100000000E-03 0.  1.
         12    1    3    3    0    0  0.31620783220E+01  0.25266278030E+01  0.34805362975E+01  0.53382319440E+01  0.00000000000E+00 0. -1.
</event>
<event>
 7    1  0.3851772E-009  0.4778727E+02  0.7816164E-02  0.1312668E+00
        -11   -1    0    0    0    0  0.00000000000E+00  0.00000000000E+00  0.45593999997E+02  0.45594000000E+02  0.51100000000E-03 0.  1.
         11   -1    0    0    0    0 -0.00000000000E+00 -0.00000000000E+00 -0.45593999997E+02  0.45594000000E+02  0.51100000000E-03 0. -1.
    9900012    2    1    2    0    0 -0.96778379826E+01 -0.75298556545E+01  0.41632487668E+02  0.47787270702E+02  0.19999998437E+02 0.  0.
         12    1    1    2    0    0  0.96778379826E+01  0.75298556545E+01 -0.41632487668E+02  0.43400729298E+02  0.00000000000E+00 0. -1.
         11    1    3    3    0    0  0.31080474670E+01  0.31510691551E+01  0.17202852088E+02  0.17763088585E+02  0.51100000000E-03 0. -1.
        -11    1    3    3    0    0 -0.13279945771E+02 -0.10483548262E+02  0.23773247313E+02  0.29179256877E+02  0.51100000000E-03 0.  1.
        -12    1    3    3    0    0  0.49406032103E+00 -0.19737654725E+00  0.65638826704E+00  0.84492523890E+00  0.00000000000E+00 0.  1.
</event>
<event>
 7    1  0.3851772E-009  0.4778727E+02  0.7816164E-02  0.1312668E+00
        -11   -1    0    0    0    0  0.00000000000E+00  0.00000000000E+00  0.45593999997E+02  0.45594000000E+02  0.51100000000E-03 0.  1.
         11   -1    0    0    0    0 -0.00000000000E+00 -0.00000000000E+00 -0.45593999997E+02  0.45594000000E+02  0.51100000000E-03 0. -1.
    9900012    2    1    2    0    0 -0.39185604596E+02  0.12505897356E+02  0.13846087713E+02  0.47787271651E+02  0.20000002768E+02 0.  0.
         12    1    1    2    0    0  0.39185604596E+02 -0.12505897356E+02 -0.13846087713E+02  0.43400728349E+02  0.00000000000E+00 0. -1.
         11    1    3    3    0    0  0.18105814636E+01 -0.38808453469E+00  0.13521612441E+01  0.22928486940E+01  0.51100000000E-03 0. -1.
        -11    1    3    3    0    0 -0.30425817768E+02  0.61434846736E+01  0.10658424353E+02  0.32818817784E+02  0.51100000000E-03 0.  1.
        -12    1    3    3    0    0 -0.10570368291E+02  0.67504972168E+01  0.18355021159E+01  0.12675605173E+02  0.00000000000E+00 0.  1.
</event>
<event>
 7    1  0.3851772E-009  0.4778727E+02  0.7816164E-02  0.1312668E+00
        -11   -1    0    0    0    0  0.00000000000E+00  0.00000000000E+00  0.45593999997E+02  0.45594000000E+02  0.51100000000E-03 0.  1.
         11   -1    0    0    0    0 -0.00000000000E+00 -0.00000000000E+00 -0.45593999997E+02  0.45594000000E+02  0.51100000000E-03 0. -1.
    9900012    2    1    2    0    0 -0.12158311451E+02 -0.40678327425E+01  0.41463861585E+02  0.47787267078E+02  0.19999981917E+02 0.  0.
         12    1    1    2    0    0  0.12158311451E+02  0.40678327425E+01 -0.41463861585E+02  0.43400732922E+02  0.00000000000E+00 0. -1.
         11    1    3    3    0    0  0.97414773857E+00 -0.24671939126E+01  0.10282677480E+02  0.10619296871E+02  0.51100000000E-03 0. -1.
        -11    1    3    3    0    0 -0.91837524678E+01  0.11032466729E+01  0.49250433742E+01  0.10479242106E+02  0.51100000000E-03 0.  1.
        -12    1    3    3    0    0 -0.39487067216E+01 -0.27038855028E+01  0.26256140731E+02  0.26688728102E+02  0.00000000000E+00 0.  1.
</event>
<event>
 7    1  0.3851772E-009  0.4778726E+02  0.7816164E-02  0.1312668E+00
        -11   -1    0    0    0    0  0.00000000000E+00  0.00000000000E+00  0.45593999997E+02  0.45594000000E+02  0.51100000000E-03 0. -1.
         11   -1    0    0    0    0 -0.00000000000E+00 -0.00000000000E+00 -0.45593999997E+02  0.45594000000E+02  0.51100000000E-03 0.  1.
    9900012    2    1    2    0    0  0.12657005893E+02 -0.35919046869E+02 -0.20814567830E+02  0.47787263138E+02  0.19999963953E+02 0.  0.
         12    1    1    2    0    0 -0.12657005893E+02  0.35919046869E+02  0.20814567830E+02  0.43400736862E+02  0.00000000000E+00 0. -1.
         11    1    3    3    0    0  0.60786484801E+01 -0.17538946945E+02 -0.16138334903E+01  0.18632473965E+02  0.51100000000E-03 0. -1.
        -11    1    3    3    0    0  0.65972798548E+01 -0.58118143777E+01 -0.11268516092E+02  0.14292681450E+02  0.51100000000E-03 0.  1.
        -12    1    3    3    0    0 -0.18922441526E-01 -0.12568285547E+02 -0.79322182478E+01  0.14862107723E+02  0.00000000000E+00 0.  1.
</event>
<event>
 7    1  0.3851772E-009  0.4778728E+02  0.7816164E-02  0.1312668E+00
        -11   -1    0    0    0    0  0.00000000000E+00  0.00000000000E+00  0.45593999997E+02  0.45594000000E+02  0.51100000000E-03 0.  1.
         11   -1    0    0    0    0 -0.00000000000E+00 -0.00000000000E+00 -0.45593999997E+02  0.45594000000E+02  0.51100000000E-03 0. -1.
    9900012    2    1    2    0    0  0.19251415930E+01 -0.24050455958E+02  0.36076201366E+02  0.47787275271E+02  0.20000019271E+02 0.  0.
         12    1    1    2    0    0 -0.19251415930E+01  0.24050455958E+02 -0.36076201366E+02  0.43400724729E+02  0.00000000000E+00 0. -1.
         11    1    3    3    0    0  0.42071198646E+01 -0.24042671571E+02  0.24472185520E+02  0.34563532490E+02  0.51100000000E-03 0. -1.
        -11    1    3    3    0    0 -0.30825285403E+01  0.23009472392E+01  0.78936159822E+01  0.87809745436E+01  0.51100000000E-03 0.  1.
        -12    1    3    3    0    0  0.80055026867E+00 -0.23087316266E+01  0.37103998644E+01  0.44427682372E+01  0.00000000000E+00 0.  1.
</event>
<event>
 7    1  0.3851772E-009  0.4778727E+02  0.7816164E-02  0.1312668E+00
        -11   -1    0    0    0    0  0.00000000000E+00  0.00000000000E+00  0.45593999997E+02  0.45594000000E+02  0.51100000000E-03 0.  1.
         11   -1    0    0    0    0 -0.00000000000E+00 -0.00000000000E+00 -0.45593999997E+02  0.45594000000E+02  0.51100000000E-03 0. -1.
    9900012    2    1    2    0    0 -0.20756761509E+02 -0.36375093127E+02  0.11385638717E+02  0.47787270544E+02  0.19999997718E+02 0.  0.
         12    1    1    2    0    0  0.20756761509E+02  0.36375093127E+02 -0.11385638717E+02  0.43400729456E+02  0.00000000000E+00 0. -1.
         11    1    3    3    0    0 -0.11165545389E+02 -0.80359857741E+01  0.20650689838E+01  0.13910822455E+02  0.51100000000E-03 0. -1.
        -11    1    3    3    0    0 -0.11891683079E+02 -0.16498808317E+02  0.41687154222E+01  0.20760563356E+02  0.51100000000E-03 0.  1.
         12    1    3    3    0    0  0.23004669594E+01 -0.11840299036E+02  0.51518543111E+01  0.13115884733E+02  0.00000000000E+00 0. -1.
</event>
<event>
 7    1  0.3851772E-009  0.4778727E+02  0.7816164E-02  0.1312668E+00
        -11   -1    0    0    0    0  0.00000000000E+00  0.00000000000E+00  0.45593999997E+02  0.45594000000E+02  0.51100000000E-03 0.  1.
         11   -1    0    0    0    0 -0.00000000000E+00 -0.00000000000E+00 -0.45593999997E+02  0.45594000000E+02  0.51100000000E-03 0. -1.
    9900012    2    1    2    0    0  0.29419189487E+02  0.94315823387E+01  0.30482453809E+02  0.47787269065E+02  0.19999990975E+02 0.  0.
         12    1    1    2    0    0 -0.29419189487E+02 -0.94315823387E+01 -0.30482453809E+02  0.43400730935E+02  0.00000000000E+00 0. -1.
         11    1    3    3    0    0  0.73347162165E+01  0.30828274030E+01 -0.65742000344E+00  0.79833632070E+01  0.51100000000E-03 0. -1.
        -11    1    3    3    0    0  0.14487184043E+02 -0.52669895188E+00  0.17000862926E+02  0.22342454068E+02  0.51100000000E-03 0.  1.
        -12    1    3    3    0    0  0.75972892270E+01  0.68754538876E+01  0.14139010887E+02  0.17461451790E+02  0.00000000000E+00 0.  1.
</event>
<event>
 7    1  0.3851772E-009  0.4778727E+02  0.7816164E-02  0.1312668E+00
        -11   -1    0    0    0    0  0.00000000000E+00  0.00000000000E+00  0.45593999997E+02  0.45594000000E+02  0.51100000000E-03 0. -1.
         11   -1    0    0    0    0 -0.00000000000E+00 -0.00000000000E+00 -0.45593999997E+02  0.45594000000E+02  0.51100000000E-03 0.  1.
    9900012    2    1    2    0    0  0.43336942288E+02 -0.22019772740E+01 -0.82710101186E+00  0.47787269973E+02  0.19999995113E+02 0.  0.
         12    1    1    2    0    0 -0.43336942288E+02  0.22019772740E+01  0.82710101186E+00  0.43400730027E+02  0.00000000000E+00 0. -1.
         11    1    3    3    0    0  0.77303719457E+01  0.51375284843E+00  0.12675788525E+01  0.78504362183E+01  0.51100000000E-03 0. -1.
        -11    1    3    3    0    0  0.35079877080E+02 -0.68069569716E+01 -0.14663586586E+01  0.35764264946E+02  0.51100000000E-03 0.  1.
        -12    1    3    3    0    0  0.52669326310E+00  0.40912268492E+01 -0.62832120571E+00  0.41725688086E+01  0.00000000000E+00 0.  1.
</event>
<event>
 7    1  0.3851772E-009  0.4778727E+02  0.7816164E-02  0.1312668E+00
        -11   -1    0    0    0    0  0.00000000000E+00  0.00000000000E+00  0.45593999997E+02  0.45594000000E+02  0.51100000000E-03 0.  1.
         11   -1    0    0    0    0 -0.00000000000E+00 -0.00000000000E+00 -0.45593999997E+02  0.45594000000E+02  0.51100000000E-03 0. -1.
    9900012    2    1    2    0    0 -0.88765320084E+01 -0.33477287877E+01  0.42351188454E+02  0.47787271066E+02  0.20000000100E+02 0.  0.
         12    1    1    2    0    0  0.88765320084E+01  0.33477287877E+01 -0.42351188454E+02  0.43400728934E+02  0.00000000000E+00 0. -1.
         11    1    3    3    0    0 -0.12031479513E+01 -0.17704309291E+01  0.30346680018E+02  0.30422080453E+02  0.51100000000E-03 0. -1.
        -11    1    3    3    0    0 -0.24306405618E+01  0.33585791436E+01  0.82762952927E+01  0.92566263529E+01  0.51100000000E-03 0.  1.
         12    1    3    3    0    0 -0.52427434953E+01 -0.49358770021E+01  0.37282131427E+01  0.81085642610E+01  0.00000000000E+00 0. -1.
</event>
<event>
 7    1  0.3851772E-009  0.4778728E+02  0.7816164E-02  0.1312668E+00
        -11   -1    0    0    0    0  0.00000000000E+00  0.00000000000E+00  0.45593999997E+02  0.45594000000E+02  0.51100000000E-03 0. -1.
         11   -1    0    0    0    0 -0.00000000000E+00 -0.00000000000E+00 -0.45593999997E+02  0.45594000000E+02  0.51100000000E-03 0.  1.
    9900012    2    1    2    0    0 -0.78056544328E+01  0.54471955929E+01 -0.42344089801E+02  0.47787284314E+02  0.20000060501E+02 0.  0.
         12    1    1    2    0    0  0.78056544328E+01 -0.54471955929E+01  0.42344089801E+02  0.43400715686E+02  0.00000000000E+00 0. -1.
         11    1    3    3    0    0 -0.53155025538E+01  0.50959234601E+01 -0.35903544820E+01  0.81922920405E+01  0.51100000000E-03 0. -1.
        -11    1    3    3    0    0 -0.33109508280E+01 -0.19341542585E+01 -0.95585676310E+01  0.10299007889E+02  0.51100000000E-03 0.  1.
         12    1    3    3    0    0  0.82079894897E+00  0.22854263914E+01 -0.29195167688E+02  0.29295984384E+02  0.00000000000E+00 0. -1.
</event>
<event>
 7    1  0.3851772E-009  0.4778727E+02  0.7816164E-02  0.1312668E+00
        -11   -1    0    0    0    0  0.00000000000E+00  0.00000000000E+00  0.45593999997E+02  0.45594000000E+02  0.51100000000E-03 0. -1.
         11   -1    0    0    0    0 -0.00000000000E+00 -0.00000000000E+00 -0.45593999997E+02  0.45594000000E+02  0.51100000000E-03 0.  1.
    9900012    2    1    2    0    0  0.16550308635E+02 -0.39996377943E+02 -0.31623576494E+01  0.47787268781E+02  0.19999989679E+02 0.  0.
         12    1    1    2    0    0 -0.16550308635E+02  0.39996377943E+02  0.31623576494E+01  0.43400731219E+02  0.00000000000E+00 0. -1.
         11    1    3    3    0    0  0.11024568773E+01 -0.23815264604E+02  0.31493837332E+00  0.23842848524E+02  0.51100000000E-03 0. -1.
        -11    1    3    3    0    0  0.13701608990E+02 -0.11517718348E+02 -0.52583194178E+01  0.18655879723E+02  0.51100000000E-03 0.  1.
        -12    1    3    3    0    0  0.17462427682E+01 -0.46633949905E+01  0.17810233950E+01  0.52885405337E+01  0.00000000000E+00 0.  1.
</event>
<event>
 7    1  0.3851772E-009  0.4778727E+02  0.7816164E-02  0.1312668E+00
        -11   -1    0    0    0    0  0.00000000000E+00  0.00000000000E+00  0.45593999997E+02  0.45594000000E+02  0.51100000000E-03 0.  1.
         11   -1    0    0    0    0 -0.00000000000E+00 -0.00000000000E+00 -0.45593999997E+02  0.45594000000E+02  0.51100000000E-03 0. -1.
    9900012    2    1    2    0    0  0.95232902058E+01 -0.37115568433E+02  0.20380502437E+02  0.47787270098E+02  0.19999995684E+02 0.  0.
         12    1    1    2    0    0 -0.95232902058E+01  0.37115568433E+02 -0.20380502437E+02  0.43400729902E+02  0.00000000000E+00 0. -1.
         11    1    3    3    0    0  0.11370597320E+01 -0.31447748090E+02  0.16838739092E+02  0.35690291386E+02  0.51100000000E-03 0.  1.
        -11    1    3    3    0    0  0.31756040873E+01 -0.21482965266E+01 -0.14186148836E+01  0.40880444879E+01  0.51100000000E-03 0. -1.
        -12    1    3    3    0    0  0.52106263865E+01 -0.35195238170E+01  0.49603782279E+01  0.80089342238E+01  0.00000000000E+00 0.  1.
</event>
<event>
 7    1  0.3851772E-009  0.4778727E+02  0.7816164E-02  0.1312668E+00
        -11   -1    0    0    0    0  0.00000000000E+00  0.00000000000E+00  0.45593999997E+02  0.45594000000E+02  0.51100000000E-03 0. -1.
         11   -1    0    0    0    0 -0.00000000000E+00 -0.00000000000E+00 -0.45593999997E+02  0.45594000000E+02  0.51100000000E-03 0.  1.
    9900012    2    1    2    0    0  0.54636880823E+01  0.35351388035E+02 -0.24577442441E+02  0.47787271890E+02  0.20000003857E+02 0.  0.
         12    1    1    2    0    0 -0.54636880823E+01 -0.35351388035E+02  0.24577442441E+02  0.43400728110E+02  0.00000000000E+00 0. -1.
         11    1    3    3    0    0 -0.72041810244E+01  0.14199690244E+02 -0.68518046358E+01  0.17334320128E+02  0.51100000000E-03 0. -1.
        -11    1    3    3    0    0  0.73310070966E+00  0.25760116979E+01 -0.21099606473E+01  0.34095757966E+01  0.51100000000E-03 0.  1.
         12    1    3    3    0    0  0.11934768397E+02  0.18575686093E+02 -0.15615677158E+02  0.27043375966E+02  0.00000000000E+00 0. -1.
</event>
<event>
 7    1  0.3851772E-009  0.4778726E+02  0.7816164E-02  0.1312668E+00
        -11   -1    0    0    0    0  0.00000000000E+00  0.00000000000E+00  0.45593999997E+02  0.45594000000E+02  0.51100000000E-03 0.  1.
         11   -1    0    0    0    0 -0.00000000000E+00 -0.00000000000E+00 -0.45593999997E+02  0.45594000000E+02  0.51100000000E-03 0. -1.
    9900012    2    1    2    0    0  0.17225047147E+02  0.39069098132E+02  0.77799338692E+01  0.47787262114E+02  0.19999959283E+02 0.  0.
         12    1    1    2    0    0 -0.17225047147E+02 -0.39069098132E+02 -0.77799338692E+01  0.43400737886E+02  0.00000000000E+00 0. -1.
         11    1    3    3    0    0  0.98811725563E+01  0.64183558477E+01 -0.31512494086E+01  0.12196853527E+02  0.51100000000E-03 0. -1.
        -11    1    3    3    0    0  0.26051328772E+01  0.17088625183E+02  0.80542471469E+01  0.19070362485E+02  0.51100000000E-03 0.  1.
         12    1    3    3    0    0  0.47387417139E+01  0.15562117101E+02  0.28769361308E+01  0.16520046101E+02  0.00000000000E+00 0. -1.
</event>
<event>
 7    1  0.3851772E-009  0.4778727E+02  0.7816164E-02  0.1312668E+00
        -11   -1    0    0    0    0  0.00000000000E+00  0.00000000000E+00  0.45593999997E+02  0.45594000000E+02  0.51100000000E-03 0. -1.
         11   -1    0    0    0    0 -0.00000000000E+00 -0.00000000000E+00 -0.45593999997E+02  0.45594000000E+02  0.51100000000E-03 0.  1.
    9900012    2    1    2    0    0 -0.33122419929E+02  0.22231737326E+02 -0.17096152717E+02  0.47787270925E+02  0.19999999457E+02 0.  0.
         12    1    1    2    0    0  0.33122419929E+02 -0.22231737326E+02  0.17096152717E+02  0.43400729075E+02  0.00000000000E+00 0. -1.
         11    1    3    3    0    0 -0.17307850619E+01  0.88082067098E+01 -0.25166642625E+01  0.93227529005E+01  0.51100000000E-03 0. -1.
        -11    1    3    3    0    0 -0.27142668678E+02  0.72511298564E+01 -0.11212437149E+02  0.30249332129E+02  0.51100000000E-03 0.  1.
        -12    1    3    3    0    0 -0.42489661897E+01  0.61724007596E+01 -0.33670513054E+01  0.82151858963E+01  0.00000000000E+00 0.  1.
</event>
<event>
 7    1  0.3851772E-009  0.4778727E+02  0.7816164E-02  0.1312668E+00
        -11   -1    0    0    0    0  0.00000000000E+00  0.00000000000E+00  0.45593999997E+02  0.45594000000E+02  0.51100000000E-03 0. -1.
         11   -1    0    0    0    0 -0.00000000000E+00 -0.00000000000E+00 -0.45593999997E+02  0.45594000000E+02  0.51100000000E-03 0.  1.
    9900012    2    1    2    0    0 -0.39683495612E+02 -0.16250313299E+02  0.66910874791E+01  0.47787272379E+02  0.20000006087E+02 0.  0.
         12    1    1    2    0    0  0.39683495612E+02  0.16250313299E+02 -0.66910874791E+01  0.43400727621E+02  0.00000000000E+00 0. -1.
         11    1    3    3    0    0 -0.37806477746E+00 -0.17560034039E+01 -0.24556901206E+01  0.30425146113E+01  0.51100000000E-03 0. -1.
        -11    1    3    3    0    0 -0.32066167071E+02 -0.77910651827E+01  0.30335956695E+01  0.33138232757E+02  0.51100000000E-03 0.  1.
        -12    1    3    3    0    0 -0.72392637636E+01 -0.67032447127E+01  0.61131819301E+01  0.11606525011E+02  0.00000000000E+00 0.  1.
</event>
<event>
 7    1  0.3851772E-009  0.4778727E+02  0.7816164E-02  0.1312668E+00
        -11   -1    0    0    0    0  0.00000000000E+00  0.00000000000E+00  0.45593999997E+02  0.45594000000E+02  0.51100000000E-03 0.  1.
         11   -1    0    0    0    0 -0.00000000000E+00 -0.00000000000E+00 -0.45593999997E+02  0.45594000000E+02  0.51100000000E-03 0. -1.
    9900012    2    1    2    0    0 -0.10162768763E+02  0.29348328730E+02  0.30315292878E+02  0.47787271314E+02  0.20000001229E+02 0.  0.
         12    1    1    2    0    0  0.10162768763E+02 -0.29348328730E+02 -0.30315292878E+02  0.43400728686E+02  0.00000000000E+00 0. -1.
         11    1    3    3    0    0  0.50513980906E+01  0.62335274062E+01  0.82180146842E+01  0.11485175323E+02  0.51100000000E-03 0. -1.
        -11    1    3    3    0    0 -0.10227695339E+02  0.19743518065E+02  0.14240387714E+02  0.26404562106E+02  0.51100000000E-03 0.  1.
        -12    1    3    3    0    0 -0.49864715149E+01  0.33712832592E+01  0.78568904799E+01  0.98975338845E+01  0.00000000000E+00 0.  1.
</event>
<event>
 7    1  0.3851772E-009  0.4778727E+02  0.7816164E-02  0.1312668E+00
        -11   -1    0    0    0    0  0.00000000000E+00  0.00000000000E+00  0.45593999997E+02  0.45594000000E+02  0.51100000000E-03 0.  1.
         11   -1    0    0    0    0 -0.00000000000E+00 -0.00000000000E+00 -0.45593999997E+02  0.45594000000E+02  0.51100000000E-03 0. -1.
    9900012    2    1    2    0    0 -0.17534927150E+02  0.23110973415E+02  0.32280526097E+02  0.47787272732E+02  0.20000007693E+02 0.  0.
         12    1    1    2    0    0  0.17534927150E+02 -0.23110973415E+02 -0.32280526097E+02  0.43400727268E+02  0.00000000000E+00 0. -1.
         11    1    3    3    0    0 -0.19978432188E+02  0.14117474258E+02  0.18418622701E+02  0.30621667077E+02  0.51100000000E-03 0. -1.
        -11    1    3    3    0    0  0.18450354074E+00  0.72494683428E+01  0.10406878823E+02  0.12684319450E+02  0.51100000000E-03 0.  1.
         12    1    3    3    0    0  0.22590014977E+01  0.17440308140E+01  0.34550245733E+01  0.44812862048E+01  0.00000000000E+00 0. -1.
</event>
<event>
 7    1  0.3851772E-009  0.4778727E+02  0.7816164E-02  0.1312668E+00
        -11   -1    0    0    0    0  0.00000000000E+00  0.00000000000E+00  0.45593999997E+02  0.45594000000E+02  0.51100000000E-03 0.  1.
         11   -1    0    0    0    0 -0.00000000000E+00 -0.00000000000E+00 -0.45593999997E+02  0.45594000000E+02  0.51100000000E-03 0. -1.
    9900012    2    1    2    0    0 -0.25771669113E+02  0.20291782429E+02  0.28419848035E+02  0.47787272755E+02  0.20000007801E+02 0.  0.
         12    1    1    2    0    0  0.25771669113E+02 -0.20291782429E+02 -0.28419848035E+02  0.43400727245E+02  0.00000000000E+00 0. -1.
         11    1    3    3    0    0 -0.15107797354E+02  0.58382028581E+01  0.35974526632E+01  0.16591317591E+02  0.51100000000E-03 0. -1.
        -11    1    3    3    0    0 -0.73712123233E+01  0.82275875964E+01  0.19332734004E+02  0.22266175539E+02  0.51100000000E-03 0.  1.
         12    1    3    3    0    0 -0.32926594362E+01  0.62259919742E+01  0.54896613676E+01  0.89297796253E+01  0.00000000000E+00 0. -1.
</event>
<event>
 7    1  0.3851772E-009  0.4778725E+02  0.7816164E-02  0.1312668E+00
        -11   -1    0    0    0    0  0.00000000000E+00  0.00000000000E+00  0.45593999997E+02  0.45594000000E+02  0.51100000000E-03 0. -1.
         11   -1    0    0    0    0 -0.00000000000E+00 -0.00000000000E+00 -0.45593999997E+02  0.45594000000E+02  0.51100000000E-03 0.  1.
    9900012    2    1    2    0    0 -0.34664625237E+02  0.12729415986E+02 -0.22802427364E+02  0.47787251529E+02  0.19999911019E+02 0.  0.
         12    1    1    2    0    0  0.34664625237E+02 -0.12729415986E+02  0.22802427364E+02  0.43400748471E+02  0.00000000000E+00 0. -1.
         11    1    3    3    0    0 -0.15960375475E+02  0.12430718042E+02 -0.16684720423E+02  0.26222818922E+02  0.51100000000E-03 0. -1.
        -11    1    3    3    0    0 -0.19341261615E+02 -0.69382917146E+00 -0.63371986716E+01  0.20364819838E+02  0.51100000000E-03 0.  1.
         12    1    3    3    0    0  0.63701185270E+00  0.99252711526E+00  0.21949173030E+00  0.11996127686E+01  0.00000000000E+00 0. -1.
</event>
<event>
 7    1  0.3851772E-009  0.4778727E+02  0.7816164E-02  0.1312668E+00
        -11   -1    0    0    0    0  0.00000000000E+00  0.00000000000E+00  0.45593999997E+02  0.45594000000E+02  0.51100000000E-03 0. -1.
         11   -1    0    0    0    0 -0.00000000000E+00 -0.00000000000E+00 -0.45593999997E+02  0.45594000000E+02  0.51100000000E-03 0.  1.
    9900012    2    1    2    0    0  0.22178220646E+01  0.34755048770E+02 -0.25899641339E+02  0.47787267619E+02  0.19999984381E+02 0.  0.
         12    1    1    2    0    0 -0.22178220646E+01 -0.34755048770E+02  0.25899641339E+02  0.43400732381E+02  0.00000000000E+00 0. -1.
         11    1    3    3    0    0  0.36359685897E+01  0.73640386000E+01  0.42773244671E+00  0.82238851764E+01  0.51100000000E-03 0. -1.
        -11    1    3    3    0    0 -0.41782997177E+01  0.25714268923E+02 -0.21617365224E+02  0.33852507946E+02  0.51100000000E-03 0.  1.
        -12    1    3    3    0    0  0.27601531926E+01  0.16767412478E+01 -0.47100085621E+01  0.57108744964E+01  0.00000000000E+00 0.  1.
</event>
<event>
 7    1  0.3851772E-009  0.4778727E+02  0.7816164E-02  0.1312668E+00
        -11   -1    0    0    0    0  0.00000000000E+00  0.00000000000E+00  0.45593999997E+02  0.45594000000E+02  0.51100000000E-03 0. -1.
         11   -1    0    0    0    0 -0.00000000000E+00 -0.00000000000E+00 -0.45593999997E+02  0.45594000000E+02  0.51100000000E-03 0.  1.
    9900012    2    1    2    0    0  0.20812280943E+02 -0.35942848712E+02 -0.12593023163E+02  0.47787266780E+02  0.19999980559E+02 0.  0.
         12    1    1    2    0    0 -0.20812280943E+02  0.35942848712E+02  0.12593023163E+02  0.43400733220E+02  0.00000000000E+00 0. -1.
         11    1    3    3    0    0  0.12216257277E+02 -0.22393839079E+02  0.25545082319E+00  0.25510512067E+02  0.51100000000E-03 0. -1.
        -11    1    3    3    0    0  0.66774670259E+01 -0.52880118849E+01 -0.10413321872E+02  0.13453211819E+02  0.51100000000E-03 0.  1.
         12    1    3    3    0    0  0.19185566395E+01 -0.82609977486E+01 -0.24351521144E+01  0.88235428939E+01  0.00000000000E+00 0. -1.
</event>
<event>
 7    1  0.3851772E-009  0.4778727E+02  0.7816164E-02  0.1312668E+00
        -11   -1    0    0    0    0  0.00000000000E+00  0.00000000000E+00  0.45593999997E+02  0.45594000000E+02  0.51100000000E-03 0.  1.
         11   -1    0    0    0    0 -0.00000000000E+00 -0.00000000000E+00 -0.45593999997E+02  0.45594000000E+02  0.51100000000E-03 0. -1.
    9900012    2    1    2    0    0 -0.12378188205E+02  0.10143628534E+02  0.40342415953E+02  0.47787271112E+02  0.20000000306E+02 0.  0.
         12    1    1    2    0    0  0.12378188205E+02 -0.10143628534E+02 -0.40342415953E+02  0.43400728888E+02  0.00000000000E+00 0. -1.
         11    1    3    3    0    0 -0.11958797906E+02  0.85914561739E+01  0.15279035243E+02  0.21219681543E+02  0.51100000000E-03 0. -1.
        -11    1    3    3    0    0  0.27578461844E+01 -0.24238825343E+01  0.91120310505E+01  0.98239519667E+01  0.51100000000E-03 0.  1.
        -12    1    3    3    0    0 -0.31772364841E+01  0.39760548943E+01  0.15951349659E+02  0.16743637602E+02  0.00000000000E+00 0.  1.
</event>
<event>
 7    1  0.3851772E-009  0.4778727E+02  0.7816164E-02  0.1312668E+00
        -11   -1    0    0    0    0  0.00000000000E+00  0.00000000000E+00  0.45593999997E+02  0.45594000000E+02  0.51100000000E-03 0.  1.
         11   -1    0    0    0    0 -0.00000000000E+00 -0.00000000000E+00 -0.45593999997E+02  0.45594000000E+02  0.51100000000E-03 0. -1.
    9900012    2    1    2    0    0  0.86056417602E+01  0.33313338325E+02  0.26453504195E+02  0.47787268847E+02  0.19999989980E+02 0.  0.
         12    1    1    2    0    0 -0.86056417602E+01 -0.33313338325E+02 -0.26453504195E+02  0.43400731153E+02  0.00000000000E+00 0. -1.
         11    1    3    3    0    0  0.46961057307E+00 -0.22517125591E+00 -0.10194952272E+01  0.11448174371E+01  0.51100000000E-03 0. -1.
        -11    1    3    3    0    0  0.23319164046E+01  0.22732204282E+02  0.91995955646E+01  0.24633787862E+02  0.51100000000E-03 0.  1.
        -12    1    3    3    0    0  0.58041147825E+01  0.10806305299E+02  0.18273403857E+02  0.22008663548E+02  0.00000000000E+00 0.  1.
</event>
<event>
 7    1  0.3851772E-009  0.4778727E+02  0.7816164E-02  0.1312668E+00
        -11   -1    0    0    0    0  0.00000000000E+00  0.00000000000E+00  0.45593999997E+02  0.45594000000E+02  0.51100000000E-03 0.  1.
         11   -1    0    0    0    0 -0.00000000000E+00 -0.00000000000E+00 -0.45593999997E+02  0.45594000000E+02  0.51100000000E-03 0. -1.
    9900012    2    1    2    0    0  0.29434319823E+02 -0.27173725554E+02  0.16698283593E+02  0.47787271678E+02  0.20000002887E+02 0.  0.
         12    1    1    2    0    0 -0.29434319823E+02  0.27173725554E+02 -0.16698283593E+02  0.43400728322E+02  0.00000000000E+00 0. -1.
         11    1    3    3    0    0  0.21634199531E+01 -0.85721204916E+01  0.17842461271E+00  0.88427072337E+01  0.51100000000E-03 0. -1.
        -11    1    3    3    0    0  0.13384455658E+02 -0.31200445860E+01  0.10495698065E+02  0.17292715507E+02  0.51100000000E-03 0.  1.
         12    1    3    3    0    0  0.13886444212E+02 -0.15481560477E+02  0.60241609153E+01  0.21651848937E+02  0.00000000000E+00 0. -1.
</event>
<event>
 7    1  0.3851772E-009  0.4778727E+02  0.7816164E-02  0.1312668E+00
        -11   -1    0    0    0    0  0.00000000000E+00  0.00000000000E+00  0.45593999997E+02  0.45594000000E+02  0.51100000000E-03 0.  1.
         11   -1    0    0    0    0 -0.00000000000E+00 -0.00000000000E+00 -0.45593999997E+02  0.45594000000E+02  0.51100000000E-03 0. -1.
    9900012    2    1    2    0    0  0.19891032879E+02  0.30371830819E+01  0.38454461505E+02  0.47787270977E+02  0.19999999693E+02 0.  0.
         12    1    1    2    0    0 -0.19891032879E+02 -0.30371830819E+01 -0.38454461505E+02  0.43400729023E+02  0.00000000000E+00 0. -1.
         11    1    3    3    0    0  0.24272859747E+01  0.60007509200E+01  0.29924843616E+01  0.71313176708E+01  0.51100000000E-03 0. -1.
        -11    1    3    3    0    0  0.10452183375E+02 -0.14943816980E+01  0.29510537594E+02  0.31342513353E+02  0.51100000000E-03 0.  1.
        -12    1    3    3    0    0  0.70115635300E+01 -0.14691861401E+01  0.59514395495E+01  0.93134399532E+01  0.00000000000E+00 0.  1.
</event>
<event>
 7    1  0.3851772E-009  0.4778727E+02  0.7816164E-02  0.1312668E+00
        -11   -1    0    0    0    0  0.00000000000E+00  0.00000000000E+00  0.45593999997E+02  0.45594000000E+02  0.51100000000E-03 0. -1.
         11   -1    0    0    0    0 -0.00000000000E+00 -0.00000000000E+00 -0.45593999997E+02  0.45594000000E+02  0.51100000000E-03 0.  1.
    9900012    2    1    2    0    0  0.19307738141E+02 -0.25188823029E+02 -0.29603337163E+02  0.47787272715E+02  0.20000007616E+02 0.  0.
         12    1    1    2    0    0 -0.19307738141E+02  0.25188823029E+02  0.29603337163E+02  0.43400727285E+02  0.00000000000E+00 0. -1.
         11    1    3    3    0    0  0.96589681163E+01 -0.18459420633E+02 -0.16330941187E+02  0.26471598280E+02  0.51100000000E-03 0.  1.
        -11    1    3    3    0    0  0.15986589706E+01  0.32954358325E+00 -0.99823161790E+01  0.10114887347E+02  0.51100000000E-03 0. -1.
         12    1    3    3    0    0  0.80501110539E+01 -0.70589459796E+01 -0.32900797962E+01  0.11200787088E+02  0.00000000000E+00 0. -1.
</event>
<event>
 7    1  0.3851772E-009  0.4778727E+02  0.7816164E-02  0.1312668E+00
        -11   -1    0    0    0    0  0.00000000000E+00  0.00000000000E+00  0.45593999997E+02  0.45594000000E+02  0.51100000000E-03 0.  1.
         11   -1    0    0    0    0 -0.00000000000E+00 -0.00000000000E+00 -0.45593999997E+02  0.45594000000E+02  0.51100000000E-03 0. -1.
    9900012    2    1    2    0    0  0.15870584737E+02 -0.39103652900E+02  0.10131758110E+02  0.47787266684E+02  0.19999980118E+02 0.  0.
         12    1    1    2    0    0 -0.15870584737E+02  0.39103652900E+02 -0.10131758110E+02  0.43400733316E+02  0.00000000000E+00 0. -1.
         11    1    3    3    0    0  0.56135160436E+01 -0.43223109447E+01 -0.13278619116E+01  0.72081309500E+01  0.51100000000E-03 0. -1.
        -11    1    3    3    0    0  0.55220320784E+01 -0.30077893312E+02  0.13741009580E+02  0.33525928010E+02  0.51100000000E-03 0.  1.
        -12    1    3    3    0    0  0.47350366147E+01 -0.47034486431E+01 -0.22813895590E+01  0.70532077242E+01  0.00000000000E+00 0.  1.
</event>
<event>
 7    1  0.3851772E-009  0.4778727E+02  0.7816164E-02  0.1312668E+00
        -11   -1    0    0    0    0  0.00000000000E+00  0.00000000000E+00  0.45593999997E+02  0.45594000000E+02  0.51100000000E-03 0.  1.
         11   -1    0    0    0    0 -0.00000000000E+00 -0.00000000000E+00 -0.45593999997E+02  0.45594000000E+02  0.51100000000E-03 0. -1.
    9900012    2    1    2    0    0  0.16631882335E+02 -0.81009244691E+00  0.40079265682E+02  0.47787270774E+02  0.19999998766E+02 0.  0.
         12    1    1    2    0    0 -0.16631882335E+02  0.81009244691E+00 -0.40079265682E+02  0.43400729226E+02  0.00000000000E+00 0. -1.
         11    1    3    3    0    0  0.42812173454E+01  0.69134778299E+01  0.16158842457E+02  0.18089587820E+02  0.51100000000E-03 0. -1.
        -11    1    3    3    0    0  0.47750384122E+01 -0.73779619784E+01  0.18158939119E+02  0.20173804425E+02  0.51100000000E-03 0.  1.
         12    1    3    3    0    0  0.75756265774E+01 -0.34560829834E+00  0.57614841055E+01  0.95238785290E+01  0.00000000000E+00 0. -1.
</event>
<event>
 7    1  0.3851772E-009  0.4778727E+02  0.7816164E-02  0.1312668E+00
        -11   -1    0    0    0    0  0.00000000000E+00  0.00000000000E+00  0.45593999997E+02  0.45594000000E+02  0.51100000000E-03 0.  1.
         11   -1    0    0    0    0 -0.00000000000E+00 -0.00000000000E+00 -0.45593999997E+02  0.45594000000E+02  0.51100000000E-03 0. -1.
    9900012    2    1    2    0    0 -0.60731361220E+00 -0.30810408446E+02  0.30560976391E+02  0.47787269863E+02  0.19999994615E+02 0.  0.
         12    1    1    2    0    0  0.60731361220E+00  0.30810408446E+02 -0.30560976391E+02  0.43400730137E+02  0.00000000000E+00 0. -1.
         11    1    3    3    0    0 -0.86295678533E+00 -0.25323985126E+02  0.15139727198E+02  0.29517118033E+02  0.51100000000E-03 0. -1.
        -11    1    3    3    0    0  0.36166294870E+01 -0.31873794913E+00  0.58932472650E+01  0.69218470305E+01  0.51100000000E-03 0.  1.
        -12    1    3    3    0    0 -0.33609863139E+01 -0.51676853713E+01  0.95280019279E+01  0.11348304800E+02  0.00000000000E+00 0.  1.
</event>
<event>
 7    1  0.3851772E-009  0.4778726E+02  0.7816164E-02  0.1312668E+00
        -11   -1    0    0    0    0  0.00000000000E+00  0.00000000000E+00  0.45593999997E+02  0.45594000000E+02  0.51100000000E-03 0.  1.
         11   -1    0    0    0    0 -0.00000000000E+00 -0.00000000000E+00 -0.45593999997E+02  0.45594000000E+02  0.51100000000E-03 0. -1.
    9900012    2    1    2    0    0 -0.93667136546E+01  0.10831528321E+02  0.40970317158E+02  0.47787260162E+02  0.19999950384E+02 0.  0.
         12    1    1    2    0    0  0.93667136546E+01 -0.10831528321E+02 -0.40970317158E+02  0.43400739838E+02  0.00000000000E+00 0. -1.
         11    1    3    3    0    0 -0.44854556234E+01 -0.33224923162E+01  0.52310962234E+01  0.76500088432E+01  0.51100000000E-03 0. -1.
        -11    1    3    3    0    0 -0.14128094458E+01  0.11343070770E+02  0.32942009282E+02  0.34868858037E+02  0.51100000000E-03 0.  1.
         12    1    3    3    0    0 -0.34684485854E+01  0.28109498676E+01  0.27972116521E+01  0.52683932821E+01  0.00000000000E+00 0. -1.
</event>
<event>
 7    1  0.3851772E-009  0.4778727E+02  0.7816164E-02  0.1312668E+00
        -11   -1    0    0    0    0  0.00000000000E+00  0.00000000000E+00  0.45593999997E+02  0.45594000000E+02  0.51100000000E-03 0.  1.
         11   -1    0    0    0    0 -0.00000000000E+00 -0.00000000000E+00 -0.45593999997E+02  0.45594000000E+02  0.51100000000E-03 0. -1.
    9900012    2    1    2    0    0  0.43525038679E+01  0.24205331616E+02  0.35760046250E+02  0.47787271016E+02  0.19999999871E+02 0.  0.
         12    1    1    2    0    0 -0.43525038679E+01 -0.24205331616E+02 -0.35760046250E+02  0.43400728984E+02  0.00000000000E+00 0. -1.
         11    1    3    3    0    0 -0.12808644583E+01 -0.55949914955E+00  0.34981665083E+01  0.37670707771E+01  0.51100000000E-03 0. -1.
        -11    1    3    3    0    0  0.40341586497E+01  0.70791037456E+01  0.22113982084E+02  0.23567272853E+02  0.51100000000E-03 0.  1.
        -12    1    3    3    0    0  0.15992096764E+01  0.17685727020E+02  0.10147897657E+02  0.20452927386E+02  0.00000000000E+00 0.  1.
</event>
<event>
 7    1  0.3851772E-009  0.4778727E+02  0.7816164E-02  0.1312668E+00
        -11   -1    0    0    0    0  0.00000000000E+00  0.00000000000E+00  0.45593999997E+02  0.45594000000E+02  0.51100000000E-03 0. -1.
         11   -1    0    0    0    0 -0.00000000000E+00 -0.00000000000E+00 -0.45593999997E+02  0.45594000000E+02  0.51100000000E-03 0.  1.
    9900012    2    1    2    0    0  0.35005406667E+02 -0.21651418551E+02 -0.13764494021E+02  0.47787265941E+02  0.19999976733E+02 0.  0.
         12    1    1    2    0    0 -0.35005406667E+02  0.21651418551E+02  0.13764494021E+02  0.43400734059E+02  0.00000000000E+00 0. -1.
         11    1    3    3    0    0  0.16786183587E+02 -0.77211515975E+01 -0.12191611505E+02  0.22136565514E+02  0.51100000000E-03 0.  1.
        -11    1    3    3    0    0  0.14788708715E+02 -0.14196805094E+02  0.21125498209E+01  0.20608688637E+02  0.51100000000E-03 0. -1.
         12    1    3    3    0    0  0.34305143650E+01  0.26653814018E+00 -0.36854323364E+01  0.50420117905E+01  0.00000000000E+00 0. -1.
</event>
<event>
 7    1  0.3851772E-009  0.4778727E+02  0.7816164E-02  0.1312668E+00
        -11   -1    0    0    0    0  0.00000000000E+00  0.00000000000E+00  0.45593999997E+02  0.45594000000E+02  0.51100000000E-03 0.  1.
         11   -1    0    0    0    0 -0.00000000000E+00 -0.00000000000E+00 -0.45593999997E+02  0.45594000000E+02  0.51100000000E-03 0. -1.
    9900012    2    1    2    0    0 -0.15783890834E+02 -0.38315425397E+02  0.12900400782E+02  0.47787269896E+02  0.19999994765E+02 0.  0.
         12    1    1    2    0    0  0.15783890834E+02  0.38315425397E+02 -0.12900400782E+02  0.43400730104E+02  0.00000000000E+00 0. -1.
         11    1    3    3    0    0  0.17689625440E+00 -0.95746853035E-01  0.18640721536E+01  0.18748933302E+01  0.51100000000E-03 0. -1.
        -11    1    3    3    0    0  0.32690609387E+01 -0.55602431882E+01  0.43682613375E-01  0.64501916378E+01  0.51100000000E-03 0.  1.
        -12    1    3    3    0    0 -0.19229848027E+02 -0.32659435356E+02  0.10992646014E+02  0.39462184928E+02  0.00000000000E+00 0.  1.
</event>
<event>
 7    1  0.3851772E-009  0.4778727E+02  0.7816164E-02  0.1312668E+00
        -11   -1    0    0    0    0  0.00000000000E+00  0.00000000000E+00  0.45593999997E+02  0.45594000000E+02  0.51100000000E-03 0.  1.
         11   -1    0    0    0    0 -0.00000000000E+00 -0.00000000000E+00 -0.45593999997E+02  0.45594000000E+02  0.51100000000E-03 0. -1.
    9900012    2    1    2    0    0  0.39538009364E+02  0.16293351011E+02  0.74091796496E+01  0.47787269421E+02  0.19999992600E+02 0.  0.
         12    1    1    2    0    0 -0.39538009364E+02 -0.16293351011E+02 -0.74091796496E+01  0.43400730579E+02  0.00000000000E+00 0. -1.
         11    1    3    3    0    0 -0.30730650988E+00  0.15093728437E+00  0.86286093932E-02  0.34248221683E+00  0.51100000000E-03 0. -1.
        -11    1    3    3    0    0  0.36671730520E+02  0.14714896653E+02  0.27487776658E+00  0.39514801795E+02  0.51100000000E-03 0.  1.
        -12    1    3    3    0    0  0.31735853541E+01  0.14275170740E+01  0.71256732736E+01  0.79299854097E+01  0.00000000000E+00 0.  1.
</event>
<event>
 7    1  0.3851772E-009  0.4778727E+02  0.7816164E-02  0.1312668E+00
        -11   -1    0    0    0    0  0.00000000000E+00  0.00000000000E+00  0.45593999997E+02  0.45594000000E+02  0.51100000000E-03 0.  1.
         11   -1    0    0    0    0 -0.00000000000E+00 -0.00000000000E+00 -0.45593999997E+02  0.45594000000E+02  0.51100000000E-03 0. -1.
    9900012    2    1    2    0    0  0.11295539804E+02 -0.40382414863E+02  0.11193510454E+02  0.47787270445E+02  0.19999997267E+02 0.  0.
         12    1    1    2    0    0 -0.11295539804E+02  0.40382414863E+02 -0.11193510454E+02  0.43400729555E+02  0.00000000000E+00 0. -1.
         11    1    3    3    0    0  0.33544635710E+01 -0.30080802147E+01 -0.28748765609E+01  0.53447065335E+01  0.51100000000E-03 0. -1.
        -11    1    3    3    0    0 -0.48245288306E+00 -0.24984532627E+02  0.10019251064E+02  0.26922946041E+02  0.51100000000E-03 0.  1.
         12    1    3    3    0    0  0.84235291165E+01 -0.12389802021E+02  0.40491359505E+01  0.15519617870E+02  0.00000000000E+00 0. -1.
</event>
<event>
 7    1  0.3851772E-009  0.4778728E+02  0.7816164E-02  0.1312668E+00
        -11   -1    0    0    0    0  0.00000000000E+00  0.00000000000E+00  0.45593999997E+02  0.45594000000E+02  0.51100000000E-03 0.  1.
         11   -1    0    0    0    0 -0.00000000000E+00 -0.00000000000E+00 -0.45593999997E+02  0.45594000000E+02  0.51100000000E-03 0. -1.
    9900012    2    1    2    0    0  0.79039518659E+01 -0.28679750757E+01  0.42578457842E+02  0.47787276408E+02  0.20000024454E+02 0.  0.
         12    1    1    2    0    0 -0.79039518659E+01  0.28679750757E+01 -0.42578457842E+02  0.43400723592E+02  0.00000000000E+00 0. -1.
         11    1    3    3    0    0  0.25113824369E+01 -0.22739497167E+01  0.28739779692E+01  0.44427062345E+01  0.51100000000E-03 0. -1.
        -11    1    3    3    0    0  0.11021098363E+02  0.11621560248E+01  0.21176270570E+02  0.23900829510E+02  0.51100000000E-03 0.  1.
        -12    1    3    3    0    0 -0.56285289340E+01 -0.17561813838E+01  0.18528209303E+02  0.19443740663E+02  0.00000000000E+00 0.  1.
</event>
<event>
 7    1  0.3851772E-009  0.4778727E+02  0.7816164E-02  0.1312668E+00
        -11   -1    0    0    0    0  0.00000000000E+00  0.00000000000E+00  0.45593999997E+02  0.45594000000E+02  0.51100000000E-03 0.  1.
         11   -1    0    0    0    0 -0.00000000000E+00 -0.00000000000E+00 -0.45593999997E+02  0.45594000000E+02  0.51100000000E-03 0. -1.
    9900012    2    1    2    0    0 -0.42271961287E+02 -0.94889543992E+01  0.25815281564E+01  0.47787271270E+02  0.20000001030E+02 0.  0.
         12    1    1    2    0    0  0.42271961287E+02  0.94889543992E+01 -0.25815281564E+01  0.43400728730E+02  0.00000000000E+00 0. -1.
         11    1    3    3    0    0 -0.99367621314E+01 -0.13142488943E+01 -0.36520061203E+01  0.10667878926E+02  0.51100000000E-03 0. -1.
        -11    1    3    3    0    0  0.39966407355E+00 -0.29369868696E+01  0.22671732718E+01  0.37317151753E+01  0.51100000000E-03 0.  1.
        -12    1    3    3    0    0 -0.32734863229E+02 -0.52377186353E+01  0.39663610050E+01  0.33387677169E+02  0.00000000000E+00 0.  1.
</event>
<event>
 7    1  0.3851772E-009  0.4778726E+02  0.7816164E-02  0.1312668E+00
        -11   -1    0    0    0    0  0.00000000000E+00  0.00000000000E+00  0.45593999997E+02  0.45594000000E+02  0.51100000000E-03 0.  1.
         11   -1    0    0    0    0 -0.00000000000E+00 -0.00000000000E+00 -0.45593999997E+02  0.45594000000E+02  0.51100000000E-03 0. -1.
    9900012    2    1    2    0    0  0.80529710814E+01 -0.33543154704E+02  0.26336876236E+02  0.47787255529E+02  0.19999929259E+02 0.  0.
         12    1    1    2    0    0 -0.80529710814E+01  0.33543154704E+02 -0.26336876236E+02  0.43400744471E+02  0.00000000000E+00 0. -1.
         11    1    3    3    0    0  0.10908028962E+02 -0.18359849054E+02  0.80657609559E+01  0.22828176738E+02  0.51100000000E-03 0. -1.
        -11    1    3    3    0    0 -0.32489880498E+01 -0.29251984012E+01  0.72719027344E+01  0.84848853071E+01  0.51100000000E-03 0.  1.
         12    1    3    3    0    0  0.39393016897E+00 -0.12258107249E+02  0.10999212546E+02  0.16474193484E+02  0.00000000000E+00 0. -1.
</event>
<event>
 7    1  0.3851772E-009  0.4778726E+02  0.7816164E-02  0.1312668E+00
        -11   -1    0    0    0    0  0.00000000000E+00  0.00000000000E+00  0.45593999997E+02  0.45594000000E+02  0.51100000000E-03 0.  1.
         11   -1    0    0    0    0 -0.00000000000E+00 -0.00000000000E+00 -0.45593999997E+02  0.45594000000E+02  0.51100000000E-03 0. -1.
    9900012    2    1    2    0    0  0.15441619118E+01 -0.15857644181E+01  0.43344260497E+02  0.47787262646E+02  0.19999961709E+02 0.  0.
         12    1    1    2    0    0 -0.15441619118E+01  0.15857644181E+01 -0.43344260497E+02  0.43400737354E+02  0.00000000000E+00 0. -1.
         11    1    3    3    0    0 -0.22042584447E+00 -0.37539067480E+01 -0.23467233619E+00  0.37676882557E+01  0.51100000000E-03 0. -1.
        -11    1    3    3    0    0 -0.15739187910E-02  0.34491689672E+01  0.34922372536E+02  0.35092290790E+02  0.51100000000E-03 0.  1.
        -12    1    3    3    0    0  0.17661616750E+01 -0.12810266372E+01  0.86565602974E+01  0.89272836008E+01  0.00000000000E+00 0.  1.
</event>
<event>
 7    1  0.3851772E-009  0.4778727E+02  0.7816164E-02  0.1312668E+00
        -11   -1    0    0    0    0  0.00000000000E+00  0.00000000000E+00  0.45593999997E+02  0.45594000000E+02  0.51100000000E-03 0. -1.
         11   -1    0    0    0    0 -0.00000000000E+00 -0.00000000000E+00 -0.45593999997E+02  0.45594000000E+02  0.51100000000E-03 0.  1.
    9900012    2    1    2    0    0 -0.13212883602E+02 -0.24298480065E+02 -0.33445878619E+02  0.47787271629E+02  0.20000002663E+02 0.  0.
         12    1    1    2    0    0  0.13212883602E+02  0.24298480065E+02  0.33445878619E+02  0.43400728371E+02  0.00000000000E+00 0. -1.
         11    1    3    3    0    0  0.40545244084E+01 -0.10676885227E+02 -0.10212443104E+02  0.15320869452E+02  0.51100000000E-03 0. -1.
        -11    1    3    3    0    0 -0.60347581045E+01 -0.16597980016E+01 -0.68444634083E+01  0.92746921455E+01  0.51100000000E-03 0.  1.
         12    1    3    3    0    0 -0.11232649906E+02 -0.11961796836E+02 -0.16388972107E+02  0.23191710031E+02  0.00000000000E+00 0. -1.
</event>
<event>
 7    1  0.3851772E-009  0.4778727E+02  0.7816164E-02  0.1312668E+00
        -11   -1    0    0    0    0  0.00000000000E+00  0.00000000000E+00  0.45593999997E+02  0.45594000000E+02  0.51100000000E-03 0.  1.
         11   -1    0    0    0    0 -0.00000000000E+00 -0.00000000000E+00 -0.45593999997E+02  0.45594000000E+02  0.51100000000E-03 0. -1.
    9900012    2    1    2    0    0  0.77815020895E+01 -0.38432278020E+02  0.18601930780E+02  0.47787267318E+02  0.19999983010E+02 0.  0.
         12    1    1    2    0    0 -0.77815020895E+01  0.38432278020E+02 -0.18601930780E+02  0.43400732682E+02  0.00000000000E+00 0. -1.
         11    1    3    3    0    0  0.61819745126E+01 -0.67631668834E+01 -0.71973762254E+00  0.91910422518E+01  0.51100000000E-03 0. -1.
        -11    1    3    3    0    0 -0.14499623647E+01 -0.23037804309E+02  0.18156147196E+02  0.29368154513E+02  0.51100000000E-03 0.  1.
        -12    1    3    3    0    0  0.30494899416E+01 -0.86313068275E+01  0.11655212069E+01  0.92280705534E+01  0.00000000000E+00 0.  1.
</event>
<event>
 7    1  0.3851772E-009  0.4778727E+02  0.7816164E-02  0.1312668E+00
        -11   -1    0    0    0    0  0.00000000000E+00  0.00000000000E+00  0.45593999997E+02  0.45594000000E+02  0.51100000000E-03 0.  1.
         11   -1    0    0    0    0 -0.00000000000E+00 -0.00000000000E+00 -0.45593999997E+02  0.45594000000E+02  0.51100000000E-03 0. -1.
    9900012    2    1    2    0    0 -0.26803613453E+02 -0.22764337470E+02  0.25435692147E+02  0.47787272015E+02  0.20000004426E+02 0.  0.
         12    1    1    2    0    0  0.26803613453E+02  0.22764337470E+02 -0.25435692147E+02  0.43400727985E+02  0.00000000000E+00 0. -1.
         11    1    3    3    0    0 -0.14182128462E+02 -0.96612606800E+01  0.78930206486E+01  0.18888422403E+02  0.51100000000E-03 0. -1.
        -11    1    3    3    0    0 -0.11339459157E+02 -0.13185439583E+02  0.19768238873E+02  0.26329117330E+02  0.51100000000E-03 0.  1.
        -12    1    3    3    0    0 -0.12820258343E+01  0.82362793487E-01 -0.22255673740E+01  0.25697322828E+01  0.00000000000E+00 0.  1.
</event>
<event>
 7    1  0.3851772E-009  0.4778727E+02  0.7816164E-02  0.1312668E+00
        -11   -1    0    0    0    0  0.00000000000E+00  0.00000000000E+00  0.45593999997E+02  0.45594000000E+02  0.51100000000E-03 0.  1.
         11   -1    0    0    0    0 -0.00000000000E+00 -0.00000000000E+00 -0.45593999997E+02  0.45594000000E+02  0.51100000000E-03 0. -1.
    9900012    2    1    2    0    0  0.22227190180E+02 -0.25771295170E+02  0.26933542286E+02  0.47787270304E+02  0.19999996626E+02 0.  0.
         12    1    1    2    0    0 -0.22227190180E+02  0.25771295170E+02 -0.26933542286E+02  0.43400729696E+02  0.00000000000E+00 0. -1.
         11    1    3    3    0    0  0.17388768108E-01 -0.71225790898E+00  0.45373456152E+01  0.45929423239E+01  0.51100000000E-03 0. -1.
        -11    1    3    3    0    0 -0.28976337937E+00 -0.44441846462E+01 -0.12085810266E+01  0.46146948269E+01  0.51100000000E-03 0.  1.
        -12    1    3    3    0    0  0.22499564792E+02 -0.20614852615E+02  0.23604777697E+02  0.38579633154E+02  0.00000000000E+00 0.  1.
</event>
<event>
 7    1  0.3851772E-009  0.4778726E+02  0.7816164E-02  0.1312668E+00
        -11   -1    0    0    0    0  0.00000000000E+00  0.00000000000E+00  0.45593999997E+02  0.45594000000E+02  0.51100000000E-03 0.  1.
         11   -1    0    0    0    0 -0.00000000000E+00 -0.00000000000E+00 -0.45593999997E+02  0.45594000000E+02  0.51100000000E-03 0. -1.
    9900012    2    1    2    0    0  0.40095662353E+02  0.15720386077E+02  0.53694647332E+01  0.47787264644E+02  0.19999970818E+02 0.  0.
         12    1    1    2    0    0 -0.40095662353E+02 -0.15720386077E+02 -0.53694647332E+01  0.43400735356E+02  0.00000000000E+00 0. -1.
         11    1    3    3    0    0  0.35893254264E+01  0.12658302792E+01 -0.27295592469E+01  0.46835966154E+01  0.51100000000E-03 0. -1.
        -11    1    3    3    0    0  0.36708796958E+02  0.11448268896E+02  0.97479426746E+01  0.39668892365E+02  0.51100000000E-03 0.  1.
        -12    1    3    3    0    0 -0.20246003152E+00  0.30062869014E+01 -0.16489186946E+01  0.34347756636E+01  0.00000000000E+00 0.  1.
</event>
<event>
 7    1  0.3851772E-009  0.4778727E+02  0.7816164E-02  0.1312668E+00
        -11   -1    0    0    0    0  0.00000000000E+00  0.00000000000E+00  0.45593999997E+02  0.45594000000E+02  0.51100000000E-03 0. -1.
         11   -1    0    0    0    0 -0.00000000000E+00 -0.00000000000E+00 -0.45593999997E+02  0.45594000000E+02  0.51100000000E-03 0.  1.
    9900012    2    1    2    0    0  0.12649158578E+02 -0.17489423637E+02 -0.37652919965E+02  0.47787268050E+02  0.19999986347E+02 0.  0.
         12    1    1    2    0    0 -0.12649158578E+02  0.17489423637E+02  0.37652919965E+02  0.43400731950E+02  0.00000000000E+00 0. -1.
         11    1    3    3    0    0  0.16552313323E+01 -0.67581782799E+01 -0.18618630223E+02  0.19876271181E+02  0.51100000000E-03 0. -1.
        -11    1    3    3    0    0  0.77416375524E+01  0.13564994384E+01 -0.65372152250E+01  0.10222926483E+02  0.51100000000E-03 0.  1.
        -12    1    3    3    0    0  0.32522896935E+01 -0.12087744795E+02 -0.12497074518E+02  0.17688070386E+02  0.00000000000E+00 0.  1.
</event>
<event>
 7    1  0.3851772E-009  0.4778727E+02  0.7816164E-02  0.1312668E+00
        -11   -1    0    0    0    0  0.00000000000E+00  0.00000000000E+00  0.45593999997E+02  0.45594000000E+02  0.51100000000E-03 0. -1.
         11   -1    0    0    0    0 -0.00000000000E+00 -0.00000000000E+00 -0.45593999997E+02  0.45594000000E+02  0.51100000000E-03 0.  1.
    9900012    2    1    2    0    0 -0.42010053794E+00 -0.89975309872E+01 -0.42455755811E+02  0.47787271321E+02  0.20000001263E+02 0.  0.
         12    1    1    2    0    0  0.42010053794E+00  0.89975309872E+01  0.42455755811E+02  0.43400728679E+02  0.00000000000E+00 0. -1.
         11    1    3    3    0    0 -0.15291271360E-01 -0.20620946970E+01  0.50193902834E+00  0.21223598686E+01  0.51100000000E-03 0. -1.
        -11    1    3    3    0    0 -0.98801934970E-01 -0.63614998400E+01 -0.43988411316E+02  0.44446133380E+02  0.51100000000E-03 0.  1.
        -12    1    3    3    0    0 -0.30600733161E+00 -0.57393645021E+00  0.10307164767E+01  0.12187780730E+01  0.00000000000E+00 0.  1.
</event>
<event>
 7    1  0.3851772E-009  0.4778727E+02  0.7816164E-02  0.1312668E+00
        -11   -1    0    0    0    0  0.00000000000E+00  0.00000000000E+00  0.45593999997E+02  0.45594000000E+02  0.51100000000E-03 0. -1.
         11   -1    0    0    0    0 -0.00000000000E+00 -0.00000000000E+00 -0.45593999997E+02  0.45594000000E+02  0.51100000000E-03 0.  1.
    9900012    2    1    2    0    0  0.99278856446E+01 -0.39094027144E+02 -0.16022405819E+02  0.47787270052E+02  0.19999995477E+02 0.  0.
         12    1    1    2    0    0 -0.99278856446E+01  0.39094027144E+02  0.16022405819E+02  0.43400729948E+02  0.00000000000E+00 0. -1.
         11    1    3    3    0    0 -0.11973483492E-01 -0.48771288737E+01 -0.33746633206E+01  0.59308416100E+01  0.51100000000E-03 0. -1.
        -11    1    3    3    0    0  0.60686522474E+01 -0.29756296289E+02 -0.29632790942E+01  0.30513058388E+02  0.51100000000E-03 0.  1.
        -12    1    3    3    0    0  0.38712068807E+01 -0.44606019814E+01 -0.96844634047E+01  0.11343370054E+02  0.00000000000E+00 0.  1.
</event>
<event>
 7    1  0.3851772E-009  0.4778727E+02  0.7816164E-02  0.1312668E+00
        -11   -1    0    0    0    0  0.00000000000E+00  0.00000000000E+00  0.45593999997E+02  0.45594000000E+02  0.51100000000E-03 0.  1.
         11   -1    0    0    0    0 -0.00000000000E+00 -0.00000000000E+00 -0.45593999997E+02  0.45594000000E+02  0.51100000000E-03 0. -1.
    9900012    2    1    2    0    0  0.41462090267E+02  0.12231602194E+02 -0.38609077187E+01  0.47787266942E+02  0.19999981297E+02 0.  0.
         12    1    1    2    0    0 -0.41462090267E+02 -0.12231602194E+02  0.38609077187E+01  0.43400733058E+02  0.00000000000E+00 0. -1.
         11    1    3    3    0    0  0.39650347636E+01  0.82443287759E+00 -0.39185650864E+01  0.56352766430E+01  0.51100000000E-03 0. -1.
        -11    1    3    3    0    0  0.29439025645E+02  0.18379012659E+01 -0.15609167142E+01  0.29537612856E+02  0.51100000000E-03 0.  1.
        -12    1    3    3    0    0  0.80580298582E+01  0.95692680503E+01  0.16185740819E+01  0.12614377443E+02  0.00000000000E+00 0.  1.
</event>
<event>
 7    1  0.3851772E-009  0.4778727E+02  0.7816164E-02  0.1312668E+00
        -11   -1    0    0    0    0  0.00000000000E+00  0.00000000000E+00  0.45593999997E+02  0.45594000000E+02  0.51100000000E-03 0. -1.
         11   -1    0    0    0    0 -0.00000000000E+00 -0.00000000000E+00 -0.45593999997E+02  0.45594000000E+02  0.51100000000E-03 0.  1.
    9900012    2    1    2    0    0 -0.16130588948E+02  0.40035354188E+02 -0.45384761578E+01  0.47787271313E+02  0.20000001223E+02 0.  0.
         12    1    1    2    0    0  0.16130588948E+02 -0.40035354188E+02  0.45384761578E+01  0.43400728687E+02  0.00000000000E+00 0. -1.
         11    1    3    3    0    0 -0.12012910044E+02  0.10086732735E+02  0.12824556119E+01  0.15738388661E+02  0.51100000000E-03 0. -1.
        -11    1    3    3    0    0  0.53600683325E+00  0.21215558726E+02 -0.63119566464E+01  0.22141093748E+02  0.51100000000E-03 0.  1.
        -12    1    3    3    0    0 -0.46536857369E+01  0.87330627267E+01  0.49102487667E+00  0.99077889034E+01  0.00000000000E+00 0.  1.
</event>
<event>
 7    1  0.3851772E-009  0.4778726E+02  0.7816164E-02  0.1312668E+00
        -11   -1    0    0    0    0  0.00000000000E+00  0.00000000000E+00  0.45593999997E+02  0.45594000000E+02  0.51100000000E-03 0.  1.
         11   -1    0    0    0    0 -0.00000000000E+00 -0.00000000000E+00 -0.45593999997E+02  0.45594000000E+02  0.51100000000E-03 0. -1.
    9900012    2    1    2    0    0 -0.11217851401E+02 -0.92262108286E+00  0.41915785814E+02  0.47787256687E+02  0.19999934538E+02 0.  0.
         12    1    1    2    0    0  0.11217851401E+02  0.92262108286E+00 -0.41915785814E+02  0.43400743313E+02  0.00000000000E+00 0. -1.
         11    1    3    3    0    0 -0.78665766313E+01 -0.80511623685E+01  0.12734812009E+02  0.16996460824E+02  0.51100000000E-03 0.  1.
        -11    1    3    3    0    0 -0.36577996615E+01  0.80529483759E+01  0.26618336149E+02  0.28049336810E+02  0.51100000000E-03 0. -1.
         12    1    3    3    0    0  0.30652489169E+00 -0.92440709026E+00  0.25626376562E+01  0.27414590522E+01  0.00000000000E+00 0. -1.
</event>
<event>
 7    1  0.3851772E-009  0.4778724E+02  0.7816164E-02  0.1312668E+00
        -11   -1    0    0    0    0  0.00000000000E+00  0.00000000000E+00  0.45593999997E+02  0.45594000000E+02  0.51100000000E-03 0. -1.
         11   -1    0    0    0    0 -0.00000000000E+00 -0.00000000000E+00 -0.45593999997E+02  0.45594000000E+02  0.51100000000E-03 0.  1.
    9900012    2    1    2    0    0 -0.43110342874E+02 -0.24468914517E+01  0.43745631378E+01  0.47787242597E+02  0.19999870297E+02 0.  0.
         12    1    1    2    0    0  0.43110342874E+02  0.24468914517E+01 -0.43745631378E+01  0.43400757403E+02  0.00000000000E+00 0. -1.
         11    1    3    3    0    0 -0.20228030641E+01 -0.17949038442E+00  0.50639176299E+01  0.54559335642E+01  0.51100000000E-03 0. -1.
        -11    1    3    3    0    0 -0.31747235461E+02 -0.56396694229E+01 -0.20435866654E+01  0.32308962802E+02  0.51100000000E-03 0.  1.
         12    1    3    3    0    0 -0.93403043490E+01  0.33722683556E+01  0.13542321733E+01  0.10022346231E+02  0.00000000000E+00 0. -1.
</event>
<event>
 7    1  0.3851772E-009  0.4778727E+02  0.7816164E-02  0.1312668E+00
        -11   -1    0    0    0    0  0.00000000000E+00  0.00000000000E+00  0.45593999997E+02  0.45594000000E+02  0.51100000000E-03 0.  1.
         11   -1    0    0    0    0 -0.00000000000E+00 -0.00000000000E+00 -0.45593999997E+02  0.45594000000E+02  0.51100000000E-03 0. -1.
    9900012    2    1    2    0    0  0.11137791681E+02 -0.34302547593E+02  0.24143492136E+02  0.47787269736E+02  0.19999994036E+02 0.  0.
         12    1    1    2    0    0 -0.11137791681E+02  0.34302547593E+02 -0.24143492136E+02  0.43400730264E+02  0.00000000000E+00 0. -1.
         11    1    3    3    0    0 -0.22674468793E+01 -0.12550636416E+02  0.10603247503E+02  0.16585796564E+02  0.51100000000E-03 0. -1.
        -11    1    3    3    0    0  0.13722617524E+02 -0.18834977618E+02  0.74910037404E+01  0.24478189289E+02  0.51100000000E-03 0.  1.
        -12    1    3    3    0    0 -0.31737896363E+00 -0.29169335590E+01  0.60492408928E+01  0.67232838831E+01  0.00000000000E+00 0.  1.
</event>
<event>
 7    1  0.3851772E-009  0.4778730E+02  0.7816164E-02  0.1312668E+00
        -11   -1    0    0    0    0  0.00000000000E+00  0.00000000000E+00  0.45593999997E+02  0.45594000000E+02  0.51100000000E-03 0. -1.
         11   -1    0    0    0    0 -0.00000000000E+00 -0.00000000000E+00 -0.45593999997E+02  0.45594000000E+02  0.51100000000E-03 0.  1.
    9900012    2    1    2    0    0  0.37881797473E+02  0.15457868423E+02 -0.14479111153E+02  0.47787297981E+02  0.20000122815E+02 0.  0.
         12    1    1    2    0    0 -0.37881797473E+02 -0.15457868423E+02  0.14479111153E+02  0.43400702019E+02  0.00000000000E+00 0. -1.
         11    1    3    3    0    0  0.30752690131E+01  0.17089689597E+01 -0.55501196524E+01  0.65712771076E+01  0.51100000000E-03 0. -1.
        -11    1    3    3    0    0  0.23593208864E+01  0.60011563299E+01  0.72219676450E+00  0.64885931271E+01  0.51100000000E-03 0.  1.
        -12    1    3    3    0    0  0.32447207573E+02  0.77477431335E+01 -0.96511882653E+01  0.34727427747E+02  0.00000000000E+00 0.  1.
</event>
<event>
 7    1  0.3851772E-009  0.4778728E+02  0.7816164E-02  0.1312668E+00
        -11   -1    0    0    0    0  0.00000000000E+00  0.00000000000E+00  0.45593999997E+02  0.45594000000E+02  0.51100000000E-03 0.  1.
         11   -1    0    0    0    0 -0.00000000000E+00 -0.00000000000E+00 -0.45593999997E+02  0.45594000000E+02  0.51100000000E-03 0. -1.
    9900012    2    1    2    0    0 -0.39970634675E+02 -0.26996751631E+01  0.16693793130E+02  0.47787278676E+02  0.20000034797E+02 0.  0.
         12    1    1    2    0    0  0.39970634675E+02  0.26996751631E+01 -0.16693793130E+02  0.43400721324E+02  0.00000000000E+00 0. -1.
         11    1    3    3    0    0 -0.24455621881E+02 -0.82726523333E+01  0.24636009869E+01  0.25934215783E+02  0.51100000000E-03 0. -1.
        -11    1    3    3    0    0 -0.10268770243E+02  0.30224949364E+01  0.84116995356E+01  0.13613956342E+02  0.51100000000E-03 0.  1.
         12    1    3    3    0    0 -0.52462425516E+01  0.25504822338E+01  0.58184926079E+01  0.82391065513E+01  0.00000000000E+00 0. -1.
</event>
<event>
 7    1  0.3851772E-009  0.4778726E+02  0.7816164E-02  0.1312668E+00
        -11   -1    0    0    0    0  0.00000000000E+00  0.00000000000E+00  0.45593999997E+02  0.45594000000E+02  0.51100000000E-03 0.  1.
         11   -1    0    0    0    0 -0.00000000000E+00 -0.00000000000E+00 -0.45593999997E+02  0.45594000000E+02  0.51100000000E-03 0. -1.
    9900012    2    1    2    0    0 -0.34126865032E+02 -0.32398130950E+01  0.26617376948E+02  0.47787261972E+02  0.19999958636E+02 0.  0.
         12    1    1    2    0    0  0.34126865032E+02  0.32398130950E+01 -0.26617376948E+02  0.43400738028E+02  0.00000000000E+00 0. -1.
         11    1    3    3    0    0  0.69788525728E+00  0.33896808369E+01  0.26243351810E+01  0.43432839433E+01  0.51100000000E-03 0. -1.
        -11    1    3    3    0    0 -0.19349829792E+02 -0.50963139001E+01  0.93587624505E+01  0.22090150819E+02  0.51100000000E-03 0.  1.
        -12    1    3    3    0    0 -0.15474920498E+02 -0.15331800319E+01  0.14634279316E+02  0.21353827210E+02  0.00000000000E+00 0.  1.
</event>
<event>
 7    1  0.3851772E-009  0.4778727E+02  0.7816164E-02  0.1312668E+00
        -11   -1    0    0    0    0  0.00000000000E+00  0.00000000000E+00  0.45593999997E+02  0.45594000000E+02  0.51100000000E-03 0. -1.
         11   -1    0    0    0    0 -0.00000000000E+00 -0.00000000000E+00 -0.45593999997E+02  0.45594000000E+02  0.51100000000E-03 0.  1.
    9900012    2    1    2    0    0  0.24567689226E+01 -0.25518071075E+02 -0.35020223844E+02  0.47787265640E+02  0.19999975358E+02 0.  0.
         12    1    1    2    0    0 -0.24567689226E+01  0.25518071075E+02  0.35020223844E+02  0.43400734360E+02  0.00000000000E+00 0. -1.
         11    1    3    3    0    0  0.38284499900E+01 -0.30232402631E+01 -0.20063514615E+02  0.20648041795E+02  0.51100000000E-03 0. -1.
        -11    1    3    3    0    0 -0.16872427727E+01 -0.16123597034E+02 -0.11570164646E+02  0.19916974661E+02  0.51100000000E-03 0.  1.
         12    1    3    3    0    0  0.31556170521E+00 -0.63712337781E+01 -0.33865445834E+01  0.72222491829E+01  0.00000000000E+00 0. -1.
</event>
<event>
 7    1  0.3851772E-009  0.4778727E+02  0.7816164E-02  0.1312668E+00
        -11   -1    0    0    0    0  0.00000000000E+00  0.00000000000E+00  0.45593999997E+02  0.45594000000E+02  0.51100000000E-03 0.  1.
         11   -1    0    0    0    0 -0.00000000000E+00 -0.00000000000E+00 -0.45593999997E+02  0.45594000000E+02  0.51100000000E-03 0. -1.
    9900012    2    1    2    0    0 -0.33148536601E+02 -0.21055455566E+02  0.18478788436E+02  0.47787270629E+02  0.19999998106E+02 0.  0.
         12    1    1    2    0    0  0.33148536601E+02  0.21055455566E+02 -0.18478788436E+02  0.43400729371E+02  0.00000000000E+00 0. -1.
         11    1    3    3    0    0 -0.53767504313E+01 -0.55145104917E+01  0.32090578748E+00  0.77085830053E+01  0.51100000000E-03 0. -1.
        -11    1    3    3    0    0 -0.55415422514E+00 -0.56567480289E+01  0.70704678626E+01  0.90717915113E+01  0.51100000000E-03 0.  1.
        -12    1    3    3    0    0 -0.27217631944E+02 -0.98841970455E+01  0.11087414786E+02  0.31006896112E+02  0.00000000000E+00 0.  1.
</event>
<event>
 7    1  0.3851772E-009  0.4778729E+02  0.7816164E-02  0.1312668E+00
        -11   -1    0    0    0    0  0.00000000000E+00  0.00000000000E+00  0.45593999997E+02  0.45594000000E+02  0.51100000000E-03 0.  1.
         11   -1    0    0    0    0 -0.00000000000E+00 -0.00000000000E+00 -0.45593999997E+02  0.45594000000E+02  0.51100000000E-03 0. -1.
    9900012    2    1    2    0    0  0.36614989175E+02 -0.18620712720E+02  0.14008327821E+02  0.47787290065E+02  0.20000086723E+02 0.  0.
         12    1    1    2    0    0 -0.36614989175E+02  0.18620712720E+02 -0.14008327821E+02  0.43400709935E+02  0.00000000000E+00 0. -1.
         11    1    3    3    0    0  0.49407760048E+00 -0.47288930190E+01  0.59211078565E+01  0.75938172463E+01  0.51100000000E-03 0. -1.
        -11    1    3    3    0    0  0.25906895676E+02 -0.86183523672E+01  0.87739308405E+01  0.28677955013E+02  0.51100000000E-03 0.  1.
         12    1    3    3    0    0  0.10214015899E+02 -0.52734673342E+01 -0.68671087604E+00  0.11515517806E+02  0.00000000000E+00 0. -1.
</event>
<event>
 7    1  0.3851772E-009  0.4778727E+02  0.7816164E-02  0.1312668E+00
        -11   -1    0    0    0    0  0.00000000000E+00  0.00000000000E+00  0.45593999997E+02  0.45594000000E+02  0.51100000000E-03 0.  1.
         11   -1    0    0    0    0 -0.00000000000E+00 -0.00000000000E+00 -0.45593999997E+02  0.45594000000E+02  0.51100000000E-03 0. -1.
    9900012    2    1    2    0    0 -0.78800556400E+01 -0.13245897756E+02  0.40571840067E+02  0.47787270851E+02  0.19999999116E+02 0.  0.
         12    1    1    2    0    0  0.78800556400E+01  0.13245897756E+02 -0.40571840067E+02  0.43400729149E+02  0.00000000000E+00 0. -1.
         11    1    3    3    0    0 -0.15160580079E+01  0.42755703400E+01  0.93611782562E+01  0.10402432034E+02  0.51100000000E-03 0. -1.
        -11    1    3    3    0    0  0.37672736455E+00 -0.76747173340E+01  0.70055853849E+01  0.10398145821E+02  0.51100000000E-03 0.  1.
         12    1    3    3    0    0 -0.67407249966E+01 -0.98467507616E+01  0.24205076426E+02  0.26986692996E+02  0.00000000000E+00 0. -1.
</event>
<event>
 7    1  0.3851772E-009  0.4778727E+02  0.7816164E-02  0.1312668E+00
        -11   -1    0    0    0    0  0.00000000000E+00  0.00000000000E+00  0.45593999997E+02  0.45594000000E+02  0.51100000000E-03 0.  1.
         11   -1    0    0    0    0 -0.00000000000E+00 -0.00000000000E+00 -0.45593999997E+02  0.45594000000E+02  0.51100000000E-03 0. -1.
    9900012    2    1    2    0    0 -0.14618236396E+02  0.21705818984E+02  0.34623520790E+02  0.47787267230E+02  0.19999982608E+02 0.  0.
         12    1    1    2    0    0  0.14618236396E+02 -0.21705818984E+02 -0.34623520790E+02  0.43400732770E+02  0.00000000000E+00 0. -1.
         11    1    3    3    0    0 -0.14536825158E+01 -0.21034960812E+01 -0.72945174936E+00  0.26589450420E+01  0.51100000000E-03 0. -1.
        -11    1    3    3    0    0 -0.12316953554E+02  0.16009129339E+02  0.25133270317E+02  0.32244082312E+02  0.51100000000E-03 0.  1.
         12    1    3    3    0    0 -0.84760032590E+00  0.78001857260E+01  0.10219702222E+02  0.12884239876E+02  0.00000000000E+00 0. -1.
</event>
<event>
 7    1  0.3851772E-009  0.4778727E+02  0.7816164E-02  0.1312668E+00
        -11   -1    0    0    0    0  0.00000000000E+00  0.00000000000E+00  0.45593999997E+02  0.45594000000E+02  0.51100000000E-03 0. -1.
         11   -1    0    0    0    0 -0.00000000000E+00 -0.00000000000E+00 -0.45593999997E+02  0.45594000000E+02  0.51100000000E-03 0.  1.
    9900012    2    1    2    0    0 -0.29226683733E+02  0.29395433376E+02 -0.12858180318E+02  0.47787270208E+02  0.19999996187E+02 0.  0.
         12    1    1    2    0    0  0.29226683733E+02 -0.29395433376E+02  0.12858180318E+02  0.43400729792E+02  0.00000000000E+00 0. -1.
         11    1    3    3    0    0 -0.17360131248E+02  0.86728452706E+01 -0.25632966918E+01  0.19574547050E+02  0.51100000000E-03 0. -1.
        -11    1    3    3    0    0 -0.39183224847E+01  0.17079521968E+02 -0.69690651658E+01  0.18858186320E+02  0.51100000000E-03 0.  1.
        -12    1    3    3    0    0 -0.79482300004E+01  0.36430661378E+01 -0.33258184604E+01  0.93545368381E+01  0.00000000000E+00 0.  1.
</event>
<event>
 7    1  0.3851772E-009  0.4778728E+02  0.7816164E-02  0.1312668E+00
        -11   -1    0    0    0    0  0.00000000000E+00  0.00000000000E+00  0.45593999997E+02  0.45594000000E+02  0.51100000000E-03 0. -1.
         11   -1    0    0    0    0 -0.00000000000E+00 -0.00000000000E+00 -0.45593999997E+02  0.45594000000E+02  0.51100000000E-03 0.  1.
    9900012    2    1    2    0    0 -0.22496140916E+01  0.30255395625E+02  0.31035030979E+02  0.47787275630E+02  0.20000020908E+02 0.  0.
         12    1    1    2    0    0  0.22496140916E+01 -0.30255395625E+02 -0.31035030979E+02  0.43400724370E+02  0.00000000000E+00 0. -1.
         11    1    3    3    0    0 -0.55551755034E+01  0.10098713201E+02  0.19883160508E+02  0.22982255225E+02  0.51100000000E-03 0. -1.
        -11    1    3    3    0    0  0.33743468382E+01  0.17344884393E+02  0.55239093260E+01  0.18513368296E+02  0.51100000000E-03 0.  1.
        -12    1    3    3    0    0 -0.68785426456E-01  0.28117980312E+01  0.56279611448E+01  0.62916521081E+01  0.00000000000E+00 0.  1.
</event>
<event>
 7    1  0.3851772E-009  0.4778726E+02  0.7816164E-02  0.1312668E+00
        -11   -1    0    0    0    0  0.00000000000E+00  0.00000000000E+00  0.45593999997E+02  0.45594000000E+02  0.51100000000E-03 0.  1.
         11   -1    0    0    0    0 -0.00000000000E+00 -0.00000000000E+00 -0.45593999997E+02  0.45594000000E+02  0.51100000000E-03 0. -1.
    9900012    2    1    2    0    0 -0.13909890438E+02 -0.93195931665E+01  0.40041033665E+02  0.47787259848E+02  0.19999948949E+02 0.  0.
         12    1    1    2    0    0  0.13909890438E+02  0.93195931665E+01 -0.40041033665E+02  0.43400740152E+02  0.00000000000E+00 0. -1.
         11    1    3    3    0    0  0.14906828904E+00 -0.39447941961E+01  0.17200943292E+02  0.17648118115E+02  0.51100000000E-03 0. -1.
        -11    1    3    3    0    0 -0.12816933304E+02 -0.81075999575E+01  0.13415427068E+02  0.20247978667E+02  0.51100000000E-03 0.  1.
        -12    1    3    3    0    0 -0.12420254235E+01  0.27328009872E+01  0.94246633051E+01  0.98911630662E+01  0.00000000000E+00 0.  1.
</event>
<event>
 7    1  0.3851772E-009  0.4778727E+02  0.7816164E-02  0.1312668E+00
        -11   -1    0    0    0    0  0.00000000000E+00  0.00000000000E+00  0.45593999997E+02  0.45594000000E+02  0.51100000000E-03 0. -1.
         11   -1    0    0    0    0 -0.00000000000E+00 -0.00000000000E+00 -0.45593999997E+02  0.45594000000E+02  0.51100000000E-03 0.  1.
    9900012    2    1    2    0    0  0.23183738568E+02 -0.75157628032E+01 -0.35911705413E+02  0.47787274082E+02  0.20000013851E+02 0.  0.
         12    1    1    2    0    0 -0.23183738568E+02  0.75157628032E+01  0.35911705413E+02  0.43400725918E+02  0.00000000000E+00 0. -1.
         11    1    3    3    0    0 -0.10529888580E+01  0.30164740835E+00 -0.10671844159E+02  0.10727909149E+02  0.51100000000E-03 0. -1.
        -11    1    3    3    0    0  0.18595630562E+02 -0.15299226114E+01 -0.18171686628E+02  0.26045121124E+02  0.51100000000E-03 0.  1.
        -12    1    3    3    0    0  0.56410968636E+01 -0.62874876002E+01 -0.70681746266E+01  0.11014243810E+02  0.00000000000E+00 0.  1.
</event>
<event>
 7    1  0.3851772E-009  0.4778727E+02  0.7816164E-02  0.1312668E+00
        -11   -1    0    0    0    0  0.00000000000E+00  0.00000000000E+00  0.45593999997E+02  0.45594000000E+02  0.51100000000E-03 0.  1.
         11   -1    0    0    0    0 -0.00000000000E+00 -0.00000000000E+00 -0.45593999997E+02  0.45594000000E+02  0.51100000000E-03 0. -1.
    9900012    2    1    2    0    0  0.96640828758E+00 -0.20854842131E+02  0.38049505986E+02  0.47787270847E+02  0.19999999099E+02 0.  0.
         12    1    1    2    0    0 -0.96640828758E+00  0.20854842131E+02 -0.38049505986E+02  0.43400729153E+02  0.00000000000E+00 0. -1.
         11    1    3    3    0    0  0.48039668855E+01 -0.29254504054E+01  0.18182855668E+02  0.19032934572E+02  0.51100000000E-03 0. -1.
        -11    1    3    3    0    0  0.18254661078E+01 -0.13379151266E+02  0.12310502885E+02  0.18272451851E+02  0.51100000000E-03 0.  1.
         12    1    3    3    0    0 -0.56630247057E+01 -0.45502404597E+01  0.75561474327E+01  0.10481884424E+02  0.00000000000E+00 0. -1.
</event>
<event>
 7    1  0.3851772E-009  0.4778727E+02  0.7816164E-02  0.1312668E+00
        -11   -1    0    0    0    0  0.00000000000E+00  0.00000000000E+00  0.45593999997E+02  0.45594000000E+02  0.51100000000E-03 0.  1.
         11   -1    0    0    0    0 -0.00000000000E+00 -0.00000000000E+00 -0.45593999997E+02  0.45594000000E+02  0.51100000000E-03 0. -1.
    9900012    2    1    2    0    0  0.14847184021E+01  0.17331238222E+02  0.39762384839E+02  0.47787268956E+02  0.19999990479E+02 0.  0.
         12    1    1    2    0    0 -0.14847184021E+01 -0.17331238222E+02 -0.39762384839E+02  0.43400731044E+02  0.00000000000E+00 0. -1.
         11    1    3    3    0    0 -0.16838024594E+01  0.45963294201E+00 -0.64788251271E+00  0.18617747380E+01  0.51100000000E-03 0. -1.
        -11    1    3    3    0    0  0.23033752850E+00  0.17952468374E+02  0.37808463834E+02  0.41854797979E+02  0.51100000000E-03 0.  1.
         12    1    3    3    0    0  0.29381833330E+01 -0.10808630942E+01  0.26018035180E+01  0.40706962394E+01  0.00000000000E+00 0. -1.
</event>
<event>
 7    1  0.3851772E-009  0.4778727E+02  0.7816164E-02  0.1312668E+00
        -11   -1    0    0    0    0  0.00000000000E+00  0.00000000000E+00  0.45593999997E+02  0.45594000000E+02  0.51100000000E-03 0. -1.
         11   -1    0    0    0    0 -0.00000000000E+00 -0.00000000000E+00 -0.45593999997E+02  0.45594000000E+02  0.51100000000E-03 0.  1.
    9900012    2    1    2    0    0  0.41463042072E+02 -0.86820437203E+01 -0.94372482247E+01  0.47787269648E+02  0.19999993635E+02 0.  0.
         12    1    1    2    0    0 -0.41463042072E+02  0.86820437203E+01  0.94372482247E+01  0.43400730352E+02  0.00000000000E+00 0. -1.
         11    1    3    3    0    0  0.81329342366E+01  0.56974855385E+00  0.20056998850E+01  0.83959552763E+01  0.51100000000E-03 0. -1.
        -11    1    3    3    0    0  0.14325345011E+02 -0.97961790001E+01 -0.30642644308E+00  0.17357261596E+02  0.51100000000E-03 0.  1.
        -12    1    3    3    0    0  0.19004762824E+02  0.54438672588E+00 -0.11136521667E+02  0.22034052776E+02  0.00000000000E+00 0.  1.
</event>
<event>
 7    1  0.3851772E-009  0.4778727E+02  0.7816164E-02  0.1312668E+00
        -11   -1    0    0    0    0  0.00000000000E+00  0.00000000000E+00  0.45593999997E+02  0.45594000000E+02  0.51100000000E-03 0. -1.
         11   -1    0    0    0    0 -0.00000000000E+00 -0.00000000000E+00 -0.45593999997E+02  0.45594000000E+02  0.51100000000E-03 0.  1.
    9900012    2    1    2    0    0 -0.58846785481E+01  0.36030751066E+02  0.23468679274E+02  0.47787269927E+02  0.19999994906E+02 0.  0.
         12    1    1    2    0    0  0.58846785481E+01 -0.36030751066E+02 -0.23468679274E+02  0.43400730073E+02  0.00000000000E+00 0. -1.
         11    1    3    3    0    0 -0.31644013701E+01  0.19930570281E+01 -0.19232623108E+01  0.42053121793E+01  0.51100000000E-03 0. -1.
        -11    1    3    3    0    0 -0.92745042952E+00  0.10229434028E+02  0.13342169125E+02  0.16837902543E+02  0.51100000000E-03 0.  1.
         12    1    3    3    0    0 -0.17928267485E+01  0.23808260010E+02  0.12049772459E+02  0.26744055205E+02  0.00000000000E+00 0. -1.
</event>
<event>
 7    1  0.3851772E-009  0.4778727E+02  0.7816164E-02  0.1312668E+00
        -11   -1    0    0    0    0  0.00000000000E+00  0.00000000000E+00  0.45593999997E+02  0.45594000000E+02  0.51100000000E-03 0. -1.
         11   -1    0    0    0    0 -0.00000000000E+00 -0.00000000000E+00 -0.45593999997E+02  0.45594000000E+02  0.51100000000E-03 0.  1.
    9900012    2    1    2    0    0  0.22617201623E+02 -0.20031491317E+02 -0.31158064318E+02  0.47787269296E+02  0.19999992027E+02 0.  0.
         12    1    1    2    0    0 -0.22617201623E+02  0.20031491317E+02  0.31158064318E+02  0.43400730704E+02  0.00000000000E+00 0. -1.
         11    1    3    3    0    0 -0.19511774579E+01 -0.19307617267E+01 -0.48112709824E+01  0.55392475162E+01  0.51100000000E-03 0. -1.
        -11    1    3    3    0    0  0.17195625254E+02 -0.18221230590E+02 -0.16716045677E+02  0.30118581564E+02  0.51100000000E-03 0.  1.
         12    1    3    3    0    0  0.73727538266E+01  0.12050099970E+00 -0.96307476588E+01  0.12129440216E+02  0.00000000000E+00 0. -1.
</event>
<event>
 7    1  0.3851772E-009  0.4778728E+02  0.7816164E-02  0.1312668E+00
        -11   -1    0    0    0    0  0.00000000000E+00  0.00000000000E+00  0.45593999997E+02  0.45594000000E+02  0.51100000000E-03 0. -1.
         11   -1    0    0    0    0 -0.00000000000E+00 -0.00000000000E+00 -0.45593999997E+02  0.45594000000E+02  0.51100000000E-03 0.  1.
    9900012    2    1    2    0    0 -0.20265610983E+02 -0.35835061066E+02 -0.13739583437E+02  0.47787277158E+02  0.20000027876E+02 0.  0.
         12    1    1    2    0    0  0.20265610983E+02  0.35835061066E+02  0.13739583437E+02  0.43400722842E+02  0.00000000000E+00 0. -1.
         11    1    3    3    0    0  0.62903728167E+00 -0.11824708364E+01  0.22973192333E+01  0.26592482212E+01  0.51100000000E-03 0. -1.
        -11    1    3    3    0    0 -0.19205163193E+02 -0.34060438570E+02 -0.17477562585E+02  0.42830094128E+02  0.51100000000E-03 0.  1.
         12    1    3    3    0    0 -0.16894850721E+01 -0.59215166038E+00  0.14406599152E+01  0.22979348096E+01  0.00000000000E+00 0. -1.
</event>
<event>
 7    1  0.3851772E-009  0.4778728E+02  0.7816164E-02  0.1312668E+00
        -11   -1    0    0    0    0  0.00000000000E+00  0.00000000000E+00  0.45593999997E+02  0.45594000000E+02  0.51100000000E-03 0.  1.
         11   -1    0    0    0    0 -0.00000000000E+00 -0.00000000000E+00 -0.45593999997E+02  0.45594000000E+02  0.51100000000E-03 0. -1.
    9900012    2    1    2    0    0 -0.50041589082E+01 -0.42253122372E+02  0.85589116241E+01  0.47787275066E+02  0.20000018337E+02 0.  0.
         12    1    1    2    0    0  0.50041589082E+01  0.42253122372E+02 -0.85589116241E+01  0.43400724934E+02  0.00000000000E+00 0. -1.
         11    1    3    3    0    0 -0.94616058589E+00 -0.37588276391E+02  0.18395829353E+01  0.37645156496E+02  0.51100000000E-03 0.  1.
        -11    1    3    3    0    0 -0.49983119333E+01 -0.35352189467E+01  0.52706898718E+01  0.80784322222E+01  0.51100000000E-03 0. -1.
        -12    1    3    3    0    0  0.94031361098E+00 -0.11296270341E+01  0.14486388170E+01  0.20636863486E+01  0.00000000000E+00 0.  1.
</event>
<event>
 7    1  0.3851772E-009  0.4778727E+02  0.7816164E-02  0.1312668E+00
        -11   -1    0    0    0    0  0.00000000000E+00  0.00000000000E+00  0.45593999997E+02  0.45594000000E+02  0.51100000000E-03 0. -1.
         11   -1    0    0    0    0 -0.00000000000E+00 -0.00000000000E+00 -0.45593999997E+02  0.45594000000E+02  0.51100000000E-03 0.  1.
    9900012    2    1    2    0    0 -0.91181842535E+01  0.32849102889E+02 -0.26859231328E+02  0.47787272446E+02  0.20000006389E+02 0.  0.
         12    1    1    2    0    0  0.91181842535E+01 -0.32849102889E+02  0.26859231328E+02  0.43400727554E+02  0.00000000000E+00 0. -1.
         11    1    3    3    0    0 -0.17359783457E+00 -0.12313782170E+01 -0.46065667327E+01  0.47714657963E+01  0.51100000000E-03 0. -1.
        -11    1    3    3    0    0 -0.10301929964E+02  0.33119423198E+02 -0.19474598927E+02  0.39777958187E+02  0.51100000000E-03 0.  1.
        -12    1    3    3    0    0  0.13573435451E+01  0.96105790797E+00 -0.27780656689E+01  0.32378484620E+01  0.00000000000E+00 0.  1.
</event>
<event>
 7    1  0.3851772E-009  0.4778727E+02  0.7816164E-02  0.1312668E+00
        -11   -1    0    0    0    0  0.00000000000E+00  0.00000000000E+00  0.45593999997E+02  0.45594000000E+02  0.51100000000E-03 0.  1.
         11   -1    0    0    0    0 -0.00000000000E+00 -0.00000000000E+00 -0.45593999997E+02  0.45594000000E+02  0.51100000000E-03 0. -1.
    9900012    2    1    2    0    0  0.54367473947E+01  0.15935918426E+02  0.40001393890E+02  0.47787271533E+02  0.20000002226E+02 0.  0.
         12    1    1    2    0    0 -0.54367473947E+01 -0.15935918426E+02 -0.40001393890E+02  0.43400728467E+02  0.00000000000E+00 0. -1.
         11    1    3    3    0    0  0.90447804448E+01  0.39439622370E+00  0.11047139836E+02  0.14282958394E+02  0.51100000000E-03 0. -1.
        -11    1    3    3    0    0 -0.36823621793E+01  0.12511424913E+02  0.18609331826E+02  0.22724497263E+02  0.51100000000E-03 0.  1.
         12    1    3    3    0    0  0.74329129214E-01  0.30300972886E+01  0.10344922228E+02  0.10779815875E+02  0.00000000000E+00 0. -1.
</event>
<event>
 7    1  0.3851772E-009  0.4778727E+02  0.7816164E-02  0.1312668E+00
        -11   -1    0    0    0    0  0.00000000000E+00  0.00000000000E+00  0.45593999997E+02  0.45594000000E+02  0.51100000000E-03 0.  1.
         11   -1    0    0    0    0 -0.00000000000E+00 -0.00000000000E+00 -0.45593999997E+02  0.45594000000E+02  0.51100000000E-03 0. -1.
    9900012    2    1    2    0    0 -0.17980715516E+02  0.21545600830E+02  0.33107465656E+02  0.47787270424E+02  0.19999997172E+02 0.  0.
         12    1    1    2    0    0  0.17980715516E+02 -0.21545600830E+02 -0.33107465656E+02  0.43400729576E+02  0.00000000000E+00 0. -1.
         11    1    3    3    0    0 -0.11923799573E+01 -0.36299040573E+01  0.30416070241E+01  0.48835793203E+01  0.51100000000E-03 0. -1.
        -11    1    3    3    0    0 -0.10265132292E+02  0.11875142904E+02  0.13768865371E+02  0.20879981173E+02  0.51100000000E-03 0.  1.
         12    1    3    3    0    0 -0.65232032671E+01  0.13300361983E+02  0.16296993261E+02  0.22023709930E+02  0.00000000000E+00 0. -1.
</event>
<event>
 7    1  0.3851772E-009  0.4778729E+02  0.7816164E-02  0.1312668E+00
        -11   -1    0    0    0    0  0.00000000000E+00  0.00000000000E+00  0.45593999997E+02  0.45594000000E+02  0.51100000000E-03 0.  1.
         11   -1    0    0    0    0 -0.00000000000E+00 -0.00000000000E+00 -0.45593999997E+02  0.45594000000E+02  0.51100000000E-03 0. -1.
    9900012    2    1    2    0    0  0.18375230731E+02  0.39217174275E+02  0.28258872660E+01  0.47787291465E+02  0.20000093104E+02 0.  0.
         12    1    1    2    0    0 -0.18375230731E+02 -0.39217174275E+02 -0.28258872660E+01  0.43400708535E+02  0.00000000000E+00 0. -1.
         11    1    3    3    0    0  0.10502518775E+02  0.65259011532E+01 -0.36854040214E+01  0.12902421848E+02  0.51100000000E-03 0. -1.
        -11    1    3    3    0    0  0.19207858070E+01  0.15904681466E+01 -0.24857903210E+00  0.25061521977E+01  0.51100000000E-03 0.  1.
         12    1    3    3    0    0  0.59519261494E+01  0.31100804975E+02  0.67598703195E+01  0.32378717419E+02  0.00000000000E+00 0. -1.
</event>
<event>
 7    1  0.3851772E-009  0.4778727E+02  0.7816164E-02  0.1312668E+00
        -11   -1    0    0    0    0  0.00000000000E+00  0.00000000000E+00  0.45593999997E+02  0.45594000000E+02  0.51100000000E-03 0.  1.
         11   -1    0    0    0    0 -0.00000000000E+00 -0.00000000000E+00 -0.45593999997E+02  0.45594000000E+02  0.51100000000E-03 0. -1.
    9900012    2    1    2    0    0  0.64862152268E+01  0.21768733582E+02  0.36982085110E+02  0.47787269951E+02  0.19999995013E+02 0.  0.
         12    1    1    2    0    0 -0.64862152268E+01 -0.21768733582E+02 -0.36982085110E+02  0.43400730049E+02  0.00000000000E+00 0. -1.
         11    1    3    3    0    0  0.25201505492E+00  0.12311364644E+01 -0.14591769406E+01  0.19257222507E+01  0.51100000000E-03 0. -1.
        -11    1    3    3    0    0  0.77588387294E+01  0.19899463192E+02  0.27620716559E+02  0.34915500816E+02  0.51100000000E-03 0.  1.
        -12    1    3    3    0    0 -0.15246385575E+01  0.63813392518E+00  0.10820545492E+02  0.10946046884E+02  0.00000000000E+00 0.  1.
</event>
<event>
 7    1  0.3851772E-009  0.4778727E+02  0.7816164E-02  0.1312668E+00
        -11   -1    0    0    0    0  0.00000000000E+00  0.00000000000E+00  0.45593999997E+02  0.45594000000E+02  0.51100000000E-03 0.  1.
         11   -1    0    0    0    0 -0.00000000000E+00 -0.00000000000E+00 -0.45593999997E+02  0.45594000000E+02  0.51100000000E-03 0. -1.
    9900012    2    1    2    0    0 -0.11902091862E+02 -0.41684765848E+02 -0.20841379441E+01  0.47787272754E+02  0.20000007796E+02 0.  0.
         12    1    1    2    0    0  0.11902091862E+02  0.41684765848E+02  0.20841379441E+01  0.43400727246E+02  0.00000000000E+00 0. -1.
         11    1    3    3    0    0 -0.70337353215E+01 -0.34997878980E+02 -0.36055761506E+01  0.35879313613E+02  0.51100000000E-03 0. -1.
        -11    1    3    3    0    0 -0.48572737029E+01 -0.50147852593E+01 -0.26080847432E+01  0.74527367664E+01  0.51100000000E-03 0.  1.
         12    1    3    3    0    0 -0.11082837408E-01 -0.16721016084E+01  0.41295229498E+01  0.44552223750E+01  0.00000000000E+00 0. -1.
</event>
<event>
 7    1  0.3851772E-009  0.4778727E+02  0.7816164E-02  0.1312668E+00
        -11   -1    0    0    0    0  0.00000000000E+00  0.00000000000E+00  0.45593999997E+02  0.45594000000E+02  0.51100000000E-03 0. -1.
         11   -1    0    0    0    0 -0.00000000000E+00 -0.00000000000E+00 -0.45593999997E+02  0.45594000000E+02  0.51100000000E-03 0.  1.
    9900012    2    1    2    0    0  0.31259169381E+02 -0.28756256117E+02  0.89199454166E+01  0.47787270023E+02  0.19999995344E+02 0.  0.
         12    1    1    2    0    0 -0.31259169381E+02  0.28756256117E+02 -0.89199454166E+01  0.43400729977E+02  0.00000000000E+00 0. -1.
         11    1    3    3    0    0  0.22421925594E+02 -0.26124702243E+02  0.13097336655E+02  0.36834536000E+02  0.51100000000E-03 0. -1.
        -11    1    3    3    0    0  0.50648902429E+01  0.49998324528E+00 -0.12436935320E+01  0.52392623795E+01  0.51100000000E-03 0.  1.
         12    1    3    3    0    0  0.37723535444E+01 -0.31315371190E+01 -0.29336977062E+01  0.57134716437E+01  0.00000000000E+00 0. -1.
</event>
<event>
 7    1  0.3851772E-009  0.4778726E+02  0.7816164E-02  0.1312668E+00
        -11   -1    0    0    0    0  0.00000000000E+00  0.00000000000E+00  0.45593999997E+02  0.45594000000E+02  0.51100000000E-03 0. -1.
         11   -1    0    0    0    0 -0.00000000000E+00 -0.00000000000E+00 -0.45593999997E+02  0.45594000000E+02  0.51100000000E-03 0.  1.
    9900012    2    1    2    0    0 -0.83841125927E+01 -0.32085449671E+02 -0.27997402587E+02  0.47787262953E+02  0.19999963109E+02 0.  0.
         12    1    1    2    0    0  0.83841125927E+01  0.32085449671E+02  0.27997402587E+02  0.43400737047E+02  0.00000000000E+00 0. -1.
         11    1    3    3    0    0  0.13064468514E+00  0.10601234998E+00  0.21625454158E+01  0.21690803555E+01  0.51100000000E-03 0. -1.
        -11    1    3    3    0    0 -0.98154105870E+01 -0.25168461284E+02 -0.24992959528E+02  0.36802741129E+02  0.51100000000E-03 0.  1.
         12    1    3    3    0    0  0.13006533092E+01 -0.70230007379E+01 -0.51669884746E+01  0.88154414689E+01  0.00000000000E+00 0. -1.
</event>
<event>
 7    1  0.3851772E-009  0.4778730E+02  0.7816164E-02  0.1312668E+00
        -11   -1    0    0    0    0  0.00000000000E+00  0.00000000000E+00  0.45593999997E+02  0.45594000000E+02  0.51100000000E-03 0. -1.
         11   -1    0    0    0    0 -0.00000000000E+00 -0.00000000000E+00 -0.45593999997E+02  0.45594000000E+02  0.51100000000E-03 0.  1.
    9900012    2    1    2    0    0 -0.27682323301E+02 -0.32407541882E+02  0.81890629926E+01  0.47787302461E+02  0.20000143241E+02 0.  0.
         12    1    1    2    0    0  0.27682323301E+02  0.32407541882E+02 -0.81890629926E+01  0.43400697539E+02  0.00000000000E+00 0. -1.
         11    1    3    3    0    0 -0.71410026901E+01 -0.21422635101E+02 -0.27405891257E-01  0.22581496085E+02  0.51100000000E-03 0. -1.
        -11    1    3    3    0    0 -0.13993206141E+02 -0.10012967144E+02  0.57696109879E+01  0.18148215900E+02  0.51100000000E-03 0.  1.
         12    1    3    3    0    0 -0.65481144698E+01 -0.97193963693E+00  0.24468578959E+01  0.70575904762E+01  0.00000000000E+00 0. -1.
</event>
<event>
 7    1  0.3851772E-009  0.4778727E+02  0.7816164E-02  0.1312668E+00
        -11   -1    0    0    0    0  0.00000000000E+00  0.00000000000E+00  0.45593999997E+02  0.45594000000E+02  0.51100000000E-03 0.  1.
         11   -1    0    0    0    0 -0.00000000000E+00 -0.00000000000E+00 -0.45593999997E+02  0.45594000000E+02  0.51100000000E-03 0. -1.
    9900012    2    1    2    0    0 -0.12077070068E+02 -0.35372388840E+02  0.22058145224E+02  0.47787270923E+02  0.19999999446E+02 0.  0.
         12    1    1    2    0    0  0.12077070068E+02  0.35372388840E+02 -0.22058145224E+02  0.43400729077E+02  0.00000000000E+00 0. -1.
         11    1    3    3    0    0 -0.13162419682E+01 -0.34773869268E+01  0.11195525292E+02  0.11796800396E+02  0.51100000000E-03 0. -1.
        -11    1    3    3    0    0 -0.66258603936E+01 -0.23764354373E+02  0.10636431001E+02  0.26865967866E+02  0.51100000000E-03 0.  1.
        -12    1    3    3    0    0 -0.41349677059E+01 -0.81306475412E+01  0.22618893070E+00  0.91245026604E+01  0.00000000000E+00 0.  1.
</event>
<event>
 7    1  0.3851772E-009  0.4778727E+02  0.7816164E-02  0.1312668E+00
        -11   -1    0    0    0    0  0.00000000000E+00  0.00000000000E+00  0.45593999997E+02  0.45594000000E+02  0.51100000000E-03 0.  1.
         11   -1    0    0    0    0 -0.00000000000E+00 -0.00000000000E+00 -0.45593999997E+02  0.45594000000E+02  0.51100000000E-03 0. -1.
    9900012    2    1    2    0    0  0.77831340092E+01  0.32434134758E+02  0.27768195111E+02  0.47787274980E+02  0.20000017946E+02 0.  0.
         12    1    1    2    0    0 -0.77831340092E+01 -0.32434134758E+02 -0.27768195111E+02  0.43400725020E+02  0.00000000000E+00 0. -1.
         11    1    3    3    0    0 -0.35520240649E+01  0.67898212637E+01  0.12186956983E+01  0.77591086612E+01  0.51100000000E-03 0. -1.
        -11    1    3    3    0    0  0.12620298415E+02  0.17009868269E+02  0.19795894959E+02  0.28991119470E+02  0.51100000000E-03 0.  1.
         12    1    3    3    0    0 -0.12851403406E+01  0.86344452256E+01  0.67536044532E+01  0.11037046850E+02  0.00000000000E+00 0. -1.
</event>
<event>
 7    1  0.3851772E-009  0.4778727E+02  0.7816164E-02  0.1312668E+00
        -11   -1    0    0    0    0  0.00000000000E+00  0.00000000000E+00  0.45593999997E+02  0.45594000000E+02  0.51100000000E-03 0. -1.
         11   -1    0    0    0    0 -0.00000000000E+00 -0.00000000000E+00 -0.45593999997E+02  0.45594000000E+02  0.51100000000E-03 0.  1.
    9900012    2    1    2    0    0  0.22429095188E+02 -0.21236632093E+02 -0.30488762929E+02  0.47787268225E+02  0.19999987147E+02 0.  0.
         12    1    1    2    0    0 -0.22429095188E+02  0.21236632093E+02  0.30488762929E+02  0.43400731775E+02  0.00000000000E+00 0. -1.
         11    1    3    3    0    0 -0.90826092452E+00 -0.32601086579E+01  0.13477464094E+01  0.36427554150E+01  0.51100000000E-03 0. -1.
        -11    1    3    3    0    0  0.15446700686E+02 -0.10785604876E+02 -0.25585239776E+02  0.31773169960E+02  0.51100000000E-03 0.  1.
         12    1    3    3    0    0  0.78906554263E+01 -0.71909185594E+01 -0.62512695623E+01  0.12371342850E+02  0.00000000000E+00 0. -1.
</event>
<event>
 7    1  0.3851772E-009  0.4778728E+02  0.7816164E-02  0.1312668E+00
        -11   -1    0    0    0    0  0.00000000000E+00  0.00000000000E+00  0.45593999997E+02  0.45594000000E+02  0.51100000000E-03 0.  1.
         11   -1    0    0    0    0 -0.00000000000E+00 -0.00000000000E+00 -0.45593999997E+02  0.45594000000E+02  0.51100000000E-03 0. -1.
    9900012    2    1    2    0    0  0.29110254394E+01  0.43291829793E+02  0.98290615007E+00  0.47787277650E+02  0.20000030119E+02 0.  0.
         12    1    1    2    0    0 -0.29110254394E+01 -0.43291829793E+02 -0.98290615007E+00  0.43400722350E+02  0.00000000000E+00 0. -1.
         11    1    3    3    0    0 -0.51000759254E+01  0.23384025294E+02 -0.18667950097E+00  0.23934457648E+02  0.51100000000E-03 0. -1.
        -11    1    3    3    0    0  0.80680063153E+01  0.19566906795E+02  0.35385744233E+01  0.21458752914E+02  0.51100000000E-03 0.  1.
         12    1    3    3    0    0 -0.56904950456E-01  0.34089770385E+00 -0.23689887723E+01  0.23940670878E+01  0.00000000000E+00 0. -1.
</event>
<event>
 7    1  0.3851772E-009  0.4778727E+02  0.7816164E-02  0.1312668E+00
        -11   -1    0    0    0    0  0.00000000000E+00  0.00000000000E+00  0.45593999997E+02  0.45594000000E+02  0.51100000000E-03 0.  1.
         11   -1    0    0    0    0 -0.00000000000E+00 -0.00000000000E+00 -0.45593999997E+02  0.45594000000E+02  0.51100000000E-03 0. -1.
    9900012    2    1    2    0    0  0.34713827397E+02 -0.24654895170E+02 -0.84089093388E+01  0.47787269308E+02  0.19999992082E+02 0.  0.
         12    1    1    2    0    0 -0.34713827397E+02  0.24654895170E+02  0.84089093388E+01  0.43400730692E+02  0.00000000000E+00 0. -1.
         11    1    3    3    0    0  0.74423723372E+01 -0.13432036919E+02 -0.64951790028E+01  0.16673208219E+02  0.51100000000E-03 0. -1.
        -11    1    3    3    0    0  0.27513694815E+02 -0.12152027866E+02 -0.20330414584E+01  0.30146449898E+02  0.51100000000E-03 0.  1.
         12    1    3    3    0    0 -0.24223975575E+00  0.92916961453E+00  0.11931112238E+00  0.96761119038E+00  0.00000000000E+00 0. -1.
</event>
<event>
 7    1  0.3851772E-009  0.4778725E+02  0.7816164E-02  0.1312668E+00
        -11   -1    0    0    0    0  0.00000000000E+00  0.00000000000E+00  0.45593999997E+02  0.45594000000E+02  0.51100000000E-03 0.  1.
         11   -1    0    0    0    0 -0.00000000000E+00 -0.00000000000E+00 -0.45593999997E+02  0.45594000000E+02  0.51100000000E-03 0. -1.
    9900012    2    1    2    0    0  0.64001339314E+01  0.29231888452E+02  0.31435007890E+02  0.47787254179E+02  0.19999923103E+02 0.  0.
         12    1    1    2    0    0 -0.64001339314E+01 -0.29231888452E+02 -0.31435007890E+02  0.43400745821E+02  0.00000000000E+00 0. -1.
         11    1    3    3    0    0  0.93394036761E+01  0.11497965393E+02  0.54142429099E+01  0.15771547031E+02  0.51100000000E-03 0. -1.
        -11    1    3    3    0    0 -0.21942148913E+01  0.62197707555E+01  0.13274757373E+02  0.14822931924E+02  0.51100000000E-03 0.  1.
         12    1    3    3    0    0 -0.74505485329E+00  0.11514152303E+02  0.12746007607E+02  0.17192775224E+02  0.00000000000E+00 0. -1.
</event>
<event>
 7    1  0.3851772E-009  0.4778726E+02  0.7816164E-02  0.1312668E+00
        -11   -1    0    0    0    0  0.00000000000E+00  0.00000000000E+00  0.45593999997E+02  0.45594000000E+02  0.51100000000E-03 0.  1.
         11   -1    0    0    0    0 -0.00000000000E+00 -0.00000000000E+00 -0.45593999997E+02  0.45594000000E+02  0.51100000000E-03 0. -1.
    9900012    2    1    2    0    0 -0.10589567306E+02 -0.39768997026E+02 -0.13780872007E+02  0.47787256994E+02  0.19999935937E+02 0.  0.
         12    1    1    2    0    0  0.10589567306E+02  0.39768997026E+02  0.13780872007E+02  0.43400743006E+02  0.00000000000E+00 0. -1.
         11    1    3    3    0    0  0.10263796210E+01 -0.17367664878E+02 -0.17807016717E+01  0.17488857514E+02  0.51100000000E-03 0. -1.
        -11    1    3    3    0    0 -0.10235602212E+02 -0.21715262817E+02 -0.13986716165E+02  0.27783959782E+02  0.51100000000E-03 0.  1.
        -12    1    3    3    0    0 -0.13803447146E+01 -0.68606933202E+00  0.19865458297E+01  0.25144396976E+01  0.00000000000E+00 0.  1.
</event>
<event>
 7    1  0.3851772E-009  0.4778726E+02  0.7816164E-02  0.1312668E+00
        -11   -1    0    0    0    0  0.00000000000E+00  0.00000000000E+00  0.45593999997E+02  0.45594000000E+02  0.51100000000E-03 0.  1.
         11   -1    0    0    0    0 -0.00000000000E+00 -0.00000000000E+00 -0.45593999997E+02  0.45594000000E+02  0.51100000000E-03 0. -1.
    9900012    2    1    2    0    0 -0.19973073897E+02  0.33598139697E+02  0.18864388025E+02  0.47787264896E+02  0.19999971969E+02 0.  0.
         12    1    1    2    0    0  0.19973073897E+02 -0.33598139697E+02 -0.18864388025E+02  0.43400735104E+02  0.00000000000E+00 0. -1.
         11    1    3    3    0    0 -0.84707264740E+00  0.12381107745E+02  0.30264275347E+00  0.12413740530E+02  0.51100000000E-03 0. -1.
        -11    1    3    3    0    0 -0.15175576751E+02  0.13874310539E+02  0.83564527163E+01  0.22195155438E+02  0.51100000000E-03 0.  1.
         12    1    3    3    0    0 -0.39504244980E+01  0.73427214133E+01  0.10205292555E+02  0.13178368928E+02  0.00000000000E+00 0. -1.
</event>
<event>
 7    1  0.3851772E-009  0.4778723E+02  0.7816164E-02  0.1312668E+00
        -11   -1    0    0    0    0  0.00000000000E+00  0.00000000000E+00  0.45593999997E+02  0.45594000000E+02  0.51100000000E-03 0. -1.
         11   -1    0    0    0    0 -0.00000000000E+00 -0.00000000000E+00 -0.45593999997E+02  0.45594000000E+02  0.51100000000E-03 0.  1.
    9900012    2    1    2    0    0  0.18921628658E+01 -0.34500270111E+02 -0.26263621373E+02  0.47787231278E+02  0.19999818687E+02 0.  0.
         12    1    1    2    0    0 -0.18921628658E+01  0.34500270111E+02  0.26263621373E+02  0.43400768722E+02  0.00000000000E+00 0. -1.
         11    1    3    3    0    0 -0.16381442245E+01 -0.11633894107E+01 -0.19082229465E+01  0.27709757300E+01  0.51100000000E-03 0. -1.
        -11    1    3    3    0    0  0.24946951384E+01 -0.33236609559E+02 -0.26533827803E+02  0.42602109536E+02  0.51100000000E-03 0.  1.
        -12    1    3    3    0    0  0.10356119519E+01 -0.10027114183E+00  0.21784293765E+01  0.24141460116E+01  0.00000000000E+00 0.  1.
</event>
<event>
 7    1  0.3851772E-009  0.4778727E+02  0.7816164E-02  0.1312668E+00
        -11   -1    0    0    0    0  0.00000000000E+00  0.00000000000E+00  0.45593999997E+02  0.45594000000E+02  0.51100000000E-03 0.  1.
         11   -1    0    0    0    0 -0.00000000000E+00 -0.00000000000E+00 -0.45593999997E+02  0.45594000000E+02  0.51100000000E-03 0. -1.
    9900012    2    1    2    0    0  0.94945020398E+00  0.52412931217E+00  0.43387173003E+02  0.47787274794E+02  0.20000017094E+02 0.  0.
         12    1    1    2    0    0 -0.94945020398E+00 -0.52412931217E+00 -0.43387173003E+02  0.43400725206E+02  0.00000000000E+00 0. -1.
         11    1    3    3    0    0  0.21827742894E+01 -0.20983966590E+01  0.39015060866E+02  0.39132374663E+02  0.51100000000E-03 0. -1.
        -11    1    3    3    0    0  0.13777954874E+01  0.66267559692E+00  0.50878189388E+01  0.53125663447E+01  0.51100000000E-03 0.  1.
         12    1    3    3    0    0 -0.26111195728E+01  0.19598503742E+01 -0.71570680136E+00  0.33423337862E+01  0.00000000000E+00 0. -1.
</event>
<event>
 7    1  0.3851772E-009  0.4778727E+02  0.7816164E-02  0.1312668E+00
        -11   -1    0    0    0    0  0.00000000000E+00  0.00000000000E+00  0.45593999997E+02  0.45594000000E+02  0.51100000000E-03 0. -1.
         11   -1    0    0    0    0 -0.00000000000E+00 -0.00000000000E+00 -0.45593999997E+02  0.45594000000E+02  0.51100000000E-03 0.  1.
    9900012    2    1    2    0    0 -0.41693089470E+02  0.10091034497E+02 -0.65940120490E+01  0.47787266347E+02  0.19999978581E+02 0.  0.
         12    1    1    2    0    0  0.41693089470E+02 -0.10091034497E+02  0.65940120490E+01  0.43400733653E+02  0.00000000000E+00 0. -1.
         11    1    3    3    0    0 -0.16153771001E+02  0.22972240783E+01  0.39312776649E+01  0.16783220799E+02  0.51100000000E-03 0. -1.
        -11    1    3    3    0    0 -0.23686181554E+01  0.19464131432E+01 -0.59206724728E+01  0.66673262168E+01  0.51100000000E-03 0.  1.
        -12    1    3    3    0    0 -0.23170700313E+02  0.58473972756E+01 -0.46046172411E+01  0.24336719331E+02  0.00000000000E+00 0.  1.
</event>
<event>
 7    1  0.3851772E-009  0.4778727E+02  0.7816164E-02  0.1312668E+00
        -11   -1    0    0    0    0  0.00000000000E+00  0.00000000000E+00  0.45593999997E+02  0.45594000000E+02  0.51100000000E-03 0. -1.
         11   -1    0    0    0    0 -0.00000000000E+00 -0.00000000000E+00 -0.45593999997E+02  0.45594000000E+02  0.51100000000E-03 0.  1.
    9900012    2    1    2    0    0  0.28472472922E+02 -0.89640535750E+01 -0.31505348743E+02  0.47787274543E+02  0.20000015951E+02 0.  0.
         12    1    1    2    0    0 -0.28472472922E+02  0.89640535750E+01  0.31505348743E+02  0.43400725457E+02  0.00000000000E+00 0. -1.
         11    1    3    3    0    0  0.81461074038E+00  0.37886896095E+01 -0.41762378274E+01  0.56972556787E+01  0.51100000000E-03 0. -1.
        -11    1    3    3    0    0  0.15782420908E+02 -0.67742232531E+01 -0.88384515224E+01  0.19315618964E+02  0.51100000000E-03 0.  1.
        -12    1    3    3    0    0  0.11875441274E+02 -0.59785199314E+01 -0.18490659393E+02  0.22774399900E+02  0.00000000000E+00 0.  1.
</event>
<event>
 7    1  0.3851772E-009  0.4778728E+02  0.7816164E-02  0.1312668E+00
        -11   -1    0    0    0    0  0.00000000000E+00  0.00000000000E+00  0.45593999997E+02  0.45594000000E+02  0.51100000000E-03 0.  1.
         11   -1    0    0    0    0 -0.00000000000E+00 -0.00000000000E+00 -0.45593999997E+02  0.45594000000E+02  0.51100000000E-03 0. -1.
    9900012    2    1    2    0    0 -0.28103189912E+02  0.33003926219E+02  0.21387650211E+01  0.47787277138E+02  0.20000027782E+02 0.  0.
         12    1    1    2    0    0  0.28103189912E+02 -0.33003926219E+02 -0.21387650211E+01  0.43400722862E+02  0.00000000000E+00 0. -1.
         11    1    3    3    0    0 -0.21290333276E+01  0.46995063218E+01  0.41703324006E+00  0.51761046708E+01  0.51100000000E-03 0. -1.
        -11    1    3    3    0    0 -0.22339624524E+01  0.14222854611E+02 -0.27253870230E+01  0.14652914939E+02  0.51100000000E-03 0.  1.
        -12    1    3    3    0    0 -0.23740194132E+02  0.14081565287E+02  0.44471188040E+01  0.27958257528E+02  0.00000000000E+00 0.  1.
</event>
<event>
 7    1  0.3851772E-009  0.4778727E+02  0.7816164E-02  0.1312668E+00
        -11   -1    0    0    0    0  0.00000000000E+00  0.00000000000E+00  0.45593999997E+02  0.45594000000E+02  0.51100000000E-03 0.  1.
         11   -1    0    0    0    0 -0.00000000000E+00 -0.00000000000E+00 -0.45593999997E+02  0.45594000000E+02  0.51100000000E-03 0. -1.
    9900012    2    1    2    0    0  0.63190434947E+01 -0.35275515649E+00  0.42936797559E+02  0.47787270380E+02  0.19999996971E+02 0.  0.
         12    1    1    2    0    0 -0.63190434947E+01  0.35275515649E+00 -0.42936797559E+02  0.43400729620E+02  0.00000000000E+00 0. -1.
         11    1    3    3    0    0  0.34869143504E+01  0.78060750790E+00  0.33524126109E+01  0.48996520635E+01  0.51100000000E-03 0. -1.
        -11    1    3    3    0    0  0.26035929821E+01  0.25320673789E+01  0.54099716742E+00  0.36718850505E+01  0.51100000000E-03 0.  1.
        -12    1    3    3    0    0  0.22853616212E+00 -0.36654300433E+01  0.39043387781E+02  0.39215733266E+02  0.00000000000E+00 0.  1.
</event>
<event>
 7    1  0.3851772E-009  0.4778726E+02  0.7816164E-02  0.1312668E+00
        -11   -1    0    0    0    0  0.00000000000E+00  0.00000000000E+00  0.45593999997E+02  0.45594000000E+02  0.51100000000E-03 0. -1.
         11   -1    0    0    0    0 -0.00000000000E+00 -0.00000000000E+00 -0.45593999997E+02  0.45594000000E+02  0.51100000000E-03 0.  1.
    9900012    2    1    2    0    0  0.16983516673E+02  0.39469913335E+02 -0.61082297178E+01  0.47787258445E+02  0.19999942553E+02 0.  0.
         12    1    1    2    0    0 -0.16983516673E+02 -0.39469913335E+02  0.61082297178E+01  0.43400741555E+02  0.00000000000E+00 0. -1.
         11    1    3    3    0    0  0.22785650722E+01 -0.12453758332E+01 -0.19605300567E+01  0.32536899236E+01  0.51100000000E-03 0. -1.
        -11    1    3    3    0    0  0.12074097117E+02  0.32919754917E+02 -0.71309636707E+01  0.35781905038E+02  0.51100000000E-03 0.  1.
        -12    1    3    3    0    0  0.26308544833E+01  0.77955342512E+01  0.29832640096E+01  0.87516634833E+01  0.00000000000E+00 0.  1.
</event>
<event>
 7    1  0.3851772E-009  0.4778727E+02  0.7816164E-02  0.1312668E+00
        -11   -1    0    0    0    0  0.00000000000E+00  0.00000000000E+00  0.45593999997E+02  0.45594000000E+02  0.51100000000E-03 0.  1.
         11   -1    0    0    0    0 -0.00000000000E+00 -0.00000000000E+00 -0.45593999997E+02  0.45594000000E+02  0.51100000000E-03 0. -1.
    9900012    2    1    2    0    0  0.82898621874E+00  0.19617033040E+02  0.38705401344E+02  0.47787270782E+02  0.19999998804E+02 0.  0.
         12    1    1    2    0    0 -0.82898621874E+00 -0.19617033040E+02 -0.38705401344E+02  0.43400729218E+02  0.00000000000E+00 0. -1.
         11    1    3    3    0    0  0.23940264278E+01  0.36680623898E+01  0.24293473746E+02  0.24685196194E+02  0.51100000000E-03 0. -1.
        -11    1    3    3    0    0  0.17238191369E+01  0.12761887638E+02  0.13026409912E+02  0.18317332884E+02  0.51100000000E-03 0.  1.
         12    1    3    3    0    0 -0.32888593460E+01  0.31870830125E+01  0.13855176860E+01  0.47847417050E+01  0.00000000000E+00 0. -1.
</event>
<event>
 7    1  0.3851772E-009  0.4778727E+02  0.7816164E-02  0.1312668E+00
        -11   -1    0    0    0    0  0.00000000000E+00  0.00000000000E+00  0.45593999997E+02  0.45594000000E+02  0.51100000000E-03 0.  1.
         11   -1    0    0    0    0 -0.00000000000E+00 -0.00000000000E+00 -0.45593999997E+02  0.45594000000E+02  0.51100000000E-03 0. -1.
    9900012    2    1    2    0    0 -0.78036908960E+01 -0.21940695506E+02  0.36624195011E+02  0.47787269925E+02  0.19999994896E+02 0.  0.
         12    1    1    2    0    0  0.78036908960E+01  0.21940695506E+02 -0.36624195011E+02  0.43400730075E+02  0.00000000000E+00 0. -1.
         11    1    3    3    0    0 -0.24818515544E+01  0.22563523233E+01  0.36228572944E+01  0.49371862616E+01  0.51100000000E-03 0. -1.
        -11    1    3    3    0    0 -0.78802163325E+01 -0.17922620768E+02  0.28970571508E+02  0.34965871338E+02  0.51100000000E-03 0.  1.
        -12    1    3    3    0    0  0.25583769910E+01 -0.62744270610E+01  0.40307662078E+01  0.78842123255E+01  0.00000000000E+00 0.  1.
</event>
<event>
 7    1  0.3851772E-009  0.4778727E+02  0.7816164E-02  0.1312668E+00
        -11   -1    0    0    0    0  0.00000000000E+00  0.00000000000E+00  0.45593999997E+02  0.45594000000E+02  0.51100000000E-03 0. -1.
         11   -1    0    0    0    0 -0.00000000000E+00 -0.00000000000E+00 -0.45593999997E+02  0.45594000000E+02  0.51100000000E-03 0.  1.
    9900012    2    1    2    0    0 -0.22901649742E+01 -0.31149004399E+02 -0.30134995027E+02  0.47787271252E+02  0.20000000944E+02 0.  0.
         12    1    1    2    0    0  0.22901649742E+01  0.31149004399E+02  0.30134995027E+02  0.43400728748E+02  0.00000000000E+00 0. -1.
         11    1    3    3    0    0  0.40716067575E+01 -0.13637672105E+01  0.47137017587E+00  0.43197259978E+01  0.51100000000E-03 0. -1.
        -11    1    3    3    0    0 -0.34578719660E+01 -0.23085565210E+02 -0.20984378018E+02  0.31388601763E+02  0.51100000000E-03 0.  1.
         12    1    3    3    0    0 -0.29038997657E+01 -0.66996719785E+01 -0.96219871845E+01  0.12078943491E+02  0.00000000000E+00 0. -1.
</event>
<event>
 7    1  0.3851772E-009  0.4778727E+02  0.7816164E-02  0.1312668E+00
        -11   -1    0    0    0    0  0.00000000000E+00  0.00000000000E+00  0.45593999997E+02  0.45594000000E+02  0.51100000000E-03 0. -1.
         11   -1    0    0    0    0 -0.00000000000E+00 -0.00000000000E+00 -0.45593999997E+02  0.45594000000E+02  0.51100000000E-03 0.  1.
    9900012    2    1    2    0    0  0.25802733349E+02 -0.24534526649E+02 -0.24817320251E+02  0.47787269239E+02  0.19999991767E+02 0.  0.
         12    1    1    2    0    0 -0.25802733349E+02  0.24534526649E+02  0.24817320251E+02  0.43400730761E+02  0.00000000000E+00 0. -1.
         11    1    3    3    0    0  0.11745996388E+02 -0.12238266557E+02 -0.21338758700E+02  0.27259607894E+02  0.51100000000E-03 0. -1.
        -11    1    3    3    0    0  0.11797879726E+02 -0.10682958898E+02 -0.57686907329E+01  0.16929068784E+02  0.51100000000E-03 0.  1.
         12    1    3    3    0    0  0.22588572357E+01 -0.16133011935E+01  0.22901291810E+01  0.35985925607E+01  0.00000000000E+00 0. -1.
</event>
<event>
 7    1  0.3851772E-009  0.4778727E+02  0.7816164E-02  0.1312668E+00
        -11   -1    0    0    0    0  0.00000000000E+00  0.00000000000E+00  0.45593999997E+02  0.45594000000E+02  0.51100000000E-03 0. -1.
         11   -1    0    0    0    0 -0.00000000000E+00 -0.00000000000E+00 -0.45593999997E+02  0.45594000000E+02  0.51100000000E-03 0.  1.
    9900012    2    1    2    0    0 -0.13008627154E+02  0.40382638553E+02  0.91455866113E+01  0.47787266926E+02  0.19999981222E+02 0.  0.
         12    1    1    2    0    0  0.13008627154E+02 -0.40382638553E+02 -0.91455866113E+01  0.43400733074E+02  0.00000000000E+00 0. -1.
         11    1    3    3    0    0 -0.29846873831E+01  0.46748517432E+01  0.11620062153E+01  0.56668206519E+01  0.51100000000E-03 0. -1.
        -11    1    3    3    0    0 -0.49858910990E+01  0.28451223187E+00 -0.12910421236E+01  0.51581825566E+01  0.51100000000E-03 0.  1.
        -12    1    3    3    0    0 -0.50380486721E+01  0.35423274578E+02  0.92746225196E+01  0.36962263717E+02  0.00000000000E+00 0.  1.
</event>
<event>
 7    1  0.3851772E-009  0.4778727E+02  0.7816164E-02  0.1312668E+00
        -11   -1    0    0    0    0  0.00000000000E+00  0.00000000000E+00  0.45593999997E+02  0.45594000000E+02  0.51100000000E-03 0.  1.
         11   -1    0    0    0    0 -0.00000000000E+00 -0.00000000000E+00 -0.45593999997E+02  0.45594000000E+02  0.51100000000E-03 0. -1.
    9900012    2    1    2    0    0  0.19756125228E+02 -0.15271746922E+02  0.35497781768E+02  0.47787271337E+02  0.20000001334E+02 0.  0.
         12    1    1    2    0    0 -0.19756125228E+02  0.15271746922E+02 -0.35497781768E+02  0.43400728663E+02  0.00000000000E+00 0. -1.
         11    1    3    3    0    0 -0.23990255378E+01 -0.11478285780E+00 -0.17589972578E+00  0.24082025683E+01  0.51100000000E-03 0. -1.
        -11    1    3    3    0    0  0.10434848471E+02 -0.10787369054E+02  0.15022257137E+02  0.21234914728E+02  0.51100000000E-03 0.  1.
         12    1    3    3    0    0  0.11720302294E+02 -0.43695950099E+01  0.20651424356E+02  0.24144154041E+02  0.00000000000E+00 0. -1.
</event>
<event>
 7    1  0.3851772E-009  0.4778728E+02  0.7816164E-02  0.1312668E+00
        -11   -1    0    0    0    0  0.00000000000E+00  0.00000000000E+00  0.45593999997E+02  0.45594000000E+02  0.51100000000E-03 0.  1.
         11   -1    0    0    0    0 -0.00000000000E+00 -0.00000000000E+00 -0.45593999997E+02  0.45594000000E+02  0.51100000000E-03 0. -1.
    9900012    2    1    2    0    0  0.25881972110E+02  0.15078077884E+02  0.31406973121E+02  0.47787275655E+02  0.20000021022E+02 0.  0.
         12    1    1    2    0    0 -0.25881972110E+02 -0.15078077884E+02 -0.31406973121E+02  0.43400724345E+02  0.00000000000E+00 0. -1.
         11    1    3    3    0    0  0.13499887677E+02  0.96508723201E+01  0.60573486352E+01  0.17665723211E+02  0.51100000000E-03 0. -1.
        -11    1    3    3    0    0  0.36061582851E+01  0.54588746676E+01  0.60101350142E+01  0.88839976004E+01  0.51100000000E-03 0.  1.
         12    1    3    3    0    0  0.87759261486E+01 -0.31669103433E-01  0.19339489472E+02  0.21237554844E+02  0.00000000000E+00 0. -1.
</event>
<event>
 7    1  0.3851772E-009  0.4778727E+02  0.7816164E-02  0.1312668E+00
        -11   -1    0    0    0    0  0.00000000000E+00  0.00000000000E+00  0.45593999997E+02  0.45594000000E+02  0.51100000000E-03 0. -1.
         11   -1    0    0    0    0 -0.00000000000E+00 -0.00000000000E+00 -0.45593999997E+02  0.45594000000E+02  0.51100000000E-03 0.  1.
    9900012    2    1    2    0    0 -0.34968418258E+02  0.20831137201E+02  0.15063105304E+02  0.47787266205E+02  0.19999977934E+02 0.  0.
         12    1    1    2    0    0  0.34968418258E+02 -0.20831137201E+02 -0.15063105304E+02  0.43400733795E+02  0.00000000000E+00 0. -1.
         11    1    3    3    0    0 -0.18181311814E+02  0.50270190152E+01  0.10023988812E+02  0.21361445911E+02  0.51100000000E-03 0. -1.
        -11    1    3    3    0    0 -0.21644099006E+01  0.93413734419E+01  0.40469550101E+01  0.10407870729E+02  0.51100000000E-03 0.  1.
         12    1    3    3    0    0 -0.14622696544E+02  0.64627447439E+01  0.99216148152E+00  0.16017949564E+02  0.00000000000E+00 0. -1.
</event>
<event>
 7    1  0.3851772E-009  0.4778727E+02  0.7816164E-02  0.1312668E+00
        -11   -1    0    0    0    0  0.00000000000E+00  0.00000000000E+00  0.45593999997E+02  0.45594000000E+02  0.51100000000E-03 0.  1.
         11   -1    0    0    0    0 -0.00000000000E+00 -0.00000000000E+00 -0.45593999997E+02  0.45594000000E+02  0.51100000000E-03 0. -1.
    9900012    2    1    2    0    0  0.32826552056E+02 -0.24954606235E+01  0.28280971300E+02  0.47787272111E+02  0.20000004862E+02 0.  0.
         12    1    1    2    0    0 -0.32826552056E+02  0.24954606235E+01 -0.28280971300E+02  0.43400727889E+02  0.00000000000E+00 0. -1.
         11    1    3    3    0    0  0.47680362538E+01  0.47335733030E+01  0.94917085201E+01  0.11628990361E+02  0.51100000000E-03 0.  1.
        -11    1    3    3    0    0  0.43157549864E+00  0.17517546743E+01  0.69158788281E+00  0.19321480044E+01  0.51100000000E-03 0. -1.
         12    1    3    3    0    0  0.27626940304E+02 -0.89807886007E+01  0.18097674897E+02  0.34226133745E+02  0.00000000000E+00 0. -1.
</event>
<event>
 7    1  0.3851772E-009  0.4778727E+02  0.7816164E-02  0.1312668E+00
        -11   -1    0    0    0    0  0.00000000000E+00  0.00000000000E+00  0.45593999997E+02  0.45594000000E+02  0.51100000000E-03 0. -1.
         11   -1    0    0    0    0 -0.00000000000E+00 -0.00000000000E+00 -0.45593999997E+02  0.45594000000E+02  0.51100000000E-03 0.  1.
    9900012    2    1    2    0    0  0.70221496314E+01 -0.33848227737E+02 -0.26241380914E+02  0.47787272141E+02  0.20000005000E+02 0.  0.
         12    1    1    2    0    0 -0.70221496314E+01  0.33848227737E+02  0.26241380914E+02  0.43400727859E+02  0.00000000000E+00 0. -1.
         11    1    3    3    0    0  0.24348051713E+01  0.11168911532E+01  0.43740012298E+00  0.27142293932E+01  0.51100000000E-03 0. -1.
        -11    1    3    3    0    0  0.70019794436E+01 -0.29552728745E+02 -0.21608819321E+02  0.37273751691E+02  0.51100000000E-03 0.  1.
         12    1    3    3    0    0 -0.24146349835E+01 -0.54123901452E+01 -0.50699617163E+01  0.77992910570E+01  0.00000000000E+00 0. -1.
</event>
<event>
 7    1  0.3851772E-009  0.4778727E+02  0.7816164E-02  0.1312668E+00
        -11   -1    0    0    0    0  0.00000000000E+00  0.00000000000E+00  0.45593999997E+02  0.45594000000E+02  0.51100000000E-03 0. -1.
         11   -1    0    0    0    0 -0.00000000000E+00 -0.00000000000E+00 -0.45593999997E+02  0.45594000000E+02  0.51100000000E-03 0.  1.
    9900012    2    1    2    0    0 -0.41837164146E+02  0.11377208873E+02  0.19580677128E+01  0.47787271727E+02  0.20000003111E+02 0.  0.
         12    1    1    2    0    0  0.41837164146E+02 -0.11377208873E+02 -0.19580677128E+01  0.43400728273E+02  0.00000000000E+00 0. -1.
         11    1    3    3    0    0 -0.32973287979E+01  0.30331011849E+01  0.23328518614E+01  0.50511660107E+01  0.51100000000E-03 0. -1.
        -11    1    3    3    0    0 -0.18281710587E+02  0.15440616078E+01  0.76936491511E+01  0.19894655206E+02  0.51100000000E-03 0.  1.
        -12    1    3    3    0    0 -0.20258124761E+02  0.68000460799E+01 -0.80684332996E+01  0.22841450511E+02  0.00000000000E+00 0.  1.
</event>
<event>
 7    1  0.3851772E-009  0.4778727E+02  0.7816164E-02  0.1312668E+00
        -11   -1    0    0    0    0  0.00000000000E+00  0.00000000000E+00  0.45593999997E+02  0.45594000000E+02  0.51100000000E-03 0. -1.
         11   -1    0    0    0    0 -0.00000000000E+00 -0.00000000000E+00 -0.45593999997E+02  0.45594000000E+02  0.51100000000E-03 0.  1.
    9900012    2    1    2    0    0 -0.26755212249E+02 -0.20455226801E+02 -0.27374542240E+02  0.47787271333E+02  0.20000001316E+02 0.  0.
         12    1    1    2    0    0  0.26755212249E+02  0.20455226801E+02  0.27374542240E+02  0.43400728667E+02  0.00000000000E+00 0. -1.
         11    1    3    3    0    0 -0.71049017984E+01  0.75283904459E+00 -0.12788670515E+02  0.14649112260E+02  0.51100000000E-03 0. -1.
        -11    1    3    3    0    0 -0.18057121169E+02 -0.18617497604E+02 -0.10352733172E+02  0.27925793209E+02  0.51100000000E-03 0.  1.
         12    1    3    3    0    0 -0.15931892817E+01 -0.25905682412E+01 -0.42331385528E+01  0.52123658647E+01  0.00000000000E+00 0. -1.
</event>
<event>
 7    1  0.3851772E-009  0.4778727E+02  0.7816164E-02  0.1312668E+00
        -11   -1    0    0    0    0  0.00000000000E+00  0.00000000000E+00  0.45593999997E+02  0.45594000000E+02  0.51100000000E-03 0.  1.
         11   -1    0    0    0    0 -0.00000000000E+00 -0.00000000000E+00 -0.45593999997E+02  0.45594000000E+02  0.51100000000E-03 0. -1.
    9900012    2    1    2    0    0  0.27037330047E+02  0.23214750494E+02  0.24772594967E+02  0.47787270537E+02  0.19999997686E+02 0.  0.
         12    1    1    2    0    0 -0.27037330047E+02 -0.23214750494E+02 -0.24772594967E+02  0.43400729463E+02  0.00000000000E+00 0. -1.
         11    1    3    3    0    0  0.57021906778E+00 -0.21229683154E+01  0.60310052197E+01  0.64191252110E+01  0.51100000000E-03 0. -1.
        -11    1    3    3    0    0  0.10020986927E+02  0.12230646161E+02  0.71252232989E+01  0.17342943574E+02  0.51100000000E-03 0.  1.
         12    1    3    3    0    0  0.16446124052E+02  0.13107072648E+02  0.11616366448E+02  0.24025201751E+02  0.00000000000E+00 0. -1.
</event>
<event>
 7    1  0.3851772E-009  0.4778727E+02  0.7816164E-02  0.1312668E+00
        -11   -1    0    0    0    0  0.00000000000E+00  0.00000000000E+00  0.45593999997E+02  0.45594000000E+02  0.51100000000E-03 0.  1.
         11   -1    0    0    0    0 -0.00000000000E+00 -0.00000000000E+00 -0.45593999997E+02  0.45594000000E+02  0.51100000000E-03 0. -1.
    9900012    2    1    2    0    0 -0.30271676086E+01 -0.80131110128E+01  0.42547028069E+02  0.47787270866E+02  0.19999999186E+02 0.  0.
         12    1    1    2    0    0  0.30271676086E+01  0.80131110128E+01 -0.42547028069E+02  0.43400729134E+02  0.00000000000E+00 0. -1.
         11    1    3    3    0    0  0.41331755229E+01 -0.93786802853E+01  0.24296706302E+02  0.26369920765E+02  0.51100000000E-03 0. -1.
        -11    1    3    3    0    0 -0.13986725987E+01 -0.14942025453E+01  0.12869262912E+02  0.13030995912E+02  0.51100000000E-03 0.  1.
         12    1    3    3    0    0 -0.57616705328E+01  0.28597718179E+01  0.53810588554E+01  0.83863541890E+01  0.00000000000E+00 0. -1.
</event>
<event>
 7    1  0.3851772E-009  0.4778727E+02  0.7816164E-02  0.1312668E+00
        -11   -1    0    0    0    0  0.00000000000E+00  0.00000000000E+00  0.45593999997E+02  0.45594000000E+02  0.51100000000E-03 0.  1.
         11   -1    0    0    0    0 -0.00000000000E+00 -0.00000000000E+00 -0.45593999997E+02  0.45594000000E+02  0.51100000000E-03 0. -1.
    9900012    2    1    2    0    0  0.18592900467E+02  0.24252288613E+02  0.30818079599E+02  0.47787268659E+02  0.19999989125E+02 0.  0.
         12    1    1    2    0    0 -0.18592900467E+02 -0.24252288613E+02 -0.30818079599E+02  0.43400731341E+02  0.00000000000E+00 0. -1.
         11    1    3    3    0    0  0.22253464716E+01  0.23849676876E+01  0.13233148433E+02  0.13629249997E+02  0.51100000000E-03 0. -1.
        -11    1    3    3    0    0  0.13293295277E+02  0.21636385405E+02  0.12727457758E+02  0.28404806882E+02  0.51100000000E-03 0.  1.
        -12    1    3    3    0    0  0.30742587182E+01  0.23093552039E+00  0.48574734078E+01  0.57532117803E+01  0.00000000000E+00 0.  1.
</event>
<event>
 7    1  0.3851772E-009  0.4778728E+02  0.7816164E-02  0.1312668E+00
        -11   -1    0    0    0    0  0.00000000000E+00  0.00000000000E+00  0.45593999997E+02  0.45594000000E+02  0.51100000000E-03 0.  1.
         11   -1    0    0    0    0 -0.00000000000E+00 -0.00000000000E+00 -0.45593999997E+02  0.45594000000E+02  0.51100000000E-03 0. -1.
    9900012    2    1    2    0    0 -0.72459196453E+01 -0.22815834119E+02  0.36201612255E+02  0.47787281482E+02  0.20000047589E+02 0.  0.
         12    1    1    2    0    0  0.72459196453E+01  0.22815834119E+02 -0.36201612255E+02  0.43400718518E+02  0.00000000000E+00 0. -1.
         11    1    3    3    0    0 -0.20000562903E+01  0.21990568954E+01  0.91095221965E+01  0.95822477167E+01  0.51100000000E-03 0. -1.
        -11    1    3    3    0    0 -0.41606119405E+01 -0.18378899025E+02  0.24701411360E+02  0.31068542684E+02  0.51100000000E-03 0.  1.
         12    1    3    3    0    0 -0.10852514145E+01 -0.66359919891E+01  0.23906786985E+01  0.71364910811E+01  0.00000000000E+00 0. -1.
</event>
<event>
 7    1  0.3851772E-009  0.4778727E+02  0.7816164E-02  0.1312668E+00
        -11   -1    0    0    0    0  0.00000000000E+00  0.00000000000E+00  0.45593999997E+02  0.45594000000E+02  0.51100000000E-03 0.  1.
         11   -1    0    0    0    0 -0.00000000000E+00 -0.00000000000E+00 -0.45593999997E+02  0.45594000000E+02  0.51100000000E-03 0. -1.
    9900012    2    1    2    0    0 -0.14462305015E+02 -0.25989909949E+02  0.31606797624E+02  0.47787270265E+02  0.19999996444E+02 0.  0.
         12    1    1    2    0    0  0.14462305015E+02  0.25989909949E+02 -0.31606797624E+02  0.43400729735E+02  0.00000000000E+00 0. -1.
         11    1    3    3    0    0  0.65276762635E+00 -0.13019651948E+02  0.40043896087E+01  0.13637176350E+02  0.51100000000E-03 0. -1.
        -11    1    3    3    0    0 -0.63540492056E+01 -0.38511996584E+01  0.11162902210E+02  0.13409551302E+02  0.51100000000E-03 0.  1.
         12    1    3    3    0    0 -0.87610234356E+01 -0.91190583431E+01  0.16439505805E+02  0.20740542612E+02  0.00000000000E+00 0. -1.
</event>
<event>
 7    1  0.3851772E-009  0.4778728E+02  0.7816164E-02  0.1312668E+00
        -11   -1    0    0    0    0  0.00000000000E+00  0.00000000000E+00  0.45593999997E+02  0.45594000000E+02  0.51100000000E-03 0.  1.
         11   -1    0    0    0    0 -0.00000000000E+00 -0.00000000000E+00 -0.45593999997E+02  0.45594000000E+02  0.51100000000E-03 0. -1.
    9900012    2    1    2    0    0 -0.58481984409E+01 -0.39672877872E+02  0.16597716935E+02  0.47787275684E+02  0.20000021154E+02 0.  0.
         12    1    1    2    0    0  0.58481984409E+01  0.39672877872E+02 -0.16597716935E+02  0.43400724316E+02  0.00000000000E+00 0. -1.
         11    1    3    3    0    0 -0.48157338625E+00 -0.18424408181E+01  0.39726165647E+00  0.19453324084E+01  0.51100000000E-03 0. -1.
        -11    1    3    3    0    0 -0.49952891594E+01 -0.13388043062E+02 -0.31884656475E+01  0.14641001477E+02  0.51100000000E-03 0.  1.
        -12    1    3    3    0    0 -0.37133589526E+00 -0.24442393992E+02  0.19388920926E+02  0.31200941798E+02  0.00000000000E+00 0.  1.
</event>
<event>
 7    1  0.3851772E-009  0.4778727E+02  0.7816164E-02  0.1312668E+00
        -11   -1    0    0    0    0  0.00000000000E+00  0.00000000000E+00  0.45593999997E+02  0.45594000000E+02  0.51100000000E-03 0.  1.
         11   -1    0    0    0    0 -0.00000000000E+00 -0.00000000000E+00 -0.45593999997E+02  0.45594000000E+02  0.51100000000E-03 0. -1.
    9900012    2    1    2    0    0 -0.30907767283E+02  0.30389376510E+02 -0.21952059710E+01  0.47787271753E+02  0.20000003230E+02 0.  0.
         12    1    1    2    0    0  0.30907767283E+02 -0.30389376510E+02  0.21952059710E+01  0.43400728247E+02  0.00000000000E+00 0. -1.
         11    1    3    3    0    0 -0.15981926690E+02  0.20707410367E+02  0.58451046761E+01  0.26802687809E+02  0.51100000000E-03 0. -1.
        -11    1    3    3    0    0 -0.70558425595E+01  0.62165006849E+01 -0.29003795888E+00  0.94081835265E+01  0.51100000000E-03 0.  1.
         12    1    3    3    0    0 -0.78699980333E+01  0.34654654585E+01 -0.77502726882E+01  0.11576400418E+02  0.00000000000E+00 0. -1.
</event>
<event>
 7    1  0.3851772E-009  0.4778727E+02  0.7816164E-02  0.1312668E+00
        -11   -1    0    0    0    0  0.00000000000E+00  0.00000000000E+00  0.45593999997E+02  0.45594000000E+02  0.51100000000E-03 0.  1.
         11   -1    0    0    0    0 -0.00000000000E+00 -0.00000000000E+00 -0.45593999997E+02  0.45594000000E+02  0.51100000000E-03 0. -1.
    9900012    2    1    2    0    0  0.66604466323E+01 -0.28357135646E+02  0.32173504093E+02  0.47787273543E+02  0.20000011390E+02 0.  0.
         12    1    1    2    0    0 -0.66604466323E+01  0.28357135646E+02 -0.32173504093E+02  0.43400726457E+02  0.00000000000E+00 0. -1.
         11    1    3    3    0    0  0.70413294262E+00 -0.18326373936E+00  0.62076037951E+00  0.95641649345E+00  0.51100000000E-03 0.  1.
        -11    1    3    3    0    0  0.20257050532E+01  0.11252246875E+01 -0.12828958633E+01  0.26486663847E+01  0.51100000000E-03 0. -1.
        -12    1    3    3    0    0  0.39306086365E+01 -0.29299096595E+02  0.32835639577E+02  0.44182190665E+02  0.00000000000E+00 0.  1.
</event>
<event>
 7    1  0.3851772E-009  0.4778727E+02  0.7816164E-02  0.1312668E+00
        -11   -1    0    0    0    0  0.00000000000E+00  0.00000000000E+00  0.45593999997E+02  0.45594000000E+02  0.51100000000E-03 0.  1.
         11   -1    0    0    0    0 -0.00000000000E+00 -0.00000000000E+00 -0.45593999997E+02  0.45594000000E+02  0.51100000000E-03 0. -1.
    9900012    2    1    2    0    0  0.18085050945E+02  0.25284866643E+02  0.30285798838E+02  0.47787272355E+02  0.20000005978E+02 0.  0.
         12    1    1    2    0    0 -0.18085050945E+02 -0.25284866643E+02 -0.30285798838E+02  0.43400727645E+02  0.00000000000E+00 0. -1.
         11    1    3    3    0    0  0.39406577651E+01  0.22977179187E+01 -0.23081934218E+01  0.51123427496E+01  0.51100000000E-03 0. -1.
        -11    1    3    3    0    0  0.11652821549E+02  0.21533810207E+02  0.30492697249E+02  0.39106237582E+02  0.51100000000E-03 0.  1.
         12    1    3    3    0    0  0.24915716304E+01  0.14533385175E+01  0.21012950109E+01  0.35686920235E+01  0.00000000000E+00 0. -1.
</event>
<event>
 7    1  0.3851772E-009  0.4778727E+02  0.7816164E-02  0.1312668E+00
        -11   -1    0    0    0    0  0.00000000000E+00  0.00000000000E+00  0.45593999997E+02  0.45594000000E+02  0.51100000000E-03 0.  1.
         11   -1    0    0    0    0 -0.00000000000E+00 -0.00000000000E+00 -0.45593999997E+02  0.45594000000E+02  0.51100000000E-03 0. -1.
    9900012    2    1    2    0    0  0.21333567071E+00 -0.34736290078E+02  0.26018605835E+02  0.47787271779E+02  0.20000003348E+02 0.  0.
         12    1    1    2    0    0 -0.21333567071E+00  0.34736290078E+02 -0.26018605835E+02  0.43400728221E+02  0.00000000000E+00 0. -1.
         11    1    3    3    0    0  0.66217071909E+01 -0.76669593822E+01  0.12330690117E+02  0.15958546028E+02  0.51100000000E-03 0. -1.
        -11    1    3    3    0    0 -0.19155222375E+01 -0.21233854375E+02  0.93384297001E+01  0.23275568019E+02  0.51100000000E-03 0.  1.
         12    1    3    3    0    0 -0.44928492827E+01 -0.58354763212E+01  0.43494860182E+01  0.85531577324E+01  0.00000000000E+00 0. -1.
</event>
<event>
 7    1  0.3851772E-009  0.4778721E+02  0.7816164E-02  0.1312668E+00
        -11   -1    0    0    0    0  0.00000000000E+00  0.00000000000E+00  0.45593999997E+02  0.45594000000E+02  0.51100000000E-03 0.  1.
         11   -1    0    0    0    0 -0.00000000000E+00 -0.00000000000E+00 -0.45593999997E+02  0.45594000000E+02  0.51100000000E-03 0. -1.
    9900012    2    1    2    0    0  0.27625183547E+02 -0.24064705147E+02  0.23267314823E+02  0.47787208084E+02  0.19999712936E+02 0.  0.
         12    1    1    2    0    0 -0.27625183547E+02  0.24064705147E+02 -0.23267314823E+02  0.43400791916E+02  0.00000000000E+00 0. -1.
         11    1    3    3    0    0  0.68939908696E+01 -0.92931625553E+00  0.71284323237E+01  0.99601850619E+01  0.51100000000E-03 0. -1.
        -11    1    3    3    0    0  0.70199425235E+01 -0.61476065189E+01 -0.18819840880E+01  0.95191661039E+01  0.51100000000E-03 0.  1.
        -12    1    3    3    0    0  0.13711250154E+02 -0.16987782373E+02  0.18020866588E+02  0.28307856918E+02  0.00000000000E+00 0.  1.
</event>
<event>
 7    1  0.3851772E-009  0.4778727E+02  0.7816164E-02  0.1312668E+00
        -11   -1    0    0    0    0  0.00000000000E+00  0.00000000000E+00  0.45593999997E+02  0.45594000000E+02  0.51100000000E-03 0. -1.
         11   -1    0    0    0    0 -0.00000000000E+00 -0.00000000000E+00 -0.45593999997E+02  0.45594000000E+02  0.51100000000E-03 0.  1.
    9900012    2    1    2    0    0  0.27060583861E+02 -0.30131339927E+01 -0.33797472539E+02  0.47787270451E+02  0.19999997294E+02 0.  0.
         12    1    1    2    0    0 -0.27060583861E+02  0.30131339927E+01  0.33797472539E+02  0.43400729549E+02  0.00000000000E+00 0. -1.
         11    1    3    3    0    0  0.12458881881E+02  0.17238986948E+01 -0.29092376101E+02  0.31694824687E+02  0.51100000000E-03 0.  1.
        -11    1    3    3    0    0  0.11351090054E+02 -0.41507275187E+01 -0.36951211205E+01  0.12638421764E+02  0.51100000000E-03 0. -1.
        -12    1    3    3    0    0  0.32506119268E+01 -0.58630516875E+00 -0.10099753172E+01  0.34540239998E+01  0.00000000000E+00 0.  1.
</event>
<event>
 7    1  0.3851772E-009  0.4778727E+02  0.7816164E-02  0.1312668E+00
        -11   -1    0    0    0    0  0.00000000000E+00  0.00000000000E+00  0.45593999997E+02  0.45594000000E+02  0.51100000000E-03 0.  1.
         11   -1    0    0    0    0 -0.00000000000E+00 -0.00000000000E+00 -0.45593999997E+02  0.45594000000E+02  0.51100000000E-03 0. -1.
    9900012    2    1    2    0    0  0.18856227877E+01 -0.13571808790E+02  0.41180990684E+02  0.47787267738E+02  0.19999984926E+02 0.  0.
         12    1    1    2    0    0 -0.18856227877E+01  0.13571808790E+02 -0.41180990684E+02  0.43400732262E+02  0.00000000000E+00 0. -1.
         11    1    3    3    0    0 -0.22687087795E+00 -0.50832763472E+01  0.58261386331E+01  0.77353125632E+01  0.51100000000E-03 0. -1.
        -11    1    3    3    0    0 -0.13101395736E+01 -0.12766640988E+02  0.20147233857E+02  0.23887541108E+02  0.51100000000E-03 0.  1.
        -12    1    3    3    0    0  0.34226332392E+01  0.42781085451E+01  0.15207618194E+02  0.16164414067E+02  0.00000000000E+00 0.  1.
</event>
<event>
 7    1  0.3851772E-009  0.4778727E+02  0.7816164E-02  0.1312668E+00
        -11   -1    0    0    0    0  0.00000000000E+00  0.00000000000E+00  0.45593999997E+02  0.45594000000E+02  0.51100000000E-03 0. -1.
         11   -1    0    0    0    0 -0.00000000000E+00 -0.00000000000E+00 -0.45593999997E+02  0.45594000000E+02  0.51100000000E-03 0.  1.
    9900012    2    1    2    0    0 -0.37814375811E+02 -0.20938219253E+02 -0.39098695519E+01  0.47787272778E+02  0.20000007906E+02 0.  0.
         12    1    1    2    0    0  0.37814375811E+02  0.20938219253E+02  0.39098695519E+01  0.43400727222E+02  0.00000000000E+00 0. -1.
         11    1    3    3    0    0 -0.54500057066E+00  0.96950649416E+00 -0.95407654412E+00  0.14653432285E+01  0.51100000000E-03 0. -1.
        -11    1    3    3    0    0 -0.13468916227E+02 -0.10566593784E+02 -0.89018899730E+01  0.19295290977E+02  0.51100000000E-03 0.  1.
        -12    1    3    3    0    0 -0.23800459013E+02 -0.11341131963E+02  0.59460969653E+01  0.27026638573E+02  0.00000000000E+00 0.  1.
</event>
<event>
 7    1  0.3851772E-009  0.4778727E+02  0.7816164E-02  0.1312668E+00
        -11   -1    0    0    0    0  0.00000000000E+00  0.00000000000E+00  0.45593999997E+02  0.45594000000E+02  0.51100000000E-03 0.  1.
         11   -1    0    0    0    0 -0.00000000000E+00 -0.00000000000E+00 -0.45593999997E+02  0.45594000000E+02  0.51100000000E-03 0. -1.
    9900012    2    1    2    0    0  0.23259925783E+02  0.23038489944E+02  0.28492579408E+02  0.47787271346E+02  0.20000001377E+02 0.  0.
         12    1    1    2    0    0 -0.23259925783E+02 -0.23038489944E+02 -0.28492579408E+02  0.43400728654E+02  0.00000000000E+00 0. -1.
         11    1    3    3    0    0  0.16764094729E+02  0.88635423435E+01  0.71971770465E+01  0.20282914303E+02  0.51100000000E-03 0. -1.
        -11    1    3    3    0    0  0.40738748239E+01  0.22127317623E+01  0.30364777933E+01  0.55419162375E+01  0.51100000000E-03 0.  1.
         12    1    3    3    0    0  0.24219562302E+01  0.11962215839E+02  0.18258924568E+02  0.21962440806E+02  0.00000000000E+00 0. -1.
</event>
<event>
 7    1  0.3851772E-009  0.4778727E+02  0.7816164E-02  0.1312668E+00
        -11   -1    0    0    0    0  0.00000000000E+00  0.00000000000E+00  0.45593999997E+02  0.45594000000E+02  0.51100000000E-03 0.  1.
         11   -1    0    0    0    0 -0.00000000000E+00 -0.00000000000E+00 -0.45593999997E+02  0.45594000000E+02  0.51100000000E-03 0. -1.
    9900012    2    1    2    0    0 -0.22498361930E+02  0.32555267935E+02  0.17821377528E+02  0.47787271240E+02  0.20000000893E+02 0.  0.
         12    1    1    2    0    0  0.22498361930E+02 -0.32555267935E+02 -0.17821377528E+02  0.43400728760E+02  0.00000000000E+00 0. -1.
         11    1    3    3    0    0 -0.26150242460E+01  0.56168639403E+01  0.88933735444E+01  0.10838800930E+02  0.51100000000E-03 0. -1.
        -11    1    3    3    0    0 -0.13417137368E+02  0.26007401920E+02  0.64892844906E+01  0.29975245507E+02  0.51100000000E-03 0.  1.
        -12    1    3    3    0    0 -0.64662003159E+01  0.93100207512E+00  0.24387194932E+01  0.69732248032E+01  0.00000000000E+00 0.  1.
</event>
<event>
 7    1  0.3851772E-009  0.4778728E+02  0.7816164E-02  0.1312668E+00
        -11   -1    0    0    0    0  0.00000000000E+00  0.00000000000E+00  0.45593999997E+02  0.45594000000E+02  0.51100000000E-03 0.  1.
         11   -1    0    0    0    0 -0.00000000000E+00 -0.00000000000E+00 -0.45593999997E+02  0.45594000000E+02  0.51100000000E-03 0. -1.
    9900012    2    1    2    0    0  0.24614586184E+02  0.35655651049E+02 -0.25336679340E+01  0.47787276758E+02  0.20000026050E+02 0.  0.
         12    1    1    2    0    0 -0.24614586184E+02 -0.35655651049E+02  0.25336679340E+01  0.43400723242E+02  0.00000000000E+00 0. -1.
         11    1    3    3    0    0  0.17537823989E+02  0.12323626913E+02 -0.61072362968E+01  0.22287785579E+02  0.51100000000E-03 0. -1.
        -11    1    3    3    0    0 -0.56860835541E+00  0.84842454201E+01  0.19194751080E+01  0.87172312555E+01  0.51100000000E-03 0.  1.
        -12    1    3    3    0    0  0.76453705497E+01  0.14847778716E+02  0.16540932548E+01  0.16782259924E+02  0.00000000000E+00 0.  1.
</event>
<event>
 7    1  0.3851772E-009  0.4778727E+02  0.7816164E-02  0.1312668E+00
        -11   -1    0    0    0    0  0.00000000000E+00  0.00000000000E+00  0.45593999997E+02  0.45594000000E+02  0.51100000000E-03 0.  1.
         11   -1    0    0    0    0 -0.00000000000E+00 -0.00000000000E+00 -0.45593999997E+02  0.45594000000E+02  0.51100000000E-03 0. -1.
    9900012    2    1    2    0    0 -0.43639636375E+01 -0.68413251251E+01  0.42635376498E+02  0.47787271467E+02  0.20000001925E+02 0.  0.
         12    1    1    2    0    0  0.43639636375E+01  0.68413251251E+01 -0.42635376498E+02  0.43400728533E+02  0.00000000000E+00 0. -1.
         11    1    3    3    0    0 -0.23720702913E+01 -0.80807262875E+01  0.69918375819E+01  0.10945805034E+02  0.51100000000E-03 0. -1.
        -11    1    3    3    0    0 -0.48426670896E+01  0.30091419107E+01  0.17989011565E+02  0.18870900798E+02  0.51100000000E-03 0.  1.
         12    1    3    3    0    0  0.28507737434E+01 -0.17697407483E+01  0.17654527351E+02  0.17970565635E+02  0.00000000000E+00 0. -1.
</event>
<event>
 7    1  0.3851772E-009  0.4778727E+02  0.7816164E-02  0.1312668E+00
        -11   -1    0    0    0    0  0.00000000000E+00  0.00000000000E+00  0.45593999997E+02  0.45594000000E+02  0.51100000000E-03 0.  1.
         11   -1    0    0    0    0 -0.00000000000E+00 -0.00000000000E+00 -0.45593999997E+02  0.45594000000E+02  0.51100000000E-03 0. -1.
    9900012    2    1    2    0    0 -0.54894272159E+01  0.17671034900E+02  0.39258424315E+02  0.47787272296E+02  0.20000005706E+02 0.  0.
         12    1    1    2    0    0  0.54894272159E+01 -0.17671034900E+02 -0.39258424315E+02  0.43400727704E+02  0.00000000000E+00 0. -1.
         11    1    3    3    0    0  0.19971204293E+01  0.59929726795E+01  0.84997315605E+00  0.63739050961E+01  0.51100000000E-03 0. -1.
        -11    1    3    3    0    0 -0.65769193845E+01  0.38940203820E+01  0.18337842377E+02  0.19866950613E+02  0.51100000000E-03 0.  1.
         12    1    3    3    0    0 -0.90962826079E+00  0.77840418379E+01  0.20070608781E+02  0.21546416587E+02  0.00000000000E+00 0. -1.
</event>
<event>
 7    1  0.3851772E-009  0.4778726E+02  0.7816164E-02  0.1312668E+00
        -11   -1    0    0    0    0  0.00000000000E+00  0.00000000000E+00  0.45593999997E+02  0.45594000000E+02  0.51100000000E-03 0.  1.
         11   -1    0    0    0    0 -0.00000000000E+00 -0.00000000000E+00 -0.45593999997E+02  0.45594000000E+02  0.51100000000E-03 0. -1.
    9900012    2    1    2    0    0 -0.39272378442E+02  0.15642981956E+02 -0.98286214618E+01  0.47787258154E+02  0.19999941225E+02 0.  0.
         12    1    1    2    0    0  0.39272378442E+02 -0.15642981956E+02  0.98286214618E+01  0.43400741846E+02  0.00000000000E+00 0. -1.
         11    1    3    3    0    0 -0.10346649438E+00  0.29148660698E+01  0.33063131766E+01  0.44089518712E+01  0.51100000000E-03 0. -1.
        -11    1    3    3    0    0 -0.10536938067E+02  0.41050435665E+01 -0.51654196041E+01  0.12432216474E+02  0.51100000000E-03 0.  1.
         12    1    3    3    0    0 -0.28631973880E+02  0.86230723200E+01 -0.79695150342E+01  0.30946089808E+02  0.00000000000E+00 0. -1.
</event>
<event>
 7    1  0.3851772E-009  0.4778727E+02  0.7816164E-02  0.1312668E+00
        -11   -1    0    0    0    0  0.00000000000E+00  0.00000000000E+00  0.45593999997E+02  0.45594000000E+02  0.51100000000E-03 0.  1.
         11   -1    0    0    0    0 -0.00000000000E+00 -0.00000000000E+00 -0.45593999997E+02  0.45594000000E+02  0.51100000000E-03 0. -1.
    9900012    2    1    2    0    0 -0.19656197309E+02  0.19793827143E+02  0.33248486759E+02  0.47787267778E+02  0.19999985108E+02 0.  0.
         12    1    1    2    0    0  0.19656197309E+02 -0.19793827143E+02 -0.33248486759E+02  0.43400732222E+02  0.00000000000E+00 0. -1.
         11    1    3    3    0    0  0.14323406962E+01 -0.42800044476E+00 -0.12178711548E+00  0.14998721990E+01  0.51100000000E-03 0. -1.
        -11    1    3    3    0    0 -0.12204596598E+02  0.16842054711E+02  0.15133379458E+02  0.25722094764E+02  0.51100000000E-03 0.  1.
        -12    1    3    3    0    0 -0.88839414075E+01  0.33797728771E+01  0.18236894417E+02  0.20565300815E+02  0.00000000000E+00 0.  1.
</event>
<event>
 7    1  0.3851772E-009  0.4778727E+02  0.7816164E-02  0.1312668E+00
        -11   -1    0    0    0    0  0.00000000000E+00  0.00000000000E+00  0.45593999997E+02  0.45594000000E+02  0.51100000000E-03 0. -1.
         11   -1    0    0    0    0 -0.00000000000E+00 -0.00000000000E+00 -0.45593999997E+02  0.45594000000E+02  0.51100000000E-03 0.  1.
    9900012    2    1    2    0    0 -0.14249956444E+02 -0.39011811482E+02 -0.12595251972E+02  0.47787273440E+02  0.20000010920E+02 0.  0.
         12    1    1    2    0    0  0.14249956444E+02  0.39011811482E+02  0.12595251972E+02  0.43400726560E+02  0.00000000000E+00 0. -1.
         11    1    3    3    0    0 -0.13551966382E+02 -0.21561903483E+02 -0.18720382568E+01  0.25535778863E+02  0.51100000000E-03 0. -1.
        -11    1    3    3    0    0 -0.17417424036E+01 -0.73762583695E+01 -0.10772147058E+00  0.75798719191E+01  0.51100000000E-03 0.  1.
         12    1    3    3    0    0  0.10437523425E+01 -0.10073649629E+02 -0.10615492245E+02  0.14671622658E+02  0.00000000000E+00 0. -1.
</event>
<event>
 7    1  0.3851772E-009  0.4778727E+02  0.7816164E-02  0.1312668E+00
        -11   -1    0    0    0    0  0.00000000000E+00  0.00000000000E+00  0.45593999997E+02  0.45594000000E+02  0.51100000000E-03 0. -1.
         11   -1    0    0    0    0 -0.00000000000E+00 -0.00000000000E+00 -0.45593999997E+02  0.45594000000E+02  0.51100000000E-03 0.  1.
    9900012    2    1    2    0    0 -0.39813428122E+02  0.10549071403E+02 -0.13683244026E+02  0.47787272663E+02  0.20000007380E+02 0.  0.
         12    1    1    2    0    0  0.39813428122E+02 -0.10549071403E+02  0.13683244026E+02  0.43400727337E+02  0.00000000000E+00 0. -1.
         11    1    3    3    0    0 -0.25926829176E+02  0.15302006824E+02 -0.11848526401E+02  0.32353353181E+02  0.51100000000E-03 0. -1.
        -11    1    3    3    0    0 -0.25580180348E+01 -0.17512727205E+01  0.12059772056E+01  0.33263784645E+01  0.51100000000E-03 0.  1.
         12    1    3    3    0    0 -0.11328580911E+02 -0.30016627000E+01 -0.30406948309E+01  0.12107541017E+02  0.00000000000E+00 0. -1.
</event>
<event>
 7    1  0.3851772E-009  0.4778728E+02  0.7816164E-02  0.1312668E+00
        -11   -1    0    0    0    0  0.00000000000E+00  0.00000000000E+00  0.45593999997E+02  0.45594000000E+02  0.51100000000E-03 0. -1.
         11   -1    0    0    0    0 -0.00000000000E+00 -0.00000000000E+00 -0.45593999997E+02  0.45594000000E+02  0.51100000000E-03 0.  1.
    9900012    2    1    2    0    0 -0.16220366248E+02 -0.38470066627E+02 -0.11856495526E+02  0.47787276576E+02  0.20000025222E+02 0.  0.
         12    1    1    2    0    0  0.16220366248E+02  0.38470066627E+02  0.11856495526E+02  0.43400723424E+02  0.00000000000E+00 0. -1.
         11    1    3    3    0    0  0.51072587862E+00  0.55142455152E+00  0.22413745222E+01  0.23640367951E+01  0.51100000000E-03 0. -1.
        -11    1    3    3    0    0 -0.14258997673E+02 -0.29940565961E+02 -0.77049286727E+01  0.34045887135E+02  0.51100000000E-03 0.  1.
         12    1    3    3    0    0 -0.24720944538E+01 -0.90809252176E+01 -0.63929413757E+01  0.11377352646E+02  0.00000000000E+00 0. -1.
</event>
<event>
 7    1  0.3851772E-009  0.4778728E+02  0.7816164E-02  0.1312668E+00
        -11   -1    0    0    0    0  0.00000000000E+00  0.00000000000E+00  0.45593999997E+02  0.45594000000E+02  0.51100000000E-03 0. -1.
         11   -1    0    0    0    0 -0.00000000000E+00 -0.00000000000E+00 -0.45593999997E+02  0.45594000000E+02  0.51100000000E-03 0.  1.
    9900012    2    1    2    0    0  0.28667322668E+02 -0.22159745870E+01 -0.32509948087E+02  0.47787278152E+02  0.20000032405E+02 0.  0.
         12    1    1    2    0    0 -0.28667322668E+02  0.22159745870E+01  0.32509948087E+02  0.43400721848E+02  0.00000000000E+00 0. -1.
         11    1    3    3    0    0  0.17694020280E+02  0.57445565684E+01 -0.12912392116E+02  0.22645267811E+02  0.51100000000E-03 0. -1.
        -11    1    3    3    0    0  0.10026848340E+02 -0.93581305903E+01 -0.15424043857E+02  0.20640092658E+02  0.51100000000E-03 0.  1.
        -12    1    3    3    0    0  0.94645404731E+00  0.13975994349E+01 -0.41735121146E+01  0.45019176819E+01  0.00000000000E+00 0.  1.
</event>
<event>
 7    1  0.3851772E-009  0.4778727E+02  0.7816164E-02  0.1312668E+00
        -11   -1    0    0    0    0  0.00000000000E+00  0.00000000000E+00  0.45593999997E+02  0.45594000000E+02  0.51100000000E-03 0.  1.
         11   -1    0    0    0    0 -0.00000000000E+00 -0.00000000000E+00 -0.45593999997E+02  0.45594000000E+02  0.51100000000E-03 0. -1.
    9900012    2    1    2    0    0 -0.31415073170E+02 -0.10804781844E+02  0.27927998922E+02  0.47787271242E+02  0.20000000899E+02 0.  0.
         12    1    1    2    0    0  0.31415073170E+02  0.10804781844E+02 -0.27927998922E+02  0.43400728758E+02  0.00000000000E+00 0. -1.
         11    1    3    3    0    0 -0.21779102678E+02 -0.13512856419E+02  0.23915396991E+02  0.35055282278E+02  0.51100000000E-03 0.  1.
        -11    1    3    3    0    0 -0.98141126742E+01  0.34053690464E+01  0.49849387955E+01  0.11522281067E+02  0.51100000000E-03 0. -1.
         12    1    3    3    0    0  0.17814218276E+00 -0.69729447126E+00 -0.97233686486E+00  0.12097078968E+01  0.00000000000E+00 0. -1.
</event>
<event>
 7    1  0.3851772E-009  0.4778727E+02  0.7816164E-02  0.1312668E+00
        -11   -1    0    0    0    0  0.00000000000E+00  0.00000000000E+00  0.45593999997E+02  0.45594000000E+02  0.51100000000E-03 0.  1.
         11   -1    0    0    0    0 -0.00000000000E+00 -0.00000000000E+00 -0.45593999997E+02  0.45594000000E+02  0.51100000000E-03 0. -1.
    9900012    2    1    2    0    0  0.43172598593E+02 -0.41490390171E+01  0.15924294502E+01  0.47787266993E+02  0.19999981527E+02 0.  0.
         12    1    1    2    0    0 -0.43172598593E+02  0.41490390171E+01 -0.15924294502E+01  0.43400733007E+02  0.00000000000E+00 0. -1.
         11    1    3    3    0    0  0.15886454975E+02  0.72331878800E+00 -0.40333172857E+01  0.16406410038E+02  0.51100000000E-03 0. -1.
        -11    1    3    3    0    0  0.87167745045E+01  0.46109593076E+00  0.80935092036E+01  0.11903766577E+02  0.51100000000E-03 0.  1.
        -12    1    3    3    0    0  0.18569369113E+02 -0.53334537359E+01 -0.24677624678E+01  0.19477090378E+02  0.00000000000E+00 0.  1.
</event>
<event>
 7    1  0.3851772E-009  0.4778727E+02  0.7816164E-02  0.1312668E+00
        -11   -1    0    0    0    0  0.00000000000E+00  0.00000000000E+00  0.45593999997E+02  0.45594000000E+02  0.51100000000E-03 0.  1.
         11   -1    0    0    0    0 -0.00000000000E+00 -0.00000000000E+00 -0.45593999997E+02  0.45594000000E+02  0.51100000000E-03 0. -1.
    9900012    2    1    2    0    0  0.51310465381E+00 -0.90286412513E+01  0.42448129520E+02  0.47787270295E+02  0.19999996581E+02 0.  0.
         12    1    1    2    0    0 -0.51310465381E+00  0.90286412513E+01 -0.42448129520E+02  0.43400729705E+02  0.00000000000E+00 0. -1.
         11    1    3    3    0    0 -0.32963083931E+01  0.10539136104E+01  0.97681019263E+01  0.10363020719E+02  0.51100000000E-03 0. -1.
        -11    1    3    3    0    0  0.66979182570E+01 -0.11503858981E+02  0.31118747300E+02  0.33846378155E+02  0.51100000000E-03 0.  1.
        -12    1    3    3    0    0 -0.28885052100E+01  0.14213041193E+01  0.15612802939E+01  0.35778714209E+01  0.00000000000E+00 0.  1.
</event>
<event>
 7    1  0.3851772E-009  0.4778727E+02  0.7816164E-02  0.1312668E+00
        -11   -1    0    0    0    0  0.00000000000E+00  0.00000000000E+00  0.45593999997E+02  0.45594000000E+02  0.51100000000E-03 0.  1.
         11   -1    0    0    0    0 -0.00000000000E+00 -0.00000000000E+00 -0.45593999997E+02  0.45594000000E+02  0.51100000000E-03 0. -1.
    9900012    2    1    2    0    0  0.84216423715E+00  0.42688469726E+02  0.77851328062E+01  0.47787274419E+02  0.20000015387E+02 0.  0.
         12    1    1    2    0    0 -0.84216423715E+00 -0.42688469726E+02 -0.77851328062E+01  0.43400725581E+02  0.00000000000E+00 0. -1.
         11    1    3    3    0    0 -0.29315867953E+01  0.97903639240E+01  0.35259873711E+01  0.10811013556E+02  0.51100000000E-03 0. -1.
        -11    1    3    3    0    0 -0.36570831453E+01  0.11996014795E+01  0.20069086612E+01  0.43406201719E+01  0.51100000000E-03 0.  1.
        -12    1    3    3    0    0  0.74308341778E+01  0.31698504322E+02  0.22522367739E+01  0.32635640691E+02  0.00000000000E+00 0.  1.
</event>
<event>
 7    1  0.3851772E-009  0.4778727E+02  0.7816164E-02  0.1312668E+00
        -11   -1    0    0    0    0  0.00000000000E+00  0.00000000000E+00  0.45593999997E+02  0.45594000000E+02  0.51100000000E-03 0. -1.
         11   -1    0    0    0    0 -0.00000000000E+00 -0.00000000000E+00 -0.45593999997E+02  0.45594000000E+02  0.51100000000E-03 0.  1.
    9900012    2    1    2    0    0  0.17191064096E+02 -0.69338773074E+01 -0.39242986303E+02  0.47787270591E+02  0.19999997933E+02 0.  0.
         12    1    1    2    0    0 -0.17191064096E+02  0.69338773074E+01  0.39242986303E+02  0.43400729409E+02  0.00000000000E+00 0. -1.
         11    1    3    3    0    0  0.10596829148E+02 -0.61658474832E+01 -0.93748677048E+01  0.15433684198E+02  0.51100000000E-03 0. -1.
        -11    1    3    3    0    0  0.76397623599E+01  0.28273262000E+01 -0.24419793657E+02  0.25742689543E+02  0.51100000000E-03 0.  1.
        -12    1    3    3    0    0 -0.10455274117E+01 -0.35953560242E+01 -0.54483249405E+01  0.66108968504E+01  0.00000000000E+00 0.  1.
</event>
<event>
 7    1  0.3851772E-009  0.4778727E+02  0.7816164E-02  0.1312668E+00
        -11   -1    0    0    0    0  0.00000000000E+00  0.00000000000E+00  0.45593999997E+02  0.45594000000E+02  0.51100000000E-03 0. -1.
         11   -1    0    0    0    0 -0.00000000000E+00 -0.00000000000E+00 -0.45593999997E+02  0.45594000000E+02  0.51100000000E-03 0.  1.
    9900012    2    1    2    0    0  0.10021591556E+02 -0.24037587206E+02 -0.34718665825E+02  0.47787266680E+02  0.19999980100E+02 0.  0.
         12    1    1    2    0    0 -0.10021591556E+02  0.24037587206E+02  0.34718665825E+02  0.43400733320E+02  0.00000000000E+00 0. -1.
         11    1    3    3    0    0  0.95158748997E+01 -0.39527795408E+01 -0.11540091488E+02  0.15470942215E+02  0.51100000000E-03 0. -1.
        -11    1    3    3    0    0 -0.36114351210E+01 -0.59054507832E+01 -0.11780371598E+02  0.13663600105E+02  0.51100000000E-03 0.  1.
         12    1    3    3    0    0  0.41171517772E+01 -0.14179356882E+02 -0.11398202740E+02  0.18652724360E+02  0.00000000000E+00 0. -1.
</event>
<event>
 7    1  0.3851772E-009  0.4778727E+02  0.7816164E-02  0.1312668E+00
        -11   -1    0    0    0    0  0.00000000000E+00  0.00000000000E+00  0.45593999997E+02  0.45594000000E+02  0.51100000000E-03 0.  1.
         11   -1    0    0    0    0 -0.00000000000E+00 -0.00000000000E+00 -0.45593999997E+02  0.45594000000E+02  0.51100000000E-03 0. -1.
    9900012    2    1    2    0    0  0.22096852103E+02  0.25163755100E+02  0.27606847937E+02  0.47787268478E+02  0.19999988300E+02 0.  0.
         12    1    1    2    0    0 -0.22096852103E+02 -0.25163755100E+02 -0.27606847937E+02  0.43400731522E+02  0.00000000000E+00 0. -1.
         11    1    3    3    0    0  0.11234241052E+01  0.31831793666E+01  0.59325344170E+00  0.34273404423E+01  0.51100000000E-03 0. -1.
        -11    1    3    3    0    0  0.39724567970E+00  0.12541800101E+02  0.95432610012E+01  0.15764783052E+02  0.51100000000E-03 0.  1.
        -12    1    3    3    0    0  0.20576182318E+02  0.94387756325E+01  0.17470333495E+02  0.28595144984E+02  0.00000000000E+00 0.  1.
</event>
<event>
 7    1  0.3851772E-009  0.4778727E+02  0.7816164E-02  0.1312668E+00
        -11   -1    0    0    0    0  0.00000000000E+00  0.00000000000E+00  0.45593999997E+02  0.45594000000E+02  0.51100000000E-03 0. -1.
         11   -1    0    0    0    0 -0.00000000000E+00 -0.00000000000E+00 -0.45593999997E+02  0.45594000000E+02  0.51100000000E-03 0.  1.
    9900012    2    1    2    0    0 -0.19008980639E+02 -0.29587278352E+02  0.25433737933E+02  0.47787269471E+02  0.19999992828E+02 0.  0.
         12    1    1    2    0    0  0.19008980639E+02  0.29587278352E+02 -0.25433737933E+02  0.43400730529E+02  0.00000000000E+00 0. -1.
         11    1    3    3    0    0 -0.78430733656E+01 -0.20779680469E+02  0.22213726139E+02  0.31412713182E+02  0.51100000000E-03 0. -1.
        -11    1    3    3    0    0 -0.34880895033E+01 -0.69905019428E+01  0.33086024806E+01  0.84841461817E+01  0.51100000000E-03 0.  1.
         12    1    3    3    0    0 -0.76778177696E+01 -0.18170959398E+01 -0.88590686827E-01  0.78904101077E+01  0.00000000000E+00 0. -1.
</event>
<event>
 7    1  0.3851772E-009  0.4778727E+02  0.7816164E-02  0.1312668E+00
        -11   -1    0    0    0    0  0.00000000000E+00  0.00000000000E+00  0.45593999997E+02  0.45594000000E+02  0.51100000000E-03 0.  1.
         11   -1    0    0    0    0 -0.00000000000E+00 -0.00000000000E+00 -0.45593999997E+02  0.45594000000E+02  0.51100000000E-03 0. -1.
    9900012    2    1    2    0    0  0.25105761402E+02 -0.29896553142E+02  0.18961013228E+02  0.47787272264E+02  0.20000005560E+02 0.  0.
         12    1    1    2    0    0 -0.25105761402E+02  0.29896553142E+02 -0.18961013228E+02  0.43400727736E+02  0.00000000000E+00 0. -1.
         11    1    3    3    0    0  0.70667011127E+01 -0.13096639913E+02  0.16629858747E+02  0.22316192413E+02  0.51100000000E-03 0. -1.
        -11    1    3    3    0    0  0.15553222341E+02 -0.10998968639E+02  0.19374521862E+01  0.19147682825E+02  0.51100000000E-03 0.  1.
        -12    1    3    3    0    0  0.24858379481E+01 -0.58009445906E+01  0.39370229500E+00  0.63233970257E+01  0.00000000000E+00 0.  1.
</event>
<event>
 7    1  0.3851772E-009  0.4778727E+02  0.7816164E-02  0.1312668E+00
        -11   -1    0    0    0    0  0.00000000000E+00  0.00000000000E+00  0.45593999997E+02  0.45594000000E+02  0.51100000000E-03 0.  1.
         11   -1    0    0    0    0 -0.00000000000E+00 -0.00000000000E+00 -0.45593999997E+02  0.45594000000E+02  0.51100000000E-03 0. -1.
    9900012    2    1    2    0    0 -0.17410980579E+02  0.14118751130E+02  0.37163718164E+02  0.47787270444E+02  0.19999997264E+02 0.  0.
         12    1    1    2    0    0  0.17410980579E+02 -0.14118751130E+02 -0.37163718164E+02  0.43400729556E+02  0.00000000000E+00 0. -1.
         11    1    3    3    0    0 -0.17011763168E+02  0.13715727024E+02  0.26917023115E+02  0.34670555050E+02  0.51100000000E-03 0.  1.
        -11    1    3    3    0    0  0.27100212687E+01  0.85596274143E-01  0.34470910385E+00  0.27331971437E+01  0.51100000000E-03 0. -1.
        -12    1    3    3    0    0 -0.31092386795E+01  0.31742783182E+00  0.99019859454E+01  0.10383518250E+02  0.00000000000E+00 0.  1.
</event>
<event>
 7    1  0.3851772E-009  0.4778728E+02  0.7816164E-02  0.1312668E+00
        -11   -1    0    0    0    0  0.00000000000E+00  0.00000000000E+00  0.45593999997E+02  0.45594000000E+02  0.51100000000E-03 0.  1.
         11   -1    0    0    0    0 -0.00000000000E+00 -0.00000000000E+00 -0.45593999997E+02  0.45594000000E+02  0.51100000000E-03 0. -1.
    9900012    2    1    2    0    0  0.39034827831E+02  0.15486456060E+02  0.10957861312E+02  0.47787276162E+02  0.20000023333E+02 0.  0.
         12    1    1    2    0    0 -0.39034827831E+02 -0.15486456060E+02 -0.10957861312E+02  0.43400723838E+02  0.00000000000E+00 0. -1.
         11    1    3    3    0    0  0.22160911702E+02  0.51824896259E+01 -0.27910788444E+01  0.22929333343E+02  0.51100000000E-03 0. -1.
        -11    1    3    3    0    0  0.14244386569E+02  0.99900838665E+01  0.94243191772E+01  0.19786917814E+02  0.51100000000E-03 0.  1.
        -12    1    3    3    0    0  0.26295295607E+01  0.31388256726E+00  0.43246209795E+01  0.50710250042E+01  0.00000000000E+00 0.  1.
</event>
<event>
 7    1  0.3851772E-009  0.4778727E+02  0.7816164E-02  0.1312668E+00
        -11   -1    0    0    0    0  0.00000000000E+00  0.00000000000E+00  0.45593999997E+02  0.45594000000E+02  0.51100000000E-03 0. -1.
         11   -1    0    0    0    0 -0.00000000000E+00 -0.00000000000E+00 -0.45593999997E+02  0.45594000000E+02  0.51100000000E-03 0.  1.
    9900012    2    1    2    0    0 -0.25616703925E+02  0.32623486787E+02  0.12771680155E+02  0.47787271618E+02  0.20000002614E+02 0.  0.
         12    1    1    2    0    0  0.25616703925E+02 -0.32623486787E+02 -0.12771680155E+02  0.43400728382E+02  0.00000000000E+00 0. -1.
         11    1    3    3    0    0 -0.30904155432E+00 -0.19609912498E+00  0.16162470592E+01  0.16571711941E+01  0.51100000000E-03 0. -1.
        -11    1    3    3    0    0 -0.94841449715E+01  0.22658386805E+02  0.11934034373E+02  0.27308838773E+02  0.51100000000E-03 0.  1.
        -12    1    3    3    0    0 -0.15823517399E+02  0.10161199107E+02 -0.77860127734E+00  0.18821261651E+02  0.00000000000E+00 0.  1.
</event>
<event>
 7    1  0.3851772E-009  0.4778728E+02  0.7816164E-02  0.1312668E+00
        -11   -1    0    0    0    0  0.00000000000E+00  0.00000000000E+00  0.45593999997E+02  0.45594000000E+02  0.51100000000E-03 0. -1.
         11   -1    0    0    0    0 -0.00000000000E+00 -0.00000000000E+00 -0.45593999997E+02  0.45594000000E+02  0.51100000000E-03 0.  1.
    9900012    2    1    2    0    0 -0.12727591405E+02  0.41259545795E+02  0.43909636737E+01  0.47787282677E+02  0.20000053038E+02 0.  0.
         12    1    1    2    0    0  0.12727591405E+02 -0.41259545795E+02 -0.43909636737E+01  0.43400717323E+02  0.00000000000E+00 0. -1.
         11    1    3    3    0    0  0.47729430678E+01  0.88380727413E+01  0.16765731040E+01  0.10183487268E+02  0.51100000000E-03 0. -1.
        -11    1    3    3    0    0 -0.84564989810E+01  0.16992977147E+02  0.48558439401E+01  0.19592163432E+02  0.51100000000E-03 0.  1.
         12    1    3    3    0    0 -0.90440354915E+01  0.15428495907E+02 -0.21414533704E+01  0.18011631976E+02  0.00000000000E+00 0. -1.
</event>
<event>
 7    1  0.3851772E-009  0.4778727E+02  0.7816164E-02  0.1312668E+00
        -11   -1    0    0    0    0  0.00000000000E+00  0.00000000000E+00  0.45593999997E+02  0.45594000000E+02  0.51100000000E-03 0.  1.
         11   -1    0    0    0    0 -0.00000000000E+00 -0.00000000000E+00 -0.45593999997E+02  0.45594000000E+02  0.51100000000E-03 0. -1.
    9900012    2    1    2    0    0 -0.26503633935E+02 -0.25710213291E+01  0.34272008581E+02  0.47787270345E+02  0.19999996811E+02 0.  0.
         12    1    1    2    0    0  0.26503633935E+02  0.25710213291E+01 -0.34272008581E+02  0.43400729655E+02  0.00000000000E+00 0. -1.
         11    1    3    3    0    0 -0.28255177966E+01 -0.54702889552E+01  0.36199683645E+01  0.71422533765E+01  0.51100000000E-03 0. -1.
        -11    1    3    3    0    0 -0.21763195410E+02  0.15185223607E+01  0.31340403507E+02  0.38185906783E+02  0.51100000000E-03 0.  1.
        -12    1    3    3    0    0 -0.19149207281E+01  0.13807452654E+01 -0.68836329062E+00  0.24591101852E+01  0.00000000000E+00 0.  1.
</event>
<event>
 7    1  0.3851772E-009  0.4778727E+02  0.7816164E-02  0.1312668E+00
        -11   -1    0    0    0    0  0.00000000000E+00  0.00000000000E+00  0.45593999997E+02  0.45594000000E+02  0.51100000000E-03 0.  1.
         11   -1    0    0    0    0 -0.00000000000E+00 -0.00000000000E+00 -0.45593999997E+02  0.45594000000E+02  0.51100000000E-03 0. -1.
    9900012    2    1    2    0    0  0.19128987849E+02 -0.35647084424E+02  0.15715941310E+02  0.47787267111E+02  0.19999982067E+02 0.  0.
         12    1    1    2    0    0 -0.19128987849E+02  0.35647084424E+02 -0.15715941310E+02  0.43400732889E+02  0.00000000000E+00 0. -1.
         11    1    3    3    0    0  0.82379023756E+00 -0.15030888099E+02  0.45645551520E+00  0.15060364514E+02  0.51100000000E-03 0. -1.
        -11    1    3    3    0    0  0.14884372103E+02 -0.13941124678E+02  0.14826991574E+02  0.25213868597E+02  0.51100000000E-03 0.  1.
        -12    1    3    3    0    0  0.34208255079E+01 -0.66750716464E+01  0.43249422056E+00  0.75130340004E+01  0.00000000000E+00 0.  1.
</event>
<event>
 7    1  0.3851772E-009  0.4778725E+02  0.7816164E-02  0.1312668E+00
        -11   -1    0    0    0    0  0.00000000000E+00  0.00000000000E+00  0.45593999997E+02  0.45594000000E+02  0.51100000000E-03 0.  1.
         11   -1    0    0    0    0 -0.00000000000E+00 -0.00000000000E+00 -0.45593999997E+02  0.45594000000E+02  0.51100000000E-03 0. -1.
    9900012    2    1    2    0    0  0.89534643033E+01 -0.13264976108E+02  0.40342293521E+02  0.47787253916E+02  0.19999921903E+02 0.  0.
         12    1    1    2    0    0 -0.89534643033E+01  0.13264976108E+02 -0.40342293521E+02  0.43400746084E+02  0.00000000000E+00 0. -1.
         11    1    3    3    0    0  0.32811500763E+01 -0.53889510770E+01  0.20632547829E+01  0.66380539387E+01  0.51100000000E-03 0. -1.
        -11    1    3    3    0    0 -0.11384239515E+00 -0.60892507404E+01  0.31396661080E+02  0.31981905227E+02  0.51100000000E-03 0.  1.
        -12    1    3    3    0    0  0.57861566221E+01 -0.17867742904E+01  0.68823776575E+01  0.91672947504E+01  0.00000000000E+00 0.  1.
</event>
<event>
 7    1  0.3851772E-009  0.4778727E+02  0.7816164E-02  0.1312668E+00
        -11   -1    0    0    0    0  0.00000000000E+00  0.00000000000E+00  0.45593999997E+02  0.45594000000E+02  0.51100000000E-03 0. -1.
         11   -1    0    0    0    0 -0.00000000000E+00 -0.00000000000E+00 -0.45593999997E+02  0.45594000000E+02  0.51100000000E-03 0.  1.
    9900012    2    1    2    0    0 -0.41571322082E+02  0.86766219882E+01  0.89534870770E+01  0.47787268213E+02  0.19999987092E+02 0.  0.
         12    1    1    2    0    0  0.41571322082E+02 -0.86766219882E+01 -0.89534870770E+01  0.43400731787E+02  0.00000000000E+00 0. -1.
         11    1    3    3    0    0  0.88154020508E-01 -0.68269559644E+00 -0.13147480702E+01  0.14840509283E+01  0.51100000000E-03 0. -1.
        -11    1    3    3    0    0 -0.18520300224E+02  0.58026070641E+00  0.10991274270E+02  0.21544055635E+02  0.51100000000E-03 0.  1.
        -12    1    3    3    0    0 -0.23139175879E+02  0.87790568782E+01 -0.72303912329E+00  0.24759161650E+02  0.00000000000E+00 0.  1.
</event>
<event>
 7    1  0.3851772E-009  0.4778727E+02  0.7816164E-02  0.1312668E+00
        -11   -1    0    0    0    0  0.00000000000E+00  0.00000000000E+00  0.45593999997E+02  0.45594000000E+02  0.51100000000E-03 0.  1.
         11   -1    0    0    0    0 -0.00000000000E+00 -0.00000000000E+00 -0.45593999997E+02  0.45594000000E+02  0.51100000000E-03 0. -1.
    9900012    2    1    2    0    0 -0.23825483478E+01 -0.97735410950E+01  0.42218772104E+02  0.47787270050E+02  0.19999995468E+02 0.  0.
         12    1    1    2    0    0  0.23825483478E+01  0.97735410950E+01 -0.42218772104E+02  0.43400729950E+02  0.00000000000E+00 0. -1.
         11    1    3    3    0    0 -0.33437117416E+01 -0.12024339913E+02  0.17660472062E+02  0.21625388604E+02  0.51100000000E-03 0. -1.
        -11    1    3    3    0    0  0.25535706305E+01  0.36058560313E+01  0.58196240032E+01  0.73069107346E+01  0.51100000000E-03 0.  1.
        -12    1    3    3    0    0 -0.15924072366E+01 -0.13550572132E+01  0.18738676039E+02  0.18854970712E+02  0.00000000000E+00 0.  1.
</event>
<event>
 7    1  0.3851772E-009  0.4778727E+02  0.7816164E-02  0.1312668E+00
        -11   -1    0    0    0    0  0.00000000000E+00  0.00000000000E+00  0.45593999997E+02  0.45594000000E+02  0.51100000000E-03 0.  1.
         11   -1    0    0    0    0 -0.00000000000E+00 -0.00000000000E+00 -0.45593999997E+02  0.45594000000E+02  0.51100000000E-03 0. -1.
    9900012    2    1    2    0    0 -0.51149724763E+01  0.40908723870E+02  0.13562328647E+02  0.47787269702E+02  0.19999993878E+02 0.  0.
         12    1    1    2    0    0  0.51149724763E+01 -0.40908723870E+02 -0.13562328647E+02  0.43400730298E+02  0.00000000000E+00 0. -1.
         11    1    3    3    0    0  0.23097506854E+01  0.15332936534E+01 -0.13111702974E+01  0.30667744401E+01  0.51100000000E-03 0. -1.
        -11    1    3    3    0    0 -0.91550337715E+01  0.26589374156E+02  0.52089907023E+01  0.28599703596E+02  0.51100000000E-03 0.  1.
        -12    1    3    3    0    0  0.17303106097E+01  0.12786056061E+02  0.96645082416E+01  0.16120791666E+02  0.00000000000E+00 0.  1.
</event>
<event>
 7    1  0.3851772E-009  0.4778727E+02  0.7816164E-02  0.1312668E+00
        -11   -1    0    0    0    0  0.00000000000E+00  0.00000000000E+00  0.45593999997E+02  0.45594000000E+02  0.51100000000E-03 0.  1.
         11   -1    0    0    0    0 -0.00000000000E+00 -0.00000000000E+00 -0.45593999997E+02  0.45594000000E+02  0.51100000000E-03 0. -1.
    9900012    2    1    2    0    0 -0.10914181283E+02 -0.32568755833E+02 -0.26528847268E+02  0.47787274811E+02  0.20000017173E+02 0.  0.
         12    1    1    2    0    0  0.10914181283E+02  0.32568755833E+02  0.26528847268E+02  0.43400725189E+02  0.00000000000E+00 0. -1.
         11    1    3    3    0    0  0.38315301080E+01 -0.86122655702E+01 -0.31468401261E+01  0.99375220383E+01  0.51100000000E-03 0. -1.
        -11    1    3    3    0    0 -0.18892751941E+00 -0.69460546402E+01 -0.84422612801E+01  0.10934127512E+02  0.51100000000E-03 0.  1.
         12    1    3    3    0    0 -0.14556783871E+02 -0.17010435623E+02 -0.14939745862E+02  0.26915625260E+02  0.00000000000E+00 0. -1.
</event>
<event>
 7    1  0.3851772E-009  0.4778727E+02  0.7816164E-02  0.1312668E+00
        -11   -1    0    0    0    0  0.00000000000E+00  0.00000000000E+00  0.45593999997E+02  0.45594000000E+02  0.51100000000E-03 0.  1.
         11   -1    0    0    0    0 -0.00000000000E+00 -0.00000000000E+00 -0.45593999997E+02  0.45594000000E+02  0.51100000000E-03 0. -1.
    9900012    2    1    2    0    0  0.29782875321E+01  0.29827401913E+02  0.31385971818E+02  0.47787270416E+02  0.19999997133E+02 0.  0.
         12    1    1    2    0    0 -0.29782875321E+01 -0.29827401913E+02 -0.31385971818E+02  0.43400729584E+02  0.00000000000E+00 0. -1.
         11    1    3    3    0    0  0.48187937320E+00  0.77379199208E+00  0.54107451022E+01  0.54869959540E+01  0.51100000000E-03 0. -1.
        -11    1    3    3    0    0  0.84699497150E+01  0.21204606192E+02  0.21866452676E+02  0.31615140753E+02  0.51100000000E-03 0.  1.
        -12    1    3    3    0    0 -0.59735415561E+01  0.78490037295E+01  0.41087740390E+01  0.10685133709E+02  0.00000000000E+00 0.  1.
</event>
<event>
 7    1  0.3851772E-009  0.4778727E+02  0.7816164E-02  0.1312668E+00
        -11   -1    0    0    0    0  0.00000000000E+00  0.00000000000E+00  0.45593999997E+02  0.45594000000E+02  0.51100000000E-03 0. -1.
         11   -1    0    0    0    0 -0.00000000000E+00 -0.00000000000E+00 -0.45593999997E+02  0.45594000000E+02  0.51100000000E-03 0.  1.
    9900012    2    1    2    0    0  0.18467819843E+02 -0.29780339536E+02  0.25606537590E+02  0.47787265445E+02  0.19999974468E+02 0.  0.
         12    1    1    2    0    0 -0.18467819843E+02  0.29780339536E+02 -0.25606537590E+02  0.43400734555E+02  0.00000000000E+00 0. -1.
         11    1    3    3    0    0  0.30419199791E+01 -0.16274496664E+02  0.91491312439E+01  0.18916107465E+02  0.51100000000E-03 0. -1.
        -11    1    3    3    0    0  0.16914742618E+02 -0.97860459533E+01  0.12263480879E+02  0.23070937925E+02  0.51100000000E-03 0.  1.
        -12    1    3    3    0    0 -0.14888427543E+01 -0.37197969180E+01  0.41939254669E+01  0.58002200545E+01  0.00000000000E+00 0.  1.
</event>
<event>
 7    1  0.3851772E-009  0.4778727E+02  0.7816164E-02  0.1312668E+00
        -11   -1    0    0    0    0  0.00000000000E+00  0.00000000000E+00  0.45593999997E+02  0.45594000000E+02  0.51100000000E-03 0. -1.
         11   -1    0    0    0    0 -0.00000000000E+00 -0.00000000000E+00 -0.45593999997E+02  0.45594000000E+02  0.51100000000E-03 0.  1.
    9900012    2    1    2    0    0  0.29625679282E+02  0.71149480586E+01 -0.30908250458E+02  0.47787270684E+02  0.19999998356E+02 0.  0.
         12    1    1    2    0    0 -0.29625679282E+02 -0.71149480586E+01  0.30908250458E+02  0.43400729316E+02  0.00000000000E+00 0. -1.
         11    1    3    3    0    0  0.97447972335E+01 -0.22292329801E+01 -0.18214280538E+02  0.20777164595E+02  0.51100000000E-03 0. -1.
        -11    1    3    3    0    0  0.15025895968E+02  0.10802353324E+02 -0.11546531055E+02  0.21812628604E+02  0.51100000000E-03 0.  1.
         12    1    3    3    0    0  0.48549860805E+01 -0.14581722854E+01 -0.11474388652E+01  0.51974774849E+01  0.00000000000E+00 0. -1.
</event>
<event>
 7    1  0.3851772E-009  0.4778727E+02  0.7816164E-02  0.1312668E+00
        -11   -1    0    0    0    0  0.00000000000E+00  0.00000000000E+00  0.45593999997E+02  0.45594000000E+02  0.51100000000E-03 0.  1.
         11   -1    0    0    0    0 -0.00000000000E+00 -0.00000000000E+00 -0.45593999997E+02  0.45594000000E+02  0.51100000000E-03 0. -1.
    9900012    2    1    2    0    0  0.19717874096E+02  0.32643196051E+02  0.20718364702E+02  0.47787269093E+02  0.19999991104E+02 0.  0.
         12    1    1    2    0    0 -0.19717874096E+02 -0.32643196051E+02 -0.20718364702E+02  0.43400730907E+02  0.00000000000E+00 0. -1.
         11    1    3    3    0    0 -0.23842899466E+01  0.25234578915E+01  0.56315081372E+01  0.66156301620E+01  0.51100000000E-03 0. -1.
        -11    1    3    3    0    0  0.21141199602E+02  0.29122507799E+02  0.16131195263E+02  0.39437117566E+02  0.51100000000E-03 0.  1.
        -12    1    3    3    0    0  0.96096444131E+00  0.99723036078E+00 -0.10443386974E+01  0.17345213648E+01  0.00000000000E+00 0.  1.
</event>
<event>
 7    1  0.3851772E-009  0.4778727E+02  0.7816164E-02  0.1312668E+00
        -11   -1    0    0    0    0  0.00000000000E+00  0.00000000000E+00  0.45593999997E+02  0.45594000000E+02  0.51100000000E-03 0.  1.
         11   -1    0    0    0    0 -0.00000000000E+00 -0.00000000000E+00 -0.45593999997E+02  0.45594000000E+02  0.51100000000E-03 0. -1.
    9900012    2    1    2    0    0  0.14667857260E+02  0.33501598975E+02  0.23369213647E+02  0.47787270548E+02  0.19999997736E+02 0.  0.
         12    1    1    2    0    0 -0.14667857260E+02 -0.33501598975E+02 -0.23369213647E+02  0.43400729452E+02  0.00000000000E+00 0. -1.
         11    1    3    3    0    0  0.10419895102E+02  0.25840018214E+02  0.10995546712E+02  0.29953009915E+02  0.51100000000E-03 0. -1.
        -11    1    3    3    0    0  0.14570195399E+01  0.91530715064E+01  0.70650957537E+01  0.11654063764E+02  0.51100000000E-03 0.  1.
         12    1    3    3    0    0  0.27909426182E+01 -0.14914907456E+01  0.53085711820E+01  0.61801968688E+01  0.00000000000E+00 0. -1.
</event>
<event>
 7    1  0.3851772E-009  0.4778727E+02  0.7816164E-02  0.1312668E+00
        -11   -1    0    0    0    0  0.00000000000E+00  0.00000000000E+00  0.45593999997E+02  0.45594000000E+02  0.51100000000E-03 0.  1.
         11   -1    0    0    0    0 -0.00000000000E+00 -0.00000000000E+00 -0.45593999997E+02  0.45594000000E+02  0.51100000000E-03 0. -1.
    9900012    2    1    2    0    0  0.41173679605E+02 -0.60972736145E+01  0.12295324289E+02  0.47787266860E+02  0.19999980921E+02 0.  0.
         12    1    1    2    0    0 -0.41173679605E+02  0.60972736145E+01 -0.12295324289E+02  0.43400733140E+02  0.00000000000E+00 0. -1.
         11    1    3    3    0    0  0.15700829766E+02 -0.33648907135E+01  0.24805421999E+01  0.16247819384E+02  0.51100000000E-03 0.  1.
        -11    1    3    3    0    0  0.12681126573E+02  0.48688337626E+01 -0.23169755951E+00  0.13585661463E+02  0.51100000000E-03 0. -1.
        -12    1    3    3    0    0  0.12791723265E+02 -0.76012166636E+01  0.10046479649E+02  0.17953786013E+02  0.00000000000E+00 0.  1.
</event>
<event>
 7    1  0.3851772E-009  0.4778727E+02  0.7816164E-02  0.1312668E+00
        -11   -1    0    0    0    0  0.00000000000E+00  0.00000000000E+00  0.45593999997E+02  0.45594000000E+02  0.51100000000E-03 0.  1.
         11   -1    0    0    0    0 -0.00000000000E+00 -0.00000000000E+00 -0.45593999997E+02  0.45594000000E+02  0.51100000000E-03 0. -1.
    9900012    2    1    2    0    0 -0.19752111484E+01  0.38424025605E+02  0.20082732536E+02  0.47787270180E+02  0.19999996060E+02 0.  0.
         12    1    1    2    0    0  0.19752111484E+01 -0.38424025605E+02 -0.20082732536E+02  0.43400729820E+02  0.00000000000E+00 0. -1.
         11    1    3    3    0    0  0.14629892161E+01  0.70298603382E+00  0.81174647010E+00  0.18147890795E+01  0.51100000000E-03 0. -1.
        -11    1    3    3    0    0 -0.63568023416E+01  0.20858569233E+02  0.23931731492E+01  0.21936638860E+02  0.51100000000E-03 0.  1.
        -12    1    3    3    0    0  0.29186019772E+01  0.16862470338E+02  0.16877812916E+02  0.24035842241E+02  0.00000000000E+00 0.  1.
</event>
<event>
 7    1  0.3851772E-009  0.4778727E+02  0.7816164E-02  0.1312668E+00
        -11   -1    0    0    0    0  0.00000000000E+00  0.00000000000E+00  0.45593999997E+02  0.45594000000E+02  0.51100000000E-03 0. -1.
         11   -1    0    0    0    0 -0.00000000000E+00 -0.00000000000E+00 -0.45593999997E+02  0.45594000000E+02  0.51100000000E-03 0.  1.
    9900012    2    1    2    0    0 -0.19095714467E+02 -0.83216565058E+01 -0.38075283525E+02  0.47787268514E+02  0.19999988462E+02 0.  0.
         12    1    1    2    0    0  0.19095714467E+02  0.83216565058E+01  0.38075283525E+02  0.43400731486E+02  0.00000000000E+00 0. -1.
         11    1    3    3    0    0 -0.15214254340E+01  0.14327425802E+01 -0.13751659192E+02  0.13909551303E+02  0.51100000000E-03 0. -1.
        -11    1    3    3    0    0 -0.12972956726E+02 -0.34132155683E+01 -0.76192458271E+01  0.15427266575E+02  0.51100000000E-03 0.  1.
        -12    1    3    3    0    0 -0.46013323067E+01 -0.63411835177E+01 -0.16704378506E+02  0.18450450636E+02  0.00000000000E+00 0.  1.
</event>
<event>
 7    1  0.3851772E-009  0.4778727E+02  0.7816164E-02  0.1312668E+00
        -11   -1    0    0    0    0  0.00000000000E+00  0.00000000000E+00  0.45593999997E+02  0.45594000000E+02  0.51100000000E-03 0.  1.
         11   -1    0    0    0    0 -0.00000000000E+00 -0.00000000000E+00 -0.45593999997E+02  0.45594000000E+02  0.51100000000E-03 0. -1.
    9900012    2    1    2    0    0 -0.36957594727E+01 -0.39007046083E+02  0.18665879581E+02  0.47787270251E+02  0.19999996383E+02 0.  0.
         12    1    1    2    0    0  0.36957594727E+01  0.39007046083E+02 -0.18665879581E+02  0.43400729749E+02  0.00000000000E+00 0. -1.
         11    1    3    3    0    0  0.39651962092E+01 -0.33471633537E+01 -0.12020027277E+01  0.53264523195E+01  0.51100000000E-03 0. -1.
        -11    1    3    3    0    0 -0.37244181485E+01 -0.39422002717E+01  0.16330007688E+01  0.56638260301E+01  0.51100000000E-03 0.  1.
        -12    1    3    3    0    0 -0.39365375333E+01 -0.31717682457E+02  0.18234881540E+02  0.36796991902E+02  0.00000000000E+00 0.  1.
</event>
<event>
 7    1  0.3851772E-009  0.4778727E+02  0.7816164E-02  0.1312668E+00
        -11   -1    0    0    0    0  0.00000000000E+00  0.00000000000E+00  0.45593999997E+02  0.45594000000E+02  0.51100000000E-03 0. -1.
         11   -1    0    0    0    0 -0.00000000000E+00 -0.00000000000E+00 -0.45593999997E+02  0.45594000000E+02  0.51100000000E-03 0.  1.
    9900012    2    1    2    0    0  0.20230463459E+02  0.36824011448E+02 -0.10878596799E+02  0.47787270291E+02  0.19999996566E+02 0.  0.
         12    1    1    2    0    0 -0.20230463459E+02 -0.36824011448E+02  0.10878596799E+02  0.43400729709E+02  0.00000000000E+00 0. -1.
         11    1    3    3    0    0  0.17358621888E+02  0.22815728263E+02 -0.10590936342E+01  0.28687992080E+02  0.51100000000E-03 0. -1.
        -11    1    3    3    0    0  0.37517828038E+01  0.14448785235E+02 -0.10160691022E+02  0.18057765954E+02  0.51100000000E-03 0.  1.
         12    1    3    3    0    0 -0.87994123205E+00 -0.44050204897E+00  0.34118785735E+00  0.10415122568E+01  0.00000000000E+00 0. -1.
</event>
<event>
 7    1  0.3851772E-009  0.4778727E+02  0.7816164E-02  0.1312668E+00
        -11   -1    0    0    0    0  0.00000000000E+00  0.00000000000E+00  0.45593999997E+02  0.45594000000E+02  0.51100000000E-03 0.  1.
         11   -1    0    0    0    0 -0.00000000000E+00 -0.00000000000E+00 -0.45593999997E+02  0.45594000000E+02  0.51100000000E-03 0. -1.
    9900012    2    1    2    0    0  0.91490311762E+01  0.39265204280E+02  0.16067422929E+02  0.47787272838E+02  0.20000008177E+02 0.  0.
         12    1    1    2    0    0 -0.91490311762E+01 -0.39265204280E+02 -0.16067422929E+02  0.43400727162E+02  0.00000000000E+00 0. -1.
         11    1    3    3    0    0  0.13355432568E+01 -0.19201742394E+01  0.12450049160E+01  0.26496759052E+01  0.51100000000E-03 0. -1.
        -11    1    3    3    0    0  0.90604581798E+01  0.33771347190E+02  0.13616210850E+02  0.37523285992E+02  0.51100000000E-03 0.  1.
         12    1    3    3    0    0 -0.12469702604E+01  0.74140313293E+01  0.12062071633E+01  0.76143109408E+01  0.00000000000E+00 0. -1.
</event>
<event>
 7    1  0.3851772E-009  0.4778727E+02  0.7816164E-02  0.1312668E+00
        -11   -1    0    0    0    0  0.00000000000E+00  0.00000000000E+00  0.45593999997E+02  0.45594000000E+02  0.51100000000E-03 0.  1.
         11   -1    0    0    0    0 -0.00000000000E+00 -0.00000000000E+00 -0.45593999997E+02  0.45594000000E+02  0.51100000000E-03 0. -1.
    9900012    2    1    2    0    0  0.26293495130E+02 -0.63315333902E+00  0.34523534429E+02  0.47787271909E+02  0.20000003942E+02 0.  0.
         12    1    1    2    0    0 -0.26293495130E+02  0.63315333902E+00 -0.34523534429E+02  0.43400728091E+02  0.00000000000E+00 0. -1.
         11    1    3    3    0    0  0.88234470274E+01  0.47668067560E+01  0.77157179374E+01  0.12653377717E+02  0.51100000000E-03 0. -1.
        -11    1    3    3    0    0  0.51155947598E+00  0.34741255089E+01  0.32918219120E+01  0.48132455693E+01  0.51100000000E-03 0.  1.
        -12    1    3    3    0    0  0.16958488627E+02 -0.88740856040E+01  0.23515994580E+02  0.30320648623E+02  0.00000000000E+00 0.  1.
</event>
<event>
 7    1  0.3851772E-009  0.4778728E+02  0.7816164E-02  0.1312668E+00
        -11   -1    0    0    0    0  0.00000000000E+00  0.00000000000E+00  0.45593999997E+02  0.45594000000E+02  0.51100000000E-03 0. -1.
         11   -1    0    0    0    0 -0.00000000000E+00 -0.00000000000E+00 -0.45593999997E+02  0.45594000000E+02  0.51100000000E-03 0.  1.
    9900012    2    1    2    0    0  0.32849447521E+02 -0.21955389579E+02  0.17958214275E+02  0.47787276574E+02  0.20000025210E+02 0.  0.
         12    1    1    2    0    0 -0.32849447521E+02  0.21955389579E+02 -0.17958214275E+02  0.43400723426E+02  0.00000000000E+00 0. -1.
         11    1    3    3    0    0  0.29354096266E+01 -0.21485961271E+01 -0.14592965226E+01  0.39195205823E+01  0.51100000000E-03 0. -1.
        -11    1    3    3    0    0  0.23546270782E+02 -0.15359140593E+02  0.65947064252E+01  0.28875945363E+02  0.51100000000E-03 0.  1.
        -12    1    3    3    0    0  0.63677671118E+01 -0.44476528590E+01  0.12822804372E+02  0.14991810628E+02  0.00000000000E+00 0.  1.
</event>
<event>
 7    1  0.3851772E-009  0.4778728E+02  0.7816164E-02  0.1312668E+00
        -11   -1    0    0    0    0  0.00000000000E+00  0.00000000000E+00  0.45593999997E+02  0.45594000000E+02  0.51100000000E-03 0.  1.
         11   -1    0    0    0    0 -0.00000000000E+00 -0.00000000000E+00 -0.45593999997E+02  0.45594000000E+02  0.51100000000E-03 0. -1.
    9900012    2    1    2    0    0 -0.22505830428E+01  0.42996337367E+02  0.54655465633E+01  0.47787281685E+02  0.20000048514E+02 0.  0.
         12    1    1    2    0    0  0.22505830428E+01 -0.42996337367E+02 -0.54655465633E+01  0.43400718315E+02  0.00000000000E+00 0. -1.
         11    1    3    3    0    0 -0.26365638855E+01  0.72069228665E+00  0.20755069219E+00  0.27411574280E+01  0.51100000000E-03 0. -1.
        -11    1    3    3    0    0 -0.24250005371E+00  0.41263218367E+02  0.17055723785E+01  0.41299164321E+02  0.51100000000E-03 0.  1.
        -12    1    3    3    0    0  0.62848089640E+00  0.10124267139E+01  0.35524234926E+01  0.37469599356E+01  0.00000000000E+00 0.  1.
</event>
<event>
 7    1  0.3851772E-009  0.4778727E+02  0.7816164E-02  0.1312668E+00
        -11   -1    0    0    0    0  0.00000000000E+00  0.00000000000E+00  0.45593999997E+02  0.45594000000E+02  0.51100000000E-03 0. -1.
         11   -1    0    0    0    0 -0.00000000000E+00 -0.00000000000E+00 -0.45593999997E+02  0.45594000000E+02  0.51100000000E-03 0.  1.
    9900012    2    1    2    0    0 -0.89851126019E+01  0.31943544358E+02 -0.27973217180E+02  0.47787272425E+02  0.20000006294E+02 0.  0.
         12    1    1    2    0    0  0.89851126019E+01 -0.31943544358E+02  0.27973217180E+02  0.43400727575E+02  0.00000000000E+00 0. -1.
         11    1    3    3    0    0  0.45415056645E+01  0.87198631130E+01 -0.93756759309E+01  0.13585454937E+02  0.51100000000E-03 0. -1.
        -11    1    3    3    0    0 -0.34243646487E+00  0.10061814408E+02 -0.68722228798E+01  0.12189537295E+02  0.51100000000E-03 0.  1.
         12    1    3    3    0    0 -0.13184181802E+02  0.13161866838E+02 -0.11725318370E+02  0.22012280193E+02  0.00000000000E+00 0. -1.
</event>
<event>
 7    1  0.3851772E-009  0.4778727E+02  0.7816164E-02  0.1312668E+00
        -11   -1    0    0    0    0  0.00000000000E+00  0.00000000000E+00  0.45593999997E+02  0.45594000000E+02  0.51100000000E-03 0. -1.
         11   -1    0    0    0    0 -0.00000000000E+00 -0.00000000000E+00 -0.45593999997E+02  0.45594000000E+02  0.51100000000E-03 0.  1.
    9900012    2    1    2    0    0 -0.19588786675E+02  0.35186222938E+02 -0.16181242245E+02  0.47787269031E+02  0.19999990820E+02 0.  0.
         12    1    1    2    0    0  0.19588786675E+02 -0.35186222938E+02  0.16181242245E+02  0.43400730969E+02  0.00000000000E+00 0. -1.
         11    1    3    3    0    0 -0.83878387059E+00  0.87177039104E+01 -0.22956015539E+00  0.87609712919E+01  0.51100000000E-03 0. -1.
        -11    1    3    3    0    0 -0.73823435310E+01  0.84876188787E+01 -0.13561289588E+02  0.17619513211E+02  0.51100000000E-03 0.  1.
        -12    1    3    3    0    0 -0.11367659274E+02  0.17980900149E+02 -0.23903925012E+01  0.21406784528E+02  0.00000000000E+00 0.  1.
</event>
<event>
 7    1  0.3851772E-009  0.4778727E+02  0.7816164E-02  0.1312668E+00
        -11   -1    0    0    0    0  0.00000000000E+00  0.00000000000E+00  0.45593999997E+02  0.45594000000E+02  0.51100000000E-03 0. -1.
         11   -1    0    0    0    0 -0.00000000000E+00 -0.00000000000E+00 -0.45593999997E+02  0.45594000000E+02  0.51100000000E-03 0.  1.
    9900012    2    1    2    0    0 -0.21542607858E+02 -0.37526310366E+02  0.33638644235E+01  0.47787268360E+02  0.19999987762E+02 0.  0.
         12    1    1    2    0    0  0.21542607858E+02  0.37526310366E+02 -0.33638644235E+01  0.43400731640E+02  0.00000000000E+00 0. -1.
         11    1    3    3    0    0 -0.53418860089E+01 -0.10350209281E+01 -0.18459780069E+01  0.57458375819E+01  0.51100000000E-03 0. -1.
        -11    1    3    3    0    0 -0.97898009283E+01 -0.30514465002E+02  0.76428088089E+01  0.32945186345E+02  0.51100000000E-03 0.  1.
        -12    1    3    3    0    0 -0.64109209210E+01 -0.59768244356E+01 -0.24329663785E+01  0.90962444332E+01  0.00000000000E+00 0.  1.
</event>
<event>
 7    1  0.3851772E-009  0.4778729E+02  0.7816164E-02  0.1312668E+00
        -11   -1    0    0    0    0  0.00000000000E+00  0.00000000000E+00  0.45593999997E+02  0.45594000000E+02  0.51100000000E-03 0.  1.
         11   -1    0    0    0    0 -0.00000000000E+00 -0.00000000000E+00 -0.45593999997E+02  0.45594000000E+02  0.51100000000E-03 0. -1.
    9900012    2    1    2    0    0 -0.24045901466E+02 -0.24241350379E+02  0.26791296697E+02  0.47787285441E+02  0.20000065640E+02 0.  0.
         12    1    1    2    0    0  0.24045901466E+02  0.24241350379E+02 -0.26791296697E+02  0.43400714559E+02  0.00000000000E+00 0. -1.
         11    1    3    3    0    0  0.39215704957E+00 -0.38731652242E+01 -0.18384086074E+01  0.43052226974E+01  0.51100000000E-03 0. -1.
        -11    1    3    3    0    0 -0.23321455420E+02 -0.19835693269E+02  0.24624270293E+02  0.39289943982E+02  0.51100000000E-03 0.  1.
         12    1    3    3    0    0 -0.11166030961E+01 -0.53249188519E+00  0.40054350113E+01  0.41921187617E+01  0.00000000000E+00 0. -1.
</event>
<event>
 7    1  0.3851772E-009  0.4778728E+02  0.7816164E-02  0.1312668E+00
        -11   -1    0    0    0    0  0.00000000000E+00  0.00000000000E+00  0.45593999997E+02  0.45594000000E+02  0.51100000000E-03 0.  1.
         11   -1    0    0    0    0 -0.00000000000E+00 -0.00000000000E+00 -0.45593999997E+02  0.45594000000E+02  0.51100000000E-03 0. -1.
    9900012    2    1    2    0    0 -0.10003767124E+02  0.63002257725E+01  0.41759479197E+02  0.47787282215E+02  0.20000050930E+02 0.  0.
         12    1    1    2    0    0  0.10003767124E+02 -0.63002257725E+01 -0.41759479197E+02  0.43400717785E+02  0.00000000000E+00 0. -1.
         11    1    3    3    0    0  0.57555679098E+00  0.85996194805E+01  0.29961312362E+02  0.31176352570E+02  0.51100000000E-03 0. -1.
        -11    1    3    3    0    0 -0.88911265650E+01 -0.24971605260E+01  0.11703735343E+02  0.14908566783E+02  0.51100000000E-03 0.  1.
         12    1    3    3    0    0 -0.16881973496E+01  0.19776681798E+00  0.94431491469E-01  0.17023628615E+01  0.00000000000E+00 0. -1.
</event>
<event>
 7    1  0.3851772E-009  0.4778727E+02  0.7816164E-02  0.1312668E+00
        -11   -1    0    0    0    0  0.00000000000E+00  0.00000000000E+00  0.45593999997E+02  0.45594000000E+02  0.51100000000E-03 0.  1.
         11   -1    0    0    0    0 -0.00000000000E+00 -0.00000000000E+00 -0.45593999997E+02  0.45594000000E+02  0.51100000000E-03 0. -1.
    9900012    2    1    2    0    0 -0.43216380340E+02  0.15329666376E+01  0.36902103115E+01  0.47787272258E+02  0.20000005534E+02 0.  0.
         12    1    1    2    0    0  0.43216380340E+02 -0.15329666376E+01 -0.36902103115E+01  0.43400727742E+02  0.00000000000E+00 0. -1.
         11    1    3    3    0    0 -0.15920782946E+02  0.41741979735E+01  0.83340028405E+01  0.18448600542E+02  0.51100000000E-03 0. -1.
        -11    1    3    3    0    0 -0.55426619124E+01 -0.11919844925E+01  0.27719833379E+01  0.63107701584E+01  0.51100000000E-03 0.  1.
         12    1    3    3    0    0 -0.21752935481E+02 -0.14492468434E+01 -0.74157758669E+01  0.23027901558E+02  0.00000000000E+00 0. -1.
</event>
<event>
 7    1  0.3851772E-009  0.4778722E+02  0.7816164E-02  0.1312668E+00
        -11   -1    0    0    0    0  0.00000000000E+00  0.00000000000E+00  0.45593999997E+02  0.45594000000E+02  0.51100000000E-03 0.  1.
         11   -1    0    0    0    0 -0.00000000000E+00 -0.00000000000E+00 -0.45593999997E+02  0.45594000000E+02  0.51100000000E-03 0. -1.
    9900012    2    1    2    0    0 -0.16667449554E+02 -0.40067155255E+02 -0.66835837378E+00  0.47787222267E+02  0.19999777604E+02 0.  0.
         12    1    1    2    0    0  0.16667449554E+02  0.40067155255E+02  0.66835837378E+00  0.43400777733E+02  0.00000000000E+00 0. -1.
         11    1    3    3    0    0 -0.68639383919E+00 -0.13026206113E+02  0.71391893802E+01  0.14870144837E+02  0.51100000000E-03 0. -1.
        -11    1    3    3    0    0 -0.40023606526E+01 -0.69013144233E+01 -0.47520350397E+01  0.92859500775E+01  0.51100000000E-03 0.  1.
         12    1    3    3    0    0 -0.11978695063E+02 -0.20139634719E+02 -0.30555127143E+01  0.23631127353E+02  0.00000000000E+00 0. -1.
</event>
<event>
 7    1  0.3851772E-009  0.4778727E+02  0.7816164E-02  0.1312668E+00
        -11   -1    0    0    0    0  0.00000000000E+00  0.00000000000E+00  0.45593999997E+02  0.45594000000E+02  0.51100000000E-03 0.  1.
         11   -1    0    0    0    0 -0.00000000000E+00 -0.00000000000E+00 -0.45593999997E+02  0.45594000000E+02  0.51100000000E-03 0. -1.
    9900012    2    1    2    0    0  0.53986044253E+01 -0.59243442223E+01  0.42654198010E+02  0.47787269683E+02  0.19999993791E+02 0.  0.
         12    1    1    2    0    0 -0.53986044253E+01  0.59243442223E+01 -0.42654198010E+02  0.43400730317E+02  0.00000000000E+00 0. -1.
         11    1    3    3    0    0 -0.39951849095E+01  0.46803403084E+01  0.10165759585E+02  0.11883171128E+02  0.51100000000E-03 0. -1.
        -11    1    3    3    0    0  0.85156161751E+01 -0.58118299601E+01  0.20052579030E+02  0.22547705257E+02  0.51100000000E-03 0.  1.
        -12    1    3    3    0    0  0.87817315964E+00 -0.47928545706E+01  0.12435859395E+02  0.13356393298E+02  0.00000000000E+00 0.  1.
</event>
<event>
 7    1  0.3851772E-009  0.4778729E+02  0.7816164E-02  0.1312668E+00
        -11   -1    0    0    0    0  0.00000000000E+00  0.00000000000E+00  0.45593999997E+02  0.45594000000E+02  0.51100000000E-03 0. -1.
         11   -1    0    0    0    0 -0.00000000000E+00 -0.00000000000E+00 -0.45593999997E+02  0.45594000000E+02  0.51100000000E-03 0.  1.
    9900012    2    1    2    0    0 -0.26490908973E+02  0.33840467903E+02 -0.60560933492E+01  0.47787288108E+02  0.20000077799E+02 0.  0.
         12    1    1    2    0    0  0.26490908973E+02 -0.33840467903E+02  0.60560933492E+01  0.43400711892E+02  0.00000000000E+00 0. -1.
         11    1    3    3    0    0 -0.18551072099E+01  0.74597253074E+01 -0.20318485280E+01  0.79509328462E+01  0.51100000000E-03 0. -1.
        -11    1    3    3    0    0  0.20934440468E+01  0.47963748681E+01 -0.11658190733E+01  0.53616092944E+01  0.51100000000E-03 0.  1.
        -12    1    3    3    0    0 -0.26729245810E+02  0.21584367727E+02 -0.28584257478E+01  0.34474745967E+02  0.00000000000E+00 0.  1.
</event>
<event>
 7    1  0.3851772E-009  0.4778726E+02  0.7816164E-02  0.1312668E+00
        -11   -1    0    0    0    0  0.00000000000E+00  0.00000000000E+00  0.45593999997E+02  0.45594000000E+02  0.51100000000E-03 0.  1.
         11   -1    0    0    0    0 -0.00000000000E+00 -0.00000000000E+00 -0.45593999997E+02  0.45594000000E+02  0.51100000000E-03 0. -1.
    9900012    2    1    2    0    0 -0.32940442743E+01 -0.29121853437E+02  0.32010796491E+02  0.47787260752E+02  0.19999953071E+02 0.  0.
         12    1    1    2    0    0  0.32940442743E+01  0.29121853437E+02 -0.32010796491E+02  0.43400739248E+02  0.00000000000E+00 0. -1.
         11    1    3    3    0    0 -0.55915047522E+00  0.12011184741E-01 -0.13514188758E+01  0.14625753866E+01  0.51100000000E-03 0. -1.
        -11    1    3    3    0    0 -0.73893578537E+01 -0.21654670428E+02  0.20412075498E+02  0.30662357822E+02  0.51100000000E-03 0.  1.
        -12    1    3    3    0    0  0.46544640546E+01 -0.74791941942E+01  0.12950139869E+02  0.15662327543E+02  0.00000000000E+00 0.  1.
</event>
<event>
 7    1  0.3851772E-009  0.4778728E+02  0.7816164E-02  0.1312668E+00
        -11   -1    0    0    0    0  0.00000000000E+00  0.00000000000E+00  0.45593999997E+02  0.45594000000E+02  0.51100000000E-03 0.  1.
         11   -1    0    0    0    0 -0.00000000000E+00 -0.00000000000E+00 -0.45593999997E+02  0.45594000000E+02  0.51100000000E-03 0. -1.
    9900012    2    1    2    0    0  0.36709207985E+02 -0.17940009973E+02  0.14636011621E+02  0.47787277139E+02  0.20000027787E+02 0.  0.
         12    1    1    2    0    0 -0.36709207985E+02  0.17940009973E+02 -0.14636011621E+02  0.43400722861E+02  0.00000000000E+00 0. -1.
         11    1    3    3    0    0  0.65949671270E+01 -0.10171060585E+02  0.17332339072E+01  0.12245332371E+02  0.51100000000E-03 0. -1.
        -11    1    3    3    0    0  0.23736709847E+02 -0.40378388913E+01  0.47548029341E+01  0.24542691142E+02  0.51100000000E-03 0.  1.
         12    1    3    3    0    0  0.63775310106E+01 -0.37311104967E+01  0.81479747800E+01  0.10999253627E+02  0.00000000000E+00 0. -1.
</event>
<event>
 7    1  0.3851772E-009  0.4778727E+02  0.7816164E-02  0.1312668E+00
        -11   -1    0    0    0    0  0.00000000000E+00  0.00000000000E+00  0.45593999997E+02  0.45594000000E+02  0.51100000000E-03 0.  1.
         11   -1    0    0    0    0 -0.00000000000E+00 -0.00000000000E+00 -0.45593999997E+02  0.45594000000E+02  0.51100000000E-03 0. -1.
    9900012    2    1    2    0    0 -0.33152109036E+02  0.15004133973E+02  0.23652420651E+02  0.47787269909E+02  0.19999994821E+02 0.  0.
         12    1    1    2    0    0  0.33152109036E+02 -0.15004133973E+02 -0.23652420651E+02  0.43400730091E+02  0.00000000000E+00 0. -1.
         11    1    3    3    0    0 -0.62712341796E+01  0.10520792351E+02  0.71131400296E+01  0.14163764018E+02  0.51100000000E-03 0. -1.
        -11    1    3    3    0    0 -0.17891616339E+02 -0.47673450428E-01  0.15183586599E+02  0.23466007549E+02  0.51100000000E-03 0.  1.
        -12    1    3    3    0    0 -0.89892585173E+01  0.45310150732E+01  0.13556940216E+01  0.10157498342E+02  0.00000000000E+00 0.  1.
</event>
<event>
 7    1  0.3851772E-009  0.4778727E+02  0.7816164E-02  0.1312668E+00
        -11   -1    0    0    0    0  0.00000000000E+00  0.00000000000E+00  0.45593999997E+02  0.45594000000E+02  0.51100000000E-03 0. -1.
         11   -1    0    0    0    0 -0.00000000000E+00 -0.00000000000E+00 -0.45593999997E+02  0.45594000000E+02  0.51100000000E-03 0.  1.
    9900012    2    1    2    0    0  0.19976107725E+02  0.23926253005E+02 -0.30201207435E+02  0.47787269670E+02  0.19999993732E+02 0.  0.
         12    1    1    2    0    0 -0.19976107725E+02 -0.23926253005E+02  0.30201207435E+02  0.43400730330E+02  0.00000000000E+00 0. -1.
         11    1    3    3    0    0  0.34042287850E+01 -0.17493109439E+01 -0.16394160089E+00  0.38308927822E+01  0.51100000000E-03 0. -1.
        -11    1    3    3    0    0  0.63873036914E+00 -0.88803974472E+00 -0.74160138104E+00  0.13215763096E+01  0.51100000000E-03 0.  1.
         12    1    3    3    0    0  0.15933148570E+02  0.26563603694E+02 -0.29295664453E+02  0.42634800578E+02  0.00000000000E+00 0. -1.
</event>
<event>
 7    1  0.3851772E-009  0.4778727E+02  0.7816164E-02  0.1312668E+00
        -11   -1    0    0    0    0  0.00000000000E+00  0.00000000000E+00  0.45593999997E+02  0.45594000000E+02  0.51100000000E-03 0. -1.
         11   -1    0    0    0    0 -0.00000000000E+00 -0.00000000000E+00 -0.45593999997E+02  0.45594000000E+02  0.51100000000E-03 0.  1.
    9900012    2    1    2    0    0  0.22003731440E+02 -0.20982719986E+02 -0.30970704877E+02  0.47787270791E+02  0.19999998845E+02 0.  0.
         12    1    1    2    0    0 -0.22003731440E+02  0.20982719986E+02  0.30970704877E+02  0.43400729209E+02  0.00000000000E+00 0. -1.
         11    1    3    3    0    0  0.11725397108E+02 -0.41035898745E+01 -0.19344272934E+02  0.22989677745E+02  0.51100000000E-03 0. -1.
        -11    1    3    3    0    0  0.10130290910E+02 -0.12449559868E+02 -0.12420591442E+02  0.20294960627E+02  0.51100000000E-03 0.  1.
         12    1    3    3    0    0  0.14804342171E+00 -0.44295702428E+01  0.79415949862E+00  0.45026324189E+01  0.00000000000E+00 0. -1.
</event>
<event>
 7    1  0.3851772E-009  0.4778727E+02  0.7816164E-02  0.1312668E+00
        -11   -1    0    0    0    0  0.00000000000E+00  0.00000000000E+00  0.45593999997E+02  0.45594000000E+02  0.51100000000E-03 0.  1.
         11   -1    0    0    0    0 -0.00000000000E+00 -0.00000000000E+00 -0.45593999997E+02  0.45594000000E+02  0.51100000000E-03 0. -1.
    9900012    2    1    2    0    0 -0.72480669329E+01  0.10071857660E+02  0.41589019579E+02  0.47787270277E+02  0.19999996500E+02 0.  0.
         12    1    1    2    0    0  0.72480669329E+01 -0.10071857660E+02 -0.41589019579E+02  0.43400729723E+02  0.00000000000E+00 0. -1.
         11    1    3    3    0    0  0.48737183120E+01  0.23939839065E+01  0.75713756650E+01  0.93171894288E+01  0.51100000000E-03 0. -1.
        -11    1    3    3    0    0 -0.95589166167E+01  0.99263196934E+01  0.30968171777E+02  0.33895904959E+02  0.51100000000E-03 0.  1.
        -12    1    3    3    0    0 -0.25628686282E+01 -0.22484459395E+01  0.30494721370E+01  0.45741758889E+01  0.00000000000E+00 0.  1.
</event>
<event>
 7    1  0.3851772E-009  0.4778727E+02  0.7816164E-02  0.1312668E+00
        -11   -1    0    0    0    0  0.00000000000E+00  0.00000000000E+00  0.45593999997E+02  0.45594000000E+02  0.51100000000E-03 0.  1.
         11   -1    0    0    0    0 -0.00000000000E+00 -0.00000000000E+00 -0.45593999997E+02  0.45594000000E+02  0.51100000000E-03 0. -1.
    9900012    2    1    2    0    0  0.75574180454E+01 -0.18241082768E+02  0.38649339986E+02  0.47787272478E+02  0.20000006536E+02 0.  0.
         12    1    1    2    0    0 -0.75574180454E+01  0.18241082768E+02 -0.38649339986E+02  0.43400727522E+02  0.00000000000E+00 0. -1.
         11    1    3    3    0    0 -0.36815194501E+01 -0.16764499519E+01  0.12514359493E+01  0.42344022127E+01  0.51100000000E-03 0. -1.
        -11    1    3    3    0    0  0.10188254242E+02 -0.15641404307E+02  0.25657811827E+02  0.31729755139E+02  0.51100000000E-03 0.  1.
         12    1    3    3    0    0  0.10506832536E+01 -0.92322850892E+00  0.11740092210E+02  0.11823115126E+02  0.00000000000E+00 0. -1.
</event>
<event>
 7    1  0.3851772E-009  0.4778727E+02  0.7816164E-02  0.1312668E+00
        -11   -1    0    0    0    0  0.00000000000E+00  0.00000000000E+00  0.45593999997E+02  0.45594000000E+02  0.51100000000E-03 0.  1.
         11   -1    0    0    0    0 -0.00000000000E+00 -0.00000000000E+00 -0.45593999997E+02  0.45594000000E+02  0.51100000000E-03 0. -1.
    9900012    2    1    2    0    0  0.24092488260E+02  0.80937720303E+01  0.35180484087E+02  0.47787267324E+02  0.19999983036E+02 0.  0.
         12    1    1    2    0    0 -0.24092488260E+02 -0.80937720303E+01 -0.35180484087E+02  0.43400732676E+02  0.00000000000E+00 0. -1.
         11    1    3    3    0    0  0.14421443775E+01  0.72748027476E+01  0.13187776933E+02  0.15130102317E+02  0.51100000000E-03 0. -1.
        -11    1    3    3    0    0  0.16459876359E+02  0.14044078527E+01  0.20377974876E+02  0.26232837275E+02  0.51100000000E-03 0.  1.
        -12    1    3    3    0    0  0.61904675234E+01 -0.58543856996E+00  0.16147322777E+01  0.64243277319E+01  0.00000000000E+00 0.  1.
</event>
<event>
 7    1  0.3851772E-009  0.4778727E+02  0.7816164E-02  0.1312668E+00
        -11   -1    0    0    0    0  0.00000000000E+00  0.00000000000E+00  0.45593999997E+02  0.45594000000E+02  0.51100000000E-03 0.  1.
         11   -1    0    0    0    0 -0.00000000000E+00 -0.00000000000E+00 -0.45593999997E+02  0.45594000000E+02  0.51100000000E-03 0. -1.
    9900012    2    1    2    0    0  0.19983474036E+02 -0.24023634424E+02  0.30118919235E+02  0.47787267963E+02  0.19999985950E+02 0.  0.
         12    1    1    2    0    0 -0.19983474036E+02  0.24023634424E+02 -0.30118919235E+02  0.43400732037E+02  0.00000000000E+00 0. -1.
         11    1    3    3    0    0  0.16239561104E+02 -0.19978173596E+02  0.12279277661E+02  0.28524225234E+02  0.51100000000E-03 0. -1.
        -11    1    3    3    0    0  0.46925466625E+01 -0.29517470524E+01  0.15927008393E+02  0.16864234387E+02  0.51100000000E-03 0.  1.
         12    1    3    3    0    0 -0.94863373026E+00 -0.10937137754E+01  0.19126331807E+01  0.23988083417E+01  0.00000000000E+00 0. -1.
</event>
<event>
 7    1  0.3851772E-009  0.4778727E+02  0.7816164E-02  0.1312668E+00
        -11   -1    0    0    0    0  0.00000000000E+00  0.00000000000E+00  0.45593999997E+02  0.45594000000E+02  0.51100000000E-03 0.  1.
         11   -1    0    0    0    0 -0.00000000000E+00 -0.00000000000E+00 -0.45593999997E+02  0.45594000000E+02  0.51100000000E-03 0. -1.
    9900012    2    1    2    0    0  0.40136856056E+02  0.16467805365E+02  0.12113980421E+01  0.47787270595E+02  0.19999997953E+02 0.  0.
         12    1    1    2    0    0 -0.40136856056E+02 -0.16467805365E+02 -0.12113980421E+01  0.43400729405E+02  0.00000000000E+00 0. -1.
         11    1    3    3    0    0  0.70976364528E+01 -0.24752465224E+01 -0.52032376867E+01  0.91420441505E+01  0.51100000000E-03 0. -1.
        -11    1    3    3    0    0  0.20136451280E+02  0.12033886963E+02  0.44708708796E+01  0.23880531658E+02  0.51100000000E-03 0.  1.
         12    1    3    3    0    0  0.12902768323E+02  0.69091649250E+01  0.19437648492E+01  0.14764694787E+02  0.00000000000E+00 0. -1.
</event>
<event>
 7    1  0.3851772E-009  0.4778728E+02  0.7816164E-02  0.1312668E+00
        -11   -1    0    0    0    0  0.00000000000E+00  0.00000000000E+00  0.45593999997E+02  0.45594000000E+02  0.51100000000E-03 0.  1.
         11   -1    0    0    0    0 -0.00000000000E+00 -0.00000000000E+00 -0.45593999997E+02  0.45594000000E+02  0.51100000000E-03 0. -1.
    9900012    2    1    2    0    0  0.42021143885E+02 -0.90470341478E+01 -0.59997926746E+01  0.47787275670E+02  0.20000021088E+02 0.  0.
         12    1    1    2    0    0 -0.42021143885E+02  0.90470341478E+01  0.59997926746E+01  0.43400724330E+02  0.00000000000E+00 0. -1.
         11    1    3    3    0    0  0.14624951746E+02  0.14756356207E+01 -0.87983452576E+01  0.17131187746E+02  0.51100000000E-03 0. -1.
        -11    1    3    3    0    0  0.20226766448E+02 -0.96433267312E+01 -0.11248817858E+01  0.22436158109E+02  0.51100000000E-03 0.  1.
         12    1    3    3    0    0  0.71694256911E+01 -0.87934303728E+00  0.39234343689E+01  0.82199298151E+01  0.00000000000E+00 0. -1.
</event>
<event>
 7    1  0.3851772E-009  0.4778728E+02  0.7816164E-02  0.1312668E+00
        -11   -1    0    0    0    0  0.00000000000E+00  0.00000000000E+00  0.45593999997E+02  0.45594000000E+02  0.51100000000E-03 0. -1.
         11   -1    0    0    0    0 -0.00000000000E+00 -0.00000000000E+00 -0.45593999997E+02  0.45594000000E+02  0.51100000000E-03 0.  1.
    9900012    2    1    2    0    0 -0.25127250731E+02 -0.31649784948E+02 -0.15828303562E+02  0.47787276386E+02  0.20000024356E+02 0.  0.
         12    1    1    2    0    0  0.25127250731E+02  0.31649784948E+02  0.15828303562E+02  0.43400723614E+02  0.00000000000E+00 0. -1.
         11    1    3    3    0    0 -0.20930275182E+02 -0.15232957892E+02 -0.60740173797E+01  0.26589718177E+02  0.51100000000E-03 0.  1.
        -11    1    3    3    0    0  0.15000089759E+01 -0.18600547020E+01 -0.37615367594E+01  0.44563426120E+01  0.51100000000E-03 0. -1.
         12    1    3    3    0    0 -0.56969845250E+01 -0.14556772354E+02 -0.59927494226E+01  0.16741215598E+02  0.00000000000E+00 0. -1.
</event>
<event>
 7    1  0.3851772E-009  0.4778728E+02  0.7816164E-02  0.1312668E+00
        -11   -1    0    0    0    0  0.00000000000E+00  0.00000000000E+00  0.45593999997E+02  0.45594000000E+02  0.51100000000E-03 0. -1.
         11   -1    0    0    0    0 -0.00000000000E+00 -0.00000000000E+00 -0.45593999997E+02  0.45594000000E+02  0.51100000000E-03 0.  1.
    9900012    2    1    2    0    0  0.26472101615E+02  0.33215553419E+02  0.89206092305E+01  0.47787280860E+02  0.20000044753E+02 0.  0.
         12    1    1    2    0    0 -0.26472101615E+02 -0.33215553419E+02 -0.89206092305E+01  0.43400719140E+02  0.00000000000E+00 0. -1.
         11    1    3    3    0    0  0.29917704063E+01  0.49526060658E+01  0.78363713300E+01  0.97410324345E+01  0.51100000000E-03 0. -1.
        -11    1    3    3    0    0  0.12282435411E+02  0.96216900734E+01 -0.30841839438E+01  0.15904317978E+02  0.51100000000E-03 0.  1.
         12    1    3    3    0    0  0.11197895798E+02  0.18641257280E+02  0.41684218443E+01  0.22141930448E+02  0.00000000000E+00 0. -1.
</event>
<event>
 7    1  0.3851772E-009  0.4778727E+02  0.7816164E-02  0.1312668E+00
        -11   -1    0    0    0    0  0.00000000000E+00  0.00000000000E+00  0.45593999997E+02  0.45594000000E+02  0.51100000000E-03 0. -1.
         11   -1    0    0    0    0 -0.00000000000E+00 -0.00000000000E+00 -0.45593999997E+02  0.45594000000E+02  0.51100000000E-03 0.  1.
    9900012    2    1    2    0    0 -0.11537418679E+02  0.25753707772E+02 -0.32973589850E+02  0.47787272802E+02  0.20000008012E+02 0.  0.
         12    1    1    2    0    0  0.11537418679E+02 -0.25753707772E+02  0.32973589850E+02  0.43400727198E+02  0.00000000000E+00 0. -1.
         11    1    3    3    0    0 -0.69150036674E+01  0.54222562718E+01 -0.13218843233E+02  0.15873120534E+02  0.51100000000E-03 0. -1.
        -11    1    3    3    0    0 -0.62167992586E+01  0.74307002523E+01 -0.15421037115E+02  0.18211872095E+02  0.51100000000E-03 0.  1.
         12    1    3    3    0    0  0.15943842473E+01  0.12900751248E+02 -0.43337095018E+01  0.13702280173E+02  0.00000000000E+00 0. -1.
</event>
<event>
 7    1  0.3851772E-009  0.4778727E+02  0.7816164E-02  0.1312668E+00
        -11   -1    0    0    0    0  0.00000000000E+00  0.00000000000E+00  0.45593999997E+02  0.45594000000E+02  0.51100000000E-03 0.  1.
         11   -1    0    0    0    0 -0.00000000000E+00 -0.00000000000E+00 -0.45593999997E+02  0.45594000000E+02  0.51100000000E-03 0. -1.
    9900012    2    1    2    0    0  0.27850596952E+02  0.24603778304E+01  0.33195089896E+02  0.47787271863E+02  0.20000003732E+02 0.  0.
         12    1    1    2    0    0 -0.27850596952E+02 -0.24603778304E+01 -0.33195089896E+02  0.43400728137E+02  0.00000000000E+00 0. -1.
         11    1    3    3    0    0  0.76832054446E+01  0.89613201625E+01  0.10044157880E+02  0.15499097159E+02  0.51100000000E-03 0. -1.
        -11    1    3    3    0    0  0.16301908233E+02 -0.50029880492E+01  0.22272103397E+02  0.28050466867E+02  0.51100000000E-03 0.  1.
         12    1    3    3    0    0  0.38654832740E+01 -0.14979542829E+01  0.87882861907E+00  0.42377078376E+01  0.00000000000E+00 0. -1.
</event>
<event>
 7    1  0.3851772E-009  0.4778728E+02  0.7816164E-02  0.1312668E+00
        -11   -1    0    0    0    0  0.00000000000E+00  0.00000000000E+00  0.45593999997E+02  0.45594000000E+02  0.51100000000E-03 0.  1.
         11   -1    0    0    0    0 -0.00000000000E+00 -0.00000000000E+00 -0.45593999997E+02  0.45594000000E+02  0.51100000000E-03 0. -1.
    9900012    2    1    2    0    0 -0.23979882721E+02 -0.11062993553E+02  0.34441229253E+02  0.47787275650E+02  0.20000020999E+02 0.  0.
         12    1    1    2    0    0  0.23979882721E+02  0.11062993553E+02 -0.34441229253E+02  0.43400724350E+02  0.00000000000E+00 0. -1.
         11    1    3    3    0    0 -0.80427488549E-02 -0.21816042168E+01  0.10957780381E+02  0.11172842646E+02  0.51100000000E-03 0. -1.
        -11    1    3    3    0    0 -0.24979515942E+02 -0.88501707955E+01  0.20618082166E+02  0.33576882706E+02  0.51100000000E-03 0.  1.
        -12    1    3    3    0    0  0.10076759698E+01 -0.31218540865E-01  0.28653667057E+01  0.30375502985E+01  0.00000000000E+00 0.  1.
</event>
<event>
 7    1  0.3851772E-009  0.4778727E+02  0.7816164E-02  0.1312668E+00
        -11   -1    0    0    0    0  0.00000000000E+00  0.00000000000E+00  0.45593999997E+02  0.45594000000E+02  0.51100000000E-03 0. -1.
         11   -1    0    0    0    0 -0.00000000000E+00 -0.00000000000E+00 -0.45593999997E+02  0.45594000000E+02  0.51100000000E-03 0.  1.
    9900012    2    1    2    0    0 -0.53732300994E+01 -0.42566826745E+02 -0.65434726060E+01  0.47787269884E+02  0.19999994710E+02 0.  0.
         12    1    1    2    0    0  0.53732300994E+01  0.42566826745E+02  0.65434726060E+01  0.43400730116E+02  0.00000000000E+00 0. -1.
         11    1    3    3    0    0 -0.23054992933E+00 -0.22484932488E+01 -0.33674926185E+01  0.40557221251E+01  0.51100000000E-03 0. -1.
        -11    1    3    3    0    0  0.51908707387E+01 -0.82653476944E+01  0.93115787753E+00  0.98044972736E+01  0.51100000000E-03 0.  1.
        -12    1    3    3    0    0 -0.10333550909E+02 -0.32052985802E+02 -0.41071378650E+01  0.33927050485E+02  0.00000000000E+00 0.  1.
</event>
<event>
 7    1  0.3851772E-009  0.4778727E+02  0.7816164E-02  0.1312668E+00
        -11   -1    0    0    0    0  0.00000000000E+00  0.00000000000E+00  0.45593999997E+02  0.45594000000E+02  0.51100000000E-03 0. -1.
         11   -1    0    0    0    0 -0.00000000000E+00 -0.00000000000E+00 -0.45593999997E+02  0.45594000000E+02  0.51100000000E-03 0.  1.
    9900012    2    1    2    0    0  0.15974164480E+02 -0.17483732688E+02 -0.36369880575E+02  0.47787273594E+02  0.20000011624E+02 0.  0.
         12    1    1    2    0    0 -0.15974164480E+02  0.17483732688E+02  0.36369880575E+02  0.43400726406E+02  0.00000000000E+00 0. -1.
         11    1    3    3    0    0  0.97881384102E+01 -0.16888115048E+02 -0.16668081031E+02  0.25667898413E+02  0.51100000000E-03 0.  1.
        -11    1    3    3    0    0 -0.21849775796E+00  0.58346698231E+00 -0.12073076241E+02  0.12089141622E+02  0.51100000000E-03 0. -1.
         12    1    3    3    0    0  0.64045238274E+01 -0.11790846218E+01 -0.76287233042E+01  0.10030233559E+02  0.00000000000E+00 0. -1.
</event>
<event>
 7    1  0.3851772E-009  0.4778725E+02  0.7816164E-02  0.1312668E+00
        -11   -1    0    0    0    0  0.00000000000E+00  0.00000000000E+00  0.45593999997E+02  0.45594000000E+02  0.51100000000E-03 0.  1.
         11   -1    0    0    0    0 -0.00000000000E+00 -0.00000000000E+00 -0.45593999997E+02  0.45594000000E+02  0.51100000000E-03 0. -1.
    9900012    2    1    2    0    0  0.37438487263E+02 -0.66227875222E+01  0.20931408149E+02  0.47787245511E+02  0.19999883584E+02 0.  0.
         12    1    1    2    0    0 -0.37438487263E+02  0.66227875222E+01 -0.20931408149E+02  0.43400754489E+02  0.00000000000E+00 0. -1.
         11    1    3    3    0    0  0.66926544968E+00  0.41388233771E+01  0.18961022528E+01  0.46014105667E+01  0.51100000000E-03 0. -1.
        -11    1    3    3    0    0  0.19908021022E+02 -0.35611477076E+01  0.12199679547E+02  0.23618705623E+02  0.51100000000E-03 0.  1.
         12    1    3    3    0    0  0.16861200791E+02 -0.72004631917E+01  0.68356263495E+01  0.19567129321E+02  0.00000000000E+00 0. -1.
</event>
<event>
 7    1  0.3851772E-009  0.4778727E+02  0.7816164E-02  0.1312668E+00
        -11   -1    0    0    0    0  0.00000000000E+00  0.00000000000E+00  0.45593999997E+02  0.45594000000E+02  0.51100000000E-03 0. -1.
         11   -1    0    0    0    0 -0.00000000000E+00 -0.00000000000E+00 -0.45593999997E+02  0.45594000000E+02  0.51100000000E-03 0.  1.
    9900012    2    1    2    0    0  0.41802085077E+02 -0.70127865048E+01 -0.93289664892E+01  0.47787272965E+02  0.20000008759E+02 0.  0.
         12    1    1    2    0    0 -0.41802085077E+02  0.70127865048E+01  0.93289664892E+01  0.43400727035E+02  0.00000000000E+00 0. -1.
         11    1    3    3    0    0  0.32499980526E+02 -0.99348913554E+01 -0.12387308586E+02  0.36171759906E+02  0.51100000000E-03 0. -1.
        -11    1    3    3    0    0  0.27173938034E+01 -0.16562574572E+01  0.74150009037E+00  0.32676047026E+01  0.51100000000E-03 0.  1.
         12    1    3    3    0    0  0.65847107480E+01  0.45783623079E+01  0.23168420061E+01  0.83479083571E+01  0.00000000000E+00 0. -1.
</event>
<event>
 7    1  0.3851772E-009  0.4778726E+02  0.7816164E-02  0.1312668E+00
        -11   -1    0    0    0    0  0.00000000000E+00  0.00000000000E+00  0.45593999997E+02  0.45594000000E+02  0.51100000000E-03 0. -1.
         11   -1    0    0    0    0 -0.00000000000E+00 -0.00000000000E+00 -0.45593999997E+02  0.45594000000E+02  0.51100000000E-03 0.  1.
    9900012    2    1    2    0    0  0.35260257412E+01  0.18359077078E+02 -0.39168041085E+02  0.47787262551E+02  0.19999961275E+02 0.  0.
         12    1    1    2    0    0 -0.35260257412E+01 -0.18359077078E+02  0.39168041085E+02  0.43400737449E+02  0.00000000000E+00 0. -1.
         11    1    3    3    0    0  0.14844522978E+01  0.20639240650E+01 -0.17741013667E+01  0.31001317861E+01  0.51100000000E-03 0. -1.
        -11    1    3    3    0    0  0.24975223848E+01  0.14526129981E+02 -0.11411388343E+02  0.18640436005E+02  0.51100000000E-03 0.  1.
        -12    1    3    3    0    0 -0.45594894137E+00  0.17690230321E+01 -0.25982551375E+02  0.26046694760E+02  0.00000000000E+00 0.  1.
</event>
<event>
 7    1  0.3851772E-009  0.4778727E+02  0.7816164E-02  0.1312668E+00
        -11   -1    0    0    0    0  0.00000000000E+00  0.00000000000E+00  0.45593999997E+02  0.45594000000E+02  0.51100000000E-03 0. -1.
         11   -1    0    0    0    0 -0.00000000000E+00 -0.00000000000E+00 -0.45593999997E+02  0.45594000000E+02  0.51100000000E-03 0.  1.
    9900012    2    1    2    0    0 -0.20751370443E+02 -0.12722430079E+02 -0.35932492747E+02  0.47787266857E+02  0.19999980908E+02 0.  0.
         12    1    1    2    0    0  0.20751370443E+02  0.12722430079E+02  0.35932492747E+02  0.43400733143E+02  0.00000000000E+00 0. -1.
         11    1    3    3    0    0  0.81717761625E+00 -0.56145016213E+01 -0.30320103822E+01  0.64330004610E+01  0.51100000000E-03 0. -1.
        -11    1    3    3    0    0 -0.21152323472E+02 -0.54236724116E+01 -0.33050593101E+02  0.39612860479E+02  0.51100000000E-03 0.  1.
        -12    1    3    3    0    0 -0.41622458681E+00 -0.16842560458E+01  0.15011073699E+00  0.17414059170E+01  0.00000000000E+00 0.  1.
</event>
<event>
 7    1  0.3851772E-009  0.4778728E+02  0.7816164E-02  0.1312668E+00
        -11   -1    0    0    0    0  0.00000000000E+00  0.00000000000E+00  0.45593999997E+02  0.45594000000E+02  0.51100000000E-03 0.  1.
         11   -1    0    0    0    0 -0.00000000000E+00 -0.00000000000E+00 -0.45593999997E+02  0.45594000000E+02  0.51100000000E-03 0. -1.
    9900012    2    1    2    0    0  0.54117916535E+01 -0.15935651218E+02  0.40004879196E+02  0.47787276180E+02  0.20000023413E+02 0.  0.
         12    1    1    2    0    0 -0.54117916535E+01  0.15935651218E+02 -0.40004879196E+02  0.43400723820E+02  0.00000000000E+00 0. -1.
         11    1    3    3    0    0 -0.37934316848E+01  0.14171630160E+01  0.12804678964E+02  0.13429753483E+02  0.51100000000E-03 0.  1.
        -11    1    3    3    0    0  0.48753123235E+01 -0.14334012034E+02  0.16301825288E+02  0.22248192719E+02  0.51100000000E-03 0. -1.
         12    1    3    3    0    0  0.43299110148E+01 -0.30188021994E+01  0.10898374944E+02  0.12109329978E+02  0.00000000000E+00 0. -1.
</event>
<event>
 7    1  0.3851772E-009  0.4778727E+02  0.7816164E-02  0.1312668E+00
        -11   -1    0    0    0    0  0.00000000000E+00  0.00000000000E+00  0.45593999997E+02  0.45594000000E+02  0.51100000000E-03 0. -1.
         11   -1    0    0    0    0 -0.00000000000E+00 -0.00000000000E+00 -0.45593999997E+02  0.45594000000E+02  0.51100000000E-03 0.  1.
    9900012    2    1    2    0    0  0.15673836797E+02 -0.28042623668E+02 -0.29181590583E+02  0.47787272690E+02  0.20000007501E+02 0.  0.
         12    1    1    2    0    0 -0.15673836797E+02  0.28042623668E+02  0.29181590583E+02  0.43400727310E+02  0.00000000000E+00 0. -1.
         11    1    3    3    0    0  0.36180401790E+01 -0.31320071229E+01 -0.17593189877E+01  0.50985181098E+01  0.51100000000E-03 0. -1.
        -11    1    3    3    0    0  0.15722462929E+02 -0.22968636449E+02 -0.20316662037E+02  0.34460424511E+02  0.51100000000E-03 0.  1.
        -12    1    3    3    0    0 -0.36666663111E+01 -0.19419800965E+01 -0.71056095584E+01  0.82283300692E+01  0.00000000000E+00 0.  1.
</event>
<event>
 7    1  0.3851772E-009  0.4778727E+02  0.7816164E-02  0.1312668E+00
        -11   -1    0    0    0    0  0.00000000000E+00  0.00000000000E+00  0.45593999997E+02  0.45594000000E+02  0.51100000000E-03 0.  1.
         11   -1    0    0    0    0 -0.00000000000E+00 -0.00000000000E+00 -0.45593999997E+02  0.45594000000E+02  0.51100000000E-03 0. -1.
    9900012    2    1    2    0    0  0.30846718809E+02 -0.17778361398E+02  0.24820011348E+02  0.47787272373E+02  0.20000006057E+02 0.  0.
         12    1    1    2    0    0 -0.30846718809E+02  0.17778361398E+02 -0.24820011348E+02  0.43400727627E+02  0.00000000000E+00 0. -1.
         11    1    3    3    0    0  0.11908849932E+02 -0.12143239200E+02  0.18048839403E+02  0.24799991311E+02  0.51100000000E-03 0. -1.
        -11    1    3    3    0    0  0.10487414181E+02 -0.43443324840E+01 -0.10509236919E+01  0.11400154464E+02  0.51100000000E-03 0.  1.
        -12    1    3    3    0    0  0.84504546952E+01 -0.12907897143E+01  0.78220956365E+01  0.11587126598E+02  0.00000000000E+00 0.  1.
</event>
<event>
 7    1  0.3851772E-009  0.4778728E+02  0.7816164E-02  0.1312668E+00
        -11   -1    0    0    0    0  0.00000000000E+00  0.00000000000E+00  0.45593999997E+02  0.45594000000E+02  0.51100000000E-03 0.  1.
         11   -1    0    0    0    0 -0.00000000000E+00 -0.00000000000E+00 -0.45593999997E+02  0.45594000000E+02  0.51100000000E-03 0. -1.
    9900012    2    1    2    0    0  0.23930938529E+02  0.36051993877E+02 -0.33445871854E+01  0.47787281748E+02  0.20000048800E+02 0.  0.
         12    1    1    2    0    0 -0.23930938529E+02 -0.36051993877E+02  0.33445871854E+01  0.43400718252E+02  0.00000000000E+00 0. -1.
         11    1    3    3    0    0  0.13099659315E+02  0.24042791690E+02  0.41118970340E+01  0.27686903112E+02  0.51100000000E-03 0.  1.
        -11    1    3    3    0    0  0.52417124934E+01  0.11202833158E+02 -0.74771356040E+01  0.14452908972E+02  0.51100000000E-03 0. -1.
         12    1    3    3    0    0  0.55895667203E+01  0.80636902832E+00  0.20651384601E-01  0.56474696644E+01  0.00000000000E+00 0. -1.
</event>
<event>
 7    1  0.3851772E-009  0.4778727E+02  0.7816164E-02  0.1312668E+00
        -11   -1    0    0    0    0  0.00000000000E+00  0.00000000000E+00  0.45593999997E+02  0.45594000000E+02  0.51100000000E-03 0. -1.
         11   -1    0    0    0    0 -0.00000000000E+00 -0.00000000000E+00 -0.45593999997E+02  0.45594000000E+02  0.51100000000E-03 0.  1.
    9900012    2    1    2    0    0 -0.35343704590E+02  0.15275652090E+02 -0.20027487568E+02  0.47787271214E+02  0.20000000772E+02 0.  0.
         12    1    1    2    0    0  0.35343704590E+02 -0.15275652090E+02  0.20027487568E+02  0.43400728786E+02  0.00000000000E+00 0. -1.
         11    1    3    3    0    0 -0.31018938734E+01 -0.34756148607E+00  0.84062579788E+00  0.32325217063E+01  0.51100000000E-03 0. -1.
        -11    1    3    3    0    0 -0.15285698221E+02  0.42502101260E+01 -0.73779840431E+00  0.15882732856E+02  0.51100000000E-03 0.  1.
        -12    1    3    3    0    0 -0.16956112495E+02  0.11373003450E+02 -0.20130314962E+02  0.28672016652E+02  0.00000000000E+00 0.  1.
</event>
<event>
 7    1  0.3851772E-009  0.4778727E+02  0.7816164E-02  0.1312668E+00
        -11   -1    0    0    0    0  0.00000000000E+00  0.00000000000E+00  0.45593999997E+02  0.45594000000E+02  0.51100000000E-03 0.  1.
         11   -1    0    0    0    0 -0.00000000000E+00 -0.00000000000E+00 -0.45593999997E+02  0.45594000000E+02  0.51100000000E-03 0. -1.
    9900012    2    1    2    0    0  0.21582087888E+02  0.27910602342E+02  0.25275190943E+02  0.47787268233E+02  0.19999987181E+02 0.  0.
         12    1    1    2    0    0 -0.21582087888E+02 -0.27910602342E+02 -0.25275190943E+02  0.43400731767E+02  0.00000000000E+00 0. -1.
         11    1    3    3    0    0 -0.24183616779E+00 -0.14647066062E+00  0.21854849950E+00  0.35735429790E+00  0.51100000000E-03 0. -1.
        -11    1    3    3    0    0  0.85581492115E+01  0.16593178657E+02  0.23228991621E+02  0.29802039323E+02  0.51100000000E-03 0.  1.
        -12    1    3    3    0    0  0.13265774844E+02  0.11463894346E+02  0.18276508231E+01  0.17627874612E+02  0.00000000000E+00 0.  1.
</event>
<event>
 7    1  0.3851772E-009  0.4778727E+02  0.7816164E-02  0.1312668E+00
        -11   -1    0    0    0    0  0.00000000000E+00  0.00000000000E+00  0.45593999997E+02  0.45594000000E+02  0.51100000000E-03 0. -1.
         11   -1    0    0    0    0 -0.00000000000E+00 -0.00000000000E+00 -0.45593999997E+02  0.45594000000E+02  0.51100000000E-03 0.  1.
    9900012    2    1    2    0    0  0.35773212790E+02  0.22604025144E+01 -0.24470204923E+02  0.47787273027E+02  0.20000009038E+02 0.  0.
         12    1    1    2    0    0 -0.35773212790E+02 -0.22604025144E+01  0.24470204923E+02  0.43400726973E+02  0.00000000000E+00 0. -1.
         11    1    3    3    0    0  0.23101634029E+02 -0.22274168058E+01 -0.92289063336E+01  0.24976380699E+02  0.51100000000E-03 0. -1.
        -11    1    3    3    0    0  0.10163318766E+02  0.77578306664E+01 -0.12351994269E+02  0.17777759917E+02  0.51100000000E-03 0.  1.
        -12    1    3    3    0    0  0.25082599947E+01 -0.32700113462E+01 -0.28893043204E+01  0.50331324104E+01  0.00000000000E+00 0.  1.
</event>
<event>
 7    1  0.3851772E-009  0.4778727E+02  0.7816164E-02  0.1312668E+00
        -11   -1    0    0    0    0  0.00000000000E+00  0.00000000000E+00  0.45593999997E+02  0.45594000000E+02  0.51100000000E-03 0. -1.
         11   -1    0    0    0    0 -0.00000000000E+00 -0.00000000000E+00 -0.45593999997E+02  0.45594000000E+02  0.51100000000E-03 0.  1.
    9900012    2    1    2    0    0 -0.21138844946E+02 -0.31378201316E+02  0.21264544185E+02  0.47787272784E+02  0.20000007932E+02 0.  0.
         12    1    1    2    0    0  0.21138844946E+02  0.31378201316E+02 -0.21264544185E+02  0.43400727216E+02  0.00000000000E+00 0. -1.
         11    1    3    3    0    0  0.20094422665E+00  0.19406899740E+01  0.19073349204E+01  0.27284762996E+01  0.51100000000E-03 0. -1.
        -11    1    3    3    0    0 -0.15582186536E+02 -0.26672699186E+02  0.10626582555E+02  0.32667440612E+02  0.51100000000E-03 0.  1.
         12    1    3    3    0    0 -0.57576026367E+01 -0.66461921038E+01  0.87306267103E+01  0.12391355872E+02  0.00000000000E+00 0. -1.
</event>
<event>
 7    1  0.3851772E-009  0.4778727E+02  0.7816164E-02  0.1312668E+00
        -11   -1    0    0    0    0  0.00000000000E+00  0.00000000000E+00  0.45593999997E+02  0.45594000000E+02  0.51100000000E-03 0. -1.
         11   -1    0    0    0    0 -0.00000000000E+00 -0.00000000000E+00 -0.45593999997E+02  0.45594000000E+02  0.51100000000E-03 0.  1.
    9900012    2    1    2    0    0 -0.30847512283E+02 -0.25697701531E+02  0.16482792808E+02  0.47787270320E+02  0.19999996697E+02 0.  0.
         12    1    1    2    0    0  0.30847512283E+02  0.25697701531E+02 -0.16482792808E+02  0.43400729680E+02  0.00000000000E+00 0. -1.
         11    1    3    3    0    0 -0.44108107112E+01 -0.65396559216E+01  0.30597183880E+01  0.84607462778E+01  0.51100000000E-03 0. -1.
        -11    1    3    3    0    0 -0.13619536629E+02 -0.12946582182E+02 -0.13071141515E+01  0.18836515491E+02  0.51100000000E-03 0.  1.
        -12    1    3    3    0    0 -0.12817164943E+02 -0.62114634269E+01  0.14730188571E+02  0.20490008551E+02  0.00000000000E+00 0.  1.
</event>
<event>
 7    1  0.3851772E-009  0.4778727E+02  0.7816164E-02  0.1312668E+00
        -11   -1    0    0    0    0  0.00000000000E+00  0.00000000000E+00  0.45593999997E+02  0.45594000000E+02  0.51100000000E-03 0.  1.
         11   -1    0    0    0    0 -0.00000000000E+00 -0.00000000000E+00 -0.45593999997E+02  0.45594000000E+02  0.51100000000E-03 0. -1.
    9900012    2    1    2    0    0  0.27995560781E+02 -0.32806411368E+02  0.48591385068E+01  0.47787271005E+02  0.19999999819E+02 0.  0.
         12    1    1    2    0    0 -0.27995560781E+02  0.32806411368E+02 -0.48591385068E+01  0.43400728995E+02  0.00000000000E+00 0. -1.
         11    1    3    3    0    0  0.10857865860E+00  0.16196584908E+01  0.19039495617E+01  0.25020206127E+01  0.51100000000E-03 0. -1.
        -11    1    3    3    0    0  0.16138729595E+02 -0.25940248221E+02  0.36976306700E+01  0.30773812626E+02  0.51100000000E-03 0.  1.
         12    1    3    3    0    0  0.11748252527E+02 -0.84858216378E+01 -0.74244172487E+00  0.14511437766E+02  0.00000000000E+00 0. -1.
</event>
<event>
 7    1  0.3851772E-009  0.4778726E+02  0.7816164E-02  0.1312668E+00
        -11   -1    0    0    0    0  0.00000000000E+00  0.00000000000E+00  0.45593999997E+02  0.45594000000E+02  0.51100000000E-03 0. -1.
         11   -1    0    0    0    0 -0.00000000000E+00 -0.00000000000E+00 -0.45593999997E+02  0.45594000000E+02  0.51100000000E-03 0.  1.
    9900012    2    1    2    0    0 -0.29000741745E+02  0.32171488871E+02 -0.27525289896E+01  0.47787261138E+02  0.19999954833E+02 0.  0.
         12    1    1    2    0    0  0.29000741745E+02 -0.32171488871E+02  0.27525289896E+01  0.43400738862E+02  0.00000000000E+00 0. -1.
         11    1    3    3    0    0  0.24314115511E+00 -0.18901545519E+01  0.13148013633E+01  0.23152763846E+01  0.51100000000E-03 0. -1.
        -11    1    3    3    0    0 -0.19853314321E+02  0.26896503865E+02 -0.39191614523E+01  0.33659112235E+02  0.51100000000E-03 0.  1.
        -12    1    3    3    0    0 -0.93905685791E+01  0.71651395579E+01 -0.14816890055E+00  0.11812872519E+02  0.00000000000E+00 0.  1.
</event>
<event>
 7    1  0.3851772E-009  0.4778727E+02  0.7816164E-02  0.1312668E+00
        -11   -1    0    0    0    0  0.00000000000E+00  0.00000000000E+00  0.45593999997E+02  0.45594000000E+02  0.51100000000E-03 0. -1.
         11   -1    0    0    0    0 -0.00000000000E+00 -0.00000000000E+00 -0.45593999997E+02  0.45594000000E+02  0.51100000000E-03 0.  1.
    9900012    2    1    2    0    0 -0.38127099706E+02  0.13935352014E+02 -0.15354264423E+02  0.47787271852E+02  0.20000003683E+02 0.  0.
         12    1    1    2    0    0  0.38127099706E+02 -0.13935352014E+02  0.15354264423E+02  0.43400728148E+02  0.00000000000E+00 0. -1.
         11    1    3    3    0    0 -0.35623810247E+01  0.55507538370E+01 -0.40221135809E+01  0.77252070939E+01  0.51100000000E-03 0. -1.
        -11    1    3    3    0    0 -0.28646053059E+02  0.12192931484E+01 -0.58200660687E+01  0.29256729157E+02  0.51100000000E-03 0.  1.
        -12    1    3    3    0    0 -0.59186656223E+01  0.71653050287E+01 -0.55120847737E+01  0.10805335601E+02  0.00000000000E+00 0.  1.
</event>
<event>
 7    1  0.3851772E-009  0.4778727E+02  0.7816164E-02  0.1312668E+00
        -11   -1    0    0    0    0  0.00000000000E+00  0.00000000000E+00  0.45593999997E+02  0.45594000000E+02  0.51100000000E-03 0.  1.
         11   -1    0    0    0    0 -0.00000000000E+00 -0.00000000000E+00 -0.45593999997E+02  0.45594000000E+02  0.51100000000E-03 0. -1.
    9900012    2    1    2    0    0 -0.89818519057E+01 -0.33024224584E+02  0.26689888708E+02  0.47787271524E+02  0.20000002185E+02 0.  0.
         12    1    1    2    0    0  0.89818519057E+01  0.33024224584E+02 -0.26689888708E+02  0.43400728476E+02  0.00000000000E+00 0. -1.
         11    1    3    3    0    0 -0.74060416475E+01 -0.24296858691E+02  0.24968079551E+02  0.35617296246E+02  0.51100000000E-03 0. -1.
        -11    1    3    3    0    0  0.31363710226E+01 -0.28321497336E+01  0.18707733257E+01  0.46214379150E+01  0.51100000000E-03 0.  1.
         12    1    3    3    0    0 -0.47121812809E+01 -0.58952161597E+01 -0.14896416915E+00  0.75485373627E+01  0.00000000000E+00 0. -1.
</event>
<event>
 7    1  0.3851772E-009  0.4778727E+02  0.7816164E-02  0.1312668E+00
        -11   -1    0    0    0    0  0.00000000000E+00  0.00000000000E+00  0.45593999997E+02  0.45594000000E+02  0.51100000000E-03 0.  1.
         11   -1    0    0    0    0 -0.00000000000E+00 -0.00000000000E+00 -0.45593999997E+02  0.45594000000E+02  0.51100000000E-03 0. -1.
    9900012    2    1    2    0    0 -0.67813357962E+01 -0.42340404327E+02 -0.67027394561E+01  0.47787273394E+02  0.20000010711E+02 0.  0.
         12    1    1    2    0    0  0.67813357962E+01  0.42340404327E+02  0.67027394561E+01  0.43400726606E+02  0.00000000000E+00 0. -1.
         11    1    3    3    0    0 -0.14682705152E+01 -0.19353351900E+02 -0.12979268667E+02  0.23348864286E+02  0.51100000000E-03 0. -1.
        -11    1    3    3    0    0 -0.28583542334E+01 -0.13067936952E+02  0.40967794864E+01  0.13990166816E+02  0.51100000000E-03 0.  1.
         12    1    3    3    0    0 -0.24547110475E+01 -0.99191154746E+01  0.21797497244E+01  0.10448242292E+02  0.00000000000E+00 0. -1.
</event>
<event>
 7    1  0.3851772E-009  0.4778732E+02  0.7816164E-02  0.1312668E+00
        -11   -1    0    0    0    0  0.00000000000E+00  0.00000000000E+00  0.45593999997E+02  0.45594000000E+02  0.51100000000E-03 0. -1.
         11   -1    0    0    0    0 -0.00000000000E+00 -0.00000000000E+00 -0.45593999997E+02  0.45594000000E+02  0.51100000000E-03 0.  1.
    9900012    2    1    2    0    0 -0.31687102006E+02  0.33618168568E+01 -0.29465999550E+02  0.47787315955E+02  0.20000204764E+02 0.  0.
         12    1    1    2    0    0  0.31687102006E+02 -0.33618168568E+01  0.29465999550E+02  0.43400684045E+02  0.00000000000E+00 0. -1.
         11    1    3    3    0    0 -0.63285629473E+00 -0.27649445493E+01  0.11108819466E+01  0.30462246160E+01  0.51100000000E-03 0. -1.
        -11    1    3    3    0    0 -0.22425959142E+02  0.78667542107E+01 -0.20760836053E+02  0.31556643978E+02  0.51100000000E-03 0.  1.
        -12    1    3    3    0    0 -0.86282865692E+01 -0.17399928046E+01 -0.98160454433E+01  0.13184447361E+02  0.00000000000E+00 0.  1.
</event>
<event>
 7    1  0.3851772E-009  0.4778727E+02  0.7816164E-02  0.1312668E+00
        -11   -1    0    0    0    0  0.00000000000E+00  0.00000000000E+00  0.45593999997E+02  0.45594000000E+02  0.51100000000E-03 0.  1.
         11   -1    0    0    0    0 -0.00000000000E+00 -0.00000000000E+00 -0.45593999997E+02  0.45594000000E+02  0.51100000000E-03 0. -1.
    9900012    2    1    2    0    0  0.69111757792E+01 -0.11213718231E+02  0.41353491573E+02  0.47787273134E+02  0.20000009526E+02 0.  0.
         12    1    1    2    0    0 -0.69111757792E+01  0.11213718231E+02 -0.41353491573E+02  0.43400726866E+02  0.00000000000E+00 0. -1.
         11    1    3    3    0    0 -0.19365139040E+01 -0.17981372582E+01 -0.10350665455E+01  0.28380885671E+01  0.51100000000E-03 0. -1.
        -11    1    3    3    0    0  0.91605564228E+01 -0.53681332752E+01  0.34189114464E+02  0.35799835152E+02  0.51100000000E-03 0.  1.
         12    1    3    3    0    0 -0.31286673955E+00 -0.40474476973E+01  0.81994436550E+01  0.91493494146E+01  0.00000000000E+00 0. -1.
</event>
<event>
 7    1  0.3851772E-009  0.4778727E+02  0.7816164E-02  0.1312668E+00
        -11   -1    0    0    0    0  0.00000000000E+00  0.00000000000E+00  0.45593999997E+02  0.45594000000E+02  0.51100000000E-03 0.  1.
         11   -1    0    0    0    0 -0.00000000000E+00 -0.00000000000E+00 -0.45593999997E+02  0.45594000000E+02  0.51100000000E-03 0. -1.
    9900012    2    1    2    0    0  0.28121896883E+02 -0.17247404654E+02  0.28201229603E+02  0.47787269560E+02  0.19999993232E+02 0.  0.
         12    1    1    2    0    0 -0.28121896883E+02  0.17247404654E+02 -0.28201229603E+02  0.43400730440E+02  0.00000000000E+00 0. -1.
         11    1    3    3    0    0  0.12946280229E+02 -0.84132685158E+01  0.25973520711E+01  0.15656803535E+02  0.51100000000E-03 0. -1.
        -11    1    3    3    0    0  0.61718616288E+01 -0.31069643145E+01  0.38735073027E+01  0.79214368837E+01  0.51100000000E-03 0.  1.
         12    1    3    3    0    0  0.90037550242E+01 -0.57271718239E+01  0.21730370230E+02  0.24209029141E+02  0.00000000000E+00 0. -1.
</event>
<event>
 7    1  0.3851772E-009  0.4778728E+02  0.7816164E-02  0.1312668E+00
        -11   -1    0    0    0    0  0.00000000000E+00  0.00000000000E+00  0.45593999997E+02  0.45594000000E+02  0.51100000000E-03 0. -1.
         11   -1    0    0    0    0 -0.00000000000E+00 -0.00000000000E+00 -0.45593999997E+02  0.45594000000E+02  0.51100000000E-03 0.  1.
    9900012    2    1    2    0    0  0.36850975552E+02  0.12949871818E+02  0.18919019252E+02  0.47787275713E+02  0.20000021285E+02 0.  0.
         12    1    1    2    0    0 -0.36850975552E+02 -0.12949871818E+02 -0.18919019252E+02  0.43400724287E+02  0.00000000000E+00 0. -1.
         11    1    3    3    0    0  0.54502984498E+01  0.32541025493E+01 -0.29152661022E+01  0.69852496950E+01  0.51100000000E-03 0. -1.
        -11    1    3    3    0    0  0.30953658094E+02  0.72865212036E+01  0.21356137528E+02  0.38305442838E+02  0.51100000000E-03 0.  1.
        -12    1    3    3    0    0  0.44701900786E+00  0.24092480646E+01  0.47814782607E+00  0.24965831798E+01  0.00000000000E+00 0.  1.
</event>
<event>
 7    1  0.3851772E-009  0.4778727E+02  0.7816164E-02  0.1312668E+00
        -11   -1    0    0    0    0  0.00000000000E+00  0.00000000000E+00  0.45593999997E+02  0.45594000000E+02  0.51100000000E-03 0.  1.
         11   -1    0    0    0    0 -0.00000000000E+00 -0.00000000000E+00 -0.45593999997E+02  0.45594000000E+02  0.51100000000E-03 0. -1.
    9900012    2    1    2    0    0 -0.29400376930E+02 -0.27061906115E+02  0.16937955208E+02  0.47787271287E+02  0.20000001104E+02 0.  0.
         12    1    1    2    0    0  0.29400376930E+02  0.27061906115E+02 -0.16937955208E+02  0.43400728713E+02  0.00000000000E+00 0. -1.
         11    1    3    3    0    0 -0.15166505947E+02 -0.11878665257E+02 -0.92896123556E+00  0.19287004956E+02  0.51100000000E-03 0. -1.
        -11    1    3    3    0    0 -0.10041160432E+02 -0.13832049671E+02  0.16803002423E+02  0.23968550052E+02  0.51100000000E-03 0.  1.
        -12    1    3    3    0    0 -0.41927105504E+01 -0.13511911876E+01  0.10639140206E+01  0.45317162784E+01  0.00000000000E+00 0.  1.
</event>
<event>
 7    1  0.3851772E-009  0.4778727E+02  0.7816164E-02  0.1312668E+00
        -11   -1    0    0    0    0  0.00000000000E+00  0.00000000000E+00  0.45593999997E+02  0.45594000000E+02  0.51100000000E-03 0.  1.
         11   -1    0    0    0    0 -0.00000000000E+00 -0.00000000000E+00 -0.45593999997E+02  0.45594000000E+02  0.51100000000E-03 0. -1.
    9900012    2    1    2    0    0 -0.40120293128E+02 -0.15576606589E+02  0.55995068465E+01  0.47787273389E+02  0.20000010688E+02 0.  0.
         12    1    1    2    0    0  0.40120293128E+02  0.15576606589E+02 -0.55995068465E+01  0.43400726611E+02  0.00000000000E+00 0. -1.
         11    1    3    3    0    0 -0.22717862351E+02 -0.14752139119E+02  0.70795973169E+01  0.27997278025E+02  0.51100000000E-03 0. -1.
        -11    1    3    3    0    0 -0.15547876657E+02 -0.42387454673E+00  0.21425922138E+01  0.15700536291E+02  0.51100000000E-03 0.  1.
         12    1    3    3    0    0 -0.18545541196E+01 -0.40059292282E+00 -0.36226826842E+01  0.40894590722E+01  0.00000000000E+00 0. -1.
</event>
<event>
 7    1  0.3851772E-009  0.4778727E+02  0.7816164E-02  0.1312668E+00
        -11   -1    0    0    0    0  0.00000000000E+00  0.00000000000E+00  0.45593999997E+02  0.45594000000E+02  0.51100000000E-03 0.  1.
         11   -1    0    0    0    0 -0.00000000000E+00 -0.00000000000E+00 -0.45593999997E+02  0.45594000000E+02  0.51100000000E-03 0. -1.
    9900012    2    1    2    0    0 -0.40785969753E+01 -0.58726144375E+01  0.42807715522E+02  0.47787273487E+02  0.20000011139E+02 0.  0.
         12    1    1    2    0    0  0.40785969753E+01  0.58726144375E+01 -0.42807715522E+02  0.43400726513E+02  0.00000000000E+00 0. -1.
         11    1    3    3    0    0  0.15631787652E+01 -0.10773361434E+01  0.96607982339E+01  0.98455677234E+01  0.51100000000E-03 0. -1.
        -11    1    3    3    0    0 -0.28551446733E+01 -0.45382133281E+01  0.34442900745E+02  0.34857719995E+02  0.51100000000E-03 0.  1.
        -12    1    3    3    0    0 -0.27866310672E+01 -0.25706496593E+00 -0.12959834566E+01  0.30839857686E+01  0.00000000000E+00 0.  1.
</event>
<event>
 7    1  0.3851772E-009  0.4778727E+02  0.7816164E-02  0.1312668E+00
        -11   -1    0    0    0    0  0.00000000000E+00  0.00000000000E+00  0.45593999997E+02  0.45594000000E+02  0.51100000000E-03 0.  1.
         11   -1    0    0    0    0 -0.00000000000E+00 -0.00000000000E+00 -0.45593999997E+02  0.45594000000E+02  0.51100000000E-03 0. -1.
    9900012    2    1    2    0    0 -0.99296822203E+01 -0.17033530172E+01  0.42215200462E+02  0.47787272465E+02  0.20000006477E+02 0.  0.
         12    1    1    2    0    0  0.99296822203E+01  0.17033530172E+01 -0.42215200462E+02  0.43400727535E+02  0.00000000000E+00 0. -1.
         11    1    3    3    0    0  0.18933789944E+01 -0.38296013566E+01  0.27401135765E+01  0.50753278949E+01  0.51100000000E-03 0. -1.
        -11    1    3    3    0    0 -0.10083661114E+02  0.50260753825E+01  0.20085825532E+02  0.23030024810E+02  0.51100000000E-03 0.  1.
        -12    1    3    3    0    0 -0.17394001012E+01 -0.28998270431E+01  0.19389261354E+02  0.19681919760E+02  0.00000000000E+00 0.  1.
</event>
<event>
 7    1  0.3851772E-009  0.4778727E+02  0.7816164E-02  0.1312668E+00
        -11   -1    0    0    0    0  0.00000000000E+00  0.00000000000E+00  0.45593999997E+02  0.45594000000E+02  0.51100000000E-03 0. -1.
         11   -1    0    0    0    0 -0.00000000000E+00 -0.00000000000E+00 -0.45593999997E+02  0.45594000000E+02  0.51100000000E-03 0.  1.
    9900012    2    1    2    0    0  0.69668862462E+01  0.36467844548E+02 -0.22476262472E+02  0.47787267694E+02  0.19999984724E+02 0.  0.
         12    1    1    2    0    0 -0.69668862462E+01 -0.36467844548E+02  0.22476262472E+02  0.43400732306E+02  0.00000000000E+00 0. -1.
         11    1    3    3    0    0  0.64450477047E+01  0.18706244455E+02 -0.20798991836E+01  0.19894426416E+02  0.51100000000E-03 0. -1.
        -11    1    3    3    0    0 -0.14086267908E+01  0.10184652870E+02 -0.15714923784E+02  0.18779515790E+02  0.51100000000E-03 0.  1.
        -12    1    3    3    0    0  0.19304653323E+01  0.75769472227E+01 -0.46814395051E+01  0.91133254883E+01  0.00000000000E+00 0.  1.
</event>
<event>
 7    1  0.3851772E-009  0.4778727E+02  0.7816164E-02  0.1312668E+00
        -11   -1    0    0    0    0  0.00000000000E+00  0.00000000000E+00  0.45593999997E+02  0.45594000000E+02  0.51100000000E-03 0.  1.
         11   -1    0    0    0    0 -0.00000000000E+00 -0.00000000000E+00 -0.45593999997E+02  0.45594000000E+02  0.51100000000E-03 0. -1.
    9900012    2    1    2    0    0 -0.40703185844E+02 -0.79469223277E+01  0.12795323523E+02  0.47787271706E+02  0.20000003017E+02 0.  0.
         12    1    1    2    0    0  0.40703185844E+02  0.79469223277E+01 -0.12795323523E+02  0.43400728294E+02  0.00000000000E+00 0. -1.
         11    1    3    3    0    0 -0.19305149283E+02 -0.61099364274E+00 -0.75110500087E+00  0.19329414401E+02  0.51100000000E-03 0. -1.
        -11    1    3    3    0    0 -0.21632122888E+02 -0.89209890236E+01  0.12352777654E+02  0.26459854532E+02  0.51100000000E-03 0.  1.
         12    1    3    3    0    0  0.23408632694E+00  0.15850603387E+01  0.11936508697E+01  0.19980027739E+01  0.00000000000E+00 0. -1.
</event>
<event>
 7    1  0.3851772E-009  0.4778727E+02  0.7816164E-02  0.1312668E+00
        -11   -1    0    0    0    0  0.00000000000E+00  0.00000000000E+00  0.45593999997E+02  0.45594000000E+02  0.51100000000E-03 0.  1.
         11   -1    0    0    0    0 -0.00000000000E+00 -0.00000000000E+00 -0.45593999997E+02  0.45594000000E+02  0.51100000000E-03 0. -1.
    9900012    2    1    2    0    0  0.21768021972E+02 -0.93402075219E+01  0.36366707768E+02  0.47787266239E+02  0.19999978090E+02 0.  0.
         12    1    1    2    0    0 -0.21768021972E+02  0.93402075219E+01 -0.36366707768E+02  0.43400733761E+02  0.00000000000E+00 0. -1.
         11    1    3    3    0    0  0.13831007817E+02  0.25431545401E+00  0.25504061477E+02  0.29014110458E+02  0.51100000000E-03 0.  1.
        -11    1    3    3    0    0  0.96007320438E+01 -0.86658065105E+01  0.76172072720E+01  0.15009733680E+02  0.51100000000E-03 0. -1.
        -12    1    3    3    0    0 -0.16637178888E+01 -0.92871646538E+00  0.32454390191E+01  0.37634221014E+01  0.00000000000E+00 0.  1.
</event>
<event>
 7    1  0.3851772E-009  0.4778727E+02  0.7816164E-02  0.1312668E+00
        -11   -1    0    0    0    0  0.00000000000E+00  0.00000000000E+00  0.45593999997E+02  0.45594000000E+02  0.51100000000E-03 0.  1.
         11   -1    0    0    0    0 -0.00000000000E+00 -0.00000000000E+00 -0.45593999997E+02  0.45594000000E+02  0.51100000000E-03 0. -1.
    9900012    2    1    2    0    0  0.12846857463E+02 -0.38924926072E+02  0.14262941540E+02  0.47787272843E+02  0.20000008202E+02 0.  0.
         12    1    1    2    0    0 -0.12846857463E+02  0.38924926072E+02 -0.14262941540E+02  0.43400727157E+02  0.00000000000E+00 0. -1.
         11    1    3    3    0    0  0.52588605398E+01 -0.23613214443E+01 -0.25512140102E+01  0.63039786109E+01  0.51100000000E-03 0. -1.
        -11    1    3    3    0    0  0.86793210249E+01 -0.28699138389E+02  0.13354728186E+02  0.32822552047E+02  0.51100000000E-03 0.  1.
         12    1    3    3    0    0 -0.10913241019E+01 -0.78644662387E+01  0.34594273644E+01  0.86607421855E+01  0.00000000000E+00 0. -1.
</event>
<event>
 7    1  0.3851772E-009  0.4778727E+02  0.7816164E-02  0.1312668E+00
        -11   -1    0    0    0    0  0.00000000000E+00  0.00000000000E+00  0.45593999997E+02  0.45594000000E+02  0.51100000000E-03 0.  1.
         11   -1    0    0    0    0 -0.00000000000E+00 -0.00000000000E+00 -0.45593999997E+02  0.45594000000E+02  0.51100000000E-03 0. -1.
    9900012    2    1    2    0    0  0.26516179089E+02  0.32488391146E+02  0.11181232551E+02  0.47787271042E+02  0.19999999990E+02 0.  0.
         12    1    1    2    0    0 -0.26516179089E+02 -0.32488391146E+02 -0.11181232551E+02  0.43400728958E+02  0.00000000000E+00 0. -1.
         11    1    3    3    0    0  0.62752279404E+01  0.76973415568E+01  0.93708172156E+01  0.13654294866E+02  0.51100000000E-03 0. -1.
        -11    1    3    3    0    0  0.20992242305E+02  0.24883214359E+02  0.30316746420E+01  0.32696171721E+02  0.51100000000E-03 0.  1.
         12    1    3    3    0    0 -0.75129115667E+00 -0.92164770238E-01 -0.12212593067E+01  0.14368044547E+01  0.00000000000E+00 0. -1.
</event>
<event>
 7    1  0.3851772E-009  0.4778727E+02  0.7816164E-02  0.1312668E+00
        -11   -1    0    0    0    0  0.00000000000E+00  0.00000000000E+00  0.45593999997E+02  0.45594000000E+02  0.51100000000E-03 0.  1.
         11   -1    0    0    0    0 -0.00000000000E+00 -0.00000000000E+00 -0.45593999997E+02  0.45594000000E+02  0.51100000000E-03 0. -1.
    9900012    2    1    2    0    0  0.28103114105E+01  0.42875534495E+02  0.61166997608E+01  0.47787270462E+02  0.19999997346E+02 0.  0.
         12    1    1    2    0    0 -0.28103114105E+01 -0.42875534495E+02 -0.61166997608E+01  0.43400729538E+02  0.00000000000E+00 0. -1.
         11    1    3    3    0    0 -0.22403589712E+01  0.78573615557E+01 -0.26287962633E+01  0.85830011646E+01  0.51100000000E-03 0. -1.
        -11    1    3    3    0    0  0.42942286222E+01  0.23400119143E+02  0.12623832612E+02  0.26932640521E+02  0.51100000000E-03 0.  1.
        -12    1    3    3    0    0  0.75644175955E+00  0.11618053796E+02 -0.38783365878E+01  0.12271628777E+02  0.00000000000E+00 0.  1.
</event>
<event>
 7    1  0.3851772E-009  0.4778724E+02  0.7816164E-02  0.1312668E+00
        -11   -1    0    0    0    0  0.00000000000E+00  0.00000000000E+00  0.45593999997E+02  0.45594000000E+02  0.51100000000E-03 0.  1.
         11   -1    0    0    0    0 -0.00000000000E+00 -0.00000000000E+00 -0.45593999997E+02  0.45594000000E+02  0.51100000000E-03 0. -1.
    9900012    2    1    2    0    0  0.24351244827E+02  0.28080212722E+02  0.22408576256E+02  0.47787242392E+02  0.19999869361E+02 0.  0.
         12    1    1    2    0    0 -0.24351244827E+02 -0.28080212722E+02 -0.22408576256E+02  0.43400757608E+02  0.00000000000E+00 0. -1.
         11    1    3    3    0    0  0.65911607048E+01  0.20949120371E+02  0.13147253793E+02  0.25596080291E+02  0.51100000000E-03 0. -1.
        -11    1    3    3    0    0  0.10445571595E+02  0.74473153620E+01  0.63229651935E+01  0.14302180294E+02  0.51100000000E-03 0.  1.
         12    1    3    3    0    0  0.73145125270E+01 -0.31622301062E+00  0.29383572696E+01  0.78889818066E+01  0.00000000000E+00 0. -1.
</event>
<event>
 7    1  0.3851772E-009  0.4778727E+02  0.7816164E-02  0.1312668E+00
        -11   -1    0    0    0    0  0.00000000000E+00  0.00000000000E+00  0.45593999997E+02  0.45594000000E+02  0.51100000000E-03 0.  1.
         11   -1    0    0    0    0 -0.00000000000E+00 -0.00000000000E+00 -0.45593999997E+02  0.45594000000E+02  0.51100000000E-03 0. -1.
    9900012    2    1    2    0    0 -0.10134583072E+02  0.23364613946E+02  0.35142688588E+02  0.47787268208E+02  0.19999987067E+02 0.  0.
         12    1    1    2    0    0  0.10134583072E+02 -0.23364613946E+02 -0.35142688588E+02  0.43400731792E+02  0.00000000000E+00 0. -1.
         11    1    3    3    0    0  0.14804715477E+01  0.88176009810E+01  0.43055580759E+01  0.99236945574E+01  0.51100000000E-03 0. -1.
        -11    1    3    3    0    0 -0.11860208544E+02  0.57983479888E+01  0.19270227306E+02  0.23358661066E+02  0.51100000000E-03 0.  1.
        -12    1    3    3    0    0  0.24515392378E+00  0.87486649761E+01  0.11566903206E+02  0.14504912585E+02  0.00000000000E+00 0.  1.
</event>
<event>
 7    1  0.3851772E-009  0.4778727E+02  0.7816164E-02  0.1312668E+00
        -11   -1    0    0    0    0  0.00000000000E+00  0.00000000000E+00  0.45593999997E+02  0.45594000000E+02  0.51100000000E-03 0. -1.
         11   -1    0    0    0    0 -0.00000000000E+00 -0.00000000000E+00 -0.45593999997E+02  0.45594000000E+02  0.51100000000E-03 0.  1.
    9900012    2    1    2    0    0 -0.43235179200E+02 -0.25349372392E+01 -0.28136414531E+01  0.47787271832E+02  0.20000003593E+02 0.  0.
         12    1    1    2    0    0  0.43235179200E+02  0.25349372392E+01  0.28136414531E+01  0.43400728168E+02  0.00000000000E+00 0. -1.
         11    1    3    3    0    0 -0.75003673486E+01 -0.50308182396E+01 -0.25861193783E+01  0.93942884895E+01  0.51100000000E-03 0. -1.
        -11    1    3    3    0    0 -0.33471744597E+02 -0.70286504495E+00  0.25712850161E+01  0.33577718990E+02  0.51100000000E-03 0.  1.
        -12    1    3    3    0    0 -0.22630672538E+01  0.31987460454E+01 -0.27988070909E+01  0.48152643531E+01  0.00000000000E+00 0.  1.
</event>
<event>
 7    1  0.3851772E-009  0.4778727E+02  0.7816164E-02  0.1312668E+00
        -11   -1    0    0    0    0  0.00000000000E+00  0.00000000000E+00  0.45593999997E+02  0.45594000000E+02  0.51100000000E-03 0. -1.
         11   -1    0    0    0    0 -0.00000000000E+00 -0.00000000000E+00 -0.45593999997E+02  0.45594000000E+02  0.51100000000E-03 0.  1.
    9900012    2    1    2    0    0  0.10993260566E+02 -0.41135822795E+02  0.84033091226E+01  0.47787270754E+02  0.19999998677E+02 0.  0.
         12    1    1    2    0    0 -0.10993260566E+02  0.41135822795E+02 -0.84033091226E+01  0.43400729246E+02  0.00000000000E+00 0. -1.
         11    1    3    3    0    0 -0.13771147575E+01 -0.17260889701E+01  0.23384003594E-01  0.22082516298E+01  0.51100000000E-03 0. -1.
        -11    1    3    3    0    0  0.94712691360E+00 -0.23300558391E+02 -0.17477309459E+01  0.23385201184E+02  0.51100000000E-03 0.  1.
        -12    1    3    3    0    0  0.11423248410E+02 -0.16109175434E+02  0.10127656065E+02  0.22193817940E+02  0.00000000000E+00 0.  1.
</event>
<event>
 7    1  0.3851772E-009  0.4778727E+02  0.7816164E-02  0.1312668E+00
        -11   -1    0    0    0    0  0.00000000000E+00  0.00000000000E+00  0.45593999997E+02  0.45594000000E+02  0.51100000000E-03 0.  1.
         11   -1    0    0    0    0 -0.00000000000E+00 -0.00000000000E+00 -0.45593999997E+02  0.45594000000E+02  0.51100000000E-03 0. -1.
    9900012    2    1    2    0    0 -0.13156398206E+02  0.16253653202E+02  0.38030927359E+02  0.47787268532E+02  0.19999988544E+02 0.  0.
         12    1    1    2    0    0  0.13156398206E+02 -0.16253653202E+02 -0.38030927359E+02  0.43400731468E+02  0.00000000000E+00 0. -1.
         11    1    3    3    0    0 -0.10733200229E+02  0.31278862664E+01  0.16221777501E+02  0.19701048835E+02  0.51100000000E-03 0. -1.
        -11    1    3    3    0    0  0.30318901673E+01  0.10309454101E+02  0.17673261270E+02  0.20683843115E+02  0.51100000000E-03 0.  1.
         12    1    3    3    0    0 -0.54550881434E+01  0.28163128350E+01  0.41358885891E+01  0.74023765818E+01  0.00000000000E+00 0. -1.
</event>
<event>
 7    1  0.3851772E-009  0.4778727E+02  0.7816164E-02  0.1312668E+00
        -11   -1    0    0    0    0  0.00000000000E+00  0.00000000000E+00  0.45593999997E+02  0.45594000000E+02  0.51100000000E-03 0. -1.
         11   -1    0    0    0    0 -0.00000000000E+00 -0.00000000000E+00 -0.45593999997E+02  0.45594000000E+02  0.51100000000E-03 0.  1.
    9900012    2    1    2    0    0 -0.29927039067E+02  0.42565434750E+01 -0.31142857233E+02  0.47787269749E+02  0.19999994095E+02 0.  0.
         12    1    1    2    0    0  0.29927039067E+02 -0.42565434750E+01  0.31142857233E+02  0.43400730251E+02  0.00000000000E+00 0. -1.
         11    1    3    3    0    0 -0.23837689314E+02 -0.19152580388E+01 -0.23605543995E+02  0.33602460516E+02  0.51100000000E-03 0. -1.
        -11    1    3    3    0    0  0.83053917660E+00  0.34605084412E+01 -0.53717412345E+01  0.64436416836E+01  0.51100000000E-03 0.  1.
         12    1    3    3    0    0 -0.69198889303E+01  0.27112930725E+01 -0.21655720034E+01  0.77411675498E+01  0.00000000000E+00 0. -1.
</event>
<event>
 7    1  0.3851772E-009  0.4778727E+02  0.7816164E-02  0.1312668E+00
        -11   -1    0    0    0    0  0.00000000000E+00  0.00000000000E+00  0.45593999997E+02  0.45594000000E+02  0.51100000000E-03 0. -1.
         11   -1    0    0    0    0 -0.00000000000E+00 -0.00000000000E+00 -0.45593999997E+02  0.45594000000E+02  0.51100000000E-03 0.  1.
    9900012    2    1    2    0    0 -0.36925014310E+02  0.22090203505E+02 -0.56735610828E+01  0.47787273416E+02  0.20000010811E+02 0.  0.
         12    1    1    2    0    0  0.36925014310E+02 -0.22090203505E+02  0.56735610828E+01  0.43400726584E+02  0.00000000000E+00 0. -1.
         11    1    3    3    0    0 -0.25310357043E+01 -0.22977350897E+01  0.19770801669E+01  0.39489966481E+01  0.51100000000E-03 0. -1.
        -11    1    3    3    0    0 -0.11662819578E+02  0.75157944018E+01  0.18063727311E+01  0.13991837217E+02  0.51100000000E-03 0.  1.
         12    1    3    3    0    0 -0.22731159028E+02  0.16872144193E+02 -0.94570139808E+01  0.29846439550E+02  0.00000000000E+00 0. -1.
</event>
<event>
 7    1  0.3851772E-009  0.4778727E+02  0.7816164E-02  0.1312668E+00
        -11   -1    0    0    0    0  0.00000000000E+00  0.00000000000E+00  0.45593999997E+02  0.45594000000E+02  0.51100000000E-03 0.  1.
         11   -1    0    0    0    0 -0.00000000000E+00 -0.00000000000E+00 -0.45593999997E+02  0.45594000000E+02  0.51100000000E-03 0. -1.
    9900012    2    1    2    0    0  0.17522194180E+02  0.32393319717E+02  0.22962331815E+02  0.47787272661E+02  0.20000007371E+02 0.  0.
         12    1    1    2    0    0 -0.17522194180E+02 -0.32393319717E+02 -0.22962331815E+02  0.43400727339E+02  0.00000000000E+00 0. -1.
         11    1    3    3    0    0  0.29965387716E+00  0.56427096766E+01 -0.20676126235E+01  0.60170580155E+01  0.51100000000E-03 0. -1.
        -11    1    3    3    0    0  0.16005357171E+02  0.27374709000E+02  0.22459250687E+02  0.38858256429E+02  0.51100000000E-03 0.  1.
        -12    1    3    3    0    0  0.12171831323E+01 -0.62409896016E+00  0.25706937520E+01  0.29119582167E+01  0.00000000000E+00 0.  1.
</event>
<event>
 7    1  0.3851772E-009  0.4778727E+02  0.7816164E-02  0.1312668E+00
        -11   -1    0    0    0    0  0.00000000000E+00  0.00000000000E+00  0.45593999997E+02  0.45594000000E+02  0.51100000000E-03 0.  1.
         11   -1    0    0    0    0 -0.00000000000E+00 -0.00000000000E+00 -0.45593999997E+02  0.45594000000E+02  0.51100000000E-03 0. -1.
    9900012    2    1    2    0    0  0.39595532096E+02  0.50236939777E+01  0.17046401896E+02  0.47787268661E+02  0.19999989132E+02 0.  0.
         12    1    1    2    0    0 -0.39595532096E+02 -0.50236939777E+01 -0.17046401896E+02  0.43400731339E+02  0.00000000000E+00 0. -1.
         11    1    3    3    0    0 -0.18195864471E+01 -0.11824808597E+01  0.20544635306E+01  0.29883066245E+01  0.51100000000E-03 0. -1.
        -11    1    3    3    0    0  0.64740184653E+01  0.12793086909E+01  0.44927340801E+01  0.79833705659E+01  0.51100000000E-03 0.  1.
         12    1    3    3    0    0  0.34941100078E+02  0.49268661465E+01  0.10499204285E+02  0.36815591470E+02  0.00000000000E+00 0. -1.
</event>
<event>
 7    1  0.3851772E-009  0.4778727E+02  0.7816164E-02  0.1312668E+00
        -11   -1    0    0    0    0  0.00000000000E+00  0.00000000000E+00  0.45593999997E+02  0.45594000000E+02  0.51100000000E-03 0. -1.
         11   -1    0    0    0    0 -0.00000000000E+00 -0.00000000000E+00 -0.45593999997E+02  0.45594000000E+02  0.51100000000E-03 0.  1.
    9900012    2    1    2    0    0 -0.74276487837E+01  0.19780549568E+02 -0.37910202172E+02  0.47787268020E+02  0.19999986211E+02 0.  0.
         12    1    1    2    0    0  0.74276487837E+01 -0.19780549568E+02  0.37910202172E+02  0.43400731980E+02  0.00000000000E+00 0. -1.
         11    1    3    3    0    0 -0.25783649999E+01  0.39279002165E+01  0.13964405472E+01  0.49016744737E+01  0.51100000000E-03 0. -1.
        -11    1    3    3    0    0 -0.53730133056E+01  0.12307838242E+02 -0.28619597057E+02  0.31613818025E+02  0.51100000000E-03 0.  1.
         12    1    3    3    0    0  0.52372952177E+00  0.35448111094E+01 -0.10687045662E+02  0.11271775521E+02  0.00000000000E+00 0. -1.
</event>
<event>
 7    1  0.3851772E-009  0.4778727E+02  0.7816164E-02  0.1312668E+00
        -11   -1    0    0    0    0  0.00000000000E+00  0.00000000000E+00  0.45593999997E+02  0.45594000000E+02  0.51100000000E-03 0. -1.
         11   -1    0    0    0    0 -0.00000000000E+00 -0.00000000000E+00 -0.45593999997E+02  0.45594000000E+02  0.51100000000E-03 0.  1.
    9900012    2    1    2    0    0 -0.28537672897E+02 -0.13581827496E+02 -0.29744889302E+02  0.47787271295E+02  0.20000001143E+02 0.  0.
         12    1    1    2    0    0  0.28537672897E+02  0.13581827496E+02  0.29744889302E+02  0.43400728705E+02  0.00000000000E+00 0. -1.
         11    1    3    3    0    0 -0.18080488219E+01 -0.32784637362E+01 -0.37978160429E+01  0.53329890276E+01  0.51100000000E-03 0. -1.
        -11    1    3    3    0    0 -0.25469331480E+02 -0.14317850225E+02 -0.21127001789E+02  0.36056038135E+02  0.51100000000E-03 0.  1.
        -12    1    3    3    0    0 -0.12602925951E+01  0.40144864652E+01 -0.48200714700E+01  0.63982441326E+01  0.00000000000E+00 0.  1.
</event>
<event>
 7    1  0.3851772E-009  0.4778727E+02  0.7816164E-02  0.1312668E+00
        -11   -1    0    0    0    0  0.00000000000E+00  0.00000000000E+00  0.45593999997E+02  0.45594000000E+02  0.51100000000E-03 0.  1.
         11   -1    0    0    0    0 -0.00000000000E+00 -0.00000000000E+00 -0.45593999997E+02  0.45594000000E+02  0.51100000000E-03 0. -1.
    9900012    2    1    2    0    0  0.26466329175E+02  0.69206745917E+01  0.33693631280E+02  0.47787272983E+02  0.20000008839E+02 0.  0.
         12    1    1    2    0    0 -0.26466329175E+02 -0.69206745917E+01 -0.33693631280E+02  0.43400727017E+02  0.00000000000E+00 0. -1.
         11    1    3    3    0    0 -0.25569360452E+00 -0.29319551753E+01  0.65194740459E+01  0.71529911551E+01  0.51100000000E-03 0. -1.
        -11    1    3    3    0    0  0.24917683861E+02  0.56644461529E+01  0.21826027508E+02  0.33605838723E+02  0.51100000000E-03 0.  1.
        -12    1    3    3    0    0  0.18043389180E+01  0.41881836141E+01  0.53481297258E+01  0.70284431051E+01  0.00000000000E+00 0.  1.
</event>
<event>
 7    1  0.3851772E-009  0.4778723E+02  0.7816164E-02  0.1312668E+00
        -11   -1    0    0    0    0  0.00000000000E+00  0.00000000000E+00  0.45593999997E+02  0.45594000000E+02  0.51100000000E-03 0.  1.
         11   -1    0    0    0    0 -0.00000000000E+00 -0.00000000000E+00 -0.45593999997E+02  0.45594000000E+02  0.51100000000E-03 0. -1.
    9900012    2    1    2    0    0  0.27588836501E+02 -0.33498412093E+02 -0.58223580711E+00  0.47787233754E+02  0.19999829976E+02 0.  0.
         12    1    1    2    0    0 -0.27588836501E+02  0.33498412093E+02  0.58223580711E+00  0.43400766246E+02  0.00000000000E+00 0. -1.
         11    1    3    3    0    0  0.39712183184E+01 -0.70559675353E+00 -0.44156738368E+01  0.59805198273E+01  0.51100000000E-03 0. -1.
        -11    1    3    3    0    0  0.24318251766E+02 -0.32352787808E+02  0.45290136183E+01  0.40725817518E+02  0.51100000000E-03 0.  1.
        -12    1    3    3    0    0 -0.70063358293E+00 -0.44002753080E+00 -0.69557558863E+00  0.10808964080E+01  0.00000000000E+00 0.  1.
</event>
<event>
 7    1  0.3851772E-009  0.4778727E+02  0.7816164E-02  0.1312668E+00
        -11   -1    0    0    0    0  0.00000000000E+00  0.00000000000E+00  0.45593999997E+02  0.45594000000E+02  0.51100000000E-03 0.  1.
         11   -1    0    0    0    0 -0.00000000000E+00 -0.00000000000E+00 -0.45593999997E+02  0.45594000000E+02  0.51100000000E-03 0. -1.
    9900012    2    1    2    0    0 -0.13592517439E+02  0.21905592796E+02  0.34914349194E+02  0.47787270678E+02  0.19999998329E+02 0.  0.
         12    1    1    2    0    0  0.13592517439E+02 -0.21905592796E+02 -0.34914349194E+02  0.43400729322E+02  0.00000000000E+00 0. -1.
         11    1    3    3    0    0 -0.40045012793E+01  0.12523060712E+02  0.54246632563E+01  0.14222870730E+02  0.51100000000E-03 0. -1.
        -11    1    3    3    0    0 -0.38221872287E+01  0.37825759162E+00  0.26305461244E+01  0.46553160141E+01  0.51100000000E-03 0.  1.
         12    1    3    3    0    0 -0.57658289307E+01  0.90042744919E+01  0.26859139813E+02  0.28909083934E+02  0.00000000000E+00 0. -1.
</event>
<event>
 7    1  0.3851772E-009  0.4778727E+02  0.7816164E-02  0.1312668E+00
        -11   -1    0    0    0    0  0.00000000000E+00  0.00000000000E+00  0.45593999997E+02  0.45594000000E+02  0.51100000000E-03 0.  1.
         11   -1    0    0    0    0 -0.00000000000E+00 -0.00000000000E+00 -0.45593999997E+02  0.45594000000E+02  0.51100000000E-03 0. -1.
    9900012    2    1    2    0    0 -0.18244475179E+01  0.14443483807E+02  0.40886189497E+02  0.47787270457E+02  0.19999997324E+02 0.  0.
         12    1    1    2    0    0  0.18244475179E+01 -0.14443483807E+02 -0.40886189497E+02  0.43400729543E+02  0.00000000000E+00 0. -1.
         11    1    3    3    0    0 -0.30116800510E+01  0.38533234033E+01  0.14042487171E-01  0.48906559307E+01  0.51100000000E-03 0. -1.
        -11    1    3    3    0    0 -0.23991863197E+01  0.78718083989E+01  0.21821312724E+02  0.23321474047E+02  0.51100000000E-03 0.  1.
         12    1    3    3    0    0  0.35864188527E+01  0.27183520047E+01  0.19050834286E+02  0.19575140479E+02  0.00000000000E+00 0. -1.
</event>
<event>
 7    1  0.3851772E-009  0.4778724E+02  0.7816164E-02  0.1312668E+00
        -11   -1    0    0    0    0  0.00000000000E+00  0.00000000000E+00  0.45593999997E+02  0.45594000000E+02  0.51100000000E-03 0.  1.
         11   -1    0    0    0    0 -0.00000000000E+00 -0.00000000000E+00 -0.45593999997E+02  0.45594000000E+02  0.51100000000E-03 0. -1.
    9900012    2    1    2    0    0 -0.19562176498E+01 -0.42932200773E+02  0.60518685154E+01  0.47787242366E+02  0.19999869243E+02 0.  0.
         12    1    1    2    0    0  0.19562176498E+01  0.42932200773E+02 -0.60518685154E+01  0.43400757634E+02  0.00000000000E+00 0. -1.
         11    1    3    3    0    0  0.69076462083E+01 -0.17806293141E+02 -0.26668190640E+01  0.19284490549E+02  0.51100000000E-03 0. -1.
        -11    1    3    3    0    0 -0.67189922043E+01 -0.14105788445E+02  0.70923473557E+01  0.17158657149E+02  0.51100000000E-03 0.  1.
        -12    1    3    3    0    0 -0.21448716538E+01 -0.11020119187E+02  0.16263402237E+01  0.11344094668E+02  0.00000000000E+00 0.  1.
</event>
<event>
 7    1  0.3851772E-009  0.4778726E+02  0.7816164E-02  0.1312668E+00
        -11   -1    0    0    0    0  0.00000000000E+00  0.00000000000E+00  0.45593999997E+02  0.45594000000E+02  0.51100000000E-03 0.  1.
         11   -1    0    0    0    0 -0.00000000000E+00 -0.00000000000E+00 -0.45593999997E+02  0.45594000000E+02  0.51100000000E-03 0. -1.
    9900012    2    1    2    0    0 -0.14428726630E+02  0.48008874618E+01  0.40649568243E+02  0.47787261862E+02  0.19999958134E+02 0.  0.
         12    1    1    2    0    0  0.14428726630E+02 -0.48008874618E+01 -0.40649568243E+02  0.43400738138E+02  0.00000000000E+00 0. -1.
         11    1    3    3    0    0 -0.36233337530E+00  0.55868704744E+01  0.65061124335E+01  0.85833505364E+01  0.51100000000E-03 0. -1.
        -11    1    3    3    0    0 -0.12338889688E+02  0.18092197010E+01  0.33848103072E+02  0.36072365551E+02  0.51100000000E-03 0.  1.
        -12    1    3    3    0    0 -0.17275035666E+01 -0.25952027137E+01  0.29535273771E+00  0.31315457745E+01  0.00000000000E+00 0.  1.
</event>
<event>
 7    1  0.3851772E-009  0.4778728E+02  0.7816164E-02  0.1312668E+00
        -11   -1    0    0    0    0  0.00000000000E+00  0.00000000000E+00  0.45593999997E+02  0.45594000000E+02  0.51100000000E-03 0. -1.
         11   -1    0    0    0    0 -0.00000000000E+00 -0.00000000000E+00 -0.45593999997E+02  0.45594000000E+02  0.51100000000E-03 0.  1.
    9900012    2    1    2    0    0 -0.12163350483E+02  0.15674188887E+02 -0.38600461115E+02  0.47787275461E+02  0.20000020135E+02 0.  0.
         12    1    1    2    0    0  0.12163350483E+02 -0.15674188887E+02  0.38600461115E+02  0.43400724539E+02  0.00000000000E+00 0. -1.
         11    1    3    3    0    0 -0.10466472697E+01  0.44726243761E+01 -0.26933966323E+00  0.46013458284E+01  0.51100000000E-03 0. -1.
        -11    1    3    3    0    0 -0.12449296405E+02  0.54635136405E+01 -0.30444096620E+02  0.33341835306E+02  0.51100000000E-03 0.  1.
        -12    1    3    3    0    0  0.13325931918E+01  0.57380508704E+01 -0.78870248320E+01  0.98440943264E+01  0.00000000000E+00 0.  1.
</event>
<event>
 7    1  0.3851772E-009  0.4778727E+02  0.7816164E-02  0.1312668E+00
        -11   -1    0    0    0    0  0.00000000000E+00  0.00000000000E+00  0.45593999997E+02  0.45594000000E+02  0.51100000000E-03 0.  1.
         11   -1    0    0    0    0 -0.00000000000E+00 -0.00000000000E+00 -0.45593999997E+02  0.45594000000E+02  0.51100000000E-03 0. -1.
    9900012    2    1    2    0    0  0.41065981082E+02 -0.98102224526E+01  0.10048282440E+02  0.47787271356E+02  0.20000001422E+02 0.  0.
         12    1    1    2    0    0 -0.41065981082E+02  0.98102224526E+01 -0.10048282440E+02  0.43400728644E+02  0.00000000000E+00 0. -1.
         11    1    3    3    0    0  0.15932475051E+01 -0.50559616146E+01 -0.27261218280E+01  0.59609500873E+01  0.51100000000E-03 0. -1.
        -11    1    3    3    0    0  0.19720073122E+02 -0.26467775895E+01  0.75972155238E+01  0.21297990504E+02  0.51100000000E-03 0.  1.
         12    1    3    3    0    0  0.19752660455E+02 -0.21074832486E+01  0.51771887441E+01  0.20528330765E+02  0.00000000000E+00 0. -1.
</event>
<event>
 7    1  0.3851772E-009  0.4778727E+02  0.7816164E-02  0.1312668E+00
        -11   -1    0    0    0    0  0.00000000000E+00  0.00000000000E+00  0.45593999997E+02  0.45594000000E+02  0.51100000000E-03 0.  1.
         11   -1    0    0    0    0 -0.00000000000E+00 -0.00000000000E+00 -0.45593999997E+02  0.45594000000E+02  0.51100000000E-03 0. -1.
    9900012    2    1    2    0    0 -0.21405022198E+02  0.35447975645E+02 -0.12995746069E+02  0.47787269954E+02  0.19999995030E+02 0.  0.
         12    1    1    2    0    0  0.21405022198E+02 -0.35447975645E+02  0.12995746069E+02  0.43400730046E+02  0.00000000000E+00 0. -1.
         11    1    3    3    0    0 -0.69728261801E+01  0.60553320777E+01 -0.77935505815E+01  0.12084154188E+02  0.51100000000E-03 0. -1.
        -11    1    3    3    0    0 -0.15859097280E+02  0.22378301204E+02 -0.10938005472E+01  0.27449876706E+02  0.51100000000E-03 0.  1.
        -12    1    3    3    0    0  0.14269012616E+01  0.70143423632E+01 -0.41083949403E+01  0.82532390601E+01  0.00000000000E+00 0.  1.
</event>
<event>
 7    1  0.3851772E-009  0.4778728E+02  0.7816164E-02  0.1312668E+00
        -11   -1    0    0    0    0  0.00000000000E+00  0.00000000000E+00  0.45593999997E+02  0.45594000000E+02  0.51100000000E-03 0. -1.
         11   -1    0    0    0    0 -0.00000000000E+00 -0.00000000000E+00 -0.45593999997E+02  0.45594000000E+02  0.51100000000E-03 0.  1.
    9900012    2    1    2    0    0 -0.10179773979E+02  0.31156074850E+02 -0.28448089656E+02  0.47787278769E+02  0.20000035218E+02 0.  0.
         12    1    1    2    0    0  0.10179773979E+02 -0.31156074850E+02  0.28448089656E+02  0.43400721231E+02  0.00000000000E+00 0. -1.
         11    1    3    3    0    0  0.10374833312E+01  0.95394006470E+01  0.22080576185E+00  0.95981921117E+01  0.51100000000E-03 0. -1.
        -11    1    3    3    0    0 -0.11957954655E+02  0.18635857200E+02 -0.25595429577E+02  0.33843963548E+02  0.51100000000E-03 0.  1.
        -12    1    3    3    0    0  0.74069734502E+00  0.29808170032E+01 -0.30734658404E+01  0.43451231093E+01  0.00000000000E+00 0.  1.
</event>
<event>
 7    1  0.3851772E-009  0.4778727E+02  0.7816164E-02  0.1312668E+00
        -11   -1    0    0    0    0  0.00000000000E+00  0.00000000000E+00  0.45593999997E+02  0.45594000000E+02  0.51100000000E-03 0.  1.
         11   -1    0    0    0    0 -0.00000000000E+00 -0.00000000000E+00 -0.45593999997E+02  0.45594000000E+02  0.51100000000E-03 0. -1.
    9900012    2    1    2    0    0  0.35639037663E+01 -0.38327510872E+02  0.20048044498E+02  0.47787267427E+02  0.19999983507E+02 0.  0.
         12    1    1    2    0    0 -0.35639037663E+01  0.38327510872E+02 -0.20048044498E+02  0.43400732573E+02  0.00000000000E+00 0. -1.
         11    1    3    3    0    0 -0.24702529253E+01 -0.17367384883E+02  0.53378127376E+01  0.18336315123E+02  0.51100000000E-03 0. -1.
        -11    1    3    3    0    0  0.50307525562E+01 -0.17293927325E+02  0.17202175261E+02  0.24905887408E+02  0.51100000000E-03 0.  1.
        -12    1    3    3    0    0  0.10034041353E+01 -0.36661986635E+01 -0.24919435010E+01  0.45450648963E+01  0.00000000000E+00 0.  1.
</event>
<event>
 7    1  0.3851772E-009  0.4778727E+02  0.7816164E-02  0.1312668E+00
        -11   -1    0    0    0    0  0.00000000000E+00  0.00000000000E+00  0.45593999997E+02  0.45594000000E+02  0.51100000000E-03 0. -1.
         11   -1    0    0    0    0 -0.00000000000E+00 -0.00000000000E+00 -0.45593999997E+02  0.45594000000E+02  0.51100000000E-03 0.  1.
    9900012    2    1    2    0    0 -0.40974750617E+02  0.14005954523E+02  0.29199562123E+01  0.47787273111E+02  0.20000009423E+02 0.  0.
         12    1    1    2    0    0  0.40974750617E+02 -0.14005954523E+02 -0.29199562123E+01  0.43400726889E+02  0.00000000000E+00 0. -1.
         11    1    3    3    0    0  0.37972487789E+00  0.38786519279E+01 -0.10934531292E+01  0.40476872122E+01  0.51100000000E-03 0. -1.
        -11    1    3    3    0    0 -0.19052365197E+02  0.18860318117E+00  0.31180738463E+01  0.19306749481E+02  0.51100000000E-03 0.  1.
        -12    1    3    3    0    0 -0.22302110298E+02  0.99386994142E+01  0.89533549519E+00  0.24432836418E+02  0.00000000000E+00 0.  1.
</event>
<event>
 7    1  0.3851772E-009  0.4778727E+02  0.7816164E-02  0.1312668E+00
        -11   -1    0    0    0    0  0.00000000000E+00  0.00000000000E+00  0.45593999997E+02  0.45594000000E+02  0.51100000000E-03 0. -1.
         11   -1    0    0    0    0 -0.00000000000E+00 -0.00000000000E+00 -0.45593999997E+02  0.45594000000E+02  0.51100000000E-03 0.  1.
    9900012    2    1    2    0    0  0.19095276850E+02 -0.34567111212E+02 -0.18003025723E+02  0.47787266012E+02  0.19999977056E+02 0.  0.
         12    1    1    2    0    0 -0.19095276850E+02  0.34567111212E+02  0.18003025723E+02  0.43400733988E+02  0.00000000000E+00 0. -1.
         11    1    3    3    0    0  0.15040832476E+01 -0.11488983482E+02 -0.13177846078E+02  0.17547496556E+02  0.51100000000E-03 0. -1.
        -11    1    3    3    0    0  0.34610027024E+01 -0.62101846288E+01  0.16579725915E+01  0.73002606944E+01  0.51100000000E-03 0.  1.
         12    1    3    3    0    0  0.14130190900E+02 -0.16867943100E+02 -0.64831522372E+01  0.22939508762E+02  0.00000000000E+00 0. -1.
</event>
<event>
 7    1  0.3851772E-009  0.4778727E+02  0.7816164E-02  0.1312668E+00
        -11   -1    0    0    0    0  0.00000000000E+00  0.00000000000E+00  0.45593999997E+02  0.45594000000E+02  0.51100000000E-03 0. -1.
         11   -1    0    0    0    0 -0.00000000000E+00 -0.00000000000E+00 -0.45593999997E+02  0.45594000000E+02  0.51100000000E-03 0.  1.
    9900012    2    1    2    0    0 -0.20647099130E+02 -0.78465834408E+01 -0.37359758016E+02  0.47787273126E+02  0.20000009491E+02 0.  0.
         12    1    1    2    0    0  0.20647099130E+02  0.78465834408E+01  0.37359758016E+02  0.43400726874E+02  0.00000000000E+00 0. -1.
         11    1    3    3    0    0 -0.22207266508E+01 -0.67519649275E+01 -0.19909261135E+01  0.73813578893E+01  0.51100000000E-03 0. -1.
        -11    1    3    3    0    0 -0.18422306800E+02 -0.10507986292E+01 -0.31281055198E+02  0.36317901649E+02  0.51100000000E-03 0.  1.
         12    1    3    3    0    0 -0.40656788987E-02 -0.43819884048E-01 -0.40877767041E+01  0.40880135879E+01  0.00000000000E+00 0. -1.
</event>
<event>
 7    1  0.3851772E-009  0.4778727E+02  0.7816164E-02  0.1312668E+00
        -11   -1    0    0    0    0  0.00000000000E+00  0.00000000000E+00  0.45593999997E+02  0.45594000000E+02  0.51100000000E-03 0.  1.
         11   -1    0    0    0    0 -0.00000000000E+00 -0.00000000000E+00 -0.45593999997E+02  0.45594000000E+02  0.51100000000E-03 0. -1.
    9900012    2    1    2    0    0 -0.21367615558E+02  0.37329029830E+02  0.57958276136E+01  0.47787273273E+02  0.20000010163E+02 0.  0.
         12    1    1    2    0    0  0.21367615558E+02 -0.37329029830E+02 -0.57958276136E+01  0.43400726727E+02  0.00000000000E+00 0. -1.
         11    1    3    3    0    0 -0.59498451780E+01  0.97456599472E+01 -0.40200733233E+01  0.12105351512E+02  0.51100000000E-03 0. -1.
        -11    1    3    3    0    0 -0.40007676774E+01  0.17631824678E+02  0.97394063774E+01  0.20536392583E+02  0.51100000000E-03 0.  1.
        -12    1    3    3    0    0 -0.11417002702E+02  0.99515452050E+01  0.76494559442E-01  0.15145529178E+02  0.00000000000E+00 0.  1.
</event>
<event>
 7    1  0.3851772E-009  0.4778727E+02  0.7816164E-02  0.1312668E+00
        -11   -1    0    0    0    0  0.00000000000E+00  0.00000000000E+00  0.45593999997E+02  0.45594000000E+02  0.51100000000E-03 0.  1.
         11   -1    0    0    0    0 -0.00000000000E+00 -0.00000000000E+00 -0.45593999997E+02  0.45594000000E+02  0.51100000000E-03 0. -1.
    9900012    2    1    2    0    0  0.15708289802E+02  0.48098308734E+01  0.40171363358E+02  0.47787271025E+02  0.19999999909E+02 0.  0.
         12    1    1    2    0    0 -0.15708289802E+02 -0.48098308734E+01 -0.40171363358E+02  0.43400728975E+02  0.00000000000E+00 0. -1.
         11    1    3    3    0    0 -0.63762943868E+00 -0.49392385530E+01  0.33855227096E+01  0.60219941102E+01  0.51100000000E-03 0. -1.
        -11    1    3    3    0    0  0.34250850575E+01  0.34399758581E+00  0.99801908855E+01  0.10557165925E+02  0.51100000000E-03 0.  1.
         12    1    3    3    0    0  0.12920834183E+02  0.94050718407E+01  0.26805649763E+02  0.31208110990E+02  0.00000000000E+00 0. -1.
</event>
<event>
 7    1  0.3851772E-009  0.4778732E+02  0.7816164E-02  0.1312668E+00
        -11   -1    0    0    0    0  0.00000000000E+00  0.00000000000E+00  0.45593999997E+02  0.45594000000E+02  0.51100000000E-03 0.  1.
         11   -1    0    0    0    0 -0.00000000000E+00 -0.00000000000E+00 -0.45593999997E+02  0.45594000000E+02  0.51100000000E-03 0. -1.
    9900012    2    1    2    0    0 -0.14944411222E+02  0.32267371084E+02  0.24881728003E+02  0.47787319685E+02  0.20000221769E+02 0.  0.
         12    1    1    2    0    0  0.14944411222E+02 -0.32267371084E+02 -0.24881728003E+02  0.43400680315E+02  0.00000000000E+00 0. -1.
         11    1    3    3    0    0 -0.13351312623E+01  0.28648090552E+01 -0.27174879595E+01  0.41682667239E+01  0.51100000000E-03 0. -1.
        -11    1    3    3    0    0 -0.12400612373E+02  0.29704927385E+02  0.25072354977E+02  0.40801726465E+02  0.51100000000E-03 0.  1.
        -12    1    3    3    0    0 -0.12086675867E+01 -0.30236535664E+00  0.25268609850E+01  0.28173264954E+01  0.00000000000E+00 0.  1.
</event>
<event>
 7    1  0.3851772E-009  0.4778727E+02  0.7816164E-02  0.1312668E+00
        -11   -1    0    0    0    0  0.00000000000E+00  0.00000000000E+00  0.45593999997E+02  0.45594000000E+02  0.51100000000E-03 0. -1.
         11   -1    0    0    0    0 -0.00000000000E+00 -0.00000000000E+00 -0.45593999997E+02  0.45594000000E+02  0.51100000000E-03 0.  1.
    9900012    2    1    2    0    0  0.41886665888E+01  0.43082913424E+02  0.31529458266E+01  0.47787269312E+02  0.19999992100E+02 0.  0.
         12    1    1    2    0    0 -0.41886665888E+01 -0.43082913424E+02 -0.31529458266E+01  0.43400730688E+02  0.00000000000E+00 0. -1.
         11    1    3    3    0    0 -0.11349674275E-01  0.12958939235E+02 -0.66488954652E+01  0.14565096844E+02  0.51100000000E-03 0. -1.
        -11    1    3    3    0    0  0.24106899028E+01  0.16205334438E+02  0.51001150789E+00  0.16391595470E+02  0.51100000000E-03 0.  1.
         12    1    3    3    0    0  0.17893263603E+01  0.13918639751E+02  0.92918297840E+01  0.16830576998E+02  0.00000000000E+00 0. -1.
</event>
<event>
 7    1  0.3851772E-009  0.4778728E+02  0.7816164E-02  0.1312668E+00
        -11   -1    0    0    0    0  0.00000000000E+00  0.00000000000E+00  0.45593999997E+02  0.45594000000E+02  0.51100000000E-03 0.  1.
         11   -1    0    0    0    0 -0.00000000000E+00 -0.00000000000E+00 -0.45593999997E+02  0.45594000000E+02  0.51100000000E-03 0. -1.
    9900012    2    1    2    0    0 -0.35780837438E+02 -0.90832688801E+00  0.24546460353E+02  0.47787284552E+02  0.20000061588E+02 0.  0.
         12    1    1    2    0    0  0.35780837438E+02  0.90832688801E+00 -0.24546460353E+02  0.43400715448E+02  0.00000000000E+00 0. -1.
         11    1    3    3    0    0 -0.13001605815E+02 -0.50625386293E+01  0.49953156571E+01  0.14819724354E+02  0.51100000000E-03 0. -1.
        -11    1    3    3    0    0 -0.18478114743E+01  0.52654286313E+01  0.38969998416E+01  0.68063025162E+01  0.51100000000E-03 0.  1.
        -12    1    3    3    0    0 -0.20931420148E+02 -0.11112168901E+01  0.15654144855E+02  0.26161257683E+02  0.00000000000E+00 0.  1.
</event>
<event>
 7    1  0.3851772E-009  0.4778727E+02  0.7816164E-02  0.1312668E+00
        -11   -1    0    0    0    0  0.00000000000E+00  0.00000000000E+00  0.45593999997E+02  0.45594000000E+02  0.51100000000E-03 0.  1.
         11   -1    0    0    0    0 -0.00000000000E+00 -0.00000000000E+00 -0.45593999997E+02  0.45594000000E+02  0.51100000000E-03 0. -1.
    9900012    2    1    2    0    0  0.16696309796E+02  0.31906810547E+02 -0.24224196296E+02  0.47787274127E+02  0.20000014056E+02 0.  0.
         12    1    1    2    0    0 -0.16696309796E+02 -0.31906810547E+02  0.24224196296E+02  0.43400725873E+02  0.00000000000E+00 0. -1.
         11    1    3    3    0    0  0.10862266624E+00 -0.11992265028E+01 -0.37193816894E+01  0.39094428633E+01  0.51100000000E-03 0. -1.
        -11    1    3    3    0    0 -0.15735588955E+01  0.35071061649E+01 -0.72008449376E+00  0.39108059513E+01  0.51100000000E-03 0.  1.
         12    1    3    3    0    0  0.18161246025E+02  0.29598930885E+02 -0.19784730113E+02  0.39967025313E+02  0.00000000000E+00 0. -1.
</event>
<event>
 7    1  0.3851772E-009  0.4778727E+02  0.7816164E-02  0.1312668E+00
        -11   -1    0    0    0    0  0.00000000000E+00  0.00000000000E+00  0.45593999997E+02  0.45594000000E+02  0.51100000000E-03 0. -1.
         11   -1    0    0    0    0 -0.00000000000E+00 -0.00000000000E+00 -0.45593999997E+02  0.45594000000E+02  0.51100000000E-03 0.  1.
    9900012    2    1    2    0    0 -0.32508997373E+02  0.27926478378E+02 -0.68483785525E+01  0.47787269665E+02  0.19999993711E+02 0.  0.
         12    1    1    2    0    0  0.32508997373E+02 -0.27926478378E+02  0.68483785525E+01  0.43400730335E+02  0.00000000000E+00 0. -1.
         11    1    3    3    0    0 -0.22264728189E+02  0.29277724886E+02 -0.68176700080E+01  0.37408340253E+02  0.51100000000E-03 0.  1.
        -11    1    3    3    0    0 -0.67947556379E+01 -0.13590069472E+01 -0.82814676471E-02  0.69293342325E+01  0.51100000000E-03 0. -1.
        -12    1    3    3    0    0 -0.34495135465E+01  0.77604384335E-02 -0.22427076820E-01  0.34495951800E+01  0.00000000000E+00 0.  1.
</event>
<event>
 7    1  0.3851772E-009  0.4778727E+02  0.7816164E-02  0.1312668E+00
        -11   -1    0    0    0    0  0.00000000000E+00  0.00000000000E+00  0.45593999997E+02  0.45594000000E+02  0.51100000000E-03 0.  1.
         11   -1    0    0    0    0 -0.00000000000E+00 -0.00000000000E+00 -0.45593999997E+02  0.45594000000E+02  0.51100000000E-03 0. -1.
    9900012    2    1    2    0    0 -0.36107473644E+01  0.93005732715E+01  0.42238433075E+02  0.47787269726E+02  0.19999993989E+02 0.  0.
         12    1    1    2    0    0  0.36107473644E+01 -0.93005732715E+01 -0.42238433075E+02  0.43400730274E+02  0.00000000000E+00 0. -1.
         11    1    3    3    0    0  0.39977879567E+01  0.89160112824E+01  0.13554405055E+02  0.16709262772E+02  0.51100000000E-03 0. -1.
        -11    1    3    3    0    0 -0.12817682994E+01  0.41108804227E+01  0.73830778580E+01  0.85470525178E+01  0.51100000000E-03 0.  1.
         12    1    3    3    0    0 -0.63267670217E+01 -0.37263184336E+01  0.21300950162E+02  0.22530954437E+02  0.00000000000E+00 0. -1.
</event>
<event>
 7    1  0.3851772E-009  0.4778726E+02  0.7816164E-02  0.1312668E+00
        -11   -1    0    0    0    0  0.00000000000E+00  0.00000000000E+00  0.45593999997E+02  0.45594000000E+02  0.51100000000E-03 0.  1.
         11   -1    0    0    0    0 -0.00000000000E+00 -0.00000000000E+00 -0.45593999997E+02  0.45594000000E+02  0.51100000000E-03 0. -1.
    9900012    2    1    2    0    0 -0.13245027607E+02 -0.16159683267E+02  0.38040212487E+02  0.47787263996E+02  0.19999967865E+02 0.  0.
         12    1    1    2    0    0  0.13245027607E+02  0.16159683267E+02 -0.38040212487E+02  0.43400736004E+02  0.00000000000E+00 0. -1.
         11    1    3    3    0    0 -0.16361113213E+02 -0.96801774043E+01  0.28109100498E+02  0.33933956316E+02  0.51100000000E-03 0. -1.
        -11    1    3    3    0    0  0.24325688231E+01  0.36937451271E-01  0.52939275574E+01  0.58261844031E+01  0.51100000000E-03 0.  1.
         12    1    3    3    0    0  0.68351678285E+00 -0.65164433144E+01  0.46371844311E+01  0.80271232773E+01  0.00000000000E+00 0. -1.
</event>
<event>
 7    1  0.3851772E-009  0.4778727E+02  0.7816164E-02  0.1312668E+00
        -11   -1    0    0    0    0  0.00000000000E+00  0.00000000000E+00  0.45593999997E+02  0.45594000000E+02  0.51100000000E-03 0.  1.
         11   -1    0    0    0    0 -0.00000000000E+00 -0.00000000000E+00 -0.45593999997E+02  0.45594000000E+02  0.51100000000E-03 0. -1.
    9900012    2    1    2    0    0 -0.28545584991E+02  0.31819175348E+02  0.75042029727E+01  0.47787269539E+02  0.19999993135E+02 0.  0.
         12    1    1    2    0    0  0.28545584991E+02 -0.31819175348E+02 -0.75042029727E+01  0.43400730461E+02  0.00000000000E+00 0. -1.
         11    1    3    3    0    0 -0.12608470079E+01  0.12704501735E+01 -0.23782066866E+01  0.29765157695E+01  0.51100000000E-03 0. -1.
        -11    1    3    3    0    0 -0.24663987899E+02  0.31256417415E+02  0.11753102821E+02  0.41513989869E+02  0.51100000000E-03 0.  1.
        -12    1    3    3    0    0 -0.26207500841E+01 -0.70769224002E+00 -0.18706931613E+01  0.32967639002E+01  0.00000000000E+00 0.  1.
</event>
<event>
 7    1  0.3851772E-009  0.4778727E+02  0.7816164E-02  0.1312668E+00
        -11   -1    0    0    0    0  0.00000000000E+00  0.00000000000E+00  0.45593999997E+02  0.45594000000E+02  0.51100000000E-03 0.  1.
         11   -1    0    0    0    0 -0.00000000000E+00 -0.00000000000E+00 -0.45593999997E+02  0.45594000000E+02  0.51100000000E-03 0. -1.
    9900012    2    1    2    0    0  0.21145947022E+02  0.78183788320E+01  0.37085646633E+02  0.47787270637E+02  0.19999998143E+02 0.  0.
         12    1    1    2    0    0 -0.21145947022E+02 -0.78183788320E+01 -0.37085646633E+02  0.43400729363E+02  0.00000000000E+00 0. -1.
         11    1    3    3    0    0  0.77730875933E+01 -0.84146366102E+00  0.67563324559E+01  0.10333294748E+02  0.51100000000E-03 0. -1.
        -11    1    3    3    0    0  0.15751382878E+01 -0.35489410053E+01  0.11317192488E+02  0.11964735223E+02  0.51100000000E-03 0.  1.
        -12    1    3    3    0    0  0.11797721141E+02  0.12208783498E+02  0.19012121690E+02  0.25489240667E+02  0.00000000000E+00 0.  1.
</event>
<event>
 7    1  0.3851772E-009  0.4778727E+02  0.7816164E-02  0.1312668E+00
        -11   -1    0    0    0    0  0.00000000000E+00  0.00000000000E+00  0.45593999997E+02  0.45594000000E+02  0.51100000000E-03 0. -1.
         11   -1    0    0    0    0 -0.00000000000E+00 -0.00000000000E+00 -0.45593999997E+02  0.45594000000E+02  0.51100000000E-03 0.  1.
    9900012    2    1    2    0    0 -0.86053940940E+01  0.35842332968E+02  0.22910646170E+02  0.47787270190E+02  0.19999996105E+02 0.  0.
         12    1    1    2    0    0  0.86053940940E+01 -0.35842332968E+02 -0.22910646170E+02  0.43400729810E+02  0.00000000000E+00 0. -1.
         11    1    3    3    0    0  0.39003648408E+01  0.38842009904E+01  0.70962282483E+01  0.89808863059E+01  0.51100000000E-03 0. -1.
        -11    1    3    3    0    0 -0.25958617108E+01  0.44989488454E+01 -0.73996815447E+00  0.52465790632E+01  0.51100000000E-03 0.  1.
         12    1    3    3    0    0 -0.99098972240E+01  0.27459183132E+02  0.16554386077E+02  0.33559804821E+02  0.00000000000E+00 0. -1.
</event>
<event>
 7    1  0.3851772E-009  0.4778727E+02  0.7816164E-02  0.1312668E+00
        -11   -1    0    0    0    0  0.00000000000E+00  0.00000000000E+00  0.45593999997E+02  0.45594000000E+02  0.51100000000E-03 0. -1.
         11   -1    0    0    0    0 -0.00000000000E+00 -0.00000000000E+00 -0.45593999997E+02  0.45594000000E+02  0.51100000000E-03 0.  1.
    9900012    2    1    2    0    0 -0.26829033849E+02 -0.13961171665E+02 -0.31127352267E+02  0.47787269238E+02  0.19999991763E+02 0.  0.
         12    1    1    2    0    0  0.26829033849E+02  0.13961171665E+02  0.31127352267E+02  0.43400730762E+02  0.00000000000E+00 0. -1.
         11    1    3    3    0    0 -0.97478430665E+00  0.14337243529E+01  0.20032914456E+01  0.26493295079E+01  0.51100000000E-03 0. -1.
        -11    1    3    3    0    0 -0.12229604377E+02 -0.39650606636E+01 -0.14616792356E+02  0.19466266933E+02  0.51100000000E-03 0.  1.
         12    1    3    3    0    0 -0.13624645166E+02 -0.11429835355E+02 -0.18513851357E+02  0.25671672797E+02  0.00000000000E+00 0. -1.
</event>
<event>
 7    1  0.3851772E-009  0.4778727E+02  0.7816164E-02  0.1312668E+00
        -11   -1    0    0    0    0  0.00000000000E+00  0.00000000000E+00  0.45593999997E+02  0.45594000000E+02  0.51100000000E-03 0.  1.
         11   -1    0    0    0    0 -0.00000000000E+00 -0.00000000000E+00 -0.45593999997E+02  0.45594000000E+02  0.51100000000E-03 0. -1.
    9900012    2    1    2    0    0  0.33920293834E+01 -0.38982070764E+02 -0.18775399874E+02  0.47787270227E+02  0.19999996273E+02 0.  0.
         12    1    1    2    0    0 -0.33920293834E+01  0.38982070764E+02  0.18775399874E+02  0.43400729773E+02  0.00000000000E+00 0. -1.
         11    1    3    3    0    0 -0.34790811846E+01 -0.52191088953E+01 -0.41546390591E+00  0.62861525648E+01  0.51100000000E-03 0. -1.
        -11    1    3    3    0    0  0.91308545285E+01 -0.30290539128E+02 -0.11847215275E+02  0.33782329332E+02  0.51100000000E-03 0.  1.
        -12    1    3    3    0    0 -0.22597439605E+01 -0.34724227408E+01 -0.65127206930E+01  0.77187883299E+01  0.00000000000E+00 0.  1.
</event>
<event>
 7    1  0.3851772E-009  0.4778728E+02  0.7816164E-02  0.1312668E+00
        -11   -1    0    0    0    0  0.00000000000E+00  0.00000000000E+00  0.45593999997E+02  0.45594000000E+02  0.51100000000E-03 0.  1.
         11   -1    0    0    0    0 -0.00000000000E+00 -0.00000000000E+00 -0.45593999997E+02  0.45594000000E+02  0.51100000000E-03 0. -1.
    9900012    2    1    2    0    0 -0.24911224855E+02  0.73232734359E+01  0.34776763689E+02  0.47787277076E+02  0.20000027502E+02 0.  0.
         12    1    1    2    0    0  0.24911224855E+02 -0.73232734359E+01 -0.34776763689E+02  0.43400722924E+02  0.00000000000E+00 0. -1.
         11    1    3    3    0    0 -0.26508481585E+01 -0.18319164545E+01  0.65493257000E+01  0.72990808491E+01  0.51100000000E-03 0. -1.
        -11    1    3    3    0    0 -0.73121902953E+01 -0.36558900155E+01  0.35308773550E+01  0.89050970729E+01  0.51100000000E-03 0.  1.
        -12    1    3    3    0    0 -0.14948186401E+02  0.12811079906E+02  0.24696560634E+02  0.31583099154E+02  0.00000000000E+00 0.  1.
</event>
<event>
 7    1  0.3851772E-009  0.4778726E+02  0.7816164E-02  0.1312668E+00
        -11   -1    0    0    0    0  0.00000000000E+00  0.00000000000E+00  0.45593999997E+02  0.45594000000E+02  0.51100000000E-03 0. -1.
         11   -1    0    0    0    0 -0.00000000000E+00 -0.00000000000E+00 -0.45593999997E+02  0.45594000000E+02  0.51100000000E-03 0.  1.
    9900012    2    1    2    0    0  0.67414299486E+01  0.24293755037E+02 -0.35326910927E+02  0.47787262135E+02  0.19999959379E+02 0.  0.
         12    1    1    2    0    0 -0.67414299486E+01 -0.24293755037E+02  0.35326910927E+02  0.43400737865E+02  0.00000000000E+00 0. -1.
         11    1    3    3    0    0  0.87404187388E+00  0.17485900183E+02 -0.18996294162E+02  0.25833695953E+02  0.51100000000E-03 0.  1.
        -11    1    3    3    0    0  0.58824539284E+01  0.73772105672E+00 -0.17838288061E+01  0.61910856922E+01  0.51100000000E-03 0. -1.
         12    1    3    3    0    0 -0.15065853682E-01  0.60701337974E+01 -0.14546787959E+02  0.15762480490E+02  0.00000000000E+00 0. -1.
</event>
<event>
 7    1  0.3851772E-009  0.4778727E+02  0.7816164E-02  0.1312668E+00
        -11   -1    0    0    0    0  0.00000000000E+00  0.00000000000E+00  0.45593999997E+02  0.45594000000E+02  0.51100000000E-03 0.  1.
         11   -1    0    0    0    0 -0.00000000000E+00 -0.00000000000E+00 -0.45593999997E+02  0.45594000000E+02  0.51100000000E-03 0. -1.
    9900012    2    1    2    0    0  0.38723343479E+02  0.98745232587E+01 -0.16929843310E+02  0.47787272653E+02  0.20000007333E+02 0.  0.
         12    1    1    2    0    0 -0.38723343479E+02 -0.98745232587E+01  0.16929843310E+02  0.43400727347E+02  0.00000000000E+00 0. -1.
         11    1    3    3    0    0  0.13581774181E+02  0.11952029051E+02 -0.52847706543E+01  0.18847927989E+02  0.51100000000E-03 0. -1.
        -11    1    3    3    0    0  0.10938084735E+02  0.30686191614E+01 -0.43703509948E+01  0.12172020757E+02  0.51100000000E-03 0.  1.
         12    1    3    3    0    0  0.14203484563E+02 -0.51461249533E+01 -0.72747216609E+01  0.16767323907E+02  0.00000000000E+00 0. -1.
</event>
<event>
 7    1  0.3851772E-009  0.4778727E+02  0.7816164E-02  0.1312668E+00
        -11   -1    0    0    0    0  0.00000000000E+00  0.00000000000E+00  0.45593999997E+02  0.45594000000E+02  0.51100000000E-03 0. -1.
         11   -1    0    0    0    0 -0.00000000000E+00 -0.00000000000E+00 -0.45593999997E+02  0.45594000000E+02  0.51100000000E-03 0.  1.
    9900012    2    1    2    0    0 -0.10792838825E+01 -0.41696435406E+02 -0.11994410629E+02  0.47787268835E+02  0.19999989927E+02 0.  0.
         12    1    1    2    0    0  0.10792838825E+01  0.41696435406E+02  0.11994410629E+02  0.43400731165E+02  0.00000000000E+00 0. -1.
         11    1    3    3    0    0 -0.51904463395E+01 -0.24746160876E+02  0.89590142772E+00  0.25300510883E+02  0.51100000000E-03 0. -1.
        -11    1    3    3    0    0  0.65413962813E+00 -0.62461714849E+01 -0.81280246764E+01  0.10271676702E+02  0.51100000000E-03 0.  1.
         12    1    3    3    0    0  0.34570228289E+01 -0.10704103046E+02 -0.47622873806E+01  0.12215081250E+02  0.00000000000E+00 0. -1.
</event>
<event>
 7    1  0.3851772E-009  0.4778727E+02  0.7816164E-02  0.1312668E+00
        -11   -1    0    0    0    0  0.00000000000E+00  0.00000000000E+00  0.45593999997E+02  0.45594000000E+02  0.51100000000E-03 0.  1.
         11   -1    0    0    0    0 -0.00000000000E+00 -0.00000000000E+00 -0.45593999997E+02  0.45594000000E+02  0.51100000000E-03 0. -1.
    9900012    2    1    2    0    0  0.11694355419E+02  0.32634109718E+02  0.26112836913E+02  0.47787270543E+02  0.19999997714E+02 0.  0.
         12    1    1    2    0    0 -0.11694355419E+02 -0.32634109718E+02 -0.26112836913E+02  0.43400729457E+02  0.00000000000E+00 0. -1.
         11    1    3    3    0    0  0.74759359492E+01  0.68126571030E+01  0.26033789946E+01  0.10444113058E+02  0.51100000000E-03 0.  1.
        -11    1    3    3    0    0  0.36418992189E+01  0.20670613024E+02  0.24289621978E+02  0.32101766443E+02  0.51100000000E-03 0. -1.
         12    1    3    3    0    0  0.57652025118E+00  0.51508395913E+01 -0.78016405904E+00  0.52413910419E+01  0.00000000000E+00 0. -1.
</event>
<event>
 7    1  0.3851772E-009  0.4778725E+02  0.7816164E-02  0.1312668E+00
        -11   -1    0    0    0    0  0.00000000000E+00  0.00000000000E+00  0.45593999997E+02  0.45594000000E+02  0.51100000000E-03 0. -1.
         11   -1    0    0    0    0 -0.00000000000E+00 -0.00000000000E+00 -0.45593999997E+02  0.45594000000E+02  0.51100000000E-03 0.  1.
    9900012    2    1    2    0    0 -0.30493847402E+02  0.23764200514E+02 -0.19723423136E+02  0.47787246831E+02  0.19999889601E+02 0.  0.
         12    1    1    2    0    0  0.30493847402E+02 -0.23764200514E+02  0.19723423136E+02  0.43400753169E+02  0.00000000000E+00 0. -1.
         11    1    3    3    0    0 -0.17666468440E+02  0.20862502232E+02 -0.14767246662E+02  0.31071203400E+02  0.51100000000E-03 0. -1.
        -11    1    3    3    0    0 -0.40287447867E+00 -0.23965930220E+01 -0.41073682629E+00  0.24646847588E+01  0.51100000000E-03 0.  1.
        -12    1    3    3    0    0 -0.12424504484E+02  0.52982913034E+01 -0.45454396485E+01  0.14251358672E+02  0.00000000000E+00 0.  1.
</event>
<event>
 7    1  0.3851772E-009  0.4778728E+02  0.7816164E-02  0.1312668E+00
        -11   -1    0    0    0    0  0.00000000000E+00  0.00000000000E+00  0.45593999997E+02  0.45594000000E+02  0.51100000000E-03 0.  1.
         11   -1    0    0    0    0 -0.00000000000E+00 -0.00000000000E+00 -0.45593999997E+02  0.45594000000E+02  0.51100000000E-03 0. -1.
    9900012    2    1    2    0    0 -0.41567075279E+01 -0.12377386224E+02  0.41390150969E+02  0.47787279909E+02  0.20000040417E+02 0.  0.
         12    1    1    2    0    0  0.41567075279E+01  0.12377386224E+02 -0.41390150969E+02  0.43400720091E+02  0.00000000000E+00 0. -1.
         11    1    3    3    0    0 -0.23838430319E+01 -0.10414072850E+02  0.72349129341E+01  0.12902696863E+02  0.51100000000E-03 0. -1.
        -11    1    3    3    0    0 -0.80310179133E+00 -0.25350844071E+01  0.33451322093E+02  0.33556855864E+02  0.51100000000E-03 0.  1.
         12    1    3    3    0    0 -0.96976270462E+00  0.57177103260E+00  0.70391594129E+00  0.13277271818E+01  0.00000000000E+00 0. -1.
</event>
<event>
 7    1  0.3851772E-009  0.4778727E+02  0.7816164E-02  0.1312668E+00
        -11   -1    0    0    0    0  0.00000000000E+00  0.00000000000E+00  0.45593999997E+02  0.45594000000E+02  0.51100000000E-03 0.  1.
         11   -1    0    0    0    0 -0.00000000000E+00 -0.00000000000E+00 -0.45593999997E+02  0.45594000000E+02  0.51100000000E-03 0. -1.
    9900012    2    1    2    0    0  0.20743327019E+02 -0.12270956451E+02  0.36093786500E+02  0.47787269453E+02  0.19999992746E+02 0.  0.
         12    1    1    2    0    0 -0.20743327019E+02  0.12270956451E+02 -0.36093786500E+02  0.43400730547E+02  0.00000000000E+00 0. -1.
         11    1    3    3    0    0  0.70888153795E+01  0.34260702250E+01  0.63604887019E+01  0.10121515571E+02  0.51100000000E-03 0. -1.
        -11    1    3    3    0    0  0.25536756546E+01 -0.35330800670E+01  0.14822990767E+02  0.15450727156E+02  0.51100000000E-03 0.  1.
         12    1    3    3    0    0  0.11100835985E+02 -0.12163946609E+02  0.14910307031E+02  0.22215026726E+02  0.00000000000E+00 0. -1.
</event>
<event>
 7    1  0.3851772E-009  0.4778727E+02  0.7816164E-02  0.1312668E+00
        -11   -1    0    0    0    0  0.00000000000E+00  0.00000000000E+00  0.45593999997E+02  0.45594000000E+02  0.51100000000E-03 0.  1.
         11   -1    0    0    0    0 -0.00000000000E+00 -0.00000000000E+00 -0.45593999997E+02  0.45594000000E+02  0.51100000000E-03 0. -1.
    9900012    2    1    2    0    0 -0.37446950382E+02  0.51515240073E+01  0.21326302286E+02  0.47787268881E+02  0.19999990137E+02 0.  0.
         12    1    1    2    0    0  0.37446950382E+02 -0.51515240073E+01 -0.21326302286E+02  0.43400731119E+02  0.00000000000E+00 0. -1.
         11    1    3    3    0    0 -0.63543279175E+00  0.69573861573E+00  0.65077063280E+01  0.65755660568E+01  0.51100000000E-03 0. -1.
        -11    1    3    3    0    0 -0.30324732358E+02  0.42252312674E+01  0.76857618177E+01  0.31567592668E+02  0.51100000000E-03 0.  1.
        -12    1    3    3    0    0 -0.64867852316E+01  0.23055412414E+00  0.71328341399E+01  0.96441101566E+01  0.00000000000E+00 0.  1.
</event>
<event>
 7    1  0.3851772E-009  0.4778727E+02  0.7816164E-02  0.1312668E+00
        -11   -1    0    0    0    0  0.00000000000E+00  0.00000000000E+00  0.45593999997E+02  0.45594000000E+02  0.51100000000E-03 0.  1.
         11   -1    0    0    0    0 -0.00000000000E+00 -0.00000000000E+00 -0.45593999997E+02  0.45594000000E+02  0.51100000000E-03 0. -1.
    9900012    2    1    2    0    0 -0.18967452078E+02 -0.31887596020E+02  0.22517557431E+02  0.47787269466E+02  0.19999992802E+02 0.  0.
         12    1    1    2    0    0  0.18967452078E+02  0.31887596020E+02 -0.22517557431E+02  0.43400730534E+02  0.00000000000E+00 0. -1.
         11    1    3    3    0    0 -0.15636734355E+02 -0.11347479474E+02  0.91092592493E+01  0.21360041106E+02  0.51100000000E-03 0. -1.
        -11    1    3    3    0    0 -0.57910338759E+01 -0.17606093066E+02  0.90491387656E+01  0.20625166643E+02  0.51100000000E-03 0.  1.
         12    1    3    3    0    0  0.24603161530E+01 -0.29340234800E+01  0.43591594157E+01  0.58020617168E+01  0.00000000000E+00 0. -1.
</event>
<event>
 7    1  0.3851772E-009  0.4778727E+02  0.7816164E-02  0.1312668E+00
        -11   -1    0    0    0    0  0.00000000000E+00  0.00000000000E+00  0.45593999997E+02  0.45594000000E+02  0.51100000000E-03 0. -1.
         11   -1    0    0    0    0 -0.00000000000E+00 -0.00000000000E+00 -0.45593999997E+02  0.45594000000E+02  0.51100000000E-03 0.  1.
    9900012    2    1    2    0    0 -0.23561244241E+02 -0.14894109857E+02 -0.33266446422E+02  0.47787271940E+02  0.20000004082E+02 0.  0.
         12    1    1    2    0    0  0.23561244241E+02  0.14894109857E+02  0.33266446422E+02  0.43400728060E+02  0.00000000000E+00 0. -1.
         11    1    3    3    0    0 -0.48711867260E+01 -0.10312260293E+02 -0.20525328167E+02  0.23481061924E+02  0.51100000000E-03 0.  1.
        -11    1    3    3    0    0 -0.15280675713E+02 -0.20367528157E+01 -0.64483480401E+01  0.16710134798E+02  0.51100000000E-03 0. -1.
         12    1    3    3    0    0 -0.34093818029E+01 -0.25450967484E+01 -0.62927702143E+01  0.75960752173E+01  0.00000000000E+00 0. -1.
</event>
<event>
 7    1  0.3851772E-009  0.4778729E+02  0.7816164E-02  0.1312668E+00
        -11   -1    0    0    0    0  0.00000000000E+00  0.00000000000E+00  0.45593999997E+02  0.45594000000E+02  0.51100000000E-03 0. -1.
         11   -1    0    0    0    0 -0.00000000000E+00 -0.00000000000E+00 -0.45593999997E+02  0.45594000000E+02  0.51100000000E-03 0.  1.
    9900012    2    1    2    0    0 -0.15277423379E+02  0.38105850079E+02  0.14077162353E+02  0.47787286005E+02  0.20000068211E+02 0.  0.
         12    1    1    2    0    0  0.15277423379E+02 -0.38105850079E+02 -0.14077162353E+02  0.43400713995E+02  0.00000000000E+00 0. -1.
         11    1    3    3    0    0 -0.14384308185E+02  0.35756232882E+02  0.12704274746E+02  0.40580969789E+02  0.51100000000E-03 0. -1.
        -11    1    3    3    0    0  0.22160805589E+00  0.45758914897E+01  0.78389274437E+00  0.46478361795E+01  0.51100000000E-03 0.  1.
         12    1    3    3    0    0 -0.11147232504E+01 -0.22262742929E+01  0.58899486225E+00  0.25584800370E+01  0.00000000000E+00 0. -1.
</event>
<event>
 7    1  0.3851772E-009  0.4778727E+02  0.7816164E-02  0.1312668E+00
        -11   -1    0    0    0    0  0.00000000000E+00  0.00000000000E+00  0.45593999997E+02  0.45594000000E+02  0.51100000000E-03 0.  1.
         11   -1    0    0    0    0 -0.00000000000E+00 -0.00000000000E+00 -0.45593999997E+02  0.45594000000E+02  0.51100000000E-03 0. -1.
    9900012    2    1    2    0    0  0.18304578579E+02  0.79407227817E+01  0.38542320219E+02  0.47787272782E+02  0.20000007921E+02 0.  0.
         12    1    1    2    0    0 -0.18304578579E+02 -0.79407227817E+01 -0.38542320219E+02  0.43400727218E+02  0.00000000000E+00 0. -1.
         11    1    3    3    0    0  0.21700988967E+01 -0.57963688292E+01  0.11605900260E+02  0.13153103889E+02  0.51100000000E-03 0. -1.
        -11    1    3    3    0    0  0.10671788890E+02  0.11551088615E+02  0.21383980147E+02  0.26544101671E+02  0.51100000000E-03 0.  1.
         12    1    3    3    0    0  0.54626907924E+01  0.21860029959E+01  0.55524398116E+01  0.80900672218E+01  0.00000000000E+00 0. -1.
</event>
<event>
 7    1  0.3851772E-009  0.4778727E+02  0.7816164E-02  0.1312668E+00
        -11   -1    0    0    0    0  0.00000000000E+00  0.00000000000E+00  0.45593999997E+02  0.45594000000E+02  0.51100000000E-03 0.  1.
         11   -1    0    0    0    0 -0.00000000000E+00 -0.00000000000E+00 -0.45593999997E+02  0.45594000000E+02  0.51100000000E-03 0. -1.
    9900012    2    1    2    0    0 -0.10805515062E+02 -0.34514327166E+02  0.23992186876E+02  0.47787274585E+02  0.20000016142E+02 0.  0.
         12    1    1    2    0    0  0.10805515062E+02  0.34514327166E+02 -0.23992186876E+02  0.43400725415E+02  0.00000000000E+00 0. -1.
         11    1    3    3    0    0 -0.91853603597E+01 -0.70267729106E+01  0.12757034182E+02  0.17218835729E+02  0.51100000000E-03 0. -1.
        -11    1    3    3    0    0 -0.31390222558E+01 -0.25798253994E+02  0.11192801685E+02  0.28296328025E+02  0.51100000000E-03 0.  1.
        -12    1    3    3    0    0  0.15188675540E+01 -0.16893002617E+01  0.42351008465E-01  0.22721108311E+01  0.00000000000E+00 0.  1.
</event>
<event>
 7    1  0.3851772E-009  0.4778727E+02  0.7816164E-02  0.1312668E+00
        -11   -1    0    0    0    0  0.00000000000E+00  0.00000000000E+00  0.45593999997E+02  0.45594000000E+02  0.51100000000E-03 0. -1.
         11   -1    0    0    0    0 -0.00000000000E+00 -0.00000000000E+00 -0.45593999997E+02  0.45594000000E+02  0.51100000000E-03 0.  1.
    9900012    2    1    2    0    0 -0.12029454187E+02 -0.41535196093E+02 -0.37071542855E+01  0.47787271027E+02  0.19999999920E+02 0.  0.
         12    1    1    2    0    0  0.12029454187E+02  0.41535196093E+02  0.37071542855E+01  0.43400728973E+02  0.00000000000E+00 0. -1.
         11    1    3    3    0    0  0.32734085803E+01 -0.16169496009E+01 -0.11603308769E+01  0.38309395389E+01  0.51100000000E-03 0. -1.
        -11    1    3    3    0    0 -0.13395585068E+02 -0.28528764717E+02  0.19173166133E+01  0.31575436954E+02  0.51100000000E-03 0.  1.
         12    1    3    3    0    0 -0.19072776993E+01 -0.11389481775E+02 -0.44641400219E+01  0.12380894534E+02  0.00000000000E+00 0. -1.
</event>
<event>
 7    1  0.3851772E-009  0.4778727E+02  0.7816164E-02  0.1312668E+00
        -11   -1    0    0    0    0  0.00000000000E+00  0.00000000000E+00  0.45593999997E+02  0.45594000000E+02  0.51100000000E-03 0.  1.
         11   -1    0    0    0    0 -0.00000000000E+00 -0.00000000000E+00 -0.45593999997E+02  0.45594000000E+02  0.51100000000E-03 0. -1.
    9900012    2    1    2    0    0  0.18811562159E+02  0.36283541207E+02  0.14603177977E+02  0.47787273734E+02  0.20000012263E+02 0.  0.
         12    1    1    2    0    0 -0.18811562159E+02 -0.36283541207E+02 -0.14603177977E+02  0.43400726266E+02  0.00000000000E+00 0. -1.
         11    1    3    3    0    0  0.10088546523E+02  0.24953823774E+02  0.10156682650E+02  0.28768564348E+02  0.51100000000E-03 0.  1.
        -11    1    3    3    0    0  0.38664145810E+01  0.81328859178E+01  0.81329950813E+01  0.12134191539E+02  0.51100000000E-03 0. -1.
         12    1    3    3    0    0  0.48566010548E+01  0.31968315152E+01 -0.36864997550E+01  0.68845178470E+01  0.00000000000E+00 0. -1.
</event>
<event>
 7    1  0.3851772E-009  0.4778727E+02  0.7816164E-02  0.1312668E+00
        -11   -1    0    0    0    0  0.00000000000E+00  0.00000000000E+00  0.45593999997E+02  0.45594000000E+02  0.51100000000E-03 0.  1.
         11   -1    0    0    0    0 -0.00000000000E+00 -0.00000000000E+00 -0.45593999997E+02  0.45594000000E+02  0.51100000000E-03 0. -1.
    9900012    2    1    2    0    0  0.16604974173E+02  0.31775205191E+02  0.24458831797E+02  0.47787270915E+02  0.19999999410E+02 0.  0.
         12    1    1    2    0    0 -0.16604974173E+02 -0.31775205191E+02 -0.24458831797E+02  0.43400729085E+02  0.00000000000E+00 0. -1.
         11    1    3    3    0    0  0.34586926212E+01  0.18610654643E+02  0.15369543949E+02  0.24383229941E+02  0.51100000000E-03 0. -1.
        -11    1    3    3    0    0  0.53844962792E+01  0.62203086996E+01 -0.17078724700E+01  0.84024918408E+01  0.51100000000E-03 0.  1.
        -12    1    3    3    0    0  0.77617852727E+01  0.69442418485E+01  0.10797160318E+02  0.15001549133E+02  0.00000000000E+00 0.  1.
</event>
<event>
 7    1  0.3851772E-009  0.4778728E+02  0.7816164E-02  0.1312668E+00
        -11   -1    0    0    0    0  0.00000000000E+00  0.00000000000E+00  0.45593999997E+02  0.45594000000E+02  0.51100000000E-03 0. -1.
         11   -1    0    0    0    0 -0.00000000000E+00 -0.00000000000E+00 -0.45593999997E+02  0.45594000000E+02  0.51100000000E-03 0.  1.
    9900012    2    1    2    0    0 -0.21118597870E+02 -0.22421001609E+02 -0.30576560180E+02  0.47787279711E+02  0.20000039516E+02 0.  0.
         12    1    1    2    0    0  0.21118597870E+02  0.22421001609E+02  0.30576560180E+02  0.43400720289E+02  0.00000000000E+00 0. -1.
         11    1    3    3    0    0 -0.22557809211E+02 -0.13993388178E+02 -0.23220156866E+02  0.35268191820E+02  0.51100000000E-03 0. -1.
        -11    1    3    3    0    0 -0.20179770879E+01 -0.23203442664E+01 -0.27421379769E+01  0.41201395592E+01  0.51100000000E-03 0.  1.
         12    1    3    3    0    0  0.34571884291E+01 -0.61072691647E+01 -0.46142653371E+01  0.83989483321E+01  0.00000000000E+00 0. -1.
</event>
<event>
 7    1  0.3851772E-009  0.4778728E+02  0.7816164E-02  0.1312668E+00
        -11   -1    0    0    0    0  0.00000000000E+00  0.00000000000E+00  0.45593999997E+02  0.45594000000E+02  0.51100000000E-03 0. -1.
         11   -1    0    0    0    0 -0.00000000000E+00 -0.00000000000E+00 -0.45593999997E+02  0.45594000000E+02  0.51100000000E-03 0.  1.
    9900012    2    1    2    0    0  0.18747048228E+02 -0.39128001063E+02  0.10818611145E+01  0.47787277564E+02  0.20000029727E+02 0.  0.
         12    1    1    2    0    0 -0.18747048228E+02  0.39128001063E+02 -0.10818611145E+01  0.43400722436E+02  0.00000000000E+00 0. -1.
         11    1    3    3    0    0  0.72471222786E+01 -0.28217462717E+02  0.77782490457E+01  0.30153725176E+02  0.51100000000E-03 0. -1.
        -11    1    3    3    0    0  0.70654144910E+01 -0.86648619172E+01 -0.57546671023E+01  0.12574422758E+02  0.51100000000E-03 0.  1.
         12    1    3    3    0    0  0.44345114584E+01 -0.22456764288E+01 -0.94172082892E+00  0.50591296304E+01  0.00000000000E+00 0. -1.
</event>
<event>
 7    1  0.3851772E-009  0.4778727E+02  0.7816164E-02  0.1312668E+00
        -11   -1    0    0    0    0  0.00000000000E+00  0.00000000000E+00  0.45593999997E+02  0.45594000000E+02  0.51100000000E-03 0.  1.
         11   -1    0    0    0    0 -0.00000000000E+00 -0.00000000000E+00 -0.45593999997E+02  0.45594000000E+02  0.51100000000E-03 0. -1.
    9900012    2    1    2    0    0 -0.18344212775E+02  0.82689657670E+01  0.38454358978E+02  0.47787266577E+02  0.19999979632E+02 0.  0.
         12    1    1    2    0    0  0.18344212775E+02 -0.82689657670E+01 -0.38454358978E+02  0.43400733423E+02  0.00000000000E+00 0. -1.
         11    1    3    3    0    0  0.14428865810E+01  0.58326090903E+00  0.82210449158E+01  0.83670601015E+01  0.51100000000E-03 0. -1.
        -11    1    3    3    0    0 -0.20205760808E+02  0.44843926169E+01  0.20362105095E+02  0.29034425621E+02  0.51100000000E-03 0.  1.
        -12    1    3    3    0    0  0.41866145220E+00  0.32013122410E+01  0.98712089675E+01  0.10385780854E+02  0.00000000000E+00 0.  1.
</event>
<event>
 7    1  0.3851772E-009  0.4778727E+02  0.7816164E-02  0.1312668E+00
        -11   -1    0    0    0    0  0.00000000000E+00  0.00000000000E+00  0.45593999997E+02  0.45594000000E+02  0.51100000000E-03 0.  1.
         11   -1    0    0    0    0 -0.00000000000E+00 -0.00000000000E+00 -0.45593999997E+02  0.45594000000E+02  0.51100000000E-03 0. -1.
    9900012    2    1    2    0    0  0.12769534235E+01 -0.41170537978E+02  0.13674044054E+02  0.47787270879E+02  0.19999999244E+02 0.  0.
         12    1    1    2    0    0 -0.12769534235E+01  0.41170537978E+02 -0.13674044054E+02  0.43400729121E+02  0.00000000000E+00 0. -1.
         11    1    3    3    0    0 -0.64915834078E+01 -0.10184335916E+02  0.35267707948E+01  0.12581711557E+02  0.51100000000E-03 0. -1.
        -11    1    3    3    0    0 -0.11287937390E+01 -0.13140086558E+02  0.72654798512E+01  0.15057332028E+02  0.51100000000E-03 0.  1.
         12    1    3    3    0    0  0.88973305702E+01 -0.17846115504E+02  0.28817934083E+01  0.20148227294E+02  0.00000000000E+00 0. -1.
</event>
<event>
 7    1  0.3851772E-009  0.4778728E+02  0.7816164E-02  0.1312668E+00
        -11   -1    0    0    0    0  0.00000000000E+00  0.00000000000E+00  0.45593999997E+02  0.45594000000E+02  0.51100000000E-03 0. -1.
         11   -1    0    0    0    0 -0.00000000000E+00 -0.00000000000E+00 -0.45593999997E+02  0.45594000000E+02  0.51100000000E-03 0.  1.
    9900012    2    1    2    0    0  0.24950429251E+02  0.67811079968E+00 -0.35505475520E+02  0.47787279431E+02  0.20000038236E+02 0.  0.
         12    1    1    2    0    0 -0.24950429251E+02 -0.67811079968E+00  0.35505475520E+02  0.43400720569E+02  0.00000000000E+00 0. -1.
         11    1    3    3    0    0 -0.15713358915E+01  0.34458893993E+00 -0.28486631620E+00  0.16337034923E+01  0.51100000000E-03 0. -1.
        -11    1    3    3    0    0  0.31944050461E+01 -0.36897099698E+01 -0.18061647100E+01  0.52038845568E+01  0.51100000000E-03 0.  1.
        -12    1    3    3    0    0  0.23327360097E+02  0.40232318296E+01 -0.33414444493E+02  0.40949691381E+02  0.00000000000E+00 0.  1.
</event>
<event>
 7    1  0.3851772E-009  0.4778725E+02  0.7816164E-02  0.1312668E+00
        -11   -1    0    0    0    0  0.00000000000E+00  0.00000000000E+00  0.45593999997E+02  0.45594000000E+02  0.51100000000E-03 0.  1.
         11   -1    0    0    0    0 -0.00000000000E+00 -0.00000000000E+00 -0.45593999997E+02  0.45594000000E+02  0.51100000000E-03 0. -1.
    9900012    2    1    2    0    0 -0.27407221784E+02  0.64100471547E+01  0.33036053868E+02  0.47787246946E+02  0.19999890126E+02 0.  0.
         12    1    1    2    0    0  0.27407221784E+02 -0.64100471547E+01 -0.33036053868E+02  0.43400753054E+02  0.00000000000E+00 0. -1.
         11    1    3    3    0    0 -0.46262618650E+01 -0.79301011176E+00  0.19611421620E+02  0.20165292512E+02  0.51100000000E-03 0. -1.
        -11    1    3    3    0    0 -0.19155295671E+02  0.47826480645E+01  0.11576910784E+02  0.22887200316E+02  0.51100000000E-03 0.  1.
         12    1    3    3    0    0 -0.36256642483E+01  0.24204092020E+01  0.18477214648E+01  0.47347541180E+01  0.00000000000E+00 0. -1.
</event>
<event>
 7    1  0.3851772E-009  0.4778725E+02  0.7816164E-02  0.1312668E+00
        -11   -1    0    0    0    0  0.00000000000E+00  0.00000000000E+00  0.45593999997E+02  0.45594000000E+02  0.51100000000E-03 0.  1.
         11   -1    0    0    0    0 -0.00000000000E+00 -0.00000000000E+00 -0.45593999997E+02  0.45594000000E+02  0.51100000000E-03 0. -1.
    9900012    2    1    2    0    0 -0.21803469004E+02  0.16611093765E+02  0.33649747036E+02  0.47787249174E+02  0.19999900284E+02 0.  0.
         12    1    1    2    0    0  0.21803469004E+02 -0.16611093765E+02 -0.33649747036E+02  0.43400750826E+02  0.00000000000E+00 0. -1.
         11    1    3    3    0    0 -0.68907382505E+01 -0.15907176586E+01  0.56747801029E+01  0.90672920866E+01  0.51100000000E-03 0. -1.
        -11    1    3    3    0    0  0.23000111342E+00  0.75975683346E+01  0.12413061604E+02  0.14555412868E+02  0.51100000000E-03 0.  1.
        -12    1    3    3    0    0 -0.15142731867E+02  0.10604243089E+02  0.15561905329E+02  0.24164544220E+02  0.00000000000E+00 0.  1.
</event>
<event>
 7    1  0.3851772E-009  0.4778726E+02  0.7816164E-02  0.1312668E+00
        -11   -1    0    0    0    0  0.00000000000E+00  0.00000000000E+00  0.45593999997E+02  0.45594000000E+02  0.51100000000E-03 0.  1.
         11   -1    0    0    0    0 -0.00000000000E+00 -0.00000000000E+00 -0.45593999997E+02  0.45594000000E+02  0.51100000000E-03 0. -1.
    9900012    2    1    2    0    0 -0.13748570921E+02 -0.19491778897E+02  0.36258394874E+02  0.47787264456E+02  0.19999969959E+02 0.  0.
         12    1    1    2    0    0  0.13748570921E+02  0.19491778897E+02 -0.36258394874E+02  0.43400735544E+02  0.00000000000E+00 0. -1.
         11    1    3    3    0    0 -0.74901734215E+01 -0.34906924921E+01  0.20562336091E+01  0.85156167642E+01  0.51100000000E-03 0. -1.
        -11    1    3    3    0    0 -0.69831155258E+01 -0.66699884869E+01  0.20714629461E+02  0.22854945259E+02  0.51100000000E-03 0.  1.
         12    1    3    3    0    0  0.72471802619E+00 -0.93310979178E+01  0.13487531804E+02  0.16416702432E+02  0.00000000000E+00 0. -1.
</event>
<event>
 7    1  0.3851772E-009  0.4778727E+02  0.7816164E-02  0.1312668E+00
        -11   -1    0    0    0    0  0.00000000000E+00  0.00000000000E+00  0.45593999997E+02  0.45594000000E+02  0.51100000000E-03 0.  1.
         11   -1    0    0    0    0 -0.00000000000E+00 -0.00000000000E+00 -0.45593999997E+02  0.45594000000E+02  0.51100000000E-03 0. -1.
    9900012    2    1    2    0    0 -0.13064458719E+02 -0.21902709186E+02  0.35117150241E+02  0.47787274288E+02  0.20000014788E+02 0.  0.
         12    1    1    2    0    0  0.13064458719E+02  0.21902709186E+02 -0.35117150241E+02  0.43400725712E+02  0.00000000000E+00 0. -1.
         11    1    3    3    0    0 -0.37601434305E+01  0.24108552979E+01  0.19191716815E+01  0.48614938126E+01  0.51100000000E-03 0. -1.
        -11    1    3    3    0    0 -0.88302419262E+01 -0.23553528858E+02  0.27952267367E+02  0.37604137344E+02  0.51100000000E-03 0.  1.
         12    1    3    3    0    0 -0.47407336216E+00 -0.76003562612E+00  0.52457111924E+01  0.53216431316E+01  0.00000000000E+00 0. -1.
</event>
<event>
 7    1  0.3851772E-009  0.4778728E+02  0.7816164E-02  0.1312668E+00
        -11   -1    0    0    0    0  0.00000000000E+00  0.00000000000E+00  0.45593999997E+02  0.45594000000E+02  0.51100000000E-03 0. -1.
         11   -1    0    0    0    0 -0.00000000000E+00 -0.00000000000E+00 -0.45593999997E+02  0.45594000000E+02  0.51100000000E-03 0.  1.
    9900012    2    1    2    0    0 -0.12084470767E+02 -0.38268643244E+02  0.16525697417E+02  0.47787283824E+02  0.20000058265E+02 0.  0.
         12    1    1    2    0    0  0.12084470767E+02  0.38268643244E+02 -0.16525697417E+02  0.43400716176E+02  0.00000000000E+00 0. -1.
         11    1    3    3    0    0 -0.60336344442E+01 -0.17408613054E+01  0.99737574393E+00  0.63584669007E+01  0.51100000000E-03 0. -1.
        -11    1    3    3    0    0 -0.62775171218E+01 -0.32577310061E+02  0.10039496495E+02  0.34662369252E+02  0.51100000000E-03 0.  1.
        -12    1    3    3    0    0  0.22668079921E+00 -0.39504718778E+01  0.54888251784E+01  0.67664476708E+01  0.00000000000E+00 0.  1.
</event>
<event>
 7    1  0.3851772E-009  0.4778727E+02  0.7816164E-02  0.1312668E+00
        -11   -1    0    0    0    0  0.00000000000E+00  0.00000000000E+00  0.45593999997E+02  0.45594000000E+02  0.51100000000E-03 0.  1.
         11   -1    0    0    0    0 -0.00000000000E+00 -0.00000000000E+00 -0.45593999997E+02  0.45594000000E+02  0.51100000000E-03 0. -1.
    9900012    2    1    2    0    0 -0.28681897991E+02 -0.19257482838E+02  0.26270154827E+02  0.47787274750E+02  0.20000016894E+02 0.  0.
         12    1    1    2    0    0  0.28681897991E+02  0.19257482838E+02 -0.26270154827E+02  0.43400725250E+02  0.00000000000E+00 0. -1.
         11    1    3    3    0    0 -0.10825166251E+02 -0.12958484099E+02  0.58592100384E+01  0.17872797124E+02  0.51100000000E-03 0. -1.
        -11    1    3    3    0    0 -0.19171365444E+02 -0.60821168016E+01  0.17297984969E+02  0.26528356188E+02  0.51100000000E-03 0.  1.
        -12    1    3    3    0    0  0.13146337047E+01 -0.21688193741E+00  0.31129598195E+01  0.33861214376E+01  0.00000000000E+00 0.  1.
</event>
<event>
 7    1  0.3851772E-009  0.4778727E+02  0.7816164E-02  0.1312668E+00
        -11   -1    0    0    0    0  0.00000000000E+00  0.00000000000E+00  0.45593999997E+02  0.45594000000E+02  0.51100000000E-03 0. -1.
         11   -1    0    0    0    0 -0.00000000000E+00 -0.00000000000E+00 -0.45593999997E+02  0.45594000000E+02  0.51100000000E-03 0.  1.
    9900012    2    1    2    0    0  0.30220489218E+02 -0.13428954152E+02 -0.28107094139E+02  0.47787268219E+02  0.19999987119E+02 0.  0.
         12    1    1    2    0    0 -0.30220489218E+02  0.13428954152E+02  0.28107094139E+02  0.43400731781E+02  0.00000000000E+00 0. -1.
         11    1    3    3    0    0  0.14290279710E+02 -0.45877021447E+00 -0.19680109426E+02  0.24325486050E+02  0.51100000000E-03 0.  1.
        -11    1    3    3    0    0  0.13838902040E+02 -0.10484045235E+02 -0.37417346907E+01  0.17760377049E+02  0.51100000000E-03 0. -1.
         12    1    3    3    0    0  0.20913074675E+01 -0.24861387025E+01 -0.46852500224E+01  0.57014051202E+01  0.00000000000E+00 0. -1.
</event>
<event>
 7    1  0.3851772E-009  0.4778727E+02  0.7816164E-02  0.1312668E+00
        -11   -1    0    0    0    0  0.00000000000E+00  0.00000000000E+00  0.45593999997E+02  0.45594000000E+02  0.51100000000E-03 0. -1.
         11   -1    0    0    0    0 -0.00000000000E+00 -0.00000000000E+00 -0.45593999997E+02  0.45594000000E+02  0.51100000000E-03 0.  1.
    9900012    2    1    2    0    0  0.13494182540E+02  0.10511865555E+02  0.39887730382E+02  0.47787270571E+02  0.19999997844E+02 0.  0.
         12    1    1    2    0    0 -0.13494182540E+02 -0.10511865555E+02 -0.39887730382E+02  0.43400729429E+02  0.00000000000E+00 0. -1.
         11    1    3    3    0    0  0.62018046626E+01 -0.19830994755E+01  0.24417614977E+02  0.25270832713E+02  0.51100000000E-03 0. -1.
        -11    1    3    3    0    0 -0.97846855938E+00  0.53056953446E+01  0.54075685795E+01  0.76386911192E+01  0.51100000000E-03 0.  1.
         12    1    3    3    0    0  0.82708464371E+01  0.71892696862E+01  0.10062546826E+02  0.14877746739E+02  0.00000000000E+00 0. -1.
</event>
<event>
 7    1  0.3851772E-009  0.4778727E+02  0.7816164E-02  0.1312668E+00
        -11   -1    0    0    0    0  0.00000000000E+00  0.00000000000E+00  0.45593999997E+02  0.45594000000E+02  0.51100000000E-03 0.  1.
         11   -1    0    0    0    0 -0.00000000000E+00 -0.00000000000E+00 -0.45593999997E+02  0.45594000000E+02  0.51100000000E-03 0. -1.
    9900012    2    1    2    0    0 -0.17798894779E+02 -0.10785268773E+01  0.39568418268E+02  0.47787267290E+02  0.19999982880E+02 0.  0.
         12    1    1    2    0    0  0.17798894779E+02  0.10785268773E+01 -0.39568418268E+02  0.43400732710E+02  0.00000000000E+00 0. -1.
         11    1    3    3    0    0 -0.26237752649E+01  0.64721634050E+00  0.18787840817E+01  0.32913394719E+01  0.51100000000E-03 0. -1.
        -11    1    3    3    0    0 -0.16758391276E+02  0.38795344305E+01  0.23215824498E+02  0.28894099275E+02  0.51100000000E-03 0.  1.
        -12    1    3    3    0    0  0.15832717615E+01 -0.56052776483E+01  0.14473809688E+02  0.15601828542E+02  0.00000000000E+00 0.  1.
</event>
<event>
 7    1  0.3851772E-009  0.4778727E+02  0.7816164E-02  0.1312668E+00
        -11   -1    0    0    0    0  0.00000000000E+00  0.00000000000E+00  0.45593999997E+02  0.45594000000E+02  0.51100000000E-03 0.  1.
         11   -1    0    0    0    0 -0.00000000000E+00 -0.00000000000E+00 -0.45593999997E+02  0.45594000000E+02  0.51100000000E-03 0. -1.
    9900012    2    1    2    0    0  0.81306267543E+01  0.15927134022E+02  0.39545448755E+02  0.47787271818E+02  0.20000003525E+02 0.  0.
         12    1    1    2    0    0 -0.81306267543E+01 -0.15927134022E+02 -0.39545448755E+02  0.43400728182E+02  0.00000000000E+00 0. -1.
         11    1    3    3    0    0  0.23482978057E+00 -0.13466029599E+01  0.10591041498E+02  0.10678887808E+02  0.51100000000E-03 0. -1.
        -11    1    3    3    0    0  0.95628297168E+00  0.16142390151E+02  0.19741596121E+02  0.25519048858E+02  0.51100000000E-03 0.  1.
        -12    1    3    3    0    0  0.69395140021E+01  0.11313468305E+01  0.92128111356E+01  0.11589335152E+02  0.00000000000E+00 0.  1.
</event>
<event>
 7    1  0.3851772E-009  0.4778725E+02  0.7816164E-02  0.1312668E+00
        -11   -1    0    0    0    0  0.00000000000E+00  0.00000000000E+00  0.45593999997E+02  0.45594000000E+02  0.51100000000E-03 0. -1.
         11   -1    0    0    0    0 -0.00000000000E+00 -0.00000000000E+00 -0.45593999997E+02  0.45594000000E+02  0.51100000000E-03 0.  1.
    9900012    2    1    2    0    0  0.27754217081E+02 -0.24276013436E+02 -0.22891129563E+02  0.47787248776E+02  0.19999898471E+02 0.  0.
         12    1    1    2    0    0 -0.27754217081E+02  0.24276013436E+02  0.22891129563E+02  0.43400751224E+02  0.00000000000E+00 0. -1.
         11    1    3    3    0    0  0.88116108422E+01 -0.16281652200E+02 -0.82780654303E+01  0.20279621582E+02  0.51100000000E-03 0. -1.
        -11    1    3    3    0    0  0.16985194641E+02 -0.61061327066E+01 -0.68901770186E+01  0.19319840404E+02  0.51100000000E-03 0.  1.
         12    1    3    3    0    0  0.19574115977E+01 -0.18882285291E+01 -0.77228871142E+01  0.81877867901E+01  0.00000000000E+00 0. -1.
</event>
<event>
 7    1  0.3851772E-009  0.4778728E+02  0.7816164E-02  0.1312668E+00
        -11   -1    0    0    0    0  0.00000000000E+00  0.00000000000E+00  0.45593999997E+02  0.45594000000E+02  0.51100000000E-03 0.  1.
         11   -1    0    0    0    0 -0.00000000000E+00 -0.00000000000E+00 -0.45593999997E+02  0.45594000000E+02  0.51100000000E-03 0. -1.
    9900012    2    1    2    0    0  0.35883576172E+02  0.12434790376E+02  0.21008752793E+02  0.47787277143E+02  0.20000027807E+02 0.  0.
         12    1    1    2    0    0 -0.35883576172E+02 -0.12434790376E+02 -0.21008752793E+02  0.43400722857E+02  0.00000000000E+00 0. -1.
         11    1    3    3    0    0  0.11760214338E+02  0.18458705466E+00  0.14537013918E+02  0.18699237620E+02  0.51100000000E-03 0. -1.
        -11    1    3    3    0    0  0.34958284459E+01  0.16625209723E+01  0.43226251405E+01  0.58025753655E+01  0.51100000000E-03 0.  1.
         12    1    3    3    0    0  0.20627533388E+02  0.10587682349E+02  0.21491137344E+01  0.23285464158E+02  0.00000000000E+00 0. -1.
</event>
<event>
 7    1  0.3851772E-009  0.4778727E+02  0.7816164E-02  0.1312668E+00
        -11   -1    0    0    0    0  0.00000000000E+00  0.00000000000E+00  0.45593999997E+02  0.45594000000E+02  0.51100000000E-03 0. -1.
         11   -1    0    0    0    0 -0.00000000000E+00 -0.00000000000E+00 -0.45593999997E+02  0.45594000000E+02  0.51100000000E-03 0.  1.
    9900012    2    1    2    0    0  0.14122893274E+02 -0.20757561536E+02 -0.35401846496E+02  0.47787271773E+02  0.20000003322E+02 0.  0.
         12    1    1    2    0    0 -0.14122893274E+02  0.20757561536E+02  0.35401846496E+02  0.43400728227E+02  0.00000000000E+00 0. -1.
         11    1    3    3    0    0 -0.16827700122E+01 -0.36661319217E+01 -0.37890071054E+01  0.55343304281E+01  0.51100000000E-03 0. -1.
        -11    1    3    3    0    0  0.12095764456E+02 -0.82219724099E+01 -0.28692523897E+02  0.32205112574E+02  0.51100000000E-03 0.  1.
        -12    1    3    3    0    0  0.37098988298E+01 -0.88694572041E+01 -0.29203154934E+01  0.10047828771E+02  0.00000000000E+00 0.  1.
</event>
<event>
 7    1  0.3851772E-009  0.4778727E+02  0.7816164E-02  0.1312668E+00
        -11   -1    0    0    0    0  0.00000000000E+00  0.00000000000E+00  0.45593999997E+02  0.45594000000E+02  0.51100000000E-03 0.  1.
         11   -1    0    0    0    0 -0.00000000000E+00 -0.00000000000E+00 -0.45593999997E+02  0.45594000000E+02  0.51100000000E-03 0. -1.
    9900012    2    1    2    0    0  0.14454746119E+02  0.36484743822E+02  0.18535027735E+02  0.47787268782E+02  0.19999989684E+02 0.  0.
         12    1    1    2    0    0 -0.14454746119E+02 -0.36484743822E+02 -0.18535027735E+02  0.43400731218E+02  0.00000000000E+00 0. -1.
         11    1    3    3    0    0 -0.62233977912E+00 -0.13220452177E+01 -0.68829795080E+00  0.16151980339E+01  0.51100000000E-03 0. -1.
        -11    1    3    3    0    0  0.69329243635E+01  0.60800531903E+01  0.39811184981E+01  0.10043992821E+02  0.51100000000E-03 0.  1.
         12    1    3    3    0    0  0.81441615348E+01  0.31726735850E+02  0.15242207187E+02  0.36128077927E+02  0.00000000000E+00 0. -1.
</event>
<event>
 7    1  0.3851772E-009  0.4778727E+02  0.7816164E-02  0.1312668E+00
        -11   -1    0    0    0    0  0.00000000000E+00  0.00000000000E+00  0.45593999997E+02  0.45594000000E+02  0.51100000000E-03 0. -1.
         11   -1    0    0    0    0 -0.00000000000E+00 -0.00000000000E+00 -0.45593999997E+02  0.45594000000E+02  0.51100000000E-03 0.  1.
    9900012    2    1    2    0    0  0.21927276011E+02  0.33503150855E+02  0.16743850744E+02  0.47787273184E+02  0.20000009754E+02 0.  0.
         12    1    1    2    0    0 -0.21927276011E+02 -0.33503150855E+02 -0.16743850744E+02  0.43400726816E+02  0.00000000000E+00 0. -1.
         11    1    3    3    0    0  0.15376816326E+02  0.11853710286E+02  0.74323064048E+01  0.20789326748E+02  0.51100000000E-03 0. -1.
        -11    1    3    3    0    0 -0.29618043397E+01  0.69888310072E+01  0.46842694038E+01  0.89195528981E+01  0.51100000000E-03 0.  1.
        -12    1    3    3    0    0  0.95122640241E+01  0.14660609561E+02  0.46272749359E+01  0.18078393538E+02  0.00000000000E+00 0.  1.
</event>
<event>
 7    1  0.3851772E-009  0.4778727E+02  0.7816164E-02  0.1312668E+00
        -11   -1    0    0    0    0  0.00000000000E+00  0.00000000000E+00  0.45593999997E+02  0.45594000000E+02  0.51100000000E-03 0.  1.
         11   -1    0    0    0    0 -0.00000000000E+00 -0.00000000000E+00 -0.45593999997E+02  0.45594000000E+02  0.51100000000E-03 0. -1.
    9900012    2    1    2    0    0  0.42836299899E+02 -0.64976194223E+01  0.25408236781E+01  0.47787269221E+02  0.19999991684E+02 0.  0.
         12    1    1    2    0    0 -0.42836299899E+02  0.64976194223E+01 -0.25408236781E+01  0.43400730779E+02  0.00000000000E+00 0. -1.
         11    1    3    3    0    0  0.36510274272E+02 -0.12318955915E+02  0.19259964468E+01  0.38580646247E+02  0.51100000000E-03 0. -1.
        -11    1    3    3    0    0  0.46626445084E+01  0.36496613771E+01  0.18524364845E+01  0.62041762684E+01  0.51100000000E-03 0.  1.
         12    1    3    3    0    0  0.16633811187E+01  0.21716751154E+01 -0.12376092532E+01  0.30024467050E+01  0.00000000000E+00 0. -1.
</event>
<event>
 7    1  0.3851772E-009  0.4778727E+02  0.7816164E-02  0.1312668E+00
        -11   -1    0    0    0    0  0.00000000000E+00  0.00000000000E+00  0.45593999997E+02  0.45594000000E+02  0.51100000000E-03 0.  1.
         11   -1    0    0    0    0 -0.00000000000E+00 -0.00000000000E+00 -0.45593999997E+02  0.45594000000E+02  0.51100000000E-03 0. -1.
    9900012    2    1    2    0    0  0.33676292941E+02 -0.86085529942E+01  0.25988903911E+02  0.47787273999E+02  0.20000013473E+02 0.  0.
         12    1    1    2    0    0 -0.33676292941E+02  0.86085529942E+01 -0.25988903911E+02  0.43400726001E+02  0.00000000000E+00 0. -1.
         11    1    3    3    0    0  0.88694597813E+00 -0.28299651764E+01  0.83437563723E+01  0.88551480354E+01  0.51100000000E-03 0. -1.
        -11    1    3    3    0    0  0.25938263524E+02 -0.83736214949E+01  0.15203380512E+02  0.31209835482E+02  0.51100000000E-03 0.  1.
         12    1    3    3    0    0  0.68510834392E+01  0.25950336770E+01  0.24417670262E+01  0.77222904818E+01  0.00000000000E+00 0. -1.
</event>
<event>
 7    1  0.3851772E-009  0.4778727E+02  0.7816164E-02  0.1312668E+00
        -11   -1    0    0    0    0  0.00000000000E+00  0.00000000000E+00  0.45593999997E+02  0.45594000000E+02  0.51100000000E-03 0. -1.
         11   -1    0    0    0    0 -0.00000000000E+00 -0.00000000000E+00 -0.45593999997E+02  0.45594000000E+02  0.51100000000E-03 0.  1.
    9900012    2    1    2    0    0 -0.77486747722E+01 -0.29708505805E+02 -0.30675495153E+02  0.47787270965E+02  0.19999999638E+02 0.  0.
         12    1    1    2    0    0  0.77486747722E+01  0.29708505805E+02  0.30675495153E+02  0.43400729035E+02  0.00000000000E+00 0. -1.
         11    1    3    3    0    0 -0.41307450149E+00  0.75292062360E-01 -0.28525695004E+00  0.50761326529E+00  0.51100000000E-03 0. -1.
        -11    1    3    3    0    0  0.58012260991E+01 -0.13182656371E+02 -0.16773150298E+02  0.22108261452E+02  0.51100000000E-03 0.  1.
        -12    1    3    3    0    0 -0.13136826370E+02 -0.16601141497E+02 -0.13617087905E+02  0.25171396248E+02  0.00000000000E+00 0.  1.
</event>
<event>
 7    1  0.3851772E-009  0.4778727E+02  0.7816164E-02  0.1312668E+00
        -11   -1    0    0    0    0  0.00000000000E+00  0.00000000000E+00  0.45593999997E+02  0.45594000000E+02  0.51100000000E-03 0.  1.
         11   -1    0    0    0    0 -0.00000000000E+00 -0.00000000000E+00 -0.45593999997E+02  0.45594000000E+02  0.51100000000E-03 0. -1.
    9900012    2    1    2    0    0 -0.15717963690E+02 -0.15358511301E+02  0.37425726950E+02  0.47787270863E+02  0.19999999171E+02 0.  0.
         12    1    1    2    0    0  0.15717963690E+02  0.15358511301E+02 -0.37425726950E+02  0.43400729137E+02  0.00000000000E+00 0. -1.
         11    1    3    3    0    0 -0.14104983628E+02 -0.76210455069E+01  0.33464816539E+02  0.37106937950E+02  0.51100000000E-03 0. -1.
        -11    1    3    3    0    0 -0.29563564922E+01 -0.79394538193E+01  0.28929391824E+01  0.89523219352E+01  0.51100000000E-03 0.  1.
        -12    1    3    3    0    0  0.13433764298E+01  0.20198802525E+00  0.10679712286E+01  0.17280109778E+01  0.00000000000E+00 0.  1.
</event>
<event>
 7    1  0.3851772E-009  0.4778727E+02  0.7816164E-02  0.1312668E+00
        -11   -1    0    0    0    0  0.00000000000E+00  0.00000000000E+00  0.45593999997E+02  0.45594000000E+02  0.51100000000E-03 0.  1.
         11   -1    0    0    0    0 -0.00000000000E+00 -0.00000000000E+00 -0.45593999997E+02  0.45594000000E+02  0.51100000000E-03 0. -1.
    9900012    2    1    2    0    0  0.12739753733E+01  0.16084263838E+01  0.43352199783E+02  0.47787271035E+02  0.19999999958E+02 0.  0.
         12    1    1    2    0    0 -0.12739753733E+01 -0.16084263838E+01 -0.43352199783E+02  0.43400728965E+02  0.00000000000E+00 0. -1.
         11    1    3    3    0    0  0.74903645075E+01 -0.39198561774E+01  0.11943180284E+02  0.14632511352E+02  0.51100000000E-03 0. -1.
        -11    1    3    3    0    0 -0.63251332952E+01  0.19633219026E+01  0.15585777679E+02  0.16934533067E+02  0.51100000000E-03 0.  1.
         12    1    3    3    0    0  0.10874416100E+00  0.35649606585E+01  0.15823241820E+02  0.16220226616E+02  0.00000000000E+00 0. -1.
</event>
<event>
 7    1  0.3851772E-009  0.4778728E+02  0.7816164E-02  0.1312668E+00
        -11   -1    0    0    0    0  0.00000000000E+00  0.00000000000E+00  0.45593999997E+02  0.45594000000E+02  0.51100000000E-03 0. -1.
         11   -1    0    0    0    0 -0.00000000000E+00 -0.00000000000E+00 -0.45593999997E+02  0.45594000000E+02  0.51100000000E-03 0.  1.
    9900012    2    1    2    0    0 -0.20177106877E+02  0.34224873959E+02 -0.17468978494E+02  0.47787275938E+02  0.20000022312E+02 0.  0.
         12    1    1    2    0    0  0.20177106877E+02 -0.34224873959E+02  0.17468978494E+02  0.43400724062E+02  0.00000000000E+00 0. -1.
         11    1    3    3    0    0 -0.61394005109E+00  0.16395377740E+02 -0.46702516976E+01  0.17058622008E+02  0.51100000000E-03 0. -1.
        -11    1    3    3    0    0 -0.50284979879E+01  0.84918025427E+01 -0.12488199529E+01  0.99476657551E+01  0.51100000000E-03 0.  1.
         12    1    3    3    0    0 -0.14534668838E+02  0.93376936763E+01 -0.11549906844E+02  0.20780988175E+02  0.00000000000E+00 0. -1.
</event>
<event>
 7    1  0.3851772E-009  0.4778727E+02  0.7816164E-02  0.1312668E+00
        -11   -1    0    0    0    0  0.00000000000E+00  0.00000000000E+00  0.45593999997E+02  0.45594000000E+02  0.51100000000E-03 0.  1.
         11   -1    0    0    0    0 -0.00000000000E+00 -0.00000000000E+00 -0.45593999997E+02  0.45594000000E+02  0.51100000000E-03 0. -1.
    9900012    2    1    2    0    0  0.28778828757E+02  0.14359951340E+02  0.29140937759E+02  0.47787269123E+02  0.19999991241E+02 0.  0.
         12    1    1    2    0    0 -0.28778828757E+02 -0.14359951340E+02 -0.29140937759E+02  0.43400730877E+02  0.00000000000E+00 0. -1.
         11    1    3    3    0    0  0.46704315860E+01  0.23014083498E+01 -0.13427641456E+01  0.53770277481E+01  0.51100000000E-03 0. -1.
        -11    1    3    3    0    0  0.16215944198E+02  0.13702704004E+02  0.24171931108E+02  0.32171465571E+02  0.51100000000E-03 0.  1.
         12    1    3    3    0    0  0.78924529735E+01 -0.16441610131E+01  0.63117707964E+01  0.10238775804E+02  0.00000000000E+00 0. -1.
</event>
<event>
 7    1  0.3851772E-009  0.4778727E+02  0.7816164E-02  0.1312668E+00
        -11   -1    0    0    0    0  0.00000000000E+00  0.00000000000E+00  0.45593999997E+02  0.45594000000E+02  0.51100000000E-03 0. -1.
         11   -1    0    0    0    0 -0.00000000000E+00 -0.00000000000E+00 -0.45593999997E+02  0.45594000000E+02  0.51100000000E-03 0.  1.
    9900012    2    1    2    0    0  0.12203718101E+02  0.19818426828E+01 -0.41602458259E+02  0.47787274556E+02  0.20000016011E+02 0.  0.
         12    1    1    2    0    0 -0.12203718101E+02 -0.19818426828E+01  0.41602458259E+02  0.43400725444E+02  0.00000000000E+00 0. -1.
         11    1    3    3    0    0  0.48393860483E+01 -0.15936366332E+01 -0.56505520901E+01  0.76084212704E+01  0.51100000000E-03 0. -1.
        -11    1    3    3    0    0 -0.27877764068E+00  0.46688645108E-01  0.16357582732E+01  0.16600006603E+01  0.51100000000E-03 0.  1.
        -12    1    3    3    0    0  0.76431096930E+01  0.35287906709E+01 -0.37587664442E+02  0.38518852625E+02  0.00000000000E+00 0.  1.
</event>
<event>
 7    1  0.3851772E-009  0.4778727E+02  0.7816164E-02  0.1312668E+00
        -11   -1    0    0    0    0  0.00000000000E+00  0.00000000000E+00  0.45593999997E+02  0.45594000000E+02  0.51100000000E-03 0.  1.
         11   -1    0    0    0    0 -0.00000000000E+00 -0.00000000000E+00 -0.45593999997E+02  0.45594000000E+02  0.51100000000E-03 0. -1.
    9900012    2    1    2    0    0  0.26045294181E+02  0.31872890973E+02  0.13761710929E+02  0.47787271716E+02  0.20000003060E+02 0.  0.
         12    1    1    2    0    0 -0.26045294181E+02 -0.31872890973E+02 -0.13761710929E+02  0.43400728284E+02  0.00000000000E+00 0. -1.
         11    1    3    3    0    0  0.98145416471E+01  0.11518908341E+01  0.25917565909E+01  0.10216128558E+02  0.51100000000E-03 0. -1.
        -11    1    3    3    0    0 -0.23976952712E+00  0.38866964161E+01  0.33303993755E+01  0.51240080717E+01  0.51100000000E-03 0.  1.
         12    1    3    3    0    0  0.16470522061E+02  0.26834303723E+02  0.78395549622E+01  0.32447135085E+02  0.00000000000E+00 0. -1.
</event>
<event>
 7    1  0.3851772E-009  0.4778723E+02  0.7816164E-02  0.1312668E+00
        -11   -1    0    0    0    0  0.00000000000E+00  0.00000000000E+00  0.45593999997E+02  0.45594000000E+02  0.51100000000E-03 0. -1.
         11   -1    0    0    0    0 -0.00000000000E+00 -0.00000000000E+00 -0.45593999997E+02  0.45594000000E+02  0.51100000000E-03 0.  1.
    9900012    2    1    2    0    0 -0.11670430292E+02 -0.41494501572E+02  0.50630007625E+01  0.47787232949E+02  0.19999826305E+02 0.  0.
         12    1    1    2    0    0  0.11670430292E+02  0.41494501572E+02 -0.50630007625E+01  0.43400767051E+02  0.00000000000E+00 0. -1.
         11    1    3    3    0    0 -0.11497498010E+02 -0.37398457383E+02  0.63133876672E+01  0.39632006500E+02  0.51100000000E-03 0. -1.
        -11    1    3    3    0    0 -0.72318307777E+00 -0.18304273144E+01 -0.40554211249E+01  0.45077598293E+01  0.51100000000E-03 0.  1.
         12    1    3    3    0    0  0.55025079607E+00 -0.22656168746E+01  0.28050342202E+01  0.36474666191E+01  0.00000000000E+00 0. -1.
</event>
<event>
 7    1  0.3851772E-009  0.4778727E+02  0.7816164E-02  0.1312668E+00
        -11   -1    0    0    0    0  0.00000000000E+00  0.00000000000E+00  0.45593999997E+02  0.45594000000E+02  0.51100000000E-03 0.  1.
         11   -1    0    0    0    0 -0.00000000000E+00 -0.00000000000E+00 -0.45593999997E+02  0.45594000000E+02  0.51100000000E-03 0. -1.
    9900012    2    1    2    0    0  0.30480677047E+02 -0.13436773454E+02  0.27820939064E+02  0.47787271844E+02  0.20000003644E+02 0.  0.
         12    1    1    2    0    0 -0.30480677047E+02  0.13436773454E+02 -0.27820939064E+02  0.43400728156E+02  0.00000000000E+00 0. -1.
         11    1    3    3    0    0  0.49145599688E+00 -0.13061291246E+01  0.15674851948E+01  0.20986930180E+01  0.51100000000E-03 0. -1.
        -11    1    3    3    0    0  0.11898234247E+02 -0.11398858766E+02  0.21277280991E+02  0.26911422222E+02  0.51100000000E-03 0.  1.
        -12    1    3    3    0    0  0.18090986803E+02 -0.73178556372E+00  0.49761728778E+01  0.18777156604E+02  0.00000000000E+00 0.  1.
</event>
<event>
 7    1  0.3851772E-009  0.4778724E+02  0.7816164E-02  0.1312668E+00
        -11   -1    0    0    0    0  0.00000000000E+00  0.00000000000E+00  0.45593999997E+02  0.45594000000E+02  0.51100000000E-03 0.  1.
         11   -1    0    0    0    0 -0.00000000000E+00 -0.00000000000E+00 -0.45593999997E+02  0.45594000000E+02  0.51100000000E-03 0. -1.
    9900012    2    1    2    0    0 -0.40861430995E+01 -0.42758611260E+02  0.62153492805E+01  0.47787239995E+02  0.19999858435E+02 0.  0.
         12    1    1    2    0    0  0.40861430995E+01  0.42758611260E+02 -0.62153492805E+01  0.43400760005E+02  0.00000000000E+00 0. -1.
         11    1    3    3    0    0 -0.18558306594E+01 -0.21023857955E+01 -0.81436629534E+00  0.29201585905E+01  0.51100000000E-03 0. -1.
        -11    1    3    3    0    0 -0.16918482570E+01  0.13255555802E+01  0.12487496682E+01  0.24857240627E+01  0.51100000000E-03 0.  1.
        -12    1    3    3    0    0 -0.53846418303E+00 -0.41981781045E+02  0.57809659076E+01  0.42381357342E+02  0.00000000000E+00 0.  1.
</event>
<event>
 7    1  0.3851772E-009  0.4778727E+02  0.7816164E-02  0.1312668E+00
        -11   -1    0    0    0    0  0.00000000000E+00  0.00000000000E+00  0.45593999997E+02  0.45594000000E+02  0.51100000000E-03 0. -1.
         11   -1    0    0    0    0 -0.00000000000E+00 -0.00000000000E+00 -0.45593999997E+02  0.45594000000E+02  0.51100000000E-03 0.  1.
    9900012    2    1    2    0    0  0.28635884298E+02  0.19184902711E+02 -0.26373262925E+02  0.47787270065E+02  0.19999995537E+02 0.  0.
         12    1    1    2    0    0 -0.28635884298E+02 -0.19184902711E+02  0.26373262925E+02  0.43400729935E+02  0.00000000000E+00 0. -1.
         11    1    3    3    0    0  0.82846246559E+01  0.10287312181E+02 -0.66708358841E+01  0.14797427116E+02  0.51100000000E-03 0. -1.
        -11    1    3    3    0    0  0.63896914232E+01 -0.10123989767E+01  0.52330869995E+00  0.64905285168E+01  0.51100000000E-03 0.  1.
        -12    1    3    3    0    0  0.13961568219E+02  0.99099895063E+01 -0.20225735740E+02  0.26499314432E+02  0.00000000000E+00 0.  1.
</event>
<event>
 7    1  0.3851772E-009  0.4778727E+02  0.7816164E-02  0.1312668E+00
        -11   -1    0    0    0    0  0.00000000000E+00  0.00000000000E+00  0.45593999997E+02  0.45594000000E+02  0.51100000000E-03 0.  1.
         11   -1    0    0    0    0 -0.00000000000E+00 -0.00000000000E+00 -0.45593999997E+02  0.45594000000E+02  0.51100000000E-03 0. -1.
    9900012    2    1    2    0    0 -0.37651402706E+02  0.20980174684E+02 -0.50821128288E+01  0.47787265832E+02  0.19999976236E+02 0.  0.
         12    1    1    2    0    0  0.37651402706E+02 -0.20980174684E+02  0.50821128288E+01  0.43400734168E+02  0.00000000000E+00 0. -1.
         11    1    3    3    0    0 -0.25469502553E+01 -0.41200417803E+00 -0.95926630936E+00  0.27526160573E+01  0.51100000000E-03 0. -1.
        -11    1    3    3    0    0 -0.29167778212E+02  0.23522856796E+02  0.51206252890E-01  0.37471144899E+02  0.51100000000E-03 0.  1.
        -12    1    3    3    0    0 -0.59366742381E+01 -0.21306779337E+01 -0.41740527723E+01  0.75635048762E+01  0.00000000000E+00 0.  1.
</event>
<event>
 7    1  0.3851772E-009  0.4778727E+02  0.7816164E-02  0.1312668E+00
        -11   -1    0    0    0    0  0.00000000000E+00  0.00000000000E+00  0.45593999997E+02  0.45594000000E+02  0.51100000000E-03 0. -1.
         11   -1    0    0    0    0 -0.00000000000E+00 -0.00000000000E+00 -0.45593999997E+02  0.45594000000E+02  0.51100000000E-03 0.  1.
    9900012    2    1    2    0    0  0.41355571961E+02  0.10296759015E+02  0.82046748921E+01  0.47787271106E+02  0.20000000280E+02 0.  0.
         12    1    1    2    0    0 -0.41355571961E+02 -0.10296759015E+02 -0.82046748921E+01  0.43400728894E+02  0.00000000000E+00 0. -1.
         11    1    3    3    0    0  0.11770612953E+02 -0.97746598850E+00  0.87231294888E+01  0.14683179403E+02  0.51100000000E-03 0. -1.
        -11    1    3    3    0    0  0.28806610585E+02  0.11779497485E+02  0.12065172644E+01  0.31145353724E+02  0.51100000000E-03 0.  1.
        -12    1    3    3    0    0  0.77834842312E+00 -0.50527248154E+00 -0.17249718611E+01  0.19587379789E+01  0.00000000000E+00 0.  1.
</event>
<event>
 7    1  0.3851772E-009  0.4778727E+02  0.7816164E-02  0.1312668E+00
        -11   -1    0    0    0    0  0.00000000000E+00  0.00000000000E+00  0.45593999997E+02  0.45594000000E+02  0.51100000000E-03 0.  1.
         11   -1    0    0    0    0 -0.00000000000E+00 -0.00000000000E+00 -0.45593999997E+02  0.45594000000E+02  0.51100000000E-03 0. -1.
    9900012    2    1    2    0    0  0.35419527461E+02  0.82464189369E+01  0.23687065749E+02  0.47787269192E+02  0.19999991556E+02 0.  0.
         12    1    1    2    0    0 -0.35419527461E+02 -0.82464189369E+01 -0.23687065749E+02  0.43400730808E+02  0.00000000000E+00 0. -1.
         11    1    3    3    0    0  0.41359070662E+01 -0.42487759218E+01  0.20153039286E+01  0.62625293835E+01  0.51100000000E-03 0. -1.
        -11    1    3    3    0    0  0.28581892692E+02  0.94158228163E+01  0.22198295342E+02  0.37394473194E+02  0.51100000000E-03 0.  1.
        -12    1    3    3    0    0  0.27017277031E+01  0.30793720423E+01 -0.52653352137E+00  0.41302666143E+01  0.00000000000E+00 0.  1.
</event>
<event>
 7    1  0.3851772E-009  0.4778727E+02  0.7816164E-02  0.1312668E+00
        -11   -1    0    0    0    0  0.00000000000E+00  0.00000000000E+00  0.45593999997E+02  0.45594000000E+02  0.51100000000E-03 0. -1.
         11   -1    0    0    0    0 -0.00000000000E+00 -0.00000000000E+00 -0.45593999997E+02  0.45594000000E+02  0.51100000000E-03 0.  1.
    9900012    2    1    2    0    0  0.84938000462E+01  0.33268716667E+02 -0.26545639745E+02  0.47787272618E+02  0.20000007172E+02 0.  0.
         12    1    1    2    0    0 -0.84938000462E+01 -0.33268716667E+02  0.26545639745E+02  0.43400727382E+02  0.00000000000E+00 0. -1.
         11    1    3    3    0    0 -0.20554325667E+01 -0.40940794361E+00 -0.62101373206E+01  0.65542523374E+01  0.51100000000E-03 0. -1.
        -11    1    3    3    0    0  0.44291855729E+01  0.24089907758E+02 -0.13743641976E+02  0.28086100400E+02  0.51100000000E-03 0.  1.
         12    1    3    3    0    0  0.61200470400E+01  0.95882168519E+01 -0.65918604480E+01  0.13146919880E+02  0.00000000000E+00 0. -1.
</event>
<event>
 7    1  0.3851772E-009  0.4778727E+02  0.7816164E-02  0.1312668E+00
        -11   -1    0    0    0    0  0.00000000000E+00  0.00000000000E+00  0.45593999997E+02  0.45594000000E+02  0.51100000000E-03 0.  1.
         11   -1    0    0    0    0 -0.00000000000E+00 -0.00000000000E+00 -0.45593999997E+02  0.45594000000E+02  0.51100000000E-03 0. -1.
    9900012    2    1    2    0    0 -0.75974074949E+01  0.19904904862E+01  0.42684199474E+02  0.47787268005E+02  0.19999986141E+02 0.  0.
         12    1    1    2    0    0  0.75974074949E+01 -0.19904904862E+01 -0.42684199474E+02  0.43400731995E+02  0.00000000000E+00 0. -1.
         11    1    3    3    0    0 -0.11289519279E+02  0.50757808924E+01  0.23058204835E+02  0.26170548479E+02  0.51100000000E-03 0. -1.
        -11    1    3    3    0    0  0.18629915666E+01  0.22670118234E+01  0.10297261507E+02  0.10707178666E+02  0.51100000000E-03 0.  1.
         12    1    3    3    0    0  0.18291202176E+01 -0.53523022296E+01  0.93287331320E+01  0.10909540860E+02  0.00000000000E+00 0. -1.
</event>
<event>
 7    1  0.3851772E-009  0.4778727E+02  0.7816164E-02  0.1312668E+00
        -11   -1    0    0    0    0  0.00000000000E+00  0.00000000000E+00  0.45593999997E+02  0.45594000000E+02  0.51100000000E-03 0.  1.
         11   -1    0    0    0    0 -0.00000000000E+00 -0.00000000000E+00 -0.45593999997E+02  0.45594000000E+02  0.51100000000E-03 0. -1.
    9900012    2    1    2    0    0  0.89919210627E+01  0.19446145156E+02  0.37744084599E+02  0.47787272724E+02  0.20000007660E+02 0.  0.
         12    1    1    2    0    0 -0.89919210627E+01 -0.19446145156E+02 -0.37744084599E+02  0.43400727276E+02  0.00000000000E+00 0. -1.
         11    1    3    3    0    0 -0.63825649901E-01  0.33978879048E+01 -0.95898151347E+00  0.35311983421E+01  0.51100000000E-03 0. -1.
        -11    1    3    3    0    0 -0.24715753305E+01  0.17877617448E+01  0.69242715766E+01  0.75663937116E+01  0.51100000000E-03 0.  1.
         12    1    3    3    0    0  0.11527322043E+02  0.14260495506E+02  0.31778794536E+02  0.36689680671E+02  0.00000000000E+00 0. -1.
</event>
<event>
 7    1  0.3851772E-009  0.4778727E+02  0.7816164E-02  0.1312668E+00
        -11   -1    0    0    0    0  0.00000000000E+00  0.00000000000E+00  0.45593999997E+02  0.45594000000E+02  0.51100000000E-03 0. -1.
         11   -1    0    0    0    0 -0.00000000000E+00 -0.00000000000E+00 -0.45593999997E+02  0.45594000000E+02  0.51100000000E-03 0.  1.
    9900012    2    1    2    0    0 -0.25457517691E+02 -0.67129602335E+01 -0.34503244797E+02  0.47787274849E+02  0.20000017349E+02 0.  0.
         12    1    1    2    0    0  0.25457517691E+02  0.67129602335E+01  0.34503244797E+02  0.43400725151E+02  0.00000000000E+00 0. -1.
         11    1    3    3    0    0 -0.23206741423E+01 -0.20027485876E+01 -0.15749008946E+02  0.16044557127E+02  0.51100000000E-03 0. -1.
        -11    1    3    3    0    0 -0.20115914251E+02 -0.73997743627E+01 -0.14531501892E+02  0.25895389826E+02  0.51100000000E-03 0.  1.
        -12    1    3    3    0    0 -0.30209292980E+01  0.26895627167E+01 -0.42227339590E+01  0.58473278957E+01  0.00000000000E+00 0.  1.
</event>
<event>
 7    1  0.3851772E-009  0.4778727E+02  0.7816164E-02  0.1312668E+00
        -11   -1    0    0    0    0  0.00000000000E+00  0.00000000000E+00  0.45593999997E+02  0.45594000000E+02  0.51100000000E-03 0.  1.
         11   -1    0    0    0    0 -0.00000000000E+00 -0.00000000000E+00 -0.45593999997E+02  0.45594000000E+02  0.51100000000E-03 0. -1.
    9900012    2    1    2    0    0  0.27985308695E+02  0.48610287442E+01  0.32814878449E+02  0.47787270158E+02  0.19999995956E+02 0.  0.
         12    1    1    2    0    0 -0.27985308695E+02 -0.48610287442E+01 -0.32814878449E+02  0.43400729842E+02  0.00000000000E+00 0. -1.
         11    1    3    3    0    0  0.13420174027E+02  0.60952740137E+01  0.58981628004E+01  0.15875823157E+02  0.51100000000E-03 0. -1.
        -11    1    3    3    0    0  0.29270703206E+01 -0.41972733002E+01  0.74397510073E+01  0.90296588601E+01  0.51100000000E-03 0.  1.
         12    1    3    3    0    0  0.11638064347E+02  0.29630280307E+01  0.19476964642E+02  0.22881788141E+02  0.00000000000E+00 0. -1.
</event>
<event>
 7    1  0.3851772E-009  0.4778727E+02  0.7816164E-02  0.1312668E+00
        -11   -1    0    0    0    0  0.00000000000E+00  0.00000000000E+00  0.45593999997E+02  0.45594000000E+02  0.51100000000E-03 0. -1.
         11   -1    0    0    0    0 -0.00000000000E+00 -0.00000000000E+00 -0.45593999997E+02  0.45594000000E+02  0.51100000000E-03 0.  1.
    9900012    2    1    2    0    0 -0.17896021215E+02 -0.31994661874E+02 -0.23231382057E+02  0.47787273324E+02  0.20000010392E+02 0.  0.
         12    1    1    2    0    0  0.17896021215E+02  0.31994661874E+02  0.23231382057E+02  0.43400726676E+02  0.00000000000E+00 0. -1.
         11    1    3    3    0    0 -0.23846193577E+00 -0.21784083493E+01 -0.10081471800E+02  0.10316898805E+02  0.51100000000E-03 0. -1.
        -11    1    3    3    0    0 -0.14808072687E+02 -0.20126396517E+02 -0.93716441137E+01  0.26686673962E+02  0.51100000000E-03 0.  1.
         12    1    3    3    0    0 -0.28494865924E+01 -0.96898570070E+01 -0.37782661428E+01  0.10783700557E+02  0.00000000000E+00 0. -1.
</event>
<event>
 7    1  0.3851772E-009  0.4778727E+02  0.7816164E-02  0.1312668E+00
        -11   -1    0    0    0    0  0.00000000000E+00  0.00000000000E+00  0.45593999997E+02  0.45594000000E+02  0.51100000000E-03 0.  1.
         11   -1    0    0    0    0 -0.00000000000E+00 -0.00000000000E+00 -0.45593999997E+02  0.45594000000E+02  0.51100000000E-03 0. -1.
    9900012    2    1    2    0    0 -0.39094831435E+02  0.67889863649E+01  0.17582012402E+02  0.47787270272E+02  0.19999996478E+02 0.  0.
         12    1    1    2    0    0  0.39094831435E+02 -0.67889863649E+01 -0.17582012402E+02  0.43400729728E+02  0.00000000000E+00 0. -1.
         11    1    3    3    0    0 -0.76243510507E+01 -0.23832371745E+01  0.88713627662E+01  0.11937823334E+02  0.51100000000E-03 0. -1.
        -11    1    3    3    0    0 -0.25363441845E+02  0.42048739068E+01  0.25163747474E+01  0.25832485148E+02  0.51100000000E-03 0.  1.
        -12    1    3    3    0    0 -0.61070385394E+01  0.49673496326E+01  0.61942748885E+01  0.10016961789E+02  0.00000000000E+00 0.  1.
</event>
<event>
 7    1  0.3851772E-009  0.4778727E+02  0.7816164E-02  0.1312668E+00
        -11   -1    0    0    0    0  0.00000000000E+00  0.00000000000E+00  0.45593999997E+02  0.45594000000E+02  0.51100000000E-03 0.  1.
         11   -1    0    0    0    0 -0.00000000000E+00 -0.00000000000E+00 -0.45593999997E+02  0.45594000000E+02  0.51100000000E-03 0. -1.
    9900012    2    1    2    0    0  0.22257661418E+02  0.10596496534E+02  0.35720219483E+02  0.47787270623E+02  0.19999998077E+02 0.  0.
         12    1    1    2    0    0 -0.22257661418E+02 -0.10596496534E+02 -0.35720219483E+02  0.43400729377E+02  0.00000000000E+00 0. -1.
         11    1    3    3    0    0 -0.57795776243E+00  0.11203840431E+01  0.42082767768E+01  0.43930501102E+01  0.51100000000E-03 0. -1.
        -11    1    3    3    0    0  0.11408340651E+02 -0.39705149175E+01  0.14637839372E+02  0.18978450065E+02  0.51100000000E-03 0.  1.
        -12    1    3    3    0    0  0.11427278530E+02  0.13446627408E+02  0.16874103333E+02  0.24415770448E+02  0.00000000000E+00 0.  1.
</event>
<event>
 7    1  0.3851772E-009  0.4778727E+02  0.7816164E-02  0.1312668E+00
        -11   -1    0    0    0    0  0.00000000000E+00  0.00000000000E+00  0.45593999997E+02  0.45594000000E+02  0.51100000000E-03 0.  1.
         11   -1    0    0    0    0 -0.00000000000E+00 -0.00000000000E+00 -0.45593999997E+02  0.45594000000E+02  0.51100000000E-03 0. -1.
    9900012    2    1    2    0    0 -0.12643043283E+01  0.40059230558E+02  0.16651823666E+02  0.47787266714E+02  0.19999980256E+02 0.  0.
         12    1    1    2    0    0  0.12643043283E+01 -0.40059230558E+02 -0.16651823666E+02  0.43400733286E+02  0.00000000000E+00 0. -1.
         11    1    3    3    0    0  0.72062271488E+01  0.90986954207E+01  0.70452380823E+01  0.13577604648E+02  0.51100000000E-03 0. -1.
        -11    1    3    3    0    0 -0.46257865876E+01  0.16320829940E+02  0.14754778687E+01  0.17027754599E+02  0.51100000000E-03 0.  1.
         12    1    3    3    0    0 -0.38447448895E+01  0.14639705198E+02  0.81311077148E+01  0.17181907467E+02  0.00000000000E+00 0. -1.
</event>
<event>
 7    1  0.3851772E-009  0.4778728E+02  0.7816164E-02  0.1312668E+00
        -11   -1    0    0    0    0  0.00000000000E+00  0.00000000000E+00  0.45593999997E+02  0.45594000000E+02  0.51100000000E-03 0.  1.
         11   -1    0    0    0    0 -0.00000000000E+00 -0.00000000000E+00 -0.45593999997E+02  0.45594000000E+02  0.51100000000E-03 0. -1.
    9900012    2    1    2    0    0  0.72819297622E-01  0.39207795763E+02  0.18610914966E+02  0.47787277574E+02  0.20000029770E+02 0.  0.
         12    1    1    2    0    0 -0.72819297622E-01 -0.39207795763E+02 -0.18610914966E+02  0.43400722426E+02  0.00000000000E+00 0. -1.
         11    1    3    3    0    0 -0.18602947599E+01 -0.20164356283E+00  0.41699344867E+00  0.19170916821E+01  0.51100000000E-03 0. -1.
        -11    1    3    3    0    0  0.66500664678E+01  0.28379841373E+02  0.17172313358E+02  0.33830860567E+02  0.51100000000E-03 0.  1.
        -12    1    3    3    0    0 -0.47169524102E+01  0.11029597953E+02  0.10216081595E+01  0.12039325325E+02  0.00000000000E+00 0.  1.
</event>
<event>
 7    1  0.3851772E-009  0.4778727E+02  0.7816164E-02  0.1312668E+00
        -11   -1    0    0    0    0  0.00000000000E+00  0.00000000000E+00  0.45593999997E+02  0.45594000000E+02  0.51100000000E-03 0. -1.
         11   -1    0    0    0    0 -0.00000000000E+00 -0.00000000000E+00 -0.45593999997E+02  0.45594000000E+02  0.51100000000E-03 0.  1.
    9900012    2    1    2    0    0 -0.39118312440E+02  0.18711707112E+02 -0.18035605135E+01  0.47787272106E+02  0.20000004841E+02 0.  0.
         12    1    1    2    0    0  0.39118312440E+02 -0.18711707112E+02  0.18035605135E+01  0.43400727894E+02  0.00000000000E+00 0. -1.
         11    1    3    3    0    0 -0.47180665572E+01  0.92446981707E+01 -0.73110649218E+00  0.10404763970E+02  0.51100000000E-03 0. -1.
        -11    1    3    3    0    0 -0.25736180364E+02  0.68867589826E+01 -0.56731988064E+01  0.27239009049E+02  0.51100000000E-03 0.  1.
         12    1    3    3    0    0 -0.86640655188E+01  0.25802499591E+01  0.46007447850E+01  0.10143499088E+02  0.00000000000E+00 0. -1.
</event>
<event>
 7    1  0.3851772E-009  0.4778727E+02  0.7816164E-02  0.1312668E+00
        -11   -1    0    0    0    0  0.00000000000E+00  0.00000000000E+00  0.45593999997E+02  0.45594000000E+02  0.51100000000E-03 0.  1.
         11   -1    0    0    0    0 -0.00000000000E+00 -0.00000000000E+00 -0.45593999997E+02  0.45594000000E+02  0.51100000000E-03 0. -1.
    9900012    2    1    2    0    0  0.35484176423E+02  0.17085848842E-01  0.24989923249E+02  0.47787270371E+02  0.19999996929E+02 0.  0.
         12    1    1    2    0    0 -0.35484176423E+02 -0.17085848842E-01 -0.24989923249E+02  0.43400729629E+02  0.00000000000E+00 0. -1.
         11    1    3    3    0    0  0.30296674790E+01 -0.44711587216E+01  0.20606903738E-01  0.54009786384E+01  0.51100000000E-03 0. -1.
        -11    1    3    3    0    0  0.28109630764E+02  0.75059856898E+00  0.18105854959E+02  0.33444532049E+02  0.51100000000E-03 0.  1.
        -12    1    3    3    0    0  0.43448781794E+01  0.37376460015E+01  0.68634613867E+01  0.89417596833E+01  0.00000000000E+00 0.  1.
</event>
<event>
 7    1  0.3851772E-009  0.4778728E+02  0.7816164E-02  0.1312668E+00
        -11   -1    0    0    0    0  0.00000000000E+00  0.00000000000E+00  0.45593999997E+02  0.45594000000E+02  0.51100000000E-03 0.  1.
         11   -1    0    0    0    0 -0.00000000000E+00 -0.00000000000E+00 -0.45593999997E+02  0.45594000000E+02  0.51100000000E-03 0. -1.
    9900012    2    1    2    0    0  0.37208604672E+02 -0.22298809104E+02 -0.13802472448E+01  0.47787283052E+02  0.20000054749E+02 0.  0.
         12    1    1    2    0    0 -0.37208604672E+02  0.22298809104E+02  0.13802472448E+01  0.43400716948E+02  0.00000000000E+00 0. -1.
         11    1    3    3    0    0  0.52384035380E+01  0.95587667434E+00 -0.38628683415E+01  0.65784742858E+01  0.51100000000E-03 0. -1.
        -11    1    3    3    0    0  0.26701833434E+02 -0.20684007006E+02 -0.19911616142E+01  0.33834609195E+02  0.51100000000E-03 0.  1.
        -12    1    3    3    0    0  0.52683677005E+01 -0.25706787721E+01  0.44737827110E+01  0.73741995716E+01  0.00000000000E+00 0.  1.
</event>
<event>
 7    1  0.3851772E-009  0.4778727E+02  0.7816164E-02  0.1312668E+00
        -11   -1    0    0    0    0  0.00000000000E+00  0.00000000000E+00  0.45593999997E+02  0.45594000000E+02  0.51100000000E-03 0.  1.
         11   -1    0    0    0    0 -0.00000000000E+00 -0.00000000000E+00 -0.45593999997E+02  0.45594000000E+02  0.51100000000E-03 0. -1.
    9900012    2    1    2    0    0  0.59036746504E+01  0.26950278181E+02  0.33503020196E+02  0.47787271543E+02  0.20000002272E+02 0.  0.
         12    1    1    2    0    0 -0.59036746504E+01 -0.26950278181E+02 -0.33503020196E+02  0.43400728457E+02  0.00000000000E+00 0. -1.
         11    1    3    3    0    0 -0.60932257747E+01  0.91792033098E+01  0.14836560347E+02  0.18479953921E+02  0.51100000000E-03 0. -1.
        -11    1    3    3    0    0  0.44477462114E+01  0.10455927109E+02  0.13338881223E+02  0.17522403106E+02  0.51100000000E-03 0.  1.
         12    1    3    3    0    0  0.75491542137E+01  0.73151477621E+01  0.53275786258E+01  0.11784914516E+02  0.00000000000E+00 0. -1.
</event>
<event>
 7    1  0.3851772E-009  0.4778727E+02  0.7816164E-02  0.1312668E+00
        -11   -1    0    0    0    0  0.00000000000E+00  0.00000000000E+00  0.45593999997E+02  0.45594000000E+02  0.51100000000E-03 0.  1.
         11   -1    0    0    0    0 -0.00000000000E+00 -0.00000000000E+00 -0.45593999997E+02  0.45594000000E+02  0.51100000000E-03 0. -1.
    9900012    2    1    2    0    0 -0.16699705415E+02  0.33265246501E+02  0.22319636609E+02  0.47787274613E+02  0.20000016272E+02 0.  0.
         12    1    1    2    0    0  0.16699705415E+02 -0.33265246501E+02 -0.22319636609E+02  0.43400725387E+02  0.00000000000E+00 0. -1.
         11    1    3    3    0    0 -0.46670310887E+01  0.14096915111E+01 -0.18182643050E+01  0.52033157393E+01  0.51100000000E-03 0. -1.
        -11    1    3    3    0    0 -0.70256826062E+01  0.15511614335E+02  0.16993797161E+02  0.24057421673E+02  0.51100000000E-03 0.  1.
         12    1    3    3    0    0 -0.50069917201E+01  0.16343940655E+02  0.71441037533E+01  0.18526537201E+02  0.00000000000E+00 0. -1.
</event>
<event>
 7    1  0.3851772E-009  0.4778727E+02  0.7816164E-02  0.1312668E+00
        -11   -1    0    0    0    0  0.00000000000E+00  0.00000000000E+00  0.45593999997E+02  0.45594000000E+02  0.51100000000E-03 0. -1.
         11   -1    0    0    0    0 -0.00000000000E+00 -0.00000000000E+00 -0.45593999997E+02  0.45594000000E+02  0.51100000000E-03 0.  1.
    9900012    2    1    2    0    0  0.42675921664E+02 -0.78793122433E+01 -0.55247914343E+00  0.47787273226E+02  0.20000009947E+02 0.  0.
         12    1    1    2    0    0 -0.42675921664E+02  0.78793122433E+01  0.55247914343E+00  0.43400726774E+02  0.00000000000E+00 0. -1.
         11    1    3    3    0    0  0.10817932877E+02 -0.52038015394E+01 -0.61798338741E+01  0.13501761706E+02  0.51100000000E-03 0. -1.
        -11    1    3    3    0    0  0.12701808034E+02 -0.21290328622E+01  0.77072336812E+01  0.15009002617E+02  0.51100000000E-03 0.  1.
        -12    1    3    3    0    0  0.19156180752E+02 -0.54647784176E+00 -0.20798789506E+01  0.19276508903E+02  0.00000000000E+00 0.  1.
</event>
<event>
 7    1  0.3851772E-009  0.4778727E+02  0.7816164E-02  0.1312668E+00
        -11   -1    0    0    0    0  0.00000000000E+00  0.00000000000E+00  0.45593999997E+02  0.45594000000E+02  0.51100000000E-03 0.  1.
         11   -1    0    0    0    0 -0.00000000000E+00 -0.00000000000E+00 -0.45593999997E+02  0.45594000000E+02  0.51100000000E-03 0. -1.
    9900012    2    1    2    0    0 -0.25782531653E+01  0.38982681180E+02  0.18903081850E+02  0.47787270458E+02  0.19999997328E+02 0.  0.
         12    1    1    2    0    0  0.25782531653E+01 -0.38982681180E+02 -0.18903081850E+02  0.43400729542E+02  0.00000000000E+00 0. -1.
         11    1    3    3    0    0 -0.18172977032E+01  0.62262162090E+01  0.39269750528E+01  0.75821812527E+01  0.51100000000E-03 0. -1.
        -11    1    3    3    0    0 -0.27253431837E+01  0.29550121141E+02  0.57300791612E+01  0.30223682145E+02  0.51100000000E-03 0.  1.
        -12    1    3    3    0    0  0.19643877216E+01  0.32063438293E+01  0.92460276356E+01  0.99814070606E+01  0.00000000000E+00 0.  1.
</event>
<event>
 7    1  0.3851772E-009  0.4778727E+02  0.7816164E-02  0.1312668E+00
        -11   -1    0    0    0    0  0.00000000000E+00  0.00000000000E+00  0.45593999997E+02  0.45594000000E+02  0.51100000000E-03 0.  1.
         11   -1    0    0    0    0 -0.00000000000E+00 -0.00000000000E+00 -0.45593999997E+02  0.45594000000E+02  0.51100000000E-03 0. -1.
    9900012    2    1    2    0    0 -0.33903751419E+02  0.99958008127E+01  0.25184182336E+02  0.47787269199E+02  0.19999991584E+02 0.  0.
         12    1    1    2    0    0  0.33903751419E+02 -0.99958008127E+01 -0.25184182336E+02  0.43400730801E+02  0.00000000000E+00 0. -1.
         11    1    3    3    0    0 -0.92726812292E+01  0.10283130341E+02  0.67642374240E+01  0.15410395679E+02  0.51100000000E-03 0. -1.
        -11    1    3    3    0    0 -0.98464992962E+01 -0.48459851366E+01  0.58095799887E+01  0.12417259772E+02  0.51100000000E-03 0.  1.
        -12    1    3    3    0    0 -0.14784570893E+02  0.45586556081E+01  0.12610364924E+02  0.19959613748E+02  0.00000000000E+00 0.  1.
</event>
<event>
 7    1  0.3851772E-009  0.4778727E+02  0.7816164E-02  0.1312668E+00
        -11   -1    0    0    0    0  0.00000000000E+00  0.00000000000E+00  0.45593999997E+02  0.45594000000E+02  0.51100000000E-03 0. -1.
         11   -1    0    0    0    0 -0.00000000000E+00 -0.00000000000E+00 -0.45593999997E+02  0.45594000000E+02  0.51100000000E-03 0.  1.
    9900012    2    1    2    0    0  0.15047476192E+02  0.35953101786E+02 -0.19093753979E+02  0.47787268338E+02  0.19999987662E+02 0.  0.
         12    1    1    2    0    0 -0.15047476192E+02 -0.35953101786E+02  0.19093753979E+02  0.43400731662E+02  0.00000000000E+00 0. -1.
         11    1    3    3    0    0  0.36287970887E+00  0.72449355918E+01 -0.26170817013E+01  0.77116723417E+01  0.51100000000E-03 0. -1.
        -11    1    3    3    0    0 -0.29215068889E-01  0.17796575613E+02 -0.11140426502E+02  0.20995905790E+02  0.51100000000E-03 0.  1.
        -12    1    3    3    0    0  0.14713811552E+02  0.10911590581E+02 -0.53362457758E+01  0.19079690206E+02  0.00000000000E+00 0.  1.
</event>
<event>
 7    1  0.3851772E-009  0.4778727E+02  0.7816164E-02  0.1312668E+00
        -11   -1    0    0    0    0  0.00000000000E+00  0.00000000000E+00  0.45593999997E+02  0.45594000000E+02  0.51100000000E-03 0.  1.
         11   -1    0    0    0    0 -0.00000000000E+00 -0.00000000000E+00 -0.45593999997E+02  0.45594000000E+02  0.51100000000E-03 0. -1.
    9900012    2    1    2    0    0 -0.35424822944E+02 -0.10702572236E+02  0.22675101028E+02  0.47787270286E+02  0.19999996542E+02 0.  0.
         12    1    1    2    0    0  0.35424822944E+02  0.10702572236E+02 -0.22675101028E+02  0.43400729714E+02  0.00000000000E+00 0. -1.
         11    1    3    3    0    0 -0.73624993556E+01  0.42705538117E+01  0.85204397534E+01  0.12043335106E+02  0.51100000000E-03 0. -1.
        -11    1    3    3    0    0 -0.19171327478E+02 -0.11624356819E+02  0.13609553632E+02  0.26227569827E+02  0.51100000000E-03 0.  1.
         12    1    3    3    0    0 -0.88909961107E+01 -0.33487692287E+01  0.54510764251E+00  0.95163653529E+01  0.00000000000E+00 0. -1.
</event>
<event>
 7    1  0.3851772E-009  0.4778726E+02  0.7816164E-02  0.1312668E+00
        -11   -1    0    0    0    0  0.00000000000E+00  0.00000000000E+00  0.45593999997E+02  0.45594000000E+02  0.51100000000E-03 0.  1.
         11   -1    0    0    0    0 -0.00000000000E+00 -0.00000000000E+00 -0.45593999997E+02  0.45594000000E+02  0.51100000000E-03 0. -1.
    9900012    2    1    2    0    0  0.23936839529E+02 -0.82963715150E+01  0.35239493675E+02  0.47787262893E+02  0.19999962835E+02 0.  0.
         12    1    1    2    0    0 -0.23936839529E+02  0.82963715150E+01 -0.35239493675E+02  0.43400737107E+02  0.00000000000E+00 0. -1.
         11    1    3    3    0    0  0.10230793177E+01 -0.29754637450E+01 -0.13589268007E+01  0.34273543877E+01  0.51100000000E-03 0. -1.
        -11    1    3    3    0    0  0.19477924942E+02 -0.74244125955E+01  0.32520365191E+02  0.38627524058E+02  0.51100000000E-03 0.  1.
         12    1    3    3    0    0  0.34358352688E+01  0.21035048255E+01  0.40780552853E+01  0.57323844476E+01  0.00000000000E+00 0. -1.
</event>
<event>
 7    1  0.3851772E-009  0.4778728E+02  0.7816164E-02  0.1312668E+00
        -11   -1    0    0    0    0  0.00000000000E+00  0.00000000000E+00  0.45593999997E+02  0.45594000000E+02  0.51100000000E-03 0.  1.
         11   -1    0    0    0    0 -0.00000000000E+00 -0.00000000000E+00 -0.45593999997E+02  0.45594000000E+02  0.51100000000E-03 0. -1.
    9900012    2    1    2    0    0  0.34126103567E+02 -0.26543916711E+02 -0.38016036636E+01  0.47787278239E+02  0.20000032801E+02 0.  0.
         12    1    1    2    0    0 -0.34126103567E+02  0.26543916711E+02  0.38016036636E+01  0.43400721761E+02  0.00000000000E+00 0. -1.
         11    1    3    3    0    0  0.11904075824E+02 -0.73033919299E+00 -0.18488207229E+01  0.12068908604E+02  0.51100000000E-03 0. -1.
        -11    1    3    3    0    0  0.54992564748E+01 -0.13567334470E+02  0.14595075122E+01  0.14712054541E+02  0.51100000000E-03 0.  1.
        -12    1    3    3    0    0  0.16722771268E+02 -0.12246243048E+02 -0.34122904530E+01  0.21006315093E+02  0.00000000000E+00 0.  1.
</event>
<event>
 7    1  0.3851772E-009  0.4778727E+02  0.7816164E-02  0.1312668E+00
        -11   -1    0    0    0    0  0.00000000000E+00  0.00000000000E+00  0.45593999997E+02  0.45594000000E+02  0.51100000000E-03 0.  1.
         11   -1    0    0    0    0 -0.00000000000E+00 -0.00000000000E+00 -0.45593999997E+02  0.45594000000E+02  0.51100000000E-03 0. -1.
    9900012    2    1    2    0    0  0.27631972247E+02 -0.33343125400E+02 -0.28867856866E+01  0.47787269208E+02  0.19999991625E+02 0.  0.
         12    1    1    2    0    0 -0.27631972247E+02  0.33343125400E+02  0.28867856866E+01  0.43400730792E+02  0.00000000000E+00 0. -1.
         11    1    3    3    0    0  0.13023197466E+01 -0.14321795131E+02  0.24100952677E+01  0.14581440668E+02  0.51100000000E-03 0.  1.
        -11    1    3    3    0    0  0.23607782062E+02 -0.16207603123E+02 -0.33424917208E+01  0.28830296981E+02  0.51100000000E-03 0. -1.
        -12    1    3    3    0    0  0.27218704386E+01 -0.28137271466E+01 -0.19543892335E+01  0.43755315581E+01  0.00000000000E+00 0.  1.
</event>
<event>
 7    1  0.3851772E-009  0.4778727E+02  0.7816164E-02  0.1312668E+00
        -11   -1    0    0    0    0  0.00000000000E+00  0.00000000000E+00  0.45593999997E+02  0.45594000000E+02  0.51100000000E-03 0.  1.
         11   -1    0    0    0    0 -0.00000000000E+00 -0.00000000000E+00 -0.45593999997E+02  0.45594000000E+02  0.51100000000E-03 0. -1.
    9900012    2    1    2    0    0  0.27729223470E+02 -0.36973616017E+01  0.33181965077E+02  0.47787272777E+02  0.20000007901E+02 0.  0.
         12    1    1    2    0    0 -0.27729223470E+02  0.36973616017E+01 -0.33181965077E+02  0.43400727223E+02  0.00000000000E+00 0. -1.
         11    1    3    3    0    0  0.23222843665E+02  0.16252557578E+01  0.14521565895E+02  0.27437525408E+02  0.51100000000E-03 0.  1.
        -11    1    3    3    0    0  0.81385440862E+00 -0.34911477054E+01  0.55530586395E+01  0.66096090515E+01  0.51100000000E-03 0. -1.
         12    1    3    3    0    0  0.36925253962E+01 -0.18314696541E+01  0.13107340543E+02  0.13740138318E+02  0.00000000000E+00 0. -1.
</event>
<event>
 7    1  0.3851772E-009  0.4778727E+02  0.7816164E-02  0.1312668E+00
        -11   -1    0    0    0    0  0.00000000000E+00  0.00000000000E+00  0.45593999997E+02  0.45594000000E+02  0.51100000000E-03 0. -1.
         11   -1    0    0    0    0 -0.00000000000E+00 -0.00000000000E+00 -0.45593999997E+02  0.45594000000E+02  0.51100000000E-03 0.  1.
    9900012    2    1    2    0    0 -0.73794330051E+00 -0.77946040029E+01 -0.42688675314E+02  0.47787269453E+02  0.19999992746E+02 0.  0.
         12    1    1    2    0    0  0.73794330051E+00  0.77946040029E+01  0.42688675314E+02  0.43400730547E+02  0.00000000000E+00 0. -1.
         11    1    3    3    0    0  0.47443686969E+00  0.30084750760E+01 -0.52295512552E+01  0.60517947105E+01  0.51100000000E-03 0. -1.
        -11    1    3    3    0    0 -0.25935423539E+01 -0.13169724091E+02 -0.36403021042E+02  0.38798814876E+02  0.51100000000E-03 0.  1.
        -12    1    3    3    0    0  0.13811621837E+01  0.23666450118E+01 -0.10561030173E+01  0.29366598667E+01  0.00000000000E+00 0.  1.
</event>
<event>
 7    1  0.3851772E-009  0.4778727E+02  0.7816164E-02  0.1312668E+00
        -11   -1    0    0    0    0  0.00000000000E+00  0.00000000000E+00  0.45593999997E+02  0.45594000000E+02  0.51100000000E-03 0.  1.
         11   -1    0    0    0    0 -0.00000000000E+00 -0.00000000000E+00 -0.45593999997E+02  0.45594000000E+02  0.51100000000E-03 0. -1.
    9900012    2    1    2    0    0 -0.25502229069E+01 -0.36230570680E+02  0.23758474425E+02  0.47787274249E+02  0.20000014612E+02 0.  0.
         12    1    1    2    0    0  0.25502229069E+01  0.36230570680E+02 -0.23758474425E+02  0.43400725751E+02  0.00000000000E+00 0. -1.
         11    1    3    3    0    0 -0.14676704182E+01  0.10961938158E+00 -0.23919160771E+01  0.28084400735E+01  0.51100000000E-03 0. -1.
        -11    1    3    3    0    0 -0.17840854868E+01 -0.32990387199E+02  0.24750268610E+02  0.41281041716E+02  0.51100000000E-03 0.  1.
         12    1    3    3    0    0  0.70153299799E+00 -0.33498028627E+01  0.14001218917E+01  0.36977924601E+01  0.00000000000E+00 0. -1.
</event>
<event>
 7    1  0.3851772E-009  0.4778727E+02  0.7816164E-02  0.1312668E+00
        -11   -1    0    0    0    0  0.00000000000E+00  0.00000000000E+00  0.45593999997E+02  0.45594000000E+02  0.51100000000E-03 0. -1.
         11   -1    0    0    0    0 -0.00000000000E+00 -0.00000000000E+00 -0.45593999997E+02  0.45594000000E+02  0.51100000000E-03 0.  1.
    9900012    2    1    2    0    0  0.26999630630E+02 -0.27665442247E+02 -0.19729848452E+02  0.47787266495E+02  0.19999979256E+02 0.  0.
         12    1    1    2    0    0 -0.26999630630E+02  0.27665442247E+02  0.19729848452E+02  0.43400733505E+02  0.00000000000E+00 0. -1.
         11    1    3    3    0    0  0.11753431951E+02 -0.49481368587E+01  0.59731851101E+00  0.12766519128E+02  0.51100000000E-03 0. -1.
        -11    1    3    3    0    0  0.15961980481E+02 -0.22571965145E+02 -0.20284607871E+02  0.34289119967E+02  0.51100000000E-03 0.  1.
         12    1    3    3    0    0 -0.71578180222E+00 -0.14534024342E+00 -0.42559091913E-01  0.73162739905E+00  0.00000000000E+00 0. -1.
</event>
<event>
 7    1  0.3851772E-009  0.4778727E+02  0.7816164E-02  0.1312668E+00
        -11   -1    0    0    0    0  0.00000000000E+00  0.00000000000E+00  0.45593999997E+02  0.45594000000E+02  0.51100000000E-03 0.  1.
         11   -1    0    0    0    0 -0.00000000000E+00 -0.00000000000E+00 -0.45593999997E+02  0.45594000000E+02  0.51100000000E-03 0. -1.
    9900012    2    1    2    0    0 -0.42385007221E+02  0.91920484477E+01  0.16250536228E+01  0.47787269694E+02  0.19999993843E+02 0.  0.
         12    1    1    2    0    0  0.42385007221E+02 -0.91920484477E+01 -0.16250536228E+01  0.43400730306E+02  0.00000000000E+00 0. -1.
         11    1    3    3    0    0 -0.29283760920E+02  0.11132073398E+02  0.72683581974E+00  0.31336719712E+02  0.51100000000E-03 0. -1.
        -11    1    3    3    0    0 -0.76975713737E+01  0.37028424446E+01  0.12333069467E+01  0.86304515241E+01  0.51100000000E-03 0.  1.
         12    1    3    3    0    0 -0.54036749277E+01 -0.56428673947E+01 -0.33508914361E+00  0.78200984580E+01  0.00000000000E+00 0. -1.
</event>
<event>
 7    1  0.3851772E-009  0.4778731E+02  0.7816164E-02  0.1312668E+00
        -11   -1    0    0    0    0  0.00000000000E+00  0.00000000000E+00  0.45593999997E+02  0.45594000000E+02  0.51100000000E-03 0.  1.
         11   -1    0    0    0    0 -0.00000000000E+00 -0.00000000000E+00 -0.45593999997E+02  0.45594000000E+02  0.51100000000E-03 0. -1.
    9900012    2    1    2    0    0  0.39738308811E+00  0.55244964159E+01  0.43045808202E+02  0.47787313626E+02  0.20000194145E+02 0.  0.
         12    1    1    2    0    0 -0.39738308811E+00 -0.55244964159E+01 -0.43045808202E+02  0.43400686374E+02  0.00000000000E+00 0. -1.
         11    1    3    3    0    0  0.25858651340E+01  0.30141332991E+00  0.24814987923E+01  0.35965796257E+01  0.51100000000E-03 0. -1.
        -11    1    3    3    0    0 -0.60727122770E+01  0.45042485220E+01  0.67165903847E+01  0.10113292036E+02  0.51100000000E-03 0.  1.
        -12    1    3    3    0    0  0.38842302311E+01  0.71883456407E+00  0.33847719025E+02  0.34077441964E+02  0.00000000000E+00 0.  1.
</event>
<event>
 7    1  0.3851772E-009  0.4778728E+02  0.7816164E-02  0.1312668E+00
        -11   -1    0    0    0    0  0.00000000000E+00  0.00000000000E+00  0.45593999997E+02  0.45594000000E+02  0.51100000000E-03 0.  1.
         11   -1    0    0    0    0 -0.00000000000E+00 -0.00000000000E+00 -0.45593999997E+02  0.45594000000E+02  0.51100000000E-03 0. -1.
    9900012    2    1    2    0    0  0.11690761087E+02 -0.94960707657E+01  0.40703478573E+02  0.47787280850E+02  0.20000044707E+02 0.  0.
         12    1    1    2    0    0 -0.11690761087E+02  0.94960707657E+01 -0.40703478573E+02  0.43400719150E+02  0.00000000000E+00 0. -1.
         11    1    3    3    0    0  0.12456847679E+02 -0.38741090174E+01  0.29080140480E+02  0.31872187647E+02  0.51100000000E-03 0. -1.
        -11    1    3    3    0    0 -0.47942247246E+01 -0.13421641869E+01  0.57565135567E+01  0.76107452989E+01  0.51100000000E-03 0.  1.
        -12    1    3    3    0    0  0.40281381317E+01 -0.42797975614E+01  0.58668245367E+01  0.83043479045E+01  0.00000000000E+00 0.  1.
</event>
<event>
 7    1  0.3851772E-009  0.4778727E+02  0.7816164E-02  0.1312668E+00
        -11   -1    0    0    0    0  0.00000000000E+00  0.00000000000E+00  0.45593999997E+02  0.45594000000E+02  0.51100000000E-03 0. -1.
         11   -1    0    0    0    0 -0.00000000000E+00 -0.00000000000E+00 -0.45593999997E+02  0.45594000000E+02  0.51100000000E-03 0.  1.
    9900012    2    1    2    0    0 -0.37364086303E+02 -0.22031173587E+02 -0.14750765292E+01  0.47787269527E+02  0.19999993080E+02 0.  0.
         12    1    1    2    0    0  0.37364086303E+02  0.22031173587E+02  0.14750765292E+01  0.43400730473E+02  0.00000000000E+00 0. -1.
         11    1    3    3    0    0 -0.22406247428E+02 -0.50816074252E+01  0.30422094153E+01  0.23175799797E+02  0.51100000000E-03 0. -1.
        -11    1    3    3    0    0 -0.15674397403E+02 -0.13840142292E+02 -0.46375259531E+01  0.21418284708E+02  0.51100000000E-03 0.  1.
         12    1    3    3    0    0  0.71655852796E+00 -0.31094238694E+01  0.12024000862E+00  0.31931850218E+01  0.00000000000E+00 0. -1.
</event>
<event>
 7    1  0.3851772E-009  0.4778727E+02  0.7816164E-02  0.1312668E+00
        -11   -1    0    0    0    0  0.00000000000E+00  0.00000000000E+00  0.45593999997E+02  0.45594000000E+02  0.51100000000E-03 0. -1.
         11   -1    0    0    0    0 -0.00000000000E+00 -0.00000000000E+00 -0.45593999997E+02  0.45594000000E+02  0.51100000000E-03 0.  1.
    9900012    2    1    2    0    0 -0.23161598753E+02  0.36703728103E+02  0.10441943049E-01  0.47787269332E+02  0.19999992191E+02 0.  0.
         12    1    1    2    0    0  0.23161598753E+02 -0.36703728103E+02 -0.10441943049E-01  0.43400730668E+02  0.00000000000E+00 0. -1.
         11    1    3    3    0    0 -0.55182684388E+01  0.24549669002E+02 -0.16281811502E+00  0.25162751134E+02  0.51100000000E-03 0. -1.
        -11    1    3    3    0    0 -0.15215724030E+02  0.84181013246E+01 -0.22805831568E+01  0.17538065670E+02  0.51100000000E-03 0.  1.
        -12    1    3    3    0    0 -0.24276062848E+01  0.37359577772E+01  0.24538432149E+01  0.50864525271E+01  0.00000000000E+00 0.  1.
</event>
<event>
 7    1  0.3851772E-009  0.4778725E+02  0.7816164E-02  0.1312668E+00
        -11   -1    0    0    0    0  0.00000000000E+00  0.00000000000E+00  0.45593999997E+02  0.45594000000E+02  0.51100000000E-03 0.  1.
         11   -1    0    0    0    0 -0.00000000000E+00 -0.00000000000E+00 -0.45593999997E+02  0.45594000000E+02  0.51100000000E-03 0. -1.
    9900012    2    1    2    0    0  0.26664713817E+01  0.94831580195E+01  0.42268006152E+02  0.47787254618E+02  0.19999925103E+02 0.  0.
         12    1    1    2    0    0 -0.26664713817E+01 -0.94831580195E+01 -0.42268006152E+02  0.43400745382E+02  0.00000000000E+00 0. -1.
         11    1    3    3    0    0  0.74890342374E+01  0.51669865601E+01  0.37028448099E+02  0.38129901033E+02  0.51100000000E-03 0. -1.
        -11    1    3    3    0    0 -0.47894554739E+01  0.45656633309E+01  0.59530779969E+01  0.89007473443E+01  0.51100000000E-03 0.  1.
         12    1    3    3    0    0 -0.33107381826E-01 -0.24949187161E+00 -0.71351994352E+00  0.75660624008E+00  0.00000000000E+00 0. -1.
</event>
<event>
 7    1  0.3851772E-009  0.4778727E+02  0.7816164E-02  0.1312668E+00
        -11   -1    0    0    0    0  0.00000000000E+00  0.00000000000E+00  0.45593999997E+02  0.45594000000E+02  0.51100000000E-03 0.  1.
         11   -1    0    0    0    0 -0.00000000000E+00 -0.00000000000E+00 -0.45593999997E+02  0.45594000000E+02  0.51100000000E-03 0. -1.
    9900012    2    1    2    0    0  0.14695835667E+02 -0.38890435061E+02  0.12457508576E+02  0.47787273680E+02  0.20000012015E+02 0.  0.
         12    1    1    2    0    0 -0.14695835667E+02  0.38890435061E+02 -0.12457508576E+02  0.43400726320E+02  0.00000000000E+00 0. -1.
         11    1    3    3    0    0 -0.14010226402E+01 -0.47967099859E+01 -0.28471269667E+01  0.57512975364E+01  0.51100000000E-03 0. -1.
        -11    1    3    3    0    0  0.12493053470E+02 -0.26187717748E+02  0.66395304096E+01  0.29765018229E+02  0.51100000000E-03 0.  1.
         12    1    3    3    0    0  0.36038048373E+01 -0.79060073276E+01  0.86651051331E+01  0.12270957914E+02  0.00000000000E+00 0. -1.
</event>
<event>
 7    1  0.3851772E-009  0.4778727E+02  0.7816164E-02  0.1312668E+00
        -11   -1    0    0    0    0  0.00000000000E+00  0.00000000000E+00  0.45593999997E+02  0.45594000000E+02  0.51100000000E-03 0.  1.
         11   -1    0    0    0    0 -0.00000000000E+00 -0.00000000000E+00 -0.45593999997E+02  0.45594000000E+02  0.51100000000E-03 0. -1.
    9900012    2    1    2    0    0  0.14955961502E+02 -0.20272843006E+02  0.35340544082E+02  0.47787274153E+02  0.20000014172E+02 0.  0.
         12    1    1    2    0    0 -0.14955961502E+02  0.20272843006E+02 -0.35340544082E+02  0.43400725847E+02  0.00000000000E+00 0. -1.
         11    1    3    3    0    0 -0.42982077467E+01 -0.67912253678E+00  0.53243359178E+01  0.68763617183E+01  0.51100000000E-03 0.  1.
        -11    1    3    3    0    0  0.16091465745E+02 -0.17796944798E+02  0.24404811159E+02  0.34223695328E+02  0.51100000000E-03 0. -1.
        -12    1    3    3    0    0  0.31627035041E+01 -0.17967756712E+01  0.56113970060E+01  0.66872171062E+01  0.00000000000E+00 0.  1.
</event>
<event>
 7    1  0.3851772E-009  0.4778727E+02  0.7816164E-02  0.1312668E+00
        -11   -1    0    0    0    0  0.00000000000E+00  0.00000000000E+00  0.45593999997E+02  0.45594000000E+02  0.51100000000E-03 0.  1.
         11   -1    0    0    0    0 -0.00000000000E+00 -0.00000000000E+00 -0.45593999997E+02  0.45594000000E+02  0.51100000000E-03 0. -1.
    9900012    2    1    2    0    0 -0.26068841824E+02 -0.22324093515E+02  0.26564521741E+02  0.47787268662E+02  0.19999989138E+02 0.  0.
         12    1    1    2    0    0  0.26068841824E+02  0.22324093515E+02 -0.26564521741E+02  0.43400731338E+02  0.00000000000E+00 0. -1.
         11    1    3    3    0    0 -0.12789598058E+02 -0.27857929125E+01  0.15605094475E+02  0.20367951160E+02  0.51100000000E-03 0. -1.
        -11    1    3    3    0    0 -0.52642304736E+01 -0.13664725203E+02  0.36728439134E+01  0.15097238821E+02  0.51100000000E-03 0.  1.
        -12    1    3    3    0    0 -0.80150132932E+01 -0.58735753999E+01  0.72865833520E+01  0.12322078681E+02  0.00000000000E+00 0.  1.
</event>
<event>
 7    1  0.3851772E-009  0.4778727E+02  0.7816164E-02  0.1312668E+00
        -11   -1    0    0    0    0  0.00000000000E+00  0.00000000000E+00  0.45593999997E+02  0.45594000000E+02  0.51100000000E-03 0.  1.
         11   -1    0    0    0    0 -0.00000000000E+00 -0.00000000000E+00 -0.45593999997E+02  0.45594000000E+02  0.51100000000E-03 0. -1.
    9900012    2    1    2    0    0  0.22469494041E+02  0.36531400299E+02  0.66484419729E+01  0.47787272461E+02  0.20000006457E+02 0.  0.
         12    1    1    2    0    0 -0.22469494041E+02 -0.36531400299E+02 -0.66484419729E+01  0.43400727539E+02  0.00000000000E+00 0. -1.
         11    1    3    3    0    0  0.99104246430E+01  0.39144283526E+01 -0.22555130935E+01  0.10891584160E+02  0.51100000000E-03 0. -1.
        -11    1    3    3    0    0  0.13588506374E+02  0.29327207249E+02  0.75510819864E+01  0.33192641201E+02  0.51100000000E-03 0.  1.
         12    1    3    3    0    0 -0.10294369757E+01  0.32897646979E+01  0.13528730800E+01  0.37030471000E+01  0.00000000000E+00 0. -1.
</event>
<event>
 7    1  0.3851772E-009  0.4778727E+02  0.7816164E-02  0.1312668E+00
        -11   -1    0    0    0    0  0.00000000000E+00  0.00000000000E+00  0.45593999997E+02  0.45594000000E+02  0.51100000000E-03 0. -1.
         11   -1    0    0    0    0 -0.00000000000E+00 -0.00000000000E+00 -0.45593999997E+02  0.45594000000E+02  0.51100000000E-03 0.  1.
    9900012    2    1    2    0    0  0.35109761014E+02 -0.18744452485E+02 -0.17308185789E+02  0.47787272901E+02  0.20000008466E+02 0.  0.
         12    1    1    2    0    0 -0.35109761014E+02  0.18744452485E+02  0.17308185789E+02  0.43400727099E+02  0.00000000000E+00 0. -1.
         11    1    3    3    0    0  0.17786925658E+02 -0.46097555213E+01 -0.76525534367E+01  0.19904425254E+02  0.51100000000E-03 0. -1.
        -11    1    3    3    0    0  0.13756738910E+02 -0.61843229275E+01 -0.11511490541E+02  0.18973880211E+02  0.51100000000E-03 0.  1.
         12    1    3    3    0    0  0.35660964455E+01 -0.79503740359E+01  0.18558581884E+01  0.89089674365E+01  0.00000000000E+00 0. -1.
</event>
<event>
 7    1  0.3851772E-009  0.4778727E+02  0.7816164E-02  0.1312668E+00
        -11   -1    0    0    0    0  0.00000000000E+00  0.00000000000E+00  0.45593999997E+02  0.45594000000E+02  0.51100000000E-03 0.  1.
         11   -1    0    0    0    0 -0.00000000000E+00 -0.00000000000E+00 -0.45593999997E+02  0.45594000000E+02  0.51100000000E-03 0. -1.
    9900012    2    1    2    0    0  0.31749691454E+02  0.26527889927E+02  0.13109208415E+02  0.47787271934E+02  0.20000004054E+02 0.  0.
         12    1    1    2    0    0 -0.31749691454E+02 -0.26527889927E+02 -0.13109208415E+02  0.43400728066E+02  0.00000000000E+00 0. -1.
         11    1    3    3    0    0  0.34397333454E-01 -0.23756402505E-01 -0.28345016378E+01  0.28348099299E+01  0.51100000000E-03 0. -1.
        -11    1    3    3    0    0  0.21160227349E+02  0.21969595061E+02  0.12199704924E+02  0.32851957766E+02  0.51100000000E-03 0.  1.
         12    1    3    3    0    0  0.10555066772E+02  0.45820512688E+01  0.37440051294E+01  0.12100504237E+02  0.00000000000E+00 0. -1.
</event>
<event>
 7    1  0.3851772E-009  0.4778727E+02  0.7816164E-02  0.1312668E+00
        -11   -1    0    0    0    0  0.00000000000E+00  0.00000000000E+00  0.45593999997E+02  0.45594000000E+02  0.51100000000E-03 0. -1.
         11   -1    0    0    0    0 -0.00000000000E+00 -0.00000000000E+00 -0.45593999997E+02  0.45594000000E+02  0.51100000000E-03 0.  1.
    9900012    2    1    2    0    0 -0.41198046200E+01  0.19347521946E+02 -0.38630612284E+02  0.47787267276E+02  0.19999982816E+02 0.  0.
         12    1    1    2    0    0  0.41198046200E+01 -0.19347521946E+02  0.38630612284E+02  0.43400732724E+02  0.00000000000E+00 0. -1.
         11    1    3    3    0    0 -0.54527046063E+01 -0.67539568533E+00 -0.73789114818E+01  0.91998087901E+01  0.51100000000E-03 0. -1.
        -11    1    3    3    0    0 -0.32200793070E+01  0.49563300575E+01 -0.14205613415E+02  0.15386148678E+02  0.51100000000E-03 0.  1.
         12    1    3    3    0    0  0.45529792934E+01  0.15066587574E+02 -0.17046087388E+02  0.23201309808E+02  0.00000000000E+00 0. -1.
</event>
<event>
 7    1  0.3851772E-009  0.4778728E+02  0.7816164E-02  0.1312668E+00
        -11   -1    0    0    0    0  0.00000000000E+00  0.00000000000E+00  0.45593999997E+02  0.45594000000E+02  0.51100000000E-03 0.  1.
         11   -1    0    0    0    0 -0.00000000000E+00 -0.00000000000E+00 -0.45593999997E+02  0.45594000000E+02  0.51100000000E-03 0. -1.
    9900012    2    1    2    0    0  0.11040327661E+02 -0.91422049836E+01  0.40965280163E+02  0.47787275056E+02  0.20000018289E+02 0.  0.
         12    1    1    2    0    0 -0.11040327661E+02  0.91422049836E+01 -0.40965280163E+02  0.43400724944E+02  0.00000000000E+00 0. -1.
         11    1    3    3    0    0 -0.19203104176E+01  0.69716123581E+00 -0.22576275409E+00  0.20553819525E+01  0.51100000000E-03 0. -1.
        -11    1    3    3    0    0  0.10986806877E+02 -0.10619337502E+02  0.24278360507E+02  0.28686565558E+02  0.51100000000E-03 0.  1.
        -12    1    3    3    0    0  0.19738312010E+01  0.77997128223E+00  0.16912682411E+02  0.17045327546E+02  0.00000000000E+00 0.  1.
</event>
<event>
 7    1  0.3851772E-009  0.4778727E+02  0.7816164E-02  0.1312668E+00
        -11   -1    0    0    0    0  0.00000000000E+00  0.00000000000E+00  0.45593999997E+02  0.45594000000E+02  0.51100000000E-03 0. -1.
         11   -1    0    0    0    0 -0.00000000000E+00 -0.00000000000E+00 -0.45593999997E+02  0.45594000000E+02  0.51100000000E-03 0.  1.
    9900012    2    1    2    0    0 -0.43288477347E+01  0.42987093518E+02  0.41223716709E+01  0.47787273278E+02  0.20000010183E+02 0.  0.
         12    1    1    2    0    0  0.43288477347E+01 -0.42987093518E+02 -0.41223716709E+01  0.43400726722E+02  0.00000000000E+00 0. -1.
         11    1    3    3    0    0  0.12403378027E+01  0.27161941557E+02 -0.46298774533E+01  0.27581611129E+02  0.51100000000E-03 0. -1.
        -11    1    3    3    0    0 -0.17393743769E+01  0.13294383881E+02  0.51201111038E+01  0.14352059224E+02  0.51100000000E-03 0.  1.
         12    1    3    3    0    0 -0.38298111605E+01  0.25307680804E+01  0.36321380203E+01  0.58536029247E+01  0.00000000000E+00 0. -1.
</event>
<event>
 7    1  0.3851772E-009  0.4778727E+02  0.7816164E-02  0.1312668E+00
        -11   -1    0    0    0    0  0.00000000000E+00  0.00000000000E+00  0.45593999997E+02  0.45594000000E+02  0.51100000000E-03 0.  1.
         11   -1    0    0    0    0 -0.00000000000E+00 -0.00000000000E+00 -0.45593999997E+02  0.45594000000E+02  0.51100000000E-03 0. -1.
    9900012    2    1    2    0    0 -0.10151336800E+02  0.37823201121E+02 -0.18707729677E+02  0.47787270380E+02  0.19999996970E+02 0.  0.
         12    1    1    2    0    0  0.10151336800E+02 -0.37823201121E+02  0.18707729677E+02  0.43400729620E+02  0.00000000000E+00 0. -1.
         11    1    3    3    0    0  0.55379353731E+01  0.10353500152E+02 -0.32801818222E+01  0.12191115069E+02  0.51100000000E-03 0. -1.
        -11    1    3    3    0    0 -0.13969907041E+01  0.68333002374E+01 -0.35268607562E+01  0.78156459885E+01  0.51100000000E-03 0.  1.
         12    1    3    3    0    0 -0.14292281469E+02  0.20636400732E+02 -0.11900687099E+02  0.27780509322E+02  0.00000000000E+00 0. -1.
</event>
<event>
 7    1  0.3851772E-009  0.4778727E+02  0.7816164E-02  0.1312668E+00
        -11   -1    0    0    0    0  0.00000000000E+00  0.00000000000E+00  0.45593999997E+02  0.45594000000E+02  0.51100000000E-03 0. -1.
         11   -1    0    0    0    0 -0.00000000000E+00 -0.00000000000E+00 -0.45593999997E+02  0.45594000000E+02  0.51100000000E-03 0.  1.
    9900012    2    1    2    0    0  0.19994977752E+02 -0.22532970999E+02 -0.31242430388E+02  0.47787269892E+02  0.19999994745E+02 0.  0.
         12    1    1    2    0    0 -0.19994977752E+02  0.22532970999E+02  0.31242430388E+02  0.43400730108E+02  0.00000000000E+00 0. -1.
         11    1    3    3    0    0 -0.25284852469E+01  0.86505860566E+00 -0.22738914235E+01  0.35088668402E+01  0.51100000000E-03 0. -1.
        -11    1    3    3    0    0  0.14089975903E+02 -0.10207572822E+02 -0.18769712633E+02  0.25593438152E+02  0.51100000000E-03 0.  1.
         12    1    3    3    0    0  0.84334870965E+01 -0.13190456783E+02 -0.10198826331E+02  0.18684964899E+02  0.00000000000E+00 0. -1.
</event>
<event>
 7    1  0.3851772E-009  0.4778726E+02  0.7816164E-02  0.1312668E+00
        -11   -1    0    0    0    0  0.00000000000E+00  0.00000000000E+00  0.45593999997E+02  0.45594000000E+02  0.51100000000E-03 0. -1.
         11   -1    0    0    0    0 -0.00000000000E+00 -0.00000000000E+00 -0.45593999997E+02  0.45594000000E+02  0.51100000000E-03 0.  1.
    9900012    2    1    2    0    0 -0.84165139327E+01  0.97522270381E+01 -0.41444912277E+02  0.47787258156E+02  0.19999941236E+02 0.  0.
         12    1    1    2    0    0  0.84165139327E+01 -0.97522270381E+01  0.41444912277E+02  0.43400741844E+02  0.00000000000E+00 0. -1.
         11    1    3    3    0    0 -0.90224764956E+01  0.20115905095E+01 -0.10339958772E+02  0.13869618818E+02  0.51100000000E-03 0. -1.
        -11    1    3    3    0    0 -0.29669417593E+01  0.76647064646E+01 -0.28007085883E+02  0.29188136777E+02  0.51100000000E-03 0.  1.
        -12    1    3    3    0    0  0.35729043222E+01  0.75930064072E-01 -0.30978676220E+01  0.47295025609E+01  0.00000000000E+00 0.  1.
</event>
<event>
 7    1  0.3851772E-009  0.4778728E+02  0.7816164E-02  0.1312668E+00
        -11   -1    0    0    0    0  0.00000000000E+00  0.00000000000E+00  0.45593999997E+02  0.45594000000E+02  0.51100000000E-03 0. -1.
         11   -1    0    0    0    0 -0.00000000000E+00 -0.00000000000E+00 -0.45593999997E+02  0.45594000000E+02  0.51100000000E-03 0.  1.
    9900012    2    1    2    0    0  0.24164891602E+02  0.21299308022E+02 -0.29086424919E+02  0.47787278544E+02  0.20000034192E+02 0.  0.
         12    1    1    2    0    0 -0.24164891602E+02 -0.21299308022E+02  0.29086424919E+02  0.43400721456E+02  0.00000000000E+00 0. -1.
         11    1    3    3    0    0 -0.46544571038E+00  0.48241117102E+01 -0.54396905357E+00  0.48769453651E+01  0.51100000000E-03 0. -1.
        -11    1    3    3    0    0  0.20495007831E+02  0.87578747523E+01 -0.24926308176E+02  0.33437502235E+02  0.51100000000E-03 0.  1.
        -12    1    3    3    0    0  0.41353294816E+01  0.77173215597E+01 -0.36161476890E+01  0.94728309436E+01  0.00000000000E+00 0.  1.
</event>
<event>
 7    1  0.3851772E-009  0.4778727E+02  0.7816164E-02  0.1312668E+00
        -11   -1    0    0    0    0  0.00000000000E+00  0.00000000000E+00  0.45593999997E+02  0.45594000000E+02  0.51100000000E-03 0. -1.
         11   -1    0    0    0    0 -0.00000000000E+00 -0.00000000000E+00 -0.45593999997E+02  0.45594000000E+02  0.51100000000E-03 0.  1.
    9900012    2    1    2    0    0  0.20051309118E+02  0.32765938642E+02 -0.20198059017E+02  0.47787270507E+02  0.19999997551E+02 0.  0.
         12    1    1    2    0    0 -0.20051309118E+02 -0.32765938642E+02  0.20198059017E+02  0.43400729493E+02  0.00000000000E+00 0. -1.
         11    1    3    3    0    0  0.16107719827E+02  0.22951909452E+02 -0.14753673559E+02  0.31684691403E+02  0.51100000000E-03 0. -1.
        -11    1    3    3    0    0  0.17572193117E+00 -0.19078397616E+01  0.10473155496E+01  0.21834836557E+01  0.51100000000E-03 0.  1.
        -12    1    3    3    0    0  0.37678673602E+01  0.11721868951E+02 -0.64917010078E+01  0.13919095449E+02  0.00000000000E+00 0.  1.
</event>
<event>
 7    1  0.3851772E-009  0.4778726E+02  0.7816164E-02  0.1312668E+00
        -11   -1    0    0    0    0  0.00000000000E+00  0.00000000000E+00  0.45593999997E+02  0.45594000000E+02  0.51100000000E-03 0.  1.
         11   -1    0    0    0    0 -0.00000000000E+00 -0.00000000000E+00 -0.45593999997E+02  0.45594000000E+02  0.51100000000E-03 0. -1.
    9900012    2    1    2    0    0 -0.14128953015E+02 -0.37729426397E+02  0.16139617113E+02  0.47787260719E+02  0.19999952924E+02 0.  0.
         12    1    1    2    0    0  0.14128953015E+02  0.37729426397E+02 -0.16139617113E+02  0.43400739281E+02  0.00000000000E+00 0. -1.
         11    1    3    3    0    0  0.32515945248E+01 -0.78363429176E+01 -0.16296477452E+01  0.86392643964E+01  0.51100000000E-03 0. -1.
        -11    1    3    3    0    0 -0.13748894534E+02 -0.20892221638E+02  0.11046490950E+02  0.27341214099E+02  0.51100000000E-03 0.  1.
         12    1    3    3    0    0 -0.36316530056E+01 -0.90008618418E+01  0.67227739088E+01  0.11806782224E+02  0.00000000000E+00 0. -1.
</event>
<event>
 7    1  0.3851772E-009  0.4778727E+02  0.7816164E-02  0.1312668E+00
        -11   -1    0    0    0    0  0.00000000000E+00  0.00000000000E+00  0.45593999997E+02  0.45594000000E+02  0.51100000000E-03 0. -1.
         11   -1    0    0    0    0 -0.00000000000E+00 -0.00000000000E+00 -0.45593999997E+02  0.45594000000E+02  0.51100000000E-03 0.  1.
    9900012    2    1    2    0    0  0.23289027122E+02  0.36622998258E+02  0.29598497270E-01  0.47787266576E+02  0.19999979627E+02 0.  0.
         12    1    1    2    0    0 -0.23289027122E+02 -0.36622998258E+02 -0.29598497270E-01  0.43400733424E+02  0.00000000000E+00 0. -1.
         11    1    3    3    0    0  0.97796559180E+01  0.85427396933E+01  0.31758011850E+01  0.13368088299E+02  0.51100000000E-03 0. -1.
        -11    1    3    3    0    0  0.58139943027E+01  0.11372479015E+02 -0.84020557619E+01  0.15288242214E+02  0.51100000000E-03 0.  1.
        -12    1    3    3    0    0  0.76953769008E+01  0.16707779550E+02  0.52558530741E+01  0.19130936063E+02  0.00000000000E+00 0.  1.
</event>
<event>
 7    1  0.3851772E-009  0.4778727E+02  0.7816164E-02  0.1312668E+00
        -11   -1    0    0    0    0  0.00000000000E+00  0.00000000000E+00  0.45593999997E+02  0.45594000000E+02  0.51100000000E-03 0.  1.
         11   -1    0    0    0    0 -0.00000000000E+00 -0.00000000000E+00 -0.45593999997E+02  0.45594000000E+02  0.51100000000E-03 0. -1.
    9900012    2    1    2    0    0  0.27985306236E+02  0.12626169338E+02  0.30676142620E+02  0.47787271397E+02  0.20000001607E+02 0.  0.
         12    1    1    2    0    0 -0.27985306236E+02 -0.12626169338E+02 -0.30676142620E+02  0.43400728603E+02  0.00000000000E+00 0. -1.
         11    1    3    3    0    0 -0.84937394693E+00 -0.15632741904E-03 -0.94716224307E-01  0.85463884210E+00  0.51100000000E-03 0. -1.
        -11    1    3    3    0    0  0.55959411301E+01  0.65578008702E+01  0.99614470098E+00  0.86782264266E+01  0.51100000000E-03 0.  1.
        -12    1    3    3    0    0  0.23238739052E+02  0.60685247955E+01  0.29774714143E+02  0.38254406128E+02  0.00000000000E+00 0.  1.
</event>
<event>
 7    1  0.3851772E-009  0.4778727E+02  0.7816164E-02  0.1312668E+00
        -11   -1    0    0    0    0  0.00000000000E+00  0.00000000000E+00  0.45593999997E+02  0.45594000000E+02  0.51100000000E-03 0.  1.
         11   -1    0    0    0    0 -0.00000000000E+00 -0.00000000000E+00 -0.45593999997E+02  0.45594000000E+02  0.51100000000E-03 0. -1.
    9900012    2    1    2    0    0  0.82104269283E+01 -0.35334442550E+02  0.23826236004E+02  0.47787268868E+02  0.19999990078E+02 0.  0.
         12    1    1    2    0    0 -0.82104269283E+01  0.35334442550E+02 -0.23826236004E+02  0.43400731132E+02  0.00000000000E+00 0. -1.
         11    1    3    3    0    0 -0.13542215471E+01 -0.82966371014E+01  0.12769845048E+02  0.15288461204E+02  0.51100000000E-03 0.  1.
        -11    1    3    3    0    0  0.54130112403E+01 -0.12471679699E+02 -0.24988898826E+00  0.13598011986E+02  0.51100000000E-03 0. -1.
        -12    1    3    3    0    0  0.41516372351E+01 -0.14566125749E+02  0.11306279945E+02  0.18900795678E+02  0.00000000000E+00 0.  1.
</event>
<event>
 7    1  0.3851772E-009  0.4778727E+02  0.7816164E-02  0.1312668E+00
        -11   -1    0    0    0    0  0.00000000000E+00  0.00000000000E+00  0.45593999997E+02  0.45594000000E+02  0.51100000000E-03 0.  1.
         11   -1    0    0    0    0 -0.00000000000E+00 -0.00000000000E+00 -0.45593999997E+02  0.45594000000E+02  0.51100000000E-03 0. -1.
    9900012    2    1    2    0    0 -0.38370495647E+02 -0.15801512246E+02  0.12713792437E+02  0.47787271393E+02  0.20000001588E+02 0.  0.
         12    1    1    2    0    0  0.38370495647E+02  0.15801512246E+02 -0.12713792437E+02  0.43400728607E+02  0.00000000000E+00 0. -1.
         11    1    3    3    0    0 -0.14508073545E+02 -0.13105994207E+02  0.10565320021E+02  0.22223349647E+02  0.51100000000E-03 0. -1.
        -11    1    3    3    0    0 -0.23501752191E+02 -0.22339695865E+01  0.37088246116E+01  0.23897245792E+02  0.51100000000E-03 0.  1.
         12    1    3    3    0    0 -0.36066991104E+00 -0.46154845285E+00 -0.15603521956E+01  0.16666759533E+01  0.00000000000E+00 0. -1.
</event>
<event>
 7    1  0.3851772E-009  0.4778727E+02  0.7816164E-02  0.1312668E+00
        -11   -1    0    0    0    0  0.00000000000E+00  0.00000000000E+00  0.45593999997E+02  0.45594000000E+02  0.51100000000E-03 0.  1.
         11   -1    0    0    0    0 -0.00000000000E+00 -0.00000000000E+00 -0.45593999997E+02  0.45594000000E+02  0.51100000000E-03 0. -1.
    9900012    2    1    2    0    0  0.38553126891E+02  0.13468866133E+02  0.14692509579E+02  0.47787265148E+02  0.19999973115E+02 0.  0.
         12    1    1    2    0    0 -0.38553126891E+02 -0.13468866133E+02 -0.14692509579E+02  0.43400734852E+02  0.00000000000E+00 0. -1.
         11    1    3    3    0    0  0.22090368671E+01  0.21672252142E+01  0.68867414993E+01  0.75500938901E+01  0.51100000000E-03 0. -1.
        -11    1    3    3    0    0  0.25903754578E+02  0.12845397653E+02  0.54315170777E+01  0.29419553364E+02  0.51100000000E-03 0.  1.
         12    1    3    3    0    0  0.10440335446E+02 -0.15437567343E+01  0.23742510021E+01  0.10817617894E+02  0.00000000000E+00 0. -1.
</event>
<event>
 7    1  0.3851772E-009  0.4778727E+02  0.7816164E-02  0.1312668E+00
        -11   -1    0    0    0    0  0.00000000000E+00  0.00000000000E+00  0.45593999997E+02  0.45594000000E+02  0.51100000000E-03 0. -1.
         11   -1    0    0    0    0 -0.00000000000E+00 -0.00000000000E+00 -0.45593999997E+02  0.45594000000E+02  0.51100000000E-03 0.  1.
    9900012    2    1    2    0    0 -0.10808384733E+02  0.19620670053E+02 -0.37172989630E+02  0.47787273832E+02  0.20000012711E+02 0.  0.
         12    1    1    2    0    0  0.10808384733E+02 -0.19620670053E+02  0.37172989630E+02  0.43400726168E+02  0.00000000000E+00 0. -1.
         11    1    3    3    0    0 -0.32363707155E+00  0.10500625311E+02 -0.67195762852E+01  0.12470789013E+02  0.51100000000E-03 0. -1.
        -11    1    3    3    0    0 -0.92876926796E+01  0.12999854131E+01 -0.11933291621E+02  0.15177438735E+02  0.51100000000E-03 0.  1.
        -12    1    3    3    0    0 -0.11970549813E+01  0.78200593283E+01 -0.18520121724E+02  0.20139046085E+02  0.00000000000E+00 0.  1.
</event>
<event>
 7    1  0.3851772E-009  0.4778727E+02  0.7816164E-02  0.1312668E+00
        -11   -1    0    0    0    0  0.00000000000E+00  0.00000000000E+00  0.45593999997E+02  0.45594000000E+02  0.51100000000E-03 0. -1.
         11   -1    0    0    0    0 -0.00000000000E+00 -0.00000000000E+00 -0.45593999997E+02  0.45594000000E+02  0.51100000000E-03 0.  1.
    9900012    2    1    2    0    0 -0.38873612960E+02 -0.19156715492E+02  0.23421041256E+01  0.47787274375E+02  0.20000015186E+02 0.  0.
         12    1    1    2    0    0  0.38873612960E+02  0.19156715492E+02 -0.23421041256E+01  0.43400725625E+02  0.00000000000E+00 0. -1.
         11    1    3    3    0    0 -0.23105211240E+01 -0.34662019726E+01  0.39609572683E+01  0.57482385756E+01  0.51100000000E-03 0. -1.
        -11    1    3    3    0    0 -0.15249400050E+02 -0.54277536249E+01  0.58825338265E+01  0.17222337698E+02  0.51100000000E-03 0.  1.
         12    1    3    3    0    0 -0.21313691787E+02 -0.10262759894E+02 -0.75013869692E+01  0.24816698102E+02  0.00000000000E+00 0. -1.
</event>
<event>
 7    1  0.3851772E-009  0.4778728E+02  0.7816164E-02  0.1312668E+00
        -11   -1    0    0    0    0  0.00000000000E+00  0.00000000000E+00  0.45593999997E+02  0.45594000000E+02  0.51100000000E-03 0.  1.
         11   -1    0    0    0    0 -0.00000000000E+00 -0.00000000000E+00 -0.45593999997E+02  0.45594000000E+02  0.51100000000E-03 0. -1.
    9900012    2    1    2    0    0  0.19684550138E+02 -0.30890376309E+02  0.23279303322E+02  0.47787276206E+02  0.20000023535E+02 0.  0.
         12    1    1    2    0    0 -0.19684550138E+02  0.30890376309E+02 -0.23279303322E+02  0.43400723794E+02  0.00000000000E+00 0. -1.
         11    1    3    3    0    0 -0.16996974688E+00 -0.39833017765E+01  0.63984820166E+01  0.75389757352E+01  0.51100000000E-03 0. -1.
        -11    1    3    3    0    0  0.16964035360E+02 -0.28476188188E+02  0.14452291676E+02  0.36159929817E+02  0.51100000000E-03 0.  1.
        -12    1    3    3    0    0  0.28904845249E+01  0.15691136547E+01  0.24285296292E+01  0.40883706546E+01  0.00000000000E+00 0.  1.
</event>
<event>
 7    1  0.3851772E-009  0.4778727E+02  0.7816164E-02  0.1312668E+00
        -11   -1    0    0    0    0  0.00000000000E+00  0.00000000000E+00  0.45593999997E+02  0.45594000000E+02  0.51100000000E-03 0.  1.
         11   -1    0    0    0    0 -0.00000000000E+00 -0.00000000000E+00 -0.45593999997E+02  0.45594000000E+02  0.51100000000E-03 0. -1.
    9900012    2    1    2    0    0 -0.10330063193E+02  0.53692089656E+01  0.41810100970E+02  0.47787272430E+02  0.20000006315E+02 0.  0.
         12    1    1    2    0    0  0.10330063193E+02 -0.53692089656E+01 -0.41810100970E+02  0.43400727570E+02  0.00000000000E+00 0. -1.
         11    1    3    3    0    0 -0.52632516330E+01  0.41466927939E+01  0.97595529655E+01  0.11838317162E+02  0.51100000000E-03 0. -1.
        -11    1    3    3    0    0  0.13980305923E+01  0.62689585245E+01  0.22306963191E+02  0.23213249182E+02  0.51100000000E-03 0.  1.
        -12    1    3    3    0    0 -0.64648421523E+01 -0.50464423528E+01  0.97435848144E+01  0.12735706086E+02  0.00000000000E+00 0.  1.
</event>
<event>
 7    1  0.3851772E-009  0.4778727E+02  0.7816164E-02  0.1312668E+00
        -11   -1    0    0    0    0  0.00000000000E+00  0.00000000000E+00  0.45593999997E+02  0.45594000000E+02  0.51100000000E-03 0.  1.
         11   -1    0    0    0    0 -0.00000000000E+00 -0.00000000000E+00 -0.45593999997E+02  0.45594000000E+02  0.51100000000E-03 0. -1.
    9900012    2    1    2    0    0  0.95477482477E-01 -0.16307850320E+02  0.40220247826E+02  0.47787269210E+02  0.19999991634E+02 0.  0.
         12    1    1    2    0    0 -0.95477482477E-01  0.16307850320E+02 -0.40220247826E+02  0.43400730790E+02  0.00000000000E+00 0. -1.
         11    1    3    3    0    0 -0.40556527975E+01  0.20814014875E+00  0.71394066273E+01  0.82135722549E+01  0.51100000000E-03 0. -1.
        -11    1    3    3    0    0 -0.29898046929E+01 -0.19878278523E+01  0.14463896742E+02  0.14902842041E+02  0.51100000000E-03 0.  1.
         12    1    3    3    0    0  0.71409349728E+01 -0.14528162616E+02  0.18616944457E+02  0.24670854914E+02  0.00000000000E+00 0. -1.
</event>
<event>
 7    1  0.3851772E-009  0.4778725E+02  0.7816164E-02  0.1312668E+00
        -11   -1    0    0    0    0  0.00000000000E+00  0.00000000000E+00  0.45593999997E+02  0.45594000000E+02  0.51100000000E-03 0. -1.
         11   -1    0    0    0    0 -0.00000000000E+00 -0.00000000000E+00 -0.45593999997E+02  0.45594000000E+02  0.51100000000E-03 0.  1.
    9900012    2    1    2    0    0  0.42302151431E+02 -0.86478322562E+01  0.44008923788E+01  0.47787252631E+02  0.19999916048E+02 0.  0.
         12    1    1    2    0    0 -0.42302151431E+02  0.86478322562E+01 -0.44008923788E+01  0.43400747369E+02  0.00000000000E+00 0. -1.
         11    1    3    3    0    0  0.11421725034E+02 -0.11898862276E+01  0.40065235119E+01  0.12162395443E+02  0.51100000000E-03 0. -1.
        -11    1    3    3    0    0  0.69751938919E+01  0.26006427292E+01  0.54185748578E+01  0.92074766460E+01  0.51100000000E-03 0.  1.
        -12    1    3    3    0    0  0.23905232505E+02 -0.10058588758E+02 -0.50242059910E+01  0.26417380543E+02  0.00000000000E+00 0.  1.
</event>
<event>
 7    1  0.3851772E-009  0.4778727E+02  0.7816164E-02  0.1312668E+00
        -11   -1    0    0    0    0  0.00000000000E+00  0.00000000000E+00  0.45593999997E+02  0.45594000000E+02  0.51100000000E-03 0. -1.
         11   -1    0    0    0    0 -0.00000000000E+00 -0.00000000000E+00 -0.45593999997E+02  0.45594000000E+02  0.51100000000E-03 0.  1.
    9900012    2    1    2    0    0  0.39467832565E+02 -0.16901864398E+02 -0.63435570164E+01  0.47787267942E+02  0.19999985855E+02 0.  0.
         12    1    1    2    0    0 -0.39467832565E+02  0.16901864398E+02  0.63435570164E+01  0.43400732058E+02  0.00000000000E+00 0. -1.
         11    1    3    3    0    0  0.53139195675E+00  0.30608941856E+01 -0.12943410731E+01  0.33655266604E+01  0.51100000000E-03 0. -1.
        -11    1    3    3    0    0  0.20166576287E+02 -0.74196762879E+01 -0.12078075583E+01  0.21522109440E+02  0.51100000000E-03 0.  1.
         12    1    3    3    0    0  0.18769864321E+02 -0.12543082296E+02 -0.38414083851E+01  0.22899631842E+02  0.00000000000E+00 0. -1.
</event>
<event>
 7    1  0.3851772E-009  0.4778730E+02  0.7816164E-02  0.1312668E+00
        -11   -1    0    0    0    0  0.00000000000E+00  0.00000000000E+00  0.45593999997E+02  0.45594000000E+02  0.51100000000E-03 0.  1.
         11   -1    0    0    0    0 -0.00000000000E+00 -0.00000000000E+00 -0.45593999997E+02  0.45594000000E+02  0.51100000000E-03 0. -1.
    9900012    2    1    2    0    0 -0.38511124326E+02  0.81138538376E+00  0.19996396233E+02  0.47787298331E+02  0.20000124409E+02 0.  0.
         12    1    1    2    0    0  0.38511124326E+02 -0.81138538376E+00 -0.19996396233E+02  0.43400701669E+02  0.00000000000E+00 0. -1.
         11    1    3    3    0    0 -0.23420241154E+02 -0.74172815773E+01  0.12684600590E+02  0.27648198027E+02  0.51100000000E-03 0. -1.
        -11    1    3    3    0    0 -0.11811935120E+01 -0.14093598249E+01  0.83340919478E+00  0.20189314937E+01  0.51100000000E-03 0.  1.
         12    1    3    3    0    0 -0.13909689660E+02  0.96380267860E+01  0.64783864475E+01  0.18120168810E+02  0.00000000000E+00 0. -1.
</event>
<event>
 7    1  0.3851772E-009  0.4778727E+02  0.7816164E-02  0.1312668E+00
        -11   -1    0    0    0    0  0.00000000000E+00  0.00000000000E+00  0.45593999997E+02  0.45594000000E+02  0.51100000000E-03 0.  1.
         11   -1    0    0    0    0 -0.00000000000E+00 -0.00000000000E+00 -0.45593999997E+02  0.45594000000E+02  0.51100000000E-03 0. -1.
    9900012    2    1    2    0    0  0.15652792740E+02  0.22156520249E+02  0.33877754208E+02  0.47787267975E+02  0.19999986005E+02 0.  0.
         12    1    1    2    0    0 -0.15652792740E+02 -0.22156520249E+02 -0.33877754208E+02  0.43400732025E+02  0.00000000000E+00 0. -1.
         11    1    3    3    0    0  0.55887975614E+01  0.38224605693E+01  0.24857438228E+00  0.67755186127E+01  0.51100000000E-03 0. -1.
        -11    1    3    3    0    0 -0.17077161948E+01  0.76647080756E+00  0.98132305842E+00  0.21134728073E+01  0.51100000000E-03 0.  1.
         12    1    3    3    0    0  0.11771711373E+02  0.17567588872E+02  0.32647856767E+02  0.38898276555E+02  0.00000000000E+00 0. -1.
</event>
<event>
 7    1  0.3851772E-009  0.4778727E+02  0.7816164E-02  0.1312668E+00
        -11   -1    0    0    0    0  0.00000000000E+00  0.00000000000E+00  0.45593999997E+02  0.45594000000E+02  0.51100000000E-03 0. -1.
         11   -1    0    0    0    0 -0.00000000000E+00 -0.00000000000E+00 -0.45593999997E+02  0.45594000000E+02  0.51100000000E-03 0.  1.
    9900012    2    1    2    0    0  0.28485916117E+01 -0.43150796764E+02  0.36766242999E+01  0.47787270723E+02  0.19999998535E+02 0.  0.
         12    1    1    2    0    0 -0.28485916117E+01  0.43150796764E+02 -0.36766242999E+01  0.43400729277E+02  0.00000000000E+00 0. -1.
         11    1    3    3    0    0 -0.46732601923E+01 -0.16164923341E+02  0.42925768632E+01  0.17365780254E+02  0.51100000000E-03 0.  1.
        -11    1    3    3    0    0  0.85724703362E+01 -0.14493201826E+02  0.35535898333E+01  0.17209536536E+02  0.51100000000E-03 0. -1.
         12    1    3    3    0    0 -0.10506185322E+01 -0.12492671597E+02 -0.41695423966E+01  0.13211953933E+02  0.00000000000E+00 0. -1.
</event>
<event>
 7    1  0.3851772E-009  0.4778724E+02  0.7816164E-02  0.1312668E+00
        -11   -1    0    0    0    0  0.00000000000E+00  0.00000000000E+00  0.45593999997E+02  0.45594000000E+02  0.51100000000E-03 0.  1.
         11   -1    0    0    0    0 -0.00000000000E+00 -0.00000000000E+00 -0.45593999997E+02  0.45594000000E+02  0.51100000000E-03 0. -1.
    9900012    2    1    2    0    0  0.18852917484E+02 -0.51491488048E+01  0.38751507804E+02  0.47787244383E+02  0.19999878439E+02 0.  0.
         12    1    1    2    0    0 -0.18852917484E+02  0.51491488048E+01 -0.38751507804E+02  0.43400755617E+02  0.00000000000E+00 0. -1.
         11    1    3    3    0    0  0.56568476119E+01 -0.81406915294E+01  0.10008011475E+02  0.14086556621E+02  0.51100000000E-03 0. -1.
        -11    1    3    3    0    0  0.45462193731E+01  0.64007259924E+01  0.16975558257E+02  0.18703127605E+02  0.51100000000E-03 0.  1.
        -12    1    3    3    0    0  0.86498504992E+01 -0.34091832678E+01  0.11767938072E+02  0.14997560157E+02  0.00000000000E+00 0.  1.
</event>
<event>
 7    1  0.3851772E-009  0.4778727E+02  0.7816164E-02  0.1312668E+00
        -11   -1    0    0    0    0  0.00000000000E+00  0.00000000000E+00  0.45593999997E+02  0.45594000000E+02  0.51100000000E-03 0.  1.
         11   -1    0    0    0    0 -0.00000000000E+00 -0.00000000000E+00 -0.45593999997E+02  0.45594000000E+02  0.51100000000E-03 0. -1.
    9900012    2    1    2    0    0  0.32936348323E+02  0.79161672869E+01  0.27132163265E+02  0.47787273868E+02  0.20000012873E+02 0.  0.
         12    1    1    2    0    0 -0.32936348323E+02 -0.79161672869E+01 -0.27132163265E+02  0.43400726132E+02  0.00000000000E+00 0. -1.
         11    1    3    3    0    0  0.15768304515E+02  0.25882506790E+01  0.15951927500E+02  0.22578805550E+02  0.51100000000E-03 0. -1.
        -11    1    3    3    0    0  0.15491405747E+02  0.20121919119E+01  0.13651632923E+02  0.20746075533E+02  0.51100000000E-03 0.  1.
         12    1    3    3    0    0  0.16766380619E+01  0.33157246959E+01 -0.24713971582E+01  0.44623927846E+01  0.00000000000E+00 0. -1.
</event>
<event>
 7    1  0.3851772E-009  0.4778728E+02  0.7816164E-02  0.1312668E+00
        -11   -1    0    0    0    0  0.00000000000E+00  0.00000000000E+00  0.45593999997E+02  0.45594000000E+02  0.51100000000E-03 0.  1.
         11   -1    0    0    0    0 -0.00000000000E+00 -0.00000000000E+00 -0.45593999997E+02  0.45594000000E+02  0.51100000000E-03 0. -1.
    9900012    2    1    2    0    0 -0.15951418300E+02  0.23513126109E+02  0.32807129613E+02  0.47787278823E+02  0.20000035467E+02 0.  0.
         12    1    1    2    0    0  0.15951418300E+02 -0.23513126109E+02 -0.32807129613E+02  0.43400721177E+02  0.00000000000E+00 0. -1.
         11    1    3    3    0    0 -0.39829097683E+00 -0.11032694089E+01 -0.35386837213E+00  0.12251784265E+01  0.51100000000E-03 0. -1.
        -11    1    3    3    0    0 -0.76885161865E+01  0.15603632128E+02  0.89615152123E+01  0.19567712485E+02  0.51100000000E-03 0.  1.
        -12    1    3    3    0    0 -0.78646111369E+01  0.90127633900E+01  0.24199482773E+02  0.26994387912E+02  0.00000000000E+00 0.  1.
</event>
<event>
 7    1  0.3851772E-009  0.4778727E+02  0.7816164E-02  0.1312668E+00
        -11   -1    0    0    0    0  0.00000000000E+00  0.00000000000E+00  0.45593999997E+02  0.45594000000E+02  0.51100000000E-03 0. -1.
         11   -1    0    0    0    0 -0.00000000000E+00 -0.00000000000E+00 -0.45593999997E+02  0.45594000000E+02  0.51100000000E-03 0.  1.
    9900012    2    1    2    0    0 -0.36061556234E+02 -0.91564682746E+01 -0.22346068203E+02  0.47787268285E+02  0.19999987418E+02 0.  0.
         12    1    1    2    0    0  0.36061556234E+02  0.91564682746E+01  0.22346068203E+02  0.43400731715E+02  0.00000000000E+00 0. -1.
         11    1    3    3    0    0  0.48105030117E+00  0.95469168513E+00 -0.22642624564E+01  0.25039429583E+01  0.51100000000E-03 0. -1.
        -11    1    3    3    0    0 -0.37933169480E+01  0.34368678392E+01 -0.30955608158E+01  0.59819571244E+01  0.51100000000E-03 0.  1.
         12    1    3    3    0    0 -0.32749289587E+02 -0.13548027799E+02 -0.16986244931E+02  0.39301368202E+02  0.00000000000E+00 0. -1.
</event>
<event>
 7    1  0.3851772E-009  0.4778727E+02  0.7816164E-02  0.1312668E+00
        -11   -1    0    0    0    0  0.00000000000E+00  0.00000000000E+00  0.45593999997E+02  0.45594000000E+02  0.51100000000E-03 0.  1.
         11   -1    0    0    0    0 -0.00000000000E+00 -0.00000000000E+00 -0.45593999997E+02  0.45594000000E+02  0.51100000000E-03 0. -1.
    9900012    2    1    2    0    0 -0.24424794099E+02 -0.51742463750E+01  0.35500421621E+02  0.47787270425E+02  0.19999997178E+02 0.  0.
         12    1    1    2    0    0  0.24424794099E+02  0.51742463750E+01 -0.35500421621E+02  0.43400729575E+02  0.00000000000E+00 0. -1.
         11    1    3    3    0    0 -0.52679250630E+01  0.46339134216E+01  0.16730381628E+02  0.18141936438E+02  0.51100000000E-03 0. -1.
        -11    1    3    3    0    0  0.34747817849E+00 -0.18310478389E+01  0.12931395042E+01  0.22684107457E+01  0.51100000000E-03 0.  1.
         12    1    3    3    0    0 -0.19504347215E+02 -0.79771119578E+01  0.17476900489E+02  0.27376923241E+02  0.00000000000E+00 0. -1.
</event>
<event>
 7    1  0.3851772E-009  0.4778722E+02  0.7816164E-02  0.1312668E+00
        -11   -1    0    0    0    0  0.00000000000E+00  0.00000000000E+00  0.45593999997E+02  0.45594000000E+02  0.51100000000E-03 0. -1.
         11   -1    0    0    0    0 -0.00000000000E+00 -0.00000000000E+00 -0.45593999997E+02  0.45594000000E+02  0.51100000000E-03 0.  1.
    9900012    2    1    2    0    0 -0.31457904973E+02  0.96200420949E+01  0.28310467549E+02  0.47787221574E+02  0.19999774442E+02 0.  0.
         12    1    1    2    0    0  0.31457904973E+02 -0.96200420949E+01 -0.28310467549E+02  0.43400778426E+02  0.00000000000E+00 0. -1.
         11    1    3    3    0    0 -0.11690332551E+02 -0.44391553565E+01  0.14171044472E+02  0.18899430603E+02  0.51100000000E-03 0. -1.
        -11    1    3    3    0    0 -0.15552221656E+02  0.13716201478E+02  0.13116124671E+02  0.24536473016E+02  0.51100000000E-03 0.  1.
        -12    1    3    3    0    0 -0.42153507657E+01  0.34299597324E+00  0.10232984062E+01  0.43513179548E+01  0.00000000000E+00 0.  1.
</event>
<event>
 7    1  0.3851772E-009  0.4778728E+02  0.7816164E-02  0.1312668E+00
        -11   -1    0    0    0    0  0.00000000000E+00  0.00000000000E+00  0.45593999997E+02  0.45594000000E+02  0.51100000000E-03 0.  1.
         11   -1    0    0    0    0 -0.00000000000E+00 -0.00000000000E+00 -0.45593999997E+02  0.45594000000E+02  0.51100000000E-03 0. -1.
    9900012    2    1    2    0    0 -0.30415859663E+01  0.15339274450E+02  0.40485524893E+02  0.47787282129E+02  0.20000050538E+02 0.  0.
         12    1    1    2    0    0  0.30415859663E+01 -0.15339274450E+02 -0.40485524893E+02  0.43400717871E+02  0.00000000000E+00 0. -1.
         11    1    3    3    0    0  0.81492357242E+00 -0.17619699270E+01  0.10837678751E+01  0.22233289277E+01  0.51100000000E-03 0. -1.
        -11    1    3    3    0    0 -0.32249592808E+01  0.13357981223E+02  0.13085865870E+02  0.18975666274E+02  0.51100000000E-03 0.  1.
        -12    1    3    3    0    0 -0.63155025798E+00  0.37432631542E+01  0.26315891149E+02  0.26588286927E+02  0.00000000000E+00 0.  1.
</event>
<event>
 7    1  0.3851772E-009  0.4778726E+02  0.7816164E-02  0.1312668E+00
        -11   -1    0    0    0    0  0.00000000000E+00  0.00000000000E+00  0.45593999997E+02  0.45594000000E+02  0.51100000000E-03 0. -1.
         11   -1    0    0    0    0 -0.00000000000E+00 -0.00000000000E+00 -0.45593999997E+02  0.45594000000E+02  0.51100000000E-03 0.  1.
    9900012    2    1    2    0    0 -0.40141251072E+02  0.16460528914E+02 -0.11640321897E+01  0.47787262441E+02  0.19999960773E+02 0.  0.
         12    1    1    2    0    0  0.40141251072E+02 -0.16460528914E+02  0.11640321897E+01  0.43400737559E+02  0.00000000000E+00 0. -1.
         11    1    3    3    0    0 -0.56063359033E+01  0.12556521681E+01 -0.63230228302E+01  0.85433180089E+01  0.51100000000E-03 0. -1.
        -11    1    3    3    0    0 -0.33765364018E+02  0.12462577704E+02  0.53591901090E+01  0.36388687379E+02  0.51100000000E-03 0.  1.
        -12    1    3    3    0    0 -0.76955115032E+00  0.27422990421E+01 -0.20019946848E+00  0.28552570526E+01  0.00000000000E+00 0.  1.
</event>
<event>
 7    1  0.3851772E-009  0.4778729E+02  0.7816164E-02  0.1312668E+00
        -11   -1    0    0    0    0  0.00000000000E+00  0.00000000000E+00  0.45593999997E+02  0.45594000000E+02  0.51100000000E-03 0.  1.
         11   -1    0    0    0    0 -0.00000000000E+00 -0.00000000000E+00 -0.45593999997E+02  0.45594000000E+02  0.51100000000E-03 0. -1.
    9900012    2    1    2    0    0  0.13911134400E+02  0.39475033337E+02  0.11481437775E+02  0.47787293432E+02  0.20000102074E+02 0.  0.
         12    1    1    2    0    0 -0.13911134400E+02 -0.39475033337E+02 -0.11481437775E+02  0.43400706568E+02  0.00000000000E+00 0. -1.
         11    1    3    3    0    0  0.71740125388E+00  0.41216481608E+01 -0.13457718166E+01  0.43947411942E+01  0.51100000000E-03 0. -1.
        -11    1    3    3    0    0 -0.37223034589E+01  0.92615211223E+01  0.56859933250E+01  0.11487464337E+02  0.51100000000E-03 0.  1.
        -12    1    3    3    0    0  0.16916036605E+02  0.26091864053E+02  0.71412162663E+01  0.31905087901E+02  0.00000000000E+00 0.  1.
</event>
<event>
 7    1  0.3851772E-009  0.4778727E+02  0.7816164E-02  0.1312668E+00
        -11   -1    0    0    0    0  0.00000000000E+00  0.00000000000E+00  0.45593999997E+02  0.45594000000E+02  0.51100000000E-03 0. -1.
         11   -1    0    0    0    0 -0.00000000000E+00 -0.00000000000E+00 -0.45593999997E+02  0.45594000000E+02  0.51100000000E-03 0.  1.
    9900012    2    1    2    0    0 -0.29386094182E+02 -0.91269642492E+01 -0.30606855702E+02  0.47787267015E+02  0.19999981630E+02 0.  0.
         12    1    1    2    0    0  0.29386094182E+02  0.91269642492E+01  0.30606855702E+02  0.43400732985E+02  0.00000000000E+00 0. -1.
         11    1    3    3    0    0 -0.84340247879E+01 -0.30660587292E+01 -0.29572951080E+00  0.89789167753E+01  0.51100000000E-03 0. -1.
        -11    1    3    3    0    0 -0.10534960273E+02 -0.82304145083E+01 -0.19468902039E+02  0.23617012042E+02  0.51100000000E-03 0.  1.
        -12    1    3    3    0    0 -0.10417109121E+02  0.21695089883E+01 -0.10842224152E+02  0.15191338198E+02  0.00000000000E+00 0.  1.
</event>
<event>
 7    1  0.3851772E-009  0.4778727E+02  0.7816164E-02  0.1312668E+00
        -11   -1    0    0    0    0  0.00000000000E+00  0.00000000000E+00  0.45593999997E+02  0.45594000000E+02  0.51100000000E-03 0.  1.
         11   -1    0    0    0    0 -0.00000000000E+00 -0.00000000000E+00 -0.45593999997E+02  0.45594000000E+02  0.51100000000E-03 0. -1.
    9900012    2    1    2    0    0 -0.16625453927E+02 -0.39972294947E+02  0.30713814396E+01  0.47787268836E+02  0.19999989930E+02 0.  0.
         12    1    1    2    0    0  0.16625453927E+02  0.39972294947E+02 -0.30713814396E+01  0.43400731164E+02  0.00000000000E+00 0. -1.
         11    1    3    3    0    0  0.16575629052E+01 -0.79228724978E+01 -0.81770961317E+00  0.81356052432E+01  0.51100000000E-03 0. -1.
        -11    1    3    3    0    0 -0.14149494226E+02 -0.22908432828E+02  0.90031708720E+01  0.28391223424E+02  0.51100000000E-03 0.  1.
        -12    1    3    3    0    0 -0.41335226064E+01 -0.91409896218E+01 -0.51140798192E+01  0.11260440169E+02  0.00000000000E+00 0.  1.
</event>
<event>
 7    1  0.3851772E-009  0.4778726E+02  0.7816164E-02  0.1312668E+00
        -11   -1    0    0    0    0  0.00000000000E+00  0.00000000000E+00  0.45593999997E+02  0.45594000000E+02  0.51100000000E-03 0. -1.
         11   -1    0    0    0    0 -0.00000000000E+00 -0.00000000000E+00 -0.45593999997E+02  0.45594000000E+02  0.51100000000E-03 0.  1.
    9900012    2    1    2    0    0  0.10060814743E+02  0.27645470476E+02 -0.31908179336E+02  0.47787263374E+02  0.19999965027E+02 0.  0.
         12    1    1    2    0    0 -0.10060814743E+02 -0.27645470476E+02  0.31908179336E+02  0.43400736626E+02  0.00000000000E+00 0. -1.
         11    1    3    3    0    0 -0.37276307144E+01  0.11990534484E+02 -0.14438227490E+02  0.19134538439E+02  0.51100000000E-03 0. -1.
        -11    1    3    3    0    0  0.13394256055E+02  0.13963145275E+02 -0.11664222870E+02  0.22592689452E+02  0.51100000000E-03 0.  1.
         12    1    3    3    0    0  0.39418940202E+00  0.16917907169E+01 -0.58057289758E+01  0.60600354830E+01  0.00000000000E+00 0. -1.
</event>
<event>
 7    1  0.3851772E-009  0.4778727E+02  0.7816164E-02  0.1312668E+00
        -11   -1    0    0    0    0  0.00000000000E+00  0.00000000000E+00  0.45593999997E+02  0.45594000000E+02  0.51100000000E-03 0.  1.
         11   -1    0    0    0    0 -0.00000000000E+00 -0.00000000000E+00 -0.45593999997E+02  0.45594000000E+02  0.51100000000E-03 0. -1.
    9900012    2    1    2    0    0  0.40590146601E+02  0.95193928627E+01  0.12060021438E+02  0.47787274676E+02  0.20000016557E+02 0.  0.
         12    1    1    2    0    0 -0.40590146601E+02 -0.95193928627E+01 -0.12060021438E+02  0.43400725324E+02  0.00000000000E+00 0. -1.
         11    1    3    3    0    0  0.10727873084E+02  0.10101750501E+02 -0.37816826178E+00  0.14740272575E+02  0.51100000000E-03 0. -1.
        -11    1    3    3    0    0  0.16315759058E+02 -0.34911734412E+01  0.79550358987E+01  0.18484449736E+02  0.51100000000E-03 0.  1.
        -12    1    3    3    0    0  0.13546514459E+02  0.29088158025E+01  0.44831538007E+01  0.14562552365E+02  0.00000000000E+00 0.  1.
</event>
<event>
 7    1  0.3851772E-009  0.4778728E+02  0.7816164E-02  0.1312668E+00
        -11   -1    0    0    0    0  0.00000000000E+00  0.00000000000E+00  0.45593999997E+02  0.45594000000E+02  0.51100000000E-03 0. -1.
         11   -1    0    0    0    0 -0.00000000000E+00 -0.00000000000E+00 -0.45593999997E+02  0.45594000000E+02  0.51100000000E-03 0.  1.
    9900012    2    1    2    0    0 -0.21436378579E+02  0.24321815255E+00 -0.37736523791E+02  0.47787277546E+02  0.20000029645E+02 0.  0.
         12    1    1    2    0    0  0.21436378579E+02 -0.24321815255E+00  0.37736523791E+02  0.43400722454E+02  0.00000000000E+00 0. -1.
         11    1    3    3    0    0 -0.77074750554E+01 -0.78948409696E+01 -0.10692271031E+02  0.15364190370E+02  0.51100000000E-03 0. -1.
        -11    1    3    3    0    0 -0.11963559579E+02  0.29229423327E+01 -0.19914625944E+02  0.23415009640E+02  0.51100000000E-03 0.  1.
         12    1    3    3    0    0 -0.17653439451E+01  0.52151167895E+01 -0.71296268156E+01  0.90080775365E+01  0.00000000000E+00 0. -1.
</event>
<event>
 7    1  0.3851772E-009  0.4778728E+02  0.7816164E-02  0.1312668E+00
        -11   -1    0    0    0    0  0.00000000000E+00  0.00000000000E+00  0.45593999997E+02  0.45594000000E+02  0.51100000000E-03 0. -1.
         11   -1    0    0    0    0 -0.00000000000E+00 -0.00000000000E+00 -0.45593999997E+02  0.45594000000E+02  0.51100000000E-03 0.  1.
    9900012    2    1    2    0    0 -0.42113633495E+02  0.54810127645E+01  0.89455538900E+01  0.47787279251E+02  0.20000037419E+02 0.  0.
         12    1    1    2    0    0  0.42113633495E+02 -0.54810127645E+01 -0.89455538900E+01  0.43400720749E+02  0.00000000000E+00 0. -1.
         11    1    3    3    0    0 -0.18067792745E+02 -0.13187124957E+01  0.85781726288E+01  0.20044180783E+02  0.51100000000E-03 0.  1.
        -11    1    3    3    0    0 -0.16440753157E+02  0.99023066491E+01  0.22278355320E+01  0.19321420568E+02  0.51100000000E-03 0. -1.
         12    1    3    3    0    0 -0.76050875932E+01 -0.31025813890E+01 -0.18604542708E+01  0.84216779011E+01  0.00000000000E+00 0. -1.
</event>
<event>
 7    1  0.3851772E-009  0.4778727E+02  0.7816164E-02  0.1312668E+00
        -11   -1    0    0    0    0  0.00000000000E+00  0.00000000000E+00  0.45593999997E+02  0.45594000000E+02  0.51100000000E-03 0.  1.
         11   -1    0    0    0    0 -0.00000000000E+00 -0.00000000000E+00 -0.45593999997E+02  0.45594000000E+02  0.51100000000E-03 0. -1.
    9900012    2    1    2    0    0 -0.26497657190E+02  0.58424828629E+00  0.34367949759E+02  0.47787272434E+02  0.20000006335E+02 0.  0.
         12    1    1    2    0    0  0.26497657190E+02 -0.58424828629E+00 -0.34367949759E+02  0.43400727566E+02  0.00000000000E+00 0. -1.
         11    1    3    3    0    0 -0.10493250544E+01  0.24841091599E+01  0.10776992347E+02  0.11109250456E+02  0.51100000000E-03 0. -1.
        -11    1    3    3    0    0 -0.24644006082E+02 -0.47684872671E+01  0.20889211376E+02  0.32656158053E+02  0.51100000000E-03 0.  1.
        -12    1    3    3    0    0 -0.80432605300E+00  0.28686263935E+01  0.27017460369E+01  0.40218639252E+01  0.00000000000E+00 0.  1.
</event>
<event>
 7    1  0.3851772E-009  0.4778728E+02  0.7816164E-02  0.1312668E+00
        -11   -1    0    0    0    0  0.00000000000E+00  0.00000000000E+00  0.45593999997E+02  0.45594000000E+02  0.51100000000E-03 0.  1.
         11   -1    0    0    0    0 -0.00000000000E+00 -0.00000000000E+00 -0.45593999997E+02  0.45594000000E+02  0.51100000000E-03 0. -1.
    9900012    2    1    2    0    0  0.31016010758E+02  0.29204899896E+02  0.82887758918E+01  0.47787275271E+02  0.20000019269E+02 0.  0.
         12    1    1    2    0    0 -0.31016010758E+02 -0.29204899896E+02 -0.82887758918E+01  0.43400724729E+02  0.00000000000E+00 0. -1.
         11    1    3    3    0    0  0.15728405927E+02  0.44255730761E+01 -0.12302916654E+01  0.16385422421E+02  0.51100000000E-03 0. -1.
        -11    1    3    3    0    0  0.50298594361E+01  0.31865515852E+01  0.27354067891E+01  0.65525603786E+01  0.51100000000E-03 0.  1.
         12    1    3    3    0    0  0.10257745394E+02  0.21592775235E+02  0.67836607681E+01  0.24849292471E+02  0.00000000000E+00 0. -1.
</event>
<event>
 7    1  0.3851772E-009  0.4778721E+02  0.7816164E-02  0.1312668E+00
        -11   -1    0    0    0    0  0.00000000000E+00  0.00000000000E+00  0.45593999997E+02  0.45594000000E+02  0.51100000000E-03 0.  1.
         11   -1    0    0    0    0 -0.00000000000E+00 -0.00000000000E+00 -0.45593999997E+02  0.45594000000E+02  0.51100000000E-03 0. -1.
    9900012    2    1    2    0    0 -0.35679723203E+02  0.10157628907E+02  0.22525723153E+02  0.47787213413E+02  0.19999737231E+02 0.  0.
         12    1    1    2    0    0  0.35679723203E+02 -0.10157628907E+02 -0.22525723153E+02  0.43400786587E+02  0.00000000000E+00 0. -1.
         11    1    3    3    0    0 -0.26099186158E+02  0.21310021333E+01  0.22692775893E+02  0.34650696475E+02  0.51100000000E-03 0. -1.
        -11    1    3    3    0    0 -0.79968061981E+01  0.42935903603E+01 -0.26161736141E+00  0.90803233123E+01  0.51100000000E-03 0.  1.
         12    1    3    3    0    0 -0.15837308469E+01  0.37330364131E+01  0.94564621118E-01  0.40561936252E+01  0.00000000000E+00 0. -1.
</event>
<event>
 7    1  0.3851772E-009  0.4778727E+02  0.7816164E-02  0.1312668E+00
        -11   -1    0    0    0    0  0.00000000000E+00  0.00000000000E+00  0.45593999997E+02  0.45594000000E+02  0.51100000000E-03 0. -1.
         11   -1    0    0    0    0 -0.00000000000E+00 -0.00000000000E+00 -0.45593999997E+02  0.45594000000E+02  0.51100000000E-03 0.  1.
    9900012    2    1    2    0    0  0.36430071627E+01  0.32127620780E+02 -0.28951126252E+02  0.47787271557E+02  0.20000002335E+02 0.  0.
         12    1    1    2    0    0 -0.36430071627E+01 -0.32127620780E+02  0.28951126252E+02  0.43400728443E+02  0.00000000000E+00 0. -1.
         11    1    3    3    0    0  0.20411113065E+01  0.22818676948E+02 -0.27570387361E+02  0.35846679240E+02  0.51100000000E-03 0.  1.
        -11    1    3    3    0    0 -0.21017874523E+01  0.69113572688E+01  0.27252490088E+00  0.72290137553E+01  0.51100000000E-03 0. -1.
        -12    1    3    3    0    0  0.37036833085E+01  0.23975865631E+01 -0.16532637920E+01  0.47115785617E+01  0.00000000000E+00 0.  1.
</event>
<event>
 7    1  0.3851772E-009  0.4778724E+02  0.7816164E-02  0.1312668E+00
        -11   -1    0    0    0    0  0.00000000000E+00  0.00000000000E+00  0.45593999997E+02  0.45594000000E+02  0.51100000000E-03 0. -1.
         11   -1    0    0    0    0 -0.00000000000E+00 -0.00000000000E+00 -0.45593999997E+02  0.45594000000E+02  0.51100000000E-03 0.  1.
    9900012    2    1    2    0    0 -0.14665300640E+02  0.36601162030E+02 -0.18135864965E+02  0.47787243062E+02  0.19999872414E+02 0.  0.
         12    1    1    2    0    0  0.14665300640E+02 -0.36601162030E+02  0.18135864965E+02  0.43400756938E+02  0.00000000000E+00 0. -1.
         11    1    3    3    0    0 -0.11714546839E+02  0.17043346601E+02 -0.16026960459E+02  0.26164283533E+02  0.51100000000E-03 0. -1.
        -11    1    3    3    0    0 -0.36537389667E+01  0.18796168663E+02 -0.39116813651E+01  0.19543464796E+02  0.51100000000E-03 0.  1.
         12    1    3    3    0    0  0.70298516596E+00  0.76164676608E+00  0.18027768591E+01  0.20794947328E+01  0.00000000000E+00 0. -1.
</event>
<event>
 7    1  0.3851772E-009  0.4778727E+02  0.7816164E-02  0.1312668E+00
        -11   -1    0    0    0    0  0.00000000000E+00  0.00000000000E+00  0.45593999997E+02  0.45594000000E+02  0.51100000000E-03 0.  1.
         11   -1    0    0    0    0 -0.00000000000E+00 -0.00000000000E+00 -0.45593999997E+02  0.45594000000E+02  0.51100000000E-03 0. -1.
    9900012    2    1    2    0    0  0.18391467344E+02 -0.13607234899E+02  0.36881167890E+02  0.47787268928E+02  0.19999990349E+02 0.  0.
         12    1    1    2    0    0 -0.18391467344E+02  0.13607234899E+02 -0.36881167890E+02  0.43400731072E+02  0.00000000000E+00 0. -1.
         11    1    3    3    0    0 -0.23325356894E+01 -0.35719971947E+00  0.33999672686E+01  0.41386099201E+01  0.51100000000E-03 0. -1.
        -11    1    3    3    0    0  0.20421233507E+02 -0.86364044645E+01  0.21837557058E+02  0.31120622721E+02  0.51100000000E-03 0.  1.
        -12    1    3    3    0    0  0.30276952599E+00 -0.46136307146E+01  0.11643643564E+02  0.12528036286E+02  0.00000000000E+00 0.  1.
</event>
<event>
 7    1  0.3851772E-009  0.4778727E+02  0.7816164E-02  0.1312668E+00
        -11   -1    0    0    0    0  0.00000000000E+00  0.00000000000E+00  0.45593999997E+02  0.45594000000E+02  0.51100000000E-03 0.  1.
         11   -1    0    0    0    0 -0.00000000000E+00 -0.00000000000E+00 -0.45593999997E+02  0.45594000000E+02  0.51100000000E-03 0. -1.
    9900012    2    1    2    0    0  0.40938052935E+02 -0.14077705155E+02  0.30850078264E+01  0.47787271506E+02  0.20000002102E+02 0.  0.
         12    1    1    2    0    0 -0.40938052935E+02  0.14077705155E+02 -0.30850078264E+01  0.43400728494E+02  0.00000000000E+00 0. -1.
         11    1    3    3    0    0  0.82951200909E+01 -0.49468089503E+01  0.27164211048E+01  0.10032889912E+02  0.51100000000E-03 0. -1.
        -11    1    3    3    0    0  0.27842471512E+02 -0.54510446509E+01  0.65378552431E+01  0.29114612467E+02  0.51100000000E-03 0.  1.
        -12    1    3    3    0    0  0.48004613327E+01 -0.36798515541E+01 -0.61692685214E+01  0.86397691264E+01  0.00000000000E+00 0.  1.
</event>
<event>
 7    1  0.3851772E-009  0.4778728E+02  0.7816164E-02  0.1312668E+00
        -11   -1    0    0    0    0  0.00000000000E+00  0.00000000000E+00  0.45593999997E+02  0.45594000000E+02  0.51100000000E-03 0.  1.
         11   -1    0    0    0    0 -0.00000000000E+00 -0.00000000000E+00 -0.45593999997E+02  0.45594000000E+02  0.51100000000E-03 0. -1.
    9900012    2    1    2    0    0  0.13895112820E+02  0.23836769584E+02  0.33501598170E+02  0.47787276223E+02  0.20000023609E+02 0.  0.
         12    1    1    2    0    0 -0.13895112820E+02 -0.23836769584E+02 -0.33501598170E+02  0.43400723777E+02  0.00000000000E+00 0. -1.
         11    1    3    3    0    0  0.83362348138E+01  0.13087055137E+02  0.61619501838E+01  0.16695312317E+02  0.51100000000E-03 0. -1.
        -11    1    3    3    0    0  0.71676850321E+00  0.63011099043E+01  0.58825885258E+01  0.86500052681E+01  0.51100000000E-03 0.  1.
         12    1    3    3    0    0  0.48421095028E+01  0.44486045427E+01  0.21457059460E+02  0.22441958638E+02  0.00000000000E+00 0. -1.
</event>
<event>
 7    1  0.3851772E-009  0.4778727E+02  0.7816164E-02  0.1312668E+00
        -11   -1    0    0    0    0  0.00000000000E+00  0.00000000000E+00  0.45593999997E+02  0.45594000000E+02  0.51100000000E-03 0.  1.
         11   -1    0    0    0    0 -0.00000000000E+00 -0.00000000000E+00 -0.45593999997E+02  0.45594000000E+02  0.51100000000E-03 0. -1.
    9900012    2    1    2    0    0 -0.34497884229E+02  0.23547311166E+02  0.11791666198E+02  0.47787271076E+02  0.20000000142E+02 0.  0.
         12    1    1    2    0    0  0.34497884229E+02 -0.23547311166E+02 -0.11791666198E+02  0.43400728924E+02  0.00000000000E+00 0. -1.
         11    1    3    3    0    0 -0.32183284602E+02  0.22598287966E+02  0.70875322038E+01  0.39958472691E+02  0.51100000000E-03 0. -1.
        -11    1    3    3    0    0 -0.39802373180E+01  0.18122843190E+01  0.34757510374E+01  0.55863681489E+01  0.51100000000E-03 0.  1.
         12    1    3    3    0    0  0.16656376904E+01 -0.86326111930E+00  0.12283829566E+01  0.22424302361E+01  0.00000000000E+00 0. -1.
</event>
<event>
 7    1  0.3851772E-009  0.4778728E+02  0.7816164E-02  0.1312668E+00
        -11   -1    0    0    0    0  0.00000000000E+00  0.00000000000E+00  0.45593999997E+02  0.45594000000E+02  0.51100000000E-03 0.  1.
         11   -1    0    0    0    0 -0.00000000000E+00 -0.00000000000E+00 -0.45593999997E+02  0.45594000000E+02  0.51100000000E-03 0. -1.
    9900012    2    1    2    0    0 -0.11717967324E+01  0.32862631448E+02  0.28324851447E+02  0.47787275780E+02  0.20000021593E+02 0.  0.
         12    1    1    2    0    0  0.11717967324E+01 -0.32862631448E+02 -0.28324851447E+02  0.43400724220E+02  0.00000000000E+00 0. -1.
         11    1    3    3    0    0 -0.94341638923E+00 -0.13786987479E+00 -0.39753699482E-01  0.95426579295E+00  0.51100000000E-03 0. -1.
        -11    1    3    3    0    0  0.30356241407E+01  0.57424647128E+01  0.14903781543E+02  0.16257724916E+02  0.51100000000E-03 0.  1.
        -12    1    3    3    0    0 -0.32640044839E+01  0.27258036610E+02  0.13460823604E+02  0.30575285072E+02  0.00000000000E+00 0.  1.
</event>
<event>
 7    1  0.3851772E-009  0.4778727E+02  0.7816164E-02  0.1312668E+00
        -11   -1    0    0    0    0  0.00000000000E+00  0.00000000000E+00  0.45593999997E+02  0.45594000000E+02  0.51100000000E-03 0. -1.
         11   -1    0    0    0    0 -0.00000000000E+00 -0.00000000000E+00 -0.45593999997E+02  0.45594000000E+02  0.51100000000E-03 0.  1.
    9900012    2    1    2    0    0  0.41297535505E+02 -0.83029666013E+01 -0.10449775441E+02  0.47787268440E+02  0.19999988127E+02 0.  0.
         12    1    1    2    0    0 -0.41297535505E+02  0.83029666013E+01  0.10449775441E+02  0.43400731560E+02  0.00000000000E+00 0. -1.
         11    1    3    3    0    0  0.40844417833E+01  0.23119900672E+01 -0.47100347050E+01  0.66492398013E+01  0.51100000000E-03 0. -1.
        -11    1    3    3    0    0  0.13284607974E+02  0.18390977443E+01 -0.44553766957E+01  0.14132001673E+02  0.51100000000E-03 0.  1.
        -12    1    3    3    0    0  0.23928485748E+02 -0.12454054413E+02 -0.12843640401E+01  0.27006026966E+02  0.00000000000E+00 0.  1.
</event>
<event>
 7    1  0.3851772E-009  0.4778727E+02  0.7816164E-02  0.1312668E+00
        -11   -1    0    0    0    0  0.00000000000E+00  0.00000000000E+00  0.45593999997E+02  0.45594000000E+02  0.51100000000E-03 0. -1.
         11   -1    0    0    0    0 -0.00000000000E+00 -0.00000000000E+00 -0.45593999997E+02  0.45594000000E+02  0.51100000000E-03 0.  1.
    9900012    2    1    2    0    0 -0.26996268365E+02 -0.23051340955E+02 -0.24969190536E+02  0.47787270726E+02  0.19999998550E+02 0.  0.
         12    1    1    2    0    0  0.26996268365E+02  0.23051340955E+02  0.24969190536E+02  0.43400729274E+02  0.00000000000E+00 0. -1.
         11    1    3    3    0    0 -0.16064667356E+02 -0.77577052379E+01 -0.47926291201E+01  0.18472271705E+02  0.51100000000E-03 0. -1.
        -11    1    3    3    0    0 -0.92224038542E+01 -0.16680369504E+02 -0.18289925711E+02  0.26416071669E+02  0.51100000000E-03 0.  1.
         12    1    3    3    0    0 -0.17091971554E+01  0.13867337870E+01 -0.18866357048E+01  0.28989273524E+01  0.00000000000E+00 0. -1.
</event>
<event>
 7    1  0.3851772E-009  0.4778725E+02  0.7816164E-02  0.1312668E+00
        -11   -1    0    0    0    0  0.00000000000E+00  0.00000000000E+00  0.45593999997E+02  0.45594000000E+02  0.51100000000E-03 0.  1.
         11   -1    0    0    0    0 -0.00000000000E+00 -0.00000000000E+00 -0.45593999997E+02  0.45594000000E+02  0.51100000000E-03 0. -1.
    9900012    2    1    2    0    0 -0.20004969425E+02 -0.12798751563E+02  0.36326546485E+02  0.47787253200E+02  0.19999918642E+02 0.  0.
         12    1    1    2    0    0  0.20004969425E+02  0.12798751563E+02 -0.36326546485E+02  0.43400746800E+02  0.00000000000E+00 0. -1.
         11    1    3    3    0    0 -0.24952711379E+01 -0.25668324209E+00 -0.19464447999E+01  0.31750451900E+01  0.51100000000E-03 0. -1.
        -11    1    3    3    0    0 -0.16041826012E+02 -0.13184766760E+02  0.32069633061E+02  0.38205230287E+02  0.51100000000E-03 0.  1.
         12    1    3    3    0    0 -0.14678722744E+01  0.64269843965E+00  0.62033582237E+01  0.64069777235E+01  0.00000000000E+00 0. -1.
</event>
<event>
 7    1  0.3851772E-009  0.4778727E+02  0.7816164E-02  0.1312668E+00
        -11   -1    0    0    0    0  0.00000000000E+00  0.00000000000E+00  0.45593999997E+02  0.45594000000E+02  0.51100000000E-03 0. -1.
         11   -1    0    0    0    0 -0.00000000000E+00 -0.00000000000E+00 -0.45593999997E+02  0.45594000000E+02  0.51100000000E-03 0.  1.
    9900012    2    1    2    0    0  0.29002396252E+02 -0.31922125171E+02  0.48437697058E+01  0.47787272255E+02  0.20000005520E+02 0.  0.
         12    1    1    2    0    0 -0.29002396252E+02  0.31922125171E+02 -0.48437697058E+01  0.43400727745E+02  0.00000000000E+00 0. -1.
         11    1    3    3    0    0  0.38225720075E+01 -0.40892159487E+01  0.50659233422E+01  0.75496571709E+01  0.51100000000E-03 0. -1.
        -11    1    3    3    0    0  0.84705464625E+01 -0.19826143590E+02 -0.18419571463E+01  0.21638367161E+02  0.51100000000E-03 0.  1.
        -12    1    3    3    0    0  0.16709277782E+02 -0.80067656333E+01  0.16198035098E+01  0.18599247923E+02  0.00000000000E+00 0.  1.
</event>
<event>
 7    1  0.3851772E-009  0.4778726E+02  0.7816164E-02  0.1312668E+00
        -11   -1    0    0    0    0  0.00000000000E+00  0.00000000000E+00  0.45593999997E+02  0.45594000000E+02  0.51100000000E-03 0.  1.
         11   -1    0    0    0    0 -0.00000000000E+00 -0.00000000000E+00 -0.45593999997E+02  0.45594000000E+02  0.51100000000E-03 0. -1.
    9900012    2    1    2    0    0  0.72817366467E+01 -0.26068393736E+02  0.33926969849E+02  0.47787261254E+02  0.19999955361E+02 0.  0.
         12    1    1    2    0    0 -0.72817366467E+01  0.26068393736E+02 -0.33926969849E+02  0.43400738746E+02  0.00000000000E+00 0. -1.
         11    1    3    3    0    0 -0.15359165999E+01 -0.18371989325E+01  0.10713013918E+02  0.10977386173E+02  0.51100000000E-03 0. -1.
        -11    1    3    3    0    0  0.62205079080E+00 -0.14338940247E+02  0.65692577588E+01  0.15784400602E+02  0.51100000000E-03 0.  1.
        -12    1    3    3    0    0  0.81956024558E+01 -0.98922545556E+01  0.16644698173E+02  0.21025474479E+02  0.00000000000E+00 0.  1.
</event>
<event>
 7    1  0.3851772E-009  0.4778726E+02  0.7816164E-02  0.1312668E+00
        -11   -1    0    0    0    0  0.00000000000E+00  0.00000000000E+00  0.45593999997E+02  0.45594000000E+02  0.51100000000E-03 0. -1.
         11   -1    0    0    0    0 -0.00000000000E+00 -0.00000000000E+00 -0.45593999997E+02  0.45594000000E+02  0.51100000000E-03 0.  1.
    9900012    2    1    2    0    0 -0.16898827720E+02  0.39864386513E+02 -0.29806799363E+01  0.47787261028E+02  0.19999954332E+02 0.  0.
         12    1    1    2    0    0  0.16898827720E+02 -0.39864386513E+02  0.29806799363E+01  0.43400738972E+02  0.00000000000E+00 0. -1.
         11    1    3    3    0    0 -0.92179938764E+01  0.27361541945E+02  0.38044821573E+01  0.29122147474E+02  0.51100000000E-03 0. -1.
        -11    1    3    3    0    0 -0.90979326890E+01  0.69046415580E+01 -0.57904168569E+01  0.12805287263E+02  0.51100000000E-03 0.  1.
         12    1    3    3    0    0  0.14170988451E+01  0.55982030101E+01 -0.99474523674E+00  0.58598262914E+01  0.00000000000E+00 0. -1.
</event>
<event>
 7    1  0.3851772E-009  0.4778727E+02  0.7816164E-02  0.1312668E+00
        -11   -1    0    0    0    0  0.00000000000E+00  0.00000000000E+00  0.45593999997E+02  0.45594000000E+02  0.51100000000E-03 0.  1.
         11   -1    0    0    0    0 -0.00000000000E+00 -0.00000000000E+00 -0.45593999997E+02  0.45594000000E+02  0.51100000000E-03 0. -1.
    9900012    2    1    2    0    0  0.12107168600E+02 -0.15458496627E+02  0.38704970298E+02  0.47787269877E+02  0.19999994677E+02 0.  0.
         12    1    1    2    0    0 -0.12107168600E+02  0.15458496627E+02 -0.38704970298E+02  0.43400730123E+02  0.00000000000E+00 0. -1.
         11    1    3    3    0    0  0.27657680509E+01 -0.12685380127E+02  0.20214200556E+02  0.24024617505E+02  0.51100000000E-03 0. -1.
        -11    1    3    3    0    0  0.15659146587E+01  0.21570186409E+01  0.12493916440E+02  0.12775083812E+02  0.51100000000E-03 0.  1.
         12    1    3    3    0    0  0.77754858900E+01 -0.49301351412E+01  0.59968533014E+01  0.10987568560E+02  0.00000000000E+00 0. -1.
</event>
<event>
 7    1  0.3851772E-009  0.4778728E+02  0.7816164E-02  0.1312668E+00
        -11   -1    0    0    0    0  0.00000000000E+00  0.00000000000E+00  0.45593999997E+02  0.45594000000E+02  0.51100000000E-03 0.  1.
         11   -1    0    0    0    0 -0.00000000000E+00 -0.00000000000E+00 -0.45593999997E+02  0.45594000000E+02  0.51100000000E-03 0. -1.
    9900012    2    1    2    0    0  0.31036503370E+02  0.29394997197E+02 -0.75028324744E+01  0.47787275389E+02  0.20000019808E+02 0.  0.
         12    1    1    2    0    0 -0.31036503370E+02 -0.29394997197E+02  0.75028324744E+01  0.43400724611E+02  0.00000000000E+00 0. -1.
         11    1    3    3    0    0 -0.53592134614E+00  0.32025510427E+01  0.34384111212E+01  0.47292934113E+01  0.51100000000E-03 0. -1.
        -11    1    3    3    0    0  0.30977328746E+02  0.23778557505E+02 -0.11000067550E+02  0.40571124948E+02  0.51100000000E-03 0.  1.
        -12    1    3    3    0    0  0.59509597052E+00  0.24138886493E+01  0.58823953903E-01  0.24868570290E+01  0.00000000000E+00 0.  1.
</event>
<event>
 7    1  0.3851772E-009  0.4778727E+02  0.7816164E-02  0.1312668E+00
        -11   -1    0    0    0    0  0.00000000000E+00  0.00000000000E+00  0.45593999997E+02  0.45594000000E+02  0.51100000000E-03 0. -1.
         11   -1    0    0    0    0 -0.00000000000E+00 -0.00000000000E+00 -0.45593999997E+02  0.45594000000E+02  0.51100000000E-03 0.  1.
    9900012    2    1    2    0    0  0.17359382278E+02 -0.39169356805E+02 -0.69308446185E+01  0.47787271058E+02  0.20000000062E+02 0.  0.
         12    1    1    2    0    0 -0.17359382278E+02  0.39169356805E+02  0.69308446185E+01  0.43400728942E+02  0.00000000000E+00 0. -1.
         11    1    3    3    0    0  0.76609681155E+01 -0.22218301530E+02  0.53758815816E+01  0.24108991235E+02  0.51100000000E-03 0. -1.
        -11    1    3    3    0    0  0.74201817826E+01 -0.15772012920E+02 -0.11838923968E+02  0.21070728754E+02  0.51100000000E-03 0.  1.
         12    1    3    3    0    0  0.22782323795E+01 -0.11790423553E+01 -0.46780223228E+00  0.26075510693E+01  0.00000000000E+00 0. -1.
</event>
<event>
 7    1  0.3851772E-009  0.4778727E+02  0.7816164E-02  0.1312668E+00
        -11   -1    0    0    0    0  0.00000000000E+00  0.00000000000E+00  0.45593999997E+02  0.45594000000E+02  0.51100000000E-03 0.  1.
         11   -1    0    0    0    0 -0.00000000000E+00 -0.00000000000E+00 -0.45593999997E+02  0.45594000000E+02  0.51100000000E-03 0. -1.
    9900012    2    1    2    0    0  0.39412003137E+02 -0.69225758716E+01  0.16804633176E+02  0.47787265627E+02  0.19999975298E+02 0.  0.
         12    1    1    2    0    0 -0.39412003137E+02  0.69225758716E+01 -0.16804633176E+02  0.43400734373E+02  0.00000000000E+00 0. -1.
         11    1    3    3    0    0  0.15758370075E+02  0.14575246522E+01 -0.99450495313E+00  0.15856848549E+02  0.51100000000E-03 0. -1.
        -11    1    3    3    0    0  0.14114946856E+02 -0.80072096704E+01  0.14694254132E+02  0.21892195783E+02  0.51100000000E-03 0.  1.
        -12    1    3    3    0    0  0.95386862059E+01 -0.37289085331E+00  0.31048839979E+01  0.10038221295E+02  0.00000000000E+00 0.  1.
</event>
<event>
 7    1  0.3851772E-009  0.4778727E+02  0.7816164E-02  0.1312668E+00
        -11   -1    0    0    0    0  0.00000000000E+00  0.00000000000E+00  0.45593999997E+02  0.45594000000E+02  0.51100000000E-03 0. -1.
         11   -1    0    0    0    0 -0.00000000000E+00 -0.00000000000E+00 -0.45593999997E+02  0.45594000000E+02  0.51100000000E-03 0.  1.
    9900012    2    1    2    0    0 -0.27457473129E+02 -0.30894324253E+02  0.13238247079E+02  0.47787270889E+02  0.19999999290E+02 0.  0.
         12    1    1    2    0    0  0.27457473129E+02  0.30894324253E+02 -0.13238247079E+02  0.43400729111E+02  0.00000000000E+00 0. -1.
         11    1    3    3    0    0  0.89253341997E+00 -0.25055362491E+01 -0.33662155604E+01  0.42901905856E+01  0.51100000000E-03 0. -1.
        -11    1    3    3    0    0 -0.12197192990E+02 -0.11427666947E+02  0.81555107957E+01  0.18597726885E+02  0.51100000000E-03 0.  1.
         12    1    3    3    0    0 -0.16152813559E+02 -0.16961121057E+02  0.84489518439E+01  0.24899353418E+02  0.00000000000E+00 0. -1.
</event>
<event>
 7    1  0.3851772E-009  0.4778727E+02  0.7816164E-02  0.1312668E+00
        -11   -1    0    0    0    0  0.00000000000E+00  0.00000000000E+00  0.45593999997E+02  0.45594000000E+02  0.51100000000E-03 0.  1.
         11   -1    0    0    0    0 -0.00000000000E+00 -0.00000000000E+00 -0.45593999997E+02  0.45594000000E+02  0.51100000000E-03 0. -1.
    9900012    2    1    2    0    0  0.42694938509E+02 -0.70426164483E+01  0.33417366355E+01  0.47787269310E+02  0.19999992091E+02 0.  0.
         12    1    1    2    0    0 -0.42694938509E+02  0.70426164483E+01 -0.33417366355E+01  0.43400730690E+02  0.00000000000E+00 0. -1.
         11    1    3    3    0    0  0.84473216253E+01  0.48552394839E+01  0.15193802837E+00  0.97444178130E+01  0.51100000000E-03 0. -1.
        -11    1    3    3    0    0  0.94665620753E+01  0.12894595939E+01  0.28476088246E+01  0.99693219353E+01  0.51100000000E-03 0.  1.
         12    1    3    3    0    0  0.24781054808E+02 -0.13187315526E+02  0.34218978249E+00  0.28073529561E+02  0.00000000000E+00 0. -1.
</event>
<event>
 7    1  0.3851772E-009  0.4778727E+02  0.7816164E-02  0.1312668E+00
        -11   -1    0    0    0    0  0.00000000000E+00  0.00000000000E+00  0.45593999997E+02  0.45594000000E+02  0.51100000000E-03 0.  1.
         11   -1    0    0    0    0 -0.00000000000E+00 -0.00000000000E+00 -0.45593999997E+02  0.45594000000E+02  0.51100000000E-03 0. -1.
    9900012    2    1    2    0    0 -0.27590994930E+01  0.51432135294E+01  0.43006484579E+02  0.47787274300E+02  0.20000014842E+02 0.  0.
         12    1    1    2    0    0  0.27590994930E+01 -0.51432135294E+01 -0.43006484579E+02  0.43400725700E+02  0.00000000000E+00 0. -1.
         11    1    3    3    0    0 -0.80265816025E+00 -0.11137369957E+01 -0.17911573680E+01  0.22567488110E+01  0.51100000000E-03 0. -1.
        -11    1    3    3    0    0 -0.19659004787E-01  0.15394161007E+01  0.25683436290E+01  0.29944244297E+01  0.51100000000E-03 0.  1.
         12    1    3    3    0    0 -0.19367823279E+01  0.47175344243E+01  0.42229298319E+02  0.42536101059E+02  0.00000000000E+00 0. -1.
</event>
<event>
 7    1  0.3851772E-009  0.4778728E+02  0.7816164E-02  0.1312668E+00
        -11   -1    0    0    0    0  0.00000000000E+00  0.00000000000E+00  0.45593999997E+02  0.45594000000E+02  0.51100000000E-03 0. -1.
         11   -1    0    0    0    0 -0.00000000000E+00 -0.00000000000E+00 -0.45593999997E+02  0.45594000000E+02  0.51100000000E-03 0.  1.
    9900012    2    1    2    0    0 -0.19467430457E+02  0.14739501389E+02 -0.35880196635E+02  0.47787282721E+02  0.20000053239E+02 0.  0.
         12    1    1    2    0    0  0.19467430457E+02 -0.14739501389E+02  0.35880196635E+02  0.43400717279E+02  0.00000000000E+00 0. -1.
         11    1    3    3    0    0 -0.47724151031E+01 -0.31539199051E+01 -0.11977534272E+02  0.13273450350E+02  0.51100000000E-03 0. -1.
        -11    1    3    3    0    0 -0.37895595679E+01  0.66073634355E+01 -0.25879684056E+01  0.80446003019E+01  0.51100000000E-03 0.  1.
         12    1    3    3    0    0 -0.10905455786E+02  0.11286057858E+02 -0.21314693957E+02  0.26469232070E+02  0.00000000000E+00 0. -1.
</event>
<event>
 7    1  0.3851772E-009  0.4778727E+02  0.7816164E-02  0.1312668E+00
        -11   -1    0    0    0    0  0.00000000000E+00  0.00000000000E+00  0.45593999997E+02  0.45594000000E+02  0.51100000000E-03 0. -1.
         11   -1    0    0    0    0 -0.00000000000E+00 -0.00000000000E+00 -0.45593999997E+02  0.45594000000E+02  0.51100000000E-03 0.  1.
    9900012    2    1    2    0    0  0.65583418996E+01  0.14273470117E+02 -0.40458368161E+02  0.47787270146E+02  0.19999995902E+02 0.  0.
         12    1    1    2    0    0 -0.65583418996E+01 -0.14273470117E+02  0.40458368161E+02  0.43400729854E+02  0.00000000000E+00 0. -1.
         11    1    3    3    0    0 -0.31129728083E+01 -0.15964151973E+01 -0.13318766627E+01  0.37433991095E+01  0.51100000000E-03 0. -1.
        -11    1    3    3    0    0  0.72790972108E+01  0.52919337569E+01 -0.22035617512E+02  0.23802484292E+02  0.51100000000E-03 0.  1.
        -12    1    3    3    0    0  0.23922174971E+01  0.10577951557E+02 -0.17090873986E+02  0.20241386744E+02  0.00000000000E+00 0.  1.
</event>
<event>
 7    1  0.3851772E-009  0.4778727E+02  0.7816164E-02  0.1312668E+00
        -11   -1    0    0    0    0  0.00000000000E+00  0.00000000000E+00  0.45593999997E+02  0.45594000000E+02  0.51100000000E-03 0.  1.
         11   -1    0    0    0    0 -0.00000000000E+00 -0.00000000000E+00 -0.45593999997E+02  0.45594000000E+02  0.51100000000E-03 0. -1.
    9900012    2    1    2    0    0 -0.40719801413E+02  0.67327004208E+01  0.13423551374E+02  0.47787271739E+02  0.20000003168E+02 0.  0.
         12    1    1    2    0    0  0.40719801413E+02 -0.67327004208E+01 -0.13423551374E+02  0.43400728261E+02  0.00000000000E+00 0. -1.
         11    1    3    3    0    0 -0.16894680759E+02 -0.46606121804E+01  0.79718739949E+01  0.19253631323E+02  0.51100000000E-03 0. -1.
        -11    1    3    3    0    0 -0.14418777441E+02  0.11058002219E+02  0.59165670469E+01  0.19109848818E+02  0.51100000000E-03 0.  1.
        -12    1    3    3    0    0 -0.94063432124E+01  0.33531038206E+00 -0.46488966799E+00  0.94237915981E+01  0.00000000000E+00 0.  1.
</event>
<event>
 7    1  0.3851772E-009  0.4778727E+02  0.7816164E-02  0.1312668E+00
        -11   -1    0    0    0    0  0.00000000000E+00  0.00000000000E+00  0.45593999997E+02  0.45594000000E+02  0.51100000000E-03 0.  1.
         11   -1    0    0    0    0 -0.00000000000E+00 -0.00000000000E+00 -0.45593999997E+02  0.45594000000E+02  0.51100000000E-03 0. -1.
    9900012    2    1    2    0    0  0.26725428971E+02  0.12907922456E+01  0.34171752858E+02  0.47787269687E+02  0.19999993813E+02 0.  0.
         12    1    1    2    0    0 -0.26725428971E+02 -0.12907922456E+01 -0.34171752858E+02  0.43400730313E+02  0.00000000000E+00 0. -1.
         11    1    3    3    0    0  0.95087793920E+01  0.14308547004E+01  0.51225091229E+01  0.10895151705E+02  0.51100000000E-03 0. -1.
        -11    1    3    3    0    0  0.27850108739E+01  0.79437077930E+00  0.19147510886E+02  0.19365290700E+02  0.51100000000E-03 0.  1.
        -12    1    3    3    0    0  0.14431638705E+02 -0.93443323404E+00  0.99017328489E+01  0.17526827282E+02  0.00000000000E+00 0.  1.
</event>
<event>
 7    1  0.3851772E-009  0.4778727E+02  0.7816164E-02  0.1312668E+00
        -11   -1    0    0    0    0  0.00000000000E+00  0.00000000000E+00  0.45593999997E+02  0.45594000000E+02  0.51100000000E-03 0.  1.
         11   -1    0    0    0    0 -0.00000000000E+00 -0.00000000000E+00 -0.45593999997E+02  0.45594000000E+02  0.51100000000E-03 0. -1.
    9900012    2    1    2    0    0 -0.14993016085E+02  0.26669967720E+02  0.30782227740E+02  0.47787271272E+02  0.20000001038E+02 0.  0.
         12    1    1    2    0    0  0.14993016085E+02 -0.26669967720E+02 -0.30782227740E+02  0.43400728728E+02  0.00000000000E+00 0. -1.
         11    1    3    3    0    0 -0.13240210229E+02  0.98353491315E+01  0.85424657007E+01  0.18574471189E+02  0.51100000000E-03 0. -1.
        -11    1    3    3    0    0 -0.34504986137E+01  0.15880821042E+02  0.16532729330E+02  0.23182699519E+02  0.51100000000E-03 0.  1.
         12    1    3    3    0    0  0.16976927578E+01  0.95379754636E+00  0.57070327095E+01  0.60301005636E+01  0.00000000000E+00 0. -1.
</event>
<event>
 7    1  0.3851772E-009  0.4778726E+02  0.7816164E-02  0.1312668E+00
        -11   -1    0    0    0    0  0.00000000000E+00  0.00000000000E+00  0.45593999997E+02  0.45594000000E+02  0.51100000000E-03 0. -1.
         11   -1    0    0    0    0 -0.00000000000E+00 -0.00000000000E+00 -0.45593999997E+02  0.45594000000E+02  0.51100000000E-03 0.  1.
    9900012    2    1    2    0    0 -0.27727784814E+02 -0.32607632269E+02 -0.71788971154E+01  0.47787259261E+02  0.19999946275E+02 0.  0.
         12    1    1    2    0    0  0.27727784814E+02  0.32607632269E+02  0.71788971154E+01  0.43400740739E+02  0.00000000000E+00 0. -1.
         11    1    3    3    0    0 -0.17234525921E+02 -0.23781887931E+02 -0.12784519183E+02  0.32032030974E+02  0.51100000000E-03 0. -1.
        -11    1    3    3    0    0 -0.66807385373E+01 -0.25839025144E+01  0.13372798634E+01  0.72867782525E+01  0.51100000000E-03 0.  1.
         12    1    3    3    0    0 -0.38125203555E+01 -0.62418418239E+01  0.42683422045E+01  0.84684500348E+01  0.00000000000E+00 0. -1.
</event>
<event>
 7    1  0.3851772E-009  0.4778727E+02  0.7816164E-02  0.1312668E+00
        -11   -1    0    0    0    0  0.00000000000E+00  0.00000000000E+00  0.45593999997E+02  0.45594000000E+02  0.51100000000E-03 0.  1.
         11   -1    0    0    0    0 -0.00000000000E+00 -0.00000000000E+00 -0.45593999997E+02  0.45594000000E+02  0.51100000000E-03 0. -1.
    9900012    2    1    2    0    0  0.27686420899E+02 -0.19728895416E+02  0.26978807228E+02  0.47787271251E+02  0.20000000941E+02 0.  0.
         12    1    1    2    0    0 -0.27686420899E+02  0.19728895416E+02 -0.26978807228E+02  0.43400728749E+02  0.00000000000E+00 0. -1.
         11    1    3    3    0    0  0.21505614471E+02 -0.22455905276E+02  0.18017652938E+02  0.35935984100E+02  0.51100000000E-03 0. -1.
        -11    1    3    3    0    0  0.55565406116E+01  0.31574489788E+01  0.90592529757E+01  0.11086689874E+02  0.51100000000E-03 0.  1.
         12    1    3    3    0    0  0.62426581603E+00 -0.43043911838E+00 -0.98098686221E-01  0.76459727696E+00  0.00000000000E+00 0. -1.
</event>
<event>
 7    1  0.3851772E-009  0.4778727E+02  0.7816164E-02  0.1312668E+00
        -11   -1    0    0    0    0  0.00000000000E+00  0.00000000000E+00  0.45593999997E+02  0.45594000000E+02  0.51100000000E-03 0.  1.
         11   -1    0    0    0    0 -0.00000000000E+00 -0.00000000000E+00 -0.45593999997E+02  0.45594000000E+02  0.51100000000E-03 0. -1.
    9900012    2    1    2    0    0  0.98371978477E+01  0.26492431409E+02  0.32939396345E+02  0.47787271722E+02  0.20000003090E+02 0.  0.
         12    1    1    2    0    0 -0.98371978477E+01 -0.26492431409E+02 -0.32939396345E+02  0.43400728278E+02  0.00000000000E+00 0. -1.
         11    1    3    3    0    0  0.35800721637E+01  0.20293137374E+01  0.83161294229E-02  0.41152278626E+01  0.51100000000E-03 0. -1.
        -11    1    3    3    0    0  0.15995493225E+01  0.39978139276E+01  0.16397656665E+02  0.16953590139E+02  0.51100000000E-03 0.  1.
        -12    1    3    3    0    0  0.46575763615E+01  0.20465303744E+02  0.16533423551E+02  0.26718453720E+02  0.00000000000E+00 0.  1.
</event>
<event>
 7    1  0.3851772E-009  0.4778727E+02  0.7816164E-02  0.1312668E+00
        -11   -1    0    0    0    0  0.00000000000E+00  0.00000000000E+00  0.45593999997E+02  0.45594000000E+02  0.51100000000E-03 0.  1.
         11   -1    0    0    0    0 -0.00000000000E+00 -0.00000000000E+00 -0.45593999997E+02  0.45594000000E+02  0.51100000000E-03 0. -1.
    9900012    2    1    2    0    0  0.22134541443E+02  0.97741732522E+01  0.36029861647E+02  0.47787270536E+02  0.19999997684E+02 0.  0.
         12    1    1    2    0    0 -0.22134541443E+02 -0.97741732522E+01 -0.36029861647E+02  0.43400729464E+02  0.00000000000E+00 0. -1.
         11    1    3    3    0    0  0.40261482344E+01  0.61687928613E+00 -0.60726039203E+00  0.41181519039E+01  0.51100000000E-03 0. -1.
        -11    1    3    3    0    0  0.85265273428E+01  0.11062610702E+02  0.22575351301E+02  0.26546741998E+02  0.51100000000E-03 0.  1.
        -12    1    3    3    0    0  0.95818658656E+01 -0.19053167357E+01  0.14061770738E+02  0.17122376635E+02  0.00000000000E+00 0.  1.
</event>
<event>
 7    1  0.3851772E-009  0.4778727E+02  0.7816164E-02  0.1312668E+00
        -11   -1    0    0    0    0  0.00000000000E+00  0.00000000000E+00  0.45593999997E+02  0.45594000000E+02  0.51100000000E-03 0.  1.
         11   -1    0    0    0    0 -0.00000000000E+00 -0.00000000000E+00 -0.45593999997E+02  0.45594000000E+02  0.51100000000E-03 0. -1.
    9900012    2    1    2    0    0  0.20365497137E+02  0.23206146999E+02  0.30501546966E+02  0.47787273053E+02  0.20000009159E+02 0.  0.
         12    1    1    2    0    0 -0.20365497137E+02 -0.23206146999E+02 -0.30501546966E+02  0.43400726947E+02  0.00000000000E+00 0. -1.
         11    1    3    3    0    0  0.12745754667E+02  0.45391625308E+01  0.89738185303E+01  0.16235383512E+02  0.51100000000E-03 0. -1.
        -11    1    3    3    0    0 -0.60469864206E+00  0.12349127853E+02  0.90236872305E+01  0.15306650537E+02  0.51100000000E-03 0.  1.
        -12    1    3    3    0    0  0.82244411114E+01  0.63178566154E+01  0.12504041205E+02  0.16245239003E+02  0.00000000000E+00 0.  1.
</event>
<event>
 7    1  0.3851772E-009  0.4778728E+02  0.7816164E-02  0.1312668E+00
        -11   -1    0    0    0    0  0.00000000000E+00  0.00000000000E+00  0.45593999997E+02  0.45594000000E+02  0.51100000000E-03 0. -1.
         11   -1    0    0    0    0 -0.00000000000E+00 -0.00000000000E+00 -0.45593999997E+02  0.45594000000E+02  0.51100000000E-03 0.  1.
    9900012    2    1    2    0    0  0.42567939308E+02  0.67804948090E+01 -0.50614383609E+01  0.47787277367E+02  0.20000028829E+02 0.  0.
         12    1    1    2    0    0 -0.42567939308E+02 -0.67804948090E+01  0.50614383609E+01  0.43400722633E+02  0.00000000000E+00 0. -1.
         11    1    3    3    0    0  0.18163633758E+02 -0.59998107062E+01 -0.50211761385E+01  0.19776944402E+02  0.51100000000E-03 0. -1.
        -11    1    3    3    0    0  0.15558242530E+02  0.10490756488E+02 -0.11809915352E+01  0.18801851600E+02  0.51100000000E-03 0.  1.
         12    1    3    3    0    0  0.88460630194E+01  0.22895490268E+01  0.11407293129E+01  0.92084813653E+01  0.00000000000E+00 0. -1.
</event>
<event>
 7    1  0.3851772E-009  0.4778727E+02  0.7816164E-02  0.1312668E+00
        -11   -1    0    0    0    0  0.00000000000E+00  0.00000000000E+00  0.45593999997E+02  0.45594000000E+02  0.51100000000E-03 0. -1.
         11   -1    0    0    0    0 -0.00000000000E+00 -0.00000000000E+00 -0.45593999997E+02  0.45594000000E+02  0.51100000000E-03 0.  1.
    9900012    2    1    2    0    0 -0.29372660980E+02 -0.26808253017E+02 -0.17383544481E+02  0.47787271186E+02  0.20000000646E+02 0.  0.
         12    1    1    2    0    0  0.29372660980E+02  0.26808253017E+02  0.17383544481E+02  0.43400728814E+02  0.00000000000E+00 0. -1.
         11    1    3    3    0    0  0.92905831575E+00 -0.28785322598E+01 -0.18027607783E+01  0.35212276282E+01  0.51100000000E-03 0. -1.
        -11    1    3    3    0    0 -0.19716396415E+02 -0.14665314011E+02 -0.17361257466E+02  0.30086890562E+02  0.51100000000E-03 0.  1.
        -12    1    3    3    0    0 -0.10585322881E+02 -0.92644067458E+01  0.17804737638E+01  0.14179152996E+02  0.00000000000E+00 0.  1.
</event>
<event>
 7    1  0.3851772E-009  0.4778727E+02  0.7816164E-02  0.1312668E+00
        -11   -1    0    0    0    0  0.00000000000E+00  0.00000000000E+00  0.45593999997E+02  0.45594000000E+02  0.51100000000E-03 0.  1.
         11   -1    0    0    0    0 -0.00000000000E+00 -0.00000000000E+00 -0.45593999997E+02  0.45594000000E+02  0.51100000000E-03 0. -1.
    9900012    2    1    2    0    0 -0.18411521184E+02  0.36762569741E+02  0.13897934087E+02  0.47787271686E+02  0.20000002925E+02 0.  0.
         12    1    1    2    0    0  0.18411521184E+02 -0.36762569741E+02 -0.13897934087E+02  0.43400728314E+02  0.00000000000E+00 0. -1.
         11    1    3    3    0    0  0.33880751360E+01  0.10495799673E+02  0.12531957752E+01  0.11100061433E+02  0.51100000000E-03 0. -1.
        -11    1    3    3    0    0 -0.10319825010E+02  0.13064707645E+02  0.85643795102E+01  0.18722552464E+02  0.51100000000E-03 0.  1.
         12    1    3    3    0    0 -0.11479771310E+02  0.13202062423E+02  0.40803588016E+01  0.17964657790E+02  0.00000000000E+00 0. -1.
</event>
<event>
 7    1  0.3851772E-009  0.4778727E+02  0.7816164E-02  0.1312668E+00
        -11   -1    0    0    0    0  0.00000000000E+00  0.00000000000E+00  0.45593999997E+02  0.45594000000E+02  0.51100000000E-03 0.  1.
         11   -1    0    0    0    0 -0.00000000000E+00 -0.00000000000E+00 -0.45593999997E+02  0.45594000000E+02  0.51100000000E-03 0. -1.
    9900012    2    1    2    0    0  0.37838757642E+02 -0.66004287022E+00  0.21246553969E+02  0.47787270835E+02  0.19999999047E+02 0.  0.
         12    1    1    2    0    0 -0.37838757642E+02  0.66004287022E+00 -0.21246553969E+02  0.43400729165E+02  0.00000000000E+00 0. -1.
         11    1    3    3    0    0  0.34511096399E+02 -0.34280685435E+01  0.13767950944E+02  0.37313856703E+02  0.51100000000E-03 0. -1.
        -11    1    3    3    0    0  0.16108673608E+01 -0.30845798720E+00  0.66566316150E+01  0.68557118305E+01  0.51100000000E-03 0.  1.
         12    1    3    3    0    0  0.17167938819E+01  0.30764836604E+01  0.82197141024E+00  0.36177023019E+01  0.00000000000E+00 0. -1.
</event>
<event>
 7    1  0.3851772E-009  0.4778729E+02  0.7816164E-02  0.1312668E+00
        -11   -1    0    0    0    0  0.00000000000E+00  0.00000000000E+00  0.45593999997E+02  0.45594000000E+02  0.51100000000E-03 0.  1.
         11   -1    0    0    0    0 -0.00000000000E+00 -0.00000000000E+00 -0.45593999997E+02  0.45594000000E+02  0.51100000000E-03 0. -1.
    9900012    2    1    2    0    0  0.19537052234E+02 -0.21125627208E+02  0.32490510921E+02  0.47787287623E+02  0.20000075588E+02 0.  0.
         12    1    1    2    0    0 -0.19537052234E+02  0.21125627208E+02 -0.32490510921E+02  0.43400712377E+02  0.00000000000E+00 0. -1.
         11    1    3    3    0    0  0.29554216990E+01 -0.14502236912E+02  0.16376434995E+02  0.22073445954E+02  0.51100000000E-03 0. -1.
        -11    1    3    3    0    0  0.16182087841E+02 -0.54154112362E+01  0.17059197482E+02  0.24128880304E+02  0.51100000000E-03 0.  1.
         12    1    3    3    0    0  0.39954269402E+00 -0.12079790599E+01 -0.94512155552E+00  0.15849613649E+01  0.00000000000E+00 0. -1.
</event>
<event>
 7    1  0.3851772E-009  0.4778727E+02  0.7816164E-02  0.1312668E+00
        -11   -1    0    0    0    0  0.00000000000E+00  0.00000000000E+00  0.45593999997E+02  0.45594000000E+02  0.51100000000E-03 0.  1.
         11   -1    0    0    0    0 -0.00000000000E+00 -0.00000000000E+00 -0.45593999997E+02  0.45594000000E+02  0.51100000000E-03 0. -1.
    9900012    2    1    2    0    0 -0.18479384197E+02  0.23395689362E+02  0.31540091618E+02  0.47787270740E+02  0.19999998612E+02 0.  0.
         12    1    1    2    0    0  0.18479384197E+02 -0.23395689362E+02 -0.31540091618E+02  0.43400729260E+02  0.00000000000E+00 0. -1.
         11    1    3    3    0    0  0.82860649400E+00  0.36773487114E+01  0.26317565875E+01  0.45973498088E+01  0.51100000000E-03 0. -1.
        -11    1    3    3    0    0  0.12570702754E+01  0.10569651705E+01  0.86790443732E+01  0.88330749200E+01  0.51100000000E-03 0.  1.
        -12    1    3    3    0    0 -0.20565060966E+02  0.18661375480E+02  0.20229290658E+02  0.34356846011E+02  0.00000000000E+00 0.  1.
</event>
<event>
 7    1  0.3851772E-009  0.4778727E+02  0.7816164E-02  0.1312668E+00
        -11   -1    0    0    0    0  0.00000000000E+00  0.00000000000E+00  0.45593999997E+02  0.45594000000E+02  0.51100000000E-03 0.  1.
         11   -1    0    0    0    0 -0.00000000000E+00 -0.00000000000E+00 -0.45593999997E+02  0.45594000000E+02  0.51100000000E-03 0. -1.
    9900012    2    1    2    0    0 -0.40772156977E+02  0.66673424115E+01  0.13296652238E+02  0.47787271894E+02  0.20000003874E+02 0.  0.
         12    1    1    2    0    0  0.40772156977E+02 -0.66673424115E+01 -0.13296652238E+02  0.43400728106E+02  0.00000000000E+00 0. -1.
         11    1    3    3    0    0 -0.66705304444E+01 -0.33459869231E+00 -0.30158597256E+01  0.73282564666E+01  0.51100000000E-03 0. -1.
        -11    1    3    3    0    0 -0.10197976514E+02  0.72026424484E+01  0.92330761189E+01  0.15528247747E+02  0.51100000000E-03 0.  1.
        -12    1    3    3    0    0 -0.23903650019E+02 -0.20070134454E+00  0.70794358449E+01  0.24930767680E+02  0.00000000000E+00 0.  1.
</event>
<event>
 7    1  0.3851772E-009  0.4778725E+02  0.7816164E-02  0.1312668E+00
        -11   -1    0    0    0    0  0.00000000000E+00  0.00000000000E+00  0.45593999997E+02  0.45594000000E+02  0.51100000000E-03 0.  1.
         11   -1    0    0    0    0 -0.00000000000E+00 -0.00000000000E+00 -0.45593999997E+02  0.45594000000E+02  0.51100000000E-03 0. -1.
    9900012    2    1    2    0    0 -0.48991792997E+01 -0.32986978668E+02  0.27775570188E+02  0.47787250943E+02  0.19999908348E+02 0.  0.
         12    1    1    2    0    0  0.48991792997E+01  0.32986978668E+02 -0.27775570188E+02  0.43400749057E+02  0.00000000000E+00 0. -1.
         11    1    3    3    0    0 -0.32220207618E+01 -0.88556259343E+01  0.32109973851E+01  0.99556030931E+01  0.51100000000E-03 0. -1.
        -11    1    3    3    0    0  0.14348189770E+01 -0.51961011241E+01 -0.13774383574E+01  0.55637675255E+01  0.51100000000E-03 0.  1.
        -12    1    3    3    0    0 -0.31119775149E+01 -0.18935251610E+02  0.25942011160E+02  0.32267880324E+02  0.00000000000E+00 0.  1.
</event>
<event>
 7    1  0.3851772E-009  0.4778727E+02  0.7816164E-02  0.1312668E+00
        -11   -1    0    0    0    0  0.00000000000E+00  0.00000000000E+00  0.45593999997E+02  0.45594000000E+02  0.51100000000E-03 0. -1.
         11   -1    0    0    0    0 -0.00000000000E+00 -0.00000000000E+00 -0.45593999997E+02  0.45594000000E+02  0.51100000000E-03 0.  1.
    9900012    2    1    2    0    0 -0.20590525108E+02  0.22907201763E+02 -0.30576360074E+02  0.47787269451E+02  0.19999992735E+02 0.  0.
         12    1    1    2    0    0  0.20590525108E+02 -0.22907201763E+02  0.30576360074E+02  0.43400730549E+02  0.00000000000E+00 0. -1.
         11    1    3    3    0    0 -0.14003376844E+02  0.53414310234E+01 -0.86096597234E+01  0.17284434883E+02  0.51100000000E-03 0. -1.
        -11    1    3    3    0    0 -0.40745449812E+01  0.18128328881E+02 -0.19560263458E+02  0.26978549472E+02  0.51100000000E-03 0.  1.
        -12    1    3    3    0    0 -0.25126032823E+01 -0.56255814134E+00 -0.24064368930E+01  0.35242850958E+01  0.00000000000E+00 0.  1.
</event>
<event>
 7    1  0.3851772E-009  0.4778726E+02  0.7816164E-02  0.1312668E+00
        -11   -1    0    0    0    0  0.00000000000E+00  0.00000000000E+00  0.45593999997E+02  0.45594000000E+02  0.51100000000E-03 0.  1.
         11   -1    0    0    0    0 -0.00000000000E+00 -0.00000000000E+00 -0.45593999997E+02  0.45594000000E+02  0.51100000000E-03 0. -1.
    9900012    2    1    2    0    0  0.19612925600E+02 -0.30878380495E+02  0.23355581584E+02  0.47787257798E+02  0.19999939602E+02 0.  0.
         12    1    1    2    0    0 -0.19612925600E+02  0.30878380495E+02 -0.23355581584E+02  0.43400742202E+02  0.00000000000E+00 0. -1.
         11    1    3    3    0    0 -0.33623763085E+01 -0.97142678568E+01  0.54453764190E+01  0.11632914469E+02  0.51100000000E-03 0.  1.
        -11    1    3    3    0    0  0.16324950605E+02 -0.16483172354E+02  0.14334364896E+02  0.27270368540E+02  0.51100000000E-03 0. -1.
         12    1    3    3    0    0  0.66503513038E+01 -0.46809402840E+01  0.35758402694E+01  0.88839747883E+01  0.00000000000E+00 0. -1.
</event>
<event>
 7    1  0.3851772E-009  0.4778728E+02  0.7816164E-02  0.1312668E+00
        -11   -1    0    0    0    0  0.00000000000E+00  0.00000000000E+00  0.45593999997E+02  0.45594000000E+02  0.51100000000E-03 0.  1.
         11   -1    0    0    0    0 -0.00000000000E+00 -0.00000000000E+00 -0.45593999997E+02  0.45594000000E+02  0.51100000000E-03 0. -1.
    9900012    2    1    2    0    0  0.25417175380E+02 -0.11961929756E+02  0.33083256549E+02  0.47787280747E+02  0.20000044239E+02 0.  0.
         12    1    1    2    0    0 -0.25417175380E+02  0.11961929756E+02 -0.33083256549E+02  0.43400719253E+02  0.00000000000E+00 0. -1.
         11    1    3    3    0    0  0.66591177808E+01 -0.10153513392E+02  0.17340716762E+02  0.21169273533E+02  0.51100000000E-03 0. -1.
        -11    1    3    3    0    0  0.13116440996E+02  0.10076437645E+01  0.48280464584E+01  0.14013079719E+02  0.51100000000E-03 0.  1.
        -12    1    3    3    0    0  0.56416166036E+01 -0.28160601289E+01  0.10914493328E+02  0.12604927495E+02  0.00000000000E+00 0.  1.
</event>
<event>
 7    1  0.3851772E-009  0.4778727E+02  0.7816164E-02  0.1312668E+00
        -11   -1    0    0    0    0  0.00000000000E+00  0.00000000000E+00  0.45593999997E+02  0.45594000000E+02  0.51100000000E-03 0.  1.
         11   -1    0    0    0    0 -0.00000000000E+00 -0.00000000000E+00 -0.45593999997E+02  0.45594000000E+02  0.51100000000E-03 0. -1.
    9900012    2    1    2    0    0  0.44994689869E+01  0.75667642590E+01  0.42498496193E+02  0.47787270500E+02  0.19999997517E+02 0.  0.
         12    1    1    2    0    0 -0.44994689869E+01 -0.75667642590E+01 -0.42498496193E+02  0.43400729500E+02  0.00000000000E+00 0. -1.
         11    1    3    3    0    0 -0.69997036154E+01  0.34061798619E+01  0.20826770267E+02  0.22234034091E+02  0.51100000000E-03 0. -1.
        -11    1    3    3    0    0  0.76900477050E+01  0.44218870667E+01  0.18760060477E+02  0.20751621341E+02  0.51100000000E-03 0.  1.
         12    1    3    3    0    0  0.38091248973E+01 -0.26130266954E+00  0.29116654487E+01  0.48016150672E+01  0.00000000000E+00 0. -1.
</event>
<event>
 7    1  0.3851772E-009  0.4778727E+02  0.7816164E-02  0.1312668E+00
        -11   -1    0    0    0    0  0.00000000000E+00  0.00000000000E+00  0.45593999997E+02  0.45594000000E+02  0.51100000000E-03 0.  1.
         11   -1    0    0    0    0 -0.00000000000E+00 -0.00000000000E+00 -0.45593999997E+02  0.45594000000E+02  0.51100000000E-03 0. -1.
    9900012    2    1    2    0    0  0.84102659190E+01  0.31428519919E+02  0.28725231221E+02  0.47787270216E+02  0.19999996223E+02 0.  0.
         12    1    1    2    0    0 -0.84102659190E+01 -0.31428519919E+02 -0.28725231221E+02  0.43400729784E+02  0.00000000000E+00 0. -1.
         11    1    3    3    0    0  0.87289405889E+01  0.24624108210E+02  0.20059611838E+02  0.32938262497E+02  0.51100000000E-03 0.  1.
        -11    1    3    3    0    0  0.14194644134E+01  0.86272445001E-01 -0.17986495179E+01  0.22929157213E+01  0.51100000000E-03 0. -1.
        -12    1    3    3    0    0 -0.17381390832E+01  0.67181392635E+01  0.10464268901E+02  0.12556091998E+02  0.00000000000E+00 0.  1.
</event>
<event>
 7    1  0.3851772E-009  0.4778725E+02  0.7816164E-02  0.1312668E+00
        -11   -1    0    0    0    0  0.00000000000E+00  0.00000000000E+00  0.45593999997E+02  0.45594000000E+02  0.51100000000E-03 0.  1.
         11   -1    0    0    0    0 -0.00000000000E+00 -0.00000000000E+00 -0.45593999997E+02  0.45594000000E+02  0.51100000000E-03 0. -1.
    9900012    2    1    2    0    0 -0.22419790378E+02 -0.75071508367E+00  0.37153929222E+02  0.47787250809E+02  0.19999907737E+02 0.  0.
         12    1    1    2    0    0  0.22419790378E+02  0.75071508367E+00 -0.37153929222E+02  0.43400749191E+02  0.00000000000E+00 0. -1.
         11    1    3    3    0    0 -0.94143791175E+01  0.59482045599E+01  0.21587980992E+02  0.24290998234E+02  0.51100000000E-03 0. -1.
        -11    1    3    3    0    0 -0.90532189035E+01  0.57022827442E+00  0.10121614575E+02  0.13591652389E+02  0.51100000000E-03 0.  1.
         12    1    3    3    0    0 -0.39521923574E+01 -0.72691479180E+01  0.54443336543E+01  0.99046001849E+01  0.00000000000E+00 0. -1.
</event>
<event>
 7    1  0.3851772E-009  0.4778727E+02  0.7816164E-02  0.1312668E+00
        -11   -1    0    0    0    0  0.00000000000E+00  0.00000000000E+00  0.45593999997E+02  0.45594000000E+02  0.51100000000E-03 0.  1.
         11   -1    0    0    0    0 -0.00000000000E+00 -0.00000000000E+00 -0.45593999997E+02  0.45594000000E+02  0.51100000000E-03 0. -1.
    9900012    2    1    2    0    0  0.34616062879E+02  0.25555549232E+02 -0.56802638960E+01  0.47787270700E+02  0.19999998430E+02 0.  0.
         12    1    1    2    0    0 -0.34616062879E+02 -0.25555549232E+02  0.56802638960E+01  0.43400729300E+02  0.00000000000E+00 0. -1.
         11    1    3    3    0    0  0.65564705671E+00 -0.14241346673E+01 -0.40005220250E+01  0.42967673136E+01  0.51100000000E-03 0. -1.
        -11    1    3    3    0    0  0.27773046707E+02  0.23034740433E+02 -0.71629407860E+00  0.36089534046E+02  0.51100000000E-03 0.  1.
        -12    1    3    3    0    0  0.61873691154E+01  0.39449434668E+01 -0.96344779242E+00  0.74009693403E+01  0.00000000000E+00 0.  1.
</event>
<event>
 7    1  0.3851772E-009  0.4778727E+02  0.7816164E-02  0.1312668E+00
        -11   -1    0    0    0    0  0.00000000000E+00  0.00000000000E+00  0.45593999997E+02  0.45594000000E+02  0.51100000000E-03 0.  1.
         11   -1    0    0    0    0 -0.00000000000E+00 -0.00000000000E+00 -0.45593999997E+02  0.45594000000E+02  0.51100000000E-03 0. -1.
    9900012    2    1    2    0    0  0.41725765056E+02 -0.25501075926E+01  0.11665364407E+02  0.47787271377E+02  0.20000001516E+02 0.  0.
         12    1    1    2    0    0 -0.41725765056E+02  0.25501075926E+01 -0.11665364407E+02  0.43400728623E+02  0.00000000000E+00 0. -1.
         11    1    3    3    0    0 -0.59671283506E+00 -0.16403878237E+01 -0.10281610298E+01  0.20258464364E+01  0.51100000000E-03 0. -1.
        -11    1    3    3    0    0  0.42190957949E+02  0.84777260780E+00  0.12065325005E+02  0.43890405771E+02  0.51100000000E-03 0.  1.
        -12    1    3    3    0    0  0.13151994254E+00 -0.17574923767E+01  0.62820043151E+00  0.18710191692E+01  0.00000000000E+00 0.  1.
</event>
<event>
 7    1  0.3851772E-009  0.4778727E+02  0.7816164E-02  0.1312668E+00
        -11   -1    0    0    0    0  0.00000000000E+00  0.00000000000E+00  0.45593999997E+02  0.45594000000E+02  0.51100000000E-03 0.  1.
         11   -1    0    0    0    0 -0.00000000000E+00 -0.00000000000E+00 -0.45593999997E+02  0.45594000000E+02  0.51100000000E-03 0. -1.
    9900012    2    1    2    0    0 -0.24491544804E+02  0.25866741748E+01  0.35736487478E+02  0.47787272040E+02  0.20000004537E+02 0.  0.
         12    1    1    2    0    0  0.24491544804E+02 -0.25866741748E+01 -0.35736487478E+02  0.43400727960E+02  0.00000000000E+00 0. -1.
         11    1    3    3    0    0 -0.66154264551E+01  0.63647067517E+01  0.21972879752E+02  0.23813458465E+02  0.51100000000E-03 0. -1.
        -11    1    3    3    0    0 -0.17131855164E+02 -0.25938497791E+01  0.14309919619E+02  0.22472256625E+02  0.51100000000E-03 0.  1.
         12    1    3    3    0    0 -0.74426318539E+00 -0.11841827978E+01 -0.54631189308E+00  0.15015569494E+01  0.00000000000E+00 0. -1.
</event>
<event>
 7    1  0.3851772E-009  0.4778727E+02  0.7816164E-02  0.1312668E+00
        -11   -1    0    0    0    0  0.00000000000E+00  0.00000000000E+00  0.45593999997E+02  0.45594000000E+02  0.51100000000E-03 0.  1.
         11   -1    0    0    0    0 -0.00000000000E+00 -0.00000000000E+00 -0.45593999997E+02  0.45594000000E+02  0.51100000000E-03 0. -1.
    9900012    2    1    2    0    0  0.35470637365E+02  0.23914541744E+02 -0.73179447206E+01  0.47787265710E+02  0.19999975680E+02 0.  0.
         12    1    1    2    0    0 -0.35470637365E+02 -0.23914541744E+02  0.73179447206E+01  0.43400734290E+02  0.00000000000E+00 0. -1.
         11    1    3    3    0    0  0.54461849649E+01  0.10969390680E+02  0.25300010432E+01  0.12505573482E+02  0.51100000000E-03 0. -1.
        -11    1    3    3    0    0  0.21664715090E+02  0.69658764763E+01 -0.30536730505E+01  0.22961015535E+02  0.51100000000E-03 0.  1.
         12    1    3    3    0    0  0.83597373104E+01  0.59792745878E+01 -0.67942727133E+01  0.12320676694E+02  0.00000000000E+00 0. -1.
</event>
<event>
 7    1  0.3851772E-009  0.4778728E+02  0.7816164E-02  0.1312668E+00
        -11   -1    0    0    0    0  0.00000000000E+00  0.00000000000E+00  0.45593999997E+02  0.45594000000E+02  0.51100000000E-03 0.  1.
         11   -1    0    0    0    0 -0.00000000000E+00 -0.00000000000E+00 -0.45593999997E+02  0.45594000000E+02  0.51100000000E-03 0. -1.
    9900012    2    1    2    0    0 -0.63478555674E+01 -0.40521713499E+02  0.14188663532E+02  0.47787277563E+02  0.20000029723E+02 0.  0.
         12    1    1    2    0    0  0.63478555674E+01  0.40521713499E+02 -0.14188663532E+02  0.43400722437E+02  0.00000000000E+00 0. -1.
         11    1    3    3    0    0  0.30256476627E+01 -0.14323451214E+01  0.97467649140E+00  0.34865672013E+01  0.51100000000E-03 0. -1.
        -11    1    3    3    0    0 -0.11152164745E+02 -0.38474539647E+02  0.13735824475E+02  0.42347772714E+02  0.51100000000E-03 0.  1.
        -12    1    3    3    0    0  0.17786615145E+01 -0.61482873026E+00 -0.52183743412E+00  0.19529376484E+01  0.00000000000E+00 0.  1.
</event>
<event>
 7    1  0.3851772E-009  0.4778727E+02  0.7816164E-02  0.1312668E+00
        -11   -1    0    0    0    0  0.00000000000E+00  0.00000000000E+00  0.45593999997E+02  0.45594000000E+02  0.51100000000E-03 0.  1.
         11   -1    0    0    0    0 -0.00000000000E+00 -0.00000000000E+00 -0.45593999997E+02  0.45594000000E+02  0.51100000000E-03 0. -1.
    9900012    2    1    2    0    0 -0.21685305933E+02  0.31535645431E+02  0.20466399765E+02  0.47787274827E+02  0.20000017247E+02 0.  0.
         12    1    1    2    0    0  0.21685305933E+02 -0.31535645431E+02 -0.20466399765E+02  0.43400725173E+02  0.00000000000E+00 0. -1.
         11    1    3    3    0    0  0.21271276259E+01  0.32600048213E+01  0.66519841653E+01  0.77072172000E+01  0.51100000000E-03 0. -1.
        -11    1    3    3    0    0 -0.23489724195E+02  0.24968131737E+02  0.12959411321E+02  0.36648616444E+02  0.51100000000E-03 0.  1.
        -12    1    3    3    0    0 -0.32270936428E+00  0.33075088727E+01  0.85500427909E+00  0.34314411833E+01  0.00000000000E+00 0.  1.
</event>
<event>
 7    1  0.3851772E-009  0.4778727E+02  0.7816164E-02  0.1312668E+00
        -11   -1    0    0    0    0  0.00000000000E+00  0.00000000000E+00  0.45593999997E+02  0.45594000000E+02  0.51100000000E-03 0.  1.
         11   -1    0    0    0    0 -0.00000000000E+00 -0.00000000000E+00 -0.45593999997E+02  0.45594000000E+02  0.51100000000E-03 0. -1.
    9900012    2    1    2    0    0  0.13326052461E+00  0.98409929990E+00  0.43389367405E+02  0.47787269435E+02  0.19999992663E+02 0.  0.
         12    1    1    2    0    0 -0.13326052461E+00 -0.98409929990E+00 -0.43389367405E+02  0.43400730565E+02  0.00000000000E+00 0. -1.
         11    1    3    3    0    0  0.72884545036E+01 -0.40586452427E+01  0.15752410120E+02  0.17825055262E+02  0.51100000000E-03 0. -1.
        -11    1    3    3    0    0 -0.45183136252E+01  0.54672988041E+01  0.10839938536E+02  0.12954180095E+02  0.51100000000E-03 0.  1.
        -12    1    3    3    0    0 -0.26368803538E+01 -0.42455426148E+00  0.16797018749E+02  0.17008034078E+02  0.00000000000E+00 0.  1.
</event>
<event>
 7    1  0.3851772E-009  0.4778729E+02  0.7816164E-02  0.1312668E+00
        -11   -1    0    0    0    0  0.00000000000E+00  0.00000000000E+00  0.45593999997E+02  0.45594000000E+02  0.51100000000E-03 0. -1.
         11   -1    0    0    0    0 -0.00000000000E+00 -0.00000000000E+00 -0.45593999997E+02  0.45594000000E+02  0.51100000000E-03 0.  1.
    9900012    2    1    2    0    0 -0.18988590191E+02  0.38761379756E+02 -0.45398730466E+01  0.47787290728E+02  0.20000089746E+02 0.  0.
         12    1    1    2    0    0  0.18988590191E+02 -0.38761379756E+02  0.45398730466E+01  0.43400709272E+02  0.00000000000E+00 0. -1.
         11    1    3    3    0    0 -0.66678268784E+01  0.75065313546E+00 -0.10571440160E+01  0.67927129441E+01  0.51100000000E-03 0. -1.
        -11    1    3    3    0    0 -0.11774355411E+02  0.24707945354E+02 -0.40524263098E+01  0.27668396561E+02  0.51100000000E-03 0.  1.
         12    1    3    3    0    0 -0.54640790102E+00  0.13302781266E+02  0.56969727923E+00  0.13326181223E+02  0.00000000000E+00 0. -1.
</event>
<event>
 7    1  0.3851772E-009  0.4778727E+02  0.7816164E-02  0.1312668E+00
        -11   -1    0    0    0    0  0.00000000000E+00  0.00000000000E+00  0.45593999997E+02  0.45594000000E+02  0.51100000000E-03 0. -1.
         11   -1    0    0    0    0 -0.00000000000E+00 -0.00000000000E+00 -0.45593999997E+02  0.45594000000E+02  0.51100000000E-03 0.  1.
    9900012    2    1    2    0    0 -0.33760170858E+02  0.26823769195E+02 -0.49355137314E+01  0.47787273900E+02  0.20000013022E+02 0.  0.
         12    1    1    2    0    0  0.33760170858E+02 -0.26823769195E+02  0.49355137314E+01  0.43400726100E+02  0.00000000000E+00 0. -1.
         11    1    3    3    0    0  0.33589289318E+00 -0.69152703265E+00  0.10876208444E+01  0.13318982825E+01  0.51100000000E-03 0. -1.
        -11    1    3    3    0    0 -0.67903713042E+01  0.72781007705E+01  0.44323091820E+01  0.10896112069E+02  0.51100000000E-03 0.  1.
        -12    1    3    3    0    0 -0.27305692447E+02  0.20237195457E+02 -0.10455443758E+02  0.35559263549E+02  0.00000000000E+00 0.  1.
</event>
<event>
 7    1  0.3851772E-009  0.4778727E+02  0.7816164E-02  0.1312668E+00
        -11   -1    0    0    0    0  0.00000000000E+00  0.00000000000E+00  0.45593999997E+02  0.45594000000E+02  0.51100000000E-03 0. -1.
         11   -1    0    0    0    0 -0.00000000000E+00 -0.00000000000E+00 -0.45593999997E+02  0.45594000000E+02  0.51100000000E-03 0.  1.
    9900012    2    1    2    0    0  0.37189920666E+02  0.88159918704E+01 -0.20562377876E+02  0.47787270793E+02  0.19999998855E+02 0.  0.
         12    1    1    2    0    0 -0.37189920666E+02 -0.88159918704E+01  0.20562377876E+02  0.43400729207E+02  0.00000000000E+00 0. -1.
         11    1    3    3    0    0 -0.17534519490E+01 -0.90049926008E+00 -0.31687217455E+01  0.37317945303E+01  0.51100000000E-03 0. -1.
        -11    1    3    3    0    0  0.35564373785E+02  0.10191405148E+02 -0.16615330042E+02  0.40555623707E+02  0.51100000000E-03 0.  1.
         12    1    3    3    0    0  0.33789988292E+01 -0.47491401725E+00 -0.77832608866E+00  0.34998525557E+01  0.00000000000E+00 0. -1.
</event>
<event>
 7    1  0.3851772E-009  0.4778728E+02  0.7816164E-02  0.1312668E+00
        -11   -1    0    0    0    0  0.00000000000E+00  0.00000000000E+00  0.45593999997E+02  0.45594000000E+02  0.51100000000E-03 0.  1.
         11   -1    0    0    0    0 -0.00000000000E+00 -0.00000000000E+00 -0.45593999997E+02  0.45594000000E+02  0.51100000000E-03 0. -1.
    9900012    2    1    2    0    0  0.17978158912E+02 -0.37424080085E+02  0.12643046265E+02  0.47787278959E+02  0.20000036085E+02 0.  0.
         12    1    1    2    0    0 -0.17978158912E+02  0.37424080085E+02 -0.12643046265E+02  0.43400721041E+02  0.00000000000E+00 0. -1.
         11    1    3    3    0    0  0.11408887742E+01 -0.80080928749E+00 -0.32458723176E+01  0.35325076182E+01  0.51100000000E-03 0. -1.
        -11    1    3    3    0    0  0.13752140969E+02 -0.29955230561E+02  0.89636326482E+01  0.34158219065E+02  0.51100000000E-03 0.  1.
         12    1    3    3    0    0  0.30851291685E+01 -0.66680402365E+01  0.69252859341E+01  0.10096552275E+02  0.00000000000E+00 0. -1.
</event>
<event>
 7    1  0.3851772E-009  0.4778727E+02  0.7816164E-02  0.1312668E+00
        -11   -1    0    0    0    0  0.00000000000E+00  0.00000000000E+00  0.45593999997E+02  0.45594000000E+02  0.51100000000E-03 0. -1.
         11   -1    0    0    0    0 -0.00000000000E+00 -0.00000000000E+00 -0.45593999997E+02  0.45594000000E+02  0.51100000000E-03 0.  1.
    9900012    2    1    2    0    0  0.11140731902E+02  0.31588765329E+02 -0.27598141240E+02  0.47787269566E+02  0.19999993260E+02 0.  0.
         12    1    1    2    0    0 -0.11140731902E+02 -0.31588765329E+02  0.27598141240E+02  0.43400730434E+02  0.00000000000E+00 0. -1.
         11    1    3    3    0    0  0.85791563154E+00  0.98660935054E+01 -0.15857354622E+02  0.18695761984E+02  0.51100000000E-03 0.  1.
        -11    1    3    3    0    0  0.57492665219E+01  0.21100725834E+02 -0.84082115405E+01  0.23430593630E+02  0.51100000000E-03 0. -1.
        -12    1    3    3    0    0  0.45335497482E+01  0.62194598904E+00 -0.33325750768E+01  0.56609139523E+01  0.00000000000E+00 0.  1.
</event>
<event>
 7    1  0.3851772E-009  0.4778727E+02  0.7816164E-02  0.1312668E+00
        -11   -1    0    0    0    0  0.00000000000E+00  0.00000000000E+00  0.45593999997E+02  0.45594000000E+02  0.51100000000E-03 0. -1.
         11   -1    0    0    0    0 -0.00000000000E+00 -0.00000000000E+00 -0.45593999997E+02  0.45594000000E+02  0.51100000000E-03 0.  1.
    9900012    2    1    2    0    0 -0.14615651438E+02 -0.28365466756E+02 -0.29417785805E+02  0.47787273129E+02  0.20000009504E+02 0.  0.
         12    1    1    2    0    0  0.14615651438E+02  0.28365466756E+02  0.29417785805E+02  0.43400726871E+02  0.00000000000E+00 0. -1.
         11    1    3    3    0    0 -0.53927282673E+01  0.88562661904E+00 -0.91372325186E+01  0.10646824458E+02  0.51100000000E-03 0. -1.
        -11    1    3    3    0    0 -0.38986421893E+01 -0.20517693657E+02 -0.13454260818E+02  0.24843355215E+02  0.51100000000E-03 0.  1.
        -12    1    3    3    0    0 -0.53242809815E+01 -0.87333997180E+01 -0.68262924683E+01  0.12297093456E+02  0.00000000000E+00 0.  1.
</event>
<event>
 7    1  0.3851772E-009  0.4778727E+02  0.7816164E-02  0.1312668E+00
        -11   -1    0    0    0    0  0.00000000000E+00  0.00000000000E+00  0.45593999997E+02  0.45594000000E+02  0.51100000000E-03 0.  1.
         11   -1    0    0    0    0 -0.00000000000E+00 -0.00000000000E+00 -0.45593999997E+02  0.45594000000E+02  0.51100000000E-03 0. -1.
    9900012    2    1    2    0    0 -0.23830404275E+02 -0.13067022031E+02  0.33837671052E+02  0.47787271724E+02  0.20000003099E+02 0.  0.
         12    1    1    2    0    0  0.23830404275E+02  0.13067022031E+02 -0.33837671052E+02  0.43400728276E+02  0.00000000000E+00 0. -1.
         11    1    3    3    0    0 -0.13013780817E+01 -0.42088971271E+01  0.23195233400E+01  0.49788139877E+01  0.51100000000E-03 0. -1.
        -11    1    3    3    0    0 -0.14976754154E+02  0.16414283350E+01  0.22353818233E+02  0.26957200185E+02  0.51100000000E-03 0.  1.
        -12    1    3    3    0    0 -0.75522720398E+01 -0.10499553239E+02  0.91643294791E+01  0.15851257552E+02  0.00000000000E+00 0.  1.
</event>
<event>
 7    1  0.3851772E-009  0.4778727E+02  0.7816164E-02  0.1312668E+00
        -11   -1    0    0    0    0  0.00000000000E+00  0.00000000000E+00  0.45593999997E+02  0.45594000000E+02  0.51100000000E-03 0.  1.
         11   -1    0    0    0    0 -0.00000000000E+00 -0.00000000000E+00 -0.45593999997E+02  0.45594000000E+02  0.51100000000E-03 0. -1.
    9900012    2    1    2    0    0  0.15137395928E+02  0.17879401553E+02  0.36535043245E+02  0.47787272584E+02  0.20000007018E+02 0.  0.
         12    1    1    2    0    0 -0.15137395928E+02 -0.17879401553E+02 -0.36535043245E+02  0.43400727416E+02  0.00000000000E+00 0. -1.
         11    1    3    3    0    0  0.44546965355E+00 -0.82492509323E+00 -0.72944538775E+00  0.11878701345E+01  0.51100000000E-03 0. -1.
        -11    1    3    3    0    0  0.12086975183E+02  0.20908644210E+02  0.34925024433E+02  0.42462026608E+02  0.51100000000E-03 0.  1.
        -12    1    3    3    0    0  0.26049510908E+01 -0.22043175639E+01  0.23394641997E+01  0.41373758409E+01  0.00000000000E+00 0.  1.
</event>
<event>
 7    1  0.3851772E-009  0.4778728E+02  0.7816164E-02  0.1312668E+00
        -11   -1    0    0    0    0  0.00000000000E+00  0.00000000000E+00  0.45593999997E+02  0.45594000000E+02  0.51100000000E-03 0.  1.
         11   -1    0    0    0    0 -0.00000000000E+00 -0.00000000000E+00 -0.45593999997E+02  0.45594000000E+02  0.51100000000E-03 0. -1.
    9900012    2    1    2    0    0 -0.11438524659E+02  0.11625418845E+02  0.40219801748E+02  0.47787278090E+02  0.20000032122E+02 0.  0.
         12    1    1    2    0    0  0.11438524659E+02 -0.11625418845E+02 -0.40219801748E+02  0.43400721910E+02  0.00000000000E+00 0. -1.
         11    1    3    3    0    0  0.42659053933E+01  0.30030365788E+01  0.22029051712E+01  0.56629470219E+01  0.51100000000E-03 0. -1.
        -11    1    3    3    0    0 -0.93494808226E+01  0.67034177883E+01  0.24261584250E+02  0.26850941739E+02  0.51100000000E-03 0.  1.
         12    1    3    3    0    0 -0.63549492302E+01  0.19189644781E+01  0.13755312327E+02  0.15273389329E+02  0.00000000000E+00 0. -1.
</event>
<event>
 7    1  0.3851772E-009  0.4778727E+02  0.7816164E-02  0.1312668E+00
        -11   -1    0    0    0    0  0.00000000000E+00  0.00000000000E+00  0.45593999997E+02  0.45594000000E+02  0.51100000000E-03 0. -1.
         11   -1    0    0    0    0 -0.00000000000E+00 -0.00000000000E+00 -0.45593999997E+02  0.45594000000E+02  0.51100000000E-03 0.  1.
    9900012    2    1    2    0    0 -0.21122965878E+02  0.27474420746E+02 -0.26126608556E+02  0.47787272386E+02  0.20000006115E+02 0.  0.
         12    1    1    2    0    0  0.21122965878E+02 -0.27474420746E+02  0.26126608556E+02  0.43400727614E+02  0.00000000000E+00 0. -1.
         11    1    3    3    0    0 -0.18552288101E+02  0.16288124413E+02 -0.25573604874E+02  0.35545740352E+02  0.51100000000E-03 0.  1.
        -11    1    3    3    0    0  0.61546100843E+00  0.43752695795E+01  0.10764717255E+01  0.45475892276E+01  0.51100000000E-03 0. -1.
        -12    1    3    3    0    0 -0.31861387849E+01  0.68110267538E+01 -0.16294754083E+01  0.76939428062E+01  0.00000000000E+00 0.  1.
</event>
<event>
 7    1  0.3851772E-009  0.4778728E+02  0.7816164E-02  0.1312668E+00
        -11   -1    0    0    0    0  0.00000000000E+00  0.00000000000E+00  0.45593999997E+02  0.45594000000E+02  0.51100000000E-03 0. -1.
         11   -1    0    0    0    0 -0.00000000000E+00 -0.00000000000E+00 -0.45593999997E+02  0.45594000000E+02  0.51100000000E-03 0.  1.
    9900012    2    1    2    0    0 -0.16291844779E+02 -0.39367347222E+02 -0.82710487102E+01  0.47787280186E+02  0.20000041679E+02 0.  0.
         12    1    1    2    0    0  0.16291844779E+02  0.39367347222E+02  0.82710487102E+01  0.43400719814E+02  0.00000000000E+00 0. -1.
         11    1    3    3    0    0 -0.41154063791E+01 -0.71235909598E+00 -0.45957531811E+00  0.42018132849E+01  0.51100000000E-03 0. -1.
        -11    1    3    3    0    0 -0.13033259892E+01 -0.25502675036E+02 -0.22393232002E+01  0.25633955241E+02  0.51100000000E-03 0.  1.
         12    1    3    3    0    0 -0.10873112411E+02 -0.13152313090E+02 -0.55721501918E+01  0.17951511660E+02  0.00000000000E+00 0. -1.
</event>
<event>
 7    1  0.3851772E-009  0.4778727E+02  0.7816164E-02  0.1312668E+00
        -11   -1    0    0    0    0  0.00000000000E+00  0.00000000000E+00  0.45593999997E+02  0.45594000000E+02  0.51100000000E-03 0. -1.
         11   -1    0    0    0    0 -0.00000000000E+00 -0.00000000000E+00 -0.45593999997E+02  0.45594000000E+02  0.51100000000E-03 0.  1.
    9900012    2    1    2    0    0 -0.28767565534E+02 -0.14380818145E+00 -0.32496610973E+02  0.47787271523E+02  0.20000002184E+02 0.  0.
         12    1    1    2    0    0  0.28767565534E+02  0.14380818145E+00  0.32496610973E+02  0.43400728477E+02  0.00000000000E+00 0. -1.
         11    1    3    3    0    0 -0.11487724881E+00  0.36388615859E+00  0.63933569188E+00  0.74455376350E+00  0.51100000000E-03 0. -1.
        -11    1    3    3    0    0  0.56622006589E+00  0.25728614280E+01 -0.78462713647E+01  0.82767261451E+01  0.51100000000E-03 0.  1.
        -12    1    3    3    0    0 -0.29218908352E+02 -0.30805557680E+01 -0.25289675300E+02  0.38765991615E+02  0.00000000000E+00 0.  1.
</event>
<event>
 7    1  0.3851772E-009  0.4778726E+02  0.7816164E-02  0.1312668E+00
        -11   -1    0    0    0    0  0.00000000000E+00  0.00000000000E+00  0.45593999997E+02  0.45594000000E+02  0.51100000000E-03 0.  1.
         11   -1    0    0    0    0 -0.00000000000E+00 -0.00000000000E+00 -0.45593999997E+02  0.45594000000E+02  0.51100000000E-03 0. -1.
    9900012    2    1    2    0    0 -0.35597755011E+02  0.11001301301E+02  0.22257472909E+02  0.47787263918E+02  0.19999967508E+02 0.  0.
         12    1    1    2    0    0  0.35597755011E+02 -0.11001301301E+02 -0.22257472909E+02  0.43400736082E+02  0.00000000000E+00 0. -1.
         11    1    3    3    0    0 -0.91723957321E-01 -0.17266800679E+01 -0.13782770802E+01  0.22112180607E+01  0.51100000000E-03 0. -1.
        -11    1    3    3    0    0 -0.77714083485E+01 -0.10373229091E+01  0.31481399706E+01  0.84487639375E+01  0.51100000000E-03 0.  1.
         12    1    3    3    0    0 -0.27734622705E+02  0.13765304278E+02  0.20487610018E+02  0.37127281920E+02  0.00000000000E+00 0. -1.
</event>
<event>
 7    1  0.3851772E-009  0.4778727E+02  0.7816164E-02  0.1312668E+00
        -11   -1    0    0    0    0  0.00000000000E+00  0.00000000000E+00  0.45593999997E+02  0.45594000000E+02  0.51100000000E-03 0. -1.
         11   -1    0    0    0    0 -0.00000000000E+00 -0.00000000000E+00 -0.45593999997E+02  0.45594000000E+02  0.51100000000E-03 0.  1.
    9900012    2    1    2    0    0 -0.26548090799E+02 -0.26571309155E+02 -0.21743678128E+02  0.47787272658E+02  0.20000007355E+02 0.  0.
         12    1    1    2    0    0  0.26548090799E+02  0.26571309155E+02  0.21743678128E+02  0.43400727342E+02  0.00000000000E+00 0. -1.
         11    1    3    3    0    0 -0.14025142123E+02 -0.18685480982E+02 -0.88688077588E+01  0.24990149308E+02  0.51100000000E-03 0. -1.
        -11    1    3    3    0    0  0.14305609054E+01  0.91589620960E+00  0.24818562006E+00  0.17166731588E+01  0.51100000000E-03 0.  1.
        -12    1    3    3    0    0 -0.13953509582E+02 -0.88017243826E+01 -0.13123055990E+02  0.21080450191E+02  0.00000000000E+00 0.  1.
</event>
<event>
 7    1  0.3851772E-009  0.4778726E+02  0.7816164E-02  0.1312668E+00
        -11   -1    0    0    0    0  0.00000000000E+00  0.00000000000E+00  0.45593999997E+02  0.45594000000E+02  0.51100000000E-03 0. -1.
         11   -1    0    0    0    0 -0.00000000000E+00 -0.00000000000E+00 -0.45593999997E+02  0.45594000000E+02  0.51100000000E-03 0.  1.
    9900012    2    1    2    0    0 -0.11432736141E+02 -0.34888378999E+02 -0.23145585581E+02  0.47787256035E+02  0.19999931565E+02 0.  0.
         12    1    1    2    0    0  0.11432736141E+02  0.34888378999E+02  0.23145585581E+02  0.43400743965E+02  0.00000000000E+00 0. -1.
         11    1    3    3    0    0  0.23379117837E+01 -0.84117053538E+01 -0.16406952161E+01  0.88833833375E+01  0.51100000000E-03 0. -1.
        -11    1    3    3    0    0 -0.15343130954E+02 -0.17421185743E+02 -0.14877095672E+02  0.27572402073E+02  0.51100000000E-03 0.  1.
        -12    1    3    3    0    0  0.15724830296E+01 -0.90554879022E+01 -0.66277946933E+01  0.11331470625E+02  0.00000000000E+00 0.  1.
</event>
<event>
 7    1  0.3851772E-009  0.4778727E+02  0.7816164E-02  0.1312668E+00
        -11   -1    0    0    0    0  0.00000000000E+00  0.00000000000E+00  0.45593999997E+02  0.45594000000E+02  0.51100000000E-03 0.  1.
         11   -1    0    0    0    0 -0.00000000000E+00 -0.00000000000E+00 -0.45593999997E+02  0.45594000000E+02  0.51100000000E-03 0. -1.
    9900012    2    1    2    0    0 -0.11775619569E+02  0.41304273072E+02 -0.62382025883E+01  0.47787270031E+02  0.19999995380E+02 0.  0.
         12    1    1    2    0    0  0.11775619569E+02 -0.41304273072E+02  0.62382025883E+01  0.43400729969E+02  0.00000000000E+00 0. -1.
         11    1    3    3    0    0 -0.11418054206E+02  0.37808517173E+02 -0.73514049590E+01  0.40173362914E+02  0.51100000000E-03 0. -1.
        -11    1    3    3    0    0  0.29204199249E+00  0.16698751721E+01  0.38809927249E+01  0.42350769069E+01  0.51100000000E-03 0.  1.
        -12    1    3    3    0    0 -0.64960735600E+00  0.18258807276E+01 -0.27677903542E+01  0.33788302107E+01  0.00000000000E+00 0.  1.
</event>
<event>
 7    1  0.3851772E-009  0.4778727E+02  0.7816164E-02  0.1312668E+00
        -11   -1    0    0    0    0  0.00000000000E+00  0.00000000000E+00  0.45593999997E+02  0.45594000000E+02  0.51100000000E-03 0. -1.
         11   -1    0    0    0    0 -0.00000000000E+00 -0.00000000000E+00 -0.45593999997E+02  0.45594000000E+02  0.51100000000E-03 0.  1.
    9900012    2    1    2    0    0 -0.12428206132E+02  0.24745494068E+02 -0.33418911249E+02  0.47787269437E+02  0.19999992669E+02 0.  0.
         12    1    1    2    0    0  0.12428206132E+02 -0.24745494068E+02  0.33418911249E+02  0.43400730563E+02  0.00000000000E+00 0. -1.
         11    1    3    3    0    0 -0.10752579577E+02  0.95932113051E+01 -0.23818800362E+02  0.27838515076E+02  0.51100000000E-03 0.  1.
        -11    1    3    3    0    0  0.42573382566E+00  0.15175343639E+02 -0.73400622823E+01  0.16862645653E+02  0.51100000000E-03 0. -1.
         12    1    3    3    0    0 -0.21013603808E+01 -0.23060876265E-01 -0.22600486051E+01  0.30861087070E+01  0.00000000000E+00 0. -1.
</event>
<event>
 7    1  0.3851772E-009  0.4778727E+02  0.7816164E-02  0.1312668E+00
        -11   -1    0    0    0    0  0.00000000000E+00  0.00000000000E+00  0.45593999997E+02  0.45594000000E+02  0.51100000000E-03 0.  1.
         11   -1    0    0    0    0 -0.00000000000E+00 -0.00000000000E+00 -0.45593999997E+02  0.45594000000E+02  0.51100000000E-03 0. -1.
    9900012    2    1    2    0    0 -0.15728001961E+02  0.13457446337E+02  0.38146428782E+02  0.47787274932E+02  0.20000017724E+02 0.  0.
         12    1    1    2    0    0  0.15728001961E+02 -0.13457446337E+02 -0.38146428782E+02  0.43400725068E+02  0.00000000000E+00 0. -1.
         11    1    3    3    0    0 -0.94363387836E+01  0.58658762622E+01  0.40304611348E+01  0.11819374399E+02  0.51100000000E-03 0. -1.
        -11    1    3    3    0    0 -0.38114792822E+01  0.56798866249E+01  0.30142192371E+02  0.30908578867E+02  0.51100000000E-03 0.  1.
        -12    1    3    3    0    0 -0.24801838954E+01  0.19116834497E+01  0.39737752764E+01  0.50593216655E+01  0.00000000000E+00 0.  1.
</event>
<event>
 7    1  0.3851772E-009  0.4778728E+02  0.7816164E-02  0.1312668E+00
        -11   -1    0    0    0    0  0.00000000000E+00  0.00000000000E+00  0.45593999997E+02  0.45594000000E+02  0.51100000000E-03 0. -1.
         11   -1    0    0    0    0 -0.00000000000E+00 -0.00000000000E+00 -0.45593999997E+02  0.45594000000E+02  0.51100000000E-03 0.  1.
    9900012    2    1    2    0    0  0.45185710727E+01 -0.61867605023E+01 -0.42719189855E+02  0.47787277979E+02  0.20000031620E+02 0.  0.
         12    1    1    2    0    0 -0.45185710727E+01  0.61867605023E+01  0.42719189855E+02  0.43400722021E+02  0.00000000000E+00 0. -1.
         11    1    3    3    0    0 -0.31058591251E+01  0.75099870957E-01 -0.31197063332E+01  0.44027910196E+01  0.51100000000E-03 0. -1.
        -11    1    3    3    0    0  0.21344923561E+01 -0.98177100101E+01 -0.15979689568E+02  0.18875750751E+02  0.51100000000E-03 0.  1.
        -12    1    3    3    0    0  0.54899378417E+01  0.35558496368E+01 -0.23619793954E+02  0.24508736209E+02  0.00000000000E+00 0.  1.
</event>
<event>
 7    1  0.3851772E-009  0.4778727E+02  0.7816164E-02  0.1312668E+00
        -11   -1    0    0    0    0  0.00000000000E+00  0.00000000000E+00  0.45593999997E+02  0.45594000000E+02  0.51100000000E-03 0.  1.
         11   -1    0    0    0    0 -0.00000000000E+00 -0.00000000000E+00 -0.45593999997E+02  0.45594000000E+02  0.51100000000E-03 0. -1.
    9900012    2    1    2    0    0  0.17947736354E+02 -0.31910485598E+02  0.23307145683E+02  0.47787269923E+02  0.19999994887E+02 0.  0.
         12    1    1    2    0    0 -0.17947736354E+02  0.31910485598E+02 -0.23307145683E+02  0.43400730077E+02  0.00000000000E+00 0. -1.
         11    1    3    3    0    0 -0.22817780488E+01 -0.43403847410E+01 -0.19274664382E+00  0.49074028053E+01  0.51100000000E-03 0. -1.
        -11    1    3    3    0    0  0.15661496335E+02 -0.21835369688E+02  0.12441454162E+02  0.29611747986E+02  0.51100000000E-03 0.  1.
        -12    1    3    3    0    0  0.45680180675E+01 -0.57347311692E+01  0.11058438165E+02  0.13268119132E+02  0.00000000000E+00 0.  1.
</event>
<event>
 7    1  0.3851772E-009  0.4778727E+02  0.7816164E-02  0.1312668E+00
        -11   -1    0    0    0    0  0.00000000000E+00  0.00000000000E+00  0.45593999997E+02  0.45594000000E+02  0.51100000000E-03 0.  1.
         11   -1    0    0    0    0 -0.00000000000E+00 -0.00000000000E+00 -0.45593999997E+02  0.45594000000E+02  0.51100000000E-03 0. -1.
    9900012    2    1    2    0    0 -0.75245035553E+01 -0.39147758064E+02  0.17159785149E+02  0.47787270265E+02  0.19999996446E+02 0.  0.
         12    1    1    2    0    0  0.75245035553E+01  0.39147758064E+02 -0.17159785149E+02  0.43400729735E+02  0.00000000000E+00 0. -1.
         11    1    3    3    0    0 -0.62087766987E+01 -0.69351206098E+01 -0.22648813982E+01  0.95799005201E+01  0.51100000000E-03 0. -1.
        -11    1    3    3    0    0 -0.36590772422E+01 -0.23956272174E+02  0.15524800751E+02  0.28780397172E+02  0.51100000000E-03 0.  1.
         12    1    3    3    0    0  0.23433503856E+01 -0.82563652798E+01  0.38998657959E+01  0.94269725729E+01  0.00000000000E+00 0. -1.
</event>
<event>
 7    1  0.3851772E-009  0.4778727E+02  0.7816164E-02  0.1312668E+00
        -11   -1    0    0    0    0  0.00000000000E+00  0.00000000000E+00  0.45593999997E+02  0.45594000000E+02  0.51100000000E-03 0.  1.
         11   -1    0    0    0    0 -0.00000000000E+00 -0.00000000000E+00 -0.45593999997E+02  0.45594000000E+02  0.51100000000E-03 0. -1.
    9900012    2    1    2    0    0 -0.12124351721E+02 -0.41322958029E+02  0.53885855946E+01  0.47787267061E+02  0.19999981840E+02 0.  0.
         12    1    1    2    0    0  0.12124351721E+02  0.41322958029E+02 -0.53885855946E+01  0.43400732939E+02  0.00000000000E+00 0. -1.
         11    1    3    3    0    0 -0.33480797903E+01 -0.73354486141E+01 -0.34087698747E+01  0.87543221881E+01  0.51100000000E-03 0. -1.
        -11    1    3    3    0    0 -0.95774679873E+00 -0.19761067809E+02  0.11022899514E+02  0.22647767966E+02  0.51100000000E-03 0.  1.
        -12    1    3    3    0    0 -0.78185251316E+01 -0.14226441605E+02 -0.22255440448E+01  0.16385176907E+02  0.00000000000E+00 0.  1.
</event>
<event>
 7    1  0.3851772E-009  0.4778727E+02  0.7816164E-02  0.1312668E+00
        -11   -1    0    0    0    0  0.00000000000E+00  0.00000000000E+00  0.45593999997E+02  0.45594000000E+02  0.51100000000E-03 0. -1.
         11   -1    0    0    0    0 -0.00000000000E+00 -0.00000000000E+00 -0.45593999997E+02  0.45594000000E+02  0.51100000000E-03 0.  1.
    9900012    2    1    2    0    0 -0.27215952762E+02 -0.22136590877E+02 -0.25551642653E+02  0.47787272096E+02  0.20000004793E+02 0.  0.
         12    1    1    2    0    0  0.27215952762E+02  0.22136590877E+02  0.25551642653E+02  0.43400727904E+02  0.00000000000E+00 0. -1.
         11    1    3    3    0    0 -0.11085443336E+02 -0.27603318028E+01 -0.18319349409E+01  0.11569895052E+02  0.51100000000E-03 0. -1.
        -11    1    3    3    0    0 -0.62606976990E+00 -0.69436954479E+01 -0.94858832404E+01  0.11772376605E+02  0.51100000000E-03 0.  1.
        -12    1    3    3    0    0 -0.15504439656E+02 -0.12432563626E+02 -0.14233824471E+02  0.24445000439E+02  0.00000000000E+00 0.  1.
</event>
<event>
 7    1  0.3851772E-009  0.4778727E+02  0.7816164E-02  0.1312668E+00
        -11   -1    0    0    0    0  0.00000000000E+00  0.00000000000E+00  0.45593999997E+02  0.45594000000E+02  0.51100000000E-03 0. -1.
         11   -1    0    0    0    0 -0.00000000000E+00 -0.00000000000E+00 -0.45593999997E+02  0.45594000000E+02  0.51100000000E-03 0.  1.
    9900012    2    1    2    0    0 -0.29212521416E+02  0.16410374639E+01 -0.32055555786E+02  0.47787273414E+02  0.20000010806E+02 0.  0.
         12    1    1    2    0    0  0.29212521416E+02 -0.16410374639E+01  0.32055555786E+02  0.43400726586E+02  0.00000000000E+00 0. -1.
         11    1    3    3    0    0 -0.10564384198E+02 -0.48836090126E+01 -0.16010356409E+02  0.19793619251E+02  0.51100000000E-03 0. -1.
        -11    1    3    3    0    0 -0.13874822871E+01  0.44251354545E+01 -0.49001070993E+00  0.46633723467E+01  0.51100000000E-03 0.  1.
        -12    1    3    3    0    0 -0.17260654931E+02  0.20995110220E+01 -0.15555188667E+02  0.23330281817E+02  0.00000000000E+00 0.  1.
</event>
<event>
 7    1  0.3851772E-009  0.4778728E+02  0.7816164E-02  0.1312668E+00
        -11   -1    0    0    0    0  0.00000000000E+00  0.00000000000E+00  0.45593999997E+02  0.45594000000E+02  0.51100000000E-03 0.  1.
         11   -1    0    0    0    0 -0.00000000000E+00 -0.00000000000E+00 -0.45593999997E+02  0.45594000000E+02  0.51100000000E-03 0. -1.
    9900012    2    1    2    0    0 -0.35409869889E+02 -0.70677343857E+01  0.24079268560E+02  0.47787275014E+02  0.20000018099E+02 0.  0.
         12    1    1    2    0    0  0.35409869889E+02  0.70677343857E+01 -0.24079268560E+02  0.43400724986E+02  0.00000000000E+00 0. -1.
         11    1    3    3    0    0 -0.12098326094E+02  0.27851793859E+01  0.17274421848E+02  0.21272808205E+02  0.51100000000E-03 0. -1.
        -11    1    3    3    0    0 -0.20340505470E+02 -0.70227825243E+01  0.58942845682E+01  0.22311392336E+02  0.51100000000E-03 0.  1.
         12    1    3    3    0    0 -0.29710383255E+01 -0.28301312472E+01  0.91056214451E+00  0.42030744731E+01  0.00000000000E+00 0. -1.
</event>
<event>
 7    1  0.3851772E-009  0.4778725E+02  0.7816164E-02  0.1312668E+00
        -11   -1    0    0    0    0  0.00000000000E+00  0.00000000000E+00  0.45593999997E+02  0.45594000000E+02  0.51100000000E-03 0. -1.
         11   -1    0    0    0    0 -0.00000000000E+00 -0.00000000000E+00 -0.45593999997E+02  0.45594000000E+02  0.51100000000E-03 0.  1.
    9900012    2    1    2    0    0  0.24995588108E+02 -0.35279212613E+02  0.37712781758E+01  0.47787253388E+02  0.19999919495E+02 0.  0.
         12    1    1    2    0    0 -0.24995588108E+02  0.35279212613E+02 -0.37712781758E+01  0.43400746612E+02  0.00000000000E+00 0. -1.
         11    1    3    3    0    0  0.14015411030E+02 -0.84152405487E+01  0.96261503146E+00  0.16376038831E+02  0.51100000000E-03 0.  1.
        -11    1    3    3    0    0  0.31738319431E+01  0.13820175672E+00  0.22594253919E+00  0.31848640820E+01  0.51100000000E-03 0. -1.
         12    1    3    3    0    0  0.78063451357E+01 -0.27002173821E+02  0.25827206052E+01  0.28226350475E+02  0.00000000000E+00 0. -1.
</event>
<event>
 7    1  0.3851772E-009  0.4778727E+02  0.7816164E-02  0.1312668E+00
        -11   -1    0    0    0    0  0.00000000000E+00  0.00000000000E+00  0.45593999997E+02  0.45594000000E+02  0.51100000000E-03 0. -1.
         11   -1    0    0    0    0 -0.00000000000E+00 -0.00000000000E+00 -0.45593999997E+02  0.45594000000E+02  0.51100000000E-03 0.  1.
    9900012    2    1    2    0    0 -0.20608918263E+02 -0.36607446569E+02  0.10899112951E+02  0.47787270520E+02  0.19999997608E+02 0.  0.
         12    1    1    2    0    0  0.20608918263E+02  0.36607446569E+02 -0.10899112951E+02  0.43400729480E+02  0.00000000000E+00 0. -1.
         11    1    3    3    0    0  0.65183232465E+00 -0.52681563127E+01  0.26510363786E+01  0.59334939501E+01  0.51100000000E-03 0. -1.
        -11    1    3    3    0    0 -0.42013570082E+01 -0.13416246463E+01 -0.32511007316E+01  0.54791435124E+01  0.51100000000E-03 0.  1.
        -12    1    3    3    0    0 -0.17059393579E+02 -0.29997665610E+02  0.11499177304E+02  0.36374633057E+02  0.00000000000E+00 0.  1.
</event>
<event>
 7    1  0.3851772E-009  0.4778727E+02  0.7816164E-02  0.1312668E+00
        -11   -1    0    0    0    0  0.00000000000E+00  0.00000000000E+00  0.45593999997E+02  0.45594000000E+02  0.51100000000E-03 0.  1.
         11   -1    0    0    0    0 -0.00000000000E+00 -0.00000000000E+00 -0.45593999997E+02  0.45594000000E+02  0.51100000000E-03 0. -1.
    9900012    2    1    2    0    0 -0.88545366890E+01 -0.32387963014E+01  0.42364262508E+02  0.47787270060E+02  0.19999995512E+02 0.  0.
         12    1    1    2    0    0  0.88545366890E+01  0.32387963014E+01 -0.42364262508E+02  0.43400729940E+02  0.00000000000E+00 0. -1.
         11    1    3    3    0    0  0.28094819053E+01 -0.67247701712E-01  0.11093941602E+02  0.11444354563E+02  0.51100000000E-03 0. -1.
        -11    1    3    3    0    0 -0.85437483258E+01 -0.37606890004E+01  0.65119314840E+01  0.11381725226E+02  0.51100000000E-03 0.  1.
        -12    1    3    3    0    0 -0.31202702685E+01  0.58914040071E+00  0.24758389422E+02  0.24961190271E+02  0.00000000000E+00 0.  1.
</event>
<event>
 7    1  0.3851772E-009  0.4778727E+02  0.7816164E-02  0.1312668E+00
        -11   -1    0    0    0    0  0.00000000000E+00  0.00000000000E+00  0.45593999997E+02  0.45594000000E+02  0.51100000000E-03 0.  1.
         11   -1    0    0    0    0 -0.00000000000E+00 -0.00000000000E+00 -0.45593999997E+02  0.45594000000E+02  0.51100000000E-03 0. -1.
    9900012    2    1    2    0    0  0.38714283692E+02  0.18452269015E+02  0.66589317459E+01  0.47787269988E+02  0.19999995184E+02 0.  0.
         12    1    1    2    0    0 -0.38714283692E+02 -0.18452269015E+02 -0.66589317459E+01  0.43400730012E+02  0.00000000000E+00 0. -1.
         11    1    3    3    0    0  0.24137571889E+02  0.94960659354E+01 -0.19355813064E+01  0.26010461745E+02  0.51100000000E-03 0. -1.
        -11    1    3    3    0    0  0.15418001351E+02  0.93239235395E+01  0.95993894961E+01  0.20415645833E+02  0.51100000000E-03 0.  1.
         12    1    3    3    0    0 -0.84128954767E+00 -0.36772045973E+00 -0.10048764438E+01  0.13611624101E+01  0.00000000000E+00 0. -1.
</event>
<event>
 7    1  0.3851772E-009  0.4778728E+02  0.7816164E-02  0.1312668E+00
        -11   -1    0    0    0    0  0.00000000000E+00  0.00000000000E+00  0.45593999997E+02  0.45594000000E+02  0.51100000000E-03 0. -1.
         11   -1    0    0    0    0 -0.00000000000E+00 -0.00000000000E+00 -0.45593999997E+02  0.45594000000E+02  0.51100000000E-03 0.  1.
    9900012    2    1    2    0    0  0.15607686342E+02  0.40061709360E+02  0.59230358711E+01  0.47787276692E+02  0.20000025748E+02 0.  0.
         12    1    1    2    0    0 -0.15607686342E+02 -0.40061709360E+02 -0.59230358711E+01  0.43400723308E+02  0.00000000000E+00 0. -1.
         11    1    3    3    0    0 -0.16275910833E+01  0.36603242972E+01 -0.18234621745E+01  0.44013681121E+01  0.51100000000E-03 0. -1.
        -11    1    3    3    0    0  0.17740340960E+02  0.22751153976E+02  0.71001377391E+01  0.29711052839E+02  0.51100000000E-03 0.  1.
         12    1    3    3    0    0 -0.50506353493E+00  0.13650231086E+02  0.64636030653E+00  0.13674855740E+02  0.00000000000E+00 0. -1.
</event>
<event>
 7    1  0.3851772E-009  0.4778726E+02  0.7816164E-02  0.1312668E+00
        -11   -1    0    0    0    0  0.00000000000E+00  0.00000000000E+00  0.45593999997E+02  0.45594000000E+02  0.51100000000E-03 0. -1.
         11   -1    0    0    0    0 -0.00000000000E+00 -0.00000000000E+00 -0.45593999997E+02  0.45594000000E+02  0.51100000000E-03 0.  1.
    9900012    2    1    2    0    0 -0.61339153496E+01 -0.42964318327E+02  0.25739089995E+00  0.47787264789E+02  0.19999971478E+02 0.  0.
         12    1    1    2    0    0  0.61339153496E+01  0.42964318327E+02 -0.25739089995E+00  0.43400735211E+02  0.00000000000E+00 0. -1.
         11    1    3    3    0    0  0.21209761220E+00 -0.23036497509E+02 -0.34167415159E+01  0.23289468129E+02  0.51100000000E-03 0. -1.
        -11    1    3    3    0    0 -0.34976033092E+01 -0.16900489800E+02 -0.20969981913E+01  0.17385545320E+02  0.51100000000E-03 0.  1.
         12    1    3    3    0    0 -0.28484096525E+01 -0.30273310177E+01  0.57711306071E+01  0.71122513400E+01  0.00000000000E+00 0. -1.
</event>
<event>
 7    1  0.3851772E-009  0.4778727E+02  0.7816164E-02  0.1312668E+00
        -11   -1    0    0    0    0  0.00000000000E+00  0.00000000000E+00  0.45593999997E+02  0.45594000000E+02  0.51100000000E-03 0.  1.
         11   -1    0    0    0    0 -0.00000000000E+00 -0.00000000000E+00 -0.45593999997E+02  0.45594000000E+02  0.51100000000E-03 0. -1.
    9900012    2    1    2    0    0  0.96639890715E+01  0.24560242399E+02  0.34453229446E+02  0.47787271772E+02  0.20000003319E+02 0.  0.
         12    1    1    2    0    0 -0.96639890715E+01 -0.24560242399E+02 -0.34453229446E+02  0.43400728228E+02  0.00000000000E+00 0. -1.
         11    1    3    3    0    0  0.10346225149E+01  0.52519733015E+01 -0.12287809141E+01  0.54921371163E+01  0.51100000000E-03 0. -1.
        -11    1    3    3    0    0  0.16329409519E+01 -0.44548314893E+00  0.19351530620E+01  0.25709471062E+01  0.51100000000E-03 0.  1.
         12    1    3    3    0    0  0.69964256047E+01  0.19753752246E+02  0.33746857298E+02  0.39724187550E+02  0.00000000000E+00 0. -1.
</event>
<event>
 7    1  0.3851772E-009  0.4778732E+02  0.7816164E-02  0.1312668E+00
        -11   -1    0    0    0    0  0.00000000000E+00  0.00000000000E+00  0.45593999997E+02  0.45594000000E+02  0.51100000000E-03 0.  1.
         11   -1    0    0    0    0 -0.00000000000E+00 -0.00000000000E+00 -0.45593999997E+02  0.45594000000E+02  0.51100000000E-03 0. -1.
    9900012    2    1    2    0    0  0.19115878873E+02  0.37648926781E+02  0.10037952040E+02  0.47787320350E+02  0.20000224804E+02 0.  0.
         12    1    1    2    0    0 -0.19115878873E+02 -0.37648926781E+02 -0.10037952040E+02  0.43400679650E+02  0.00000000000E+00 0. -1.
         11    1    3    3    0    0  0.63896147261E+01  0.11434022997E+02 -0.29083993956E+01  0.13417259241E+02  0.51100000000E-03 0. -1.
        -11    1    3    3    0    0  0.10833800677E+02  0.17778693478E+02  0.27481113707E+01  0.21000126078E+02  0.51100000000E-03 0.  1.
        -12    1    3    3    0    0  0.18924634694E+01  0.84362103063E+01  0.10198240065E+02  0.13369935031E+02  0.00000000000E+00 0.  1.
</event>
<event>
 7    1  0.3851772E-009  0.4778727E+02  0.7816164E-02  0.1312668E+00
        -11   -1    0    0    0    0  0.00000000000E+00  0.00000000000E+00  0.45593999997E+02  0.45594000000E+02  0.51100000000E-03 0.  1.
         11   -1    0    0    0    0 -0.00000000000E+00 -0.00000000000E+00 -0.45593999997E+02  0.45594000000E+02  0.51100000000E-03 0. -1.
    9900012    2    1    2    0    0  0.11371035931E+02  0.41638048039E+02 -0.45383009593E+01  0.47787266386E+02  0.19999978758E+02 0.  0.
         12    1    1    2    0    0 -0.11371035931E+02 -0.41638048039E+02  0.45383009593E+01  0.43400733614E+02  0.00000000000E+00 0. -1.
         11    1    3    3    0    0 -0.81813616278E+00  0.11418409644E+02 -0.86184688187E+01  0.14329250874E+02  0.51100000000E-03 0. -1.
        -11    1    3    3    0    0  0.75327162843E+01  0.17235718033E+02 -0.79900233164E+00  0.18826847738E+02  0.51100000000E-03 0.  1.
         12    1    3    3    0    0  0.46564558093E+01  0.12983920362E+02  0.48791701910E+01  0.14631167774E+02  0.00000000000E+00 0. -1.
</event>
<event>
 7    1  0.3851772E-009  0.4778727E+02  0.7816164E-02  0.1312668E+00
        -11   -1    0    0    0    0  0.00000000000E+00  0.00000000000E+00  0.45593999997E+02  0.45594000000E+02  0.51100000000E-03 0.  1.
         11   -1    0    0    0    0 -0.00000000000E+00 -0.00000000000E+00 -0.45593999997E+02  0.45594000000E+02  0.51100000000E-03 0. -1.
    9900012    2    1    2    0    0  0.17407629171E+02  0.35736704428E+02  0.17420849265E+02  0.47787267450E+02  0.19999983612E+02 0.  0.
         12    1    1    2    0    0 -0.17407629171E+02 -0.35736704428E+02 -0.17420849265E+02  0.43400732550E+02  0.00000000000E+00 0. -1.
         11    1    3    3    0    0  0.52368626369E+01 -0.90184397282E+00  0.24186656121E+01  0.58384926508E+01  0.51100000000E-03 0. -1.
        -11    1    3    3    0    0  0.82250565170E+01  0.29739036802E+02  0.14181453854E+02  0.33958437807E+02  0.51100000000E-03 0.  1.
         12    1    3    3    0    0  0.39457100174E+01  0.68995115987E+01  0.82072979922E+00  0.79903369920E+01  0.00000000000E+00 0. -1.
</event>
<event>
 7    1  0.3851772E-009  0.4778725E+02  0.7816164E-02  0.1312668E+00
        -11   -1    0    0    0    0  0.00000000000E+00  0.00000000000E+00  0.45593999997E+02  0.45594000000E+02  0.51100000000E-03 0.  1.
         11   -1    0    0    0    0 -0.00000000000E+00 -0.00000000000E+00 -0.45593999997E+02  0.45594000000E+02  0.51100000000E-03 0. -1.
    9900012    2    1    2    0    0 -0.11177902477E+01  0.28464624404E+02 -0.32743566234E+02  0.47787246236E+02  0.19999886890E+02 0.  0.
         12    1    1    2    0    0  0.11177902477E+01 -0.28464624404E+02  0.32743566234E+02  0.43400753764E+02  0.00000000000E+00 0. -1.
         11    1    3    3    0    0 -0.32599031278E+01  0.31271162052E+01 -0.18503027050E+01  0.48815412038E+01  0.51100000000E-03 0. -1.
        -11    1    3    3    0    0  0.41161195863E+01  0.61749974507E+01 -0.12096687451E+01  0.75190646160E+01  0.51100000000E-03 0.  1.
        -12    1    3    3    0    0 -0.19740067062E+01  0.19162510748E+02 -0.29683594784E+02  0.35386640417E+02  0.00000000000E+00 0.  1.
</event>
<event>
 7    1  0.3851772E-009  0.4778727E+02  0.7816164E-02  0.1312668E+00
        -11   -1    0    0    0    0  0.00000000000E+00  0.00000000000E+00  0.45593999997E+02  0.45594000000E+02  0.51100000000E-03 0. -1.
         11   -1    0    0    0    0 -0.00000000000E+00 -0.00000000000E+00 -0.45593999997E+02  0.45594000000E+02  0.51100000000E-03 0.  1.
    9900012    2    1    2    0    0  0.26312472751E+02  0.34368365742E+02  0.31769485833E+01  0.47787265117E+02  0.19999972975E+02 0.  0.
         12    1    1    2    0    0 -0.26312472751E+02 -0.34368365742E+02 -0.31769485833E+01  0.43400734883E+02  0.00000000000E+00 0. -1.
         11    1    3    3    0    0  0.21475947377E+02  0.23566603646E+02  0.95072590773E+01  0.33271445694E+02  0.51100000000E-03 0. -1.
        -11    1    3    3    0    0  0.27818666405E+00  0.62457145199E+01 -0.48256184999E+01  0.78976535662E+01  0.51100000000E-03 0.  1.
        -12    1    3    3    0    0  0.45583387104E+01  0.45560475759E+01 -0.15046919941E+01  0.66181658569E+01  0.00000000000E+00 0.  1.
</event>
<event>
 7    1  0.3851772E-009  0.4778727E+02  0.7816164E-02  0.1312668E+00
        -11   -1    0    0    0    0  0.00000000000E+00  0.00000000000E+00  0.45593999997E+02  0.45594000000E+02  0.51100000000E-03 0.  1.
         11   -1    0    0    0    0 -0.00000000000E+00 -0.00000000000E+00 -0.45593999997E+02  0.45594000000E+02  0.51100000000E-03 0. -1.
    9900012    2    1    2    0    0  0.39533895511E+02  0.15479306578E+02 -0.90047477184E+01  0.47787270653E+02  0.19999998214E+02 0.  0.
         12    1    1    2    0    0 -0.39533895511E+02 -0.15479306578E+02  0.90047477184E+01  0.43400729347E+02  0.00000000000E+00 0. -1.
         11    1    3    3    0    0  0.22767048402E+02  0.31452574197E+01  0.24134404746E+01  0.23109648036E+02  0.51100000000E-03 0. -1.
        -11    1    3    3    0    0  0.13524308644E+01  0.39796792363E+01 -0.33625865004E+01  0.53827413369E+01  0.51100000000E-03 0.  1.
         12    1    3    3    0    0  0.15414416245E+02  0.83543699223E+01 -0.80556016926E+01  0.19294881280E+02  0.00000000000E+00 0. -1.
</event>
<event>
 7    1  0.3851772E-009  0.4778729E+02  0.7816164E-02  0.1312668E+00
        -11   -1    0    0    0    0  0.00000000000E+00  0.00000000000E+00  0.45593999997E+02  0.45594000000E+02  0.51100000000E-03 0.  1.
         11   -1    0    0    0    0 -0.00000000000E+00 -0.00000000000E+00 -0.45593999997E+02  0.45594000000E+02  0.51100000000E-03 0. -1.
    9900012    2    1    2    0    0 -0.10390735964E+02 -0.31902655730E+02  0.27529530338E+02  0.47787287136E+02  0.20000073366E+02 0.  0.
         12    1    1    2    0    0  0.10390735964E+02  0.31902655730E+02 -0.27529530338E+02  0.43400712864E+02  0.00000000000E+00 0. -1.
         11    1    3    3    0    0 -0.54224056753E+01  0.28881828456E+00  0.45962370713E+01  0.71141615659E+01  0.51100000000E-03 0. -1.
        -11    1    3    3    0    0  0.17334373756E+01 -0.88578465670E+01  0.86742226793E+01  0.12518322184E+02  0.51100000000E-03 0.  1.
         12    1    3    3    0    0 -0.67017676647E+01 -0.23333627448E+02  0.14259070587E+02  0.28154803386E+02  0.00000000000E+00 0. -1.
</event>
<event>
 7    1  0.3851772E-009  0.4778727E+02  0.7816164E-02  0.1312668E+00
        -11   -1    0    0    0    0  0.00000000000E+00  0.00000000000E+00  0.45593999997E+02  0.45594000000E+02  0.51100000000E-03 0.  1.
         11   -1    0    0    0    0 -0.00000000000E+00 -0.00000000000E+00 -0.45593999997E+02  0.45594000000E+02  0.51100000000E-03 0. -1.
    9900012    2    1    2    0    0  0.31077322334E+02  0.83848740670E+01  0.29112151126E+02  0.47787269364E+02  0.19999992338E+02 0.  0.
         12    1    1    2    0    0 -0.31077322334E+02 -0.83848740670E+01 -0.29112151126E+02  0.43400730636E+02  0.00000000000E+00 0. -1.
         11    1    3    3    0    0  0.26564111725E+02 -0.25836068855E+00  0.24045594955E+02  0.35831681777E+02  0.51100000000E-03 0. -1.
        -11    1    3    3    0    0  0.42406275138E+01  0.34156500330E+01  0.35702578252E+01  0.65112462754E+01  0.51100000000E-03 0.  1.
         12    1    3    3    0    0  0.27258309492E+00  0.52275847225E+01  0.14962983461E+01  0.54443413114E+01  0.00000000000E+00 0. -1.
</event>
<event>
 7    1  0.3851772E-009  0.4778727E+02  0.7816164E-02  0.1312668E+00
        -11   -1    0    0    0    0  0.00000000000E+00  0.00000000000E+00  0.45593999997E+02  0.45594000000E+02  0.51100000000E-03 0.  1.
         11   -1    0    0    0    0 -0.00000000000E+00 -0.00000000000E+00 -0.45593999997E+02  0.45594000000E+02  0.51100000000E-03 0. -1.
    9900012    2    1    2    0    0  0.37428943725E+02  0.19839462248E+02  0.94389360481E+01  0.47787267237E+02  0.19999982639E+02 0.  0.
         12    1    1    2    0    0 -0.37428943725E+02 -0.19839462248E+02 -0.94389360481E+01  0.43400732763E+02  0.00000000000E+00 0. -1.
         11    1    3    3    0    0  0.68926403590E+01  0.18780607243E+01 -0.64914106951E+00  0.71733526047E+01  0.51100000000E-03 0. -1.
        -11    1    3    3    0    0  0.48907408798E+01  0.85199488036E+01 -0.30569817045E+01  0.10288537864E+02  0.51100000000E-03 0.  1.
        -12    1    3    3    0    0  0.25645562486E+02  0.94414527203E+01  0.13145058822E+02  0.30325376768E+02  0.00000000000E+00 0.  1.
</event>
<event>
 7    1  0.3851772E-009  0.4778727E+02  0.7816164E-02  0.1312668E+00
        -11   -1    0    0    0    0  0.00000000000E+00  0.00000000000E+00  0.45593999997E+02  0.45594000000E+02  0.51100000000E-03 0.  1.
         11   -1    0    0    0    0 -0.00000000000E+00 -0.00000000000E+00 -0.45593999997E+02  0.45594000000E+02  0.51100000000E-03 0. -1.
    9900012    2    1    2    0    0  0.40719286587E+02  0.53480834048E+01  0.14034271564E+02  0.47787273340E+02  0.20000010466E+02 0.  0.
         12    1    1    2    0    0 -0.40719286587E+02 -0.53480834048E+01 -0.14034271564E+02  0.43400726660E+02  0.00000000000E+00 0. -1.
         11    1    3    3    0    0  0.24341267035E+00 -0.86647468950E+00 -0.25595932485E+01  0.27132169052E+01  0.51100000000E-03 0. -1.
        -11    1    3    3    0    0  0.38483387505E+02  0.55536011622E+01  0.17677156744E+02  0.42711772037E+02  0.51100000000E-03 0.  1.
        -12    1    3    3    0    0  0.19924864120E+01  0.66095693200E+00 -0.10832919312E+01  0.23622843978E+01  0.00000000000E+00 0.  1.
</event>
<event>
 7    1  0.3851772E-009  0.4778727E+02  0.7816164E-02  0.1312668E+00
        -11   -1    0    0    0    0  0.00000000000E+00  0.00000000000E+00  0.45593999997E+02  0.45594000000E+02  0.51100000000E-03 0.  1.
         11   -1    0    0    0    0 -0.00000000000E+00 -0.00000000000E+00 -0.45593999997E+02  0.45594000000E+02  0.51100000000E-03 0. -1.
    9900012    2    1    2    0    0  0.14164204772E+02 -0.32514982599E+02  0.25015489306E+02  0.47787268492E+02  0.19999988361E+02 0.  0.
         12    1    1    2    0    0 -0.14164204772E+02  0.32514982599E+02 -0.25015489306E+02  0.43400731508E+02  0.00000000000E+00 0. -1.
         11    1    3    3    0    0  0.69591022334E+01 -0.26937790550E+02  0.20237921879E+02  0.34404173378E+02  0.51100000000E-03 0. -1.
        -11    1    3    3    0    0  0.67677513148E+01 -0.67952117679E+01  0.62310704432E+01  0.11436940148E+02  0.51100000000E-03 0.  1.
         12    1    3    3    0    0  0.43735122414E+00  0.12180197186E+01 -0.14535030166E+01  0.19461549649E+01  0.00000000000E+00 0. -1.
</event>
<event>
 7    1  0.3851772E-009  0.4778727E+02  0.7816164E-02  0.1312668E+00
        -11   -1    0    0    0    0  0.00000000000E+00  0.00000000000E+00  0.45593999997E+02  0.45594000000E+02  0.51100000000E-03 0.  1.
         11   -1    0    0    0    0 -0.00000000000E+00 -0.00000000000E+00 -0.45593999997E+02  0.45594000000E+02  0.51100000000E-03 0. -1.
    9900012    2    1    2    0    0  0.33696465344E+01  0.13931940668E+02  0.40965469733E+02  0.47787271907E+02  0.20000003932E+02 0.  0.
         12    1    1    2    0    0 -0.33696465344E+01 -0.13931940668E+02 -0.40965469733E+02  0.43400728093E+02  0.00000000000E+00 0. -1.
         11    1    3    3    0    0  0.49545743878E+01  0.96060329917E+00  0.23822350260E+02  0.24351076737E+02  0.51100000000E-03 0. -1.
        -11    1    3    3    0    0 -0.44703220099E+01  0.41138995371E+01  0.38096842325E+01  0.71708885423E+01  0.51100000000E-03 0.  1.
        -12    1    3    3    0    0  0.28853941564E+01  0.88574378318E+01  0.13333435241E+02  0.16265306628E+02  0.00000000000E+00 0.  1.
</event>
<event>
 7    1  0.3851772E-009  0.4778727E+02  0.7816164E-02  0.1312668E+00
        -11   -1    0    0    0    0  0.00000000000E+00  0.00000000000E+00  0.45593999997E+02  0.45594000000E+02  0.51100000000E-03 0.  1.
         11   -1    0    0    0    0 -0.00000000000E+00 -0.00000000000E+00 -0.45593999997E+02  0.45594000000E+02  0.51100000000E-03 0. -1.
    9900012    2    1    2    0    0 -0.39483125876E+02  0.67727638567E+01 -0.16698369552E+02  0.47787272991E+02  0.20000008874E+02 0.  0.
         12    1    1    2    0    0  0.39483125876E+02 -0.67727638567E+01  0.16698369552E+02  0.43400727009E+02  0.00000000000E+00 0. -1.
         11    1    3    3    0    0 -0.18944329257E+01 -0.51938081611E+00 -0.38393178792E+01  0.43126551660E+01  0.51100000000E-03 0. -1.
        -11    1    3    3    0    0 -0.26784216494E+02  0.95253138544E+01 -0.15140899114E+02  0.32208270420E+02  0.51100000000E-03 0.  1.
        -12    1    3    3    0    0 -0.10804476456E+02 -0.22331691816E+01  0.22818474411E+01  0.11266347404E+02  0.00000000000E+00 0.  1.
</event>
<event>
 7    1  0.3851772E-009  0.4778727E+02  0.7816164E-02  0.1312668E+00
        -11   -1    0    0    0    0  0.00000000000E+00  0.00000000000E+00  0.45593999997E+02  0.45594000000E+02  0.51100000000E-03 0. -1.
         11   -1    0    0    0    0 -0.00000000000E+00 -0.00000000000E+00 -0.45593999997E+02  0.45594000000E+02  0.51100000000E-03 0.  1.
    9900012    2    1    2    0    0  0.31708765159E+02 -0.29632159363E+02  0.33537636686E+00  0.47787272659E+02  0.20000007361E+02 0.  0.
         12    1    1    2    0    0 -0.31708765159E+02  0.29632159363E+02 -0.33537636686E+00  0.43400727341E+02  0.00000000000E+00 0. -1.
         11    1    3    3    0    0  0.38535645074E+00 -0.52261131700E+01  0.46071549435E+01  0.69775809128E+01  0.51100000000E-03 0. -1.
        -11    1    3    3    0    0  0.79673465652E+01 -0.89892165535E+01 -0.44894716863E+01  0.12823415373E+02  0.51100000000E-03 0.  1.
         12    1    3    3    0    0  0.23356062143E+02 -0.15416829639E+02  0.21769310973E+00  0.27986276374E+02  0.00000000000E+00 0. -1.
</event>
<event>
 7    1  0.3851772E-009  0.4778728E+02  0.7816164E-02  0.1312668E+00
        -11   -1    0    0    0    0  0.00000000000E+00  0.00000000000E+00  0.45593999997E+02  0.45594000000E+02  0.51100000000E-03 0.  1.
         11   -1    0    0    0    0 -0.00000000000E+00 -0.00000000000E+00 -0.45593999997E+02  0.45594000000E+02  0.51100000000E-03 0. -1.
    9900012    2    1    2    0    0 -0.39398336572E+02  0.13291604401E+02  0.12438938986E+02  0.47787275637E+02  0.20000020938E+02 0.  0.
         12    1    1    2    0    0  0.39398336572E+02 -0.13291604401E+02 -0.12438938986E+02  0.43400724363E+02  0.00000000000E+00 0. -1.
         11    1    3    3    0    0 -0.11223733570E+02  0.22789342001E+01 -0.20875211828E+01  0.11641455291E+02  0.51100000000E-03 0. -1.
        -11    1    3    3    0    0 -0.97918343586E+01  0.18012035955E+00  0.10633958937E+02  0.14456609091E+02  0.51100000000E-03 0.  1.
        -12    1    3    3    0    0 -0.18382768643E+02  0.10832549841E+02  0.38925012308E+01  0.21689211255E+02  0.00000000000E+00 0.  1.
</event>
<event>
 7    1  0.3851772E-009  0.4778728E+02  0.7816164E-02  0.1312668E+00
        -11   -1    0    0    0    0  0.00000000000E+00  0.00000000000E+00  0.45593999997E+02  0.45594000000E+02  0.51100000000E-03 0. -1.
         11   -1    0    0    0    0 -0.00000000000E+00 -0.00000000000E+00 -0.45593999997E+02  0.45594000000E+02  0.51100000000E-03 0.  1.
    9900012    2    1    2    0    0 -0.66968953463E+01 -0.31567800461E+02 -0.29021512528E+02  0.47787278547E+02  0.20000034207E+02 0.  0.
         12    1    1    2    0    0  0.66968953463E+01  0.31567800461E+02  0.29021512528E+02  0.43400721453E+02  0.00000000000E+00 0. -1.
         11    1    3    3    0    0 -0.16786596854E+01 -0.14180768345E+01  0.19328932749E+01  0.29265879315E+01  0.51100000000E-03 0. -1.
        -11    1    3    3    0    0 -0.54640153660E+01 -0.11097995769E+02 -0.17910754447E+02  0.21767317224E+02  0.51100000000E-03 0.  1.
         12    1    3    3    0    0  0.44577970511E+00 -0.19051727858E+02 -0.13043651356E+02  0.23093373392E+02  0.00000000000E+00 0. -1.
</event>
<event>
 7    1  0.3851772E-009  0.4778727E+02  0.7816164E-02  0.1312668E+00
        -11   -1    0    0    0    0  0.00000000000E+00  0.00000000000E+00  0.45593999997E+02  0.45594000000E+02  0.51100000000E-03 0.  1.
         11   -1    0    0    0    0 -0.00000000000E+00 -0.00000000000E+00 -0.45593999997E+02  0.45594000000E+02  0.51100000000E-03 0. -1.
    9900012    2    1    2    0    0 -0.12518794763E+02  0.41549602769E+02  0.73047270007E+00  0.47787270709E+02  0.19999998473E+02 0.  0.
         12    1    1    2    0    0  0.12518794763E+02 -0.41549602769E+02 -0.73047270007E+00  0.43400729291E+02  0.00000000000E+00 0. -1.
         11    1    3    3    0    0 -0.24255533141E+01  0.28820644507E+02 -0.22397084771E+01  0.29009121893E+02  0.51100000000E-03 0. -1.
        -11    1    3    3    0    0 -0.65484550263E+01  0.80932642473E+01 -0.25788672528E+01  0.10725378594E+02  0.51100000000E-03 0.  1.
         12    1    3    3    0    0 -0.35447864228E+01  0.46356940143E+01  0.55490484300E+01  0.80527702224E+01  0.00000000000E+00 0. -1.
</event>
<event>
 7    1  0.3851772E-009  0.4778727E+02  0.7816164E-02  0.1312668E+00
        -11   -1    0    0    0    0  0.00000000000E+00  0.00000000000E+00  0.45593999997E+02  0.45594000000E+02  0.51100000000E-03 0. -1.
         11   -1    0    0    0    0 -0.00000000000E+00 -0.00000000000E+00 -0.45593999997E+02  0.45594000000E+02  0.51100000000E-03 0.  1.
    9900012    2    1    2    0    0  0.33108239996E+02 -0.27593812880E+02 -0.51038513048E+01  0.47787270018E+02  0.19999995318E+02 0.  0.
         12    1    1    2    0    0 -0.33108239996E+02  0.27593812880E+02  0.51038513048E+01  0.43400729982E+02  0.00000000000E+00 0. -1.
         11    1    3    3    0    0 -0.71053696134E+00  0.86058932525E-01  0.26732365083E+01  0.27673927448E+01  0.51100000000E-03 0. -1.
        -11    1    3    3    0    0  0.29135969147E+01 -0.14338408017E+00 -0.94753129635E+00  0.30671520658E+01  0.51100000000E-03 0.  1.
         12    1    3    3    0    0  0.30905180043E+02 -0.27536487732E+02 -0.68295565167E+01  0.41952725207E+02  0.00000000000E+00 0. -1.
</event>
<event>
 7    1  0.3851772E-009  0.4778725E+02  0.7816164E-02  0.1312668E+00
        -11   -1    0    0    0    0  0.00000000000E+00  0.00000000000E+00  0.45593999997E+02  0.45594000000E+02  0.51100000000E-03 0. -1.
         11   -1    0    0    0    0 -0.00000000000E+00 -0.00000000000E+00 -0.45593999997E+02  0.45594000000E+02  0.51100000000E-03 0.  1.
    9900012    2    1    2    0    0 -0.21611821360E+02 -0.37121002298E+02  0.62117170231E+01  0.47787250438E+02  0.19999906049E+02 0.  0.
         12    1    1    2    0    0  0.21611821360E+02  0.37121002298E+02 -0.62117170231E+01  0.43400749562E+02  0.00000000000E+00 0. -1.
         11    1    3    3    0    0 -0.42501812569E+01 -0.63328277229E+01  0.63817588825E+01  0.99446264073E+01  0.51100000000E-03 0. -1.
        -11    1    3    3    0    0 -0.97120231102E+01 -0.27767065613E+02  0.14816245056E+01  0.29453837391E+02  0.51100000000E-03 0.  1.
        -12    1    3    3    0    0 -0.76496169932E+01 -0.30211089624E+01 -0.16516663650E+01  0.83887866397E+01  0.00000000000E+00 0.  1.
</event>
<event>
 7    1  0.3851772E-009  0.4778728E+02  0.7816164E-02  0.1312668E+00
        -11   -1    0    0    0    0  0.00000000000E+00  0.00000000000E+00  0.45593999997E+02  0.45594000000E+02  0.51100000000E-03 0.  1.
         11   -1    0    0    0    0 -0.00000000000E+00 -0.00000000000E+00 -0.45593999997E+02  0.45594000000E+02  0.51100000000E-03 0. -1.
    9900012    2    1    2    0    0 -0.17945199101E+02  0.18871897784E+02  0.34719505062E+02  0.47787277328E+02  0.20000028647E+02 0.  0.
         12    1    1    2    0    0  0.17945199101E+02 -0.18871897784E+02 -0.34719505062E+02  0.43400722672E+02  0.00000000000E+00 0. -1.
         11    1    3    3    0    0 -0.11082069305E+02  0.13584112812E+02  0.30632166402E+02  0.35294050486E+02  0.51100000000E-03 0. -1.
        -11    1    3    3    0    0 -0.27764738613E+01  0.36345403814E+01 -0.19879296667E+01  0.49870387513E+01  0.51100000000E-03 0.  1.
        -12    1    3    3    0    0 -0.40866559339E+01  0.16532445899E+01  0.60752683269E+01  0.75061880898E+01  0.00000000000E+00 0.  1.
</event>
<event>
 7    1  0.3851772E-009  0.4778727E+02  0.7816164E-02  0.1312668E+00
        -11   -1    0    0    0    0  0.00000000000E+00  0.00000000000E+00  0.45593999997E+02  0.45594000000E+02  0.51100000000E-03 0.  1.
         11   -1    0    0    0    0 -0.00000000000E+00 -0.00000000000E+00 -0.45593999997E+02  0.45594000000E+02  0.51100000000E-03 0. -1.
    9900012    2    1    2    0    0 -0.45349071411E+01 -0.33778721219E+02  0.26871097798E+02  0.47787270895E+02  0.19999999317E+02 0.  0.
         12    1    1    2    0    0  0.45349071411E+01  0.33778721219E+02 -0.26871097798E+02  0.43400729105E+02  0.00000000000E+00 0. -1.
         11    1    3    3    0    0 -0.82674369331E+01 -0.41084129479E+01  0.65856446075E+01  0.11340206592E+02  0.51100000000E-03 0. -1.
        -11    1    3    3    0    0  0.46480304783E+01 -0.20136591911E+02  0.14685184076E+02  0.25352340182E+02  0.51100000000E-03 0.  1.
         12    1    3    3    0    0 -0.91550068636E+00 -0.95337163606E+01  0.56002691148E+01  0.11094724120E+02  0.00000000000E+00 0. -1.
</event>
<event>
 7    1  0.3851772E-009  0.4778727E+02  0.7816164E-02  0.1312668E+00
        -11   -1    0    0    0    0  0.00000000000E+00  0.00000000000E+00  0.45593999997E+02  0.45594000000E+02  0.51100000000E-03 0.  1.
         11   -1    0    0    0    0 -0.00000000000E+00 -0.00000000000E+00 -0.45593999997E+02  0.45594000000E+02  0.51100000000E-03 0. -1.
    9900012    2    1    2    0    0 -0.72745558174E+01 -0.22634633738E+02  0.36309466815E+02  0.47787272043E+02  0.20000004554E+02 0.  0.
         12    1    1    2    0    0  0.72745558174E+01  0.22634633738E+02 -0.36309466815E+02  0.43400727957E+02  0.00000000000E+00 0. -1.
         11    1    3    3    0    0 -0.97477270259E+01 -0.10954491424E+02  0.93637300369E+01  0.17398232813E+02  0.51100000000E-03 0. -1.
        -11    1    3    3    0    0 -0.13953589505E+01 -0.62894085471E+01  0.77449351145E+01  0.10074110713E+02  0.51100000000E-03 0.  1.
         12    1    3    3    0    0  0.38685301590E+01 -0.53907337662E+01  0.19200801664E+02  0.20314928517E+02  0.00000000000E+00 0. -1.
</event>
<event>
 7    1  0.3851772E-009  0.4778727E+02  0.7816164E-02  0.1312668E+00
        -11   -1    0    0    0    0  0.00000000000E+00  0.00000000000E+00  0.45593999997E+02  0.45594000000E+02  0.51100000000E-03 0. -1.
         11   -1    0    0    0    0 -0.00000000000E+00 -0.00000000000E+00 -0.45593999997E+02  0.45594000000E+02  0.51100000000E-03 0.  1.
    9900012    2    1    2    0    0 -0.25669589879E+02  0.34931138465E+02 -0.21239292806E+01  0.47787270114E+02  0.19999995759E+02 0.  0.
         12    1    1    2    0    0  0.25669589879E+02 -0.34931138465E+02  0.21239292806E+01  0.43400729886E+02  0.00000000000E+00 0. -1.
         11    1    3    3    0    0 -0.18675963683E+02  0.21795583275E+02  0.41031913043E+01  0.28994400303E+02  0.51100000000E-03 0. -1.
        -11    1    3    3    0    0 -0.61021226868E+01  0.11410755663E+02 -0.72722690256E+00  0.12960328133E+02  0.51100000000E-03 0.  1.
         12    1    3    3    0    0 -0.89150350990E+00  0.17247995268E+01 -0.54998936823E+01  0.58325416786E+01  0.00000000000E+00 0. -1.
</event>
<event>
 7    1  0.3851772E-009  0.4778727E+02  0.7816164E-02  0.1312668E+00
        -11   -1    0    0    0    0  0.00000000000E+00  0.00000000000E+00  0.45593999997E+02  0.45594000000E+02  0.51100000000E-03 0. -1.
         11   -1    0    0    0    0 -0.00000000000E+00 -0.00000000000E+00 -0.45593999997E+02  0.45594000000E+02  0.51100000000E-03 0.  1.
    9900012    2    1    2    0    0  0.22074839024E+02  0.33391624718E+00 -0.37365940662E+02  0.47787267984E+02  0.19999986046E+02 0.  0.
         12    1    1    2    0    0 -0.22074839024E+02 -0.33391624718E+00  0.37365940662E+02  0.43400732016E+02  0.00000000000E+00 0. -1.
         11    1    3    3    0    0  0.28133674734E+01  0.26259858543E+01 -0.69573846718E+01  0.79508515255E+01  0.51100000000E-03 0. -1.
        -11    1    3    3    0    0  0.56024058776E+01 -0.75251930703E+01 -0.19333121395E+02  0.21489184850E+02  0.51100000000E-03 0.  1.
        -12    1    3    3    0    0  0.13659065673E+02  0.52331234632E+01 -0.11075434595E+02  0.18347231609E+02  0.00000000000E+00 0.  1.
</event>
<event>
 7    1  0.3851772E-009  0.4778727E+02  0.7816164E-02  0.1312668E+00
        -11   -1    0    0    0    0  0.00000000000E+00  0.00000000000E+00  0.45593999997E+02  0.45594000000E+02  0.51100000000E-03 0. -1.
         11   -1    0    0    0    0 -0.00000000000E+00 -0.00000000000E+00 -0.45593999997E+02  0.45594000000E+02  0.51100000000E-03 0.  1.
    9900012    2    1    2    0    0  0.84480129888E+01  0.39494905690E+02 -0.15887313926E+02  0.47787271404E+02  0.20000001639E+02 0.  0.
         12    1    1    2    0    0 -0.84480129888E+01 -0.39494905690E+02  0.15887313926E+02  0.43400728596E+02  0.00000000000E+00 0. -1.
         11    1    3    3    0    0  0.12488480281E+02  0.27459359841E+02 -0.62773684601E+01  0.30812074543E+02  0.51100000000E-03 0. -1.
        -11    1    3    3    0    0 -0.50770038700E+01  0.60292507586E+01 -0.50169955937E+01  0.93433440509E+01  0.51100000000E-03 0.  1.
         12    1    3    3    0    0  0.10365365775E+01  0.60062950904E+01 -0.45929498718E+01  0.76318528101E+01  0.00000000000E+00 0. -1.
</event>
<event>
 7    1  0.3851772E-009  0.4778727E+02  0.7816164E-02  0.1312668E+00
        -11   -1    0    0    0    0  0.00000000000E+00  0.00000000000E+00  0.45593999997E+02  0.45594000000E+02  0.51100000000E-03 0.  1.
         11   -1    0    0    0    0 -0.00000000000E+00 -0.00000000000E+00 -0.45593999997E+02  0.45594000000E+02  0.51100000000E-03 0. -1.
    9900012    2    1    2    0    0 -0.32601521856E+02  0.25077761172E+02  0.13851710657E+02  0.47787271655E+02  0.20000002782E+02 0.  0.
         12    1    1    2    0    0  0.32601521856E+02 -0.25077761172E+02 -0.13851710657E+02  0.43400728345E+02  0.00000000000E+00 0. -1.
         11    1    3    3    0    0 -0.26740624919E+01  0.35697038475E+01 -0.10312463873E+01  0.45778668768E+01  0.51100000000E-03 0. -1.
        -11    1    3    3    0    0 -0.17760132431E+02  0.81416016083E+01 -0.39675434292E+00  0.19541376486E+02  0.51100000000E-03 0.  1.
        -12    1    3    3    0    0 -0.12167326934E+02  0.13366455717E+02  0.15279711387E+02  0.23668028292E+02  0.00000000000E+00 0.  1.
</event>
<event>
 7    1  0.3851772E-009  0.4778728E+02  0.7816164E-02  0.1312668E+00
        -11   -1    0    0    0    0  0.00000000000E+00  0.00000000000E+00  0.45593999997E+02  0.45594000000E+02  0.51100000000E-03 0.  1.
         11   -1    0    0    0    0 -0.00000000000E+00 -0.00000000000E+00 -0.45593999997E+02  0.45594000000E+02  0.51100000000E-03 0. -1.
    9900012    2    1    2    0    0 -0.26666392040E+02 -0.12101690766E+02  0.32032412290E+02  0.47787276263E+02  0.20000023791E+02 0.  0.
         12    1    1    2    0    0  0.26666392040E+02  0.12101690766E+02 -0.32032412290E+02  0.43400723737E+02  0.00000000000E+00 0. -1.
         11    1    3    3    0    0  0.24300596661E+01 -0.22806047444E+01  0.47207507114E+01  0.57785669090E+01  0.51100000000E-03 0. -1.
        -11    1    3    3    0    0 -0.27538673122E+02 -0.82426427465E+01  0.21829479369E+02  0.36094955971E+02  0.51100000000E-03 0.  1.
        -12    1    3    3    0    0 -0.15577785836E+01 -0.15784432747E+01  0.54821822096E+01  0.59137533822E+01  0.00000000000E+00 0.  1.
</event>
<event>
 7    1  0.3851772E-009  0.4778726E+02  0.7816164E-02  0.1312668E+00
        -11   -1    0    0    0    0  0.00000000000E+00  0.00000000000E+00  0.45593999997E+02  0.45594000000E+02  0.51100000000E-03 0. -1.
         11   -1    0    0    0    0 -0.00000000000E+00 -0.00000000000E+00 -0.45593999997E+02  0.45594000000E+02  0.51100000000E-03 0.  1.
    9900012    2    1    2    0    0  0.20961693449E+02  0.29641903799E+02 -0.23782116552E+02  0.47787261287E+02  0.19999955514E+02 0.  0.
         12    1    1    2    0    0 -0.20961693449E+02 -0.29641903799E+02  0.23782116552E+02  0.43400738713E+02  0.00000000000E+00 0. -1.
         11    1    3    3    0    0  0.55075082145E+01  0.12903570516E+01 -0.10604868036E+01  0.57551977008E+01  0.51100000000E-03 0. -1.
        -11    1    3    3    0    0  0.16279423332E+02  0.24405678700E+02 -0.14174128396E+02  0.32581631219E+02  0.51100000000E-03 0.  1.
        -12    1    3    3    0    0 -0.82523809781E+00  0.39458680477E+01 -0.85475013524E+01  0.94504323677E+01  0.00000000000E+00 0.  1.
</event>
<event>
 7    1  0.3851772E-009  0.4778727E+02  0.7816164E-02  0.1312668E+00
        -11   -1    0    0    0    0  0.00000000000E+00  0.00000000000E+00  0.45593999997E+02  0.45594000000E+02  0.51100000000E-03 0. -1.
         11   -1    0    0    0    0 -0.00000000000E+00 -0.00000000000E+00 -0.45593999997E+02  0.45594000000E+02  0.51100000000E-03 0.  1.
    9900012    2    1    2    0    0  0.15638671475E+02 -0.35119452023E+02 -0.20141480226E+02  0.47787272108E+02  0.20000004848E+02 0.  0.
         12    1    1    2    0    0 -0.15638671475E+02  0.35119452023E+02  0.20141480226E+02  0.43400727892E+02  0.00000000000E+00 0. -1.
         11    1    3    3    0    0  0.36343302626E+01  0.91077674920E+00 -0.31188893395E+01  0.48749709453E+01  0.51100000000E-03 0. -1.
        -11    1    3    3    0    0  0.97615440681E+01 -0.35496452258E+02 -0.14702413277E+02  0.39641478554E+02  0.51100000000E-03 0.  1.
        -12    1    3    3    0    0  0.22427971447E+01 -0.53377651419E+00 -0.23201776092E+01  0.32708226087E+01  0.00000000000E+00 0.  1.
</event>
<event>
 7    1  0.3851772E-009  0.4778727E+02  0.7816164E-02  0.1312668E+00
        -11   -1    0    0    0    0  0.00000000000E+00  0.00000000000E+00  0.45593999997E+02  0.45594000000E+02  0.51100000000E-03 0.  1.
         11   -1    0    0    0    0 -0.00000000000E+00 -0.00000000000E+00 -0.45593999997E+02  0.45594000000E+02  0.51100000000E-03 0. -1.
    9900012    2    1    2    0    0 -0.24830585437E+02 -0.11292673760E+02  0.33757090661E+02  0.47787267014E+02  0.19999981625E+02 0.  0.
         12    1    1    2    0    0  0.24830585437E+02  0.11292673760E+02 -0.33757090661E+02  0.43400732986E+02  0.00000000000E+00 0. -1.
         11    1    3    3    0    0 -0.27643035731E+01 -0.85811391161E+01  0.63983348715E+01  0.11055135104E+02  0.51100000000E-03 0. -1.
        -11    1    3    3    0    0 -0.20717021715E+02 -0.54739391057E+01  0.23611319495E+02  0.31885002848E+02  0.51100000000E-03 0.  1.
        -12    1    3    3    0    0 -0.13492601488E+01  0.27624044620E+01  0.37474362949E+01  0.48471290621E+01  0.00000000000E+00 0.  1.
</event>
