<event>
 7    1  0.6180395E-013  0.5930196E+02  0.7816164E-02  0.1266605E+00
        -11   -1    0    0    0    0  0.00000000000E+00  0.00000000000E+00  0.45593999997E+02  0.45594000000E+02  0.51100000000E-03 0. -1.
         11   -1    0    0    0    0 -0.00000000000E+00 -0.00000000000E+00 -0.45593999997E+02  0.45594000000E+02  0.51100000000E-03 0.  1.
    9900012    2    1    2    0    0  0.47071992271E+01  0.11551571205E+02  0.29344894435E+02  0.59301963068E+02  0.50000034724E+02 0.  0.
        -12    1    1    2    0    0 -0.47071992271E+01 -0.11551571205E+02 -0.29344894435E+02  0.31886036932E+02  0.00000000000E+00 0.  1.
         11    1    3    3    0    0  0.14340210213E+02  0.25142673369E+02  0.17465030706E+02  0.33805664480E+02  0.51100000000E-03 0. -1.
        -11    1    3    3    0    0 -0.43744110649E+01  0.22914146097E+01  0.59815015178E+01  0.77565722937E+01  0.51100000000E-03 0.  1.
         12    1    3    3    0    0 -0.52585999208E+01 -0.15882516774E+02  0.58983622112E+01  0.17739726294E+02  0.00000000000E+00 0. -1.
</event>
<event>
 7    1  0.6180395E-013  0.5930195E+02  0.7816164E-02  0.1266605E+00
        -11   -1    0    0    0    0  0.00000000000E+00  0.00000000000E+00  0.45593999997E+02  0.45594000000E+02  0.51100000000E-03 0.  1.
         11   -1    0    0    0    0 -0.00000000000E+00 -0.00000000000E+00 -0.45593999997E+02  0.45594000000E+02  0.51100000000E-03 0. -1.
    9900012    2    1    2    0    0 -0.29342620671E+02  0.75095935793E+01 -0.99667829834E+01  0.59301950596E+02  0.50000011978E+02 0.  0.
        -12    1    1    2    0    0  0.29342620671E+02 -0.75095935793E+01  0.99667829834E+01  0.31886049404E+02  0.00000000000E+00 0.  1.
         11    1    3    3    0    0  0.19731311223E+01 -0.89776933457E+01 -0.19513552802E+02  0.21570140645E+02  0.51100000000E-03 0. -1.
        -11    1    3    3    0    0 -0.12280848733E+02  0.97779460253E+01  0.75169837069E+00  0.15715995825E+02  0.51100000000E-03 0.  1.
         12    1    3    3    0    0 -0.19034903061E+02  0.67093408997E+01  0.87950714478E+01  0.22015814125E+02  0.00000000000E+00 0. -1.
</event>
<event>
 7    1  0.6180395E-013  0.5930218E+02  0.7816164E-02  0.1266604E+00
        -11   -1    0    0    0    0  0.00000000000E+00  0.00000000000E+00  0.45593999997E+02  0.45594000000E+02  0.51100000000E-03 0.  1.
         11   -1    0    0    0    0 -0.00000000000E+00 -0.00000000000E+00 -0.45593999997E+02  0.45594000000E+02  0.51100000000E-03 0. -1.
    9900012    2    1    2    0    0  0.86669733297E+01 -0.12750690834E+02 -0.27910729471E+02  0.59302182415E+02  0.50000434759E+02 0.  0.
        -12    1    1    2    0    0 -0.86669733297E+01  0.12750690834E+02  0.27910729471E+02  0.31885817585E+02  0.00000000000E+00 0.  1.
         11    1    3    3    0    0 -0.75573398272E+01 -0.56141660697E+01  0.10919542259E+02  0.14417650617E+02  0.51100000000E-03 0. -1.
        -11    1    3    3    0    0  0.73907305838E+01  0.36547361941E+01 -0.10909310127E+02  0.13674539953E+02  0.51100000000E-03 0.  1.
         12    1    3    3    0    0  0.88335825731E+01 -0.10791260959E+02 -0.27920961602E+02  0.31209991845E+02  0.00000000000E+00 0. -1.
</event>
<event>
 7    1  0.6180395E-013  0.5930195E+02  0.7816164E-02  0.1266605E+00
        -11   -1    0    0    0    0  0.00000000000E+00  0.00000000000E+00  0.45593999997E+02  0.45594000000E+02  0.51100000000E-03 0.  1.
         11   -1    0    0    0    0 -0.00000000000E+00 -0.00000000000E+00 -0.45593999997E+02  0.45594000000E+02  0.51100000000E-03 0. -1.
    9900012    2    1    2    0    0  0.17517290092E+02  0.24599692709E+02 -0.10233284111E+02  0.59301946039E+02  0.50000003667E+02 0.  0.
        -12    1    1    2    0    0 -0.17517290092E+02 -0.24599692709E+02  0.10233284111E+02  0.31886053961E+02  0.00000000000E+00 0.  1.
         11    1    3    3    0    0  0.12754291882E+02  0.83883910958E+00 -0.16077380229E+01  0.12882563188E+02  0.51100000000E-03 0. -1.
        -11    1    3    3    0    0 -0.97570800149E+01  0.25460463209E+02 -0.14238235573E+02  0.30759765112E+02  0.51100000000E-03 0.  1.
        -12    1    3    3    0    0  0.14520078225E+02 -0.16996096098E+01  0.56126894854E+01  0.15659617739E+02  0.00000000000E+00 0.  1.
</event>
<event>
 7    1  0.6180395E-013  0.5930197E+02  0.7816164E-02  0.1266605E+00
        -11   -1    0    0    0    0  0.00000000000E+00  0.00000000000E+00  0.45593999997E+02  0.45594000000E+02  0.51100000000E-03 0. -1.
         11   -1    0    0    0    0 -0.00000000000E+00 -0.00000000000E+00 -0.45593999997E+02  0.45594000000E+02  0.51100000000E-03 0.  1.
    9900012    2    1    2    0    0  0.11510956563E+02  0.29559303073E+02 -0.32348839793E+01  0.59301968677E+02  0.50000044955E+02 0.  0.
        -12    1    1    2    0    0 -0.11510956563E+02 -0.29559303073E+02  0.32348839793E+01  0.31886031323E+02  0.00000000000E+00 0.  1.
         11    1    3    3    0    0 -0.18217708577E+02  0.19496110171E+02 -0.62606612219E-01  0.26683087105E+02  0.51100000000E-03 0. -1.
        -11    1    3    3    0    0  0.29763081199E+02  0.10802127880E+02 -0.27878057130E+01  0.31785198287E+02  0.51100000000E-03 0.  1.
         12    1    3    3    0    0 -0.34416060247E-01 -0.73893497814E+00 -0.38447165409E+00  0.83368328514E+00  0.00000000000E+00 0. -1.
</event>
<event>
 7    1  0.6180395E-013  0.5930188E+02  0.7816164E-02  0.1266605E+00
        -11   -1    0    0    0    0  0.00000000000E+00  0.00000000000E+00  0.45593999997E+02  0.45594000000E+02  0.51100000000E-03 0. -1.
         11   -1    0    0    0    0 -0.00000000000E+00 -0.00000000000E+00 -0.45593999997E+02  0.45594000000E+02  0.51100000000E-03 0.  1.
    9900012    2    1    2    0    0 -0.40008244678E+01  0.17849599412E+01  0.31583727949E+02  0.59301881554E+02  0.49999886062E+02 0.  0.
        -12    1    1    2    0    0  0.40008244678E+01 -0.17849599412E+01 -0.31583727949E+02  0.31886118446E+02  0.00000000000E+00 0.  1.
         11    1    3    3    0    0 -0.26425394825E+01 -0.12721626387E+02 -0.68129222978E+01  0.14671015757E+02  0.51100000000E-03 0. -1.
        -11    1    3    3    0    0 -0.56253443063E+01  0.72085654545E+01  0.55112778966E+01  0.10676239918E+02  0.51100000000E-03 0.  1.
         12    1    3    3    0    0  0.42670593209E+01  0.72980208735E+01  0.32885372350E+02  0.33954625878E+02  0.00000000000E+00 0. -1.
</event>
<event>
 7    1  0.6180395E-013  0.5930197E+02  0.7816164E-02  0.1266605E+00
        -11   -1    0    0    0    0  0.00000000000E+00  0.00000000000E+00  0.45593999997E+02  0.45594000000E+02  0.51100000000E-03 0.  1.
         11   -1    0    0    0    0 -0.00000000000E+00 -0.00000000000E+00 -0.45593999997E+02  0.45594000000E+02  0.51100000000E-03 0. -1.
    9900012    2    1    2    0    0  0.88026104333E+01 -0.67392274873E+01 -0.29896751794E+02  0.59301970059E+02  0.50000047475E+02 0.  0.
        -12    1    1    2    0    0 -0.88026104333E+01  0.67392274873E+01  0.29896751794E+02  0.31886029941E+02  0.00000000000E+00 0.  1.
         11    1    3    3    0    0  0.71680957911E+01 -0.17615968867E+02 -0.73048904857E+01  0.20373153454E+02  0.51100000000E-03 0. -1.
        -11    1    3    3    0    0 -0.57805492801E+01  0.18612123902E+02 -0.85924211295E+01  0.21299192643E+02  0.51100000000E-03 0.  1.
        -12    1    3    3    0    0  0.74150639223E+01 -0.77353825222E+01 -0.13999440179E+02  0.17629623962E+02  0.00000000000E+00 0.  1.
</event>
<event>
 7    1  0.6180395E-013  0.5930184E+02  0.7816164E-02  0.1266605E+00
        -11   -1    0    0    0    0  0.00000000000E+00  0.00000000000E+00  0.45593999997E+02  0.45594000000E+02  0.51100000000E-03 0.  1.
         11   -1    0    0    0    0 -0.00000000000E+00 -0.00000000000E+00 -0.45593999997E+02  0.45594000000E+02  0.51100000000E-03 0. -1.
    9900012    2    1    2    0    0 -0.12465828316E+02  0.28420919593E+02 -0.73199685467E+01  0.59301835514E+02  0.49999802096E+02 0.  0.
        -12    1    1    2    0    0  0.12465828316E+02 -0.28420919593E+02  0.73199685467E+01  0.31886164486E+02  0.00000000000E+00 0.  1.
         11    1    3    3    0    0  0.61905182225E+01  0.87002296446E+01 -0.14148686691E+02  0.17725739677E+02  0.51100000000E-03 0. -1.
        -11    1    3    3    0    0  0.61288606823E+01  0.68820589442E+01  0.98633845545E+01  0.13498593397E+02  0.51100000000E-03 0.  1.
         12    1    3    3    0    0 -0.24785207221E+02  0.12838631004E+02 -0.30346664096E+01  0.28077502440E+02  0.00000000000E+00 0. -1.
</event>
<event>
 7    1  0.6180395E-013  0.5930186E+02  0.7816164E-02  0.1266605E+00
        -11   -1    0    0    0    0  0.00000000000E+00  0.00000000000E+00  0.45593999997E+02  0.45594000000E+02  0.51100000000E-03 0. -1.
         11   -1    0    0    0    0 -0.00000000000E+00 -0.00000000000E+00 -0.45593999997E+02  0.45594000000E+02  0.51100000000E-03 0.  1.
    9900012    2    1    2    0    0  0.21731032047E+02 -0.15284081040E+02  0.17631926095E+02  0.59301863438E+02  0.49999853023E+02 0.  0.
        -12    1    1    2    0    0 -0.21731032047E+02  0.15284081040E+02 -0.17631926095E+02  0.31886136562E+02  0.00000000000E+00 0.  1.
         11    1    3    3    0    0  0.57000365376E+01 -0.26186464422E+02  0.16885734650E+02  0.31675690527E+02  0.51100000000E-03 0. -1.
        -11    1    3    3    0    0  0.19094436929E+02  0.86017634170E+01  0.53713801363E+01  0.21620351069E+02  0.51100000000E-03 0.  1.
         12    1    3    3    0    0 -0.30634414203E+01  0.23006199645E+01 -0.46251886912E+01  0.60058218410E+01  0.00000000000E+00 0. -1.
</event>
<event>
 7    1  0.6180395E-013  0.5930171E+02  0.7816164E-02  0.1266606E+00
        -11   -1    0    0    0    0  0.00000000000E+00  0.00000000000E+00  0.45593999997E+02  0.45594000000E+02  0.51100000000E-03 0. -1.
         11   -1    0    0    0    0 -0.00000000000E+00 -0.00000000000E+00 -0.45593999997E+02  0.45594000000E+02  0.51100000000E-03 0.  1.
    9900012    2    1    2    0    0 -0.14902307779E+02 -0.20741379951E+02  0.19090618601E+02  0.59301712383E+02  0.49999577534E+02 0.  0.
        -12    1    1    2    0    0  0.14902307779E+02  0.20741379951E+02 -0.19090618601E+02  0.31886287617E+02  0.00000000000E+00 0.  1.
         11    1    3    3    0    0  0.10842820541E+01 -0.23148592738E+02  0.20957457311E+02  0.31244968083E+02  0.51100000000E-03 0. -1.
        -11    1    3    3    0    0  0.34460468479E+01  0.39103404009E+01 -0.61902676971E+01  0.80923059354E+01  0.51100000000E-03 0.  1.
         12    1    3    3    0    0 -0.19432636681E+02 -0.15031276144E+01  0.43234289877E+01  0.19964438365E+02  0.00000000000E+00 0. -1.
</event>
<event>
 7    1  0.6180395E-013  0.5930194E+02  0.7816164E-02  0.1266605E+00
        -11   -1    0    0    0    0  0.00000000000E+00  0.00000000000E+00  0.45593999997E+02  0.45594000000E+02  0.51100000000E-03 0. -1.
         11   -1    0    0    0    0 -0.00000000000E+00 -0.00000000000E+00 -0.45593999997E+02  0.45594000000E+02  0.51100000000E-03 0.  1.
    9900012    2    1    2    0    0  0.36983808958E+01  0.10456341643E+02  0.29894949614E+02  0.59301935423E+02  0.49999984307E+02 0.  0.
        -12    1    1    2    0    0 -0.36983808958E+01 -0.10456341643E+02 -0.29894949614E+02  0.31886064577E+02  0.00000000000E+00 0.  1.
         11    1    3    3    0    0 -0.44485161015E+01  0.11508713506E+02  0.10602502117E+02  0.16268153967E+02  0.51100000000E-03 0. -1.
        -11    1    3    3    0    0  0.99328055792E+01 -0.17494162519E+02  0.40050920586E+01  0.20512121089E+02  0.51100000000E-03 0.  1.
        -12    1    3    3    0    0 -0.17859085819E+01  0.16441790655E+02  0.15287355438E+02  0.22521660367E+02  0.00000000000E+00 0.  1.
</event>
<event>
 7    1  0.6180395E-013  0.5930193E+02  0.7816164E-02  0.1266605E+00
        -11   -1    0    0    0    0  0.00000000000E+00  0.00000000000E+00  0.45593999997E+02  0.45594000000E+02  0.51100000000E-03 0.  1.
         11   -1    0    0    0    0 -0.00000000000E+00 -0.00000000000E+00 -0.45593999997E+02  0.45594000000E+02  0.51100000000E-03 0. -1.
    9900012    2    1    2    0    0  0.18261500007E+02 -0.45915509606E+01 -0.25732401668E+02  0.59301933791E+02  0.49999981330E+02 0.  0.
        -12    1    1    2    0    0 -0.18261500007E+02  0.45915509606E+01  0.25732401668E+02  0.31886066209E+02  0.00000000000E+00 0.  1.
         11    1    3    3    0    0  0.23278759147E+02  0.14182700308E+02 -0.11707898327E+02  0.29666892303E+02  0.51100000000E-03 0. -1.
        -11    1    3    3    0    0  0.14748202060E-01 -0.15087888596E+02 -0.16994972795E+02  0.22726057739E+02  0.51100000000E-03 0.  1.
         12    1    3    3    0    0 -0.50320073424E+01 -0.36863626726E+01  0.29704694554E+01  0.69089837483E+01  0.00000000000E+00 0. -1.
</event>
<event>
 7    1  0.6180395E-013  0.5930193E+02  0.7816164E-02  0.1266605E+00
        -11   -1    0    0    0    0  0.00000000000E+00  0.00000000000E+00  0.45593999997E+02  0.45594000000E+02  0.51100000000E-03 0.  1.
         11   -1    0    0    0    0 -0.00000000000E+00 -0.00000000000E+00 -0.45593999997E+02  0.45594000000E+02  0.51100000000E-03 0. -1.
    9900012    2    1    2    0    0  0.85737545944E+01  0.26908058670E+02  0.14804353231E+02  0.59301925236E+02  0.49999965728E+02 0.  0.
        -12    1    1    2    0    0 -0.85737545944E+01 -0.26908058670E+02 -0.14804353231E+02  0.31886074764E+02  0.00000000000E+00 0.  1.
         11    1    3    3    0    0 -0.93830716183E+01 -0.91425702864E+01  0.10715604841E+02  0.16924916892E+02  0.51100000000E-03 0. -1.
        -11    1    3    3    0    0  0.12493796647E+02  0.33668651823E+02  0.16873089401E+01  0.35951635317E+02  0.51100000000E-03 0.  1.
        -12    1    3    3    0    0  0.54630295656E+01  0.23819771340E+01  0.24014394499E+01  0.64253730268E+01  0.00000000000E+00 0.  1.
</event>
<event>
 7    1  0.6180395E-013  0.5930193E+02  0.7816164E-02  0.1266605E+00
        -11   -1    0    0    0    0  0.00000000000E+00  0.00000000000E+00  0.45593999997E+02  0.45594000000E+02  0.51100000000E-03 0.  1.
         11   -1    0    0    0    0 -0.00000000000E+00 -0.00000000000E+00 -0.45593999997E+02  0.45594000000E+02  0.51100000000E-03 0. -1.
    9900012    2    1    2    0    0 -0.10454642098E+02  0.10904109221E+02 -0.28080640882E+02  0.59301928877E+02  0.49999972368E+02 0.  0.
        -12    1    1    2    0    0  0.10454642098E+02 -0.10904109221E+02  0.28080640882E+02  0.31886071123E+02  0.00000000000E+00 0.  1.
         11    1    3    3    0    0 -0.10034203142E+02 -0.44285569325E+01 -0.28688178609E+02  0.30713334911E+02  0.51100000000E-03 0. -1.
        -11    1    3    3    0    0 -0.46089428997E+01  0.99302676855E+01  0.11405041115E+02  0.15809096560E+02  0.51100000000E-03 0.  1.
         12    1    3    3    0    0  0.41885039441E+01  0.54023984682E+01 -0.10797503389E+02  0.12779497405E+02  0.00000000000E+00 0. -1.
</event>
<event>
 7    1  0.6180395E-013  0.5930194E+02  0.7816164E-02  0.1266605E+00
        -11   -1    0    0    0    0  0.00000000000E+00  0.00000000000E+00  0.45593999997E+02  0.45594000000E+02  0.51100000000E-03 0.  1.
         11   -1    0    0    0    0 -0.00000000000E+00 -0.00000000000E+00 -0.45593999997E+02  0.45594000000E+02  0.51100000000E-03 0. -1.
    9900012    2    1    2    0    0  0.35426890483E+01 -0.28105478653E+02  0.14637354027E+02  0.59301941779E+02  0.49999995898E+02 0.  0.
        -12    1    1    2    0    0 -0.35426890483E+01  0.28105478653E+02 -0.14637354027E+02  0.31886058221E+02  0.00000000000E+00 0.  1.
         11    1    3    3    0    0  0.11126824676E+02 -0.32005761207E+02 -0.47316298779E+01  0.34213495866E+02  0.51100000000E-03 0. -1.
        -11    1    3    3    0    0  0.58190883799E+00  0.31967293754E+01  0.15831240538E+02  0.16161246048E+02  0.51100000000E-03 0.  1.
        -12    1    3    3    0    0 -0.81660444660E+01  0.70355317882E+00  0.35377433671E+01  0.89271998648E+01  0.00000000000E+00 0.  1.
</event>
<event>
 7    1  0.6180395E-013  0.5930195E+02  0.7816164E-02  0.1266605E+00
        -11   -1    0    0    0    0  0.00000000000E+00  0.00000000000E+00  0.45593999997E+02  0.45594000000E+02  0.51100000000E-03 0.  1.
         11   -1    0    0    0    0 -0.00000000000E+00 -0.00000000000E+00 -0.45593999997E+02  0.45594000000E+02  0.51100000000E-03 0. -1.
    9900012    2    1    2    0    0 -0.33664056260E+01  0.26442191391E+02 -0.17498512785E+02  0.59301950980E+02  0.50000012680E+02 0.  0.
        -12    1    1    2    0    0  0.33664056260E+01 -0.26442191391E+02  0.17498512785E+02  0.31886049020E+02  0.00000000000E+00 0.  1.
         11    1    3    3    0    0 -0.71722848782E+01  0.33309429549E+02 -0.11056470926E+02  0.35821855296E+02  0.51100000000E-03 0. -1.
        -11    1    3    3    0    0  0.57254280309E+01  0.11343147743E+01  0.61237903888E+01  0.84597875347E+01  0.51100000000E-03 0.  1.
         12    1    3    3    0    0 -0.19195487787E+01 -0.80015529318E+01 -0.12565832248E+02  0.15020308150E+02  0.00000000000E+00 0. -1.
</event>
<event>
 7    1  0.6180395E-013  0.5930196E+02  0.7816164E-02  0.1266605E+00
        -11   -1    0    0    0    0  0.00000000000E+00  0.00000000000E+00  0.45593999997E+02  0.45594000000E+02  0.51100000000E-03 0. -1.
         11   -1    0    0    0    0 -0.00000000000E+00 -0.00000000000E+00 -0.45593999997E+02  0.45594000000E+02  0.51100000000E-03 0.  1.
    9900012    2    1    2    0    0  0.31592919393E+02  0.41036879701E+01  0.13291771065E+01  0.59301960382E+02  0.50000029826E+02 0.  0.
        -12    1    1    2    0    0 -0.31592919393E+02 -0.41036879701E+01 -0.13291771065E+01  0.31886039618E+02  0.00000000000E+00 0.  1.
         11    1    3    3    0    0  0.25011803865E+02  0.13456199687E+02  0.12167695764E+02  0.30898421692E+02  0.51100000000E-03 0. -1.
        -11    1    3    3    0    0  0.12178824097E+02  0.25280201769E+01 -0.84958858964E+01  0.15063024923E+02  0.51100000000E-03 0.  1.
         12    1    3    3    0    0 -0.55977085694E+01 -0.11880531894E+02 -0.23426327607E+01  0.13340513766E+02  0.00000000000E+00 0. -1.
</event>
<event>
 7    1  0.6180395E-013  0.5930194E+02  0.7816164E-02  0.1266605E+00
        -11   -1    0    0    0    0  0.00000000000E+00  0.00000000000E+00  0.45593999997E+02  0.45594000000E+02  0.51100000000E-03 0. -1.
         11   -1    0    0    0    0 -0.00000000000E+00 -0.00000000000E+00 -0.45593999997E+02  0.45594000000E+02  0.51100000000E-03 0.  1.
    9900012    2    1    2    0    0 -0.18826544582E+02 -0.75977283710E+01  0.24587732038E+02  0.59301939973E+02  0.49999992605E+02 0.  0.
        -12    1    1    2    0    0  0.18826544582E+02  0.75977283710E+01 -0.24587732038E+02  0.31886060027E+02  0.00000000000E+00 0.  1.
         11    1    3    3    0    0 -0.11788372903E+02  0.11615395497E+02 -0.67784601806E+01  0.17883810302E+02  0.51100000000E-03 0.  1.
        -11    1    3    3    0    0 -0.64950167932E+01 -0.21076081086E+02  0.32419764498E+02  0.39210044216E+02  0.51100000000E-03 0. -1.
         12    1    3    3    0    0 -0.54315488582E+00  0.18629572177E+01 -0.10535722794E+01  0.22080854542E+01  0.00000000000E+00 0. -1.
</event>
<event>
 7    1  0.6180395E-013  0.5930186E+02  0.7816164E-02  0.1266605E+00
        -11   -1    0    0    0    0  0.00000000000E+00  0.00000000000E+00  0.45593999997E+02  0.45594000000E+02  0.51100000000E-03 0.  1.
         11   -1    0    0    0    0 -0.00000000000E+00 -0.00000000000E+00 -0.45593999997E+02  0.45594000000E+02  0.51100000000E-03 0. -1.
    9900012    2    1    2    0    0 -0.18725353910E+01 -0.12417220557E+02 -0.29309249877E+02  0.59301860637E+02  0.49999847915E+02 0.  0.
        -12    1    1    2    0    0  0.18725353910E+01  0.12417220557E+02  0.29309249877E+02  0.31886139363E+02  0.00000000000E+00 0.  1.
         11    1    3    3    0    0 -0.51406829135E+01 -0.33934013494E+01 -0.22524338631E+02  0.23351394489E+02  0.51100000000E-03 0. -1.
        -11    1    3    3    0    0 -0.26170115654E+01 -0.20501483570E+02  0.13316606762E+01  0.20710695268E+02  0.51100000000E-03 0.  1.
         12    1    3    3    0    0  0.58851590878E+01  0.11477664362E+02 -0.81165719221E+01  0.15239770880E+02  0.00000000000E+00 0. -1.
</event>
<event>
 7    1  0.6180395E-013  0.5930193E+02  0.7816164E-02  0.1266605E+00
        -11   -1    0    0    0    0  0.00000000000E+00  0.00000000000E+00  0.45593999997E+02  0.45594000000E+02  0.51100000000E-03 0.  1.
         11   -1    0    0    0    0 -0.00000000000E+00 -0.00000000000E+00 -0.45593999997E+02  0.45594000000E+02  0.51100000000E-03 0. -1.
    9900012    2    1    2    0    0  0.24927811465E+01  0.18255389862E+02 -0.26023996276E+02  0.59301927820E+02  0.49999970442E+02 0.  0.
        -12    1    1    2    0    0 -0.24927811465E+01 -0.18255389862E+02  0.26023996276E+02  0.31886072180E+02  0.00000000000E+00 0.  1.
         11    1    3    3    0    0  0.16700309088E+01  0.23583461976E+02 -0.21431312361E+02  0.31910340515E+02  0.51100000000E-03 0. -1.
        -11    1    3    3    0    0  0.16747139201E+01 -0.64135156903E+01 -0.15258912597E+02  0.16636473909E+02  0.51100000000E-03 0.  1.
        -12    1    3    3    0    0 -0.85196368236E+00  0.10854435767E+01  0.10666228682E+02  0.10755113396E+02  0.00000000000E+00 0.  1.
</event>
<event>
 7    1  0.6180395E-013  0.5930194E+02  0.7816164E-02  0.1266605E+00
        -11   -1    0    0    0    0  0.00000000000E+00  0.00000000000E+00  0.45593999997E+02  0.45594000000E+02  0.51100000000E-03 0. -1.
         11   -1    0    0    0    0 -0.00000000000E+00 -0.00000000000E+00 -0.45593999997E+02  0.45594000000E+02  0.51100000000E-03 0.  1.
    9900012    2    1    2    0    0  0.74423013647E+01 -0.29610419131E+02  0.91954345741E+01  0.59301940542E+02  0.49999993643E+02 0.  0.
        -12    1    1    2    0    0 -0.74423013647E+01  0.29610419131E+02 -0.91954345741E+01  0.31886059458E+02  0.00000000000E+00 0.  1.
         11    1    3    3    0    0  0.14960271038E+00 -0.52353483437E+01  0.26086174879E+02  0.26606761797E+02  0.51100000000E-03 0. -1.
        -11    1    3    3    0    0  0.41525887070E+01 -0.27205930074E+01 -0.72445094681E+01  0.87822854073E+01  0.51100000000E-03 0.  1.
         12    1    3    3    0    0  0.31401099473E+01 -0.21654477780E+02 -0.96462308370E+01  0.23912893338E+02  0.00000000000E+00 0. -1.
</event>
<event>
 7    1  0.6180395E-013  0.5930189E+02  0.7816164E-02  0.1266605E+00
        -11   -1    0    0    0    0  0.00000000000E+00  0.00000000000E+00  0.45593999997E+02  0.45594000000E+02  0.51100000000E-03 0.  1.
         11   -1    0    0    0    0 -0.00000000000E+00 -0.00000000000E+00 -0.45593999997E+02  0.45594000000E+02  0.51100000000E-03 0. -1.
    9900012    2    1    2    0    0 -0.12230693830E+02 -0.10603250206E+02 -0.27471898583E+02  0.59301890199E+02  0.49999901829E+02 0.  0.
        -12    1    1    2    0    0  0.12230693830E+02  0.10603250206E+02  0.27471898583E+02  0.31886109801E+02  0.00000000000E+00 0.  1.
         11    1    3    3    0    0 -0.54207705153E+01 -0.17676723307E+02  0.37346431224E+01  0.18862631295E+02  0.51100000000E-03 0.  1.
        -11    1    3    3    0    0 -0.12126290483E+02  0.97076601737E+01 -0.30796193349E+02  0.34491899223E+02  0.51100000000E-03 0. -1.
        -12    1    3    3    0    0  0.53163671687E+01 -0.26341870727E+01 -0.41034835597E+00  0.59473596814E+01  0.00000000000E+00 0.  1.
</event>
<event>
 7    1  0.6180395E-013  0.5930193E+02  0.7816164E-02  0.1266605E+00
        -11   -1    0    0    0    0  0.00000000000E+00  0.00000000000E+00  0.45593999997E+02  0.45594000000E+02  0.51100000000E-03 0.  1.
         11   -1    0    0    0    0 -0.00000000000E+00 -0.00000000000E+00 -0.45593999997E+02  0.45594000000E+02  0.51100000000E-03 0. -1.
    9900012    2    1    2    0    0 -0.11026039725E+02  0.59245327232E+01 -0.29326570212E+02  0.59301931563E+02  0.49999977267E+02 0.  0.
        -12    1    1    2    0    0  0.11026039725E+02 -0.59245327232E+01  0.29326570212E+02  0.31886068437E+02  0.00000000000E+00 0.  1.
         11    1    3    3    0    0 -0.90668404696E+01 -0.56739530453E+01 -0.41643363429E+01  0.11477936953E+02  0.51100000000E-03 0. -1.
        -11    1    3    3    0    0 -0.18382322881E+01 -0.77022511673E+00 -0.33078436649E+02  0.33138426578E+02  0.51100000000E-03 0.  1.
        -12    1    3    3    0    0 -0.12096696695E+00  0.12368710885E+02  0.79162027797E+01  0.14685568032E+02  0.00000000000E+00 0.  1.
</event>
<event>
 7    1  0.6180395E-013  0.5930193E+02  0.7816164E-02  0.1266605E+00
        -11   -1    0    0    0    0  0.00000000000E+00  0.00000000000E+00  0.45593999997E+02  0.45594000000E+02  0.51100000000E-03 0.  1.
         11   -1    0    0    0    0 -0.00000000000E+00 -0.00000000000E+00 -0.45593999997E+02  0.45594000000E+02  0.51100000000E-03 0. -1.
    9900012    2    1    2    0    0  0.20909195176E+02  0.52808958220E+01 -0.23487000998E+02  0.59301929068E+02  0.49999972718E+02 0.  0.
        -12    1    1    2    0    0 -0.20909195176E+02 -0.52808958220E+01  0.23487000998E+02  0.31886070932E+02  0.00000000000E+00 0.  1.
         11    1    3    3    0    0 -0.50120464782E+00 -0.10882278821E+02 -0.74331889140E+01  0.13188157420E+02  0.51100000000E-03 0. -1.
        -11    1    3    3    0    0  0.23576001468E+02  0.24621822204E+02 -0.15252242055E+02  0.37345586913E+02  0.51100000000E-03 0.  1.
        -12    1    3    3    0    0 -0.21656016446E+01 -0.84586475614E+01 -0.80157002956E+00  0.87681847359E+01  0.00000000000E+00 0.  1.
</event>
<event>
 7    1  0.6180395E-013  0.5930194E+02  0.7816164E-02  0.1266605E+00
        -11   -1    0    0    0    0  0.00000000000E+00  0.00000000000E+00  0.45593999997E+02  0.45594000000E+02  0.51100000000E-03 0.  1.
         11   -1    0    0    0    0 -0.00000000000E+00 -0.00000000000E+00 -0.45593999997E+02  0.45594000000E+02  0.51100000000E-03 0. -1.
    9900012    2    1    2    0    0 -0.21952430799E+01 -0.10476296783E+02 -0.30035793932E+02  0.59301940294E+02  0.49999993191E+02 0.  0.
        -12    1    1    2    0    0  0.21952430799E+01  0.10476296783E+02  0.30035793932E+02  0.31886059706E+02  0.00000000000E+00 0.  1.
         11    1    3    3    0    0 -0.57525080446E+01 -0.72344649933E+00 -0.56890042587E+01  0.81227762100E+01  0.51100000000E-03 0. -1.
        -11    1    3    3    0    0  0.14332970888E+02  0.12957280022E+02 -0.66354724053E+01  0.20429259760E+02  0.51100000000E-03 0.  1.
        -12    1    3    3    0    0 -0.10775705923E+02 -0.22710130305E+02 -0.17711317268E+02  0.30749904325E+02  0.00000000000E+00 0.  1.
</event>
<event>
 7    1  0.6180395E-013  0.5930195E+02  0.7816164E-02  0.1266605E+00
        -11   -1    0    0    0    0  0.00000000000E+00  0.00000000000E+00  0.45593999997E+02  0.45594000000E+02  0.51100000000E-03 0.  1.
         11   -1    0    0    0    0 -0.00000000000E+00 -0.00000000000E+00 -0.45593999997E+02  0.45594000000E+02  0.51100000000E-03 0. -1.
    9900012    2    1    2    0    0  0.70504159977E+01 -0.23228134816E+02 -0.20675241319E+02  0.59301949501E+02  0.50000009983E+02 0.  0.
        -12    1    1    2    0    0 -0.70504159977E+01  0.23228134816E+02  0.20675241319E+02  0.31886050499E+02  0.00000000000E+00 0.  1.
         11    1    3    3    0    0  0.11111672593E+02 -0.24375394868E+02 -0.20266714555E+02  0.33591202150E+02  0.51100000000E-03 0. -1.
        -11    1    3    3    0    0  0.77385649790E+01  0.62469698871E+01  0.57167258203E+01  0.11471310957E+02  0.51100000000E-03 0.  1.
         12    1    3    3    0    0 -0.11799821575E+02 -0.50997098354E+01 -0.61252525848E+01  0.14239436394E+02  0.00000000000E+00 0. -1.
</event>
<event>
 7    1  0.6180395E-013  0.5930193E+02  0.7816164E-02  0.1266605E+00
        -11   -1    0    0    0    0  0.00000000000E+00  0.00000000000E+00  0.45593999997E+02  0.45594000000E+02  0.51100000000E-03 0.  1.
         11   -1    0    0    0    0 -0.00000000000E+00 -0.00000000000E+00 -0.45593999997E+02  0.45594000000E+02  0.51100000000E-03 0. -1.
    9900012    2    1    2    0    0  0.17782482012E+02  0.19704094910E+01 -0.26393602524E+02  0.59301930404E+02  0.49999975154E+02 0.  0.
        -12    1    1    2    0    0 -0.17782482012E+02 -0.19704094910E+01  0.26393602524E+02  0.31886069596E+02  0.00000000000E+00 0.  1.
         11    1    3    3    0    0  0.27237028210E+02 -0.13390296901E+02 -0.23239525625E+02  0.38226055359E+02  0.51100000000E-03 0. -1.
        -11    1    3    3    0    0  0.18888840909E+01  0.44033938194E+01  0.69509762692E+00  0.48415825109E+01  0.51100000000E-03 0.  1.
         12    1    3    3    0    0 -0.11343430290E+02  0.10957312573E+02 -0.38491745263E+01  0.16234292534E+02  0.00000000000E+00 0. -1.
</event>
<event>
 7    1  0.6180395E-013  0.5930196E+02  0.7816164E-02  0.1266605E+00
        -11   -1    0    0    0    0  0.00000000000E+00  0.00000000000E+00  0.45593999997E+02  0.45594000000E+02  0.51100000000E-03 0.  1.
         11   -1    0    0    0    0 -0.00000000000E+00 -0.00000000000E+00 -0.45593999997E+02  0.45594000000E+02  0.51100000000E-03 0. -1.
    9900012    2    1    2    0    0  0.21291158549E+02 -0.95174135402E+01 -0.21744545061E+02  0.59301955517E+02  0.50000020954E+02 0.  0.
        -12    1    1    2    0    0 -0.21291158549E+02  0.95174135402E+01  0.21744545061E+02  0.31886044483E+02  0.00000000000E+00 0.  1.
         11    1    3    3    0    0  0.13697728221E+02  0.65233624821E+01  0.92483548279E+01  0.17768344993E+02  0.51100000000E-03 0. -1.
        -11    1    3    3    0    0 -0.57219492730E+01 -0.95546087525E+01 -0.64556070588E+01  0.12872688711E+02  0.51100000000E-03 0.  1.
         12    1    3    3    0    0  0.13315379601E+02 -0.64861672698E+01 -0.24537292830E+02  0.28660921813E+02  0.00000000000E+00 0. -1.
</event>
<event>
 7    1  0.6180395E-013  0.5930194E+02  0.7816164E-02  0.1266605E+00
        -11   -1    0    0    0    0  0.00000000000E+00  0.00000000000E+00  0.45593999997E+02  0.45594000000E+02  0.51100000000E-03 0.  1.
         11   -1    0    0    0    0 -0.00000000000E+00 -0.00000000000E+00 -0.45593999997E+02  0.45594000000E+02  0.51100000000E-03 0. -1.
    9900012    2    1    2    0    0  0.26906369451E+02  0.11404084690E+02  0.12755981718E+02  0.59301938245E+02  0.49999989454E+02 0.  0.
        -12    1    1    2    0    0 -0.26906369451E+02 -0.11404084690E+02 -0.12755981718E+02  0.31886061755E+02  0.00000000000E+00 0.  1.
         11    1    3    3    0    0  0.20111730739E+01 -0.32681940651E+01 -0.10226463320E+02  0.10922749740E+02  0.51100000000E-03 0. -1.
        -11    1    3    3    0    0  0.29145297361E+02  0.17610490855E+02  0.25585771367E+02  0.42593537575E+02  0.51100000000E-03 0.  1.
        -12    1    3    3    0    0 -0.42501009838E+01 -0.29382121007E+01 -0.26033263292E+01  0.57856509311E+01  0.00000000000E+00 0.  1.
</event>
<event>
 7    1  0.6180395E-013  0.5930194E+02  0.7816164E-02  0.1266605E+00
        -11   -1    0    0    0    0  0.00000000000E+00  0.00000000000E+00  0.45593999997E+02  0.45594000000E+02  0.51100000000E-03 0. -1.
         11   -1    0    0    0    0 -0.00000000000E+00 -0.00000000000E+00 -0.45593999997E+02  0.45594000000E+02  0.51100000000E-03 0.  1.
    9900012    2    1    2    0    0 -0.20215559087E+02 -0.20783792715E+02  0.13269728377E+02  0.59301944114E+02  0.50000000157E+02 0.  0.
        -12    1    1    2    0    0  0.20215559087E+02  0.20783792715E+02 -0.13269728377E+02  0.31886055886E+02  0.00000000000E+00 0.  1.
         11    1    3    3    0    0 -0.43597668977E+01 -0.58655902470E+01  0.26276063941E+02  0.27273508261E+02  0.51100000000E-03 0. -1.
        -11    1    3    3    0    0 -0.13449165680E+02 -0.18707401421E+02 -0.61732365609E+01  0.23852793868E+02  0.51100000000E-03 0.  1.
         12    1    3    3    0    0 -0.24066265092E+01  0.37891989535E+01 -0.68330990040E+01  0.81756419847E+01  0.00000000000E+00 0. -1.
</event>
<event>
 7    1  0.6180395E-013  0.5930194E+02  0.7816164E-02  0.1266605E+00
        -11   -1    0    0    0    0  0.00000000000E+00  0.00000000000E+00  0.45593999997E+02  0.45594000000E+02  0.51100000000E-03 0.  1.
         11   -1    0    0    0    0 -0.00000000000E+00 -0.00000000000E+00 -0.45593999997E+02  0.45594000000E+02  0.51100000000E-03 0. -1.
    9900012    2    1    2    0    0 -0.25858874187E+02 -0.44650754641E+01 -0.18113601077E+02  0.59301940082E+02  0.49999992804E+02 0.  0.
        -12    1    1    2    0    0  0.25858874187E+02  0.44650754641E+01  0.18113601077E+02  0.31886059918E+02  0.00000000000E+00 0.  1.
         11    1    3    3    0    0  0.54377863787E+01 -0.14849707343E+02  0.72043124989E+01  0.17377728497E+02  0.51100000000E-03 0. -1.
        -11    1    3    3    0    0 -0.18105604274E+02  0.51814411318E+01 -0.11183538030E+02  0.21902779766E+02  0.51100000000E-03 0.  1.
         12    1    3    3    0    0 -0.13191056292E+02  0.52031907467E+01 -0.14134375545E+02  0.20021431819E+02  0.00000000000E+00 0. -1.
</event>
<event>
 7    1  0.6180395E-013  0.5930209E+02  0.7816164E-02  0.1266604E+00
        -11   -1    0    0    0    0  0.00000000000E+00  0.00000000000E+00  0.45593999997E+02  0.45594000000E+02  0.51100000000E-03 0.  1.
         11   -1    0    0    0    0 -0.00000000000E+00 -0.00000000000E+00 -0.45593999997E+02  0.45594000000E+02  0.51100000000E-03 0. -1.
    9900012    2    1    2    0    0 -0.13502718577E+02 -0.24128511739E+02 -0.15880889146E+02  0.59302092019E+02  0.50000269900E+02 0.  0.
        -12    1    1    2    0    0  0.13502718577E+02  0.24128511739E+02  0.15880889146E+02  0.31885907981E+02  0.00000000000E+00 0.  1.
         11    1    3    3    0    0 -0.33261296231E+01 -0.16773083320E+02 -0.20308323797E+02  0.26548587119E+02  0.51100000000E-03 0. -1.
        -11    1    3    3    0    0 -0.95612296246E+01  0.57867681020E+01  0.12928449631E+02  0.17089429690E+02  0.51100000000E-03 0.  1.
        -12    1    3    3    0    0 -0.61535932934E+00 -0.13142196521E+02 -0.85010149799E+01  0.15664075210E+02  0.00000000000E+00 0.  1.
</event>
<event>
 7    1  0.6180395E-013  0.5930189E+02  0.7816164E-02  0.1266605E+00
        -11   -1    0    0    0    0  0.00000000000E+00  0.00000000000E+00  0.45593999997E+02  0.45594000000E+02  0.51100000000E-03 0. -1.
         11   -1    0    0    0    0 -0.00000000000E+00 -0.00000000000E+00 -0.45593999997E+02  0.45594000000E+02  0.51100000000E-03 0.  1.
    9900012    2    1    2    0    0  0.57186191168E+01  0.11908350518E+02  0.29020902610E+02  0.59301886957E+02  0.49999895917E+02 0.  0.
        -12    1    1    2    0    0 -0.57186191168E+01 -0.11908350518E+02 -0.29020902610E+02  0.31886113043E+02  0.00000000000E+00 0.  1.
         11    1    3    3    0    0 -0.10769887864E+01 -0.11060704138E+02  0.51008763701E+01  0.12227756167E+02  0.51100000000E-03 0. -1.
        -11    1    3    3    0    0  0.18875321949E+02  0.18793658749E+02  0.21112361489E+02  0.33988397958E+02  0.51100000000E-03 0.  1.
        -12    1    3    3    0    0 -0.12079714046E+02  0.41753959071E+01  0.28076647512E+01  0.13085732833E+02  0.00000000000E+00 0.  1.
</event>
<event>
 7    1  0.6180395E-013  0.5930181E+02  0.7816164E-02  0.1266605E+00
        -11   -1    0    0    0    0  0.00000000000E+00  0.00000000000E+00  0.45593999997E+02  0.45594000000E+02  0.51100000000E-03 0.  1.
         11   -1    0    0    0    0 -0.00000000000E+00 -0.00000000000E+00 -0.45593999997E+02  0.45594000000E+02  0.51100000000E-03 0. -1.
    9900012    2    1    2    0    0  0.37520456140E+01  0.60317938165E+01 -0.31084867421E+02  0.59301806036E+02  0.49999748336E+02 0.  0.
        -12    1    1    2    0    0 -0.37520456140E+01 -0.60317938165E+01  0.31084867421E+02  0.31886193964E+02  0.00000000000E+00 0.  1.
         11    1    3    3    0    0  0.14891063706E+02 -0.66817363609E+00 -0.24210502200E+02  0.28431297039E+02  0.51100000000E-03 0. -1.
        -11    1    3    3    0    0 -0.82213889126E+01 -0.10111621697E+02 -0.30523501468E+01  0.13384803722E+02  0.51100000000E-03 0.  1.
        -12    1    3    3    0    0 -0.29176291790E+01  0.16811589149E+02 -0.38220150738E+01  0.17485705275E+02  0.00000000000E+00 0.  1.
</event>
<event>
 7    1  0.6180395E-013  0.5930212E+02  0.7816164E-02  0.1266604E+00
        -11   -1    0    0    0    0  0.00000000000E+00  0.00000000000E+00  0.45593999997E+02  0.45594000000E+02  0.51100000000E-03 0. -1.
         11   -1    0    0    0    0 -0.00000000000E+00 -0.00000000000E+00 -0.45593999997E+02  0.45594000000E+02  0.51100000000E-03 0.  1.
    9900012    2    1    2    0    0 -0.29083918380E+02  0.51519959049E+01  0.12012146328E+02  0.59302124921E+02  0.50000329906E+02 0.  0.
        -12    1    1    2    0    0  0.29083918380E+02 -0.51519959049E+01 -0.12012146328E+02  0.31885875079E+02  0.00000000000E+00 0.  1.
         11    1    3    3    0    0  0.35820847671E+01 -0.27952178954E+01  0.41076401915E+01  0.61251353100E+01  0.51100000000E-03 0. -1.
        -11    1    3    3    0    0 -0.18875387759E+02  0.81984284819E+01 -0.15668698406E+02  0.25865084625E+02  0.51100000000E-03 0.  1.
        -12    1    3    3    0    0 -0.13790615387E+02 -0.25121468155E+00  0.23573204543E+02  0.27311904987E+02  0.00000000000E+00 0.  1.
</event>
<event>
 7    1  0.6180395E-013  0.5930195E+02  0.7816164E-02  0.1266605E+00
        -11   -1    0    0    0    0  0.00000000000E+00  0.00000000000E+00  0.45593999997E+02  0.45594000000E+02  0.51100000000E-03 0. -1.
         11   -1    0    0    0    0 -0.00000000000E+00 -0.00000000000E+00 -0.45593999997E+02  0.45594000000E+02  0.51100000000E-03 0.  1.
    9900012    2    1    2    0    0 -0.25988671431E+02 -0.18458762349E+02 -0.76390475594E+00  0.59301945044E+02  0.50000001853E+02 0.  0.
        -12    1    1    2    0    0  0.25988671431E+02  0.18458762349E+02  0.76390475594E+00  0.31886054956E+02  0.00000000000E+00 0.  1.
         11    1    3    3    0    0 -0.30376773678E+02  0.40913141637E+01  0.11041581453E+02  0.32579192008E+02  0.51100000000E-03 0. -1.
        -11    1    3    3    0    0  0.17765610022E+01 -0.11587376739E+01  0.60114765813E-01  0.21218991582E+01  0.51100000000E-03 0.  1.
         12    1    3    3    0    0  0.26115412445E+01 -0.21391338838E+02 -0.11865600975E+02  0.24600853877E+02  0.00000000000E+00 0. -1.
</event>
<event>
 7    1  0.6180395E-013  0.5930199E+02  0.7816164E-02  0.1266605E+00
        -11   -1    0    0    0    0  0.00000000000E+00  0.00000000000E+00  0.45593999997E+02  0.45594000000E+02  0.51100000000E-03 0.  1.
         11   -1    0    0    0    0 -0.00000000000E+00 -0.00000000000E+00 -0.45593999997E+02  0.45594000000E+02  0.51100000000E-03 0. -1.
    9900012    2    1    2    0    0  0.18768477440E+02 -0.18970688908E+02 -0.17452075270E+02  0.59301988736E+02  0.50000081538E+02 0.  0.
        -12    1    1    2    0    0 -0.18768477440E+02  0.18970688908E+02  0.17452075270E+02  0.31886011264E+02  0.00000000000E+00 0.  1.
         11    1    3    3    0    0 -0.59733245808E+00 -0.39035912250E+01 -0.95658066762E+01  0.10348888256E+02  0.51100000000E-03 0. -1.
        -11    1    3    3    0    0 -0.82104416590E+01 -0.12960047673E+02  0.77436920476E+01  0.17185428558E+02  0.51100000000E-03 0.  1.
        -12    1    3    3    0    0  0.27576251557E+02 -0.21070500102E+01 -0.15629960641E+02  0.31767671922E+02  0.00000000000E+00 0.  1.
</event>
<event>
 7    1  0.6180395E-013  0.5930197E+02  0.7816164E-02  0.1266605E+00
        -11   -1    0    0    0    0  0.00000000000E+00  0.00000000000E+00  0.45593999997E+02  0.45594000000E+02  0.51100000000E-03 0. -1.
         11   -1    0    0    0    0 -0.00000000000E+00 -0.00000000000E+00 -0.45593999997E+02  0.45594000000E+02  0.51100000000E-03 0.  1.
    9900012    2    1    2    0    0  0.22815802450E+02 -0.16446082082E+02  0.15022805983E+02  0.59301966115E+02  0.50000040282E+02 0.  0.
        -12    1    1    2    0    0 -0.22815802450E+02  0.16446082082E+02 -0.15022805983E+02  0.31886033885E+02  0.00000000000E+00 0.  1.
         11    1    3    3    0    0  0.16418261978E+02 -0.41623118848E+01  0.22069052955E+02  0.27819548256E+02  0.51100000000E-03 0. -1.
        -11    1    3    3    0    0  0.50866711322E+00 -0.57090509928E+01 -0.17140529429E+02  0.18073454425E+02  0.51100000000E-03 0.  1.
         12    1    3    3    0    0  0.58888733584E+01 -0.65747192045E+01  0.10094282458E+02  0.13408963434E+02  0.00000000000E+00 0. -1.
</event>
<event>
 7    1  0.6180395E-013  0.5930197E+02  0.7816164E-02  0.1266605E+00
        -11   -1    0    0    0    0  0.00000000000E+00  0.00000000000E+00  0.45593999997E+02  0.45594000000E+02  0.51100000000E-03 0. -1.
         11   -1    0    0    0    0 -0.00000000000E+00 -0.00000000000E+00 -0.45593999997E+02  0.45594000000E+02  0.51100000000E-03 0.  1.
    9900012    2    1    2    0    0  0.11418354625E+02 -0.27996826007E+02  0.10125121427E+02  0.59301965867E+02  0.50000039830E+02 0.  0.
        -12    1    1    2    0    0 -0.11418354625E+02  0.27996826007E+02 -0.10125121427E+02  0.31886034133E+02  0.00000000000E+00 0.  1.
         11    1    3    3    0    0 -0.33236116231E+01 -0.30278475306E+02  0.12554417010E+02  0.32946105199E+02  0.51100000000E-03 0. -1.
        -11    1    3    3    0    0  0.17271716882E+02  0.64671225828E+01 -0.69374797492E+01  0.19704428540E+02  0.51100000000E-03 0.  1.
        -12    1    3    3    0    0 -0.25297506339E+01 -0.41854732832E+01  0.45081841665E+01  0.66514321280E+01  0.00000000000E+00 0.  1.
</event>
<event>
 7    1  0.6180395E-013  0.5930195E+02  0.7816164E-02  0.1266605E+00
        -11   -1    0    0    0    0  0.00000000000E+00  0.00000000000E+00  0.45593999997E+02  0.45594000000E+02  0.51100000000E-03 0.  1.
         11   -1    0    0    0    0 -0.00000000000E+00 -0.00000000000E+00 -0.45593999997E+02  0.45594000000E+02  0.51100000000E-03 0. -1.
    9900012    2    1    2    0    0 -0.19272042213E+02 -0.22628295176E+02 -0.11544205503E+02  0.59301952356E+02  0.50000015189E+02 0.  0.
        -12    1    1    2    0    0  0.19272042213E+02  0.22628295176E+02  0.11544205503E+02  0.31886047644E+02  0.00000000000E+00 0.  1.
         11    1    3    3    0    0 -0.24919050006E+02 -0.25361175685E+01 -0.33892728486E+01  0.25276038381E+02  0.51100000000E-03 0. -1.
        -11    1    3    3    0    0  0.10983817266E+02 -0.21113892154E+02  0.50159807031E+00  0.23805299505E+02  0.51100000000E-03 0.  1.
        -12    1    3    3    0    0 -0.53368094730E+01  0.10217145464E+01 -0.86565307251E+01  0.10220614471E+02  0.00000000000E+00 0.  1.
</event>
<event>
 7    1  0.6180395E-013  0.5930193E+02  0.7816164E-02  0.1266605E+00
        -11   -1    0    0    0    0  0.00000000000E+00  0.00000000000E+00  0.45593999997E+02  0.45594000000E+02  0.51100000000E-03 0.  1.
         11   -1    0    0    0    0 -0.00000000000E+00 -0.00000000000E+00 -0.45593999997E+02  0.45594000000E+02  0.51100000000E-03 0. -1.
    9900012    2    1    2    0    0 -0.68690139419E+01  0.19338274035E+02 -0.24404287741E+02  0.59301930074E+02  0.49999974552E+02 0.  0.
        -12    1    1    2    0    0  0.68690139419E+01 -0.19338274035E+02  0.24404287741E+02  0.31886069926E+02  0.00000000000E+00 0.  1.
         11    1    3    3    0    0 -0.14899665947E+02  0.76839370478E+01 -0.11827014491E+02  0.20516364344E+02  0.51100000000E-03 0. -1.
        -11    1    3    3    0    0  0.36978519140E+01 -0.11779438723E+02 -0.74153062891E+01  0.14401946155E+02  0.51100000000E-03 0.  1.
         12    1    3    3    0    0  0.43328000912E+01  0.23433775711E+02 -0.51619669608E+01  0.24383619575E+02  0.00000000000E+00 0. -1.
</event>
<event>
 7    1  0.6180395E-013  0.5930198E+02  0.7816164E-02  0.1266605E+00
        -11   -1    0    0    0    0  0.00000000000E+00  0.00000000000E+00  0.45593999997E+02  0.45594000000E+02  0.51100000000E-03 0. -1.
         11   -1    0    0    0    0 -0.00000000000E+00 -0.00000000000E+00 -0.45593999997E+02  0.45594000000E+02  0.51100000000E-03 0.  1.
    9900012    2    1    2    0    0  0.51270941771E+01 -0.18854945152E+02  0.25197663908E+02  0.59301979273E+02  0.50000064278E+02 0.  0.
        -12    1    1    2    0    0 -0.51270941771E+01  0.18854945152E+02 -0.25197663908E+02  0.31886020727E+02  0.00000000000E+00 0.  1.
         11    1    3    3    0    0 -0.79511679549E+01 -0.99691081313E+01 -0.81577019237E+01  0.15137776908E+02  0.51100000000E-03 0. -1.
        -11    1    3    3    0    0  0.85748681227E+01  0.63388703947E+01  0.22594171630E+02  0.24984119619E+02  0.51100000000E-03 0.  1.
         12    1    3    3    0    0  0.45033940092E+01 -0.15224707416E+02  0.10761194201E+02  0.19180082746E+02  0.00000000000E+00 0. -1.
</event>
<event>
 7    1  0.6180395E-013  0.5930194E+02  0.7816164E-02  0.1266605E+00
        -11   -1    0    0    0    0  0.00000000000E+00  0.00000000000E+00  0.45593999997E+02  0.45594000000E+02  0.51100000000E-03 0.  1.
         11   -1    0    0    0    0 -0.00000000000E+00 -0.00000000000E+00 -0.45593999997E+02  0.45594000000E+02  0.51100000000E-03 0. -1.
    9900012    2    1    2    0    0 -0.94763275306E+01  0.16419732715E+02 -0.25638107071E+02  0.59301938154E+02  0.49999989287E+02 0.  0.
        -12    1    1    2    0    0  0.94763275306E+01 -0.16419732715E+02  0.25638107071E+02  0.31886061846E+02  0.00000000000E+00 0.  1.
         11    1    3    3    0    0 -0.10969934445E+02 -0.87048531262E-01 -0.96543821120E+01  0.14613491486E+02  0.51100000000E-03 0. -1.
        -11    1    3    3    0    0  0.13599480283E+02  0.13594107313E+02 -0.23328817145E+02  0.30232091017E+02  0.51100000000E-03 0.  1.
        -12    1    3    3    0    0 -0.12105873368E+02  0.29126739333E+01  0.73450921868E+01  0.14456355650E+02  0.00000000000E+00 0.  1.
</event>
<event>
 7    1  0.6180395E-013  0.5930196E+02  0.7816164E-02  0.1266605E+00
        -11   -1    0    0    0    0  0.00000000000E+00  0.00000000000E+00  0.45593999997E+02  0.45594000000E+02  0.51100000000E-03 0. -1.
         11   -1    0    0    0    0 -0.00000000000E+00 -0.00000000000E+00 -0.45593999997E+02  0.45594000000E+02  0.51100000000E-03 0.  1.
    9900012    2    1    2    0    0  0.41170188453E+01  0.31617986131E+02 -0.26987557211E+00  0.59301957223E+02  0.50000024064E+02 0.  0.
        -12    1    1    2    0    0 -0.41170188453E+01 -0.31617986131E+02  0.26987557211E+00  0.31886042777E+02  0.00000000000E+00 0.  1.
         11    1    3    3    0    0  0.14297306456E+01  0.39402013656E+02  0.10601707910E+02  0.40828409481E+02  0.51100000000E-03 0.  1.
        -11    1    3    3    0    0  0.70707731496E+01 -0.37680795123E+01 -0.93958821249E+01  0.12348151980E+02  0.51100000000E-03 0. -1.
        -12    1    3    3    0    0 -0.43834849499E+01 -0.40159480126E+01 -0.14757013576E+01  0.61253957621E+01  0.00000000000E+00 0.  1.
</event>
<event>
 7    1  0.6180395E-013  0.5930195E+02  0.7816164E-02  0.1266605E+00
        -11   -1    0    0    0    0  0.00000000000E+00  0.00000000000E+00  0.45593999997E+02  0.45594000000E+02  0.51100000000E-03 0.  1.
         11   -1    0    0    0    0 -0.00000000000E+00 -0.00000000000E+00 -0.45593999997E+02  0.45594000000E+02  0.51100000000E-03 0. -1.
    9900012    2    1    2    0    0 -0.30569682613E+02  0.63844909943E+01  0.64384163576E+01  0.59301946222E+02  0.50000004002E+02 0.  0.
        -12    1    1    2    0    0  0.30569682613E+02 -0.63844909943E+01 -0.64384163576E+01  0.31886053778E+02  0.00000000000E+00 0.  1.
         11    1    3    3    0    0 -0.16218733763E+02 -0.47900680067E+01 -0.94639499597E+01  0.19379329852E+02  0.51100000000E-03 0. -1.
        -11    1    3    3    0    0 -0.32899464943E+01 -0.73713427589E+01  0.16447772840E+02  0.18321835980E+02  0.51100000000E-03 0.  1.
        -12    1    3    3    0    0 -0.11061002356E+02  0.18545901760E+02 -0.54540652306E+00  0.21600780390E+02  0.00000000000E+00 0.  1.
</event>
<event>
 7    1  0.6180395E-013  0.5930194E+02  0.7816164E-02  0.1266605E+00
        -11   -1    0    0    0    0  0.00000000000E+00  0.00000000000E+00  0.45593999997E+02  0.45594000000E+02  0.51100000000E-03 0. -1.
         11   -1    0    0    0    0 -0.00000000000E+00 -0.00000000000E+00 -0.45593999997E+02  0.45594000000E+02  0.51100000000E-03 0.  1.
    9900012    2    1    2    0    0 -0.47756891405E+01 -0.86023617333E+01  0.30330070184E+02  0.59301937347E+02  0.49999987815E+02 0.  0.
        -12    1    1    2    0    0  0.47756891405E+01  0.86023617333E+01 -0.30330070184E+02  0.31886062653E+02  0.00000000000E+00 0.  1.
         11    1    3    3    0    0  0.68578648652E+01 -0.12977784063E+02  0.38134000067E+02  0.40861413963E+02  0.51100000000E-03 0. -1.
        -11    1    3    3    0    0 -0.70323241723E+01  0.71864153536E+01 -0.15341672201E+01  0.10171126694E+02  0.51100000000E-03 0.  1.
         12    1    3    3    0    0 -0.46012298334E+01 -0.28109930242E+01 -0.62697626628E+01  0.82693966896E+01  0.00000000000E+00 0. -1.
</event>
<event>
 7    1  0.6180395E-013  0.5930195E+02  0.7816164E-02  0.1266605E+00
        -11   -1    0    0    0    0  0.00000000000E+00  0.00000000000E+00  0.45593999997E+02  0.45594000000E+02  0.51100000000E-03 0.  1.
         11   -1    0    0    0    0 -0.00000000000E+00 -0.00000000000E+00 -0.45593999997E+02  0.45594000000E+02  0.51100000000E-03 0. -1.
    9900012    2    1    2    0    0  0.10213352216E+02  0.15351618064E+02 -0.26014141317E+02  0.59301948361E+02  0.50000007903E+02 0.  0.
        -12    1    1    2    0    0 -0.10213352216E+02 -0.15351618064E+02  0.26014141317E+02  0.31886051639E+02  0.00000000000E+00 0.  1.
         11    1    3    3    0    0  0.14819981542E+02  0.13126818297E+02 -0.36054043441E+02  0.41131973697E+02  0.51100000000E-03 0. -1.
        -11    1    3    3    0    0 -0.55017481198E+01 -0.28560251461E+01 -0.71668498844E+00  0.62401722446E+01  0.51100000000E-03 0.  1.
         12    1    3    3    0    0  0.89511879394E+00  0.50808249134E+01  0.10756587113E+02  0.11929802420E+02  0.00000000000E+00 0. -1.
</event>
<event>
 7    1  0.6180395E-013  0.5930195E+02  0.7816164E-02  0.1266605E+00
        -11   -1    0    0    0    0  0.00000000000E+00  0.00000000000E+00  0.45593999997E+02  0.45594000000E+02  0.51100000000E-03 0. -1.
         11   -1    0    0    0    0 -0.00000000000E+00 -0.00000000000E+00 -0.45593999997E+02  0.45594000000E+02  0.51100000000E-03 0.  1.
    9900012    2    1    2    0    0 -0.58015890639E+01  0.15208142245E+01  0.31316913459E+02  0.59301946933E+02  0.50000005299E+02 0.  0.
        -12    1    1    2    0    0  0.58015890639E+01 -0.15208142245E+01 -0.31316913459E+02  0.31886053067E+02  0.00000000000E+00 0.  1.
         11    1    3    3    0    0  0.98033037867E+01  0.13282074842E+02  0.27480499876E+02  0.32057700338E+02  0.51100000000E-03 0. -1.
        -11    1    3    3    0    0 -0.13717681891E+02 -0.16053577206E+02  0.61805281235E+01  0.22002069578E+02  0.51100000000E-03 0.  1.
        -12    1    3    3    0    0 -0.18872109595E+01  0.42923165886E+01 -0.23441145405E+01  0.52421770174E+01  0.00000000000E+00 0.  1.
</event>
<event>
 7    1  0.6180395E-013  0.5930194E+02  0.7816164E-02  0.1266605E+00
        -11   -1    0    0    0    0  0.00000000000E+00  0.00000000000E+00  0.45593999997E+02  0.45594000000E+02  0.51100000000E-03 0. -1.
         11   -1    0    0    0    0 -0.00000000000E+00 -0.00000000000E+00 -0.45593999997E+02  0.45594000000E+02  0.51100000000E-03 0.  1.
    9900012    2    1    2    0    0 -0.38141537615E+01 -0.31467428725E+02  0.34603233535E+01  0.59301942276E+02  0.49999996805E+02 0.  0.
        -12    1    1    2    0    0  0.38141537615E+01  0.31467428725E+02 -0.34603233535E+01  0.31886057724E+02  0.00000000000E+00 0.  1.
         11    1    3    3    0    0 -0.15658497334E+02 -0.27934373571E+02  0.11911238766E+02  0.34167168082E+02  0.51100000000E-03 0. -1.
        -11    1    3    3    0    0  0.65894608837E+01  0.25756098327E+01 -0.13768892043E+02  0.15480217993E+02  0.51100000000E-03 0.  1.
         12    1    3    3    0    0  0.52548826884E+01 -0.61086649871E+01  0.53179766310E+01  0.96545562011E+01  0.00000000000E+00 0. -1.
</event>
<event>
 7    1  0.6180395E-013  0.5930195E+02  0.7816164E-02  0.1266605E+00
        -11   -1    0    0    0    0  0.00000000000E+00  0.00000000000E+00  0.45593999997E+02  0.45594000000E+02  0.51100000000E-03 0. -1.
         11   -1    0    0    0    0 -0.00000000000E+00 -0.00000000000E+00 -0.45593999997E+02  0.45594000000E+02  0.51100000000E-03 0.  1.
    9900012    2    1    2    0    0 -0.72841628455E+01 -0.23927414714E+02  0.19777255630E+02  0.59301952213E+02  0.50000014928E+02 0.  0.
        -12    1    1    2    0    0  0.72841628455E+01  0.23927414714E+02 -0.19777255630E+02  0.31886047787E+02  0.00000000000E+00 0.  1.
         11    1    3    3    0    0  0.12828405674E+02 -0.22897969187E+02  0.41130026746E+01  0.26566930125E+02  0.51100000000E-03 0. -1.
        -11    1    3    3    0    0 -0.17582211305E+02  0.26583443242E+01  0.19821545067E+02  0.26628830204E+02  0.51100000000E-03 0.  1.
        -12    1    3    3    0    0 -0.25303572146E+01 -0.36877898511E+01 -0.41572921119E+01  0.61061918839E+01  0.00000000000E+00 0.  1.
</event>
<event>
 7    1  0.6180395E-013  0.5930194E+02  0.7816164E-02  0.1266605E+00
        -11   -1    0    0    0    0  0.00000000000E+00  0.00000000000E+00  0.45593999997E+02  0.45594000000E+02  0.51100000000E-03 0. -1.
         11   -1    0    0    0    0 -0.00000000000E+00 -0.00000000000E+00 -0.45593999997E+02  0.45594000000E+02  0.51100000000E-03 0.  1.
    9900012    2    1    2    0    0  0.30483367435E+02  0.80412346275E+01  0.47774078712E+01  0.59301940813E+02  0.49999994137E+02 0.  0.
        -12    1    1    2    0    0 -0.30483367435E+02 -0.80412346275E+01 -0.47774078712E+01  0.31886059187E+02  0.00000000000E+00 0.  1.
         11    1    3    3    0    0  0.35310196810E+01 -0.18297047201E+01  0.11389331131E+02  0.12063696913E+02  0.51100000000E-03 0. -1.
        -11    1    3    3    0    0  0.82918993899E+00  0.64052709696E+01 -0.17554209470E+02  0.18704687181E+02  0.51100000000E-03 0.  1.
        -12    1    3    3    0    0  0.26123157815E+02  0.34656683780E+01  0.10942286210E+02  0.28533556719E+02  0.00000000000E+00 0.  1.
</event>
<event>
 7    1  0.6180395E-013  0.5930197E+02  0.7816164E-02  0.1266605E+00
        -11   -1    0    0    0    0  0.00000000000E+00  0.00000000000E+00  0.45593999997E+02  0.45594000000E+02  0.51100000000E-03 0.  1.
         11   -1    0    0    0    0 -0.00000000000E+00 -0.00000000000E+00 -0.45593999997E+02  0.45594000000E+02  0.51100000000E-03 0. -1.
    9900012    2    1    2    0    0 -0.41147379944E+01  0.22675734266E+02 -0.22036310128E+02  0.59301969245E+02  0.50000045990E+02 0.  0.
        -12    1    1    2    0    0  0.41147379944E+01 -0.22675734266E+02  0.22036310128E+02  0.31886030755E+02  0.00000000000E+00 0.  1.
         11    1    3    3    0    0 -0.23429633320E+01 -0.75201821205E+01 -0.63781530440E+01  0.10135257906E+02  0.51100000000E-03 0. -1.
        -11    1    3    3    0    0 -0.81792942902E+01  0.27490844622E+02  0.33966452315E+01  0.28882253932E+02  0.51100000000E-03 0.  1.
        -12    1    3    3    0    0  0.64075196278E+01  0.27050717645E+01 -0.19054802315E+02  0.20284457407E+02  0.00000000000E+00 0.  1.
</event>
<event>
 7    1  0.6180395E-013  0.5930194E+02  0.7816164E-02  0.1266605E+00
        -11   -1    0    0    0    0  0.00000000000E+00  0.00000000000E+00  0.45593999997E+02  0.45594000000E+02  0.51100000000E-03 0. -1.
         11   -1    0    0    0    0 -0.00000000000E+00 -0.00000000000E+00 -0.45593999997E+02  0.45594000000E+02  0.51100000000E-03 0.  1.
    9900012    2    1    2    0    0 -0.24576942126E+02 -0.20281142719E+02 -0.11705493577E+01  0.59301936899E+02  0.49999987000E+02 0.  0.
        -12    1    1    2    0    0  0.24576942126E+02  0.20281142719E+02  0.11705493577E+01  0.31886063101E+02  0.00000000000E+00 0.  1.
         11    1    3    3    0    0 -0.16000409578E+02  0.80311720555E+01  0.13491121260E+02  0.22417028893E+02  0.51100000000E-03 0. -1.
        -11    1    3    3    0    0  0.42825322775E+01 -0.10631976605E+02 -0.81821410602E+01  0.14082842108E+02  0.51100000000E-03 0.  1.
         12    1    3    3    0    0 -0.12859064825E+02 -0.17680338170E+02 -0.64795295580E+01  0.22802065899E+02  0.00000000000E+00 0. -1.
</event>
<event>
 7    1  0.6180395E-013  0.5930194E+02  0.7816164E-02  0.1266605E+00
        -11   -1    0    0    0    0  0.00000000000E+00  0.00000000000E+00  0.45593999997E+02  0.45594000000E+02  0.51100000000E-03 0. -1.
         11   -1    0    0    0    0 -0.00000000000E+00 -0.00000000000E+00 -0.45593999997E+02  0.45594000000E+02  0.51100000000E-03 0.  1.
    9900012    2    1    2    0    0  0.16377716050E+01 -0.21788469135E+01  0.31769340457E+02  0.59301942502E+02  0.49999997217E+02 0.  0.
        -12    1    1    2    0    0 -0.16377716050E+01  0.21788469135E+01 -0.31769340457E+02  0.31886057498E+02  0.00000000000E+00 0.  1.
         11    1    3    3    0    0  0.56598813396E+01  0.83200290539E+00  0.38006721410E+02  0.38434845625E+02  0.51100000000E-03 0. -1.
        -11    1    3    3    0    0 -0.87545796080E+01 -0.88038983795E+01 -0.34738953802E+01  0.12892604088E+02  0.51100000000E-03 0.  1.
        -12    1    3    3    0    0  0.47324698735E+01  0.57930485606E+01 -0.27634855730E+01  0.79744927889E+01  0.00000000000E+00 0.  1.
</event>
<event>
 7    1  0.6180395E-013  0.5930193E+02  0.7816164E-02  0.1266605E+00
        -11   -1    0    0    0    0  0.00000000000E+00  0.00000000000E+00  0.45593999997E+02  0.45594000000E+02  0.51100000000E-03 0. -1.
         11   -1    0    0    0    0 -0.00000000000E+00 -0.00000000000E+00 -0.45593999997E+02  0.45594000000E+02  0.51100000000E-03 0.  1.
    9900012    2    1    2    0    0  0.21663449686E+02 -0.76996809435E+00  0.23384253278E+02  0.59301934007E+02  0.49999981724E+02 0.  0.
        -12    1    1    2    0    0 -0.21663449686E+02  0.76996809435E+00 -0.23384253278E+02  0.31886065993E+02  0.00000000000E+00 0.  1.
         11    1    3    3    0    0 -0.94688724557E+01  0.60233325101E+01  0.86083100399E+01  0.14143658724E+02  0.51100000000E-03 0. -1.
        -11    1    3    3    0    0  0.26492989357E+02 -0.26464703066E+01 -0.25520696616E+01  0.26746875518E+02  0.51100000000E-03 0.  1.
         12    1    3    3    0    0  0.46393327841E+01 -0.41468302979E+01  0.17328012900E+02  0.18411399764E+02  0.00000000000E+00 0. -1.
</event>
<event>
 7    1  0.6180395E-013  0.5930194E+02  0.7816164E-02  0.1266605E+00
        -11   -1    0    0    0    0  0.00000000000E+00  0.00000000000E+00  0.45593999997E+02  0.45594000000E+02  0.51100000000E-03 0. -1.
         11   -1    0    0    0    0 -0.00000000000E+00 -0.00000000000E+00 -0.45593999997E+02  0.45594000000E+02  0.51100000000E-03 0.  1.
    9900012    2    1    2    0    0 -0.24869556261E+02 -0.50499307824E+01  0.19306064128E+02  0.59301941265E+02  0.49999994962E+02 0.  0.
        -12    1    1    2    0    0  0.24869556261E+02  0.50499307824E+01 -0.19306064128E+02  0.31886058735E+02  0.00000000000E+00 0.  1.
         11    1    3    3    0    0 -0.17268455393E+02 -0.16086678010E+02  0.17190902703E+02  0.29197737876E+02  0.51100000000E-03 0. -1.
        -11    1    3    3    0    0  0.66873132608E+01 -0.51007310455E+01  0.14869851978E+01  0.85410035175E+01  0.51100000000E-03 0.  1.
         12    1    3    3    0    0 -0.14288414129E+02  0.16137478273E+02  0.62817622708E+00  0.21563199872E+02  0.00000000000E+00 0. -1.
</event>
<event>
 7    1  0.6180395E-013  0.5930194E+02  0.7816164E-02  0.1266605E+00
        -11   -1    0    0    0    0  0.00000000000E+00  0.00000000000E+00  0.45593999997E+02  0.45594000000E+02  0.51100000000E-03 0. -1.
         11   -1    0    0    0    0 -0.00000000000E+00 -0.00000000000E+00 -0.45593999997E+02  0.45594000000E+02  0.51100000000E-03 0.  1.
    9900012    2    1    2    0    0  0.24364449088E+02  0.10306474195E+02  0.17800872914E+02  0.59301939312E+02  0.49999991400E+02 0.  0.
        -12    1    1    2    0    0 -0.24364449088E+02 -0.10306474195E+02 -0.17800872914E+02  0.31886060688E+02  0.00000000000E+00 0.  1.
         11    1    3    3    0    0  0.29276791019E+02  0.17422047067E+02  0.10590724610E+02  0.35676626304E+02  0.51100000000E-03 0. -1.
        -11    1    3    3    0    0 -0.85656740651E+00 -0.10315799621E+01 -0.72759370474E+01  0.73984542385E+01  0.51100000000E-03 0.  1.
         12    1    3    3    0    0 -0.40557745245E+01 -0.60839929102E+01  0.14486085351E+02  0.16226858769E+02  0.00000000000E+00 0. -1.
</event>
<event>
 7    1  0.6180395E-013  0.5930195E+02  0.7816164E-02  0.1266605E+00
        -11   -1    0    0    0    0  0.00000000000E+00  0.00000000000E+00  0.45593999997E+02  0.45594000000E+02  0.51100000000E-03 0.  1.
         11   -1    0    0    0    0 -0.00000000000E+00 -0.00000000000E+00 -0.45593999997E+02  0.45594000000E+02  0.51100000000E-03 0. -1.
    9900012    2    1    2    0    0 -0.33138518754E+01 -0.30401609948E+02  0.90266681257E+01  0.59301949145E+02  0.50000009332E+02 0.  0.
        -12    1    1    2    0    0  0.33138518754E+01  0.30401609948E+02 -0.90266681257E+01  0.31886050855E+02  0.00000000000E+00 0.  1.
         11    1    3    3    0    0 -0.16804968213E+02  0.24560508467E+01 -0.24409750472E+01  0.17158015673E+02  0.51100000000E-03 0. -1.
        -11    1    3    3    0    0  0.78143318303E+01 -0.17107024052E+02 -0.41370543083E+01  0.19256927909E+02  0.51100000000E-03 0.  1.
         12    1    3    3    0    0  0.56767845070E+01 -0.15750636743E+02  0.15604697481E+02  0.22887005563E+02  0.00000000000E+00 0. -1.
</event>
<event>
 7    1  0.6180395E-013  0.5930195E+02  0.7816164E-02  0.1266605E+00
        -11   -1    0    0    0    0  0.00000000000E+00  0.00000000000E+00  0.45593999997E+02  0.45594000000E+02  0.51100000000E-03 0.  1.
         11   -1    0    0    0    0 -0.00000000000E+00 -0.00000000000E+00 -0.45593999997E+02  0.45594000000E+02  0.51100000000E-03 0. -1.
    9900012    2    1    2    0    0 -0.12807606439E+02  0.24782714392E+02  0.15443520825E+02  0.59301952098E+02  0.50000014718E+02 0.  0.
        -12    1    1    2    0    0  0.12807606439E+02 -0.24782714392E+02 -0.15443520825E+02  0.31886047902E+02  0.00000000000E+00 0.  1.
         11    1    3    3    0    0 -0.66309717380E+01 -0.51920611594E+01 -0.13480509010E+02  0.15895012070E+02  0.51100000000E-03 0. -1.
        -11    1    3    3    0    0  0.12481782847E+01  0.11200708776E+02  0.56838115868E+01  0.12622184460E+02  0.51100000000E-03 0.  1.
         12    1    3    3    0    0 -0.74248129853E+01  0.18774066775E+02  0.23240218248E+02  0.30784755568E+02  0.00000000000E+00 0. -1.
</event>
<event>
 7    1  0.6180395E-013  0.5930195E+02  0.7816164E-02  0.1266605E+00
        -11   -1    0    0    0    0  0.00000000000E+00  0.00000000000E+00  0.45593999997E+02  0.45594000000E+02  0.51100000000E-03 0.  1.
         11   -1    0    0    0    0 -0.00000000000E+00 -0.00000000000E+00 -0.45593999997E+02  0.45594000000E+02  0.51100000000E-03 0. -1.
    9900012    2    1    2    0    0 -0.26777930181E+02  0.16444036114E+02  0.54088922234E+01  0.59301953152E+02  0.50000016641E+02 0.  0.
        -12    1    1    2    0    0  0.26777930181E+02 -0.16444036114E+02 -0.54088922234E+01  0.31886046848E+02  0.00000000000E+00 0.  1.
         11    1    3    3    0    0 -0.19757689801E+02  0.42503314955E+01 -0.15962140419E+02  0.25753088185E+02  0.51100000000E-03 0. -1.
        -11    1    3    3    0    0  0.39507951315E+01 -0.44243567134E+01  0.44040469293E+01  0.73877834372E+01  0.51100000000E-03 0.  1.
         12    1    3    3    0    0 -0.10971035512E+02  0.16618061332E+02  0.16966985713E+02  0.26161081530E+02  0.00000000000E+00 0. -1.
</event>
<event>
 7    1  0.6180395E-013  0.5930187E+02  0.7816164E-02  0.1266605E+00
        -11   -1    0    0    0    0  0.00000000000E+00  0.00000000000E+00  0.45593999997E+02  0.45594000000E+02  0.51100000000E-03 0.  1.
         11   -1    0    0    0    0 -0.00000000000E+00 -0.00000000000E+00 -0.45593999997E+02  0.45594000000E+02  0.51100000000E-03 0. -1.
    9900012    2    1    2    0    0 -0.12552153851E+02 -0.21631550047E+02 -0.19779903373E+02  0.59301872904E+02  0.49999870287E+02 0.  0.
        -12    1    1    2    0    0  0.12552153851E+02  0.21631550047E+02  0.19779903373E+02  0.31886127096E+02  0.00000000000E+00 0.  1.
         11    1    3    3    0    0  0.71518366212E+01 -0.60722949582E+01 -0.62368193244E+01  0.11265853215E+02  0.51100000000E-03 0. -1.
        -11    1    3    3    0    0 -0.90759111786E+01  0.10522272128E+02 -0.14195517753E+02  0.19864619277E+02  0.51100000000E-03 0.  1.
        -12    1    3    3    0    0 -0.10628079293E+02 -0.26081527217E+02  0.65243370455E+00  0.28171400412E+02  0.00000000000E+00 0.  1.
</event>
<event>
 7    1  0.6180395E-013  0.5930192E+02  0.7816164E-02  0.1266605E+00
        -11   -1    0    0    0    0  0.00000000000E+00  0.00000000000E+00  0.45593999997E+02  0.45594000000E+02  0.51100000000E-03 0.  1.
         11   -1    0    0    0    0 -0.00000000000E+00 -0.00000000000E+00 -0.45593999997E+02  0.45594000000E+02  0.51100000000E-03 0. -1.
    9900012    2    1    2    0    0 -0.21956863429E+01  0.26615271165E+02 -0.17422060688E+02  0.59301923159E+02  0.49999961940E+02 0.  0.
        -12    1    1    2    0    0  0.21956863429E+01 -0.26615271165E+02  0.17422060688E+02  0.31886076841E+02  0.00000000000E+00 0.  1.
         11    1    3    3    0    0  0.10979073725E+01  0.15823763247E+02 -0.12635610060E+02  0.20279436031E+02  0.51100000000E-03 0. -1.
        -11    1    3    3    0    0  0.66761486835E+00  0.14798008480E+01  0.15905792494E+02  0.15988425666E+02  0.51100000000E-03 0.  1.
        -12    1    3    3    0    0 -0.39612085838E+01  0.93117070703E+01 -0.20692243122E+02  0.23034061462E+02  0.00000000000E+00 0.  1.
</event>
<event>
 7    1  0.6180395E-013  0.5930195E+02  0.7816164E-02  0.1266605E+00
        -11   -1    0    0    0    0  0.00000000000E+00  0.00000000000E+00  0.45593999997E+02  0.45594000000E+02  0.51100000000E-03 0.  1.
         11   -1    0    0    0    0 -0.00000000000E+00 -0.00000000000E+00 -0.45593999997E+02  0.45594000000E+02  0.51100000000E-03 0. -1.
    9900012    2    1    2    0    0  0.30063753769E+00 -0.22428687559E+02 -0.22662393690E+02  0.59301945112E+02  0.50000001978E+02 0.  0.
        -12    1    1    2    0    0 -0.30063753769E+00  0.22428687559E+02  0.22662393690E+02  0.31886054888E+02  0.00000000000E+00 0.  1.
         11    1    3    3    0    0  0.85686643397E+01 -0.14711166814E+02 -0.11492961555E+02  0.20540900738E+02  0.51100000000E-03 0. -1.
        -11    1    3    3    0    0 -0.17112330658E+02  0.25203453885E+01 -0.16794759842E+02  0.24109084591E+02  0.51100000000E-03 0.  1.
        -12    1    3    3    0    0  0.88443038559E+01 -0.10237866134E+02  0.56253277064E+01  0.14651959783E+02  0.00000000000E+00 0.  1.
</event>
<event>
 7    1  0.6180395E-013  0.5930197E+02  0.7816164E-02  0.1266605E+00
        -11   -1    0    0    0    0  0.00000000000E+00  0.00000000000E+00  0.45593999997E+02  0.45594000000E+02  0.51100000000E-03 0.  1.
         11   -1    0    0    0    0 -0.00000000000E+00 -0.00000000000E+00 -0.45593999997E+02  0.45594000000E+02  0.51100000000E-03 0. -1.
    9900012    2    1    2    0    0  0.19600942784E+02 -0.20419964105E+02 -0.14681527406E+02  0.59301966395E+02  0.50000040793E+02 0.  0.
        -12    1    1    2    0    0 -0.19600942784E+02  0.20419964105E+02  0.14681527406E+02  0.31886033605E+02  0.00000000000E+00 0.  1.
         11    1    3    3    0    0  0.24994545331E+02 -0.99131537271E+01 -0.27000812445E+02  0.38105666063E+02  0.51100000000E-03 0. -1.
        -11    1    3    3    0    0 -0.25618666160E+01  0.14690954819E+01  0.73565286607E+01  0.79271631931E+01  0.51100000000E-03 0.  1.
         12    1    3    3    0    0 -0.28317359317E+01 -0.11975905860E+02  0.49627563781E+01  0.13269137140E+02  0.00000000000E+00 0. -1.
</event>
<event>
 7    1  0.6180395E-013  0.5930191E+02  0.7816164E-02  0.1266605E+00
        -11   -1    0    0    0    0  0.00000000000E+00  0.00000000000E+00  0.45593999997E+02  0.45594000000E+02  0.51100000000E-03 0.  1.
         11   -1    0    0    0    0 -0.00000000000E+00 -0.00000000000E+00 -0.45593999997E+02  0.45594000000E+02  0.51100000000E-03 0. -1.
    9900012    2    1    2    0    0  0.14015484753E+02  0.28232519377E+02  0.48180497552E+01  0.59301912647E+02  0.49999942769E+02 0.  0.
        -12    1    1    2    0    0 -0.14015484753E+02 -0.28232519377E+02 -0.48180497552E+01  0.31886087353E+02  0.00000000000E+00 0.  1.
         11    1    3    3    0    0  0.18982399677E+02  0.34668688148E+02  0.17649835791E+02  0.43287020446E+02  0.51100000000E-03 0.  1.
        -11    1    3    3    0    0 -0.55752157566E+01 -0.62288380230E+01 -0.96430894133E+01  0.12762077713E+02  0.51100000000E-03 0. -1.
        -12    1    3    3    0    0  0.60830083249E+00 -0.20733074768E+00 -0.31886966227E+01  0.32528144880E+01  0.00000000000E+00 0.  1.
</event>
<event>
 7    1  0.6180395E-013  0.5930197E+02  0.7816164E-02  0.1266605E+00
        -11   -1    0    0    0    0  0.00000000000E+00  0.00000000000E+00  0.45593999997E+02  0.45594000000E+02  0.51100000000E-03 0. -1.
         11   -1    0    0    0    0 -0.00000000000E+00 -0.00000000000E+00 -0.45593999997E+02  0.45594000000E+02  0.51100000000E-03 0.  1.
    9900012    2    1    2    0    0  0.51524735328E+01 -0.16165283793E+02  0.26997300200E+02  0.59301974821E+02  0.50000056159E+02 0.  0.
        -12    1    1    2    0    0 -0.51524735328E+01  0.16165283793E+02 -0.26997300200E+02  0.31886025179E+02  0.00000000000E+00 0.  1.
         11    1    3    3    0    0  0.54876027152E+01  0.85732584223E+01  0.18586938053E+02  0.21191715597E+02  0.51100000000E-03 0. -1.
        -11    1    3    3    0    0  0.35871782372E+01 -0.22044229764E+02 -0.58410798354E+01  0.23085366090E+02  0.51100000000E-03 0.  1.
        -12    1    3    3    0    0 -0.39223074196E+01 -0.26943124514E+01  0.14251441983E+02  0.15024893134E+02  0.00000000000E+00 0.  1.
</event>
<event>
 7    1  0.6180395E-013  0.5930195E+02  0.7816164E-02  0.1266605E+00
        -11   -1    0    0    0    0  0.00000000000E+00  0.00000000000E+00  0.45593999997E+02  0.45594000000E+02  0.51100000000E-03 0.  1.
         11   -1    0    0    0    0 -0.00000000000E+00 -0.00000000000E+00 -0.45593999997E+02  0.45594000000E+02  0.51100000000E-03 0. -1.
    9900012    2    1    2    0    0  0.21288313917E+02  0.22043098549E+02 -0.88107571178E+01  0.59301953772E+02  0.50000017772E+02 0.  0.
        -12    1    1    2    0    0 -0.21288313917E+02 -0.22043098549E+02  0.88107571178E+01  0.31886046228E+02  0.00000000000E+00 0.  1.
         11    1    3    3    0    0  0.23893898634E+02 -0.95261483454E+00 -0.27790987098E+01  0.24073829294E+02  0.51100000000E-03 0. -1.
        -11    1    3    3    0    0 -0.26863628613E+01  0.25824748466E+02 -0.12014883078E+02  0.28609292099E+02  0.51100000000E-03 0.  1.
        -12    1    3    3    0    0  0.80778143613E-01 -0.28290350826E+01  0.59832246704E+01  0.66188323792E+01  0.00000000000E+00 0.  1.
</event>
<event>
 7    1  0.6180395E-013  0.5930195E+02  0.7816164E-02  0.1266605E+00
        -11   -1    0    0    0    0  0.00000000000E+00  0.00000000000E+00  0.45593999997E+02  0.45594000000E+02  0.51100000000E-03 0.  1.
         11   -1    0    0    0    0 -0.00000000000E+00 -0.00000000000E+00 -0.45593999997E+02  0.45594000000E+02  0.51100000000E-03 0. -1.
    9900012    2    1    2    0    0 -0.24026953807E+02 -0.33933027964E+00 -0.20959741926E+02  0.59301946060E+02  0.50000003706E+02 0.  0.
        -12    1    1    2    0    0  0.24026953807E+02  0.33933027964E+00  0.20959741926E+02  0.31886053940E+02  0.00000000000E+00 0.  1.
         11    1    3    3    0    0 -0.30803481039E+02  0.60895218974E+01 -0.17857309841E+02  0.36122295554E+02  0.51100000000E-03 0. -1.
        -11    1    3    3    0    0  0.78328403237E+01  0.62133775940E+01  0.44133563999E+00  0.10007708333E+02  0.51100000000E-03 0.  1.
         12    1    3    3    0    0 -0.10563130914E+01 -0.12642229771E+02 -0.35437677241E+01  0.13171942173E+02  0.00000000000E+00 0. -1.
</event>
<event>
 7    1  0.6180395E-013  0.5930194E+02  0.7816164E-02  0.1266605E+00
        -11   -1    0    0    0    0  0.00000000000E+00  0.00000000000E+00  0.45593999997E+02  0.45594000000E+02  0.51100000000E-03 0.  1.
         11   -1    0    0    0    0 -0.00000000000E+00 -0.00000000000E+00 -0.45593999997E+02  0.45594000000E+02  0.51100000000E-03 0. -1.
    9900012    2    1    2    0    0  0.18413732133E+02 -0.14865986408E+02 -0.21369547510E+02  0.59301942801E+02  0.49999997762E+02 0.  0.
        -12    1    1    2    0    0 -0.18413732133E+02  0.14865986408E+02  0.21369547510E+02  0.31886057199E+02  0.00000000000E+00 0.  1.
         11    1    3    3    0    0 -0.11839214073E+01  0.35967916212E+01 -0.14143865335E+02  0.14641977555E+02  0.51100000000E-03 0. -1.
        -11    1    3    3    0    0  0.26085769650E+01 -0.24354255049E+02 -0.10017549482E+02  0.26462911983E+02  0.51100000000E-03 0.  1.
        -12    1    3    3    0    0  0.16989076575E+02  0.58914770198E+01  0.27918673067E+01  0.18197053262E+02  0.00000000000E+00 0.  1.
</event>
<event>
 7    1  0.6180395E-013  0.5930193E+02  0.7816164E-02  0.1266605E+00
        -11   -1    0    0    0    0  0.00000000000E+00  0.00000000000E+00  0.45593999997E+02  0.45594000000E+02  0.51100000000E-03 0.  1.
         11   -1    0    0    0    0 -0.00000000000E+00 -0.00000000000E+00 -0.45593999997E+02  0.45594000000E+02  0.51100000000E-03 0. -1.
    9900012    2    1    2    0    0  0.15391857104E+02 -0.24834861195E+01 -0.27814464067E+02  0.59301931259E+02  0.49999976714E+02 0.  0.
        -12    1    1    2    0    0 -0.15391857104E+02  0.24834861195E+01  0.27814464067E+02  0.31886068741E+02  0.00000000000E+00 0.  1.
         11    1    3    3    0    0 -0.12248396793E+02 -0.70654281186E+01  0.41294430747E+01  0.14730777266E+02  0.51100000000E-03 0. -1.
        -11    1    3    3    0    0  0.19569491410E+02  0.34058419631E+00 -0.12854525277E+02  0.23416229670E+02  0.51100000000E-03 0.  1.
         12    1    3    3    0    0  0.80707624868E+01  0.42413578028E+01 -0.19089381865E+02  0.21154924323E+02  0.00000000000E+00 0. -1.
</event>
<event>
 7    1  0.6180395E-013  0.5930189E+02  0.7816164E-02  0.1266605E+00
        -11   -1    0    0    0    0  0.00000000000E+00  0.00000000000E+00  0.45593999997E+02  0.45594000000E+02  0.51100000000E-03 0. -1.
         11   -1    0    0    0    0 -0.00000000000E+00 -0.00000000000E+00 -0.45593999997E+02  0.45594000000E+02  0.51100000000E-03 0.  1.
    9900012    2    1    2    0    0  0.27125461444E+02  0.11920953032E+02  0.11782372662E+02  0.59301888834E+02  0.49999899340E+02 0.  0.
        -12    1    1    2    0    0 -0.27125461444E+02 -0.11920953032E+02 -0.11782372662E+02  0.31886111166E+02  0.00000000000E+00 0.  1.
         11    1    3    3    0    0  0.77754641289E+01  0.13447752967E+01 -0.13120282829E+02  0.15310391399E+02  0.51100000000E-03 0.  1.
        -11    1    3    3    0    0  0.11797114292E+02 -0.77745147106E+01  0.18211852518E+02  0.23049654163E+02  0.51100000000E-03 0. -1.
        -12    1    3    3    0    0  0.75528830230E+01  0.18350692446E+02  0.66908029725E+01  0.20941843272E+02  0.00000000000E+00 0.  1.
</event>
<event>
 7    1  0.6180395E-013  0.5930195E+02  0.7816164E-02  0.1266605E+00
        -11   -1    0    0    0    0  0.00000000000E+00  0.00000000000E+00  0.45593999997E+02  0.45594000000E+02  0.51100000000E-03 0.  1.
         11   -1    0    0    0    0 -0.00000000000E+00 -0.00000000000E+00 -0.45593999997E+02  0.45594000000E+02  0.51100000000E-03 0. -1.
    9900012    2    1    2    0    0  0.29976344290E+02  0.88998101393E+01  0.62395870408E+01  0.59301948442E+02  0.50000008051E+02 0.  0.
        -12    1    1    2    0    0 -0.29976344290E+02 -0.88998101393E+01 -0.62395870408E+01  0.31886051558E+02  0.00000000000E+00 0.  1.
         11    1    3    3    0    0  0.26876282988E+01 -0.60247381462E+01  0.80442764292E+01  0.10403422472E+02  0.51100000000E-03 0. -1.
        -11    1    3    3    0    0  0.12237912857E+02  0.22677317150E+02 -0.12737723814E+02  0.28745031440E+02  0.51100000000E-03 0.  1.
        -12    1    3    3    0    0  0.15050803134E+02 -0.77527688646E+01  0.10933034426E+02  0.20153494531E+02  0.00000000000E+00 0.  1.
</event>
<event>
 7    1  0.6180395E-013  0.5930195E+02  0.7816164E-02  0.1266605E+00
        -11   -1    0    0    0    0  0.00000000000E+00  0.00000000000E+00  0.45593999997E+02  0.45594000000E+02  0.51100000000E-03 0. -1.
         11   -1    0    0    0    0 -0.00000000000E+00 -0.00000000000E+00 -0.45593999997E+02  0.45594000000E+02  0.51100000000E-03 0.  1.
    9900012    2    1    2    0    0 -0.14798950383E+02  0.26498714114E+02  0.97739082688E+01  0.59301951876E+02  0.50000014313E+02 0.  0.
        -12    1    1    2    0    0  0.14798950383E+02 -0.26498714114E+02 -0.97739082688E+01  0.31886048124E+02  0.00000000000E+00 0.  1.
         11    1    3    3    0    0 -0.26206263718E+02  0.14462637012E+02  0.72037108537E+01  0.30786840983E+02  0.51100000000E-03 0. -1.
        -11    1    3    3    0    0  0.40664739253E+00  0.57549636581E+01 -0.94372254629E+01  0.11061021359E+02  0.51100000000E-03 0.  1.
         12    1    3    3    0    0  0.11000665942E+02  0.62811134438E+01  0.12007422878E+02  0.17454089533E+02  0.00000000000E+00 0. -1.
</event>
<event>
 7    1  0.6180395E-013  0.5930195E+02  0.7816164E-02  0.1266605E+00
        -11   -1    0    0    0    0  0.00000000000E+00  0.00000000000E+00  0.45593999997E+02  0.45594000000E+02  0.51100000000E-03 0. -1.
         11   -1    0    0    0    0 -0.00000000000E+00 -0.00000000000E+00 -0.45593999997E+02  0.45594000000E+02  0.51100000000E-03 0.  1.
    9900012    2    1    2    0    0  0.19218034519E+02  0.25237732588E+02 -0.32317464949E+01  0.59301950035E+02  0.50000010956E+02 0.  0.
        -12    1    1    2    0    0 -0.19218034519E+02 -0.25237732588E+02  0.32317464949E+01  0.31886049965E+02  0.00000000000E+00 0.  1.
         11    1    3    3    0    0  0.16892735715E+02 -0.21653571919E+01  0.84714332211E+01  0.19021526563E+02  0.51100000000E-03 0. -1.
        -11    1    3    3    0    0 -0.28959568359E+01  0.18496904378E+01 -0.13698427684E+02  0.14122848225E+02  0.51100000000E-03 0.  1.
         12    1    3    3    0    0  0.52212556395E+01  0.25553399342E+02  0.19952479675E+01  0.26157575248E+02  0.00000000000E+00 0. -1.
</event>
<event>
 7    1  0.6180395E-013  0.5930196E+02  0.7816164E-02  0.1266605E+00
        -11   -1    0    0    0    0  0.00000000000E+00  0.00000000000E+00  0.45593999997E+02  0.45594000000E+02  0.51100000000E-03 0. -1.
         11   -1    0    0    0    0 -0.00000000000E+00 -0.00000000000E+00 -0.45593999997E+02  0.45594000000E+02  0.51100000000E-03 0.  1.
    9900012    2    1    2    0    0  0.39874497874E+01 -0.30052924047E+02  0.98813580889E+01  0.59301964855E+02  0.50000037984E+02 0.  0.
        -12    1    1    2    0    0 -0.39874497874E+01  0.30052924047E+02 -0.98813580889E+01  0.31886035145E+02  0.00000000000E+00 0.  1.
         11    1    3    3    0    0  0.71098274613E+01 -0.27009763587E+02  0.16652958805E+02  0.32517656939E+02  0.51100000000E-03 0. -1.
        -11    1    3    3    0    0 -0.96067779314E+01 -0.60736715144E+01 -0.13020075544E+02  0.17282998447E+02  0.51100000000E-03 0.  1.
        -12    1    3    3    0    0  0.64844002576E+01  0.30305110545E+01  0.62484748280E+01  0.95013094691E+01  0.00000000000E+00 0.  1.
</event>
<event>
 7    1  0.6180395E-013  0.5930193E+02  0.7816164E-02  0.1266605E+00
        -11   -1    0    0    0    0  0.00000000000E+00  0.00000000000E+00  0.45593999997E+02  0.45594000000E+02  0.51100000000E-03 0.  1.
         11   -1    0    0    0    0 -0.00000000000E+00 -0.00000000000E+00 -0.45593999997E+02  0.45594000000E+02  0.51100000000E-03 0. -1.
    9900012    2    1    2    0    0 -0.19866558948E+02 -0.10796378382E+02 -0.22482871069E+02  0.59301930281E+02  0.49999974929E+02 0.  0.
        -12    1    1    2    0    0  0.19866558948E+02  0.10796378382E+02  0.22482871069E+02  0.31886069719E+02  0.00000000000E+00 0.  1.
         11    1    3    3    0    0  0.64312682231E+01 -0.11586838173E+02 -0.25472464968E+02  0.28713455062E+02  0.51100000000E-03 0. -1.
        -11    1    3    3    0    0 -0.11954546469E+02 -0.43829079902E+01  0.73856505382E+01  0.14719677234E+02  0.51100000000E-03 0.  1.
         12    1    3    3    0    0 -0.14343280702E+02  0.51733677812E+01 -0.43960566395E+01  0.15868797985E+02  0.00000000000E+00 0. -1.
</event>
<event>
 7    1  0.6180395E-013  0.5930196E+02  0.7816164E-02  0.1266605E+00
        -11   -1    0    0    0    0  0.00000000000E+00  0.00000000000E+00  0.45593999997E+02  0.45594000000E+02  0.51100000000E-03 0. -1.
         11   -1    0    0    0    0 -0.00000000000E+00 -0.00000000000E+00 -0.45593999997E+02  0.45594000000E+02  0.51100000000E-03 0.  1.
    9900012    2    1    2    0    0  0.13260939141E+02 -0.28828929019E+02  0.31241110685E+01  0.59301957203E+02  0.50000024028E+02 0.  0.
        -12    1    1    2    0    0 -0.13260939141E+02  0.28828929019E+02 -0.31241110685E+01  0.31886042797E+02  0.00000000000E+00 0.  1.
         11    1    3    3    0    0 -0.83730698450E+01 -0.18851762405E+02 -0.14673995660E+02  0.25314489790E+02  0.51100000000E-03 0.  1.
        -11    1    3    3    0    0  0.23004579494E+02 -0.88674051734E+01  0.11058503697E+02  0.27020955876E+02  0.51100000000E-03 0. -1.
        -12    1    3    3    0    0 -0.13705705077E+01 -0.11097614404E+01  0.67396030313E+01  0.69665115367E+01  0.00000000000E+00 0.  1.
</event>
<event>
 7    1  0.6180395E-013  0.5930194E+02  0.7816164E-02  0.1266605E+00
        -11   -1    0    0    0    0  0.00000000000E+00  0.00000000000E+00  0.45593999997E+02  0.45594000000E+02  0.51100000000E-03 0.  1.
         11   -1    0    0    0    0 -0.00000000000E+00 -0.00000000000E+00 -0.45593999997E+02  0.45594000000E+02  0.51100000000E-03 0. -1.
    9900012    2    1    2    0    0 -0.18397854483E+02 -0.22511657955E+01 -0.25945560700E+02  0.59301938515E+02  0.49999989946E+02 0.  0.
        -12    1    1    2    0    0  0.18397854483E+02  0.22511657955E+01  0.25945560700E+02  0.31886061485E+02  0.00000000000E+00 0.  1.
         11    1    3    3    0    0 -0.12753503742E+02 -0.17230076348E+02 -0.76665881291E+01  0.22766290046E+02  0.51100000000E-03 0. -1.
        -11    1    3    3    0    0 -0.12297211764E+02  0.17351575830E+02 -0.20077147856E+02  0.29247059122E+02  0.51100000000E-03 0.  1.
        -12    1    3    3    0    0  0.66528610230E+01 -0.23726652781E+01  0.17981752857E+01  0.72885893472E+01  0.00000000000E+00 0.  1.
</event>
<event>
 7    1  0.6180395E-013  0.5930194E+02  0.7816164E-02  0.1266605E+00
        -11   -1    0    0    0    0  0.00000000000E+00  0.00000000000E+00  0.45593999997E+02  0.45594000000E+02  0.51100000000E-03 0. -1.
         11   -1    0    0    0    0 -0.00000000000E+00 -0.00000000000E+00 -0.45593999997E+02  0.45594000000E+02  0.51100000000E-03 0.  1.
    9900012    2    1    2    0    0  0.15230642998E+02  0.15760874932E+02  0.23159078664E+02  0.59301943654E+02  0.49999999318E+02 0.  0.
        -12    1    1    2    0    0 -0.15230642998E+02 -0.15760874932E+02 -0.23159078664E+02  0.31886056346E+02  0.00000000000E+00 0.  1.
         11    1    3    3    0    0 -0.97948946697E+01  0.11067542707E+01  0.17867242105E+02  0.20405960093E+02  0.51100000000E-03 0. -1.
        -11    1    3    3    0    0  0.15858913242E+02  0.21756976832E+02  0.32094198267E+01  0.27114047023E+02  0.51100000000E-03 0.  1.
        -12    1    3    3    0    0  0.91666244263E+01 -0.71028561704E+01  0.20824167317E+01  0.11781936538E+02  0.00000000000E+00 0.  1.
</event>
<event>
 7    1  0.6180395E-013  0.5930197E+02  0.7816164E-02  0.1266605E+00
        -11   -1    0    0    0    0  0.00000000000E+00  0.00000000000E+00  0.45593999997E+02  0.45594000000E+02  0.51100000000E-03 0.  1.
         11   -1    0    0    0    0 -0.00000000000E+00 -0.00000000000E+00 -0.45593999997E+02  0.45594000000E+02  0.51100000000E-03 0. -1.
    9900012    2    1    2    0    0  0.11542823295E+02  0.78971492197E+01 -0.28655144801E+02  0.59301967650E+02  0.50000043082E+02 0.  0.
        -12    1    1    2    0    0 -0.11542823295E+02 -0.78971492197E+01  0.28655144801E+02  0.31886032350E+02  0.00000000000E+00 0.  1.
         11    1    3    3    0    0  0.99826557533E+01  0.91143798177E+01 -0.15959497653E+01  0.13611480128E+02  0.51100000000E-03 0. -1.
        -11    1    3    3    0    0 -0.10010459565E+02 -0.88575095804E+01  0.19785284121E+01  0.13512192701E+02  0.51100000000E-03 0.  1.
        -12    1    3    3    0    0  0.11570627106E+02  0.76402789824E+01 -0.29037723448E+02  0.32178294821E+02  0.00000000000E+00 0.  1.
</event>
<event>
 7    1  0.6180395E-013  0.5930194E+02  0.7816164E-02  0.1266605E+00
        -11   -1    0    0    0    0  0.00000000000E+00  0.00000000000E+00  0.45593999997E+02  0.45594000000E+02  0.51100000000E-03 0. -1.
         11   -1    0    0    0    0 -0.00000000000E+00 -0.00000000000E+00 -0.45593999997E+02  0.45594000000E+02  0.51100000000E-03 0.  1.
    9900012    2    1    2    0    0 -0.16495505566E+02 -0.23883484374E+02  0.13198415508E+02  0.59301941892E+02  0.49999996106E+02 0.  0.
        -12    1    1    2    0    0  0.16495505566E+02  0.23883484374E+02 -0.13198415508E+02  0.31886058108E+02  0.00000000000E+00 0.  1.
         11    1    3    3    0    0 -0.15158142367E+02 -0.44879904914E+01  0.22185942341E+00  0.15810141066E+02  0.51100000000E-03 0. -1.
        -11    1    3    3    0    0  0.11270029329E+02 -0.24632878584E+02  0.46043926236E+01  0.27477130493E+02  0.51100000000E-03 0.  1.
        -12    1    3    3    0    0 -0.12607392528E+02  0.52373847015E+01  0.83721634608E+01  0.16014670334E+02  0.00000000000E+00 0.  1.
</event>
<event>
 7    1  0.6180395E-013  0.5930193E+02  0.7816164E-02  0.1266605E+00
        -11   -1    0    0    0    0  0.00000000000E+00  0.00000000000E+00  0.45593999997E+02  0.45594000000E+02  0.51100000000E-03 0.  1.
         11   -1    0    0    0    0 -0.00000000000E+00 -0.00000000000E+00 -0.45593999997E+02  0.45594000000E+02  0.51100000000E-03 0. -1.
    9900012    2    1    2    0    0 -0.28606935006E+02 -0.13702080366E+02 -0.32584723019E+01  0.59301931278E+02  0.49999976747E+02 0.  0.
        -12    1    1    2    0    0  0.28606935006E+02  0.13702080366E+02  0.32584723019E+01  0.31886068722E+02  0.00000000000E+00 0.  1.
         11    1    3    3    0    0 -0.32055569018E+02 -0.13272660496E+02 -0.21265308048E+02  0.40693197814E+02  0.51100000000E-03 0. -1.
        -11    1    3    3    0    0  0.49466998746E+00  0.10477779028E+01  0.76717627689E+01  0.77587680191E+01  0.51100000000E-03 0.  1.
         12    1    3    3    0    0  0.29539640243E+01 -0.14771977729E+01  0.10335072977E+02  0.10849965445E+02  0.00000000000E+00 0. -1.
</event>
<event>
 7    1  0.6180395E-013  0.5930196E+02  0.7816164E-02  0.1266605E+00
        -11   -1    0    0    0    0  0.00000000000E+00  0.00000000000E+00  0.45593999997E+02  0.45594000000E+02  0.51100000000E-03 0.  1.
         11   -1    0    0    0    0 -0.00000000000E+00 -0.00000000000E+00 -0.45593999997E+02  0.45594000000E+02  0.51100000000E-03 0. -1.
    9900012    2    1    2    0    0 -0.12512678435E+02  0.11276774503E+02 -0.27073734408E+02  0.59301955097E+02  0.50000020187E+02 0.  0.
        -12    1    1    2    0    0  0.12512678435E+02 -0.11276774503E+02  0.27073734408E+02  0.31886044903E+02  0.00000000000E+00 0.  1.
         11    1    3    3    0    0 -0.19727383522E+02  0.61191967173E+01 -0.36307032052E+01  0.20971319346E+02  0.51100000000E-03 0. -1.
        -11    1    3    3    0    0  0.14661255412E+02  0.33621378780E+01 -0.26182394757E+02  0.30195598634E+02  0.51100000000E-03 0.  1.
        -12    1    3    3    0    0 -0.74465503245E+01  0.17954399078E+01  0.27393635551E+01  0.81350371163E+01  0.00000000000E+00 0.  1.
</event>
<event>
 7    1  0.6180395E-013  0.5930198E+02  0.7816164E-02  0.1266605E+00
        -11   -1    0    0    0    0  0.00000000000E+00  0.00000000000E+00  0.45593999997E+02  0.45594000000E+02  0.51100000000E-03 0.  1.
         11   -1    0    0    0    0 -0.00000000000E+00 -0.00000000000E+00 -0.45593999997E+02  0.45594000000E+02  0.51100000000E-03 0. -1.
    9900012    2    1    2    0    0  0.12598367608E+02  0.26728423303E+02 -0.11982924630E+02  0.59301984863E+02  0.50000074474E+02 0.  0.
        -12    1    1    2    0    0 -0.12598367608E+02 -0.26728423303E+02  0.11982924630E+02  0.31886015137E+02  0.00000000000E+00 0.  1.
         11    1    3    3    0    0  0.15541922910E+02  0.23964067247E+02  0.58076289505E+00  0.28568604666E+02  0.51100000000E-03 0. -1.
        -11    1    3    3    0    0 -0.51152397839E+01  0.33979117038E+01 -0.21062069656E+02  0.21939057875E+02  0.51100000000E-03 0.  1.
        -12    1    3    3    0    0  0.21716844813E+01 -0.63355564864E+00  0.84983821314E+01  0.87943223216E+01  0.00000000000E+00 0.  1.
</event>
<event>
 7    1  0.6180395E-013  0.5930197E+02  0.7816164E-02  0.1266605E+00
        -11   -1    0    0    0    0  0.00000000000E+00  0.00000000000E+00  0.45593999997E+02  0.45594000000E+02  0.51100000000E-03 0.  1.
         11   -1    0    0    0    0 -0.00000000000E+00 -0.00000000000E+00 -0.45593999997E+02  0.45594000000E+02  0.51100000000E-03 0. -1.
    9900012    2    1    2    0    0  0.10347744682E+01 -0.28617818146E+02 -0.14023855562E+02  0.59301971735E+02  0.50000050532E+02 0.  0.
        -12    1    1    2    0    0 -0.10347744682E+01  0.28617818146E+02  0.14023855562E+02  0.31886028265E+02  0.00000000000E+00 0.  1.
         11    1    3    3    0    0 -0.16845375807E+01  0.40696926697E+01 -0.20778099146E+02  0.21239808607E+02  0.51100000000E-03 0. -1.
        -11    1    3    3    0    0 -0.50235465624E+01 -0.65845996504E+01  0.69846227800E+01  0.10834109482E+02  0.51100000000E-03 0.  1.
         12    1    3    3    0    0  0.77428586113E+01 -0.26102911166E+02 -0.23037919609E+00  0.27228053646E+02  0.00000000000E+00 0. -1.
</event>
<event>
 7    1  0.6180395E-013  0.5930195E+02  0.7816164E-02  0.1266605E+00
        -11   -1    0    0    0    0  0.00000000000E+00  0.00000000000E+00  0.45593999997E+02  0.45594000000E+02  0.51100000000E-03 0. -1.
         11   -1    0    0    0    0 -0.00000000000E+00 -0.00000000000E+00 -0.45593999997E+02  0.45594000000E+02  0.51100000000E-03 0.  1.
    9900012    2    1    2    0    0  0.34317123269E+01  0.21083457361E+02  0.23673438248E+02  0.59301945019E+02  0.50000001808E+02 0.  0.
        -12    1    1    2    0    0 -0.34317123269E+01 -0.21083457361E+02 -0.23673438248E+02  0.31886054981E+02  0.00000000000E+00 0.  1.
         11    1    3    3    0    0 -0.72417038056E+01  0.13425253959E+02  0.15084135026E+02  0.21452525437E+02  0.51100000000E-03 0. -1.
        -11    1    3    3    0    0  0.92669196769E+01 -0.86390930498E+01  0.15562358354E+02  0.20067304922E+02  0.51100000000E-03 0.  1.
        -12    1    3    3    0    0  0.14064964556E+01  0.16297296451E+02 -0.69730551329E+01  0.17782114660E+02  0.00000000000E+00 0.  1.
</event>
<event>
 7    1  0.6180395E-013  0.5930191E+02  0.7816164E-02  0.1266605E+00
        -11   -1    0    0    0    0  0.00000000000E+00  0.00000000000E+00  0.45593999997E+02  0.45594000000E+02  0.51100000000E-03 0.  1.
         11   -1    0    0    0    0 -0.00000000000E+00 -0.00000000000E+00 -0.45593999997E+02  0.45594000000E+02  0.51100000000E-03 0. -1.
    9900012    2    1    2    0    0 -0.92435518744E+01 -0.70232581402E+01 -0.29697696920E+02  0.59301911991E+02  0.49999941572E+02 0.  0.
        -12    1    1    2    0    0  0.92435518744E+01  0.70232581402E+01  0.29697696920E+02  0.31886088009E+02  0.00000000000E+00 0.  1.
         11    1    3    3    0    0 -0.36092867784E+01  0.12934424168E+02 -0.28280404410E+00  0.13431539674E+02  0.51100000000E-03 0. -1.
        -11    1    3    3    0    0 -0.30422475551E+01 -0.20381841734E+02 -0.48568018955E+01  0.21172228687E+02  0.51100000000E-03 0.  1.
         12    1    3    3    0    0 -0.25920175409E+01  0.42415942575E+00 -0.24558090981E+02  0.24698143630E+02  0.00000000000E+00 0. -1.
</event>
<event>
 7    1  0.6180395E-013  0.5930193E+02  0.7816164E-02  0.1266605E+00
        -11   -1    0    0    0    0  0.00000000000E+00  0.00000000000E+00  0.45593999997E+02  0.45594000000E+02  0.51100000000E-03 0.  1.
         11   -1    0    0    0    0 -0.00000000000E+00 -0.00000000000E+00 -0.45593999997E+02  0.45594000000E+02  0.51100000000E-03 0. -1.
    9900012    2    1    2    0    0 -0.13280321812E+02 -0.19032132086E+02 -0.21866240071E+02  0.59301930094E+02  0.49999974589E+02 0.  0.
        -12    1    1    2    0    0  0.13280321812E+02  0.19032132086E+02  0.21866240071E+02  0.31886069906E+02  0.00000000000E+00 0.  1.
         11    1    3    3    0    0  0.99301012401E+01  0.56487861356E+01 -0.55070258533E+01  0.12682390526E+02  0.51100000000E-03 0. -1.
        -11    1    3    3    0    0 -0.24046466429E+02 -0.28613996136E+02 -0.18879562091E+02  0.41873991780E+02  0.51100000000E-03 0.  1.
        -12    1    3    3    0    0  0.83604337709E+00  0.39330779141E+01  0.25203478729E+01  0.47455477879E+01  0.00000000000E+00 0.  1.
</event>
<event>
 7    1  0.6180395E-013  0.5930197E+02  0.7816164E-02  0.1266605E+00
        -11   -1    0    0    0    0  0.00000000000E+00  0.00000000000E+00  0.45593999997E+02  0.45594000000E+02  0.51100000000E-03 0.  1.
         11   -1    0    0    0    0 -0.00000000000E+00 -0.00000000000E+00 -0.45593999997E+02  0.45594000000E+02  0.51100000000E-03 0. -1.
    9900012    2    1    2    0    0 -0.12333141196E+02 -0.26555426264E+02  0.12626235024E+02  0.59301970980E+02  0.50000049154E+02 0.  0.
        -12    1    1    2    0    0  0.12333141196E+02  0.26555426264E+02 -0.12626235024E+02  0.31886029020E+02  0.00000000000E+00 0.  1.
         11    1    3    3    0    0 -0.90548660679E+01 -0.17121824534E+01 -0.13862679300E+02  0.16646202146E+02  0.51100000000E-03 0. -1.
        -11    1    3    3    0    0 -0.54247867500E+01 -0.26459893523E+02  0.15080249265E+02  0.30934902533E+02  0.51100000000E-03 0.  1.
        -12    1    3    3    0    0  0.21465116223E+01  0.16166497128E+01  0.11408665058E+02  0.11720866301E+02  0.00000000000E+00 0.  1.
</event>
<event>
 7    1  0.6180395E-013  0.5930198E+02  0.7816164E-02  0.1266605E+00
        -11   -1    0    0    0    0  0.00000000000E+00  0.00000000000E+00  0.45593999997E+02  0.45594000000E+02  0.51100000000E-03 0.  1.
         11   -1    0    0    0    0 -0.00000000000E+00 -0.00000000000E+00 -0.45593999997E+02  0.45594000000E+02  0.51100000000E-03 0. -1.
    9900012    2    1    2    0    0 -0.25901655594E+02 -0.11590760148E+02 -0.14542250441E+02  0.59301975926E+02  0.50000058175E+02 0.  0.
        -12    1    1    2    0    0  0.25901655594E+02  0.11590760148E+02  0.14542250441E+02  0.31886024074E+02  0.00000000000E+00 0.  1.
         11    1    3    3    0    0 -0.20801358664E+02 -0.31363878693E+01 -0.91722499273E+01  0.22949152928E+02  0.51100000000E-03 0. -1.
        -11    1    3    3    0    0 -0.59990961344E+01 -0.20348791838E+02  0.34823126548E+01  0.21498581008E+02  0.51100000000E-03 0.  1.
        -12    1    3    3    0    0  0.89879920416E+00  0.11894419559E+02 -0.88523131690E+01  0.14854241990E+02  0.00000000000E+00 0.  1.
</event>
<event>
 7    1  0.6180395E-013  0.5930197E+02  0.7816164E-02  0.1266605E+00
        -11   -1    0    0    0    0  0.00000000000E+00  0.00000000000E+00  0.45593999997E+02  0.45594000000E+02  0.51100000000E-03 0. -1.
         11   -1    0    0    0    0 -0.00000000000E+00 -0.00000000000E+00 -0.45593999997E+02  0.45594000000E+02  0.51100000000E-03 0.  1.
    9900012    2    1    2    0    0  0.21233928414E+02 -0.21145200831E+02 -0.10895859743E+02  0.59301968676E+02  0.50000044952E+02 0.  0.
        -12    1    1    2    0    0 -0.21233928414E+02  0.21145200831E+02  0.10895859743E+02  0.31886031324E+02  0.00000000000E+00 0.  1.
         11    1    3    3    0    0  0.11455219387E+02 -0.90430096951E+01  0.38874197861E+01  0.15103314484E+02  0.51100000000E-03 0. -1.
        -11    1    3    3    0    0  0.47604362324E+01  0.11873461652E+02 -0.14985071766E+02  0.19702619644E+02  0.51100000000E-03 0.  1.
        -12    1    3    3    0    0  0.50182727949E+01 -0.23975652788E+02  0.20179223726E+00  0.24496034548E+02  0.00000000000E+00 0.  1.
</event>
<event>
 7    1  0.6180395E-013  0.5930193E+02  0.7816164E-02  0.1266605E+00
        -11   -1    0    0    0    0  0.00000000000E+00  0.00000000000E+00  0.45593999997E+02  0.45594000000E+02  0.51100000000E-03 0. -1.
         11   -1    0    0    0    0 -0.00000000000E+00 -0.00000000000E+00 -0.45593999997E+02  0.45594000000E+02  0.51100000000E-03 0.  1.
    9900012    2    1    2    0    0 -0.20142462801E+02  0.16811878945E+02  0.18120803165E+02  0.59301927983E+02  0.49999970738E+02 0.  0.
        -12    1    1    2    0    0  0.20142462801E+02 -0.16811878945E+02 -0.18120803165E+02  0.31886072017E+02  0.00000000000E+00 0.  1.
         11    1    3    3    0    0 -0.10188490545E+02  0.32772439381E+02  0.31570226070E+01  0.34464545762E+02  0.51100000000E-03 0. -1.
        -11    1    3    3    0    0 -0.67308131792E+01 -0.49954792874E+01  0.67720399889E+01  0.10775861229E+02  0.51100000000E-03 0.  1.
         12    1    3    3    0    0 -0.32231590775E+01 -0.10965081149E+02  0.81917405689E+01  0.14061520991E+02  0.00000000000E+00 0. -1.
</event>
<event>
 7    1  0.6180395E-013  0.5930195E+02  0.7816164E-02  0.1266605E+00
        -11   -1    0    0    0    0  0.00000000000E+00  0.00000000000E+00  0.45593999997E+02  0.45594000000E+02  0.51100000000E-03 0.  1.
         11   -1    0    0    0    0 -0.00000000000E+00 -0.00000000000E+00 -0.45593999997E+02  0.45594000000E+02  0.51100000000E-03 0. -1.
    9900012    2    1    2    0    0  0.22567797032E+02 -0.10223075035E+02 -0.20072449548E+02  0.59301953571E+02  0.50000017404E+02 0.  0.
        -12    1    1    2    0    0 -0.22567797032E+02  0.10223075035E+02  0.20072449548E+02  0.31886046429E+02  0.00000000000E+00 0.  1.
         11    1    3    3    0    0  0.50916538016E+01  0.16050317644E+02 -0.16476105566E+02  0.23558431395E+02  0.51100000000E-03 0. -1.
        -11    1    3    3    0    0  0.19574069206E+02 -0.26448928831E+02 -0.17622877923E+01  0.32951413932E+02  0.51100000000E-03 0.  1.
        -12    1    3    3    0    0 -0.20979259759E+01  0.17553615212E+00 -0.18340561891E+01  0.27921082440E+01  0.00000000000E+00 0.  1.
</event>
<event>
 7    1  0.6180395E-013  0.5930192E+02  0.7816164E-02  0.1266605E+00
        -11   -1    0    0    0    0  0.00000000000E+00  0.00000000000E+00  0.45593999997E+02  0.45594000000E+02  0.51100000000E-03 0. -1.
         11   -1    0    0    0    0 -0.00000000000E+00 -0.00000000000E+00 -0.45593999997E+02  0.45594000000E+02  0.51100000000E-03 0.  1.
    9900012    2    1    2    0    0 -0.91353421672E+01 -0.11250327350E+01  0.30528711393E+02  0.59301915347E+02  0.49999947694E+02 0.  0.
        -12    1    1    2    0    0  0.91353421672E+01  0.11250327350E+01 -0.30528711393E+02  0.31886084653E+02  0.00000000000E+00 0.  1.
         11    1    3    3    0    0 -0.18229629740E+00  0.98237323320E+01  0.28410083666E+02  0.30061134427E+02  0.51100000000E-03 0. -1.
        -11    1    3    3    0    0 -0.15816008842E+02  0.40119568545E+00  0.78826228785E-01  0.15821292852E+02  0.51100000000E-03 0.  1.
        -12    1    3    3    0    0  0.68629629726E+01 -0.11349960752E+02  0.20398014978E+01  0.13419488068E+02  0.00000000000E+00 0.  1.
</event>
<event>
 7    1  0.6180395E-013  0.5930193E+02  0.7816164E-02  0.1266605E+00
        -11   -1    0    0    0    0  0.00000000000E+00  0.00000000000E+00  0.45593999997E+02  0.45594000000E+02  0.51100000000E-03 0. -1.
         11   -1    0    0    0    0 -0.00000000000E+00 -0.00000000000E+00 -0.45593999997E+02  0.45594000000E+02  0.51100000000E-03 0.  1.
    9900012    2    1    2    0    0  0.69753629613E+01 -0.22973921544E+02  0.20982490077E+02  0.59301927030E+02  0.49999969001E+02 0.  0.
        -12    1    1    2    0    0 -0.69753629613E+01  0.22973921544E+02 -0.20982490077E+02  0.31886072970E+02  0.00000000000E+00 0.  1.
         11    1    3    3    0    0 -0.49731173226E+01  0.25635107507E+01  0.17843547734E+02  0.18700151852E+02  0.51100000000E-03 0. -1.
        -11    1    3    3    0    0  0.91554409138E+01 -0.60560531758E+01 -0.11632719658E+02  0.15994312904E+02  0.51100000000E-03 0.  1.
        -12    1    3    3    0    0  0.27930393701E+01 -0.19481379119E+02  0.14771662001E+02  0.24607462274E+02  0.00000000000E+00 0.  1.
</event>
<event>
 7    1  0.6180395E-013  0.5930195E+02  0.7816164E-02  0.1266605E+00
        -11   -1    0    0    0    0  0.00000000000E+00  0.00000000000E+00  0.45593999997E+02  0.45594000000E+02  0.51100000000E-03 0.  1.
         11   -1    0    0    0    0 -0.00000000000E+00 -0.00000000000E+00 -0.45593999997E+02  0.45594000000E+02  0.51100000000E-03 0. -1.
    9900012    2    1    2    0    0 -0.21190971366E+02 -0.13885256851E+02  0.19361361596E+02  0.59301953709E+02  0.50000017656E+02 0.  0.
        -12    1    1    2    0    0  0.21190971366E+02  0.13885256851E+02 -0.19361361596E+02  0.31886046291E+02  0.00000000000E+00 0.  1.
         11    1    3    3    0    0 -0.31409847541E+02 -0.18883069770E+02  0.46429515805E+01  0.36941925318E+02  0.51100000000E-03 0. -1.
        -11    1    3    3    0    0  0.67707371006E+01  0.34806150584E+01  0.47602994068E+00  0.76278546680E+01  0.51100000000E-03 0.  1.
         12    1    3    3    0    0  0.34481390752E+01  0.15171978613E+01  0.14242380074E+02  0.14732173723E+02  0.00000000000E+00 0. -1.
</event>
<event>
 7    1  0.6180395E-013  0.5930194E+02  0.7816164E-02  0.1266605E+00
        -11   -1    0    0    0    0  0.00000000000E+00  0.00000000000E+00  0.45593999997E+02  0.45594000000E+02  0.51100000000E-03 0.  1.
         11   -1    0    0    0    0 -0.00000000000E+00 -0.00000000000E+00 -0.45593999997E+02  0.45594000000E+02  0.51100000000E-03 0. -1.
    9900012    2    1    2    0    0  0.16256111158E+02  0.27083241516E+02  0.43540686789E+01  0.59301936664E+02  0.49999986571E+02 0.  0.
        -12    1    1    2    0    0 -0.16256111158E+02 -0.27083241516E+02 -0.43540686789E+01  0.31886063336E+02  0.00000000000E+00 0.  1.
         11    1    3    3    0    0  0.13101706525E+02  0.11682010882E+02  0.51124605636E+01  0.18282815576E+02  0.51100000000E-03 0. -1.
        -11    1    3    3    0    0 -0.21990370708E+00  0.39732651943E+01 -0.18899918493E+02  0.19314298156E+02  0.51100000000E-03 0.  1.
        -12    1    3    3    0    0  0.33743083408E+01  0.11427965439E+02  0.18141526608E+02  0.21704822933E+02  0.00000000000E+00 0.  1.
</event>
<event>
 7    1  0.6180395E-013  0.5930192E+02  0.7816164E-02  0.1266605E+00
        -11   -1    0    0    0    0  0.00000000000E+00  0.00000000000E+00  0.45593999997E+02  0.45594000000E+02  0.51100000000E-03 0. -1.
         11   -1    0    0    0    0 -0.00000000000E+00 -0.00000000000E+00 -0.45593999997E+02  0.45594000000E+02  0.51100000000E-03 0.  1.
    9900012    2    1    2    0    0 -0.18888195886E+02 -0.20334707949E+02  0.15698967544E+02  0.59301923522E+02  0.49999962603E+02 0.  0.
        -12    1    1    2    0    0  0.18888195886E+02  0.20334707949E+02 -0.15698967544E+02  0.31886076478E+02  0.00000000000E+00 0.  1.
         11    1    3    3    0    0 -0.53289986374E+01 -0.22613945484E+02 -0.33314215006E+01  0.23470984775E+02  0.51100000000E-03 0. -1.
        -11    1    3    3    0    0 -0.81488968350E+01  0.13549571335E+02  0.40546103361E+01  0.16322844979E+02  0.51100000000E-03 0.  1.
         12    1    3    3    0    0 -0.54103004140E+01 -0.11270333799E+02  0.14975778709E+02  0.19508093768E+02  0.00000000000E+00 0. -1.
</event>
<event>
 7    1  0.6180395E-013  0.5930193E+02  0.7816164E-02  0.1266605E+00
        -11   -1    0    0    0    0  0.00000000000E+00  0.00000000000E+00  0.45593999997E+02  0.45594000000E+02  0.51100000000E-03 0.  1.
         11   -1    0    0    0    0 -0.00000000000E+00 -0.00000000000E+00 -0.45593999997E+02  0.45594000000E+02  0.51100000000E-03 0. -1.
    9900012    2    1    2    0    0 -0.17838817448E+02 -0.96115802049E+01 -0.24619408258E+02  0.59301934941E+02  0.49999983428E+02 0.  0.
        -12    1    1    2    0    0  0.17838817448E+02  0.96115802049E+01  0.24619408258E+02  0.31886065059E+02  0.00000000000E+00 0.  1.
         11    1    3    3    0    0 -0.51120957882E+01 -0.11344612331E+02 -0.33357660144E+02  0.35602910595E+02  0.51100000000E-03 0. -1.
        -11    1    3    3    0    0 -0.77883108139E+01 -0.73103926787E+01  0.83721502238E+00  0.10714502121E+02  0.51100000000E-03 0.  1.
         12    1    3    3    0    0 -0.49384108455E+01  0.90434248048E+01  0.79010368636E+01  0.12984522224E+02  0.00000000000E+00 0. -1.
</event>
<event>
 7    1  0.6180395E-013  0.5930189E+02  0.7816164E-02  0.1266605E+00
        -11   -1    0    0    0    0  0.00000000000E+00  0.00000000000E+00  0.45593999997E+02  0.45594000000E+02  0.51100000000E-03 0. -1.
         11   -1    0    0    0    0 -0.00000000000E+00 -0.00000000000E+00 -0.45593999997E+02  0.45594000000E+02  0.51100000000E-03 0.  1.
    9900012    2    1    2    0    0  0.28026049514E+02  0.14313518895E+02  0.51368945071E+01  0.59301890803E+02  0.49999902931E+02 0.  0.
        -12    1    1    2    0    0 -0.28026049514E+02 -0.14313518895E+02 -0.51368945071E+01  0.31886109197E+02  0.00000000000E+00 0.  1.
         11    1    3    3    0    0 -0.55292634553E+01  0.10164030898E+02  0.95004951859E+01  0.14971295451E+02  0.51100000000E-03 0. -1.
        -11    1    3    3    0    0  0.20028123086E+02  0.15171730274E+02 -0.82655296286E+01  0.26450446010E+02  0.51100000000E-03 0.  1.
        -12    1    3    3    0    0  0.13527189883E+02 -0.11022242276E+02  0.39019289498E+01  0.17880149341E+02  0.00000000000E+00 0.  1.
</event>
<event>
 7    1  0.6180395E-013  0.5930193E+02  0.7816164E-02  0.1266605E+00
        -11   -1    0    0    0    0  0.00000000000E+00  0.00000000000E+00  0.45593999997E+02  0.45594000000E+02  0.51100000000E-03 0.  1.
         11   -1    0    0    0    0 -0.00000000000E+00 -0.00000000000E+00 -0.45593999997E+02  0.45594000000E+02  0.51100000000E-03 0. -1.
    9900012    2    1    2    0    0 -0.14347590129E+02  0.28474845141E+02  0.22613932621E+00  0.59301932709E+02  0.49999979357E+02 0.  0.
        -12    1    1    2    0    0  0.14347590129E+02 -0.28474845141E+02 -0.22613932621E+00  0.31886067291E+02  0.00000000000E+00 0.  1.
         11    1    3    3    0    0  0.46764986823E+01  0.23172246253E+02  0.80947817067E+01  0.24986959148E+02  0.51100000000E-03 0. -1.
        -11    1    3    3    0    0 -0.33233756980E+01 -0.10453299565E+02 -0.90022759592E+00  0.11005757939E+02  0.51100000000E-03 0.  1.
         12    1    3    3    0    0 -0.15700713113E+02  0.15755898453E+02 -0.69684147846E+01  0.23309215622E+02  0.00000000000E+00 0. -1.
</event>
<event>
 7    1  0.6180395E-013  0.5930195E+02  0.7816164E-02  0.1266605E+00
        -11   -1    0    0    0    0  0.00000000000E+00  0.00000000000E+00  0.45593999997E+02  0.45594000000E+02  0.51100000000E-03 0.  1.
         11   -1    0    0    0    0 -0.00000000000E+00 -0.00000000000E+00 -0.45593999997E+02  0.45594000000E+02  0.51100000000E-03 0. -1.
    9900012    2    1    2    0    0  0.93443552942E+01  0.91829479014E+01 -0.29070199954E+02  0.59301952371E+02  0.50000015216E+02 0.  0.
        -12    1    1    2    0    0 -0.93443552942E+01 -0.91829479014E+01  0.29070199954E+02  0.31886047629E+02  0.00000000000E+00 0.  1.
         11    1    3    3    0    0  0.48637370843E+01  0.16998109010E+02 -0.20686934167E+02  0.27212881028E+02  0.51100000000E-03 0. -1.
        -11    1    3    3    0    0 -0.45709410621E+01 -0.13147052633E+02  0.52514610976E+01  0.14876704576E+02  0.51100000000E-03 0.  1.
        -12    1    3    3    0    0  0.90515592720E+01  0.53318915245E+01 -0.13634726885E+02  0.17212366767E+02  0.00000000000E+00 0.  1.
</event>
<event>
 7    1  0.6180395E-013  0.5930188E+02  0.7816164E-02  0.1266605E+00
        -11   -1    0    0    0    0  0.00000000000E+00  0.00000000000E+00  0.45593999997E+02  0.45594000000E+02  0.51100000000E-03 0. -1.
         11   -1    0    0    0    0 -0.00000000000E+00 -0.00000000000E+00 -0.45593999997E+02  0.45594000000E+02  0.51100000000E-03 0.  1.
    9900012    2    1    2    0    0  0.17956556373E+02 -0.61333544480E+01  0.25625552482E+02  0.59301876159E+02  0.49999876224E+02 0.  0.
        -12    1    1    2    0    0 -0.17956556373E+02  0.61333544480E+01 -0.25625552482E+02  0.31886123841E+02  0.00000000000E+00 0.  1.
         11    1    3    3    0    0 -0.26240535844E+01 -0.66389047942E+01  0.34422061803E+02  0.35154502601E+02  0.51100000000E-03 0. -1.
        -11    1    3    3    0    0  0.96811425759E+01  0.42717903033E+01 -0.64081612504E+01  0.12370822319E+02  0.51100000000E-03 0.  1.
         12    1    3    3    0    0  0.10899467381E+02 -0.37662399571E+01 -0.23883480699E+01  0.11776551240E+02  0.00000000000E+00 0. -1.
</event>
<event>
 7    1  0.6180395E-013  0.5930193E+02  0.7816164E-02  0.1266605E+00
        -11   -1    0    0    0    0  0.00000000000E+00  0.00000000000E+00  0.45593999997E+02  0.45594000000E+02  0.51100000000E-03 0. -1.
         11   -1    0    0    0    0 -0.00000000000E+00 -0.00000000000E+00 -0.45593999997E+02  0.45594000000E+02  0.51100000000E-03 0.  1.
    9900012    2    1    2    0    0  0.59994037038E+01 -0.30089808792E+02  0.86793990502E+01  0.59301930850E+02  0.49999975968E+02 0.  0.
        -12    1    1    2    0    0 -0.59994037038E+01  0.30089808792E+02 -0.86793990502E+01  0.31886069150E+02  0.00000000000E+00 0.  1.
         11    1    3    3    0    0  0.18608806335E+02 -0.62737180062E+01  0.12779639527E+02  0.23430031957E+02  0.51100000000E-03 0. -1.
        -11    1    3    3    0    0 -0.73171157659E+01 -0.24397203747E+02 -0.10497267104E+02  0.27549162432E+02  0.51100000000E-03 0.  1.
         12    1    3    3    0    0 -0.52922868650E+01  0.58111296127E+00  0.63970266270E+01  0.83227364611E+01  0.00000000000E+00 0. -1.
</event>
<event>
 7    1  0.6180395E-013  0.5930194E+02  0.7816164E-02  0.1266605E+00
        -11   -1    0    0    0    0  0.00000000000E+00  0.00000000000E+00  0.45593999997E+02  0.45594000000E+02  0.51100000000E-03 0.  1.
         11   -1    0    0    0    0 -0.00000000000E+00 -0.00000000000E+00 -0.45593999997E+02  0.45594000000E+02  0.51100000000E-03 0. -1.
    9900012    2    1    2    0    0  0.87664703650E+01  0.24710139682E+02 -0.18146042185E+02  0.59301939523E+02  0.49999991785E+02 0.  0.
        -12    1    1    2    0    0 -0.87664703650E+01 -0.24710139682E+02  0.18146042185E+02  0.31886060477E+02  0.00000000000E+00 0.  1.
         11    1    3    3    0    0 -0.97876072798E+01  0.28009436856E+02 -0.15194819187E+02  0.33334791730E+02  0.51100000000E-03 0. -1.
        -11    1    3    3    0    0  0.12702300804E+02 -0.34220293875E+01 -0.10202908634E+02  0.16648065224E+02  0.51100000000E-03 0.  1.
        -12    1    3    3    0    0  0.58517768410E+01  0.12273221258E+00  0.72516856350E+01  0.93190825697E+01  0.00000000000E+00 0.  1.
</event>
<event>
 7    1  0.6180395E-013  0.5930196E+02  0.7816164E-02  0.1266605E+00
        -11   -1    0    0    0    0  0.00000000000E+00  0.00000000000E+00  0.45593999997E+02  0.45594000000E+02  0.51100000000E-03 0. -1.
         11   -1    0    0    0    0 -0.00000000000E+00 -0.00000000000E+00 -0.45593999997E+02  0.45594000000E+02  0.51100000000E-03 0.  1.
    9900012    2    1    2    0    0  0.17628812148E+02  0.16638556101E+02  0.20714803205E+02  0.59301958560E+02  0.50000026503E+02 0.  0.
        -12    1    1    2    0    0 -0.17628812148E+02 -0.16638556101E+02 -0.20714803205E+02  0.31886041440E+02  0.00000000000E+00 0.  1.
         11    1    3    3    0    0  0.24936169384E+02 -0.76058358062E+01  0.10720628721E+02  0.28188528914E+02  0.51100000000E-03 0. -1.
        -11    1    3    3    0    0 -0.12433009365E+01  0.46578725121E+01 -0.40206969182E+01  0.62775455018E+01  0.51100000000E-03 0.  1.
         12    1    3    3    0    0 -0.60640562996E+01  0.19586519395E+02  0.14014871402E+02  0.24835884144E+02  0.00000000000E+00 0. -1.
</event>
<event>
 7    1  0.6180395E-013  0.5930211E+02  0.7816164E-02  0.1266604E+00
        -11   -1    0    0    0    0  0.00000000000E+00  0.00000000000E+00  0.45593999997E+02  0.45594000000E+02  0.51100000000E-03 0. -1.
         11   -1    0    0    0    0 -0.00000000000E+00 -0.00000000000E+00 -0.45593999997E+02  0.45594000000E+02  0.51100000000E-03 0.  1.
    9900012    2    1    2    0    0 -0.30137548976E+02 -0.10377650392E+02  0.86164520897E+00  0.59302110983E+02  0.50000304486E+02 0.  0.
        -12    1    1    2    0    0  0.30137548976E+02  0.10377650392E+02 -0.86164520897E+00  0.31885889017E+02  0.00000000000E+00 0.  1.
         11    1    3    3    0    0 -0.27371384880E+02 -0.10242467839E+02 -0.17377375456E+02  0.34001088743E+02  0.51100000000E-03 0. -1.
        -11    1    3    3    0    0 -0.84920979636E+01 -0.81972962938E-01  0.17596811011E+02  0.19538940745E+02  0.51100000000E-03 0.  1.
         12    1    3    3    0    0  0.57259338686E+01 -0.53209590596E-01  0.64220965322E+00  0.57620814960E+01  0.00000000000E+00 0. -1.
</event>
<event>
 7    1  0.6180395E-013  0.5930200E+02  0.7816164E-02  0.1266605E+00
        -11   -1    0    0    0    0  0.00000000000E+00  0.00000000000E+00  0.45593999997E+02  0.45594000000E+02  0.51100000000E-03 0.  1.
         11   -1    0    0    0    0 -0.00000000000E+00 -0.00000000000E+00 -0.45593999997E+02  0.45594000000E+02  0.51100000000E-03 0. -1.
    9900012    2    1    2    0    0 -0.28245453607E+02  0.10230085331E+02 -0.10689100000E+02  0.59301997520E+02  0.50000097558E+02 0.  0.
        -12    1    1    2    0    0  0.28245453607E+02 -0.10230085331E+02  0.10689100000E+02  0.31886002480E+02  0.00000000000E+00 0.  1.
         11    1    3    3    0    0 -0.17771045136E+02 -0.13682228635E+02 -0.68965406717E+01  0.23464349535E+02  0.51100000000E-03 0. -1.
        -11    1    3    3    0    0  0.52375575593E+01 -0.39828407612E-01  0.34735804287E+01  0.62848513701E+01  0.51100000000E-03 0.  1.
         12    1    3    3    0    0 -0.15711966030E+02  0.23952142373E+02 -0.72661397570E+01  0.29552796615E+02  0.00000000000E+00 0. -1.
</event>
<event>
 7    1  0.6180395E-013  0.5930194E+02  0.7816164E-02  0.1266605E+00
        -11   -1    0    0    0    0  0.00000000000E+00  0.00000000000E+00  0.45593999997E+02  0.45594000000E+02  0.51100000000E-03 0.  1.
         11   -1    0    0    0    0 -0.00000000000E+00 -0.00000000000E+00 -0.45593999997E+02  0.45594000000E+02  0.51100000000E-03 0. -1.
    9900012    2    1    2    0    0 -0.12304590966E+02  0.13044314336E+02 -0.26365957997E+02  0.59301939779E+02  0.49999992252E+02 0.  0.
        -12    1    1    2    0    0  0.12304590966E+02 -0.13044314336E+02  0.26365957997E+02  0.31886060221E+02  0.00000000000E+00 0.  1.
         11    1    3    3    0    0 -0.26580723933E+02 -0.23008912754E+01 -0.24501545630E+02  0.36223676291E+02  0.51100000000E-03 0. -1.
        -11    1    3    3    0    0  0.44974515745E+01  0.10069103600E+02  0.22033463603E+01  0.11245828267E+02  0.51100000000E-03 0.  1.
         12    1    3    3    0    0  0.97786813929E+01  0.52761020112E+01 -0.40677587267E+01  0.11832435222E+02  0.00000000000E+00 0. -1.
</event>
<event>
 7    1  0.6180395E-013  0.5930191E+02  0.7816164E-02  0.1266605E+00
        -11   -1    0    0    0    0  0.00000000000E+00  0.00000000000E+00  0.45593999997E+02  0.45594000000E+02  0.51100000000E-03 0.  1.
         11   -1    0    0    0    0 -0.00000000000E+00 -0.00000000000E+00 -0.45593999997E+02  0.45594000000E+02  0.51100000000E-03 0. -1.
    9900012    2    1    2    0    0 -0.22097824206E+02  0.19011096295E+02 -0.12922341707E+02  0.59301913188E+02  0.49999943756E+02 0.  0.
        -12    1    1    2    0    0  0.22097824206E+02 -0.19011096295E+02  0.12922341707E+02  0.31886086812E+02  0.00000000000E+00 0.  1.
         11    1    3    3    0    0 -0.15632513274E+01  0.27400794780E+01 -0.16262147199E+02  0.16565301749E+02  0.51100000000E-03 0. -1.
        -11    1    3    3    0    0  0.30205668127E+01  0.18643162654E+02  0.50298858445E+00  0.18892970528E+02  0.51100000000E-03 0.  1.
        -12    1    3    3    0    0 -0.23555139691E+02 -0.23721458368E+01  0.28368169066E+01  0.23843640911E+02  0.00000000000E+00 0.  1.
</event>
<event>
 7    1  0.6180395E-013  0.5930194E+02  0.7816164E-02  0.1266605E+00
        -11   -1    0    0    0    0  0.00000000000E+00  0.00000000000E+00  0.45593999997E+02  0.45594000000E+02  0.51100000000E-03 0.  1.
         11   -1    0    0    0    0 -0.00000000000E+00 -0.00000000000E+00 -0.45593999997E+02  0.45594000000E+02  0.51100000000E-03 0. -1.
    9900012    2    1    2    0    0 -0.10247334776E+02  0.17876548753E+02 -0.24333964984E+02  0.59301941649E+02  0.49999995661E+02 0.  0.
        -12    1    1    2    0    0  0.10247334776E+02 -0.17876548753E+02  0.24333964984E+02  0.31886058351E+02  0.00000000000E+00 0.  1.
         11    1    3    3    0    0 -0.10008977782E+02  0.26344448047E+02 -0.21029136425E+02  0.35162965719E+02  0.51100000000E-03 0.  1.
        -11    1    3    3    0    0  0.75480515371E+01 -0.99395816424E+01 -0.80981385497E+01  0.14877775824E+02  0.51100000000E-03 0. -1.
         12    1    3    3    0    0 -0.77864085307E+01  0.14716823483E+01  0.47933099898E+01  0.92612001058E+01  0.00000000000E+00 0. -1.
</event>
<event>
 7    1  0.6180395E-013  0.5930195E+02  0.7816164E-02  0.1266605E+00
        -11   -1    0    0    0    0  0.00000000000E+00  0.00000000000E+00  0.45593999997E+02  0.45594000000E+02  0.51100000000E-03 0. -1.
         11   -1    0    0    0    0 -0.00000000000E+00 -0.00000000000E+00 -0.45593999997E+02  0.45594000000E+02  0.51100000000E-03 0.  1.
    9900012    2    1    2    0    0  0.29622019108E+02 -0.11069080288E+02  0.40904451120E+01  0.59301948258E+02  0.50000007715E+02 0.  0.
        -12    1    1    2    0    0 -0.29622019108E+02  0.11069080288E+02 -0.40904451120E+01  0.31886051742E+02  0.00000000000E+00 0.  1.
         11    1    3    3    0    0 -0.14087165448E+01  0.11201392806E+02 -0.10791326272E+02  0.15617567226E+02  0.51100000000E-03 0. -1.
        -11    1    3    3    0    0  0.14919693368E+02 -0.17969338114E+02  0.38008067403E+01  0.23663061818E+02  0.51100000000E-03 0.  1.
         12    1    3    3    0    0  0.16111042285E+02 -0.43011349793E+01  0.11080964644E+02  0.20021319214E+02  0.00000000000E+00 0. -1.
</event>
<event>
 7    1  0.6180395E-013  0.5930191E+02  0.7816164E-02  0.1266605E+00
        -11   -1    0    0    0    0  0.00000000000E+00  0.00000000000E+00  0.45593999997E+02  0.45594000000E+02  0.51100000000E-03 0. -1.
         11   -1    0    0    0    0 -0.00000000000E+00 -0.00000000000E+00 -0.45593999997E+02  0.45594000000E+02  0.51100000000E-03 0.  1.
    9900012    2    1    2    0    0 -0.26652237366E+01  0.16458024256E+02  0.27180008822E+02  0.59301908054E+02  0.49999934393E+02 0.  0.
        -12    1    1    2    0    0  0.26652237366E+01 -0.16458024256E+02 -0.27180008822E+02  0.31886091946E+02  0.00000000000E+00 0.  1.
         11    1    3    3    0    0  0.18483609651E+02  0.31290755117E+01  0.14663638437E+02  0.23800362009E+02  0.51100000000E-03 0. -1.
        -11    1    3    3    0    0 -0.30761302099E+00 -0.19371217399E+01 -0.42656380821E+01  0.46949691069E+01  0.51100000000E-03 0.  1.
         12    1    3    3    0    0 -0.20841220367E+02  0.15266070485E+02  0.16782008468E+02  0.30806576938E+02  0.00000000000E+00 0. -1.
</event>
<event>
 7    1  0.6180395E-013  0.5930197E+02  0.7816164E-02  0.1266605E+00
        -11   -1    0    0    0    0  0.00000000000E+00  0.00000000000E+00  0.45593999997E+02  0.45594000000E+02  0.51100000000E-03 0.  1.
         11   -1    0    0    0    0 -0.00000000000E+00 -0.00000000000E+00 -0.45593999997E+02  0.45594000000E+02  0.51100000000E-03 0. -1.
    9900012    2    1    2    0    0  0.10206455412E+02  0.23654172094E+02 -0.18789027696E+02  0.59301966203E+02  0.50000040443E+02 0.  0.
        -12    1    1    2    0    0 -0.10206455412E+02 -0.23654172094E+02  0.18789027696E+02  0.31886033797E+02  0.00000000000E+00 0.  1.
         11    1    3    3    0    0 -0.11088885850E+02  0.19861243052E+02 -0.17566067745E+02  0.28740200090E+02  0.51100000000E-03 0. -1.
        -11    1    3    3    0    0  0.15655040040E+02  0.11807214334E+01  0.93675872732E+01  0.18281850927E+02  0.51100000000E-03 0.  1.
        -12    1    3    3    0    0  0.56403012218E+01  0.26122076088E+01 -0.10590547224E+02  0.12279915186E+02  0.00000000000E+00 0.  1.
</event>
<event>
 7    1  0.6180395E-013  0.5930190E+02  0.7816164E-02  0.1266605E+00
        -11   -1    0    0    0    0  0.00000000000E+00  0.00000000000E+00  0.45593999997E+02  0.45594000000E+02  0.51100000000E-03 0. -1.
         11   -1    0    0    0    0 -0.00000000000E+00 -0.00000000000E+00 -0.45593999997E+02  0.45594000000E+02  0.51100000000E-03 0.  1.
    9900012    2    1    2    0    0  0.59236179123E+01 -0.65111420090E+01  0.30647007702E+02  0.59301901140E+02  0.49999921783E+02 0.  0.
        -12    1    1    2    0    0 -0.59236179123E+01  0.65111420090E+01 -0.30647007702E+02  0.31886098860E+02  0.00000000000E+00 0.  1.
         11    1    3    3    0    0  0.11096421134E+02  0.14933821244E+02  0.14023834693E+01  0.18657873903E+02  0.51100000000E-03 0. -1.
        -11    1    3    3    0    0 -0.11022948233E+02 -0.12534732728E+02  0.12747431526E+02  0.21002902730E+02  0.51100000000E-03 0.  1.
         12    1    3    3    0    0  0.58501450116E+01 -0.89102305255E+01  0.16497192707E+02  0.19641124506E+02  0.00000000000E+00 0. -1.
</event>
<event>
 7    1  0.6180395E-013  0.5930195E+02  0.7816164E-02  0.1266605E+00
        -11   -1    0    0    0    0  0.00000000000E+00  0.00000000000E+00  0.45593999997E+02  0.45594000000E+02  0.51100000000E-03 0.  1.
         11   -1    0    0    0    0 -0.00000000000E+00 -0.00000000000E+00 -0.45593999997E+02  0.45594000000E+02  0.51100000000E-03 0. -1.
    9900012    2    1    2    0    0 -0.27805146294E+02 -0.72475764280E+01 -0.13822679528E+02  0.59301952991E+02  0.50000016347E+02 0.  0.
        -12    1    1    2    0    0  0.27805146294E+02  0.72475764280E+01  0.13822679528E+02  0.31886047009E+02  0.00000000000E+00 0.  1.
         11    1    3    3    0    0 -0.21646383011E+02  0.48542987603E+01  0.57067843529E+01  0.22906276472E+02  0.51100000000E-03 0. -1.
        -11    1    3    3    0    0 -0.47578778366E+01 -0.19178550841E+02 -0.53258543544E+01  0.20465066301E+02  0.51100000000E-03 0.  1.
        -12    1    3    3    0    0 -0.14008854466E+01  0.70766756524E+01 -0.14203609527E+02  0.15930610218E+02  0.00000000000E+00 0.  1.
</event>
<event>
 7    1  0.6180395E-013  0.5930194E+02  0.7816164E-02  0.1266605E+00
        -11   -1    0    0    0    0  0.00000000000E+00  0.00000000000E+00  0.45593999997E+02  0.45594000000E+02  0.51100000000E-03 0.  1.
         11   -1    0    0    0    0 -0.00000000000E+00 -0.00000000000E+00 -0.45593999997E+02  0.45594000000E+02  0.51100000000E-03 0. -1.
    9900012    2    1    2    0    0  0.21640898138E+00 -0.10801179776E+02 -0.30000138586E+02  0.59301942975E+02  0.49999998080E+02 0.  0.
        -12    1    1    2    0    0 -0.21640898138E+00  0.10801179776E+02  0.30000138586E+02  0.31886057025E+02  0.00000000000E+00 0.  1.
         11    1    3    3    0    0  0.64958536323E+01  0.67996642830E+01 -0.16824372767E+02  0.19274103559E+02  0.51100000000E-03 0. -1.
        -11    1    3    3    0    0  0.52782253948E+01 -0.15165503021E+02  0.63007333708E+01  0.17249677866E+02  0.51100000000E-03 0.  1.
        -12    1    3    3    0    0 -0.11557670046E+02 -0.24353410379E+01 -0.19476499191E+02  0.22778161550E+02  0.00000000000E+00 0.  1.
</event>
<event>
 7    1  0.6180395E-013  0.5930194E+02  0.7816164E-02  0.1266605E+00
        -11   -1    0    0    0    0  0.00000000000E+00  0.00000000000E+00  0.45593999997E+02  0.45594000000E+02  0.51100000000E-03 0. -1.
         11   -1    0    0    0    0 -0.00000000000E+00 -0.00000000000E+00 -0.45593999997E+02  0.45594000000E+02  0.51100000000E-03 0.  1.
    9900012    2    1    2    0    0 -0.41800607516E+01  0.17512708996E+02  0.26316399683E+02  0.59301940718E+02  0.49999993963E+02 0.  0.
        -12    1    1    2    0    0  0.41800607516E+01 -0.17512708996E+02 -0.26316399683E+02  0.31886059282E+02  0.00000000000E+00 0.  1.
         11    1    3    3    0    0  0.40832860988E+01 -0.59209805429E+01  0.27832756090E+02  0.28747061550E+02  0.51100000000E-03 0. -1.
        -11    1    3    3    0    0 -0.45780778295E+00  0.12338687812E+02 -0.87955934559E+01  0.15159659277E+02  0.51100000000E-03 0.  1.
         12    1    3    3    0    0 -0.78055390674E+01  0.11095001727E+02  0.72792370493E+01  0.15395219890E+02  0.00000000000E+00 0. -1.
</event>
<event>
 7    1  0.6180395E-013  0.5930194E+02  0.7816164E-02  0.1266605E+00
        -11   -1    0    0    0    0  0.00000000000E+00  0.00000000000E+00  0.45593999997E+02  0.45594000000E+02  0.51100000000E-03 0.  1.
         11   -1    0    0    0    0 -0.00000000000E+00 -0.00000000000E+00 -0.45593999997E+02  0.45594000000E+02  0.51100000000E-03 0. -1.
    9900012    2    1    2    0    0  0.89659308363E+01  0.25538464103E+02 -0.16855857060E+02  0.59301937500E+02  0.49999988095E+02 0.  0.
        -12    1    1    2    0    0 -0.89659308363E+01 -0.25538464103E+02  0.16855857060E+02  0.31886062500E+02  0.00000000000E+00 0.  1.
         11    1    3    3    0    0  0.86094141776E+01  0.24402088673E+02  0.10196597327E+02  0.27812848495E+02  0.51100000000E-03 0. -1.
        -11    1    3    3    0    0  0.10411152474E+01 -0.70214916644E+01 -0.17639815727E+02  0.19014425190E+02  0.51100000000E-03 0.  1.
         12    1    3    3    0    0 -0.68459858869E+00  0.81578670948E+01 -0.94126386600E+01  0.12474663815E+02  0.00000000000E+00 0. -1.
</event>
<event>
 7    1  0.6180395E-013  0.5930193E+02  0.7816164E-02  0.1266605E+00
        -11   -1    0    0    0    0  0.00000000000E+00  0.00000000000E+00  0.45593999997E+02  0.45594000000E+02  0.51100000000E-03 0. -1.
         11   -1    0    0    0    0 -0.00000000000E+00 -0.00000000000E+00 -0.45593999997E+02  0.45594000000E+02  0.51100000000E-03 0.  1.
    9900012    2    1    2    0    0  0.24227420779E+02  0.62474465460E+01  0.19766713493E+02  0.59301929872E+02  0.49999974183E+02 0.  0.
        -12    1    1    2    0    0 -0.24227420779E+02 -0.62474465460E+01 -0.19766713493E+02  0.31886070128E+02  0.00000000000E+00 0.  1.
         11    1    3    3    0    0  0.22721314302E+02  0.20594741628E+02  0.28005794024E+02  0.41529820678E+02  0.51100000000E-03 0. -1.
        -11    1    3    3    0    0  0.14315980874E+01 -0.12137973447E+02 -0.37768918883E+01  0.12792372145E+02  0.51100000000E-03 0.  1.
         12    1    3    3    0    0  0.74508388907E-01 -0.22093216350E+01 -0.44621886433E+01  0.49797370488E+01  0.00000000000E+00 0. -1.
</event>
<event>
 7    1  0.6180395E-013  0.5930189E+02  0.7816164E-02  0.1266605E+00
        -11   -1    0    0    0    0  0.00000000000E+00  0.00000000000E+00  0.45593999997E+02  0.45594000000E+02  0.51100000000E-03 0.  1.
         11   -1    0    0    0    0 -0.00000000000E+00 -0.00000000000E+00 -0.45593999997E+02  0.45594000000E+02  0.51100000000E-03 0. -1.
    9900012    2    1    2    0    0  0.87813098156E+00 -0.26924780562E+02  0.17058984708E+02  0.59301892028E+02  0.49999905165E+02 0.  0.
        -12    1    1    2    0    0 -0.87813098156E+00  0.26924780562E+02 -0.17058984708E+02  0.31886107972E+02  0.00000000000E+00 0.  1.
         11    1    3    3    0    0  0.22170043525E+01 -0.37376066543E+02 -0.12998786582E+01  0.37464318268E+02  0.51100000000E-03 0. -1.
        -11    1    3    3    0    0 -0.29839532790E+01  0.40755527336E+01  0.60784395984E+01  0.79032610654E+01  0.51100000000E-03 0.  1.
         12    1    3    3    0    0  0.16450799081E+01  0.63757332475E+01  0.12280423768E+02  0.13934312695E+02  0.00000000000E+00 0. -1.
</event>
<event>
 7    1  0.6180395E-013  0.5930190E+02  0.7816164E-02  0.1266605E+00
        -11   -1    0    0    0    0  0.00000000000E+00  0.00000000000E+00  0.45593999997E+02  0.45594000000E+02  0.51100000000E-03 0. -1.
         11   -1    0    0    0    0 -0.00000000000E+00 -0.00000000000E+00 -0.45593999997E+02  0.45594000000E+02  0.51100000000E-03 0.  1.
    9900012    2    1    2    0    0  0.29573905548E+02  0.38471065722E+00  0.11914683609E+02  0.59301896802E+02  0.49999913871E+02 0.  0.
        -12    1    1    2    0    0 -0.29573905548E+02 -0.38471065722E+00 -0.11914683609E+02  0.31886103198E+02  0.00000000000E+00 0.  1.
         11    1    3    3    0    0  0.64269782327E+01  0.10587390792E+02  0.21965619903E+02  0.25216806914E+02  0.51100000000E-03 0. -1.
        -11    1    3    3    0    0  0.41789923877E+01 -0.67663400560E+01  0.52025775883E+01  0.95033756610E+01  0.51100000000E-03 0.  1.
         12    1    3    3    0    0  0.18967934928E+02 -0.34363400787E+01 -0.15253513882E+02  0.24581714226E+02  0.00000000000E+00 0. -1.
</event>
<event>
 7    1  0.6180395E-013  0.5930196E+02  0.7816164E-02  0.1266605E+00
        -11   -1    0    0    0    0  0.00000000000E+00  0.00000000000E+00  0.45593999997E+02  0.45594000000E+02  0.51100000000E-03 0.  1.
         11   -1    0    0    0    0 -0.00000000000E+00 -0.00000000000E+00 -0.45593999997E+02  0.45594000000E+02  0.51100000000E-03 0. -1.
    9900012    2    1    2    0    0  0.15375964674E+02  0.27329459338E+02  0.57792749157E+01  0.59301958290E+02  0.50000026012E+02 0.  0.
        -12    1    1    2    0    0 -0.15375964674E+02 -0.27329459338E+02 -0.57792749157E+01  0.31886041710E+02  0.00000000000E+00 0.  1.
         11    1    3    3    0    0  0.20100945110E+02 -0.72913054006E+01  0.56036406048E+01  0.22104567787E+02  0.51100000000E-03 0. -1.
        -11    1    3    3    0    0 -0.38427716647E+01  0.10830419643E+02  0.55951003757E+01  0.12781628698E+02  0.51100000000E-03 0.  1.
         12    1    3    3    0    0 -0.88220877132E+00  0.23790345096E+02 -0.54194660648E+01  0.24415761805E+02  0.00000000000E+00 0. -1.
</event>
<event>
 7    1  0.6180395E-013  0.5930196E+02  0.7816164E-02  0.1266605E+00
        -11   -1    0    0    0    0  0.00000000000E+00  0.00000000000E+00  0.45593999997E+02  0.45594000000E+02  0.51100000000E-03 0.  1.
         11   -1    0    0    0    0 -0.00000000000E+00 -0.00000000000E+00 -0.45593999997E+02  0.45594000000E+02  0.51100000000E-03 0. -1.
    9900012    2    1    2    0    0 -0.18983771871E+01  0.21664981359E+02 -0.23318326958E+02  0.59301958770E+02  0.50000026885E+02 0.  0.
        -12    1    1    2    0    0  0.18983771871E+01 -0.21664981359E+02  0.23318326958E+02  0.31886041230E+02  0.00000000000E+00 0.  1.
         11    1    3    3    0    0 -0.19349293627E+02 -0.57871645137E+01 -0.95376285499E+01  0.22335012774E+02  0.51100000000E-03 0. -1.
        -11    1    3    3    0    0  0.38549069844E+01  0.60830159368E+00 -0.78322021892E-01  0.39033925357E+01  0.51100000000E-03 0.  1.
         12    1    3    3    0    0  0.13596009456E+02  0.26843844279E+02 -0.13702376386E+02  0.33063553460E+02  0.00000000000E+00 0. -1.
</event>
<event>
 7    1  0.6180395E-013  0.5930195E+02  0.7816164E-02  0.1266605E+00
        -11   -1    0    0    0    0  0.00000000000E+00  0.00000000000E+00  0.45593999997E+02  0.45594000000E+02  0.51100000000E-03 0.  1.
         11   -1    0    0    0    0 -0.00000000000E+00 -0.00000000000E+00 -0.45593999997E+02  0.45594000000E+02  0.51100000000E-03 0. -1.
    9900012    2    1    2    0    0  0.28300997480E+02 -0.37372117536E+00 -0.14684479955E+02  0.59301951680E+02  0.50000013956E+02 0.  0.
        -12    1    1    2    0    0 -0.28300997480E+02  0.37372117536E+00  0.14684479955E+02  0.31886048320E+02  0.00000000000E+00 0.  1.
         11    1    3    3    0    0  0.12194748827E+02  0.15241248138E+02  0.70815746284E+00  0.19532256168E+02  0.51100000000E-03 0. -1.
        -11    1    3    3    0    0 -0.15872183360E+01 -0.58997909924E+01 -0.18376149576E+02  0.19365166390E+02  0.51100000000E-03 0.  1.
        -12    1    3    3    0    0  0.17693466989E+02 -0.97151783206E+01  0.29835121583E+01  0.20404529122E+02  0.00000000000E+00 0.  1.
</event>
<event>
 7    1  0.6180395E-013  0.5930195E+02  0.7816164E-02  0.1266605E+00
        -11   -1    0    0    0    0  0.00000000000E+00  0.00000000000E+00  0.45593999997E+02  0.45594000000E+02  0.51100000000E-03 0. -1.
         11   -1    0    0    0    0 -0.00000000000E+00 -0.00000000000E+00 -0.45593999997E+02  0.45594000000E+02  0.51100000000E-03 0.  1.
    9900012    2    1    2    0    0 -0.22781576547E+02  0.10848887291E+02  0.19494147833E+02  0.59301946855E+02  0.50000005157E+02 0.  0.
        -12    1    1    2    0    0  0.22781576547E+02 -0.10848887291E+02 -0.19494147833E+02  0.31886053145E+02  0.00000000000E+00 0.  1.
         11    1    3    3    0    0 -0.97837709027E+00  0.15341574523E+02  0.93467854208E+00  0.15401128362E+02  0.51100000000E-03 0.  1.
        -11    1    3    3    0    0 -0.17915964956E+01 -0.16398352567E+02  0.79812297683E+01  0.18325278000E+02  0.51100000000E-03 0. -1.
         12    1    3    3    0    0 -0.20011602961E+02  0.11905665334E+02  0.10578239522E+02  0.25575540493E+02  0.00000000000E+00 0. -1.
</event>
<event>
 7    1  0.6180395E-013  0.5930200E+02  0.7816164E-02  0.1266605E+00
        -11   -1    0    0    0    0  0.00000000000E+00  0.00000000000E+00  0.45593999997E+02  0.45594000000E+02  0.51100000000E-03 0. -1.
         11   -1    0    0    0    0 -0.00000000000E+00 -0.00000000000E+00 -0.45593999997E+02  0.45594000000E+02  0.51100000000E-03 0.  1.
    9900012    2    1    2    0    0 -0.19446319010E+02 -0.24782182395E+02 -0.49397264482E+01  0.59302003314E+02  0.50000108123E+02 0.  0.
        -12    1    1    2    0    0  0.19446319010E+02  0.24782182395E+02  0.49397264482E+01  0.31885996686E+02  0.00000000000E+00 0.  1.
         11    1    3    3    0    0 -0.17847262134E+02 -0.13236933146E+02  0.11449120818E+02  0.24996470402E+02  0.51100000000E-03 0. -1.
        -11    1    3    3    0    0  0.12847088387E+02 -0.81988717688E+01 -0.71498960042E+01  0.16834197083E+02  0.51100000000E-03 0.  1.
        -12    1    3    3    0    0 -0.14446145263E+02 -0.33463774801E+01 -0.92389512624E+01  0.17471335828E+02  0.00000000000E+00 0.  1.
</event>
<event>
 7    1  0.6180395E-013  0.5930226E+02  0.7816164E-02  0.1266604E+00
        -11   -1    0    0    0    0  0.00000000000E+00  0.00000000000E+00  0.45593999997E+02  0.45594000000E+02  0.51100000000E-03 0. -1.
         11   -1    0    0    0    0 -0.00000000000E+00 -0.00000000000E+00 -0.45593999997E+02  0.45594000000E+02  0.51100000000E-03 0.  1.
    9900012    2    1    2    0    0 -0.10902860115E+02 -0.14932220604E+02  0.25978003621E+02  0.59302262702E+02  0.50000581183E+02 0.  0.
        -12    1    1    2    0    0  0.10902860115E+02  0.14932220604E+02 -0.25978003621E+02  0.31885737298E+02  0.00000000000E+00 0.  1.
         11    1    3    3    0    0  0.10211975654E+02 -0.55048871130E+01  0.86948600756E+01  0.14497890221E+02  0.51100000000E-03 0. -1.
        -11    1    3    3    0    0 -0.23835571025E+02  0.67676134116E+01  0.12168083783E+02  0.27604298589E+02  0.51100000000E-03 0.  1.
        -12    1    3    3    0    0  0.27207352564E+01 -0.16194946903E+02  0.51150597625E+01  0.17200073892E+02  0.00000000000E+00 0.  1.
</event>
<event>
 7    1  0.6180395E-013  0.5930234E+02  0.7816164E-02  0.1266603E+00
        -11   -1    0    0    0    0  0.00000000000E+00  0.00000000000E+00  0.45593999997E+02  0.45594000000E+02  0.51100000000E-03 0.  1.
         11   -1    0    0    0    0 -0.00000000000E+00 -0.00000000000E+00 -0.45593999997E+02  0.45594000000E+02  0.51100000000E-03 0. -1.
    9900012    2    1    2    0    0  0.25602683876E+02 -0.53237729589E+01 -0.18244318966E+02  0.59302342492E+02  0.50000726698E+02 0.  0.
        -12    1    1    2    0    0 -0.25602683876E+02  0.53237729589E+01  0.18244318966E+02  0.31885657508E+02  0.00000000000E+00 0.  1.
         11    1    3    3    0    0 -0.26915154033E+01  0.86865358717E+01 -0.63532709173E+01  0.11093431039E+02  0.51100000000E-03 0. -1.
        -11    1    3    3    0    0  0.45591914464E+01 -0.18820294832E+02 -0.14006511172E+02  0.23899206674E+02  0.51100000000E-03 0.  1.
        -12    1    3    3    0    0  0.23735007833E+02  0.48099860013E+01  0.21154631226E+01  0.24309704778E+02  0.00000000000E+00 0.  1.
</event>
<event>
 7    1  0.6180395E-013  0.5930194E+02  0.7816164E-02  0.1266605E+00
        -11   -1    0    0    0    0  0.00000000000E+00  0.00000000000E+00  0.45593999997E+02  0.45594000000E+02  0.51100000000E-03 0.  1.
         11   -1    0    0    0    0 -0.00000000000E+00 -0.00000000000E+00 -0.45593999997E+02  0.45594000000E+02  0.51100000000E-03 0. -1.
    9900012    2    1    2    0    0  0.30195646536E+02  0.99048330432E+01  0.26149069574E+01  0.59301944651E+02  0.50000001137E+02 0.  0.
        -12    1    1    2    0    0 -0.30195646536E+02 -0.99048330432E+01 -0.26149069574E+01  0.31886055349E+02  0.00000000000E+00 0.  1.
         11    1    3    3    0    0  0.14817795129E+02 -0.77980072353E+00 -0.18923424699E+02  0.24047268956E+02  0.51100000000E-03 0. -1.
        -11    1    3    3    0    0  0.19445965272E+02  0.10320274784E+02  0.12451637546E+02  0.25292230325E+02  0.51100000000E-03 0.  1.
         12    1    3    3    0    0 -0.40681138650E+01  0.36435898235E+00  0.90866941104E+01  0.99624453696E+01  0.00000000000E+00 0. -1.
</event>
<event>
 7    1  0.6180395E-013  0.5930195E+02  0.7816164E-02  0.1266605E+00
        -11   -1    0    0    0    0  0.00000000000E+00  0.00000000000E+00  0.45593999997E+02  0.45594000000E+02  0.51100000000E-03 0.  1.
         11   -1    0    0    0    0 -0.00000000000E+00 -0.00000000000E+00 -0.45593999997E+02  0.45594000000E+02  0.51100000000E-03 0. -1.
    9900012    2    1    2    0    0 -0.60408258082E+01 -0.13346093274E+02 -0.28321554060E+02  0.59301949656E+02  0.50000010265E+02 0.  0.
        -12    1    1    2    0    0  0.60408258082E+01  0.13346093274E+02  0.28321554060E+02  0.31886050344E+02  0.00000000000E+00 0.  1.
         11    1    3    3    0    0  0.15932149048E+02 -0.64307538770E+01 -0.17131790690E+02  0.24262856823E+02  0.51100000000E-03 0. -1.
        -11    1    3    3    0    0 -0.16344882704E+02  0.40090146796E+01 -0.14606544201E+02  0.22284041892E+02  0.51100000000E-03 0.  1.
        -12    1    3    3    0    0 -0.56280921525E+01 -0.10924354076E+02  0.34167808309E+01  0.12755050941E+02  0.00000000000E+00 0.  1.
</event>
<event>
 7    1  0.6180395E-013  0.5930189E+02  0.7816164E-02  0.1266605E+00
        -11   -1    0    0    0    0  0.00000000000E+00  0.00000000000E+00  0.45593999997E+02  0.45594000000E+02  0.51100000000E-03 0. -1.
         11   -1    0    0    0    0 -0.00000000000E+00 -0.00000000000E+00 -0.45593999997E+02  0.45594000000E+02  0.51100000000E-03 0.  1.
    9900012    2    1    2    0    0  0.22240618816E+02  0.26238153330E+01  0.22697895217E+02  0.59301890492E+02  0.49999902364E+02 0.  0.
        -12    1    1    2    0    0 -0.22240618816E+02 -0.26238153330E+01 -0.22697895217E+02  0.31886109508E+02  0.00000000000E+00 0.  1.
         11    1    3    3    0    0  0.64608493639E+01 -0.11569675977E+02  0.40249279529E+01  0.13849188496E+02  0.51100000000E-03 0. -1.
        -11    1    3    3    0    0 -0.44236288664E+01  0.19783857447E+02  0.11439075104E+02  0.23277069131E+02  0.51100000000E-03 0.  1.
        -12    1    3    3    0    0  0.20203398319E+02 -0.55903661367E+01  0.72338921602E+01  0.22175632865E+02  0.00000000000E+00 0.  1.
</event>
<event>
 7    1  0.6180395E-013  0.5930194E+02  0.7816164E-02  0.1266605E+00
        -11   -1    0    0    0    0  0.00000000000E+00  0.00000000000E+00  0.45593999997E+02  0.45594000000E+02  0.51100000000E-03 0.  1.
         11   -1    0    0    0    0 -0.00000000000E+00 -0.00000000000E+00 -0.45593999997E+02  0.45594000000E+02  0.51100000000E-03 0. -1.
    9900012    2    1    2    0    0  0.10131341895E+02 -0.27426247936E+01 -0.30109049764E+02  0.59301937887E+02  0.49999988801E+02 0.  0.
        -12    1    1    2    0    0 -0.10131341895E+02  0.27426247936E+01  0.30109049764E+02  0.31886062113E+02  0.00000000000E+00 0.  1.
         11    1    3    3    0    0  0.14430792562E+02  0.27294804251E+01 -0.34995043810E+02  0.37951955534E+02  0.51100000000E-03 0. -1.
        -11    1    3    3    0    0 -0.54756383393E+01  0.60407170064E+01 -0.12545339005E+01  0.82490443533E+01  0.51100000000E-03 0.  1.
         12    1    3    3    0    0  0.11761876731E+01 -0.11512822225E+02  0.61405279460E+01  0.13100938000E+02  0.00000000000E+00 0. -1.
</event>
<event>
 7    1  0.6180395E-013  0.5930195E+02  0.7816164E-02  0.1266605E+00
        -11   -1    0    0    0    0  0.00000000000E+00  0.00000000000E+00  0.45593999997E+02  0.45594000000E+02  0.51100000000E-03 0.  1.
         11   -1    0    0    0    0 -0.00000000000E+00 -0.00000000000E+00 -0.45593999997E+02  0.45594000000E+02  0.51100000000E-03 0. -1.
    9900012    2    1    2    0    0 -0.64174861570E+01 -0.19726729963E+02 -0.24215542166E+02  0.59301945274E+02  0.50000002273E+02 0.  0.
        -12    1    1    2    0    0  0.64174861570E+01  0.19726729963E+02  0.24215542166E+02  0.31886054726E+02  0.00000000000E+00 0.  1.
         11    1    3    3    0    0  0.64148601373E+01 -0.10444990226E+02 -0.17719147908E+02  0.21545682960E+02  0.51100000000E-03 0. -1.
        -11    1    3    3    0    0 -0.40358484313E+01  0.63397618532E+01  0.10593024212E+02  0.12988179824E+02  0.51100000000E-03 0.  1.
        -12    1    3    3    0    0 -0.87964978630E+01 -0.15621501590E+02 -0.17089418470E+02  0.24768082490E+02  0.00000000000E+00 0.  1.
</event>
<event>
 7    1  0.6180395E-013  0.5930196E+02  0.7816164E-02  0.1266605E+00
        -11   -1    0    0    0    0  0.00000000000E+00  0.00000000000E+00  0.45593999997E+02  0.45594000000E+02  0.51100000000E-03 0.  1.
         11   -1    0    0    0    0 -0.00000000000E+00 -0.00000000000E+00 -0.45593999997E+02  0.45594000000E+02  0.51100000000E-03 0. -1.
    9900012    2    1    2    0    0  0.98531155163E+00 -0.28766348033E+02 -0.13720276536E+02  0.59301959069E+02  0.50000027432E+02 0.  0.
        -12    1    1    2    0    0 -0.98531155163E+00  0.28766348033E+02  0.13720276536E+02  0.31886040931E+02  0.00000000000E+00 0.  1.
         11    1    3    3    0    0  0.19404183381E+01 -0.16872202256E+02 -0.15918790497E+02  0.23277549773E+02  0.51100000000E-03 0. -1.
        -11    1    3    3    0    0 -0.10391490416E+02  0.83691961425E+01 -0.12745283786E+01  0.13403392854E+02  0.51100000000E-03 0.  1.
        -12    1    3    3    0    0  0.94363836300E+01 -0.20263341920E+02  0.34730423404E+01  0.22621016442E+02  0.00000000000E+00 0.  1.
</event>
<event>
 7    1  0.6180395E-013  0.5930193E+02  0.7816164E-02  0.1266605E+00
        -11   -1    0    0    0    0  0.00000000000E+00  0.00000000000E+00  0.45593999997E+02  0.45594000000E+02  0.51100000000E-03 0.  1.
         11   -1    0    0    0    0 -0.00000000000E+00 -0.00000000000E+00 -0.45593999997E+02  0.45594000000E+02  0.51100000000E-03 0. -1.
    9900012    2    1    2    0    0 -0.21481267460E+02  0.20495297345E+02 -0.11628399640E+02  0.59301925561E+02  0.49999966321E+02 0.  0.
        -12    1    1    2    0    0  0.21481267460E+02 -0.20495297345E+02  0.11628399640E+02  0.31886074439E+02  0.00000000000E+00 0.  1.
         11    1    3    3    0    0 -0.10971579879E+02  0.29043121296E+02 -0.25222789372E+02  0.40000844536E+02  0.51100000000E-03 0. -1.
        -11    1    3    3    0    0 -0.69071991912E+01 -0.43305250634E+01  0.79166569320E+01  0.11363815611E+02  0.51100000000E-03 0.  1.
         12    1    3    3    0    0 -0.36024883896E+01 -0.42172988873E+01  0.56777327999E+01  0.79372654138E+01  0.00000000000E+00 0. -1.
</event>
<event>
 7    1  0.6180395E-013  0.5930191E+02  0.7816164E-02  0.1266605E+00
        -11   -1    0    0    0    0  0.00000000000E+00  0.00000000000E+00  0.45593999997E+02  0.45594000000E+02  0.51100000000E-03 0.  1.
         11   -1    0    0    0    0 -0.00000000000E+00 -0.00000000000E+00 -0.45593999997E+02  0.45594000000E+02  0.51100000000E-03 0. -1.
    9900012    2    1    2    0    0 -0.48055140241E+01 -0.29320008496E+02 -0.11574411387E+02  0.59301908013E+02  0.49999934317E+02 0.  0.
        -12    1    1    2    0    0  0.48055140241E+01  0.29320008496E+02  0.11574411387E+02  0.31886091987E+02  0.00000000000E+00 0.  1.
         11    1    3    3    0    0 -0.15842798359E+02 -0.13272599471E+02 -0.17424112903E+02  0.27032496504E+02  0.51100000000E-03 0. -1.
        -11    1    3    3    0    0  0.65504267897E+01 -0.22564455845E+02  0.63573584827E+01  0.24340886710E+02  0.51100000000E-03 0.  1.
        -12    1    3    3    0    0  0.44868575447E+01  0.65170468195E+01 -0.50765696691E+00  0.79285247978E+01  0.00000000000E+00 0.  1.
</event>
<event>
 7    1  0.6180395E-013  0.5930194E+02  0.7816164E-02  0.1266605E+00
        -11   -1    0    0    0    0  0.00000000000E+00  0.00000000000E+00  0.45593999997E+02  0.45594000000E+02  0.51100000000E-03 0.  1.
         11   -1    0    0    0    0 -0.00000000000E+00 -0.00000000000E+00 -0.45593999997E+02  0.45594000000E+02  0.51100000000E-03 0. -1.
    9900012    2    1    2    0    0  0.10356252978E+02 -0.12208521782E+02 -0.27575724377E+02  0.59301944195E+02  0.50000000305E+02 0.  0.
        -12    1    1    2    0    0 -0.10356252978E+02  0.12208521782E+02  0.27575724377E+02  0.31886055805E+02  0.00000000000E+00 0.  1.
         11    1    3    3    0    0  0.14118007185E+02 -0.65124942539E+01 -0.19884313226E+02  0.25241169169E+02  0.51100000000E-03 0. -1.
        -11    1    3    3    0    0  0.81623191720E+00  0.77467787977E+01  0.91595247611E+01  0.12023964005E+02  0.51100000000E-03 0.  1.
        -12    1    3    3    0    0 -0.45779861238E+01 -0.13442806326E+02 -0.16850935912E+02  0.22036811022E+02  0.00000000000E+00 0.  1.
</event>
<event>
 7    1  0.6180395E-013  0.5930195E+02  0.7816164E-02  0.1266605E+00
        -11   -1    0    0    0    0  0.00000000000E+00  0.00000000000E+00  0.45593999997E+02  0.45594000000E+02  0.51100000000E-03 0.  1.
         11   -1    0    0    0    0 -0.00000000000E+00 -0.00000000000E+00 -0.45593999997E+02  0.45594000000E+02  0.51100000000E-03 0. -1.
    9900012    2    1    2    0    0  0.65335347397E+01 -0.24835049016E+02 -0.18901152692E+02  0.59301948050E+02  0.50000007336E+02 0.  0.
        -12    1    1    2    0    0 -0.65335347397E+01  0.24835049016E+02  0.18901152692E+02  0.31886051950E+02  0.00000000000E+00 0.  1.
         11    1    3    3    0    0 -0.50150210855E+01 -0.15951660112E+02 -0.55978052416E+01  0.17633528308E+02  0.51100000000E-03 0. -1.
        -11    1    3    3    0    0  0.14902512002E+02  0.64007403023E+01  0.55729411424E+01  0.17149694272E+02  0.51100000000E-03 0.  1.
         12    1    3    3    0    0 -0.33539561765E+01 -0.15284129206E+02 -0.18876288593E+02  0.24518725470E+02  0.00000000000E+00 0. -1.
</event>
<event>
 7    1  0.6180395E-013  0.5930192E+02  0.7816164E-02  0.1266605E+00
        -11   -1    0    0    0    0  0.00000000000E+00  0.00000000000E+00  0.45593999997E+02  0.45594000000E+02  0.51100000000E-03 0. -1.
         11   -1    0    0    0    0 -0.00000000000E+00 -0.00000000000E+00 -0.45593999997E+02  0.45594000000E+02  0.51100000000E-03 0.  1.
    9900012    2    1    2    0    0  0.26549077401E+02  0.16272634948E+02 -0.68607342138E+01  0.59301924152E+02  0.49999963752E+02 0.  0.
        -12    1    1    2    0    0 -0.26549077401E+02 -0.16272634948E+02  0.68607342138E+01  0.31886075848E+02  0.00000000000E+00 0.  1.
         11    1    3    3    0    0  0.23304749252E+02  0.96065163592E+01  0.18988244446E+02  0.31558674269E+02  0.51100000000E-03 0. -1.
        -11    1    3    3    0    0  0.41982742659E+01  0.76362794612E+01 -0.22473946191E+02  0.24104284442E+02  0.51100000000E-03 0.  1.
         12    1    3    3    0    0 -0.95394611633E+00 -0.97016087224E+00 -0.33750324691E+01  0.36389654407E+01  0.00000000000E+00 0. -1.
</event>
<event>
 7    1  0.6180395E-013  0.5930189E+02  0.7816164E-02  0.1266605E+00
        -11   -1    0    0    0    0  0.00000000000E+00  0.00000000000E+00  0.45593999997E+02  0.45594000000E+02  0.51100000000E-03 0. -1.
         11   -1    0    0    0    0 -0.00000000000E+00 -0.00000000000E+00 -0.45593999997E+02  0.45594000000E+02  0.51100000000E-03 0.  1.
    9900012    2    1    2    0    0  0.30323871298E+02 -0.27701769842E+01  0.94611387230E+01  0.59301887083E+02  0.49999896147E+02 0.  0.
        -12    1    1    2    0    0 -0.30323871298E+02  0.27701769842E+01 -0.94611387230E+01  0.31886112917E+02  0.00000000000E+00 0.  1.
         11    1    3    3    0    0  0.10272564426E+02  0.81338868561E+01  0.22231947525E+02  0.25805913785E+02  0.51100000000E-03 0. -1.
        -11    1    3    3    0    0  0.12179370688E+02 -0.24016339524E+01 -0.17096318634E+02  0.21127920558E+02  0.51100000000E-03 0.  1.
         12    1    3    3    0    0  0.78719361832E+01 -0.85024298880E+01  0.43255098327E+01  0.12368052740E+02  0.00000000000E+00 0. -1.
</event>
<event>
 7    1  0.6180395E-013  0.5930195E+02  0.7816164E-02  0.1266605E+00
        -11   -1    0    0    0    0  0.00000000000E+00  0.00000000000E+00  0.45593999997E+02  0.45594000000E+02  0.51100000000E-03 0.  1.
         11   -1    0    0    0    0 -0.00000000000E+00 -0.00000000000E+00 -0.45593999997E+02  0.45594000000E+02  0.51100000000E-03 0. -1.
    9900012    2    1    2    0    0  0.83621082685E+01  0.30313339677E+02 -0.52817314622E+01  0.59301951259E+02  0.50000013188E+02 0.  0.
        -12    1    1    2    0    0 -0.83621082685E+01 -0.30313339677E+02  0.52817314622E+01  0.31886048741E+02  0.00000000000E+00 0.  1.
         11    1    3    3    0    0 -0.46268497802E+01  0.21508136530E+02  0.39295410038E+01  0.22348354943E+02  0.51100000000E-03 0. -1.
        -11    1    3    3    0    0  0.18466970640E+02 -0.51661743981E+01  0.31467627563E+00  0.19178565743E+02  0.51100000000E-03 0.  1.
        -12    1    3    3    0    0 -0.54780125913E+01  0.13971377545E+02 -0.95259487417E+01  0.17775030574E+02  0.00000000000E+00 0.  1.
</event>
<event>
 7    1  0.6180395E-013  0.5930194E+02  0.7816164E-02  0.1266605E+00
        -11   -1    0    0    0    0  0.00000000000E+00  0.00000000000E+00  0.45593999997E+02  0.45594000000E+02  0.51100000000E-03 0.  1.
         11   -1    0    0    0    0 -0.00000000000E+00 -0.00000000000E+00 -0.45593999997E+02  0.45594000000E+02  0.51100000000E-03 0. -1.
    9900012    2    1    2    0    0  0.10178377506E+02  0.21709610670E+02 -0.21019379618E+02  0.59301939038E+02  0.49999990901E+02 0.  0.
        -12    1    1    2    0    0 -0.10178377506E+02 -0.21709610670E+02  0.21019379618E+02  0.31886060962E+02  0.00000000000E+00 0.  1.
         11    1    3    3    0    0  0.10755029732E+02 -0.10127193318E+01 -0.51903991038E+01  0.11984844934E+02  0.51100000000E-03 0. -1.
        -11    1    3    3    0    0 -0.18523596457E+02  0.18007148265E+02 -0.11415176250E+02  0.28243357864E+02  0.51100000000E-03 0.  1.
        -12    1    3    3    0    0  0.17946944231E+02  0.47151817369E+01 -0.44138042642E+01  0.19073736240E+02  0.00000000000E+00 0.  1.
</event>
<event>
 7    1  0.6180395E-013  0.5930198E+02  0.7816164E-02  0.1266605E+00
        -11   -1    0    0    0    0  0.00000000000E+00  0.00000000000E+00  0.45593999997E+02  0.45594000000E+02  0.51100000000E-03 0. -1.
         11   -1    0    0    0    0 -0.00000000000E+00 -0.00000000000E+00 -0.45593999997E+02  0.45594000000E+02  0.51100000000E-03 0.  1.
    9900012    2    1    2    0    0 -0.14232077961E+02 -0.48814223676E+01  0.28112954459E+02  0.59301975854E+02  0.50000058044E+02 0.  0.
        -12    1    1    2    0    0  0.14232077961E+02  0.48814223676E+01 -0.28112954459E+02  0.31886024146E+02  0.00000000000E+00 0.  1.
         11    1    3    3    0    0 -0.14793321063E+02 -0.99322784822E+01  0.86786922701E+01  0.19819490500E+02  0.51100000000E-03 0. -1.
        -11    1    3    3    0    0  0.10219783532E+02  0.16089460902E+02  0.71757041258E+01  0.20366773370E+02  0.51100000000E-03 0.  1.
        -12    1    3    3    0    0 -0.96585404293E+01 -0.11038604787E+02  0.12258558063E+02  0.19115711984E+02  0.00000000000E+00 0.  1.
</event>
<event>
 7    1  0.6180395E-013  0.5930191E+02  0.7816164E-02  0.1266605E+00
        -11   -1    0    0    0    0  0.00000000000E+00  0.00000000000E+00  0.45593999997E+02  0.45594000000E+02  0.51100000000E-03 0. -1.
         11   -1    0    0    0    0 -0.00000000000E+00 -0.00000000000E+00 -0.45593999997E+02  0.45594000000E+02  0.51100000000E-03 0.  1.
    9900012    2    1    2    0    0  0.51914382840E+01  0.29386261974E+02  0.11234740825E+02  0.59301908586E+02  0.49999935363E+02 0.  0.
        -12    1    1    2    0    0 -0.51914382840E+01 -0.29386261974E+02 -0.11234740825E+02  0.31886091414E+02  0.00000000000E+00 0.  1.
         11    1    3    3    0    0 -0.21442715258E+00  0.30102867798E+02  0.16979448082E+01  0.30151478331E+02  0.51100000000E-03 0.  1.
        -11    1    3    3    0    0  0.30224071903E+01 -0.11872445217E+02  0.12355580952E+02  0.17399720733E+02  0.51100000000E-03 0. -1.
         12    1    3    3    0    0  0.23834582464E+01  0.11155839393E+02 -0.28187849357E+01  0.11750709523E+02  0.00000000000E+00 0. -1.
</event>
<event>
 7    1  0.6180395E-013  0.5930195E+02  0.7816164E-02  0.1266605E+00
        -11   -1    0    0    0    0  0.00000000000E+00  0.00000000000E+00  0.45593999997E+02  0.45594000000E+02  0.51100000000E-03 0.  1.
         11   -1    0    0    0    0 -0.00000000000E+00 -0.00000000000E+00 -0.45593999997E+02  0.45594000000E+02  0.51100000000E-03 0. -1.
    9900012    2    1    2    0    0 -0.11384107092E+02 -0.54178679435E+01 -0.29287697344E+02  0.59301946574E+02  0.50000004644E+02 0.  0.
        -12    1    1    2    0    0  0.11384107092E+02  0.54178679435E+01  0.29287697344E+02  0.31886053426E+02  0.00000000000E+00 0.  1.
         11    1    3    3    0    0  0.57578718031E+01  0.16078607219E+02 -0.91228939374E+00  0.17102835145E+02  0.51100000000E-03 0.  1.
        -11    1    3    3    0    0 -0.42404853049E+01 -0.93069128369E+01 -0.20211807948E+01  0.10425234493E+02  0.51100000000E-03 0. -1.
         12    1    3    3    0    0 -0.12901493590E+02 -0.12189562326E+02 -0.26354227156E+02  0.31773876936E+02  0.00000000000E+00 0. -1.
</event>
<event>
 7    1  0.6180395E-013  0.5930198E+02  0.7816164E-02  0.1266605E+00
        -11   -1    0    0    0    0  0.00000000000E+00  0.00000000000E+00  0.45593999997E+02  0.45594000000E+02  0.51100000000E-03 0. -1.
         11   -1    0    0    0    0 -0.00000000000E+00 -0.00000000000E+00 -0.45593999997E+02  0.45594000000E+02  0.51100000000E-03 0.  1.
    9900012    2    1    2    0    0  0.10372752951E+02 -0.18589505495E+02  0.23739306595E+02  0.59301978047E+02  0.50000062044E+02 0.  0.
        -12    1    1    2    0    0 -0.10372752951E+02  0.18589505495E+02 -0.23739306595E+02  0.31886021953E+02  0.00000000000E+00 0.  1.
         11    1    3    3    0    0 -0.95107710114E+01 -0.19092711786E+02  0.23189502037E+02  0.31507767511E+02  0.51100000000E-03 0. -1.
        -11    1    3    3    0    0  0.79408211007E+01  0.98021231448E+01 -0.47149789764E+00  0.12623809585E+02  0.51100000000E-03 0.  1.
         12    1    3    3    0    0  0.11942702862E+02 -0.92989168546E+01  0.10213024555E+01  0.15170400951E+02  0.00000000000E+00 0. -1.
</event>
<event>
 7    1  0.6180395E-013  0.5930195E+02  0.7816164E-02  0.1266605E+00
        -11   -1    0    0    0    0  0.00000000000E+00  0.00000000000E+00  0.45593999997E+02  0.45594000000E+02  0.51100000000E-03 0. -1.
         11   -1    0    0    0    0 -0.00000000000E+00 -0.00000000000E+00 -0.45593999997E+02  0.45594000000E+02  0.51100000000E-03 0.  1.
    9900012    2    1    2    0    0 -0.12884333437E+02 -0.28927574216E+02 -0.37295584419E+01  0.59301949691E+02  0.50000010328E+02 0.  0.
        -12    1    1    2    0    0  0.12884333437E+02  0.28927574216E+02  0.37295584419E+01  0.31886050309E+02  0.00000000000E+00 0.  1.
         11    1    3    3    0    0 -0.10056331308E+02 -0.27553979254E+02 -0.16414828814E+02  0.33612470563E+02  0.51100000000E-03 0. -1.
        -11    1    3    3    0    0  0.54570374348E+01 -0.30785409515E+00  0.15842951229E+02  0.16759270140E+02  0.51100000000E-03 0.  1.
         12    1    3    3    0    0 -0.82850395635E+01 -0.10657408668E+01 -0.31576808575E+01  0.89302089876E+01  0.00000000000E+00 0. -1.
</event>
<event>
 7    1  0.6180395E-013  0.5930179E+02  0.7816164E-02  0.1266605E+00
        -11   -1    0    0    0    0  0.00000000000E+00  0.00000000000E+00  0.45593999997E+02  0.45594000000E+02  0.51100000000E-03 0. -1.
         11   -1    0    0    0    0 -0.00000000000E+00 -0.00000000000E+00 -0.45593999997E+02  0.45594000000E+02  0.51100000000E-03 0.  1.
    9900012    2    1    2    0    0  0.13792567136E+02  0.90050252064E+00  0.28734724569E+02  0.59301792809E+02  0.49999724213E+02 0.  0.
        -12    1    1    2    0    0 -0.13792567136E+02 -0.90050252064E+00 -0.28734724569E+02  0.31886207191E+02  0.00000000000E+00 0.  1.
         11    1    3    3    0    0  0.20499916066E+00  0.12875474016E+01  0.31161943054E+01  0.33779387468E+01  0.51100000000E-03 0. -1.
        -11    1    3    3    0    0  0.24121814370E+02  0.49756757308E+01 -0.31416551317E+01  0.24829202056E+02  0.51100000000E-03 0.  1.
        -12    1    3    3    0    0 -0.10534246395E+02 -0.53627206117E+01  0.28760185395E+02  0.31094652007E+02  0.00000000000E+00 0.  1.
</event>
<event>
 7    1  0.6180395E-013  0.5930194E+02  0.7816164E-02  0.1266605E+00
        -11   -1    0    0    0    0  0.00000000000E+00  0.00000000000E+00  0.45593999997E+02  0.45594000000E+02  0.51100000000E-03 0. -1.
         11   -1    0    0    0    0 -0.00000000000E+00 -0.00000000000E+00 -0.45593999997E+02  0.45594000000E+02  0.51100000000E-03 0.  1.
    9900012    2    1    2    0    0 -0.79005817364E+00 -0.30685598437E+02  0.86307892416E+01  0.59301942446E+02  0.49999997116E+02 0.  0.
        -12    1    1    2    0    0  0.79005817364E+00  0.30685598437E+02 -0.86307892416E+01  0.31886057554E+02  0.00000000000E+00 0.  1.
         11    1    3    3    0    0  0.14051466901E+02 -0.10687289324E+02  0.11962878647E+02  0.21325391930E+02  0.51100000000E-03 0. -1.
        -11    1    3    3    0    0 -0.14784983194E+02  0.19240601851E+01  0.28922932527E+01  0.15187596787E+02  0.51100000000E-03 0.  1.
         12    1    3    3    0    0 -0.56541880511E-01 -0.21922369298E+02 -0.62243826583E+01  0.22788953730E+02  0.00000000000E+00 0. -1.
</event>
<event>
 7    1  0.7511145E-013  0.5930196E+02  0.7816164E-02  0.1266605E+00
        -11   -1    0    0    0    0  0.00000000000E+00  0.00000000000E+00  0.45593999997E+02  0.45594000000E+02  0.51100000000E-03 0. -1.
         11   -1    0    0    0    0 -0.00000000000E+00 -0.00000000000E+00 -0.45593999997E+02  0.45594000000E+02  0.51100000000E-03 0.  1.
    9900012    2    1    2    0    0  0.76814743620E+01  0.10398125832E+02  0.29147790965E+02  0.59301956230E+02  0.50000022254E+02 0.  0.
        -12    1    1    2    0    0 -0.76814743620E+01 -0.10398125832E+02 -0.29147790965E+02  0.31886043770E+02  0.00000000000E+00 0.  1.
         11    1    3    3    0    0  0.87134732029E+01  0.28358898403E+01  0.34601839008E+02  0.35794610620E+02  0.51100000000E-03 0. -1.
        -11    1    3    3    0    0  0.80854191982E+01  0.10947025586E+01 -0.86401240652E+01  0.11883775554E+02  0.51100000000E-03 0.  1.
        -12    1    3    3    0    0 -0.91174180392E+01  0.64675334332E+01  0.31860760216E+01  0.11623570055E+02  0.00000000000E+00 0.  1.
</event>
<event>
 7    1  0.6180395E-013  0.5930192E+02  0.7816164E-02  0.1266605E+00
        -11   -1    0    0    0    0  0.00000000000E+00  0.00000000000E+00  0.45593999997E+02  0.45594000000E+02  0.51100000000E-03 0. -1.
         11   -1    0    0    0    0 -0.00000000000E+00 -0.00000000000E+00 -0.45593999997E+02  0.45594000000E+02  0.51100000000E-03 0.  1.
    9900012    2    1    2    0    0 -0.15460116751E+02 -0.98337655232E+01 -0.26096046864E+02  0.59301924414E+02  0.49999964229E+02 0.  0.
        -12    1    1    2    0    0  0.15460116751E+02  0.98337655232E+01  0.26096046864E+02  0.31886075586E+02  0.00000000000E+00 0.  1.
         11    1    3    3    0    0 -0.73178076325E+01  0.13108678841E+02 -0.15401015146E+02  0.21507650668E+02  0.51100000000E-03 0. -1.
        -11    1    3    3    0    0 -0.12212542618E+02 -0.25518258827E+02 -0.14374852497E+02  0.31732697890E+02  0.51100000000E-03 0.  1.
         12    1    3    3    0    0  0.40702334993E+01  0.25758144636E+01  0.36798207788E+01  0.60615758557E+01  0.00000000000E+00 0. -1.
</event>
<event>
 7    1  0.6180395E-013  0.5930191E+02  0.7816164E-02  0.1266605E+00
        -11   -1    0    0    0    0  0.00000000000E+00  0.00000000000E+00  0.45593999997E+02  0.45594000000E+02  0.51100000000E-03 0. -1.
         11   -1    0    0    0    0 -0.00000000000E+00 -0.00000000000E+00 -0.45593999997E+02  0.45594000000E+02  0.51100000000E-03 0.  1.
    9900012    2    1    2    0    0 -0.76791424354E+01  0.11136869789E+01  0.30927548039E+02  0.59301909695E+02  0.49999937385E+02 0.  0.
        -12    1    1    2    0    0  0.76791424354E+01 -0.11136869789E+01 -0.30927548039E+02  0.31886090305E+02  0.00000000000E+00 0.  1.
         11    1    3    3    0    0  0.82348861948E+01 -0.10991234716E+02 -0.39564208508E+01  0.14292440569E+02  0.51100000000E-03 0.  1.
        -11    1    3    3    0    0  0.37864137473E+01  0.53381504923E+01  0.14291385486E+02  0.15718666582E+02  0.51100000000E-03 0. -1.
         12    1    3    3    0    0 -0.19700442377E+02  0.67667712025E+01  0.20592583404E+02  0.29290802543E+02  0.00000000000E+00 0. -1.
</event>
<event>
 7    1  0.6180395E-013  0.5930190E+02  0.7816164E-02  0.1266605E+00
        -11   -1    0    0    0    0  0.00000000000E+00  0.00000000000E+00  0.45593999997E+02  0.45594000000E+02  0.51100000000E-03 0.  1.
         11   -1    0    0    0    0 -0.00000000000E+00 -0.00000000000E+00 -0.45593999997E+02  0.45594000000E+02  0.51100000000E-03 0. -1.
    9900012    2    1    2    0    0  0.10609610988E+02  0.24471351495E+02 -0.17473196998E+02  0.59301897971E+02  0.49999916003E+02 0.  0.
        -12    1    1    2    0    0 -0.10609610988E+02 -0.24471351495E+02  0.17473196998E+02  0.31886102029E+02  0.00000000000E+00 0.  1.
         11    1    3    3    0    0  0.17236125679E+02  0.22495218239E+02 -0.15606719631E+02  0.32352566667E+02  0.51100000000E-03 0. -1.
        -11    1    3    3    0    0 -0.51216237958E+01  0.21598284871E+01  0.11881828539E+02  0.13117688024E+02  0.51100000000E-03 0.  1.
        -12    1    3    3    0    0 -0.15048908956E+01 -0.18369523085E+00 -0.13748305905E+02  0.13831643279E+02  0.00000000000E+00 0.  1.
</event>
<event>
 7    1  0.6180395E-013  0.5930193E+02  0.7816164E-02  0.1266605E+00
        -11   -1    0    0    0    0  0.00000000000E+00  0.00000000000E+00  0.45593999997E+02  0.45594000000E+02  0.51100000000E-03 0.  1.
         11   -1    0    0    0    0 -0.00000000000E+00 -0.00000000000E+00 -0.45593999997E+02  0.45594000000E+02  0.51100000000E-03 0. -1.
    9900012    2    1    2    0    0 -0.29400093147E+02 -0.18961265709E+01 -0.12196745870E+02  0.59301931210E+02  0.49999976624E+02 0.  0.
        -12    1    1    2    0    0  0.29400093147E+02  0.18961265709E+01  0.12196745870E+02  0.31886068790E+02  0.00000000000E+00 0.  1.
         11    1    3    3    0    0 -0.20283804952E+02 -0.14580601379E+02 -0.21633958754E+02  0.33046253214E+02  0.51100000000E-03 0. -1.
        -11    1    3    3    0    0 -0.86323918440E+01  0.63396252136E+01  0.14568136100E+02  0.18081471912E+02  0.51100000000E-03 0.  1.
         12    1    3    3    0    0 -0.48389635149E+00  0.63448495948E+01 -0.51309232162E+01  0.81742060844E+01  0.00000000000E+00 0. -1.
</event>
<event>
 7    1  0.6180395E-013  0.5930196E+02  0.7816164E-02  0.1266605E+00
        -11   -1    0    0    0    0  0.00000000000E+00  0.00000000000E+00  0.45593999997E+02  0.45594000000E+02  0.51100000000E-03 0. -1.
         11   -1    0    0    0    0 -0.00000000000E+00 -0.00000000000E+00 -0.45593999997E+02  0.45594000000E+02  0.51100000000E-03 0.  1.
    9900012    2    1    2    0    0 -0.38446814321E+01 -0.30100044312E+02 -0.97941589730E+01  0.59301956142E+02  0.50000022094E+02 0.  0.
        -12    1    1    2    0    0  0.38446814321E+01  0.30100044312E+02  0.97941589730E+01  0.31886043858E+02  0.00000000000E+00 0.  1.
         11    1    3    3    0    0  0.48640862436E+01 -0.28377729376E+02  0.79552737880E+01  0.29870407444E+02  0.51100000000E-03 0. -1.
        -11    1    3    3    0    0 -0.72953605337E+00  0.94345447692E+01 -0.95850020407E+01  0.13469043108E+02  0.51100000000E-03 0.  1.
         12    1    3    3    0    0 -0.79792316223E+01 -0.11156859705E+02 -0.81644307202E+01  0.15962505591E+02  0.00000000000E+00 0. -1.
</event>
<event>
 7    1  0.6180395E-013  0.5930193E+02  0.7816164E-02  0.1266605E+00
        -11   -1    0    0    0    0  0.00000000000E+00  0.00000000000E+00  0.45593999997E+02  0.45594000000E+02  0.51100000000E-03 0. -1.
         11   -1    0    0    0    0 -0.00000000000E+00 -0.00000000000E+00 -0.45593999997E+02  0.45594000000E+02  0.51100000000E-03 0.  1.
    9900012    2    1    2    0    0 -0.18086420345E+02 -0.26251374637E+02 -0.68404589745E+00  0.59301934234E+02  0.49999982138E+02 0.  0.
        -12    1    1    2    0    0  0.18086420345E+02  0.26251374637E+02  0.68404589745E+00  0.31886065766E+02  0.00000000000E+00 0.  1.
         11    1    3    3    0    0 -0.23106118049E+02 -0.26594546329E+01 -0.49363198436E+01  0.23776724839E+02  0.51100000000E-03 0. -1.
        -11    1    3    3    0    0  0.89810949193E+01 -0.59490867149E+01  0.11758312339E+02  0.15947087760E+02  0.51100000000E-03 0.  1.
        -12    1    3    3    0    0 -0.39613972163E+01 -0.17642833290E+02 -0.75060383929E+01  0.19578121635E+02  0.00000000000E+00 0.  1.
</event>
<event>
 7    1  0.6180395E-013  0.5930192E+02  0.7816164E-02  0.1266605E+00
        -11   -1    0    0    0    0  0.00000000000E+00  0.00000000000E+00  0.45593999997E+02  0.45594000000E+02  0.51100000000E-03 0. -1.
         11   -1    0    0    0    0 -0.00000000000E+00 -0.00000000000E+00 -0.45593999997E+02  0.45594000000E+02  0.51100000000E-03 0.  1.
    9900012    2    1    2    0    0  0.24919418465E+02  0.16973142984E+02  0.10375805858E+02  0.59301916098E+02  0.49999949063E+02 0.  0.
        -12    1    1    2    0    0 -0.24919418465E+02 -0.16973142984E+02 -0.10375805858E+02  0.31886083902E+02  0.00000000000E+00 0.  1.
         11    1    3    3    0    0  0.17108819342E+02  0.25537262730E+01 -0.40034954615E+01  0.17755596113E+02  0.51100000000E-03 0. -1.
        -11    1    3    3    0    0 -0.90988157156E+01 -0.71484874820E+01  0.44242232090E+01  0.12388021310E+02  0.51100000000E-03 0.  1.
        -12    1    3    3    0    0  0.16909414838E+02  0.21567904193E+02  0.99550781106E+01  0.29158298675E+02  0.00000000000E+00 0.  1.
</event>
<event>
 7    1  0.6180395E-013  0.5930197E+02  0.7816164E-02  0.1266605E+00
        -11   -1    0    0    0    0  0.00000000000E+00  0.00000000000E+00  0.45593999997E+02  0.45594000000E+02  0.51100000000E-03 0.  1.
         11   -1    0    0    0    0 -0.00000000000E+00 -0.00000000000E+00 -0.45593999997E+02  0.45594000000E+02  0.51100000000E-03 0. -1.
    9900012    2    1    2    0    0  0.15749617726E+02 -0.26442729723E+02 -0.83337092904E+01  0.59301966627E+02  0.50000041216E+02 0.  0.
        -12    1    1    2    0    0 -0.15749617726E+02  0.26442729723E+02  0.83337092904E+01  0.31886033373E+02  0.00000000000E+00 0.  1.
         11    1    3    3    0    0  0.16464286432E+02 -0.35919513033E+02 -0.23176363070E+01  0.39581000272E+02  0.51100000000E-03 0. -1.
        -11    1    3    3    0    0 -0.58954491573E+01  0.82216894831E+01 -0.90614929824E+01  0.13581721321E+02  0.51100000000E-03 0.  1.
        -12    1    3    3    0    0  0.51807804520E+01  0.12550938271E+01  0.30454199990E+01  0.61392450331E+01  0.00000000000E+00 0.  1.
</event>
<event>
 7    1  0.6180395E-013  0.5930201E+02  0.7816164E-02  0.1266605E+00
        -11   -1    0    0    0    0  0.00000000000E+00  0.00000000000E+00  0.45593999997E+02  0.45594000000E+02  0.51100000000E-03 0.  1.
         11   -1    0    0    0    0 -0.00000000000E+00 -0.00000000000E+00 -0.45593999997E+02  0.45594000000E+02  0.51100000000E-03 0. -1.
    9900012    2    1    2    0    0  0.19290637017E+02  0.23293083594E+02 -0.10100504623E+02  0.59302005998E+02  0.50000113019E+02 0.  0.
        -12    1    1    2    0    0 -0.19290637017E+02 -0.23293083594E+02  0.10100504623E+02  0.31885994002E+02  0.00000000000E+00 0.  1.
         11    1    3    3    0    0  0.68506795835E+01  0.19229534599E+02 -0.21481904561E+02  0.29634085704E+02  0.51100000000E-03 0. -1.
        -11    1    3    3    0    0  0.12175499472E+02 -0.77938740994E+01  0.10316179184E+02  0.17759808954E+02  0.51100000000E-03 0.  1.
        -12    1    3    3    0    0  0.26445796199E+00  0.11857423094E+02  0.10652207551E+01  0.11908111341E+02  0.00000000000E+00 0.  1.
</event>
<event>
 7    1  0.6180395E-013  0.5930198E+02  0.7816164E-02  0.1266605E+00
        -11   -1    0    0    0    0  0.00000000000E+00  0.00000000000E+00  0.45593999997E+02  0.45594000000E+02  0.51100000000E-03 0.  1.
         11   -1    0    0    0    0 -0.00000000000E+00 -0.00000000000E+00 -0.45593999997E+02  0.45594000000E+02  0.51100000000E-03 0. -1.
    9900012    2    1    2    0    0  0.23572441830E+02 -0.31581169632E+01 -0.21238745328E+02  0.59301983948E+02  0.50000072805E+02 0.  0.
        -12    1    1    2    0    0 -0.23572441830E+02  0.31581169632E+01  0.21238745328E+02  0.31886016052E+02  0.00000000000E+00 0.  1.
         11    1    3    3    0    0  0.36539011125E+02 -0.37438970846E+01 -0.20159797220E+02  0.41899087383E+02  0.51100000000E-03 0. -1.
        -11    1    3    3    0    0 -0.61778265403E+00  0.33705183834E+01  0.25070878970E+01  0.42458850155E+01  0.51100000000E-03 0.  1.
         12    1    3    3    0    0 -0.12348786640E+02 -0.27847382619E+01 -0.35860360045E+01  0.13157011549E+02  0.00000000000E+00 0. -1.
</event>
<event>
 7    1  0.6180395E-013  0.5930195E+02  0.7816164E-02  0.1266605E+00
        -11   -1    0    0    0    0  0.00000000000E+00  0.00000000000E+00  0.45593999997E+02  0.45594000000E+02  0.51100000000E-03 0.  1.
         11   -1    0    0    0    0 -0.00000000000E+00 -0.00000000000E+00 -0.45593999997E+02  0.45594000000E+02  0.51100000000E-03 0. -1.
    9900012    2    1    2    0    0  0.25196671979E+02 -0.14539716664E+02 -0.13055448377E+02  0.59301947064E+02  0.50000005538E+02 0.  0.
        -12    1    1    2    0    0 -0.25196671979E+02  0.14539716664E+02  0.13055448377E+02  0.31886052936E+02  0.00000000000E+00 0.  1.
         11    1    3    3    0    0  0.35825429555E+02 -0.85004193478E+01 -0.16874246144E+02  0.40502576647E+02  0.51100000000E-03 0. -1.
        -11    1    3    3    0    0 -0.71535108151E+01 -0.18319734077E+01  0.87464319808E+01  0.11446786283E+02  0.51100000000E-03 0.  1.
         12    1    3    3    0    0 -0.34752467602E+01 -0.42073239080E+01 -0.49276342134E+01  0.73525841343E+01  0.00000000000E+00 0. -1.
</event>
<event>
 7    1  0.6180395E-013  0.5930194E+02  0.7816164E-02  0.1266605E+00
        -11   -1    0    0    0    0  0.00000000000E+00  0.00000000000E+00  0.45593999997E+02  0.45594000000E+02  0.51100000000E-03 0. -1.
         11   -1    0    0    0    0 -0.00000000000E+00 -0.00000000000E+00 -0.45593999997E+02  0.45594000000E+02  0.51100000000E-03 0.  1.
    9900012    2    1    2    0    0 -0.24493863554E+01  0.31781244389E+02 -0.82073889780E+00  0.59301943474E+02  0.49999998990E+02 0.  0.
        -12    1    1    2    0    0  0.24493863554E+01 -0.31781244389E+02  0.82073889780E+00  0.31886056526E+02  0.00000000000E+00 0.  1.
         11    1    3    3    0    0 -0.16428315667E+02  0.35192452990E+02  0.81891142081E+01  0.39692063374E+02  0.51100000000E-03 0. -1.
        -11    1    3    3    0    0  0.14497556995E+02 -0.62299924889E+00 -0.81665582407E+01  0.16651124907E+02  0.51100000000E-03 0.  1.
         12    1    3    3    0    0 -0.51862768369E+00 -0.27882093520E+01 -0.84329486518E+00  0.29587551934E+01  0.00000000000E+00 0. -1.
</event>
<event>
 7    1  0.6180395E-013  0.5930169E+02  0.7816164E-02  0.1266606E+00
        -11   -1    0    0    0    0  0.00000000000E+00  0.00000000000E+00  0.45593999997E+02  0.45594000000E+02  0.51100000000E-03 0.  1.
         11   -1    0    0    0    0 -0.00000000000E+00 -0.00000000000E+00 -0.45593999997E+02  0.45594000000E+02  0.51100000000E-03 0. -1.
    9900012    2    1    2    0    0 -0.26113377161E+02  0.14857539853E+02 -0.10680914331E+02  0.59301688075E+02  0.49999533202E+02 0.  0.
        -12    1    1    2    0    0  0.26113377161E+02 -0.14857539853E+02  0.10680914331E+02  0.31886311925E+02  0.00000000000E+00 0.  1.
         11    1    3    3    0    0 -0.26996818440E+02  0.20612496245E+02  0.31375771973E+01  0.34110813509E+02  0.51100000000E-03 0. -1.
        -11    1    3    3    0    0 -0.49163364762E+01  0.30589571452E+01  0.20434668451E+01  0.61403045667E+01  0.51100000000E-03 0.  1.
         12    1    3    3    0    0  0.57997777553E+01 -0.88139135371E+01 -0.15861958374E+02  0.19050569999E+02  0.00000000000E+00 0. -1.
</event>
<event>
 7    1  0.6180395E-013  0.5930193E+02  0.7816164E-02  0.1266605E+00
        -11   -1    0    0    0    0  0.00000000000E+00  0.00000000000E+00  0.45593999997E+02  0.45594000000E+02  0.51100000000E-03 0.  1.
         11   -1    0    0    0    0 -0.00000000000E+00 -0.00000000000E+00 -0.45593999997E+02  0.45594000000E+02  0.51100000000E-03 0. -1.
    9900012    2    1    2    0    0 -0.17044032734E+02  0.10077591110E+01  0.26929659554E+02  0.59301934173E+02  0.49999982027E+02 0.  0.
        -12    1    1    2    0    0  0.17044032734E+02 -0.10077591110E+01 -0.26929659554E+02  0.31886065827E+02  0.00000000000E+00 0.  1.
         11    1    3    3    0    0 -0.82785858024E+01 -0.11742986739E+02  0.10060592701E+02  0.17539904395E+02  0.51100000000E-03 0. -1.
        -11    1    3    3    0    0 -0.18254442085E+02  0.19219566642E+02  0.13754110658E+02  0.29862885962E+02  0.51100000000E-03 0.  1.
         12    1    3    3    0    0  0.94889951534E+01 -0.64688207911E+01  0.31149561954E+01  0.11899143816E+02  0.00000000000E+00 0. -1.
</event>
<event>
 7    1  0.6180395E-013  0.5930208E+02  0.7816164E-02  0.1266604E+00
        -11   -1    0    0    0    0  0.00000000000E+00  0.00000000000E+00  0.45593999997E+02  0.45594000000E+02  0.51100000000E-03 0.  1.
         11   -1    0    0    0    0 -0.00000000000E+00 -0.00000000000E+00 -0.45593999997E+02  0.45594000000E+02  0.51100000000E-03 0. -1.
    9900012    2    1    2    0    0  0.31280693347E+02  0.56280211849E+01 -0.25603202436E+01  0.59302084011E+02  0.50000255294E+02 0.  0.
        -12    1    1    2    0    0 -0.31280693347E+02 -0.56280211849E+01  0.25603202436E+01  0.31885915989E+02  0.00000000000E+00 0.  1.
         11    1    3    3    0    0  0.98177662443E+01  0.72877372102E+01 -0.13285933437E+01  0.12298975901E+02  0.51100000000E-03 0. -1.
        -11    1    3    3    0    0 -0.59898552710E+01 -0.97850906051E+01 -0.11825197855E+02  0.16476093860E+02  0.51100000000E-03 0.  1.
        -12    1    3    3    0    0  0.27452782374E+02  0.81253745798E+01  0.10593470955E+02  0.30527014250E+02  0.00000000000E+00 0.  1.
</event>
<event>
 7    1  0.6180395E-013  0.5930195E+02  0.7816164E-02  0.1266605E+00
        -11   -1    0    0    0    0  0.00000000000E+00  0.00000000000E+00  0.45593999997E+02  0.45594000000E+02  0.51100000000E-03 0.  1.
         11   -1    0    0    0    0 -0.00000000000E+00 -0.00000000000E+00 -0.45593999997E+02  0.45594000000E+02  0.51100000000E-03 0. -1.
    9900012    2    1    2    0    0  0.16452339916E+02 -0.15325307166E+02 -0.22609188670E+02  0.59301953824E+02  0.50000017866E+02 0.  0.
        -12    1    1    2    0    0 -0.16452339916E+02  0.15325307166E+02  0.22609188670E+02  0.31886046176E+02  0.00000000000E+00 0.  1.
         11    1    3    3    0    0 -0.87616761736E+01 -0.10021053575E+00 -0.19671202187E+02  0.21534465567E+02  0.51100000000E-03 0. -1.
        -11    1    3    3    0    0  0.27356089630E+02 -0.18828738589E+02 -0.39813147013E+01  0.33447390088E+02  0.51100000000E-03 0.  1.
         12    1    3    3    0    0 -0.21420735406E+01  0.36036419585E+01  0.10433282185E+01  0.43200981690E+01  0.00000000000E+00 0. -1.
</event>
<event>
 7    1  0.6180395E-013  0.5930208E+02  0.7816164E-02  0.1266604E+00
        -11   -1    0    0    0    0  0.00000000000E+00  0.00000000000E+00  0.45593999997E+02  0.45594000000E+02  0.51100000000E-03 0.  1.
         11   -1    0    0    0    0 -0.00000000000E+00 -0.00000000000E+00 -0.45593999997E+02  0.45594000000E+02  0.51100000000E-03 0. -1.
    9900012    2    1    2    0    0 -0.26968187193E+02  0.56718969279E+01 -0.16039283906E+02  0.59302075778E+02  0.50000240281E+02 0.  0.
        -12    1    1    2    0    0  0.26968187193E+02 -0.56718969279E+01  0.16039283906E+02  0.31885924222E+02  0.00000000000E+00 0.  1.
         11    1    3    3    0    0 -0.34990995467E+02  0.15108804274E+02 -0.15857011601E+02  0.41280631627E+02  0.51100000000E-03 0. -1.
        -11    1    3    3    0    0  0.34793016755E+00 -0.97857303704E+01 -0.22872370118E+01  0.10055497387E+02  0.51100000000E-03 0.  1.
         12    1    3    3    0    0  0.76748781061E+01  0.34882302436E+00  0.21049647064E+01  0.79659467649E+01  0.00000000000E+00 0. -1.
</event>
<event>
 7    1  0.6180395E-013  0.5930194E+02  0.7816164E-02  0.1266605E+00
        -11   -1    0    0    0    0  0.00000000000E+00  0.00000000000E+00  0.45593999997E+02  0.45594000000E+02  0.51100000000E-03 0. -1.
         11   -1    0    0    0    0 -0.00000000000E+00 -0.00000000000E+00 -0.45593999997E+02  0.45594000000E+02  0.51100000000E-03 0.  1.
    9900012    2    1    2    0    0  0.17847290950E+02 -0.15747042524E+02  0.21218518853E+02  0.59301942156E+02  0.49999996587E+02 0.  0.
        -12    1    1    2    0    0 -0.17847290950E+02  0.15747042524E+02 -0.21218518853E+02  0.31886057844E+02  0.00000000000E+00 0.  1.
         11    1    3    3    0    0  0.26475797128E+02 -0.17780403148E+01  0.14576166423E+02  0.30275301629E+02  0.51100000000E-03 0. -1.
        -11    1    3    3    0    0 -0.24727473260E+00 -0.78840379490E+01 -0.79060910965E+01  0.11168056047E+02  0.51100000000E-03 0.  1.
         12    1    3    3    0    0 -0.83812314451E+01 -0.60849642597E+01  0.14548443527E+02  0.17858584480E+02  0.00000000000E+00 0. -1.
</event>
<event>
 7    1  0.6180395E-013  0.5930183E+02  0.7816164E-02  0.1266605E+00
        -11   -1    0    0    0    0  0.00000000000E+00  0.00000000000E+00  0.45593999997E+02  0.45594000000E+02  0.51100000000E-03 0.  1.
         11   -1    0    0    0    0 -0.00000000000E+00 -0.00000000000E+00 -0.45593999997E+02  0.45594000000E+02  0.51100000000E-03 0. -1.
    9900012    2    1    2    0    0  0.33347461541E+01  0.55368961108E+01 -0.31224188278E+02  0.59301832403E+02  0.49999796422E+02 0.  0.
        -12    1    1    2    0    0 -0.33347461541E+01 -0.55368961108E+01  0.31224188278E+02  0.31886167597E+02  0.00000000000E+00 0.  1.
         11    1    3    3    0    0 -0.38257823774E+01 -0.47816052208E+00 -0.10509066164E+02  0.11194003760E+02  0.51100000000E-03 0. -1.
        -11    1    3    3    0    0 -0.19167021481E+01  0.15408532339E+02  0.73294778949E+01  0.17170260989E+02  0.51100000000E-03 0.  1.
        -12    1    3    3    0    0  0.90772306795E+01 -0.93934757063E+01 -0.28044600008E+02  0.30937567653E+02  0.00000000000E+00 0.  1.
</event>
<event>
 7    1  0.6180395E-013  0.5930203E+02  0.7816164E-02  0.1266604E+00
        -11   -1    0    0    0    0  0.00000000000E+00  0.00000000000E+00  0.45593999997E+02  0.45594000000E+02  0.51100000000E-03 0.  1.
         11   -1    0    0    0    0 -0.00000000000E+00 -0.00000000000E+00 -0.45593999997E+02  0.45594000000E+02  0.51100000000E-03 0. -1.
    9900012    2    1    2    0    0 -0.52541214693E+00 -0.42413963127E+01 -0.31598257375E+02  0.59302025501E+02  0.50000148588E+02 0.  0.
        -12    1    1    2    0    0  0.52541214693E+00  0.42413963127E+01  0.31598257375E+02  0.31885974499E+02  0.00000000000E+00 0.  1.
         11    1    3    3    0    0 -0.19599646271E+02 -0.70054839425E+01 -0.30014864017E+02  0.36525539030E+02  0.51100000000E-03 0. -1.
        -11    1    3    3    0    0  0.88452580891E+01 -0.35169258519E+01  0.29191538315E+01  0.99563455878E+01  0.51100000000E-03 0.  1.
        -12    1    3    3    0    0  0.10228976035E+02  0.62810134818E+01 -0.45025471889E+01  0.12820140883E+02  0.00000000000E+00 0.  1.
</event>
<event>
 7    1  0.6180395E-013  0.5930195E+02  0.7816164E-02  0.1266605E+00
        -11   -1    0    0    0    0  0.00000000000E+00  0.00000000000E+00  0.45593999997E+02  0.45594000000E+02  0.51100000000E-03 0.  1.
         11   -1    0    0    0    0 -0.00000000000E+00 -0.00000000000E+00 -0.45593999997E+02  0.45594000000E+02  0.51100000000E-03 0. -1.
    9900012    2    1    2    0    0  0.26958874805E+02  0.16110698272E+02 -0.55121993058E+01  0.59301954921E+02  0.50000019867E+02 0.  0.
        -12    1    1    2    0    0 -0.26958874805E+02 -0.16110698272E+02  0.55121993058E+01  0.31886045079E+02  0.00000000000E+00 0.  1.
         11    1    3    3    0    0 -0.73987007412E+01  0.85049621065E+01 -0.17475669452E+02  0.20796013468E+02  0.51100000000E-03 0. -1.
        -11    1    3    3    0    0  0.23850226253E+02  0.95152139847E+00  0.55217473104E+01  0.24499558749E+02  0.51100000000E-03 0.  1.
         12    1    3    3    0    0  0.10507349294E+02  0.66542147672E+01  0.64417228362E+01  0.14006382704E+02  0.00000000000E+00 0. -1.
</event>
<event>
 7    1  0.6180395E-013  0.5930193E+02  0.7816164E-02  0.1266605E+00
        -11   -1    0    0    0    0  0.00000000000E+00  0.00000000000E+00  0.45593999997E+02  0.45594000000E+02  0.51100000000E-03 0.  1.
         11   -1    0    0    0    0 -0.00000000000E+00 -0.00000000000E+00 -0.45593999997E+02  0.45594000000E+02  0.51100000000E-03 0. -1.
    9900012    2    1    2    0    0  0.27917440165E+02  0.12427728054E+02 -0.91043752285E+01  0.59301928774E+02  0.49999972181E+02 0.  0.
        -12    1    1    2    0    0 -0.27917440165E+02 -0.12427728054E+02  0.91043752285E+01  0.31886071226E+02  0.00000000000E+00 0.  1.
         11    1    3    3    0    0  0.11419083473E+02  0.12199651225E+02 -0.11856561158E+02  0.20489143471E+02  0.51100000000E-03 0. -1.
        -11    1    3    3    0    0  0.94237706295E+01  0.91980901467E+00  0.18916858761E+02  0.21154220552E+02  0.51100000000E-03 0.  1.
        -12    1    3    3    0    0  0.70745860618E+01 -0.69173218647E+00 -0.16164672831E+02  0.17658564752E+02  0.00000000000E+00 0.  1.
</event>
<event>
 7    1  0.6180395E-013  0.5930193E+02  0.7816164E-02  0.1266605E+00
        -11   -1    0    0    0    0  0.00000000000E+00  0.00000000000E+00  0.45593999997E+02  0.45594000000E+02  0.51100000000E-03 0.  1.
         11   -1    0    0    0    0 -0.00000000000E+00 -0.00000000000E+00 -0.45593999997E+02  0.45594000000E+02  0.51100000000E-03 0. -1.
    9900012    2    1    2    0    0  0.21248765396E+01 -0.20333442116E+02 -0.24469523163E+02  0.59301928865E+02  0.49999972347E+02 0.  0.
        -12    1    1    2    0    0 -0.21248765396E+01  0.20333442116E+02  0.24469523163E+02  0.31886071135E+02  0.00000000000E+00 0.  1.
         11    1    3    3    0    0 -0.50034640308E+01 -0.77867229219E+01 -0.34382089721E+02  0.35606120260E+02  0.51100000000E-03 0. -1.
        -11    1    3    3    0    0 -0.26945824544E+01 -0.78436629857E+01  0.97548092311E+01  0.12803910615E+02  0.51100000000E-03 0.  1.
         12    1    3    3    0    0  0.98229230248E+01 -0.47030562084E+01  0.15775732702E+00  0.10891897990E+02  0.00000000000E+00 0. -1.
</event>
<event>
 7    1  0.6180395E-013  0.5930187E+02  0.7816164E-02  0.1266605E+00
        -11   -1    0    0    0    0  0.00000000000E+00  0.00000000000E+00  0.45593999997E+02  0.45594000000E+02  0.51100000000E-03 0. -1.
         11   -1    0    0    0    0 -0.00000000000E+00 -0.00000000000E+00 -0.45593999997E+02  0.45594000000E+02  0.51100000000E-03 0.  1.
    9900012    2    1    2    0    0 -0.75756184741E+01 -0.30970808730E+02 -0.38023247588E+00  0.59301865625E+02  0.49999857012E+02 0.  0.
        -12    1    1    2    0    0  0.75756184741E+01  0.30970808730E+02  0.38023247588E+00  0.31886134375E+02  0.00000000000E+00 0.  1.
         11    1    3    3    0    0 -0.10425953947E+02 -0.68835496734E+01 -0.55971423750E+01  0.13689842031E+02  0.51100000000E-03 0. -1.
        -11    1    3    3    0    0  0.61980303056E+01 -0.15330440346E+02  0.21318579662E+02  0.26979989250E+02  0.51100000000E-03 0.  1.
        -12    1    3    3    0    0 -0.33476948331E+01 -0.87568187109E+01 -0.16101669763E+02  0.18632034344E+02  0.00000000000E+00 0.  1.
</event>
<event>
 7    1  0.6180395E-013  0.5930199E+02  0.7816164E-02  0.1266605E+00
        -11   -1    0    0    0    0  0.00000000000E+00  0.00000000000E+00  0.45593999997E+02  0.45594000000E+02  0.51100000000E-03 0. -1.
         11   -1    0    0    0    0 -0.00000000000E+00 -0.00000000000E+00 -0.45593999997E+02  0.45594000000E+02  0.51100000000E-03 0.  1.
    9900012    2    1    2    0    0 -0.67439760023E+01 -0.12775784465E+02  0.28425615042E+02  0.59301992543E+02  0.50000088480E+02 0.  0.
        -12    1    1    2    0    0  0.67439760023E+01  0.12775784465E+02 -0.28425615042E+02  0.31886007457E+02  0.00000000000E+00 0.  1.
         11    1    3    3    0    0 -0.14767154966E+02 -0.19070732677E+02  0.14206722881E+02  0.27992725589E+02  0.51100000000E-03 0. -1.
        -11    1    3    3    0    0  0.13652243905E+02  0.17191737225E+01  0.18369420280E+02  0.22951577803E+02  0.51100000000E-03 0.  1.
         12    1    3    3    0    0 -0.56290649412E+01  0.45757744895E+01 -0.41505281187E+01  0.83576891516E+01  0.00000000000E+00 0. -1.
</event>
<event>
 7    1  0.6180395E-013  0.5930194E+02  0.7816164E-02  0.1266605E+00
        -11   -1    0    0    0    0  0.00000000000E+00  0.00000000000E+00  0.45593999997E+02  0.45594000000E+02  0.51100000000E-03 0.  1.
         11   -1    0    0    0    0 -0.00000000000E+00 -0.00000000000E+00 -0.45593999997E+02  0.45594000000E+02  0.51100000000E-03 0. -1.
    9900012    2    1    2    0    0  0.28705022773E+02  0.20455816657E+01 -0.13731653191E+02  0.59301936648E+02  0.49999986541E+02 0.  0.
        -12    1    1    2    0    0 -0.28705022773E+02 -0.20455816657E+01  0.13731653191E+02  0.31886063352E+02  0.00000000000E+00 0.  1.
         11    1    3    3    0    0  0.23630928836E+02 -0.97405792948E+01 -0.21015312875E+02  0.33089923816E+02  0.51100000000E-03 0. -1.
        -11    1    3    3    0    0 -0.74739068586E+01  0.88032692813E+01  0.65892094975E+01  0.13295657781E+02  0.51100000000E-03 0.  1.
         12    1    3    3    0    0  0.12548000795E+02  0.29828916792E+01  0.69445018684E+00  0.12916355051E+02  0.00000000000E+00 0. -1.
</event>
<event>
 7    1  0.6180395E-013  0.5930193E+02  0.7816164E-02  0.1266605E+00
        -11   -1    0    0    0    0  0.00000000000E+00  0.00000000000E+00  0.45593999997E+02  0.45594000000E+02  0.51100000000E-03 0. -1.
         11   -1    0    0    0    0 -0.00000000000E+00 -0.00000000000E+00 -0.45593999997E+02  0.45594000000E+02  0.51100000000E-03 0.  1.
    9900012    2    1    2    0    0 -0.21537210958E+00 -0.30329860344E+02  0.98373947602E+01  0.59301934873E+02  0.49999983304E+02 0.  0.
        -12    1    1    2    0    0  0.21537210958E+00  0.30329860344E+02 -0.98373947602E+01  0.31886065127E+02  0.00000000000E+00 0.  1.
         11    1    3    3    0    0  0.72820444665E+01  0.46456597742E+01  0.12783051780E+01  0.87318034070E+01  0.51100000000E-03 0. -1.
        -11    1    3    3    0    0 -0.76483253909E+01 -0.96147555967E+01  0.19421011530E+02  0.22980776653E+02  0.51100000000E-03 0.  1.
        -12    1    3    3    0    0  0.15090881490E+00 -0.25360764521E+02 -0.10861921948E+02  0.27589354813E+02  0.00000000000E+00 0.  1.
</event>
<event>
 7    1  0.6180395E-013  0.5930195E+02  0.7816164E-02  0.1266605E+00
        -11   -1    0    0    0    0  0.00000000000E+00  0.00000000000E+00  0.45593999997E+02  0.45594000000E+02  0.51100000000E-03 0. -1.
         11   -1    0    0    0    0 -0.00000000000E+00 -0.00000000000E+00 -0.45593999997E+02  0.45594000000E+02  0.51100000000E-03 0.  1.
    9900012    2    1    2    0    0 -0.49216710199E+01 -0.77760368718E+01  0.30529172483E+02  0.59301953403E+02  0.50000017099E+02 0.  0.
        -12    1    1    2    0    0  0.49216710199E+01  0.77760368718E+01 -0.30529172483E+02  0.31886046597E+02  0.00000000000E+00 0.  1.
         11    1    3    3    0    0 -0.14819216745E+02  0.44459586333E+01 -0.59125361268E+01  0.16563025594E+02  0.51100000000E-03 0. -1.
        -11    1    3    3    0    0  0.10837200874E+02 -0.89592386887E+00  0.19744532796E+02  0.22540944478E+02  0.51100000000E-03 0.  1.
        -12    1    3    3    0    0 -0.93965514837E+00 -0.11326071636E+02  0.16697175814E+02  0.20197983331E+02  0.00000000000E+00 0.  1.
</event>
<event>
 7    1  0.6180395E-013  0.5930198E+02  0.7816164E-02  0.1266605E+00
        -11   -1    0    0    0    0  0.00000000000E+00  0.00000000000E+00  0.45593999997E+02  0.45594000000E+02  0.51100000000E-03 0.  1.
         11   -1    0    0    0    0 -0.00000000000E+00 -0.00000000000E+00 -0.45593999997E+02  0.45594000000E+02  0.51100000000E-03 0. -1.
    9900012    2    1    2    0    0 -0.54625969937E+01  0.30898090295E+02 -0.56732776973E+01  0.59301983792E+02  0.50000072520E+02 0.  0.
        -12    1    1    2    0    0  0.54625969937E+01 -0.30898090295E+02  0.56732776973E+01  0.31886016208E+02  0.00000000000E+00 0.  1.
         11    1    3    3    0    0  0.13316808653E+02  0.71153341915E+01  0.95789451539E+01  0.17880759601E+02  0.51100000000E-03 0. -1.
        -11    1    3    3    0    0 -0.21363769922E+02  0.86803319390E+01 -0.74939007394E+01  0.24247007576E+02  0.51100000000E-03 0.  1.
         12    1    3    3    0    0  0.25843642748E+01  0.15102424165E+02 -0.77583221118E+01  0.17174216615E+02  0.00000000000E+00 0. -1.
</event>
<event>
 7    1  0.6180395E-013  0.5930196E+02  0.7816164E-02  0.1266605E+00
        -11   -1    0    0    0    0  0.00000000000E+00  0.00000000000E+00  0.45593999997E+02  0.45594000000E+02  0.51100000000E-03 0.  1.
         11   -1    0    0    0    0 -0.00000000000E+00 -0.00000000000E+00 -0.45593999997E+02  0.45594000000E+02  0.51100000000E-03 0. -1.
    9900012    2    1    2    0    0 -0.10513736240E+02 -0.29740845214E+02  0.46543262595E+01  0.59301964236E+02  0.50000036855E+02 0.  0.
        -12    1    1    2    0    0  0.10513736240E+02  0.29740845214E+02 -0.46543262595E+01  0.31886035764E+02  0.00000000000E+00 0.  1.
         11    1    3    3    0    0 -0.73527514449E+01  0.38076834149E+01 -0.87102149365E+01  0.12017872162E+02  0.51100000000E-03 0. -1.
        -11    1    3    3    0    0  0.10552196596E+02 -0.15538427938E+02  0.15763153761E+02  0.24520779200E+02  0.51100000000E-03 0.  1.
        -12    1    3    3    0    0 -0.13713181392E+02 -0.18010100691E+02 -0.23986125653E+01  0.22763312875E+02  0.00000000000E+00 0.  1.
</event>
<event>
 7    1  0.6180395E-013  0.5930195E+02  0.7816164E-02  0.1266605E+00
        -11   -1    0    0    0    0  0.00000000000E+00  0.00000000000E+00  0.45593999997E+02  0.45594000000E+02  0.51100000000E-03 0.  1.
         11   -1    0    0    0    0 -0.00000000000E+00 -0.00000000000E+00 -0.45593999997E+02  0.45594000000E+02  0.51100000000E-03 0. -1.
    9900012    2    1    2    0    0  0.65960969943E+00  0.58910352978E+01 -0.31330184957E+02  0.59301954913E+02  0.50000019852E+02 0.  0.
        -12    1    1    2    0    0 -0.65960969943E+00 -0.58910352978E+01  0.31330184957E+02  0.31886045087E+02  0.00000000000E+00 0.  1.
         11    1    3    3    0    0  0.14494138626E+02  0.23225505561E+02 -0.20812919908E+02  0.34390141006E+02  0.51100000000E-03 0. -1.
        -11    1    3    3    0    0 -0.29365223512E+01 -0.58686801762E+01 -0.46379972108E+01  0.80358937846E+01  0.51100000000E-03 0.  1.
         12    1    3    3    0    0 -0.10898006575E+02 -0.11465790087E+02 -0.58792678386E+01  0.16875920122E+02  0.00000000000E+00 0. -1.
</event>
<event>
 7    1  0.6180395E-013  0.5930191E+02  0.7816164E-02  0.1266605E+00
        -11   -1    0    0    0    0  0.00000000000E+00  0.00000000000E+00  0.45593999997E+02  0.45594000000E+02  0.51100000000E-03 0.  1.
         11   -1    0    0    0    0 -0.00000000000E+00 -0.00000000000E+00 -0.45593999997E+02  0.45594000000E+02  0.51100000000E-03 0. -1.
    9900012    2    1    2    0    0 -0.28953355343E+02  0.42287726155E+01 -0.12670572211E+02  0.59301910500E+02  0.49999938854E+02 0.  0.
        -12    1    1    2    0    0  0.28953355343E+02 -0.42287726155E+01  0.12670572211E+02  0.31886089500E+02  0.00000000000E+00 0.  1.
         11    1    3    3    0    0 -0.11323214651E+02  0.32612150761E+01 -0.62324293103E+01  0.13330187140E+02  0.51100000000E-03 0. -1.
        -11    1    3    3    0    0  0.81809384277E+01  0.12473708487E+02  0.46342647530E+01  0.15620421475E+02  0.51100000000E-03 0.  1.
        -12    1    3    3    0    0 -0.25811079119E+02 -0.11506150948E+02 -0.11072407654E+02  0.30351301886E+02  0.00000000000E+00 0.  1.
</event>
<event>
 7    1  0.6180395E-013  0.5930194E+02  0.7816164E-02  0.1266605E+00
        -11   -1    0    0    0    0  0.00000000000E+00  0.00000000000E+00  0.45593999997E+02  0.45594000000E+02  0.51100000000E-03 0.  1.
         11   -1    0    0    0    0 -0.00000000000E+00 -0.00000000000E+00 -0.45593999997E+02  0.45594000000E+02  0.51100000000E-03 0. -1.
    9900012    2    1    2    0    0  0.29553221381E+02  0.10573649788E+02  0.56147891911E+01  0.59301940013E+02  0.49999992678E+02 0.  0.
        -12    1    1    2    0    0 -0.29553221381E+02 -0.10573649788E+02 -0.56147891911E+01  0.31886059987E+02  0.00000000000E+00 0.  1.
         11    1    3    3    0    0  0.12651683753E+02 -0.49056684673E+01 -0.30697930279E+01  0.13912379897E+02  0.51100000000E-03 0. -1.
        -11    1    3    3    0    0 -0.83573555215E+01  0.12342838168E+01 -0.82500167206E+01  0.11808116870E+02  0.51100000000E-03 0.  1.
         12    1    3    3    0    0  0.25258893150E+02  0.14245034439E+02  0.16934598940E+02  0.33581443247E+02  0.00000000000E+00 0. -1.
</event>
<event>
 7    1  0.6180395E-013  0.5930195E+02  0.7816164E-02  0.1266605E+00
        -11   -1    0    0    0    0  0.00000000000E+00  0.00000000000E+00  0.45593999997E+02  0.45594000000E+02  0.51100000000E-03 0. -1.
         11   -1    0    0    0    0 -0.00000000000E+00 -0.00000000000E+00 -0.45593999997E+02  0.45594000000E+02  0.51100000000E-03 0.  1.
    9900012    2    1    2    0    0 -0.22770521453E+02 -0.21192702754E+02 -0.70066420216E+01  0.59301947725E+02  0.50000006743E+02 0.  0.
        -12    1    1    2    0    0  0.22770521453E+02  0.21192702754E+02  0.70066420216E+01  0.31886052275E+02  0.00000000000E+00 0.  1.
         11    1    3    3    0    0  0.15753912687E+01 -0.24297206109E+02 -0.30681096232E+01  0.24540769737E+02  0.51100000000E-03 0. -1.
        -11    1    3    3    0    0 -0.14626269516E+02  0.47536354868E+01  0.95130407522E+01  0.18083770484E+02  0.51100000000E-03 0.  1.
        -12    1    3    3    0    0 -0.97196432055E+01 -0.16491321316E+01 -0.13451573151E+02  0.16677407504E+02  0.00000000000E+00 0.  1.
</event>
<event>
 7    1  0.6180395E-013  0.5930195E+02  0.7816164E-02  0.1266605E+00
        -11   -1    0    0    0    0  0.00000000000E+00  0.00000000000E+00  0.45593999997E+02  0.45594000000E+02  0.51100000000E-03 0.  1.
         11   -1    0    0    0    0 -0.00000000000E+00 -0.00000000000E+00 -0.45593999997E+02  0.45594000000E+02  0.51100000000E-03 0. -1.
    9900012    2    1    2    0    0 -0.20458471612E+02  0.90038387335E+01 -0.22739878573E+02  0.59301948972E+02  0.50000009017E+02 0.  0.
        -12    1    1    2    0    0  0.20458471612E+02 -0.90038387335E+01  0.22739878573E+02  0.31886051028E+02  0.00000000000E+00 0.  1.
         11    1    3    3    0    0  0.45113073180E+00  0.92098485084E+00 -0.85771113976E+01  0.86382042243E+01  0.51100000000E-03 0. -1.
        -11    1    3    3    0    0 -0.12300626554E+02  0.25385949231E+02 -0.30585678588E+01  0.28374401661E+02  0.51100000000E-03 0.  1.
        -12    1    3    3    0    0 -0.86089757899E+01 -0.17303095348E+02 -0.11104199316E+02  0.22289343087E+02  0.00000000000E+00 0.  1.
</event>
<event>
 7    1  0.6180395E-013  0.5930196E+02  0.7816164E-02  0.1266605E+00
        -11   -1    0    0    0    0  0.00000000000E+00  0.00000000000E+00  0.45593999997E+02  0.45594000000E+02  0.51100000000E-03 0.  1.
         11   -1    0    0    0    0 -0.00000000000E+00 -0.00000000000E+00 -0.45593999997E+02  0.45594000000E+02  0.51100000000E-03 0. -1.
    9900012    2    1    2    0    0 -0.21228725661E+01  0.50003272404E+01 -0.31419894401E+02  0.59301958781E+02  0.50000026906E+02 0.  0.
        -12    1    1    2    0    0  0.21228725661E+01 -0.50003272404E+01  0.31419894401E+02  0.31886041219E+02  0.00000000000E+00 0.  1.
         11    1    3    3    0    0  0.12411948013E+02  0.68334811017E+01 -0.62023685172E+01  0.15466812630E+02  0.51100000000E-03 0. -1.
        -11    1    3    3    0    0 -0.79910101513E+01 -0.15984100847E+02 -0.54980513458E+01  0.18696959431E+02  0.51100000000E-03 0.  1.
        -12    1    3    3    0    0 -0.65438104279E+01  0.14150946985E+02 -0.19719474538E+02  0.25138186720E+02  0.00000000000E+00 0.  1.
</event>
<event>
 7    1  0.6180395E-013  0.5930193E+02  0.7816164E-02  0.1266605E+00
        -11   -1    0    0    0    0  0.00000000000E+00  0.00000000000E+00  0.45593999997E+02  0.45594000000E+02  0.51100000000E-03 0.  1.
         11   -1    0    0    0    0 -0.00000000000E+00 -0.00000000000E+00 -0.45593999997E+02  0.45594000000E+02  0.51100000000E-03 0. -1.
    9900012    2    1    2    0    0  0.15166341254E+02 -0.93544059471E+01 -0.26442370432E+02  0.59301925113E+02  0.49999965504E+02 0.  0.
        -12    1    1    2    0    0 -0.15166341254E+02  0.93544059471E+01  0.26442370432E+02  0.31886074887E+02  0.00000000000E+00 0.  1.
         11    1    3    3    0    0  0.28040638907E+02 -0.32108822356E+01 -0.69517299149E+01  0.29067400024E+02  0.51100000000E-03 0. -1.
        -11    1    3    3    0    0 -0.14675136830E+02 -0.56512096152E+01 -0.63457534366E+01  0.16957723846E+02  0.51100000000E-03 0.  1.
        -12    1    3    3    0    0  0.18008391765E+01 -0.49231409627E+00 -0.13144887080E+02  0.13276801243E+02  0.00000000000E+00 0.  1.
</event>
<event>
 7    1  0.6180395E-013  0.5930193E+02  0.7816164E-02  0.1266605E+00
        -11   -1    0    0    0    0  0.00000000000E+00  0.00000000000E+00  0.45593999997E+02  0.45594000000E+02  0.51100000000E-03 0. -1.
         11   -1    0    0    0    0 -0.00000000000E+00 -0.00000000000E+00 -0.45593999997E+02  0.45594000000E+02  0.51100000000E-03 0.  1.
    9900012    2    1    2    0    0  0.26823153507E+02  0.96391457102E+01  0.14294290069E+02  0.59301930586E+02  0.49999975486E+02 0.  0.
        -12    1    1    2    0    0 -0.26823153507E+02 -0.96391457102E+01 -0.14294290069E+02  0.31886069414E+02  0.00000000000E+00 0.  1.
         11    1    3    3    0    0  0.16260093456E+02 -0.19149594292E+01  0.17077572096E+02  0.23658004518E+02  0.51100000000E-03 0. -1.
        -11    1    3    3    0    0  0.80382755607E+01  0.21064554016E+02 -0.86950613853E+01  0.24164713999E+02  0.51100000000E-03 0.  1.
        -12    1    3    3    0    0  0.25247844898E+01 -0.95104488765E+01  0.59117793582E+01  0.11479212069E+02  0.00000000000E+00 0.  1.
</event>
<event>
 7    1  0.6180395E-013  0.5930193E+02  0.7816164E-02  0.1266605E+00
        -11   -1    0    0    0    0  0.00000000000E+00  0.00000000000E+00  0.45593999997E+02  0.45594000000E+02  0.51100000000E-03 0.  1.
         11   -1    0    0    0    0 -0.00000000000E+00 -0.00000000000E+00 -0.45593999997E+02  0.45594000000E+02  0.51100000000E-03 0. -1.
    9900012    2    1    2    0    0  0.94199843329E+01  0.12494472869E+02 -0.27782609806E+02  0.59301931495E+02  0.49999977142E+02 0.  0.
        -12    1    1    2    0    0 -0.94199843329E+01 -0.12494472869E+02  0.27782609806E+02  0.31886068505E+02  0.00000000000E+00 0.  1.
         11    1    3    3    0    0  0.88727958660E+01  0.52834784942E+01 -0.17436416586E+02  0.20265001236E+02  0.51100000000E-03 0. -1.
        -11    1    3    3    0    0  0.13051905257E+02  0.58614723056E+01  0.83034206344E+01  0.16542547655E+02  0.51100000000E-03 0.  1.
        -12    1    3    3    0    0 -0.12504716790E+02  0.13495220694E+01 -0.18649613855E+02  0.22494382604E+02  0.00000000000E+00 0.  1.
</event>
<event>
 7    1  0.6180395E-013  0.5930194E+02  0.7816164E-02  0.1266605E+00
        -11   -1    0    0    0    0  0.00000000000E+00  0.00000000000E+00  0.45593999997E+02  0.45594000000E+02  0.51100000000E-03 0.  1.
         11   -1    0    0    0    0 -0.00000000000E+00 -0.00000000000E+00 -0.45593999997E+02  0.45594000000E+02  0.51100000000E-03 0. -1.
    9900012    2    1    2    0    0  0.23646251082E+01  0.31791120341E+02  0.67378967863E+00  0.59301940711E+02  0.49999993951E+02 0.  0.
        -12    1    1    2    0    0 -0.23646251082E+01 -0.31791120341E+02 -0.67378967863E+00  0.31886059289E+02  0.00000000000E+00 0.  1.
         11    1    3    3    0    0  0.82739003313E+01  0.31988699303E+01 -0.10415318186E+02  0.13680973968E+02  0.51100000000E-03 0. -1.
        -11    1    3    3    0    0 -0.89535218226E+01  0.32349117524E+02  0.45725713227E-01  0.33565354887E+02  0.51100000000E-03 0.  1.
        -12    1    3    3    0    0  0.30442465996E+01 -0.37568671130E+01  0.11043382152E+02  0.12055611856E+02  0.00000000000E+00 0.  1.
</event>
<event>
 7    1  0.6180395E-013  0.5930198E+02  0.7816164E-02  0.1266605E+00
        -11   -1    0    0    0    0  0.00000000000E+00  0.00000000000E+00  0.45593999997E+02  0.45594000000E+02  0.51100000000E-03 0.  1.
         11   -1    0    0    0    0 -0.00000000000E+00 -0.00000000000E+00 -0.45593999997E+02  0.45594000000E+02  0.51100000000E-03 0. -1.
    9900012    2    1    2    0    0  0.12269334413E+02  0.29324230290E+02 -0.25041913807E+01  0.59301983888E+02  0.50000072696E+02 0.  0.
        -12    1    1    2    0    0 -0.12269334413E+02 -0.29324230290E+02  0.25041913807E+01  0.31886016112E+02  0.00000000000E+00 0.  1.
         11    1    3    3    0    0 -0.15070420752E+02  0.20535277682E+02 -0.97856701054E+01  0.27286893389E+02  0.51100000000E-03 0. -1.
        -11    1    3    3    0    0  0.18895182166E+02  0.80254638197E+00  0.13349862493E+01  0.18959276841E+02  0.51100000000E-03 0.  1.
        -12    1    3    3    0    0  0.84445729986E+01  0.79864062255E+01  0.59464924754E+01  0.13055813659E+02  0.00000000000E+00 0.  1.
</event>
<event>
 7    1  0.6180395E-013  0.5930195E+02  0.7816164E-02  0.1266605E+00
        -11   -1    0    0    0    0  0.00000000000E+00  0.00000000000E+00  0.45593999997E+02  0.45594000000E+02  0.51100000000E-03 0. -1.
         11   -1    0    0    0    0 -0.00000000000E+00 -0.00000000000E+00 -0.45593999997E+02  0.45594000000E+02  0.51100000000E-03 0.  1.
    9900012    2    1    2    0    0 -0.10489513425E+02  0.33207061837E+01  0.29927634894E+02  0.59301948005E+02  0.50000007253E+02 0.  0.
        -12    1    1    2    0    0  0.10489513425E+02 -0.33207061837E+01 -0.29927634894E+02  0.31886051995E+02  0.00000000000E+00 0.  1.
         11    1    3    3    0    0 -0.92032983793E+01  0.44431804231E+01 -0.32626360705E+00  0.10224920613E+02  0.51100000000E-03 0. -1.
        -11    1    3    3    0    0  0.62770669723E+00 -0.19055737268E+02  0.86552636683E+01  0.20938689738E+02  0.51100000000E-03 0.  1.
        -12    1    3    3    0    0 -0.19139217434E+01  0.17933263028E+02  0.21598634833E+02  0.28138337654E+02  0.00000000000E+00 0.  1.
</event>
<event>
 7    1  0.6180395E-013  0.5930187E+02  0.7816164E-02  0.1266605E+00
        -11   -1    0    0    0    0  0.00000000000E+00  0.00000000000E+00  0.45593999997E+02  0.45594000000E+02  0.51100000000E-03 0. -1.
         11   -1    0    0    0    0 -0.00000000000E+00 -0.00000000000E+00 -0.45593999997E+02  0.45594000000E+02  0.51100000000E-03 0.  1.
    9900012    2    1    2    0    0  0.10182146151E+02  0.24457873122E+02  0.17744334495E+02  0.59301873478E+02  0.49999871333E+02 0.  0.
        -12    1    1    2    0    0 -0.10182146151E+02 -0.24457873122E+02 -0.17744334495E+02  0.31886126522E+02  0.00000000000E+00 0.  1.
         11    1    3    3    0    0  0.11293720071E+02  0.96673672101E+01  0.18994239198E+02  0.24120265852E+02  0.51100000000E-03 0. -1.
        -11    1    3    3    0    0 -0.12564381947E+02  0.87901280277E+01  0.97794005593E+01  0.18186993155E+02  0.51100000000E-03 0.  1.
         12    1    3    3    0    0  0.11452808027E+02  0.60003778847E+01 -0.11029305262E+02  0.16994614471E+02  0.00000000000E+00 0. -1.
</event>
<event>
 7    1  0.6180395E-013  0.5930194E+02  0.7816164E-02  0.1266605E+00
        -11   -1    0    0    0    0  0.00000000000E+00  0.00000000000E+00  0.45593999997E+02  0.45594000000E+02  0.51100000000E-03 0.  1.
         11   -1    0    0    0    0 -0.00000000000E+00 -0.00000000000E+00 -0.45593999997E+02  0.45594000000E+02  0.51100000000E-03 0. -1.
    9900012    2    1    2    0    0 -0.15444392853E+02  0.51479329716E+00 -0.27891338389E+02  0.59301936589E+02  0.49999986433E+02 0.  0.
        -12    1    1    2    0    0  0.15444392853E+02 -0.51479329716E+00  0.27891338389E+02  0.31886063411E+02  0.00000000000E+00 0.  1.
         11    1    3    3    0    0 -0.22312771833E+02  0.15454930891E+02 -0.13638685561E+02  0.30376445147E+02  0.51100000000E-03 0. -1.
        -11    1    3    3    0    0  0.61510578511E+01 -0.60380996119E+01 -0.17431187239E+02  0.19445833704E+02  0.51100000000E-03 0.  1.
        -12    1    3    3    0    0  0.71732112881E+00 -0.89020379814E+01  0.31785344110E+01  0.94796577378E+01  0.00000000000E+00 0.  1.
</event>
<event>
 7    1  0.6180395E-013  0.5930195E+02  0.7816164E-02  0.1266605E+00
        -11   -1    0    0    0    0  0.00000000000E+00  0.00000000000E+00  0.45593999997E+02  0.45594000000E+02  0.51100000000E-03 0. -1.
         11   -1    0    0    0    0 -0.00000000000E+00 -0.00000000000E+00 -0.45593999997E+02  0.45594000000E+02  0.51100000000E-03 0.  1.
    9900012    2    1    2    0    0  0.21392141494E+02  0.67371238398E+01 -0.22665124277E+02  0.59301946406E+02  0.50000004337E+02 0.  0.
        -12    1    1    2    0    0 -0.21392141494E+02 -0.67371238398E+01  0.22665124277E+02  0.31886053594E+02  0.00000000000E+00 0.  1.
         11    1    3    3    0    0  0.74928004115E+01 -0.39676020632E+01  0.63875090060E+01  0.10615281235E+02  0.51100000000E-03 0. -1.
        -11    1    3    3    0    0  0.69595929264E+01  0.35304385296E+01 -0.35798599475E+02  0.36639318424E+02  0.51100000000E-03 0.  1.
        -12    1    3    3    0    0  0.69397481557E+01  0.71742873734E+01  0.67459661919E+01  0.12047346747E+02  0.00000000000E+00 0.  1.
</event>
<event>
 7    1  0.6180395E-013  0.5930194E+02  0.7816164E-02  0.1266605E+00
        -11   -1    0    0    0    0  0.00000000000E+00  0.00000000000E+00  0.45593999997E+02  0.45594000000E+02  0.51100000000E-03 0. -1.
         11   -1    0    0    0    0 -0.00000000000E+00 -0.00000000000E+00 -0.45593999997E+02  0.45594000000E+02  0.51100000000E-03 0.  1.
    9900012    2    1    2    0    0  0.17464351161E+02  0.26666088286E+02  0.79820239970E+00  0.59301937951E+02  0.49999988918E+02 0.  0.
        -12    1    1    2    0    0 -0.17464351161E+02 -0.26666088286E+02 -0.79820239970E+00  0.31886062049E+02  0.00000000000E+00 0.  1.
         11    1    3    3    0    0  0.20249848036E+02  0.15215159813E+02  0.75350615936E+01  0.26426021023E+02  0.51100000000E-03 0. -1.
        -11    1    3    3    0    0 -0.20663951078E+01 -0.68119302438E+00 -0.16896090035E+02  0.17035605989E+02  0.51100000000E-03 0.  1.
         12    1    3    3    0    0 -0.71910176770E+00  0.12132121497E+02  0.10159230841E+02  0.15840310939E+02  0.00000000000E+00 0. -1.
</event>
<event>
 7    1  0.6180395E-013  0.5930195E+02  0.7816164E-02  0.1266605E+00
        -11   -1    0    0    0    0  0.00000000000E+00  0.00000000000E+00  0.45593999997E+02  0.45594000000E+02  0.51100000000E-03 0.  1.
         11   -1    0    0    0    0 -0.00000000000E+00 -0.00000000000E+00 -0.45593999997E+02  0.45594000000E+02  0.51100000000E-03 0. -1.
    9900012    2    1    2    0    0  0.13942009035E+02  0.27472204194E+02  0.82230662866E+01  0.59301946021E+02  0.50000003635E+02 0.  0.
        -12    1    1    2    0    0 -0.13942009035E+02 -0.27472204194E+02 -0.82230662866E+01  0.31886053979E+02  0.00000000000E+00 0.  1.
         11    1    3    3    0    0  0.12268237939E+01  0.69089981091E+00 -0.15776284243E+02  0.15838989360E+02  0.51100000000E-03 0. -1.
        -11    1    3    3    0    0  0.11082593489E+02  0.11784950202E+02  0.23295279326E+02  0.28361575570E+02  0.51100000000E-03 0.  1.
        -12    1    3    3    0    0  0.16325917528E+01  0.14996354181E+02  0.70407120406E+00  0.15101381090E+02  0.00000000000E+00 0.  1.
</event>
<event>
 7    1  0.6180395E-013  0.5930192E+02  0.7816164E-02  0.1266605E+00
        -11   -1    0    0    0    0  0.00000000000E+00  0.00000000000E+00  0.45593999997E+02  0.45594000000E+02  0.51100000000E-03 0. -1.
         11   -1    0    0    0    0 -0.00000000000E+00 -0.00000000000E+00 -0.45593999997E+02  0.45594000000E+02  0.51100000000E-03 0.  1.
    9900012    2    1    2    0    0  0.13181353638E+02 -0.81277613700E+01  0.27873164142E+02  0.59301923605E+02  0.49999962753E+02 0.  0.
        -12    1    1    2    0    0 -0.13181353638E+02  0.81277613700E+01 -0.27873164142E+02  0.31886076395E+02  0.00000000000E+00 0.  1.
         11    1    3    3    0    0  0.15985287086E+02 -0.13998504905E+02  0.97573961220E+01  0.23381495293E+02  0.51100000000E-03 0. -1.
        -11    1    3    3    0    0  0.80707762274E+01  0.13851650198E+02  0.15258599399E+02  0.22132114630E+02  0.51100000000E-03 0.  1.
        -12    1    3    3    0    0 -0.10874709675E+02 -0.79809066622E+01  0.28571686203E+01  0.13788313682E+02  0.00000000000E+00 0.  1.
</event>
<event>
 7    1  0.6180395E-013  0.5930195E+02  0.7816164E-02  0.1266605E+00
        -11   -1    0    0    0    0  0.00000000000E+00  0.00000000000E+00  0.45593999997E+02  0.45594000000E+02  0.51100000000E-03 0.  1.
         11   -1    0    0    0    0 -0.00000000000E+00 -0.00000000000E+00 -0.45593999997E+02  0.45594000000E+02  0.51100000000E-03 0. -1.
    9900012    2    1    2    0    0 -0.10085393673E+02  0.65759287769E+01 -0.29525621283E+02  0.59301947924E+02  0.50000007107E+02 0.  0.
        -12    1    1    2    0    0  0.10085393673E+02 -0.65759287769E+01  0.29525621283E+02  0.31886052076E+02  0.00000000000E+00 0.  1.
         11    1    3    3    0    0  0.76363880643E+01  0.19950997579E+02 -0.10534883008E+02  0.23818910289E+02  0.51100000000E-03 0. -1.
        -11    1    3    3    0    0 -0.48254866114E+01 -0.16077234761E+02 -0.11118670249E+02  0.20134240164E+02  0.51100000000E-03 0.  1.
         12    1    3    3    0    0 -0.12896295126E+02  0.27021659584E+01 -0.78720680255E+01  0.15348797472E+02  0.00000000000E+00 0. -1.
</event>
<event>
 7    1  0.6180395E-013  0.5930193E+02  0.7816164E-02  0.1266605E+00
        -11   -1    0    0    0    0  0.00000000000E+00  0.00000000000E+00  0.45593999997E+02  0.45594000000E+02  0.51100000000E-03 0.  1.
         11   -1    0    0    0    0 -0.00000000000E+00 -0.00000000000E+00 -0.45593999997E+02  0.45594000000E+02  0.51100000000E-03 0. -1.
    9900012    2    1    2    0    0  0.13868118238E+02 -0.26760107456E+02  0.10406425160E+02  0.59301925624E+02  0.49999966435E+02 0.  0.
        -12    1    1    2    0    0 -0.13868118238E+02  0.26760107456E+02 -0.10406425160E+02  0.31886074376E+02  0.00000000000E+00 0.  1.
         11    1    3    3    0    0  0.26350697598E+01  0.82094420785E+00  0.20332921951E+02  0.20519387354E+02  0.51100000000E-03 0.  1.
        -11    1    3    3    0    0  0.29837355574E+01 -0.26779747687E+02 -0.13032336963E+02  0.29931578158E+02  0.51100000000E-03 0. -1.
         12    1    3    3    0    0  0.82493129210E+01 -0.80130397696E+00  0.31058401711E+01  0.88509601118E+01  0.00000000000E+00 0. -1.
</event>
<event>
 7    1  0.6180395E-013  0.5930194E+02  0.7816164E-02  0.1266605E+00
        -11   -1    0    0    0    0  0.00000000000E+00  0.00000000000E+00  0.45593999997E+02  0.45594000000E+02  0.51100000000E-03 0.  1.
         11   -1    0    0    0    0 -0.00000000000E+00 -0.00000000000E+00 -0.45593999997E+02  0.45594000000E+02  0.51100000000E-03 0. -1.
    9900012    2    1    2    0    0 -0.16057406882E+02 -0.26674189617E+02 -0.68824337660E+01  0.59301943454E+02  0.49999998954E+02 0.  0.
        -12    1    1    2    0    0  0.16057406882E+02  0.26674189617E+02  0.68824337660E+01  0.31886056546E+02  0.00000000000E+00 0.  1.
         11    1    3    3    0    0 -0.27306191176E+02 -0.10084347976E+02 -0.10012032912E+02  0.30782510520E+02  0.51100000000E-03 0. -1.
        -11    1    3    3    0    0  0.13768283059E+02 -0.73189598274E+01  0.82416977523E+01  0.17636847038E+02  0.51100000000E-03 0.  1.
         12    1    3    3    0    0 -0.25194987642E+01 -0.92708818137E+01 -0.51120986059E+01  0.10882585896E+02  0.00000000000E+00 0. -1.
</event>
<event>
 7    1  0.6180395E-013  0.5930195E+02  0.7816164E-02  0.1266605E+00
        -11   -1    0    0    0    0  0.00000000000E+00  0.00000000000E+00  0.45593999997E+02  0.45594000000E+02  0.51100000000E-03 0. -1.
         11   -1    0    0    0    0 -0.00000000000E+00 -0.00000000000E+00 -0.45593999997E+02  0.45594000000E+02  0.51100000000E-03 0.  1.
    9900012    2    1    2    0    0 -0.15237089888E+02 -0.11336887830E+02  0.25613006007E+02  0.59301952728E+02  0.50000015867E+02 0.  0.
        -12    1    1    2    0    0  0.15237089888E+02  0.11336887830E+02 -0.25613006007E+02  0.31886047272E+02  0.00000000000E+00 0.  1.
         11    1    3    3    0    0  0.39043724581E+01 -0.77072572348E+01  0.43106950794E+01  0.96554663638E+01  0.51100000000E-03 0. -1.
        -11    1    3    3    0    0 -0.26690623794E+02  0.39455194012E+01  0.26445154095E+02  0.37779659835E+02  0.51100000000E-03 0.  1.
        -12    1    3    3    0    0  0.75491614485E+01 -0.75751499960E+01 -0.51428431671E+01  0.11866826529E+02  0.00000000000E+00 0.  1.
</event>
<event>
 7    1  0.6180395E-013  0.5930199E+02  0.7816164E-02  0.1266605E+00
        -11   -1    0    0    0    0  0.00000000000E+00  0.00000000000E+00  0.45593999997E+02  0.45594000000E+02  0.51100000000E-03 0.  1.
         11   -1    0    0    0    0 -0.00000000000E+00 -0.00000000000E+00 -0.45593999997E+02  0.45594000000E+02  0.51100000000E-03 0. -1.
    9900012    2    1    2    0    0 -0.24957120828E+02 -0.17527716771E+02 -0.93080025852E+01  0.59301989786E+02  0.50000083453E+02 0.  0.
        -12    1    1    2    0    0  0.24957120828E+02  0.17527716771E+02  0.93080025852E+01  0.31886010214E+02  0.00000000000E+00 0.  1.
         11    1    3    3    0    0 -0.17323809950E+01 -0.14962944511E+02  0.13379922618E+01  0.15122204730E+02  0.51100000000E-03 0. -1.
        -11    1    3    3    0    0 -0.27556584602E+02  0.66400539479E+01  0.14403822473E+01  0.28381866969E+02  0.51100000000E-03 0.  1.
        -12    1    3    3    0    0  0.43318447691E+01 -0.92048262077E+01 -0.12086377094E+02  0.15797918087E+02  0.00000000000E+00 0.  1.
</event>
<event>
 7    1  0.6180395E-013  0.5930189E+02  0.7816164E-02  0.1266605E+00
        -11   -1    0    0    0    0  0.00000000000E+00  0.00000000000E+00  0.45593999997E+02  0.45594000000E+02  0.51100000000E-03 0.  1.
         11   -1    0    0    0    0 -0.00000000000E+00 -0.00000000000E+00 -0.45593999997E+02  0.45594000000E+02  0.51100000000E-03 0. -1.
    9900012    2    1    2    0    0 -0.16552819741E+02  0.24080869762E+02  0.12760875941E+02  0.59301888843E+02  0.49999899357E+02 0.  0.
        -12    1    1    2    0    0  0.16552819741E+02 -0.24080869762E+02 -0.12760875941E+02  0.31886111157E+02  0.00000000000E+00 0.  1.
         11    1    3    3    0    0 -0.21331052718E+02  0.24380181209E+02 -0.14310397791E+01  0.32426145638E+02  0.51100000000E-03 0. -1.
        -11    1    3    3    0    0  0.12076500677E+02  0.32713281276E+01  0.26967489192E+01  0.12799059002E+02  0.51100000000E-03 0.  1.
         12    1    3    3    0    0 -0.72982677002E+01 -0.35706395737E+01  0.11495166801E+02  0.14076684204E+02  0.00000000000E+00 0. -1.
</event>
<event>
 7    1  0.6180395E-013  0.5930197E+02  0.7816164E-02  0.1266605E+00
        -11   -1    0    0    0    0  0.00000000000E+00  0.00000000000E+00  0.45593999997E+02  0.45594000000E+02  0.51100000000E-03 0. -1.
         11   -1    0    0    0    0 -0.00000000000E+00 -0.00000000000E+00 -0.45593999997E+02  0.45594000000E+02  0.51100000000E-03 0.  1.
    9900012    2    1    2    0    0  0.21123058019E+02 -0.23755632909E+02 -0.24910315936E+01  0.59301969934E+02  0.50000047247E+02 0.  0.
        -12    1    1    2    0    0 -0.21123058019E+02  0.23755632909E+02  0.24910315936E+01  0.31886030066E+02  0.00000000000E+00 0.  1.
         11    1    3    3    0    0  0.13700115905E+02 -0.45388483604E+00  0.32431040730E+01  0.14086053796E+02  0.51100000000E-03 0. -1.
        -11    1    3    3    0    0 -0.49615396460E+01 -0.13241611999E+02 -0.19537717959E+02  0.24118034482E+02  0.51100000000E-03 0.  1.
        -12    1    3    3    0    0  0.12384481760E+02 -0.10060136074E+02  0.13803582292E+02  0.21097881656E+02  0.00000000000E+00 0.  1.
</event>
<event>
 7    1  0.6180395E-013  0.5930194E+02  0.7816164E-02  0.1266605E+00
        -11   -1    0    0    0    0  0.00000000000E+00  0.00000000000E+00  0.45593999997E+02  0.45594000000E+02  0.51100000000E-03 0. -1.
         11   -1    0    0    0    0 -0.00000000000E+00 -0.00000000000E+00 -0.45593999997E+02  0.45594000000E+02  0.51100000000E-03 0.  1.
    9900012    2    1    2    0    0 -0.44948560030E+01  0.20940647768E+02  0.23622160272E+02  0.59301938541E+02  0.49999989994E+02 0.  0.
        -12    1    1    2    0    0  0.44948560030E+01 -0.20940647768E+02 -0.23622160272E+02  0.31886061459E+02  0.00000000000E+00 0.  1.
         11    1    3    3    0    0  0.55004508577E+00 -0.14622938549E+02  0.16685656721E+02  0.22193332825E+02  0.51100000000E-03 0. -1.
        -11    1    3    3    0    0 -0.53764749474E+01  0.28846600155E+02  0.34853801250E+01  0.29549631101E+02  0.51100000000E-03 0.  1.
         12    1    3    3    0    0  0.33157385861E+00  0.67169861624E+01  0.34511234256E+01  0.75589746149E+01  0.00000000000E+00 0. -1.
</event>
<event>
 7    1  0.6180395E-013  0.5930193E+02  0.7816164E-02  0.1266605E+00
        -11   -1    0    0    0    0  0.00000000000E+00  0.00000000000E+00  0.45593999997E+02  0.45594000000E+02  0.51100000000E-03 0.  1.
         11   -1    0    0    0    0 -0.00000000000E+00 -0.00000000000E+00 -0.45593999997E+02  0.45594000000E+02  0.51100000000E-03 0. -1.
    9900012    2    1    2    0    0 -0.28941077855E+02 -0.12335840026E+02 -0.51925214179E+01  0.59301933839E+02  0.49999981418E+02 0.  0.
        -12    1    1    2    0    0  0.28941077855E+02  0.12335840026E+02  0.51925214179E+01  0.31886066161E+02  0.00000000000E+00 0.  1.
         11    1    3    3    0    0 -0.20080456721E+02 -0.20203850385E+02 -0.16748494210E+02  0.33044399996E+02  0.51100000000E-03 0. -1.
        -11    1    3    3    0    0 -0.18115822802E+01  0.11622946405E+02 -0.52522556509E+00  0.11774997904E+02  0.51100000000E-03 0.  1.
         12    1    3    3    0    0 -0.70490388539E+01 -0.37549360458E+01  0.12081198357E+02  0.14482535939E+02  0.00000000000E+00 0. -1.
</event>
<event>
 7    1  0.6180395E-013  0.5930195E+02  0.7816164E-02  0.1266605E+00
        -11   -1    0    0    0    0  0.00000000000E+00  0.00000000000E+00  0.45593999997E+02  0.45594000000E+02  0.51100000000E-03 0.  1.
         11   -1    0    0    0    0 -0.00000000000E+00 -0.00000000000E+00 -0.45593999997E+02  0.45594000000E+02  0.51100000000E-03 0. -1.
    9900012    2    1    2    0    0  0.33000235165E+01 -0.15094978914E+02 -0.27892144133E+02  0.59301949007E+02  0.50000009081E+02 0.  0.
        -12    1    1    2    0    0 -0.33000235165E+01  0.15094978914E+02  0.27892144133E+02  0.31886050993E+02  0.00000000000E+00 0.  1.
         11    1    3    3    0    0  0.59594503087E+01 -0.24183725568E+02 -0.24293308306E+01  0.25025372702E+02  0.51100000000E-03 0. -1.
        -11    1    3    3    0    0  0.31212770283E+01  0.14289360753E+02 -0.19983136224E+02  0.24763964437E+02  0.51100000000E-03 0.  1.
         12    1    3    3    0    0 -0.57807038205E+01 -0.52006140984E+01 -0.54796770780E+01  0.95126118674E+01  0.00000000000E+00 0. -1.
</event>
<event>
 7    1  0.6180395E-013  0.5930195E+02  0.7816164E-02  0.1266605E+00
        -11   -1    0    0    0    0  0.00000000000E+00  0.00000000000E+00  0.45593999997E+02  0.45594000000E+02  0.51100000000E-03 0.  1.
         11   -1    0    0    0    0 -0.00000000000E+00 -0.00000000000E+00 -0.45593999997E+02  0.45594000000E+02  0.51100000000E-03 0. -1.
    9900012    2    1    2    0    0 -0.20209661318E+02 -0.17508031424E+02 -0.17371200467E+02  0.59301950063E+02  0.50000011006E+02 0.  0.
        -12    1    1    2    0    0  0.20209661318E+02  0.17508031424E+02  0.17371200467E+02  0.31886049937E+02  0.00000000000E+00 0.  1.
         11    1    3    3    0    0  0.95310602856E+01  0.37758608843E+01 -0.18635191876E+02  0.21268958887E+02  0.51100000000E-03 0. -1.
        -11    1    3    3    0    0 -0.76006017403E+01 -0.58264272628E+01  0.49498205724E+01  0.10780404697E+02  0.51100000000E-03 0.  1.
         12    1    3    3    0    0 -0.22140119863E+02 -0.15457465046E+02 -0.36858291634E+01  0.27252586479E+02  0.00000000000E+00 0. -1.
</event>
<event>
 7    1  0.6207292E-013  0.5930221E+02  0.7816164E-02  0.1266604E+00
        -11   -1    0    0    0    0  0.00000000000E+00  0.00000000000E+00  0.45593999997E+02  0.45594000000E+02  0.51100000000E-03 0. -1.
         11   -1    0    0    0    0 -0.00000000000E+00 -0.00000000000E+00 -0.45593999997E+02  0.45594000000E+02  0.51100000000E-03 0.  1.
    9900012    2    1    2    0    0 -0.18328297865E+02 -0.11531886059E+01  0.26066210081E+02  0.59302209206E+02  0.50000483619E+02 0.  0.
        -12    1    1    2    0    0  0.18328297865E+02  0.11531886059E+01 -0.26066210081E+02  0.31885790794E+02  0.00000000000E+00 0.  1.
         11    1    3    3    0    0 -0.69432225941E+01 -0.19057907571E+02  0.87334721530E+01  0.22083607429E+02  0.51100000000E-03 0. -1.
        -11    1    3    3    0    0 -0.13541597527E+02  0.69543801772E+01 -0.15318339060E+01  0.15299829496E+02  0.51100000000E-03 0.  1.
         12    1    3    3    0    0  0.21565222559E+01  0.10950338788E+02  0.18864571834E+02  0.21918772280E+02  0.00000000000E+00 0. -1.
</event>
<event>
 7    1  0.6180395E-013  0.5930194E+02  0.7816164E-02  0.1266605E+00
        -11   -1    0    0    0    0  0.00000000000E+00  0.00000000000E+00  0.45593999997E+02  0.45594000000E+02  0.51100000000E-03 0. -1.
         11   -1    0    0    0    0 -0.00000000000E+00 -0.00000000000E+00 -0.45593999997E+02  0.45594000000E+02  0.51100000000E-03 0.  1.
    9900012    2    1    2    0    0  0.31797248544E+02 -0.23623697546E+01  0.27395888876E+00  0.59301939420E+02  0.49999991597E+02 0.  0.
        -12    1    1    2    0    0 -0.31797248544E+02  0.23623697546E+01 -0.27395888876E+00  0.31886060580E+02  0.00000000000E+00 0.  1.
         11    1    3    3    0    0  0.38542439824E+02  0.11067046509E+02 -0.70746150896E+01  0.40719152312E+02  0.51100000000E-03 0. -1.
        -11    1    3    3    0    0 -0.18189149098E-01 -0.80463753349E+01  0.15412874479E+01  0.81926829631E+01  0.51100000000E-03 0.  1.
         12    1    3    3    0    0 -0.67270021314E+01 -0.53830409285E+01  0.58072865304E+01  0.10390104146E+02  0.00000000000E+00 0. -1.
</event>
<event>
 7    1  0.6180395E-013  0.5930194E+02  0.7816164E-02  0.1266605E+00
        -11   -1    0    0    0    0  0.00000000000E+00  0.00000000000E+00  0.45593999997E+02  0.45594000000E+02  0.51100000000E-03 0. -1.
         11   -1    0    0    0    0 -0.00000000000E+00 -0.00000000000E+00 -0.45593999997E+02  0.45594000000E+02  0.51100000000E-03 0.  1.
    9900012    2    1    2    0    0 -0.74663025464E+01 -0.30946832458E+02 -0.18079002808E+01  0.59301943230E+02  0.49999998545E+02 0.  0.
        -12    1    1    2    0    0  0.74663025464E+01  0.30946832458E+02  0.18079002808E+01  0.31886056770E+02  0.00000000000E+00 0.  1.
         11    1    3    3    0    0  0.10618463528E+01 -0.32430224572E+02  0.71523828120E+01  0.33226549078E+02  0.51100000000E-03 0. -1.
        -11    1    3    3    0    0 -0.56363810622E+01  0.83487922900E+01 -0.13878411876E+02  0.17148802892E+02  0.51100000000E-03 0.  1.
         12    1    3    3    0    0 -0.28917678369E+01 -0.68654001762E+01  0.49181287828E+01  0.89265912602E+01  0.00000000000E+00 0. -1.
</event>
<event>
 7    1  0.6180395E-013  0.5930189E+02  0.7816164E-02  0.1266605E+00
        -11   -1    0    0    0    0  0.00000000000E+00  0.00000000000E+00  0.45593999997E+02  0.45594000000E+02  0.51100000000E-03 0.  1.
         11   -1    0    0    0    0 -0.00000000000E+00 -0.00000000000E+00 -0.45593999997E+02  0.45594000000E+02  0.51100000000E-03 0. -1.
    9900012    2    1    2    0    0  0.25591548339E+02 -0.36887280743E+01 -0.18659852330E+02  0.59301887816E+02  0.49999897484E+02 0.  0.
        -12    1    1    2    0    0 -0.25591548339E+02  0.36887280743E+01  0.18659852330E+02  0.31886112184E+02  0.00000000000E+00 0.  1.
         11    1    3    3    0    0  0.19557191242E+02  0.15237685129E+02 -0.24928543681E+01  0.24917566104E+02  0.51100000000E-03 0. -1.
        -11    1    3    3    0    0  0.10362421227E+02 -0.13896257283E+02 -0.20200693036E+02  0.26618672761E+02  0.51100000000E-03 0.  1.
        -12    1    3    3    0    0 -0.43280641299E+01 -0.50301559204E+01  0.40336950735E+01  0.77656489518E+01  0.00000000000E+00 0.  1.
</event>
<event>
 7    1  0.6180395E-013  0.5930197E+02  0.7816164E-02  0.1266605E+00
        -11   -1    0    0    0    0  0.00000000000E+00  0.00000000000E+00  0.45593999997E+02  0.45594000000E+02  0.51100000000E-03 0. -1.
         11   -1    0    0    0    0 -0.00000000000E+00 -0.00000000000E+00 -0.45593999997E+02  0.45594000000E+02  0.51100000000E-03 0.  1.
    9900012    2    1    2    0    0 -0.12172445532E+02 -0.28968107622E+02  0.54220861354E+01  0.59301973162E+02  0.50000053134E+02 0.  0.
        -12    1    1    2    0    0  0.12172445532E+02  0.28968107622E+02 -0.54220861354E+01  0.31886026838E+02  0.00000000000E+00 0.  1.
         11    1    3    3    0    0 -0.11756109888E+02 -0.11742669881E+01  0.20119474618E+02  0.23331915520E+02  0.51100000000E-03 0. -1.
        -11    1    3    3    0    0 -0.29442024203E+00 -0.20855315549E+02 -0.18653642674E+02  0.27981945165E+02  0.51100000000E-03 0.  1.
         12    1    3    3    0    0 -0.12191540186E+00 -0.69385250848E+01  0.39562541910E+01  0.79881124768E+01  0.00000000000E+00 0. -1.
</event>
<event>
 7    1  0.6180395E-013  0.5930194E+02  0.7816164E-02  0.1266605E+00
        -11   -1    0    0    0    0  0.00000000000E+00  0.00000000000E+00  0.45593999997E+02  0.45594000000E+02  0.51100000000E-03 0. -1.
         11   -1    0    0    0    0 -0.00000000000E+00 -0.00000000000E+00 -0.45593999997E+02  0.45594000000E+02  0.51100000000E-03 0.  1.
    9900012    2    1    2    0    0 -0.20071401211E+02  0.15128038326E+02  0.19621467745E+02  0.59301942127E+02  0.49999996534E+02 0.  0.
        -12    1    1    2    0    0  0.20071401211E+02 -0.15128038326E+02 -0.19621467745E+02  0.31886057873E+02  0.00000000000E+00 0.  1.
         11    1    3    3    0    0  0.57425373048E+00  0.22672747262E+02  0.34443469489E+01  0.22940068917E+02  0.51100000000E-03 0. -1.
        -11    1    3    3    0    0 -0.25321008558E+02 -0.81483161698E+01  0.96197361558E+01  0.28285824272E+02  0.51100000000E-03 0.  1.
         12    1    3    3    0    0  0.46753536160E+01  0.60360723436E+00  0.65573846406E+01  0.80760489382E+01  0.00000000000E+00 0. -1.
</event>
<event>
 7    1  0.6180395E-013  0.5930194E+02  0.7816164E-02  0.1266605E+00
        -11   -1    0    0    0    0  0.00000000000E+00  0.00000000000E+00  0.45593999997E+02  0.45594000000E+02  0.51100000000E-03 0.  1.
         11   -1    0    0    0    0 -0.00000000000E+00 -0.00000000000E+00 -0.45593999997E+02  0.45594000000E+02  0.51100000000E-03 0. -1.
    9900012    2    1    2    0    0 -0.27335687698E+02 -0.15486907235E+02 -0.54439320392E+01  0.59301944840E+02  0.50000001481E+02 0.  0.
        -12    1    1    2    0    0  0.27335687698E+02  0.15486907235E+02  0.54439320392E+01  0.31886055160E+02  0.00000000000E+00 0.  1.
         11    1    3    3    0    0  0.30890205121E+01  0.14346230033E+02 -0.73896190333E+00  0.14693618644E+02  0.51100000000E-03 0. -1.
        -11    1    3    3    0    0 -0.65526356527E+01 -0.25656879657E+01  0.28435275770E+01  0.75898246407E+01  0.51100000000E-03 0.  1.
         12    1    3    3    0    0 -0.23872072558E+02 -0.27267449302E+02 -0.75484977129E+01  0.37018501555E+02  0.00000000000E+00 0. -1.
</event>
<event>
 7    1  0.6180395E-013  0.5930197E+02  0.7816164E-02  0.1266605E+00
        -11   -1    0    0    0    0  0.00000000000E+00  0.00000000000E+00  0.45593999997E+02  0.45594000000E+02  0.51100000000E-03 0.  1.
         11   -1    0    0    0    0 -0.00000000000E+00 -0.00000000000E+00 -0.45593999997E+02  0.45594000000E+02  0.51100000000E-03 0. -1.
    9900012    2    1    2    0    0 -0.17677475851E+02 -0.25187722025E+02 -0.83548886083E+01  0.59301973955E+02  0.50000054579E+02 0.  0.
        -12    1    1    2    0    0  0.17677475851E+02  0.25187722025E+02  0.83548886083E+01  0.31886026045E+02  0.00000000000E+00 0.  1.
         11    1    3    3    0    0 -0.18487108633E+02 -0.10983929427E+02 -0.12215122145E+02  0.24731136257E+02  0.51100000000E-03 0. -1.
        -11    1    3    3    0    0  0.39454640833E+01 -0.13761700827E+02  0.16323267409E+02  0.21711751556E+02  0.51100000000E-03 0.  1.
         12    1    3    3    0    0 -0.31358313014E+01 -0.44209177136E+00 -0.12463033872E+02  0.12859086141E+02  0.00000000000E+00 0. -1.
</event>
<event>
 7    1  0.6180395E-013  0.5930187E+02  0.7816164E-02  0.1266605E+00
        -11   -1    0    0    0    0  0.00000000000E+00  0.00000000000E+00  0.45593999997E+02  0.45594000000E+02  0.51100000000E-03 0. -1.
         11   -1    0    0    0    0 -0.00000000000E+00 -0.00000000000E+00 -0.45593999997E+02  0.45594000000E+02  0.51100000000E-03 0.  1.
    9900012    2    1    2    0    0 -0.29815590069E+02  0.11283113891E+02  0.66894873046E+00  0.59301865668E+02  0.49999857091E+02 0.  0.
        -12    1    1    2    0    0  0.29815590069E+02 -0.11283113891E+02 -0.66894873046E+00  0.31886134332E+02  0.00000000000E+00 0.  1.
         11    1    3    3    0    0 -0.21402309523E+02 -0.61998011627E+01  0.70479342581E+00  0.22293342536E+02  0.51100000000E-03 0. -1.
        -11    1    3    3    0    0 -0.36612172243E+01  0.13351658788E+02 -0.15217466134E+02  0.20572860272E+02  0.51100000000E-03 0.  1.
        -12    1    3    3    0    0 -0.47520633215E+01  0.41312562660E+01  0.15181621439E+02  0.16435662861E+02  0.00000000000E+00 0.  1.
</event>
<event>
 7    1  0.6180395E-013  0.5930192E+02  0.7816164E-02  0.1266605E+00
        -11   -1    0    0    0    0  0.00000000000E+00  0.00000000000E+00  0.45593999997E+02  0.45594000000E+02  0.51100000000E-03 0. -1.
         11   -1    0    0    0    0 -0.00000000000E+00 -0.00000000000E+00 -0.45593999997E+02  0.45594000000E+02  0.51100000000E-03 0.  1.
    9900012    2    1    2    0    0 -0.53351300935E+01 -0.23709075044E+02  0.20643116351E+02  0.59301919883E+02  0.49999955966E+02 0.  0.
        -12    1    1    2    0    0  0.53351300935E+01  0.23709075044E+02 -0.20643116351E+02  0.31886080117E+02  0.00000000000E+00 0.  1.
         11    1    3    3    0    0  0.15145478388E+02 -0.11107715605E+02  0.11486231335E+00  0.18782440075E+02  0.51100000000E-03 0. -1.
        -11    1    3    3    0    0 -0.18541442684E+02 -0.20005616112E+02  0.16281659671E+02  0.31766369240E+02  0.51100000000E-03 0.  1.
        -12    1    3    3    0    0 -0.19391657982E+01  0.74042566734E+01  0.42465943671E+01  0.87531105669E+01  0.00000000000E+00 0.  1.
</event>
<event>
 7    1  0.6180395E-013  0.5930193E+02  0.7816164E-02  0.1266605E+00
        -11   -1    0    0    0    0  0.00000000000E+00  0.00000000000E+00  0.45593999997E+02  0.45594000000E+02  0.51100000000E-03 0. -1.
         11   -1    0    0    0    0 -0.00000000000E+00 -0.00000000000E+00 -0.45593999997E+02  0.45594000000E+02  0.51100000000E-03 0.  1.
    9900012    2    1    2    0    0  0.29095479247E+02  0.28813046384E+01  0.12722925940E+02  0.59301926653E+02  0.49999968312E+02 0.  0.
        -12    1    1    2    0    0 -0.29095479247E+02 -0.28813046384E+01 -0.12722925940E+02  0.31886073347E+02  0.00000000000E+00 0.  1.
         11    1    3    3    0    0  0.56326937643E+00 -0.68055627320E+01  0.16295366582E+01  0.70205659651E+01  0.51100000000E-03 0. -1.
        -11    1    3    3    0    0  0.36909202046E+02  0.53477546881E+01  0.17172501647E+02  0.41058281612E+02  0.51100000000E-03 0.  1.
        -12    1    3    3    0    0 -0.83769921754E+01  0.43391126823E+01 -0.60791123653E+01  0.11223079075E+02  0.00000000000E+00 0.  1.
</event>
<event>
 7    1  0.6180395E-013  0.5930198E+02  0.7816164E-02  0.1266605E+00
        -11   -1    0    0    0    0  0.00000000000E+00  0.00000000000E+00  0.45593999997E+02  0.45594000000E+02  0.51100000000E-03 0.  1.
         11   -1    0    0    0    0 -0.00000000000E+00 -0.00000000000E+00 -0.45593999997E+02  0.45594000000E+02  0.51100000000E-03 0. -1.
    9900012    2    1    2    0    0 -0.75142286480E+01 -0.98259837149E+01 -0.29388852902E+02  0.59301980132E+02  0.50000065846E+02 0.  0.
        -12    1    1    2    0    0  0.75142286480E+01  0.98259837149E+01  0.29388852902E+02  0.31886019868E+02  0.00000000000E+00 0.  1.
         11    1    3    3    0    0 -0.30586094487E+01  0.15713619518E+02 -0.15194759952E+02  0.22071557724E+02  0.51100000000E-03 0. -1.
        -11    1    3    3    0    0 -0.11033582257E+02 -0.22898088687E+02 -0.54879078590E+01  0.26003452384E+02  0.51100000000E-03 0.  1.
         12    1    3    3    0    0  0.65779630574E+01 -0.26415145460E+01 -0.87061850911E+01  0.11226970024E+02  0.00000000000E+00 0. -1.
</event>
<event>
 7    1  0.6180395E-013  0.5930195E+02  0.7816164E-02  0.1266605E+00
        -11   -1    0    0    0    0  0.00000000000E+00  0.00000000000E+00  0.45593999997E+02  0.45594000000E+02  0.51100000000E-03 0.  1.
         11   -1    0    0    0    0 -0.00000000000E+00 -0.00000000000E+00 -0.45593999997E+02  0.45594000000E+02  0.51100000000E-03 0. -1.
    9900012    2    1    2    0    0 -0.81389114245E+01  0.15403109244E+02 -0.26706230541E+02  0.59301946571E+02  0.50000004638E+02 0.  0.
        -12    1    1    2    0    0  0.81389114245E+01 -0.15403109244E+02  0.26706230541E+02  0.31886053429E+02  0.00000000000E+00 0.  1.
         11    1    3    3    0    0  0.18270776274E+01 -0.78346832202E+01 -0.23826276399E+02  0.25147801517E+02  0.51100000000E-03 0. -1.
        -11    1    3    3    0    0 -0.12526387171E+02  0.26317331006E+02  0.12598114909E+00  0.29146666333E+02  0.51100000000E-03 0.  1.
        -12    1    3    3    0    0  0.25603981190E+01 -0.30795385424E+01 -0.30059352913E+01  0.50074787207E+01  0.00000000000E+00 0.  1.
</event>
<event>
 7    1  0.6180395E-013  0.5930196E+02  0.7816164E-02  0.1266605E+00
        -11   -1    0    0    0    0  0.00000000000E+00  0.00000000000E+00  0.45593999997E+02  0.45594000000E+02  0.51100000000E-03 0.  1.
         11   -1    0    0    0    0 -0.00000000000E+00 -0.00000000000E+00 -0.45593999997E+02  0.45594000000E+02  0.51100000000E-03 0. -1.
    9900012    2    1    2    0    0 -0.26136169019E+02  0.12985551825E+02  0.12845068259E+02  0.59301958136E+02  0.50000025730E+02 0.  0.
        -12    1    1    2    0    0  0.26136169019E+02 -0.12985551825E+02 -0.12845068259E+02  0.31886041864E+02  0.00000000000E+00 0.  1.
         11    1    3    3    0    0 -0.12624100480E+02  0.31265669517E+02  0.72232625839E+01  0.34483119434E+02  0.51100000000E-03 0.  1.
        -11    1    3    3    0    0 -0.11832848231E+02 -0.12763725465E+02  0.72079495131E+01  0.18838352408E+02  0.51100000000E-03 0. -1.
        -12    1    3    3    0    0 -0.16792203077E+01 -0.55163922270E+01 -0.15861438383E+01  0.59804862946E+01  0.00000000000E+00 0.  1.
</event>
<event>
 7    1  0.6180395E-013  0.5930198E+02  0.7816164E-02  0.1266605E+00
        -11   -1    0    0    0    0  0.00000000000E+00  0.00000000000E+00  0.45593999997E+02  0.45594000000E+02  0.51100000000E-03 0. -1.
         11   -1    0    0    0    0 -0.00000000000E+00 -0.00000000000E+00 -0.45593999997E+02  0.45594000000E+02  0.51100000000E-03 0.  1.
    9900012    2    1    2    0    0  0.16705997494E+02  0.27062209296E+02 -0.22945709394E+01  0.59301975161E+02  0.50000056779E+02 0.  0.
        -12    1    1    2    0    0 -0.16705997494E+02 -0.27062209296E+02  0.22945709394E+01  0.31886024839E+02  0.00000000000E+00 0.  1.
         11    1    3    3    0    0  0.15092849642E+02 -0.29077391218E+01 -0.77733701406E+01  0.17224237014E+02  0.51100000000E-03 0. -1.
        -11    1    3    3    0    0  0.47625588976E+01  0.34846891392E+02  0.18249588485E+01  0.35218152734E+02  0.51100000000E-03 0.  1.
         12    1    3    3    0    0 -0.31494110459E+01 -0.48769429742E+01  0.36538403527E+01  0.68595854126E+01  0.00000000000E+00 0. -1.
</event>
<event>
 7    1  0.6180395E-013  0.5930194E+02  0.7816164E-02  0.1266605E+00
        -11   -1    0    0    0    0  0.00000000000E+00  0.00000000000E+00  0.45593999997E+02  0.45594000000E+02  0.51100000000E-03 0. -1.
         11   -1    0    0    0    0 -0.00000000000E+00 -0.00000000000E+00 -0.45593999997E+02  0.45594000000E+02  0.51100000000E-03 0.  1.
    9900012    2    1    2    0    0 -0.78062485576E+01 -0.18562902600E+02  0.24722503217E+02  0.59301936668E+02  0.49999986578E+02 0.  0.
        -12    1    1    2    0    0  0.78062485576E+01  0.18562902600E+02 -0.24722503217E+02  0.31886063332E+02  0.00000000000E+00 0.  1.
         11    1    3    3    0    0  0.81248806914E+01 -0.59493773817E+01  0.24548202452E+01  0.10365081774E+02  0.51100000000E-03 0. -1.
        -11    1    3    3    0    0 -0.24389021389E+02 -0.19246625340E+02  0.22205098992E+02  0.38188000377E+02  0.51100000000E-03 0.  1.
        -12    1    3    3    0    0  0.84578921397E+01  0.66331001219E+01  0.62583979379E-01  0.10748854517E+02  0.00000000000E+00 0.  1.
</event>
<event>
 7    1  0.6180395E-013  0.5930195E+02  0.7816164E-02  0.1266605E+00
        -11   -1    0    0    0    0  0.00000000000E+00  0.00000000000E+00  0.45593999997E+02  0.45594000000E+02  0.51100000000E-03 0. -1.
         11   -1    0    0    0    0 -0.00000000000E+00 -0.00000000000E+00 -0.45593999997E+02  0.45594000000E+02  0.51100000000E-03 0.  1.
    9900012    2    1    2    0    0  0.19193165698E+01 -0.31653553189E+02  0.33300499396E+01  0.59301946024E+02  0.50000003641E+02 0.  0.
        -12    1    1    2    0    0 -0.19193165698E+01  0.31653553189E+02 -0.33300499396E+01  0.31886053976E+02  0.00000000000E+00 0.  1.
         11    1    3    3    0    0  0.57660921661E+01 -0.39881872830E+02 -0.32143106950E+01  0.40424539487E+02  0.51100000000E-03 0. -1.
        -11    1    3    3    0    0  0.36030609382E+01  0.88734371983E+01  0.11261102136E+01  0.96430316971E+01  0.51100000000E-03 0.  1.
         12    1    3    3    0    0 -0.74498365345E+01 -0.64511755718E+00  0.54182504210E+01  0.92343748396E+01  0.00000000000E+00 0. -1.
</event>
<event>
 7    1  0.6180395E-013  0.5930193E+02  0.7816164E-02  0.1266605E+00
        -11   -1    0    0    0    0  0.00000000000E+00  0.00000000000E+00  0.45593999997E+02  0.45594000000E+02  0.51100000000E-03 0. -1.
         11   -1    0    0    0    0 -0.00000000000E+00 -0.00000000000E+00 -0.45593999997E+02  0.45594000000E+02  0.51100000000E-03 0.  1.
    9900012    2    1    2    0    0 -0.19977866612E+02 -0.18595218135E+02  0.16487083581E+02  0.59301933813E+02  0.49999981371E+02 0.  0.
        -12    1    1    2    0    0  0.19977866612E+02  0.18595218135E+02 -0.16487083581E+02  0.31886066187E+02  0.00000000000E+00 0.  1.
         11    1    3    3    0    0  0.80642512340E+01 -0.18451484256E+02  0.14714253846E+02  0.24939901478E+02  0.51100000000E-03 0. -1.
        -11    1    3    3    0    0 -0.21241094571E+02 -0.89190160958E+01 -0.43805703111E+00  0.23041806373E+02  0.51100000000E-03 0.  1.
         12    1    3    3    0    0 -0.68010232744E+01  0.87752822162E+01  0.22108867660E+01  0.11320225963E+02  0.00000000000E+00 0. -1.
</event>
<event>
 7    1  0.6180395E-013  0.5930195E+02  0.7816164E-02  0.1266605E+00
        -11   -1    0    0    0    0  0.00000000000E+00  0.00000000000E+00  0.45593999997E+02  0.45594000000E+02  0.51100000000E-03 0.  1.
         11   -1    0    0    0    0 -0.00000000000E+00 -0.00000000000E+00 -0.45593999997E+02  0.45594000000E+02  0.51100000000E-03 0. -1.
    9900012    2    1    2    0    0  0.41001321605E+01  0.30967436309E+02  0.63974179370E+01  0.59301950518E+02  0.50000011838E+02 0.  0.
        -12    1    1    2    0    0 -0.41001321605E+01 -0.30967436309E+02 -0.63974179370E+01  0.31886049482E+02  0.00000000000E+00 0.  1.
         11    1    3    3    0    0  0.13051430241E+01 -0.25455221178E+01  0.19473517062E+02  0.19682503606E+02  0.51100000000E-03 0. -1.
        -11    1    3    3    0    0  0.70330354770E+01  0.61263079359E+01 -0.57415326302E+01  0.10952645076E+02  0.51100000000E-03 0.  1.
         12    1    3    3    0    0 -0.42380463406E+01  0.27386650491E+02 -0.73345664949E+01  0.28666801837E+02  0.00000000000E+00 0. -1.
</event>
<event>
 7    1  0.6180395E-013  0.5930195E+02  0.7816164E-02  0.1266605E+00
        -11   -1    0    0    0    0  0.00000000000E+00  0.00000000000E+00  0.45593999997E+02  0.45594000000E+02  0.51100000000E-03 0.  1.
         11   -1    0    0    0    0 -0.00000000000E+00 -0.00000000000E+00 -0.45593999997E+02  0.45594000000E+02  0.51100000000E-03 0. -1.
    9900012    2    1    2    0    0 -0.58560007775E+01 -0.87251313617E+01 -0.30104813985E+02  0.59301945251E+02  0.50000002231E+02 0.  0.
        -12    1    1    2    0    0  0.58560007775E+01  0.87251313617E+01  0.30104813985E+02  0.31886054749E+02  0.00000000000E+00 0.  1.
         11    1    3    3    0    0  0.92140213658E+01 -0.14311623505E+02 -0.11343231550E+02  0.20454575511E+02  0.51100000000E-03 0. -1.
        -11    1    3    3    0    0 -0.11187118658E+02  0.16423572220E+02 -0.42445158714E+01  0.20319972036E+02  0.51100000000E-03 0.  1.
        -12    1    3    3    0    0 -0.38829034858E+01 -0.10837080077E+02 -0.14517066563E+02  0.18527397704E+02  0.00000000000E+00 0.  1.
</event>
<event>
 7    1  0.6180395E-013  0.5930194E+02  0.7816164E-02  0.1266605E+00
        -11   -1    0    0    0    0  0.00000000000E+00  0.00000000000E+00  0.45593999997E+02  0.45594000000E+02  0.51100000000E-03 0.  1.
         11   -1    0    0    0    0 -0.00000000000E+00 -0.00000000000E+00 -0.45593999997E+02  0.45594000000E+02  0.51100000000E-03 0. -1.
    9900012    2    1    2    0    0  0.73964215329E+01 -0.19335913832E+01 -0.30956016743E+02  0.59301940354E+02  0.49999993300E+02 0.  0.
        -12    1    1    2    0    0 -0.73964215329E+01  0.19335913832E+01  0.30956016743E+02  0.31886059646E+02  0.00000000000E+00 0.  1.
         11    1    3    3    0    0  0.10807105846E+02  0.13873222861E+02 -0.20032523619E+02  0.26656366072E+02  0.51100000000E-03 0. -1.
        -11    1    3    3    0    0 -0.83052354487E+01 -0.20326907105E+02 -0.27946099260E+01  0.22135264471E+02  0.51100000000E-03 0.  1.
        -12    1    3    3    0    0  0.48945511355E+01  0.45200928604E+01 -0.81288831979E+01  0.10510309811E+02  0.00000000000E+00 0.  1.
</event>
<event>
 7    1  0.6180395E-013  0.5930196E+02  0.7816164E-02  0.1266605E+00
        -11   -1    0    0    0    0  0.00000000000E+00  0.00000000000E+00  0.45593999997E+02  0.45594000000E+02  0.51100000000E-03 0. -1.
         11   -1    0    0    0    0 -0.00000000000E+00 -0.00000000000E+00 -0.45593999997E+02  0.45594000000E+02  0.51100000000E-03 0.  1.
    9900012    2    1    2    0    0  0.25402150009E+02 -0.11460267518E+01  0.19238939732E+02  0.59301962234E+02  0.50000033204E+02 0.  0.
        -12    1    1    2    0    0 -0.25402150009E+02  0.11460267518E+01 -0.19238939732E+02  0.31886037766E+02  0.00000000000E+00 0.  1.
         11    1    3    3    0    0  0.87811786594E+01 -0.48783419073E+01  0.26338682526E+02  0.28189244684E+02  0.51100000000E-03 0. -1.
        -11    1    3    3    0    0  0.29881451512E+01 -0.71930514802E+01 -0.10739892756E+02  0.13267038016E+02  0.51100000000E-03 0.  1.
        -12    1    3    3    0    0  0.13632826198E+02  0.10925366636E+02  0.36401499629E+01  0.17845679534E+02  0.00000000000E+00 0.  1.
</event>
<event>
 7    1  0.6180395E-013  0.5930195E+02  0.7816164E-02  0.1266605E+00
        -11   -1    0    0    0    0  0.00000000000E+00  0.00000000000E+00  0.45593999997E+02  0.45594000000E+02  0.51100000000E-03 0.  1.
         11   -1    0    0    0    0 -0.00000000000E+00 -0.00000000000E+00 -0.45593999997E+02  0.45594000000E+02  0.51100000000E-03 0. -1.
    9900012    2    1    2    0    0 -0.26961555211E+02 -0.14808269362E+02 -0.83970112254E+01  0.59301951352E+02  0.50000013357E+02 0.  0.
        -12    1    1    2    0    0  0.26961555211E+02  0.14808269362E+02  0.83970112254E+01  0.31886048648E+02  0.00000000000E+00 0.  1.
         11    1    3    3    0    0 -0.17230888091E+02  0.96644251584E+01 -0.94040399799E+01  0.21880141367E+02  0.51100000000E-03 0. -1.
        -11    1    3    3    0    0 -0.15398797833E+02 -0.20730303966E+02  0.86151471502E+01  0.27222954247E+02  0.51100000000E-03 0.  1.
        -12    1    3    3    0    0  0.56681307130E+01 -0.37423905538E+01 -0.76081183957E+01  0.10198855738E+02  0.00000000000E+00 0.  1.
</event>
<event>
 7    1  0.6180395E-013  0.5930196E+02  0.7816164E-02  0.1266605E+00
        -11   -1    0    0    0    0  0.00000000000E+00  0.00000000000E+00  0.45593999997E+02  0.45594000000E+02  0.51100000000E-03 0.  1.
         11   -1    0    0    0    0 -0.00000000000E+00 -0.00000000000E+00 -0.45593999997E+02  0.45594000000E+02  0.51100000000E-03 0. -1.
    9900012    2    1    2    0    0 -0.84251427919E+01  0.30751433171E+02 -0.29285365005E+00  0.59301961733E+02  0.50000032290E+02 0.  0.
        -12    1    1    2    0    0  0.84251427919E+01 -0.30751433171E+02  0.29285365005E+00  0.31886038267E+02  0.00000000000E+00 0.  1.
         11    1    3    3    0    0  0.22209289450E+01  0.20007266743E+02  0.20468042078E+02  0.28708256560E+02  0.51100000000E-03 0.  1.
        -11    1    3    3    0    0 -0.11548751212E+02  0.60894462441E+01 -0.47460677110E+01  0.13891730241E+02  0.51100000000E-03 0. -1.
         12    1    3    3    0    0  0.90267947524E+00  0.46547201830E+01 -0.16014828017E+02  0.16701974932E+02  0.00000000000E+00 0. -1.
</event>
<event>
 7    1  0.6180395E-013  0.5930191E+02  0.7816164E-02  0.1266605E+00
        -11   -1    0    0    0    0  0.00000000000E+00  0.00000000000E+00  0.45593999997E+02  0.45594000000E+02  0.51100000000E-03 0.  1.
         11   -1    0    0    0    0 -0.00000000000E+00 -0.00000000000E+00 -0.45593999997E+02  0.45594000000E+02  0.51100000000E-03 0. -1.
    9900012    2    1    2    0    0 -0.27441157820E+02  0.16237548898E+02  0.21815019844E+00  0.59301910146E+02  0.49999938207E+02 0.  0.
        -12    1    1    2    0    0  0.27441157820E+02 -0.16237548898E+02 -0.21815019844E+00  0.31886089854E+02  0.00000000000E+00 0.  1.
         11    1    3    3    0    0 -0.22010695657E+02  0.17101621366E+02  0.26982531858E+01  0.28003870218E+02  0.51100000000E-03 0. -1.
        -11    1    3    3    0    0  0.10398973234E+02  0.65844578259E+01 -0.56090588876E+01  0.13526095928E+02  0.51100000000E-03 0.  1.
        -12    1    3    3    0    0 -0.15829435397E+02 -0.74485302938E+01  0.31289559002E+01  0.17771944000E+02  0.00000000000E+00 0.  1.
</event>
<event>
 7    1  0.6180395E-013  0.5930194E+02  0.7816164E-02  0.1266605E+00
        -11   -1    0    0    0    0  0.00000000000E+00  0.00000000000E+00  0.45593999997E+02  0.45594000000E+02  0.51100000000E-03 0.  1.
         11   -1    0    0    0    0 -0.00000000000E+00 -0.00000000000E+00 -0.45593999997E+02  0.45594000000E+02  0.51100000000E-03 0. -1.
    9900012    2    1    2    0    0  0.26317402516E+02 -0.12890709578E+02 -0.12567597662E+02  0.59301943806E+02  0.49999999596E+02 0.  0.
        -12    1    1    2    0    0 -0.26317402516E+02  0.12890709578E+02  0.12567597662E+02  0.31886056194E+02  0.00000000000E+00 0.  1.
         11    1    3    3    0    0 -0.83396375384E+01 -0.17590187312E+02  0.34774716564E+01  0.19775162536E+02  0.51100000000E-03 0.  1.
        -11    1    3    3    0    0  0.27041584384E+02  0.68963946943E+01 -0.14508494482E+02  0.31453202669E+02  0.51100000000E-03 0. -1.
        -12    1    3    3    0    0  0.76154556703E+01 -0.21969169603E+01 -0.15365748365E+01  0.80735786009E+01  0.00000000000E+00 0.  1.
</event>
<event>
 7    1  0.6180395E-013  0.5930196E+02  0.7816164E-02  0.1266605E+00
        -11   -1    0    0    0    0  0.00000000000E+00  0.00000000000E+00  0.45593999997E+02  0.45594000000E+02  0.51100000000E-03 0. -1.
         11   -1    0    0    0    0 -0.00000000000E+00 -0.00000000000E+00 -0.45593999997E+02  0.45594000000E+02  0.51100000000E-03 0.  1.
    9900012    2    1    2    0    0  0.18612004235E+02 -0.24819375100E+01  0.25771168707E+02  0.59301955216E+02  0.50000020404E+02 0.  0.
        -12    1    1    2    0    0 -0.18612004235E+02  0.24819375100E+01 -0.25771168707E+02  0.31886044784E+02  0.00000000000E+00 0.  1.
         11    1    3    3    0    0  0.31044817847E+02  0.58748009115E+01  0.20780086702E+02  0.37816742384E+02  0.51100000000E-03 0. -1.
        -11    1    3    3    0    0 -0.44251471303E+01 -0.79359966641E+01 -0.35633640266E+01  0.97600990581E+01  0.51100000000E-03 0.  1.
         12    1    3    3    0    0 -0.80076664816E+01 -0.42074175746E+00  0.85544460315E+01  0.11725113774E+02  0.00000000000E+00 0. -1.
</event>
<event>
 7    1  0.6180395E-013  0.5930195E+02  0.7816164E-02  0.1266605E+00
        -11   -1    0    0    0    0  0.00000000000E+00  0.00000000000E+00  0.45593999997E+02  0.45594000000E+02  0.51100000000E-03 0. -1.
         11   -1    0    0    0    0 -0.00000000000E+00 -0.00000000000E+00 -0.45593999997E+02  0.45594000000E+02  0.51100000000E-03 0.  1.
    9900012    2    1    2    0    0  0.13150784609E+02 -0.12082247021E+02 -0.26415841205E+02  0.59301945125E+02  0.50000002001E+02 0.  0.
        -12    1    1    2    0    0 -0.13150784609E+02  0.12082247021E+02  0.26415841205E+02  0.31886054875E+02  0.00000000000E+00 0.  1.
         11    1    3    3    0    0 -0.10013227492E+02 -0.15431722199E+02 -0.90641139681E+01  0.20507582430E+02  0.51100000000E-03 0. -1.
        -11    1    3    3    0    0  0.23466195464E+02  0.68873148812E+00 -0.23931252052E+01  0.23597960275E+02  0.51100000000E-03 0.  1.
        -12    1    3    3    0    0 -0.30218336343E+00  0.26607436898E+01 -0.14958602032E+02  0.15196402420E+02  0.00000000000E+00 0.  1.
</event>
<event>
 7    1  0.6180395E-013  0.5930193E+02  0.7816164E-02  0.1266605E+00
        -11   -1    0    0    0    0  0.00000000000E+00  0.00000000000E+00  0.45593999997E+02  0.45594000000E+02  0.51100000000E-03 0.  1.
         11   -1    0    0    0    0 -0.00000000000E+00 -0.00000000000E+00 -0.45593999997E+02  0.45594000000E+02  0.51100000000E-03 0. -1.
    9900012    2    1    2    0    0  0.19513011437E+02  0.11845572929E+02 -0.22263109712E+02  0.59301933021E+02  0.49999979926E+02 0.  0.
        -12    1    1    2    0    0 -0.19513011437E+02 -0.11845572929E+02  0.22263109712E+02  0.31886066979E+02  0.00000000000E+00 0.  1.
         11    1    3    3    0    0  0.90924834279E+01  0.17910129762E+02 -0.28377886825E+02  0.34767088804E+02  0.51100000000E-03 0. -1.
        -11    1    3    3    0    0  0.15636828405E+02 -0.79735299810E+01  0.70251673423E+01  0.18906098471E+02  0.51100000000E-03 0.  1.
        -12    1    3    3    0    0 -0.52163003962E+01  0.19089731488E+01 -0.91039022858E+00  0.56287457461E+01  0.00000000000E+00 0.  1.
</event>
<event>
 7    1  0.6180395E-013  0.5930195E+02  0.7816164E-02  0.1266605E+00
        -11   -1    0    0    0    0  0.00000000000E+00  0.00000000000E+00  0.45593999997E+02  0.45594000000E+02  0.51100000000E-03 0.  1.
         11   -1    0    0    0    0 -0.00000000000E+00 -0.00000000000E+00 -0.45593999997E+02  0.45594000000E+02  0.51100000000E-03 0. -1.
    9900012    2    1    2    0    0  0.84280529366E+01 -0.87446831454E+00 -0.30739607141E+02  0.59301949471E+02  0.50000009928E+02 0.  0.
        -12    1    1    2    0    0 -0.84280529366E+01  0.87446831454E+00  0.30739607141E+02  0.31886050529E+02  0.00000000000E+00 0.  1.
         11    1    3    3    0    0  0.33836198545E+01  0.22371735991E+02 -0.12958938305E+02  0.26074461390E+02  0.51100000000E-03 0. -1.
        -11    1    3    3    0    0  0.65941130384E+01 -0.75312825523E+01 -0.80457259699E+00  0.10042404143E+02  0.51100000000E-03 0.  1.
         12    1    3    3    0    0 -0.15496799564E+01 -0.15714921753E+02 -0.16976096239E+02  0.23185083938E+02  0.00000000000E+00 0. -1.
</event>
<event>
 7    1  0.6180395E-013  0.5930195E+02  0.7816164E-02  0.1266605E+00
        -11   -1    0    0    0    0  0.00000000000E+00  0.00000000000E+00  0.45593999997E+02  0.45594000000E+02  0.51100000000E-03 0. -1.
         11   -1    0    0    0    0 -0.00000000000E+00 -0.00000000000E+00 -0.45593999997E+02  0.45594000000E+02  0.51100000000E-03 0.  1.
    9900012    2    1    2    0    0  0.12612292984E+02 -0.11769523163E+01  0.29262006557E+02  0.59301950091E+02  0.50000011058E+02 0.  0.
        -12    1    1    2    0    0 -0.12612292984E+02  0.11769523163E+01 -0.29262006557E+02  0.31886049909E+02  0.00000000000E+00 0.  1.
         11    1    3    3    0    0 -0.49385593670E+01  0.17971924135E+02  0.26712824344E+02  0.32572295136E+02  0.51100000000E-03 0. -1.
        -11    1    3    3    0    0  0.13801778343E+02 -0.15184940153E+02 -0.40732755032E+00  0.20524069013E+02  0.51100000000E-03 0.  1.
        -12    1    3    3    0    0  0.37490740082E+01 -0.39639362979E+01  0.29565097629E+01  0.62055859410E+01  0.00000000000E+00 0.  1.
</event>
<event>
 7    1  0.6180395E-013  0.5930198E+02  0.7816164E-02  0.1266605E+00
        -11   -1    0    0    0    0  0.00000000000E+00  0.00000000000E+00  0.45593999997E+02  0.45594000000E+02  0.51100000000E-03 0.  1.
         11   -1    0    0    0    0 -0.00000000000E+00 -0.00000000000E+00 -0.45593999997E+02  0.45594000000E+02  0.51100000000E-03 0. -1.
    9900012    2    1    2    0    0 -0.22545294209E+02  0.14588128805E+01  0.22501110203E+02  0.59301978198E+02  0.50000062319E+02 0.  0.
        -12    1    1    2    0    0  0.22545294209E+02 -0.14588128805E+01 -0.22501110203E+02  0.31886021802E+02  0.00000000000E+00 0.  1.
         11    1    3    3    0    0  0.23503078194E+01 -0.25974367951E+01 -0.10217252313E+02  0.10801058737E+02  0.51100000000E-03 0. -1.
        -11    1    3    3    0    0 -0.13938578080E+02 -0.36341027877E+01  0.32003000253E+02  0.35095337118E+02  0.51100000000E-03 0.  1.
         12    1    3    3    0    0 -0.10957023948E+02  0.76903524632E+01  0.71536226335E+00  0.13405582343E+02  0.00000000000E+00 0. -1.
</event>
<event>
 7    1  0.6180395E-013  0.5930196E+02  0.7816164E-02  0.1266605E+00
        -11   -1    0    0    0    0  0.00000000000E+00  0.00000000000E+00  0.45593999997E+02  0.45594000000E+02  0.51100000000E-03 0.  1.
         11   -1    0    0    0    0 -0.00000000000E+00 -0.00000000000E+00 -0.45593999997E+02  0.45594000000E+02  0.51100000000E-03 0. -1.
    9900012    2    1    2    0    0 -0.25839470633E+02  0.14628423200E+02 -0.11621136406E+02  0.59301955729E+02  0.50000021339E+02 0.  0.
        -12    1    1    2    0    0  0.25839470633E+02 -0.14628423200E+02  0.11621136406E+02  0.31886044271E+02  0.00000000000E+00 0.  1.
         11    1    3    3    0    0 -0.18892787558E+02 -0.91243128635E+01 -0.16862137009E+02  0.26916949524E+02  0.51100000000E-03 0. -1.
        -11    1    3    3    0    0  0.46735103852E+01  0.99427327751E+01  0.86928481643E+01  0.14009469791E+02  0.51100000000E-03 0.  1.
         12    1    3    3    0    0 -0.11620193461E+02  0.13810003288E+02 -0.34518475616E+01  0.18375536413E+02  0.00000000000E+00 0. -1.
</event>
<event>
 7    1  0.6180395E-013  0.5930195E+02  0.7816164E-02  0.1266605E+00
        -11   -1    0    0    0    0  0.00000000000E+00  0.00000000000E+00  0.45593999997E+02  0.45594000000E+02  0.51100000000E-03 0. -1.
         11   -1    0    0    0    0 -0.00000000000E+00 -0.00000000000E+00 -0.45593999997E+02  0.45594000000E+02  0.51100000000E-03 0.  1.
    9900012    2    1    2    0    0  0.14688222977E+02  0.12894176111E+02  0.25193580795E+02  0.59301949992E+02  0.50000010878E+02 0.  0.
        -12    1    1    2    0    0 -0.14688222977E+02 -0.12894176111E+02 -0.25193580795E+02  0.31886050008E+02  0.00000000000E+00 0.  1.
         11    1    3    3    0    0 -0.83140023728E+01  0.39594412029E+01  0.14725084049E+02  0.17367438228E+02  0.51100000000E-03 0. -1.
        -11    1    3    3    0    0  0.26522900667E+02 -0.13120573158E+01  0.14641123990E+02  0.30324054250E+02  0.51100000000E-03 0.  1.
        -12    1    3    3    0    0 -0.35206753176E+01  0.10246792224E+02 -0.41726272435E+01  0.11610457514E+02  0.00000000000E+00 0.  1.
</event>
<event>
 7    1  0.6180395E-013  0.5930194E+02  0.7816164E-02  0.1266605E+00
        -11   -1    0    0    0    0  0.00000000000E+00  0.00000000000E+00  0.45593999997E+02  0.45594000000E+02  0.51100000000E-03 0.  1.
         11   -1    0    0    0    0 -0.00000000000E+00 -0.00000000000E+00 -0.45593999997E+02  0.45594000000E+02  0.51100000000E-03 0. -1.
    9900012    2    1    2    0    0  0.65502138848E+01 -0.51700024335E-01 -0.31205971298E+02  0.59301943181E+02  0.49999998456E+02 0.  0.
        -12    1    1    2    0    0 -0.65502138848E+01  0.51700024335E-01  0.31205971298E+02  0.31886056819E+02  0.00000000000E+00 0.  1.
         11    1    3    3    0    0 -0.20393702235E+02 -0.34184786061E+01 -0.14985659196E+02  0.25537405284E+02  0.51100000000E-03 0.  1.
        -11    1    3    3    0    0  0.14500774888E+02  0.76504515033E+01 -0.79425429111E+01  0.18217735005E+02  0.51100000000E-03 0. -1.
        -12    1    3    3    0    0  0.12443141231E+02 -0.42836729215E+01 -0.82777691907E+01  0.15546802892E+02  0.00000000000E+00 0.  1.
</event>
<event>
 7    1  0.6180395E-013  0.5930194E+02  0.7816164E-02  0.1266605E+00
        -11   -1    0    0    0    0  0.00000000000E+00  0.00000000000E+00  0.45593999997E+02  0.45594000000E+02  0.51100000000E-03 0. -1.
         11   -1    0    0    0    0 -0.00000000000E+00 -0.00000000000E+00 -0.45593999997E+02  0.45594000000E+02  0.51100000000E-03 0.  1.
    9900012    2    1    2    0    0  0.15178882733E+02 -0.44812306822E+01  0.27681054404E+02  0.59301942194E+02  0.49999996656E+02 0.  0.
        -12    1    1    2    0    0 -0.15178882733E+02  0.44812306822E+01 -0.27681054404E+02  0.31886057806E+02  0.00000000000E+00 0.  1.
         11    1    3    3    0    0 -0.60218336607E+01 -0.51353686794E+00  0.57137803079E+01  0.83170599625E+01  0.51100000000E-03 0. -1.
        -11    1    3    3    0    0  0.17440006655E+02  0.17209337662E+02  0.11739032593E+02  0.27168364348E+02  0.51100000000E-03 0.  1.
        -12    1    3    3    0    0  0.37607097395E+01 -0.21177031476E+02  0.10228241503E+02  0.23816517884E+02  0.00000000000E+00 0.  1.
</event>
<event>
 7    1  0.6180395E-013  0.5930192E+02  0.7816164E-02  0.1266605E+00
        -11   -1    0    0    0    0  0.00000000000E+00  0.00000000000E+00  0.45593999997E+02  0.45594000000E+02  0.51100000000E-03 0.  1.
         11   -1    0    0    0    0 -0.00000000000E+00 -0.00000000000E+00 -0.45593999997E+02  0.45594000000E+02  0.51100000000E-03 0. -1.
    9900012    2    1    2    0    0  0.43557258693E+01 -0.22983303599E+02 -0.21668359605E+02  0.59301915258E+02  0.49999947531E+02 0.  0.
        -12    1    1    2    0    0 -0.43557258693E+01  0.22983303599E+02  0.21668359605E+02  0.31886084742E+02  0.00000000000E+00 0.  1.
         11    1    3    3    0    0  0.36703783125E+01 -0.15071395308E+02 -0.79615920109E+01  0.17435755822E+02  0.51100000000E-03 0.  1.
        -11    1    3    3    0    0  0.17046467357E+02  0.60049934991E+01 -0.58961206851E+01  0.19010687406E+02  0.51100000000E-03 0. -1.
        -12    1    3    3    0    0 -0.16361119800E+02 -0.13916901791E+02 -0.78106469092E+01  0.22855472030E+02  0.00000000000E+00 0.  1.
</event>
<event>
 7    1  0.6180395E-013  0.5930194E+02  0.7816164E-02  0.1266605E+00
        -11   -1    0    0    0    0  0.00000000000E+00  0.00000000000E+00  0.45593999997E+02  0.45594000000E+02  0.51100000000E-03 0.  1.
         11   -1    0    0    0    0 -0.00000000000E+00 -0.00000000000E+00 -0.45593999997E+02  0.45594000000E+02  0.51100000000E-03 0. -1.
    9900012    2    1    2    0    0  0.46666911023E+01  0.31520294532E+02  0.11889422949E+01  0.59301944160E+02  0.50000000241E+02 0.  0.
        -12    1    1    2    0    0 -0.46666911023E+01 -0.31520294532E+02 -0.11889422949E+01  0.31886055840E+02  0.00000000000E+00 0.  1.
         11    1    3    3    0    0 -0.30377162801E+01  0.11237581616E+02  0.11654005349E+02  0.16472000538E+02  0.51100000000E-03 0.  1.
        -11    1    3    3    0    0  0.13551847686E+02  0.14636772017E+02 -0.21367403272E+02  0.29231038190E+02  0.51100000000E-03 0. -1.
         12    1    3    3    0    0 -0.58474403040E+01  0.56459408988E+01  0.10902340218E+02  0.13598905433E+02  0.00000000000E+00 0. -1.
</event>
<event>
 7    1  0.6180395E-013  0.5930203E+02  0.7816164E-02  0.1266604E+00
        -11   -1    0    0    0    0  0.00000000000E+00  0.00000000000E+00  0.45593999997E+02  0.45594000000E+02  0.51100000000E-03 0.  1.
         11   -1    0    0    0    0 -0.00000000000E+00 -0.00000000000E+00 -0.45593999997E+02  0.45594000000E+02  0.51100000000E-03 0. -1.
    9900012    2    1    2    0    0 -0.91911124517E+01  0.30349623520E+02 -0.33375330042E+01  0.59302026242E+02  0.50000149939E+02 0.  0.
        -12    1    1    2    0    0  0.91911124517E+01 -0.30349623520E+02  0.33375330042E+01  0.31885973758E+02  0.00000000000E+00 0.  1.
         11    1    3    3    0    0 -0.14757255632E+02  0.24764807943E+02 -0.22623618806E+02  0.36645605935E+02  0.51100000000E-03 0. -1.
        -11    1    3    3    0    0  0.55364059004E+01  0.19567737824E+01  0.17786207464E+02  0.18730454616E+02  0.51100000000E-03 0.  1.
        -12    1    3    3    0    0  0.29737280338E-01  0.36280417953E+01  0.14998783378E+01  0.39259656905E+01  0.00000000000E+00 0.  1.
</event>
<event>
 7    1  0.6180395E-013  0.5930210E+02  0.7816164E-02  0.1266604E+00
        -11   -1    0    0    0    0  0.00000000000E+00  0.00000000000E+00  0.45593999997E+02  0.45594000000E+02  0.51100000000E-03 0.  1.
         11   -1    0    0    0    0 -0.00000000000E+00 -0.00000000000E+00 -0.45593999997E+02  0.45594000000E+02  0.51100000000E-03 0. -1.
    9900012    2    1    2    0    0  0.12409927800E+02  0.22970318989E+01 -0.29281874183E+02  0.59302096857E+02  0.50000278724E+02 0.  0.
        -12    1    1    2    0    0 -0.12409927800E+02 -0.22970318989E+01  0.29281874183E+02  0.31885903143E+02  0.00000000000E+00 0.  1.
         11    1    3    3    0    0  0.25698819053E+02  0.53927873556E+00 -0.15475903184E+02  0.30003728134E+02  0.51100000000E-03 0. -1.
        -11    1    3    3    0    0 -0.48425460193E+01  0.10882404429E+02 -0.11683372057E+02  0.16684668441E+02  0.51100000000E-03 0.  1.
         12    1    3    3    0    0 -0.84463452344E+01 -0.91246512658E+01 -0.21225989418E+01  0.12613700282E+02  0.00000000000E+00 0. -1.
</event>
<event>
 7    1  0.6180395E-013  0.5930194E+02  0.7816164E-02  0.1266605E+00
        -11   -1    0    0    0    0  0.00000000000E+00  0.00000000000E+00  0.45593999997E+02  0.45594000000E+02  0.51100000000E-03 0.  1.
         11   -1    0    0    0    0 -0.00000000000E+00 -0.00000000000E+00 -0.45593999997E+02  0.45594000000E+02  0.51100000000E-03 0. -1.
    9900012    2    1    2    0    0 -0.72208842366E+01  0.57610650077E+01 -0.30518678195E+02  0.59301941010E+02  0.49999994496E+02 0.  0.
        -12    1    1    2    0    0  0.72208842366E+01 -0.57610650077E+01  0.30518678195E+02  0.31886058990E+02  0.00000000000E+00 0.  1.
         11    1    3    3    0    0 -0.60432333194E+01 -0.42544337604E+01 -0.10130067975E+02  0.12539503699E+02  0.51100000000E-03 0. -1.
        -11    1    3    3    0    0 -0.47610759309E+00  0.94145226941E+01  0.11494745750E+02  0.14865702005E+02  0.51100000000E-03 0.  1.
        -12    1    3    3    0    0 -0.70154332410E+00  0.60097607407E+00 -0.31883355969E+02  0.31896735305E+02  0.00000000000E+00 0.  1.
</event>
<event>
 7    1  0.6180395E-013  0.5930197E+02  0.7816164E-02  0.1266605E+00
        -11   -1    0    0    0    0  0.00000000000E+00  0.00000000000E+00  0.45593999997E+02  0.45594000000E+02  0.51100000000E-03 0.  1.
         11   -1    0    0    0    0 -0.00000000000E+00 -0.00000000000E+00 -0.45593999997E+02  0.45594000000E+02  0.51100000000E-03 0. -1.
    9900012    2    1    2    0    0  0.18257187948E+02 -0.22409123746E+02 -0.13461992783E+02  0.59301968756E+02  0.50000045098E+02 0.  0.
        -12    1    1    2    0    0 -0.18257187948E+02  0.22409123746E+02  0.13461992783E+02  0.31886031244E+02  0.00000000000E+00 0.  1.
         11    1    3    3    0    0  0.15913711020E+02 -0.85981325028E+01  0.40883008193E+01  0.18544225107E+02  0.51100000000E-03 0. -1.
        -11    1    3    3    0    0 -0.13462259173E+02 -0.41842650620E-01 -0.68311034521E-01  0.13462497521E+02  0.51100000000E-03 0.  1.
         12    1    3    3    0    0  0.15805736101E+02 -0.13769148592E+02 -0.17481982568E+02  0.27295246128E+02  0.00000000000E+00 0. -1.
</event>
<event>
 7    1  0.6180395E-013  0.5930194E+02  0.7816164E-02  0.1266605E+00
        -11   -1    0    0    0    0  0.00000000000E+00  0.00000000000E+00  0.45593999997E+02  0.45594000000E+02  0.51100000000E-03 0.  1.
         11   -1    0    0    0    0 -0.00000000000E+00 -0.00000000000E+00 -0.45593999997E+02  0.45594000000E+02  0.51100000000E-03 0. -1.
    9900012    2    1    2    0    0 -0.24121545255E+02 -0.94857240207E+01 -0.18571288510E+02  0.59301942505E+02  0.49999997223E+02 0.  0.
        -12    1    1    2    0    0  0.24121545255E+02  0.94857240207E+01  0.18571288510E+02  0.31886057495E+02  0.00000000000E+00 0.  1.
         11    1    3    3    0    0 -0.49615616946E+01 -0.14575555084E+02 -0.67416565734E+01  0.16808147848E+02  0.51100000000E-03 0. -1.
        -11    1    3    3    0    0  0.21088462176E+00  0.17469746272E+02 -0.23553843084E+01  0.17629076625E+02  0.51100000000E-03 0.  1.
        -12    1    3    3    0    0 -0.19370868182E+02 -0.12379915209E+02 -0.94742476281E+01  0.24864718032E+02  0.00000000000E+00 0.  1.
</event>
<event>
 7    1  0.6180395E-013  0.5930197E+02  0.7816164E-02  0.1266605E+00
        -11   -1    0    0    0    0  0.00000000000E+00  0.00000000000E+00  0.45593999997E+02  0.45594000000E+02  0.51100000000E-03 0. -1.
         11   -1    0    0    0    0 -0.00000000000E+00 -0.00000000000E+00 -0.45593999997E+02  0.45594000000E+02  0.51100000000E-03 0.  1.
    9900012    2    1    2    0    0  0.10152772994E+02  0.22738262569E+02  0.19915100108E+02  0.59301974904E+02  0.50000056311E+02 0.  0.
        -12    1    1    2    0    0 -0.10152772994E+02 -0.22738262569E+02 -0.19915100108E+02  0.31886025096E+02  0.00000000000E+00 0.  1.
         11    1    3    3    0    0  0.97300674744E+01 -0.16703343738E+01 -0.57893122121E+00  0.98893574916E+01  0.51100000000E-03 0. -1.
        -11    1    3    3    0    0  0.47253675152E+01  0.80228101406E+01  0.28998420351E+02  0.30456575051E+02  0.51100000000E-03 0.  1.
        -12    1    3    3    0    0 -0.43026619952E+01  0.16385786802E+02 -0.85043890222E+01  0.18956042361E+02  0.00000000000E+00 0.  1.
</event>
<event>
 7    1  0.6180395E-013  0.5930193E+02  0.7816164E-02  0.1266605E+00
        -11   -1    0    0    0    0  0.00000000000E+00  0.00000000000E+00  0.45593999997E+02  0.45594000000E+02  0.51100000000E-03 0.  1.
         11   -1    0    0    0    0 -0.00000000000E+00 -0.00000000000E+00 -0.45593999997E+02  0.45594000000E+02  0.51100000000E-03 0. -1.
    9900012    2    1    2    0    0 -0.13066087406E+02  0.17898147253E+02  0.22927174788E+02  0.59301926881E+02  0.49999968729E+02 0.  0.
        -12    1    1    2    0    0  0.13066087406E+02 -0.17898147253E+02 -0.22927174788E+02  0.31886073119E+02  0.00000000000E+00 0.  1.
         11    1    3    3    0    0 -0.17433006491E+01 -0.96509210130E+01 -0.31063287938E+00  0.98120266305E+01  0.51100000000E-03 0. -1.
        -11    1    3    3    0    0  0.72025211682E+01  0.23508299106E+02  0.11097177873E+02  0.26975244115E+02  0.51100000000E-03 0.  1.
        -12    1    3    3    0    0 -0.18525307925E+02  0.40407691603E+01  0.12140629794E+02  0.22514656136E+02  0.00000000000E+00 0.  1.
</event>
<event>
 7    1  0.6180395E-013  0.5930197E+02  0.7816164E-02  0.1266605E+00
        -11   -1    0    0    0    0  0.00000000000E+00  0.00000000000E+00  0.45593999997E+02  0.45594000000E+02  0.51100000000E-03 0.  1.
         11   -1    0    0    0    0 -0.00000000000E+00 -0.00000000000E+00 -0.45593999997E+02  0.45594000000E+02  0.51100000000E-03 0. -1.
    9900012    2    1    2    0    0  0.30294128868E+02  0.32893296051E+01 -0.93896145439E+01  0.59301971800E+02  0.50000050649E+02 0.  0.
        -12    1    1    2    0    0 -0.30294128868E+02 -0.32893296051E+01  0.93896145439E+01  0.31886028200E+02  0.00000000000E+00 0.  1.
         11    1    3    3    0    0  0.24980474695E+02  0.65480342413E+01  0.12789911076E+02  0.28818096641E+02  0.51100000000E-03 0. -1.
        -11    1    3    3    0    0  0.94266150241E+01 -0.82329086247E+01 -0.20145219200E+02  0.23716486083E+02  0.51100000000E-03 0.  1.
         12    1    3    3    0    0 -0.41129608519E+01  0.49742039885E+01 -0.20343064198E+01  0.67673890754E+01  0.00000000000E+00 0. -1.
</event>
<event>
 7    1  0.6180395E-013  0.5930191E+02  0.7816164E-02  0.1266605E+00
        -11   -1    0    0    0    0  0.00000000000E+00  0.00000000000E+00  0.45593999997E+02  0.45594000000E+02  0.51100000000E-03 0.  1.
         11   -1    0    0    0    0 -0.00000000000E+00 -0.00000000000E+00 -0.45593999997E+02  0.45594000000E+02  0.51100000000E-03 0. -1.
    9900012    2    1    2    0    0  0.58682835039E+01  0.71204140249E+00 -0.31333355946E+02  0.59301906651E+02  0.49999931833E+02 0.  0.
        -12    1    1    2    0    0 -0.58682835039E+01 -0.71204140249E+00  0.31333355946E+02  0.31886093349E+02  0.00000000000E+00 0.  1.
         11    1    3    3    0    0  0.14751088691E+01 -0.19067532298E+01 -0.18447467551E+02  0.18604319750E+02  0.51100000000E-03 0. -1.
        -11    1    3    3    0    0  0.12260808668E+02  0.16672025376E+02 -0.10704910616E+01  0.20722688308E+02  0.51100000000E-03 0.  1.
        -12    1    3    3    0    0 -0.78676340335E+01 -0.14053230744E+02 -0.11815397334E+02  0.19974898592E+02  0.00000000000E+00 0.  1.
</event>
<event>
 7    1  0.6180395E-013  0.5930189E+02  0.7816164E-02  0.1266605E+00
        -11   -1    0    0    0    0  0.00000000000E+00  0.00000000000E+00  0.45593999997E+02  0.45594000000E+02  0.51100000000E-03 0. -1.
         11   -1    0    0    0    0 -0.00000000000E+00 -0.00000000000E+00 -0.45593999997E+02  0.45594000000E+02  0.51100000000E-03 0.  1.
    9900012    2    1    2    0    0 -0.27543402486E+02  0.54167113585E+01  0.15124302881E+02  0.59301885153E+02  0.49999892626E+02 0.  0.
        -12    1    1    2    0    0  0.27543402486E+02 -0.54167113585E+01 -0.15124302881E+02  0.31886114847E+02  0.00000000000E+00 0.  1.
         11    1    3    3    0    0 -0.34231042926E+02 -0.11801416643E+02  0.20990319539E+01  0.36269045617E+02  0.51100000000E-03 0. -1.
        -11    1    3    3    0    0  0.30839415506E+01  0.68924122345E+01  0.27779341510E+01  0.80456796050E+01  0.51100000000E-03 0.  1.
         12    1    3    3    0    0  0.36036988901E+01  0.10325715767E+02  0.10247336776E+02  0.14987159930E+02  0.00000000000E+00 0. -1.
</event>
<event>
 7    1  0.6180395E-013  0.5930180E+02  0.7816164E-02  0.1266605E+00
        -11   -1    0    0    0    0  0.00000000000E+00  0.00000000000E+00  0.45593999997E+02  0.45594000000E+02  0.51100000000E-03 0. -1.
         11   -1    0    0    0    0 -0.00000000000E+00 -0.00000000000E+00 -0.45593999997E+02  0.45594000000E+02  0.51100000000E-03 0.  1.
    9900012    2    1    2    0    0  0.21058495725E+02 -0.21286310378E+02  0.10961851810E+02  0.59301804761E+02  0.49999746010E+02 0.  0.
        -12    1    1    2    0    0 -0.21058495725E+02  0.21286310378E+02 -0.10961851810E+02  0.31886195239E+02  0.00000000000E+00 0.  1.
         11    1    3    3    0    0  0.18951074162E+02 -0.34408551503E+01  0.22425265052E+02  0.29561380364E+02  0.51100000000E-03 0. -1.
        -11    1    3    3    0    0  0.46127749832E+01 -0.16021090057E+02  0.11887089728E+01  0.16714246886E+02  0.51100000000E-03 0.  1.
        -12    1    3    3    0    0 -0.25053534209E+01 -0.18243651705E+01 -0.12652122215E+02  0.13026177512E+02  0.00000000000E+00 0.  1.
</event>
<event>
 7    1  0.6180395E-013  0.5930194E+02  0.7816164E-02  0.1266605E+00
        -11   -1    0    0    0    0  0.00000000000E+00  0.00000000000E+00  0.45593999997E+02  0.45594000000E+02  0.51100000000E-03 0.  1.
         11   -1    0    0    0    0 -0.00000000000E+00 -0.00000000000E+00 -0.45593999997E+02  0.45594000000E+02  0.51100000000E-03 0. -1.
    9900012    2    1    2    0    0  0.39845813806E+01 -0.12353888000E+02 -0.29124312053E+02  0.59301937370E+02  0.49999987858E+02 0.  0.
        -12    1    1    2    0    0 -0.39845813806E+01  0.12353888000E+02  0.29124312053E+02  0.31886062630E+02  0.00000000000E+00 0.  1.
         11    1    3    3    0    0  0.21700168465E+02 -0.32461255167E+01 -0.69276460534E+01  0.23009279050E+02  0.51100000000E-03 0. -1.
        -11    1    3    3    0    0 -0.14363086364E+02 -0.14242686978E+01 -0.21874771491E+01  0.14598350857E+02  0.51100000000E-03 0.  1.
        -12    1    3    3    0    0 -0.33525007211E+01 -0.76834937860E+01 -0.20009188850E+02  0.21694307463E+02  0.00000000000E+00 0.  1.
</event>
<event>
 7    1  0.6180395E-013  0.5930186E+02  0.7816164E-02  0.1266605E+00
        -11   -1    0    0    0    0  0.00000000000E+00  0.00000000000E+00  0.45593999997E+02  0.45594000000E+02  0.51100000000E-03 0.  1.
         11   -1    0    0    0    0 -0.00000000000E+00 -0.00000000000E+00 -0.45593999997E+02  0.45594000000E+02  0.51100000000E-03 0. -1.
    9900012    2    1    2    0    0  0.30045512467E+02  0.95995644817E+01  0.46734795196E+01  0.59301860873E+02  0.49999848345E+02 0.  0.
        -12    1    1    2    0    0 -0.30045512467E+02 -0.95995644817E+01 -0.46734795196E+01  0.31886139127E+02  0.00000000000E+00 0.  1.
         11    1    3    3    0    0  0.30353663776E+02 -0.79080347548E+01 -0.14598774906E+01  0.31400846499E+02  0.51100000000E-03 0. -1.
        -11    1    3    3    0    0 -0.76418788012E+01  0.10386298451E+02  0.10651140640E+02  0.16724840936E+02  0.51100000000E-03 0.  1.
        -12    1    3    3    0    0  0.73337274915E+01  0.71213007851E+01 -0.45177836293E+01  0.11176173438E+02  0.00000000000E+00 0.  1.
</event>
<event>
 7    1  0.6180395E-013  0.5930194E+02  0.7816164E-02  0.1266605E+00
        -11   -1    0    0    0    0  0.00000000000E+00  0.00000000000E+00  0.45593999997E+02  0.45594000000E+02  0.51100000000E-03 0.  1.
         11   -1    0    0    0    0 -0.00000000000E+00 -0.00000000000E+00 -0.45593999997E+02  0.45594000000E+02  0.51100000000E-03 0. -1.
    9900012    2    1    2    0    0  0.14439709602E+02  0.27251038861E+01 -0.28298218372E+02  0.59301943994E+02  0.49999999939E+02 0.  0.
        -12    1    1    2    0    0 -0.14439709602E+02 -0.27251038861E+01  0.28298218372E+02  0.31886056006E+02  0.00000000000E+00 0.  1.
         11    1    3    3    0    0  0.57291603305E+01 -0.70310890035E+01 -0.34613200955E+02  0.35781743547E+02  0.51100000000E-03 0. -1.
        -11    1    3    3    0    0 -0.22988973074E+01  0.16012910562E+01  0.91153661470E+01  0.95361922239E+01  0.51100000000E-03 0.  1.
         12    1    3    3    0    0  0.11009446579E+02  0.81549018333E+01 -0.28003835638E+01  0.13984008223E+02  0.00000000000E+00 0. -1.
</event>
<event>
 7    1  0.6180395E-013  0.5930191E+02  0.7816164E-02  0.1266605E+00
        -11   -1    0    0    0    0  0.00000000000E+00  0.00000000000E+00  0.45593999997E+02  0.45594000000E+02  0.51100000000E-03 0.  1.
         11   -1    0    0    0    0 -0.00000000000E+00 -0.00000000000E+00 -0.45593999997E+02  0.45594000000E+02  0.51100000000E-03 0. -1.
    9900012    2    1    2    0    0 -0.11150490213E+02 -0.29869139383E+02  0.47313100295E+00  0.59301909421E+02  0.49999936886E+02 0.  0.
        -12    1    1    2    0    0  0.11150490213E+02  0.29869139383E+02 -0.47313100295E+00  0.31886090579E+02  0.00000000000E+00 0.  1.
         11    1    3    3    0    0 -0.32229642056E+01 -0.60854101700E+01 -0.88045914308E+01  0.11177680696E+02  0.51100000000E-03 0. -1.
        -11    1    3    3    0    0 -0.14862502067E+02 -0.15760811751E+02  0.22460562578E+02  0.31205352527E+02  0.51100000000E-03 0.  1.
        -12    1    3    3    0    0  0.69349760601E+01 -0.80229174617E+01 -0.13182840145E+02  0.16918876199E+02  0.00000000000E+00 0.  1.
</event>
<event>
 7    1  0.6180395E-013  0.5930196E+02  0.7816164E-02  0.1266605E+00
        -11   -1    0    0    0    0  0.00000000000E+00  0.00000000000E+00  0.45593999997E+02  0.45594000000E+02  0.51100000000E-03 0.  1.
         11   -1    0    0    0    0 -0.00000000000E+00 -0.00000000000E+00 -0.45593999997E+02  0.45594000000E+02  0.51100000000E-03 0. -1.
    9900012    2    1    2    0    0  0.12685094321E+02 -0.88191531640E+01 -0.27893193138E+02  0.59301963810E+02  0.50000036079E+02 0.  0.
        -12    1    1    2    0    0 -0.12685094321E+02  0.88191531640E+01  0.27893193138E+02  0.31886036190E+02  0.00000000000E+00 0.  1.
         11    1    3    3    0    0  0.10752740777E+02 -0.17106623131E+02 -0.22453881344E+02  0.30206535334E+02  0.51100000000E-03 0. -1.
        -11    1    3    3    0    0  0.10445870203E+02  0.12833805028E+02 -0.89652352233E+01  0.18820154055E+02  0.51100000000E-03 0.  1.
         12    1    3    3    0    0 -0.85135166600E+01 -0.45463350606E+01  0.35259234297E+01  0.10275274421E+02  0.00000000000E+00 0. -1.
</event>
<event>
 7    1  0.6180395E-013  0.5930197E+02  0.7816164E-02  0.1266605E+00
        -11   -1    0    0    0    0  0.00000000000E+00  0.00000000000E+00  0.45593999997E+02  0.45594000000E+02  0.51100000000E-03 0.  1.
         11   -1    0    0    0    0 -0.00000000000E+00 -0.00000000000E+00 -0.45593999997E+02  0.45594000000E+02  0.51100000000E-03 0. -1.
    9900012    2    1    2    0    0  0.23104908005E+01 -0.10734829854E+02 -0.29935659173E+02  0.59301974379E+02  0.50000055354E+02 0.  0.
        -12    1    1    2    0    0 -0.23104908005E+01  0.10734829854E+02  0.29935659173E+02  0.31886025621E+02  0.00000000000E+00 0.  1.
         11    1    3    3    0    0  0.57896347111E+01 -0.13857853815E+02 -0.12929047615E+02  0.19817170710E+02  0.51100000000E-03 0. -1.
        -11    1    3    3    0    0  0.85804396686E+01  0.15864582980E+02 -0.97129917163E+01  0.20485388607E+02  0.51100000000E-03 0.  1.
        -12    1    3    3    0    0 -0.12059583579E+02 -0.12741559019E+02 -0.72936198418E+01  0.18999415063E+02  0.00000000000E+00 0.  1.
</event>
<event>
 7    1  0.6180395E-013  0.5930182E+02  0.7816164E-02  0.1266605E+00
        -11   -1    0    0    0    0  0.00000000000E+00  0.00000000000E+00  0.45593999997E+02  0.45594000000E+02  0.51100000000E-03 0.  1.
         11   -1    0    0    0    0 -0.00000000000E+00 -0.00000000000E+00 -0.45593999997E+02  0.45594000000E+02  0.51100000000E-03 0. -1.
    9900012    2    1    2    0    0 -0.13783502632E+02 -0.27806678779E+02 -0.73165778310E+01  0.59301817402E+02  0.49999769064E+02 0.  0.
        -12    1    1    2    0    0  0.13783502632E+02  0.27806678779E+02  0.73165778310E+01  0.31886182598E+02  0.00000000000E+00 0.  1.
         11    1    3    3    0    0 -0.22921085150E+02 -0.38935252242E+01 -0.10357226663E+02  0.25452069219E+02  0.51100000000E-03 0. -1.
        -11    1    3    3    0    0  0.15328815538E+02 -0.16785302927E+02 -0.25553755836E+01  0.22874634965E+02  0.51100000000E-03 0.  1.
        -12    1    3    3    0    0 -0.61912330198E+01 -0.71278506286E+01  0.55960244156E+01  0.10975113218E+02  0.00000000000E+00 0.  1.
</event>
<event>
 7    1  0.6180395E-013  0.5930197E+02  0.7816164E-02  0.1266605E+00
        -11   -1    0    0    0    0  0.00000000000E+00  0.00000000000E+00  0.45593999997E+02  0.45594000000E+02  0.51100000000E-03 0. -1.
         11   -1    0    0    0    0 -0.00000000000E+00 -0.00000000000E+00 -0.45593999997E+02  0.45594000000E+02  0.51100000000E-03 0.  1.
    9900012    2    1    2    0    0  0.27149681888E+02  0.14528341162E+02 -0.82789616619E+01  0.59301966541E+02  0.50000041058E+02 0.  0.
        -12    1    1    2    0    0 -0.27149681888E+02 -0.14528341162E+02  0.82789616619E+01  0.31886033459E+02  0.00000000000E+00 0.  1.
         11    1    3    3    0    0  0.18088826023E+02  0.56454079151E+01 -0.21530371706E+02  0.28681582304E+02  0.51100000000E-03 0.  1.
        -11    1    3    3    0    0  0.17380102089E+02  0.66939759307E+01  0.66473947256E+01  0.19775366477E+02  0.51100000000E-03 0. -1.
         12    1    3    3    0    0 -0.83192462243E+01  0.21889573167E+01  0.66040153184E+01  0.10845017759E+02  0.00000000000E+00 0. -1.
</event>
<event>
 7    1  0.6180395E-013  0.5930193E+02  0.7816164E-02  0.1266605E+00
        -11   -1    0    0    0    0  0.00000000000E+00  0.00000000000E+00  0.45593999997E+02  0.45594000000E+02  0.51100000000E-03 0. -1.
         11   -1    0    0    0    0 -0.00000000000E+00 -0.00000000000E+00 -0.45593999997E+02  0.45594000000E+02  0.51100000000E-03 0.  1.
    9900012    2    1    2    0    0 -0.27689892527E+02  0.15108455134E+02 -0.46610723406E+01  0.59301934704E+02  0.49999982995E+02 0.  0.
        -12    1    1    2    0    0  0.27689892527E+02 -0.15108455134E+02  0.46610723406E+01  0.31886065296E+02  0.00000000000E+00 0.  1.
         11    1    3    3    0    0 -0.17829997366E+02  0.20971583885E+02 -0.11042032458E+02  0.29658769661E+02  0.51100000000E-03 0. -1.
        -11    1    3    3    0    0 -0.45492067148E+01  0.64580791952E+01  0.12586906579E+02  0.14860426849E+02  0.51100000000E-03 0.  1.
         12    1    3    3    0    0 -0.53106884470E+01 -0.12321207946E+02 -0.62059464620E+01  0.14782738194E+02  0.00000000000E+00 0. -1.
</event>
<event>
 7    1  0.6180395E-013  0.5930194E+02  0.7816164E-02  0.1266605E+00
        -11   -1    0    0    0    0  0.00000000000E+00  0.00000000000E+00  0.45593999997E+02  0.45594000000E+02  0.51100000000E-03 0.  1.
         11   -1    0    0    0    0 -0.00000000000E+00 -0.00000000000E+00 -0.45593999997E+02  0.45594000000E+02  0.51100000000E-03 0. -1.
    9900012    2    1    2    0    0 -0.21230926803E+01 -0.22192337744E+02 -0.22797229012E+02  0.59301936780E+02  0.49999986781E+02 0.  0.
        -12    1    1    2    0    0  0.21230926803E+01  0.22192337744E+02  0.22797229012E+02  0.31886063220E+02  0.00000000000E+00 0.  1.
         11    1    3    3    0    0 -0.14150001601E+02  0.51348657364E+01 -0.12122219639E+02  0.19327120858E+02  0.51100000000E-03 0. -1.
        -11    1    3    3    0    0  0.26971187832E+01 -0.21978194125E+02  0.32501247006E+01  0.22380321212E+02  0.51100000000E-03 0.  1.
         12    1    3    3    0    0  0.93297901378E+01 -0.53490093554E+01 -0.13925134074E+02  0.17594494709E+02  0.00000000000E+00 0. -1.
</event>
<event>
 7    1  0.6180395E-013  0.5930195E+02  0.7816164E-02  0.1266605E+00
        -11   -1    0    0    0    0  0.00000000000E+00  0.00000000000E+00  0.45593999997E+02  0.45594000000E+02  0.51100000000E-03 0.  1.
         11   -1    0    0    0    0 -0.00000000000E+00 -0.00000000000E+00 -0.45593999997E+02  0.45594000000E+02  0.51100000000E-03 0. -1.
    9900012    2    1    2    0    0  0.35938455475E+01 -0.23851066867E+02 -0.20855003561E+02  0.59301948346E+02  0.50000007876E+02 0.  0.
        -12    1    1    2    0    0 -0.35938455475E+01  0.23851066867E+02  0.20855003561E+02  0.31886051654E+02  0.00000000000E+00 0.  1.
         11    1    3    3    0    0  0.76910408710E+01  0.78975418208E+01 -0.23825511105E+02  0.26252204786E+02  0.51100000000E-03 0. -1.
        -11    1    3    3    0    0  0.15652975792E+01 -0.12904850056E+02  0.31382237688E+01  0.13372874043E+02  0.51100000000E-03 0.  1.
         12    1    3    3    0    0 -0.56624929027E+01 -0.18843758632E+02 -0.16771622557E+00  0.19676869517E+02  0.00000000000E+00 0. -1.
</event>
<event>
 7    1  0.6180395E-013  0.5930191E+02  0.7816164E-02  0.1266605E+00
        -11   -1    0    0    0    0  0.00000000000E+00  0.00000000000E+00  0.45593999997E+02  0.45594000000E+02  0.51100000000E-03 0.  1.
         11   -1    0    0    0    0 -0.00000000000E+00 -0.00000000000E+00 -0.45593999997E+02  0.45594000000E+02  0.51100000000E-03 0. -1.
    9900012    2    1    2    0    0 -0.68075149790E+01  0.30070194855E+01 -0.31005451097E+02  0.59301914883E+02  0.49999946847E+02 0.  0.
        -12    1    1    2    0    0  0.68075149790E+01 -0.30070194855E+01  0.31005451097E+02  0.31886085117E+02  0.00000000000E+00 0.  1.
         11    1    3    3    0    0 -0.28404333715E+01  0.10614974467E+02 -0.18537367724E+02  0.21549472083E+02  0.51100000000E-03 0. -1.
        -11    1    3    3    0    0  0.11119777918E+02 -0.63064036135E+01  0.57884762683E+01  0.14033055450E+02  0.51100000000E-03 0.  1.
        -12    1    3    3    0    0 -0.15086859526E+02 -0.13015513679E+01 -0.18256559641E+02  0.23719387350E+02  0.00000000000E+00 0.  1.
</event>
<event>
 7    1  0.6180395E-013  0.5930194E+02  0.7816164E-02  0.1266605E+00
        -11   -1    0    0    0    0  0.00000000000E+00  0.00000000000E+00  0.45593999997E+02  0.45594000000E+02  0.51100000000E-03 0.  1.
         11   -1    0    0    0    0 -0.00000000000E+00 -0.00000000000E+00 -0.45593999997E+02  0.45594000000E+02  0.51100000000E-03 0. -1.
    9900012    2    1    2    0    0 -0.19813462169E+02 -0.20637856212E+02  0.14079300580E+02  0.59301935693E+02  0.49999984800E+02 0.  0.
        -12    1    1    2    0    0  0.19813462169E+02  0.20637856212E+02 -0.14079300580E+02  0.31886064307E+02  0.00000000000E+00 0.  1.
         11    1    3    3    0    0 -0.19698719421E+02 -0.25936835436E+02  0.17166957083E+02  0.36816618463E+02  0.51100000000E-03 0. -1.
        -11    1    3    3    0    0  0.88879509129E+01  0.32116510882E+01  0.45569872608E+01  0.10491735190E+02  0.51100000000E-03 0.  1.
         12    1    3    3    0    0 -0.90026936601E+01  0.20873281358E+01 -0.76446437640E+01  0.11993582041E+02  0.00000000000E+00 0. -1.
</event>
<event>
 7    1  0.6180395E-013  0.5930197E+02  0.7816164E-02  0.1266605E+00
        -11   -1    0    0    0    0  0.00000000000E+00  0.00000000000E+00  0.45593999997E+02  0.45594000000E+02  0.51100000000E-03 0. -1.
         11   -1    0    0    0    0 -0.00000000000E+00 -0.00000000000E+00 -0.45593999997E+02  0.45594000000E+02  0.51100000000E-03 0.  1.
    9900012    2    1    2    0    0 -0.17771098530E+02 -0.25587610026E+02  0.67956962891E+01  0.59301965159E+02  0.50000038539E+02 0.  0.
        -12    1    1    2    0    0  0.17771098530E+02  0.25587610026E+02 -0.67956962891E+01  0.31886034841E+02  0.00000000000E+00 0.  1.
         11    1    3    3    0    0 -0.14201185940E+01 -0.18964631611E+02 -0.80725306275E+01  0.20660100193E+02  0.51100000000E-03 0.  1.
        -11    1    3    3    0    0 -0.13438638384E+02 -0.76654480079E+01  0.24249113290E+02  0.28764137226E+02  0.51100000000E-03 0. -1.
        -12    1    3    3    0    0 -0.29123415516E+01  0.10424695934E+01 -0.93808863731E+01  0.98777277403E+01  0.00000000000E+00 0.  1.
</event>
<event>
 7    1  0.6180395E-013  0.5930171E+02  0.7816164E-02  0.1266606E+00
        -11   -1    0    0    0    0  0.00000000000E+00  0.00000000000E+00  0.45593999997E+02  0.45594000000E+02  0.51100000000E-03 0. -1.
         11   -1    0    0    0    0 -0.00000000000E+00 -0.00000000000E+00 -0.45593999997E+02  0.45594000000E+02  0.51100000000E-03 0.  1.
    9900012    2    1    2    0    0 -0.15862528564E+01 -0.26949280663E+02 -0.16969261122E+02  0.59301705932E+02  0.49999565769E+02 0.  0.
        -12    1    1    2    0    0  0.15862528564E+01  0.26949280663E+02  0.16969261122E+02  0.31886294068E+02  0.00000000000E+00 0.  1.
         11    1    3    3    0    0 -0.11444082840E+02 -0.24581056954E+02 -0.94494954242E+01  0.28713905291E+02  0.51100000000E-03 0. -1.
        -11    1    3    3    0    0  0.11911517533E+02 -0.33686520715E+01 -0.16891480927E+02  0.20941685579E+02  0.51100000000E-03 0.  1.
         12    1    3    3    0    0 -0.20536875496E+01  0.10004283631E+01  0.93717152292E+01  0.96461150624E+01  0.00000000000E+00 0. -1.
</event>
<event>
 7    1  0.6180395E-013  0.5930194E+02  0.7816164E-02  0.1266605E+00
        -11   -1    0    0    0    0  0.00000000000E+00  0.00000000000E+00  0.45593999997E+02  0.45594000000E+02  0.51100000000E-03 0.  1.
         11   -1    0    0    0    0 -0.00000000000E+00 -0.00000000000E+00 -0.45593999997E+02  0.45594000000E+02  0.51100000000E-03 0. -1.
    9900012    2    1    2    0    0 -0.14728560087E+02  0.18478975574E+02 -0.21408360771E+02  0.59301938290E+02  0.49999989535E+02 0.  0.
        -12    1    1    2    0    0  0.14728560087E+02 -0.18478975574E+02  0.21408360771E+02  0.31886061710E+02  0.00000000000E+00 0.  1.
         11    1    3    3    0    0 -0.19268934335E+02  0.16867512910E+02 -0.15562454794E+02  0.29966561725E+02  0.51100000000E-03 0. -1.
        -11    1    3    3    0    0  0.20519225706E+01 -0.27121697138E+01  0.11131908529E+02  0.11639829833E+02  0.51100000000E-03 0.  1.
         12    1    3    3    0    0  0.24884516773E+01  0.43236323774E+01 -0.16977814506E+02  0.17695546731E+02  0.00000000000E+00 0. -1.
</event>
<event>
 7    1  0.6180395E-013  0.5930158E+02  0.7816164E-02  0.1266606E+00
        -11   -1    0    0    0    0  0.00000000000E+00  0.00000000000E+00  0.45593999997E+02  0.45594000000E+02  0.51100000000E-03 0. -1.
         11   -1    0    0    0    0 -0.00000000000E+00 -0.00000000000E+00 -0.45593999997E+02  0.45594000000E+02  0.51100000000E-03 0.  1.
    9900012    2    1    2    0    0 -0.30065192227E+02 -0.10158022865E+02  0.31052649430E+01  0.59301578399E+02  0.49999333176E+02 0.  0.
        -12    1    1    2    0    0  0.30065192227E+02  0.10158022865E+02 -0.31052649430E+01  0.31886421601E+02  0.00000000000E+00 0.  1.
         11    1    3    3    0    0 -0.13285731145E+02 -0.13010716859E+02 -0.11677606761E+02  0.21958048756E+02  0.51100000000E-03 0. -1.
        -11    1    3    3    0    0 -0.21452406114E+02  0.11560173626E+02  0.11346470778E+02  0.26880955000E+02  0.51100000000E-03 0.  1.
         12    1    3    3    0    0  0.46729450320E+01 -0.87074796329E+01  0.34364009256E+01  0.10462574643E+02  0.00000000000E+00 0. -1.
</event>
<event>
 7    1  0.6180395E-013  0.5930195E+02  0.7816164E-02  0.1266605E+00
        -11   -1    0    0    0    0  0.00000000000E+00  0.00000000000E+00  0.45593999997E+02  0.45594000000E+02  0.51100000000E-03 0. -1.
         11   -1    0    0    0    0 -0.00000000000E+00 -0.00000000000E+00 -0.45593999997E+02  0.45594000000E+02  0.51100000000E-03 0.  1.
    9900012    2    1    2    0    0  0.24614458963E+02  0.18756289022E+02  0.76844143600E+01  0.59301949885E+02  0.50000010682E+02 0.  0.
        -12    1    1    2    0    0 -0.24614458963E+02 -0.18756289022E+02 -0.76844143600E+01  0.31886050115E+02  0.00000000000E+00 0.  1.
         11    1    3    3    0    0  0.31217225476E+02  0.50776551041E+01 -0.55474601415E+01  0.32110310837E+02  0.51100000000E-03 0. -1.
        -11    1    3    3    0    0 -0.12180239995E+02  0.51537742413E+01  0.51700581176E+01  0.14200321703E+02  0.51100000000E-03 0.  1.
        -12    1    3    3    0    0  0.55774734818E+01  0.85248596764E+01  0.80618163839E+01  0.12991317345E+02  0.00000000000E+00 0.  1.
</event>
<event>
 7    1  0.6180395E-013  0.5930196E+02  0.7816164E-02  0.1266605E+00
        -11   -1    0    0    0    0  0.00000000000E+00  0.00000000000E+00  0.45593999997E+02  0.45594000000E+02  0.51100000000E-03 0.  1.
         11   -1    0    0    0    0 -0.00000000000E+00 -0.00000000000E+00 -0.45593999997E+02  0.45594000000E+02  0.51100000000E-03 0. -1.
    9900012    2    1    2    0    0 -0.16138137717E+02  0.12135368962E+02 -0.24678179982E+02  0.59301964874E+02  0.50000038018E+02 0.  0.
        -12    1    1    2    0    0  0.16138137717E+02 -0.12135368962E+02  0.24678179982E+02  0.31886035126E+02  0.00000000000E+00 0.  1.
         11    1    3    3    0    0 -0.56589800425E+01  0.10015434645E+02  0.11860821360E+01  0.11564591534E+02  0.51100000000E-03 0. -1.
        -11    1    3    3    0    0 -0.51300573609E+01 -0.15893521858E+02 -0.12186043210E+01  0.16745343303E+02  0.51100000000E-03 0.  1.
        -12    1    3    3    0    0 -0.53491003139E+01  0.18013456176E+02 -0.24645657797E+02  0.30992030037E+02  0.00000000000E+00 0.  1.
</event>
<event>
 7    1  0.6180395E-013  0.5930208E+02  0.7816164E-02  0.1266604E+00
        -11   -1    0    0    0    0  0.00000000000E+00  0.00000000000E+00  0.45593999997E+02  0.45594000000E+02  0.51100000000E-03 0. -1.
         11   -1    0    0    0    0 -0.00000000000E+00 -0.00000000000E+00 -0.45593999997E+02  0.45594000000E+02  0.51100000000E-03 0.  1.
    9900012    2    1    2    0    0 -0.28377054698E+02  0.11455676014E+02 -0.89566862442E+01  0.59302078738E+02  0.50000245678E+02 0.  0.
        -12    1    1    2    0    0  0.28377054698E+02 -0.11455676014E+02  0.89566862442E+01  0.31885921262E+02  0.00000000000E+00 0.  1.
         11    1    3    3    0    0 -0.33029067607E+02  0.22014717784E+02 -0.17846552301E+01  0.39733513570E+02  0.51100000000E-03 0. -1.
        -11    1    3    3    0    0  0.59075313325E+01 -0.12252858972E+02 -0.93741321120E+01  0.16519861759E+02  0.51100000000E-03 0.  1.
        -12    1    3    3    0    0 -0.12555184240E+01  0.16938172022E+01  0.22021010980E+01  0.30487034085E+01  0.00000000000E+00 0.  1.
</event>
<event>
 7    1  0.6180395E-013  0.5930195E+02  0.7816164E-02  0.1266605E+00
        -11   -1    0    0    0    0  0.00000000000E+00  0.00000000000E+00  0.45593999997E+02  0.45594000000E+02  0.51100000000E-03 0. -1.
         11   -1    0    0    0    0 -0.00000000000E+00 -0.00000000000E+00 -0.45593999997E+02  0.45594000000E+02  0.51100000000E-03 0.  1.
    9900012    2    1    2    0    0 -0.28494116587E+02  0.87376436658E+01  0.11333987825E+02  0.59301946984E+02  0.50000005392E+02 0.  0.
        -12    1    1    2    0    0  0.28494116587E+02 -0.87376436658E+01 -0.11333987825E+02  0.31886053016E+02  0.00000000000E+00 0.  1.
         11    1    3    3    0    0  0.10137225764E+02  0.73023814741E+00 -0.25423930037E+01  0.10476657692E+02  0.51100000000E-03 0. -1.
        -11    1    3    3    0    0 -0.29252569174E+02  0.14078223868E+01 -0.18692846163E+01  0.29346021747E+02  0.51100000000E-03 0.  1.
         12    1    3    3    0    0 -0.93787731773E+01  0.65995831316E+01  0.15745665445E+02  0.19479267546E+02  0.00000000000E+00 0. -1.
</event>
<event>
 7    1  0.6180395E-013  0.5930196E+02  0.7816164E-02  0.1266605E+00
        -11   -1    0    0    0    0  0.00000000000E+00  0.00000000000E+00  0.45593999997E+02  0.45594000000E+02  0.51100000000E-03 0.  1.
         11   -1    0    0    0    0 -0.00000000000E+00 -0.00000000000E+00 -0.45593999997E+02  0.45594000000E+02  0.51100000000E-03 0. -1.
    9900012    2    1    2    0    0 -0.68399256166E+01  0.17022133747E+02 -0.26080292359E+02  0.59301964353E+02  0.50000037068E+02 0.  0.
        -12    1    1    2    0    0  0.68399256166E+01 -0.17022133747E+02  0.26080292359E+02  0.31886035647E+02  0.00000000000E+00 0.  1.
         11    1    3    3    0    0  0.64750082889E+01  0.12475450187E+02 -0.28097295450E+01  0.14333777245E+02  0.51100000000E-03 0. -1.
        -11    1    3    3    0    0 -0.15114733587E+02  0.71180527937E+01 -0.31776960699E+02  0.35901212772E+02  0.51100000000E-03 0.  1.
        -12    1    3    3    0    0  0.17997996819E+01 -0.25713692338E+01  0.85063978846E+01  0.90669743356E+01  0.00000000000E+00 0.  1.
</event>
<event>
 7    1  0.6180395E-013  0.5930195E+02  0.7816164E-02  0.1266605E+00
        -11   -1    0    0    0    0  0.00000000000E+00  0.00000000000E+00  0.45593999997E+02  0.45594000000E+02  0.51100000000E-03 0. -1.
         11   -1    0    0    0    0 -0.00000000000E+00 -0.00000000000E+00 -0.45593999997E+02  0.45594000000E+02  0.51100000000E-03 0.  1.
    9900012    2    1    2    0    0  0.10960605801E+02  0.28935047169E+02  0.77037687052E+01  0.59301954675E+02  0.50000019418E+02 0.  0.
        -12    1    1    2    0    0 -0.10960605801E+02 -0.28935047169E+02 -0.77037687052E+01  0.31886045325E+02  0.00000000000E+00 0.  1.
         11    1    3    3    0    0  0.19556635997E+01 -0.75360683633E+01  0.16788659912E+02  0.18506108408E+02  0.51100000000E-03 0. -1.
        -11    1    3    3    0    0  0.36917650206E+01  0.29786305911E+02 -0.11136604593E+02  0.32013701924E+02  0.51100000000E-03 0.  1.
         12    1    3    3    0    0  0.53131771807E+01  0.66848096217E+01  0.20517133856E+01  0.87821443423E+01  0.00000000000E+00 0. -1.
</event>
<event>
 7    1  0.6180395E-013  0.5930195E+02  0.7816164E-02  0.1266605E+00
        -11   -1    0    0    0    0  0.00000000000E+00  0.00000000000E+00  0.45593999997E+02  0.45594000000E+02  0.51100000000E-03 0. -1.
         11   -1    0    0    0    0 -0.00000000000E+00 -0.00000000000E+00 -0.45593999997E+02  0.45594000000E+02  0.51100000000E-03 0.  1.
    9900012    2    1    2    0    0 -0.24490097312E+02  0.14508060622E+02  0.14369119619E+02  0.59301948379E+02  0.50000007936E+02 0.  0.
        -12    1    1    2    0    0  0.24490097312E+02 -0.14508060622E+02 -0.14369119619E+02  0.31886051621E+02  0.00000000000E+00 0.  1.
         11    1    3    3    0    0  0.11027253633E+02  0.10441406877E+02 -0.29983609776E+01  0.15479453126E+02  0.51100000000E-03 0. -1.
        -11    1    3    3    0    0 -0.27839280471E+02  0.34197212868E+00  0.42361847114E+01  0.28161813564E+02  0.51100000000E-03 0.  1.
         12    1    3    3    0    0 -0.76780704742E+01  0.37246816157E+01  0.13131295885E+02  0.15660681689E+02  0.00000000000E+00 0. -1.
</event>
<event>
 7    1  0.6180395E-013  0.5930194E+02  0.7816164E-02  0.1266605E+00
        -11   -1    0    0    0    0  0.00000000000E+00  0.00000000000E+00  0.45593999997E+02  0.45594000000E+02  0.51100000000E-03 0. -1.
         11   -1    0    0    0    0 -0.00000000000E+00 -0.00000000000E+00 -0.45593999997E+02  0.45594000000E+02  0.51100000000E-03 0.  1.
    9900012    2    1    2    0    0  0.25750568895E+02 -0.17071609533E+02  0.78860091036E+01  0.59301940507E+02  0.49999993578E+02 0.  0.
        -12    1    1    2    0    0 -0.25750568895E+02  0.17071609533E+02 -0.78860091036E+01  0.31886059493E+02  0.00000000000E+00 0.  1.
         11    1    3    3    0    0  0.21474649883E+02  0.78796438201E+01 -0.71755647724E+01  0.23973696094E+02  0.51100000000E-03 0. -1.
        -11    1    3    3    0    0  0.55726358097E+01 -0.26865844466E+02  0.90571476410E+01  0.28893940410E+02  0.51100000000E-03 0.  1.
         12    1    3    3    0    0 -0.12967167983E+01  0.19145911135E+01  0.60044262350E+01  0.64343040026E+01  0.00000000000E+00 0. -1.
</event>
<event>
 7    1  0.6180395E-013  0.5930195E+02  0.7816164E-02  0.1266605E+00
        -11   -1    0    0    0    0  0.00000000000E+00  0.00000000000E+00  0.45593999997E+02  0.45594000000E+02  0.51100000000E-03 0.  1.
         11   -1    0    0    0    0 -0.00000000000E+00 -0.00000000000E+00 -0.45593999997E+02  0.45594000000E+02  0.51100000000E-03 0. -1.
    9900012    2    1    2    0    0 -0.94835602213E+01 -0.24969909213E+02 -0.17415109222E+02  0.59301948038E+02  0.50000007313E+02 0.  0.
        -12    1    1    2    0    0  0.94835602213E+01  0.24969909213E+02  0.17415109222E+02  0.31886051962E+02  0.00000000000E+00 0.  1.
         11    1    3    3    0    0  0.48080154562E+01 -0.24010095298E+02 -0.10815922134E+02  0.26769121404E+02  0.51100000000E-03 0. -1.
        -11    1    3    3    0    0 -0.14978655048E+02  0.38050138555E+01  0.78278484361E+01  0.17323782754E+02  0.51100000000E-03 0.  1.
        -12    1    3    3    0    0  0.68707937077E+00 -0.47648277697E+01 -0.14427035524E+02  0.15209043880E+02  0.00000000000E+00 0.  1.
</event>
<event>
 7    1  0.6180395E-013  0.5930195E+02  0.7816164E-02  0.1266605E+00
        -11   -1    0    0    0    0  0.00000000000E+00  0.00000000000E+00  0.45593999997E+02  0.45594000000E+02  0.51100000000E-03 0.  1.
         11   -1    0    0    0    0 -0.00000000000E+00 -0.00000000000E+00 -0.45593999997E+02  0.45594000000E+02  0.51100000000E-03 0. -1.
    9900012    2    1    2    0    0  0.26620939928E+02 -0.16180402169E+02 -0.68000341936E+01  0.59301947845E+02  0.50000006961E+02 0.  0.
        -12    1    1    2    0    0 -0.26620939928E+02  0.16180402169E+02  0.68000341936E+01  0.31886052155E+02  0.00000000000E+00 0.  1.
         11    1    3    3    0    0  0.70162188188E+01 -0.13158349785E+02  0.11658450848E+02  0.18928522711E+02  0.51100000000E-03 0. -1.
        -11    1    3    3    0    0  0.14769989372E+02  0.11399905889E+02 -0.33912698510E+01  0.18963416142E+02  0.51100000000E-03 0.  1.
         12    1    3    3    0    0  0.48347317373E+01 -0.14421958274E+02 -0.15067215191E+02  0.21410008992E+02  0.00000000000E+00 0. -1.
</event>
<event>
 7    1  0.6180395E-013  0.5930193E+02  0.7816164E-02  0.1266605E+00
        -11   -1    0    0    0    0  0.00000000000E+00  0.00000000000E+00  0.45593999997E+02  0.45594000000E+02  0.51100000000E-03 0. -1.
         11   -1    0    0    0    0 -0.00000000000E+00 -0.00000000000E+00 -0.45593999997E+02  0.45594000000E+02  0.51100000000E-03 0.  1.
    9900012    2    1    2    0    0 -0.26307704378E+02 -0.16801059598E+02  0.65077083328E+01  0.59301934375E+02  0.49999982396E+02 0.  0.
        -12    1    1    2    0    0  0.26307704378E+02  0.16801059598E+02 -0.65077083328E+01  0.31886065625E+02  0.00000000000E+00 0.  1.
         11    1    3    3    0    0 -0.30707726966E+02 -0.16830333881E+02 -0.48703222837E+01  0.35354556614E+02  0.51100000000E-03 0. -1.
        -11    1    3    3    0    0  0.91076460955E+01 -0.69716472113E+01  0.25764445613E+01  0.11755473154E+02  0.51100000000E-03 0.  1.
        -12    1    3    3    0    0 -0.47076235076E+01  0.70009214943E+01  0.88015860552E+01  0.12191904607E+02  0.00000000000E+00 0.  1.
</event>
<event>
 7    1  0.6180395E-013  0.5930160E+02  0.7816164E-02  0.1266606E+00
        -11   -1    0    0    0    0  0.00000000000E+00  0.00000000000E+00  0.45593999997E+02  0.45594000000E+02  0.51100000000E-03 0.  1.
         11   -1    0    0    0    0 -0.00000000000E+00 -0.00000000000E+00 -0.45593999997E+02  0.45594000000E+02  0.51100000000E-03 0. -1.
    9900012    2    1    2    0    0  0.96414183415E+01 -0.24300207150E+02 -0.18256112613E+02  0.59301597523E+02  0.49999368055E+02 0.  0.
        -12    1    1    2    0    0 -0.96414183415E+01  0.24300207150E+02  0.18256112613E+02  0.31886402477E+02  0.00000000000E+00 0.  1.
         11    1    3    3    0    0  0.11332752087E+02 -0.19694802275E+01 -0.12714597299E+02  0.17145585640E+02  0.51100000000E-03 0. -1.
        -11    1    3    3    0    0 -0.12526729431E+02  0.31905870749E+01 -0.63836699700E+01  0.14417005191E+02  0.51100000000E-03 0.  1.
        -12    1    3    3    0    0  0.10835395686E+02 -0.25521313997E+02  0.84215465603E+00  0.27739006693E+02  0.00000000000E+00 0.  1.
</event>
<event>
 7    1  0.6903959E-013  0.5930195E+02  0.7816164E-02  0.1266605E+00
        -11   -1    0    0    0    0  0.00000000000E+00  0.00000000000E+00  0.45593999997E+02  0.45594000000E+02  0.51100000000E-03 0.  1.
         11   -1    0    0    0    0 -0.00000000000E+00 -0.00000000000E+00 -0.45593999997E+02  0.45594000000E+02  0.51100000000E-03 0. -1.
    9900012    2    1    2    0    0  0.66025960112E+01  0.30987591226E+02  0.35909584314E+01  0.59301951851E+02  0.50000014269E+02 0.  0.
        -12    1    1    2    0    0 -0.66025960112E+01 -0.30987591226E+02 -0.35909584314E+01  0.31886048149E+02  0.00000000000E+00 0.  1.
         11    1    3    3    0    0  0.15912794111E+02  0.58375377503E+01 -0.91750309829E+01  0.19273688210E+02  0.51100000000E-03 0. -1.
        -11    1    3    3    0    0 -0.17852676441E+02  0.12248346268E+02  0.33309826460E+01  0.21905147524E+02  0.51100000000E-03 0.  1.
         12    1    3    3    0    0  0.85424783410E+01  0.12901707208E+02  0.94350067683E+01  0.18123116117E+02  0.00000000000E+00 0. -1.
</event>
<event>
 7    1  0.6180395E-013  0.5930194E+02  0.7816164E-02  0.1266605E+00
        -11   -1    0    0    0    0  0.00000000000E+00  0.00000000000E+00  0.45593999997E+02  0.45594000000E+02  0.51100000000E-03 0.  1.
         11   -1    0    0    0    0 -0.00000000000E+00 -0.00000000000E+00 -0.45593999997E+02  0.45594000000E+02  0.51100000000E-03 0. -1.
    9900012    2    1    2    0    0  0.11214454103E+02  0.27872903933E+02  0.10679811392E+02  0.59301935240E+02  0.49999983974E+02 0.  0.
        -12    1    1    2    0    0 -0.11214454103E+02 -0.27872903933E+02 -0.10679811392E+02  0.31886064760E+02  0.00000000000E+00 0.  1.
         11    1    3    3    0    0 -0.30963859101E+01  0.26678798453E+02  0.79946974693E+01  0.28022510246E+02  0.51100000000E-03 0.  1.
        -11    1    3    3    0    0  0.67382193199E+01 -0.22759681637E+01 -0.12257755080E+02  0.14171668587E+02  0.51100000000E-03 0. -1.
        -12    1    3    3    0    0  0.75726206934E+01  0.34700736443E+01  0.14942869003E+02  0.17107756407E+02  0.00000000000E+00 0.  1.
</event>
<event>
 7    1  0.6180395E-013  0.5930194E+02  0.7816164E-02  0.1266605E+00
        -11   -1    0    0    0    0  0.00000000000E+00  0.00000000000E+00  0.45593999997E+02  0.45594000000E+02  0.51100000000E-03 0.  1.
         11   -1    0    0    0    0 -0.00000000000E+00 -0.00000000000E+00 -0.45593999997E+02  0.45594000000E+02  0.51100000000E-03 0. -1.
    9900012    2    1    2    0    0  0.85323092513E+01  0.29354358580E+02 -0.90687609423E+01  0.59301935743E+02  0.49999984890E+02 0.  0.
        -12    1    1    2    0    0 -0.85323092513E+01 -0.29354358580E+02  0.90687609423E+01  0.31886064257E+02  0.00000000000E+00 0.  1.
         11    1    3    3    0    0 -0.30962259095E+01 -0.67237657203E+01 -0.73080525564E+01  0.10402080214E+02  0.51100000000E-03 0. -1.
        -11    1    3    3    0    0  0.43291632256E+01  0.19082537174E+02  0.14434156746E+02  0.24315216645E+02  0.51100000000E-03 0.  1.
        -12    1    3    3    0    0  0.72993719352E+01  0.16995587126E+02 -0.16194865132E+02  0.24584638884E+02  0.00000000000E+00 0.  1.
</event>
<event>
 7    1  0.6180395E-013  0.5930193E+02  0.7816164E-02  0.1266605E+00
        -11   -1    0    0    0    0  0.00000000000E+00  0.00000000000E+00  0.45593999997E+02  0.45594000000E+02  0.51100000000E-03 0.  1.
         11   -1    0    0    0    0 -0.00000000000E+00 -0.00000000000E+00 -0.45593999997E+02  0.45594000000E+02  0.51100000000E-03 0. -1.
    9900012    2    1    2    0    0  0.23936863829E+02  0.18760619004E+02  0.95805687484E+01  0.59301928230E+02  0.49999971188E+02 0.  0.
        -12    1    1    2    0    0 -0.23936863829E+02 -0.18760619004E+02 -0.95805687484E+01  0.31886071770E+02  0.00000000000E+00 0.  1.
         11    1    3    3    0    0  0.15795063830E+02  0.41175070819E+01 -0.16250031701E+02  0.23032616797E+02  0.51100000000E-03 0. -1.
        -11    1    3    3    0    0  0.27743718143E+01  0.15271200028E+02  0.76528499109E+01  0.17305282467E+02  0.51100000000E-03 0.  1.
         12    1    3    3    0    0  0.53674281851E+01 -0.62808810565E+00  0.18177750538E+02  0.18964028966E+02  0.00000000000E+00 0. -1.
</event>
<event>
 7    1  0.6180395E-013  0.5930194E+02  0.7816164E-02  0.1266605E+00
        -11   -1    0    0    0    0  0.00000000000E+00  0.00000000000E+00  0.45593999997E+02  0.45594000000E+02  0.51100000000E-03 0.  1.
         11   -1    0    0    0    0 -0.00000000000E+00 -0.00000000000E+00 -0.45593999997E+02  0.45594000000E+02  0.51100000000E-03 0. -1.
    9900012    2    1    2    0    0 -0.77541443454E+01  0.95514207835E+01 -0.29417072049E+02  0.59301944718E+02  0.50000001258E+02 0.  0.
        -12    1    1    2    0    0  0.77541443454E+01 -0.95514207835E+01  0.29417072049E+02  0.31886055282E+02  0.00000000000E+00 0.  1.
         11    1    3    3    0    0  0.11957440618E+02  0.25226482650E+01 -0.21021568599E+02  0.24315642847E+02  0.51100000000E-03 0. -1.
        -11    1    3    3    0    0 -0.11093397562E+02 -0.97844919762E+01 -0.14745205859E+01  0.14865193033E+02  0.51100000000E-03 0.  1.
         12    1    3    3    0    0 -0.86181874021E+01  0.16813264495E+02 -0.69209828640E+01  0.20121108838E+02  0.00000000000E+00 0. -1.
</event>
<event>
 7    1  0.6180395E-013  0.5930195E+02  0.7816164E-02  0.1266605E+00
        -11   -1    0    0    0    0  0.00000000000E+00  0.00000000000E+00  0.45593999997E+02  0.45594000000E+02  0.51100000000E-03 0.  1.
         11   -1    0    0    0    0 -0.00000000000E+00 -0.00000000000E+00 -0.45593999997E+02  0.45594000000E+02  0.51100000000E-03 0. -1.
    9900012    2    1    2    0    0 -0.13161901015E+02 -0.10207278158E+02 -0.27189996243E+02  0.59301951932E+02  0.50000014415E+02 0.  0.
        -12    1    1    2    0    0  0.13161901015E+02  0.10207278158E+02  0.27189996243E+02  0.31886048068E+02  0.00000000000E+00 0.  1.
         11    1    3    3    0    0  0.53669050708E+00  0.86093804622E+01 -0.16568994655E+02  0.18679963940E+02  0.51100000000E-03 0. -1.
        -11    1    3    3    0    0  0.79316003914E+01 -0.13251838326E+02  0.93986365862E+00  0.15472713005E+02  0.51100000000E-03 0.  1.
        -12    1    3    3    0    0 -0.21630191914E+02 -0.55648202939E+01 -0.11560865246E+02  0.25149274987E+02  0.00000000000E+00 0.  1.
</event>
<event>
 7    1  0.6180395E-013  0.5930208E+02  0.7816164E-02  0.1266604E+00
        -11   -1    0    0    0    0  0.00000000000E+00  0.00000000000E+00  0.45593999997E+02  0.45594000000E+02  0.51100000000E-03 0.  1.
         11   -1    0    0    0    0 -0.00000000000E+00 -0.00000000000E+00 -0.45593999997E+02  0.45594000000E+02  0.51100000000E-03 0. -1.
    9900012    2    1    2    0    0  0.27736568201E+02  0.68267206599E+01 -0.14170069768E+02  0.59302075083E+02  0.50000239013E+02 0.  0.
        -12    1    1    2    0    0 -0.27736568201E+02 -0.68267206599E+01  0.14170069768E+02  0.31885924917E+02  0.00000000000E+00 0.  1.
         11    1    3    3    0    0 -0.33742967019E+01  0.57811645784E+01 -0.23732523986E+02  0.24658475969E+02  0.51100000000E-03 0. -1.
        -11    1    3    3    0    0  0.92137360057E+01 -0.21910597751E+01  0.80969372867E+01  0.12460099029E+02  0.51100000000E-03 0.  1.
         12    1    3    3    0    0  0.21897128898E+02  0.32366158567E+01  0.14655169307E+01  0.22183500085E+02  0.00000000000E+00 0. -1.
</event>
<event>
 7    1  0.6180395E-013  0.5930196E+02  0.7816164E-02  0.1266605E+00
        -11   -1    0    0    0    0  0.00000000000E+00  0.00000000000E+00  0.45593999997E+02  0.45594000000E+02  0.51100000000E-03 0. -1.
         11   -1    0    0    0    0 -0.00000000000E+00 -0.00000000000E+00 -0.45593999997E+02  0.45594000000E+02  0.51100000000E-03 0.  1.
    9900012    2    1    2    0    0 -0.82812966118E+01 -0.29098765575E+01  0.30654077430E+02  0.59301957313E+02  0.50000024229E+02 0.  0.
        -12    1    1    2    0    0  0.82812966118E+01  0.29098765575E+01 -0.30654077430E+02  0.31886042687E+02  0.00000000000E+00 0.  1.
         11    1    3    3    0    0  0.20276497337E+01  0.83111173432E+01  0.16323436177E+02  0.18429340840E+02  0.51100000000E-03 0. -1.
        -11    1    3    3    0    0  0.41882750054E+01 -0.47523204644E+01 -0.99902283540E+01  0.11829237513E+02  0.51100000000E-03 0.  1.
        -12    1    3    3    0    0 -0.14497221351E+02 -0.64686734363E+01  0.24320869608E+02  0.29043378960E+02  0.00000000000E+00 0.  1.
</event>
<event>
 7    1  0.6180395E-013  0.5930194E+02  0.7816164E-02  0.1266605E+00
        -11   -1    0    0    0    0  0.00000000000E+00  0.00000000000E+00  0.45593999997E+02  0.45594000000E+02  0.51100000000E-03 0.  1.
         11   -1    0    0    0    0 -0.00000000000E+00 -0.00000000000E+00 -0.45593999997E+02  0.45594000000E+02  0.51100000000E-03 0. -1.
    9900012    2    1    2    0    0 -0.71630081659E+01  0.79816484262E+01 -0.30028405359E+02  0.59301944647E+02  0.50000001129E+02 0.  0.
        -12    1    1    2    0    0  0.71630081659E+01 -0.79816484262E+01  0.30028405359E+02  0.31886055353E+02  0.00000000000E+00 0.  1.
         11    1    3    3    0    0 -0.24825014643E+01 -0.17234273837E+01 -0.25014272702E+02  0.25196167457E+02  0.51100000000E-03 0. -1.
        -11    1    3    3    0    0  0.13539627308E+02  0.68017339482E+01 -0.37690837789E+01  0.15613810718E+02  0.51100000000E-03 0.  1.
        -12    1    3    3    0    0 -0.18220134010E+02  0.29033418618E+01 -0.12450488782E+01  0.18491966472E+02  0.00000000000E+00 0.  1.
</event>
<event>
 7    1  0.6180395E-013  0.5930191E+02  0.7816164E-02  0.1266605E+00
        -11   -1    0    0    0    0  0.00000000000E+00  0.00000000000E+00  0.45593999997E+02  0.45594000000E+02  0.51100000000E-03 0. -1.
         11   -1    0    0    0    0 -0.00000000000E+00 -0.00000000000E+00 -0.45593999997E+02  0.45594000000E+02  0.51100000000E-03 0.  1.
    9900012    2    1    2    0    0  0.31734486413E+02  0.13725834512E+00 -0.31025741250E+01  0.59301914728E+02  0.49999946565E+02 0.  0.
        -12    1    1    2    0    0 -0.31734486413E+02 -0.13725834512E+00  0.31025741250E+01  0.31886085272E+02  0.00000000000E+00 0.  1.
         11    1    3    3    0    0  0.21864157425E+02  0.16693926074E+02 -0.25029240020E+01  0.27622331120E+02  0.51100000000E-03 0. -1.
        -11    1    3    3    0    0 -0.44226622085E+01 -0.35131899414E+01 -0.89672817522E+01  0.10597857654E+02  0.51100000000E-03 0.  1.
         12    1    3    3    0    0  0.14292991196E+02 -0.13043477787E+02  0.83676316293E+01  0.21081725954E+02  0.00000000000E+00 0. -1.
</event>
<event>
 7    1  0.6180395E-013  0.5930195E+02  0.7816164E-02  0.1266605E+00
        -11   -1    0    0    0    0  0.00000000000E+00  0.00000000000E+00  0.45593999997E+02  0.45594000000E+02  0.51100000000E-03 0.  1.
         11   -1    0    0    0    0 -0.00000000000E+00 -0.00000000000E+00 -0.45593999997E+02  0.45594000000E+02  0.51100000000E-03 0. -1.
    9900012    2    1    2    0    0  0.17698601661E+02 -0.24669077908E+02 -0.97425036707E+01  0.59301948451E+02  0.50000008067E+02 0.  0.
        -12    1    1    2    0    0 -0.17698601661E+02  0.24669077908E+02  0.97425036707E+01  0.31886051549E+02  0.00000000000E+00 0.  1.
         11    1    3    3    0    0 -0.72576083834E+01 -0.23469765697E+02  0.60923322357E+01  0.25310458188E+02  0.51100000000E-03 0. -1.
        -11    1    3    3    0    0  0.15408329603E+02  0.25852710919E+01 -0.62181149127E+00  0.15636076796E+02  0.51100000000E-03 0.  1.
         12    1    3    3    0    0  0.95478804416E+01 -0.37845833028E+01 -0.15213024415E+02  0.18355413467E+02  0.00000000000E+00 0. -1.
</event>
<event>
 7    1  0.6180395E-013  0.5930203E+02  0.7816164E-02  0.1266604E+00
        -11   -1    0    0    0    0  0.00000000000E+00  0.00000000000E+00  0.45593999997E+02  0.45594000000E+02  0.51100000000E-03 0. -1.
         11   -1    0    0    0    0 -0.00000000000E+00 -0.00000000000E+00 -0.45593999997E+02  0.45594000000E+02  0.51100000000E-03 0.  1.
    9900012    2    1    2    0    0  0.61067055911E+01  0.68579405883E+00  0.31288223897E+02  0.59302029397E+02  0.50000155693E+02 0.  0.
        -12    1    1    2    0    0 -0.61067055911E+01 -0.68579405883E+00 -0.31288223897E+02  0.31885970603E+02  0.00000000000E+00 0.  1.
         11    1    3    3    0    0 -0.13271421334E+02  0.38689528089E+00  0.14335604698E+01  0.13354228097E+02  0.51100000000E-03 0. -1.
        -11    1    3    3    0    0  0.33779796335E+01 -0.69726036069E+01 -0.33013441917E+01  0.84218062906E+01  0.51100000000E-03 0.  1.
         12    1    3    3    0    0  0.16000147291E+02  0.72715023848E+01  0.33156007619E+02  0.37525995010E+02  0.00000000000E+00 0. -1.
</event>
<event>
 7    1  0.6180395E-013  0.5930206E+02  0.7816164E-02  0.1266604E+00
        -11   -1    0    0    0    0  0.00000000000E+00  0.00000000000E+00  0.45593999997E+02  0.45594000000E+02  0.51100000000E-03 0.  1.
         11   -1    0    0    0    0 -0.00000000000E+00 -0.00000000000E+00 -0.45593999997E+02  0.45594000000E+02  0.51100000000E-03 0. -1.
    9900012    2    1    2    0    0  0.16917515310E+02  0.20972566607E+02 -0.17048819129E+02  0.59302060967E+02  0.50000213269E+02 0.  0.
        -12    1    1    2    0    0 -0.16917515310E+02 -0.20972566607E+02  0.17048819129E+02  0.31885939033E+02  0.00000000000E+00 0.  1.
         11    1    3    3    0    0  0.55016006898E+01  0.54346586687E+01 -0.23474883035E+02  0.24715850355E+02  0.51100000000E-03 0. -1.
        -11    1    3    3    0    0  0.72756901863E+01  0.20949080931E+02  0.12501460133E+02  0.25457536512E+02  0.51100000000E-03 0.  1.
        -12    1    3    3    0    0  0.41402244336E+01 -0.54111729926E+01 -0.60753962269E+01  0.91286741003E+01  0.00000000000E+00 0.  1.
</event>
<event>
 7    1  0.6180395E-013  0.5930194E+02  0.7816164E-02  0.1266605E+00
        -11   -1    0    0    0    0  0.00000000000E+00  0.00000000000E+00  0.45593999997E+02  0.45594000000E+02  0.51100000000E-03 0.  1.
         11   -1    0    0    0    0 -0.00000000000E+00 -0.00000000000E+00 -0.45593999997E+02  0.45594000000E+02  0.51100000000E-03 0. -1.
    9900012    2    1    2    0    0 -0.27342373183E+02  0.12615135381E+02 -0.10486832746E+02  0.59301942341E+02  0.49999996924E+02 0.  0.
        -12    1    1    2    0    0  0.27342373183E+02 -0.12615135381E+02  0.10486832746E+02  0.31886057659E+02  0.00000000000E+00 0.  1.
         11    1    3    3    0    0 -0.17787519500E+02 -0.73821274540E+01 -0.20140249973E+02  0.27866132221E+02  0.51100000000E-03 0. -1.
        -11    1    3    3    0    0 -0.12164448450E+01 -0.41548367356E+01  0.19554575484E+01  0.47503916517E+01  0.51100000000E-03 0.  1.
         12    1    3    3    0    0 -0.83384088385E+01  0.24152099571E+02  0.76979596787E+01  0.26685418468E+02  0.00000000000E+00 0. -1.
</event>
<event>
 7    1  0.6180395E-013  0.5930194E+02  0.7816164E-02  0.1266605E+00
        -11   -1    0    0    0    0  0.00000000000E+00  0.00000000000E+00  0.45593999997E+02  0.45594000000E+02  0.51100000000E-03 0.  1.
         11   -1    0    0    0    0 -0.00000000000E+00 -0.00000000000E+00 -0.45593999997E+02  0.45594000000E+02  0.51100000000E-03 0. -1.
    9900012    2    1    2    0    0  0.17960374525E+02  0.21734318148E+01 -0.26256850038E+02  0.59301936699E+02  0.49999986635E+02 0.  0.
        -12    1    1    2    0    0 -0.17960374525E+02 -0.21734318148E+01  0.26256850038E+02  0.31886063301E+02  0.00000000000E+00 0.  1.
         11    1    3    3    0    0  0.16470440649E+02  0.20955743827E+02 -0.14469521578E+02  0.30327968437E+02  0.51100000000E-03 0. -1.
        -11    1    3    3    0    0  0.41358022134E+01 -0.13158621428E+02  0.19173479744E+01  0.13925889607E+02  0.51100000000E-03 0.  1.
         12    1    3    3    0    0 -0.26458683381E+01 -0.56236905843E+01 -0.13704676434E+02  0.15048078655E+02  0.00000000000E+00 0. -1.
</event>
<event>
 7    1  0.6180395E-013  0.5930196E+02  0.7816164E-02  0.1266605E+00
        -11   -1    0    0    0    0  0.00000000000E+00  0.00000000000E+00  0.45593999997E+02  0.45594000000E+02  0.51100000000E-03 0.  1.
         11   -1    0    0    0    0 -0.00000000000E+00 -0.00000000000E+00 -0.45593999997E+02  0.45594000000E+02  0.51100000000E-03 0. -1.
    9900012    2    1    2    0    0 -0.16906164030E+02 -0.25981771740E+02 -0.74731966474E+01  0.59301960530E+02  0.50000030097E+02 0.  0.
        -12    1    1    2    0    0  0.16906164030E+02  0.25981771740E+02  0.74731966474E+01  0.31886039470E+02  0.00000000000E+00 0.  1.
         11    1    3    3    0    0 -0.25943206992E+02  0.30523041269E+01 -0.58498374391E+01  0.26769145445E+02  0.51100000000E-03 0. -1.
        -11    1    3    3    0    0  0.75530737416E+01 -0.18680933111E+02  0.41692405434E+01  0.20576898499E+02  0.51100000000E-03 0.  1.
        -12    1    3    3    0    0  0.14839692205E+01 -0.10353142755E+02 -0.57925997517E+01  0.11955916587E+02  0.00000000000E+00 0.  1.
</event>
<event>
 7    1  0.6180395E-013  0.5930194E+02  0.7816164E-02  0.1266605E+00
        -11   -1    0    0    0    0  0.00000000000E+00  0.00000000000E+00  0.45593999997E+02  0.45594000000E+02  0.51100000000E-03 0.  1.
         11   -1    0    0    0    0 -0.00000000000E+00 -0.00000000000E+00 -0.45593999997E+02  0.45594000000E+02  0.51100000000E-03 0. -1.
    9900012    2    1    2    0    0 -0.14880770691E+02  0.16132178450E+02 -0.23130855126E+02  0.59301937578E+02  0.49999988237E+02 0.  0.
        -12    1    1    2    0    0  0.14880770691E+02 -0.16132178450E+02  0.23130855126E+02  0.31886062422E+02  0.00000000000E+00 0.  1.
         11    1    3    3    0    0 -0.42212068902E+01 -0.33366743382E+01 -0.36592595525E+01  0.65070856751E+01  0.51100000000E-03 0. -1.
        -11    1    3    3    0    0  0.99928654697E+01  0.19657917751E+02 -0.22976049453E+02  0.31846348917E+02  0.51100000000E-03 0.  1.
        -12    1    3    3    0    0 -0.20652429271E+02 -0.18906496311E+00  0.35044538794E+01  0.20948502986E+02  0.00000000000E+00 0.  1.
</event>
<event>
 7    1  0.6180395E-013  0.5930194E+02  0.7816164E-02  0.1266605E+00
        -11   -1    0    0    0    0  0.00000000000E+00  0.00000000000E+00  0.45593999997E+02  0.45594000000E+02  0.51100000000E-03 0. -1.
         11   -1    0    0    0    0 -0.00000000000E+00 -0.00000000000E+00 -0.45593999997E+02  0.45594000000E+02  0.51100000000E-03 0.  1.
    9900012    2    1    2    0    0  0.19957986425E+02  0.17469359339E+02  0.17698045930E+02  0.59301943994E+02  0.49999999939E+02 0.  0.
        -12    1    1    2    0    0 -0.19957986425E+02 -0.17469359339E+02 -0.17698045930E+02  0.31886056006E+02  0.00000000000E+00 0.  1.
         11    1    3    3    0    0  0.21630961072E+02  0.17581909982E+02  0.28594353654E+02  0.39933182901E+02  0.51100000000E-03 0. -1.
        -11    1    3    3    0    0  0.31324901355E+01 -0.60802545587E+01 -0.92965200155E+01  0.11541545590E+02  0.51100000000E-03 0.  1.
         12    1    3    3    0    0 -0.48054647827E+01  0.59677039165E+01 -0.15997877080E+01  0.78272155026E+01  0.00000000000E+00 0. -1.
</event>
<event>
 7    1  0.6180395E-013  0.5930187E+02  0.7816164E-02  0.1266605E+00
        -11   -1    0    0    0    0  0.00000000000E+00  0.00000000000E+00  0.45593999997E+02  0.45594000000E+02  0.51100000000E-03 0. -1.
         11   -1    0    0    0    0 -0.00000000000E+00 -0.00000000000E+00 -0.45593999997E+02  0.45594000000E+02  0.51100000000E-03 0.  1.
    9900012    2    1    2    0    0 -0.97646909675E+01 -0.11339818845E+02  0.28156432193E+02  0.59301868924E+02  0.49999863029E+02 0.  0.
        -12    1    1    2    0    0  0.97646909675E+01  0.11339818845E+02 -0.28156432193E+02  0.31886131076E+02  0.00000000000E+00 0.  1.
         11    1    3    3    0    0  0.13272595765E+02 -0.82506711290E+00  0.89609484814E+01  0.16035620725E+02  0.51100000000E-03 0. -1.
        -11    1    3    3    0    0 -0.20734223410E+02 -0.16262667769E+02  0.37383954388E+01  0.26614995475E+02  0.51100000000E-03 0.  1.
        -12    1    3    3    0    0 -0.23030633223E+01  0.57479160371E+01  0.15457088273E+02  0.16651252725E+02  0.00000000000E+00 0.  1.
</event>
<event>
 7    1  0.6180395E-013  0.5930199E+02  0.7816164E-02  0.1266605E+00
        -11   -1    0    0    0    0  0.00000000000E+00  0.00000000000E+00  0.45593999997E+02  0.45594000000E+02  0.51100000000E-03 0.  1.
         11   -1    0    0    0    0 -0.00000000000E+00 -0.00000000000E+00 -0.45593999997E+02  0.45594000000E+02  0.51100000000E-03 0. -1.
    9900012    2    1    2    0    0  0.25062748164E+02 -0.64359686259E+01 -0.18632083290E+02  0.59301991072E+02  0.50000085797E+02 0.  0.
        -12    1    1    2    0    0 -0.25062748164E+02  0.64359686259E+01  0.18632083290E+02  0.31886008928E+02  0.00000000000E+00 0.  1.
         11    1    3    3    0    0  0.18055931585E+02 -0.21125970109E+02 -0.12872614284E+02  0.30627234241E+02  0.51100000000E-03 0. -1.
        -11    1    3    3    0    0  0.24721631135E+01  0.38779494470E+01  0.88313024669E+01  0.99570068743E+01  0.51100000000E-03 0.  1.
         12    1    3    3    0    0  0.45346534655E+01  0.10812052036E+02 -0.14590771472E+02  0.18717749957E+02  0.00000000000E+00 0. -1.
</event>
<event>
 7    1  0.6180395E-013  0.5930193E+02  0.7816164E-02  0.1266605E+00
        -11   -1    0    0    0    0  0.00000000000E+00  0.00000000000E+00  0.45593999997E+02  0.45594000000E+02  0.51100000000E-03 0. -1.
         11   -1    0    0    0    0 -0.00000000000E+00 -0.00000000000E+00 -0.45593999997E+02  0.45594000000E+02  0.51100000000E-03 0.  1.
    9900012    2    1    2    0    0 -0.17099833085E+02 -0.26536049896E+02 -0.44894449860E+01  0.59301931696E+02  0.49999977510E+02 0.  0.
        -12    1    1    2    0    0  0.17099833085E+02  0.26536049896E+02  0.44894449860E+01  0.31886068304E+02  0.00000000000E+00 0.  1.
         11    1    3    3    0    0 -0.19672978940E+02 -0.18860189775E+02  0.88631352026E+00  0.27267534004E+02  0.51100000000E-03 0. -1.
        -11    1    3    3    0    0  0.55229707434E+01 -0.68066278491E+01 -0.17475158004E+02  0.19550307824E+02  0.51100000000E-03 0.  1.
        -12    1    3    3    0    0 -0.29498248883E+01 -0.86923227145E+00  0.12099399498E+02  0.12484089867E+02  0.00000000000E+00 0.  1.
</event>
<event>
 7    1  0.6180395E-013  0.5930197E+02  0.7816164E-02  0.1266605E+00
        -11   -1    0    0    0    0  0.00000000000E+00  0.00000000000E+00  0.45593999997E+02  0.45594000000E+02  0.51100000000E-03 0.  1.
         11   -1    0    0    0    0 -0.00000000000E+00 -0.00000000000E+00 -0.45593999997E+02  0.45594000000E+02  0.51100000000E-03 0. -1.
    9900012    2    1    2    0    0  0.26768685676E+02 -0.17043739817E+02  0.31092805758E+01  0.59301965040E+02  0.50000038321E+02 0.  0.
        -12    1    1    2    0    0 -0.26768685676E+02  0.17043739817E+02 -0.31092805758E+01  0.31886034960E+02  0.00000000000E+00 0.  1.
         11    1    3    3    0    0  0.13768105445E+02 -0.19957297265E+02  0.14593957746E+00  0.24246148979E+02  0.51100000000E-03 0. -1.
        -11    1    3    3    0    0 -0.94618036587E+01  0.57792311948E+01 -0.32878021988E+01  0.11564380020E+02  0.51100000000E-03 0.  1.
        -12    1    3    3    0    0  0.22462383890E+02 -0.28656737468E+01  0.62511431972E+01  0.23491436042E+02  0.00000000000E+00 0.  1.
</event>
<event>
 7    1  0.6180395E-013  0.5930195E+02  0.7816164E-02  0.1266605E+00
        -11   -1    0    0    0    0  0.00000000000E+00  0.00000000000E+00  0.45593999997E+02  0.45594000000E+02  0.51100000000E-03 0.  1.
         11   -1    0    0    0    0 -0.00000000000E+00 -0.00000000000E+00 -0.45593999997E+02  0.45594000000E+02  0.51100000000E-03 0. -1.
    9900012    2    1    2    0    0  0.33011547441E+01  0.24606157656E+02 -0.20008981791E+02  0.59301953372E+02  0.50000017042E+02 0.  0.
        -12    1    1    2    0    0 -0.33011547441E+01 -0.24606157656E+02  0.20008981791E+02  0.31886046628E+02  0.00000000000E+00 0.  1.
         11    1    3    3    0    0  0.29898563763E+01  0.31254746172E+02 -0.31660462141E+01  0.31556651412E+02  0.51100000000E-03 0. -1.
        -11    1    3    3    0    0 -0.45845459554E+01 -0.97297068265E+01 -0.18782502286E+02  0.21644113494E+02  0.51100000000E-03 0.  1.
         12    1    3    3    0    0  0.48958443232E+01  0.30811183104E+01  0.19395667091E+01  0.61011884661E+01  0.00000000000E+00 0. -1.
</event>
<event>
 7    1  0.6180395E-013  0.5930213E+02  0.7816164E-02  0.1266604E+00
        -11   -1    0    0    0    0  0.00000000000E+00  0.00000000000E+00  0.45593999997E+02  0.45594000000E+02  0.51100000000E-03 0.  1.
         11   -1    0    0    0    0 -0.00000000000E+00 -0.00000000000E+00 -0.45593999997E+02  0.45594000000E+02  0.51100000000E-03 0. -1.
    9900012    2    1    2    0    0 -0.19938606394E+02 -0.23328371667E+02 -0.86572420184E+01  0.59302128694E+02  0.50000336786E+02 0.  0.
        -12    1    1    2    0    0  0.19938606394E+02  0.23328371667E+02  0.86572420184E+01  0.31885871306E+02  0.00000000000E+00 0.  1.
         11    1    3    3    0    0  0.56677536531E+01  0.36487715835E+01 -0.66260225790E+01  0.94520442772E+01  0.51100000000E-03 0. -1.
        -11    1    3    3    0    0 -0.33423095817E+02 -0.18577466044E+02 -0.28612760478E+01  0.38345957799E+02  0.51100000000E-03 0.  1.
        -12    1    3    3    0    0  0.78167357701E+01 -0.83996772063E+01  0.83005660837E+00  0.11504126618E+02  0.00000000000E+00 0.  1.
</event>
<event>
 7    1  0.6180395E-013  0.5930194E+02  0.7816164E-02  0.1266605E+00
        -11   -1    0    0    0    0  0.00000000000E+00  0.00000000000E+00  0.45593999997E+02  0.45594000000E+02  0.51100000000E-03 0.  1.
         11   -1    0    0    0    0 -0.00000000000E+00 -0.00000000000E+00 -0.45593999997E+02  0.45594000000E+02  0.51100000000E-03 0. -1.
    9900012    2    1    2    0    0 -0.22890402278E+02 -0.17827390278E+02 -0.13226286351E+02  0.59301937038E+02  0.49999987252E+02 0.  0.
        -12    1    1    2    0    0  0.22890402278E+02  0.17827390278E+02  0.13226286351E+02  0.31886062962E+02  0.00000000000E+00 0.  1.
         11    1    3    3    0    0 -0.30103457508E+02 -0.11057924738E+02 -0.10623283308E+00  0.32070346726E+02  0.51100000000E-03 0. -1.
        -11    1    3    3    0    0  0.63828593925E+01 -0.88599326533E+01  0.27031796636E+01  0.11249288031E+02  0.51100000000E-03 0.  1.
         12    1    3    3    0    0  0.83019583723E+00  0.20904671135E+01 -0.15823233182E+02  0.15982302281E+02  0.00000000000E+00 0. -1.
</event>
<event>
 7    1  0.6180395E-013  0.5930194E+02  0.7816164E-02  0.1266605E+00
        -11   -1    0    0    0    0  0.00000000000E+00  0.00000000000E+00  0.45593999997E+02  0.45594000000E+02  0.51100000000E-03 0. -1.
         11   -1    0    0    0    0 -0.00000000000E+00 -0.00000000000E+00 -0.45593999997E+02  0.45594000000E+02  0.51100000000E-03 0.  1.
    9900012    2    1    2    0    0  0.20412588202E+02 -0.47231906100E+01  0.24036197639E+02  0.59301935904E+02  0.49999985183E+02 0.  0.
        -12    1    1    2    0    0 -0.20412588202E+02  0.47231906100E+01 -0.24036197639E+02  0.31886064096E+02  0.00000000000E+00 0.  1.
         11    1    3    3    0    0 -0.18202865008E+01 -0.11727957783E+02  0.30630230435E+02  0.32849192585E+02  0.51100000000E-03 0. -1.
        -11    1    3    3    0    0  0.56895130581E+01 -0.19290812692E+01  0.11537510771E+01  0.61174386136E+01  0.51100000000E-03 0.  1.
         12    1    3    3    0    0  0.16543361644E+02  0.89338484425E+01 -0.77477838736E+01  0.20335304705E+02  0.00000000000E+00 0. -1.
</event>
<event>
 7    1  0.6180395E-013  0.5930193E+02  0.7816164E-02  0.1266605E+00
        -11   -1    0    0    0    0  0.00000000000E+00  0.00000000000E+00  0.45593999997E+02  0.45594000000E+02  0.51100000000E-03 0.  1.
         11   -1    0    0    0    0 -0.00000000000E+00 -0.00000000000E+00 -0.45593999997E+02  0.45594000000E+02  0.51100000000E-03 0. -1.
    9900012    2    1    2    0    0 -0.23070556010E+02 -0.19230030896E+02 -0.10708729059E+02  0.59301929045E+02  0.49999972675E+02 0.  0.
        -12    1    1    2    0    0  0.23070556010E+02  0.19230030896E+02  0.10708729059E+02  0.31886070955E+02  0.00000000000E+00 0.  1.
         11    1    3    3    0    0 -0.10226933751E+02 -0.12296927363E+02 -0.11956568708E+02  0.19969079399E+02  0.51100000000E-03 0. -1.
        -11    1    3    3    0    0 -0.24126456326E+02  0.35366623374E+00  0.63737534693E+01  0.24956676626E+02  0.51100000000E-03 0.  1.
        -12    1    3    3    0    0  0.11282834067E+02 -0.72867697669E+01 -0.51259138199E+01  0.14376173020E+02  0.00000000000E+00 0.  1.
</event>
<event>
 7    1  0.6180395E-013  0.5930195E+02  0.7816164E-02  0.1266605E+00
        -11   -1    0    0    0    0  0.00000000000E+00  0.00000000000E+00  0.45593999997E+02  0.45594000000E+02  0.51100000000E-03 0.  1.
         11   -1    0    0    0    0 -0.00000000000E+00 -0.00000000000E+00 -0.45593999997E+02  0.45594000000E+02  0.51100000000E-03 0. -1.
    9900012    2    1    2    0    0  0.12271493836E+02 -0.19534746513E+01 -0.29365191235E+02  0.59301951634E+02  0.50000013872E+02 0.  0.
        -12    1    1    2    0    0 -0.12271493836E+02  0.19534746513E+01  0.29365191235E+02  0.31886048366E+02  0.00000000000E+00 0.  1.
         11    1    3    3    0    0  0.91448654828E+01 -0.45447050772E+01 -0.32598578858E+02  0.34160653576E+02  0.51100000000E-03 0. -1.
        -11    1    3    3    0    0 -0.10263736805E+02  0.17425678361E+01  0.51037031365E+01  0.11594335765E+02  0.51100000000E-03 0.  1.
        -12    1    3    3    0    0  0.13390365158E+02  0.84866258983E+00 -0.18703155133E+01  0.13546962293E+02  0.00000000000E+00 0.  1.
</event>
<event>
 7    1  0.6180395E-013  0.5930193E+02  0.7816164E-02  0.1266605E+00
        -11   -1    0    0    0    0  0.00000000000E+00  0.00000000000E+00  0.45593999997E+02  0.45594000000E+02  0.51100000000E-03 0. -1.
         11   -1    0    0    0    0 -0.00000000000E+00 -0.00000000000E+00 -0.45593999997E+02  0.45594000000E+02  0.51100000000E-03 0.  1.
    9900012    2    1    2    0    0  0.20089687923E+02 -0.24516170357E+02 -0.34760722765E+01  0.59301933321E+02  0.49999980473E+02 0.  0.
        -12    1    1    2    0    0 -0.20089687923E+02  0.24516170357E+02  0.34760722765E+01  0.31886066679E+02  0.00000000000E+00 0.  1.
         11    1    3    3    0    0  0.70801201963E+01 -0.23355775481E+02  0.34393426559E+01  0.24646489172E+02  0.51100000000E-03 0. -1.
        -11    1    3    3    0    0  0.21285910357E+02 -0.13720972572E+01  0.32164158843E+01  0.21571229960E+02  0.51100000000E-03 0.  1.
        -12    1    3    3    0    0 -0.82763426302E+01  0.21170238172E+00 -0.10131830817E+02  0.13084214188E+02  0.00000000000E+00 0.  1.
</event>
<event>
 7    1  0.6180395E-013  0.5930195E+02  0.7816164E-02  0.1266605E+00
        -11   -1    0    0    0    0  0.00000000000E+00  0.00000000000E+00  0.45593999997E+02  0.45594000000E+02  0.51100000000E-03 0.  1.
         11   -1    0    0    0    0 -0.00000000000E+00 -0.00000000000E+00 -0.45593999997E+02  0.45594000000E+02  0.51100000000E-03 0. -1.
    9900012    2    1    2    0    0 -0.25837947820E+02  0.13318585968E+02  0.13104809766E+02  0.59301947896E+02  0.50000007055E+02 0.  0.
        -12    1    1    2    0    0  0.25837947820E+02 -0.13318585968E+02 -0.13104809766E+02  0.31886052104E+02  0.00000000000E+00 0.  1.
         11    1    3    3    0    0 -0.28349846722E+02  0.41139632774E+01 -0.69481807153E+01  0.29477376384E+02  0.51100000000E-03 0. -1.
        -11    1    3    3    0    0  0.29110775070E+01 -0.44029243847E+01  0.13932062295E+02  0.14898405130E+02  0.51100000000E-03 0.  1.
         12    1    3    3    0    0 -0.39917860569E+00  0.13607547075E+02  0.61209281870E+01  0.14926166381E+02  0.00000000000E+00 0. -1.
</event>
<event>
 7    1  0.6180395E-013  0.5930193E+02  0.7816164E-02  0.1266605E+00
        -11   -1    0    0    0    0  0.00000000000E+00  0.00000000000E+00  0.45593999997E+02  0.45594000000E+02  0.51100000000E-03 0.  1.
         11   -1    0    0    0    0 -0.00000000000E+00 -0.00000000000E+00 -0.45593999997E+02  0.45594000000E+02  0.51100000000E-03 0. -1.
    9900012    2    1    2    0    0 -0.47369976726E+01 -0.29152288306E+02 -0.12017753351E+02  0.59301930063E+02  0.49999974532E+02 0.  0.
        -12    1    1    2    0    0  0.47369976726E+01  0.29152288306E+02  0.12017753351E+02  0.31886069937E+02  0.00000000000E+00 0.  1.
         11    1    3    3    0    0  0.11996226896E+01 -0.40981063315E+02 -0.14569613679E+02  0.43510461823E+02  0.51100000000E-03 0. -1.
        -11    1    3    3    0    0 -0.79064586228E+01  0.78430450435E+01  0.17310596779E+01  0.11270404224E+02  0.51100000000E-03 0.  1.
         12    1    3    3    0    0  0.19698382607E+01  0.39857299657E+01  0.82080065020E+00  0.45210640164E+01  0.00000000000E+00 0. -1.
</event>
<event>
 7    1  0.6180395E-013  0.5930193E+02  0.7816164E-02  0.1266605E+00
        -11   -1    0    0    0    0  0.00000000000E+00  0.00000000000E+00  0.45593999997E+02  0.45594000000E+02  0.51100000000E-03 0.  1.
         11   -1    0    0    0    0 -0.00000000000E+00 -0.00000000000E+00 -0.45593999997E+02  0.45594000000E+02  0.51100000000E-03 0. -1.
    9900012    2    1    2    0    0  0.22260583595E+01 -0.13579109899E+02 -0.28764109011E+02  0.59301928924E+02  0.49999972454E+02 0.  0.
        -12    1    1    2    0    0 -0.22260583595E+01  0.13579109899E+02  0.28764109011E+02  0.31886071076E+02  0.00000000000E+00 0.  1.
         11    1    3    3    0    0 -0.13118082332E+02 -0.42127356730E+01 -0.87813771228E+01  0.16338415172E+02  0.51100000000E-03 0. -1.
        -11    1    3    3    0    0  0.14364176555E+02 -0.21091665585E+02 -0.17488188312E+02  0.30935815101E+02  0.51100000000E-03 0.  1.
        -12    1    3    3    0    0  0.97996413629E+00  0.11725291359E+02 -0.24945435760E+01  0.12027698650E+02  0.00000000000E+00 0.  1.
</event>
<event>
 7    1  0.6180395E-013  0.5930196E+02  0.7816164E-02  0.1266605E+00
        -11   -1    0    0    0    0  0.00000000000E+00  0.00000000000E+00  0.45593999997E+02  0.45594000000E+02  0.51100000000E-03 0. -1.
         11   -1    0    0    0    0 -0.00000000000E+00 -0.00000000000E+00 -0.45593999997E+02  0.45594000000E+02  0.51100000000E-03 0.  1.
    9900012    2    1    2    0    0 -0.18113496951E+02 -0.16356668658E+02  0.20520237940E+02  0.59301960006E+02  0.50000029141E+02 0.  0.
        -12    1    1    2    0    0  0.18113496951E+02  0.16356668658E+02 -0.20520237940E+02  0.31886039994E+02  0.00000000000E+00 0.  1.
         11    1    3    3    0    0 -0.21350655867E+02 -0.21642946500E+02  0.16529346468E+02  0.34604724158E+02  0.51100000000E-03 0. -1.
        -11    1    3    3    0    0 -0.31720500247E+01  0.11879285996E+02 -0.35586424512E+01  0.12800127870E+02  0.51100000000E-03 0.  1.
         12    1    3    3    0    0  0.64092089405E+01 -0.65930081544E+01  0.75495339235E+01  0.11897107978E+02  0.00000000000E+00 0. -1.
</event>
<event>
 7    1  0.6180395E-013  0.5930195E+02  0.7816164E-02  0.1266605E+00
        -11   -1    0    0    0    0  0.00000000000E+00  0.00000000000E+00  0.45593999997E+02  0.45594000000E+02  0.51100000000E-03 0. -1.
         11   -1    0    0    0    0 -0.00000000000E+00 -0.00000000000E+00 -0.45593999997E+02  0.45594000000E+02  0.51100000000E-03 0.  1.
    9900012    2    1    2    0    0  0.11578843469E+02 -0.26839071243E+02  0.12740282981E+02  0.59301950202E+02  0.50000011261E+02 0.  0.
        -12    1    1    2    0    0 -0.11578843469E+02  0.26839071243E+02 -0.12740282981E+02  0.31886049798E+02  0.00000000000E+00 0.  1.
         11    1    3    3    0    0  0.13105409643E+02 -0.47413422966E+01 -0.93489190562E+01  0.16781965810E+02  0.51100000000E-03 0. -1.
        -11    1    3    3    0    0 -0.12138243739E+02 -0.92995009010E+01  0.53701827843E+00  0.15300525055E+02  0.51100000000E-03 0.  1.
         12    1    3    3    0    0  0.10611677564E+02 -0.12798228045E+02  0.21552183759E+02  0.27219459337E+02  0.00000000000E+00 0. -1.
</event>
<event>
 7    1  0.6180395E-013  0.5930221E+02  0.7816164E-02  0.1266604E+00
        -11   -1    0    0    0    0  0.00000000000E+00  0.00000000000E+00  0.45593999997E+02  0.45594000000E+02  0.51100000000E-03 0. -1.
         11   -1    0    0    0    0 -0.00000000000E+00 -0.00000000000E+00 -0.45593999997E+02  0.45594000000E+02  0.51100000000E-03 0.  1.
    9900012    2    1    2    0    0  0.21312103941E+02 -0.49582256699E+01  0.23192968164E+02  0.59302210870E+02  0.50000486654E+02 0.  0.
        -12    1    1    2    0    0 -0.21312103941E+02  0.49582256699E+01 -0.23192968164E+02  0.31885789130E+02  0.00000000000E+00 0.  1.
         11    1    3    3    0    0 -0.89203288624E+00 -0.92071765742E+01  0.20432859413E+02  0.22429212363E+02  0.51100000000E-03 0. -1.
        -11    1    3    3    0    0  0.23773933565E+02 -0.55911584079E+01 -0.41150562940E+01  0.24766805569E+02  0.51100000000E-03 0.  1.
         12    1    3    3    0    0 -0.15697967383E+01  0.98401093122E+01  0.68751650448E+01  0.12106192939E+02  0.00000000000E+00 0. -1.
</event>
<event>
 7    1  0.6180395E-013  0.5930194E+02  0.7816164E-02  0.1266605E+00
        -11   -1    0    0    0    0  0.00000000000E+00  0.00000000000E+00  0.45593999997E+02  0.45594000000E+02  0.51100000000E-03 0.  1.
         11   -1    0    0    0    0 -0.00000000000E+00 -0.00000000000E+00 -0.45593999997E+02  0.45594000000E+02  0.51100000000E-03 0. -1.
    9900012    2    1    2    0    0  0.14433767342E+02  0.26756376108E+02  0.96168399872E+01  0.59301938571E+02  0.49999990048E+02 0.  0.
        -12    1    1    2    0    0 -0.14433767342E+02 -0.26756376108E+02 -0.96168399872E+01  0.31886061429E+02  0.00000000000E+00 0.  1.
         11    1    3    3    0    0  0.12267807750E+02  0.24829348011E+02 -0.68200571720E+00  0.27703082170E+02  0.51100000000E-03 0. -1.
        -11    1    3    3    0    0 -0.13526876135E+02  0.13487030330E+01  0.78726705534E+01  0.15709052159E+02  0.51100000000E-03 0.  1.
         12    1    3    3    0    0  0.15692835726E+02  0.57832506463E+00  0.24261751510E+01  0.15889804242E+02  0.00000000000E+00 0. -1.
</event>
<event>
 7    1  0.6180395E-013  0.5930192E+02  0.7816164E-02  0.1266605E+00
        -11   -1    0    0    0    0  0.00000000000E+00  0.00000000000E+00  0.45593999997E+02  0.45594000000E+02  0.51100000000E-03 0. -1.
         11   -1    0    0    0    0 -0.00000000000E+00 -0.00000000000E+00 -0.45593999997E+02  0.45594000000E+02  0.51100000000E-03 0.  1.
    9900012    2    1    2    0    0  0.22892327317E+02  0.18665877540E+02  0.12010342510E+02  0.59301922136E+02  0.49999960075E+02 0.  0.
        -12    1    1    2    0    0 -0.22892327317E+02 -0.18665877540E+02 -0.12010342510E+02  0.31886077864E+02  0.00000000000E+00 0.  1.
         11    1    3    3    0    0  0.10850865704E+01 -0.27754311365E+01  0.19612181208E+02  0.19837290209E+02  0.51100000000E-03 0. -1.
        -11    1    3    3    0    0  0.13848071457E+02  0.12593172581E+02 -0.16222339121E+02  0.24769363447E+02  0.51100000000E-03 0.  1.
        -12    1    3    3    0    0  0.79591692899E+01  0.88481360950E+01  0.86205004239E+01  0.14695268480E+02  0.00000000000E+00 0.  1.
</event>
<event>
 7    1  0.6180395E-013  0.5930195E+02  0.7816164E-02  0.1266605E+00
        -11   -1    0    0    0    0  0.00000000000E+00  0.00000000000E+00  0.45593999997E+02  0.45594000000E+02  0.51100000000E-03 0. -1.
         11   -1    0    0    0    0 -0.00000000000E+00 -0.00000000000E+00 -0.45593999997E+02  0.45594000000E+02  0.51100000000E-03 0.  1.
    9900012    2    1    2    0    0 -0.17250416717E+02 -0.10568052514E+02  0.24646699184E+02  0.59301946756E+02  0.50000004976E+02 0.  0.
        -12    1    1    2    0    0  0.17250416717E+02  0.10568052514E+02 -0.24646699184E+02  0.31886053244E+02  0.00000000000E+00 0.  1.
         11    1    3    3    0    0 -0.30064847895E+02 -0.53129943903E+01  0.14815524567E+02  0.33935567725E+02  0.51100000000E-03 0. -1.
        -11    1    3    3    0    0  0.20475916194E+01  0.19813469432E+01 -0.49428015354E+01  0.57052304449E+01  0.51100000000E-03 0.  1.
         12    1    3    3    0    0  0.10766839559E+02 -0.72364050665E+01  0.14773976152E+02  0.19661148586E+02  0.00000000000E+00 0. -1.
</event>
<event>
 7    1  0.6180395E-013  0.5930193E+02  0.7816164E-02  0.1266605E+00
        -11   -1    0    0    0    0  0.00000000000E+00  0.00000000000E+00  0.45593999997E+02  0.45594000000E+02  0.51100000000E-03 0. -1.
         11   -1    0    0    0    0 -0.00000000000E+00 -0.00000000000E+00 -0.45593999997E+02  0.45594000000E+02  0.51100000000E-03 0.  1.
    9900012    2    1    2    0    0 -0.14351342145E+02 -0.19361823200E+02  0.20877742311E+02  0.59301931836E+02  0.49999977765E+02 0.  0.
        -12    1    1    2    0    0  0.14351342145E+02  0.19361823200E+02 -0.20877742311E+02  0.31886068164E+02  0.00000000000E+00 0.  1.
         11    1    3    3    0    0 -0.17673736409E+02 -0.25707092723E+02  0.28488988446E+02  0.42247343560E+02  0.51100000000E-03 0. -1.
        -11    1    3    3    0    0 -0.33483897759E+00  0.19591815316E+01 -0.10477856403E+02  0.10664707425E+02  0.51100000000E-03 0.  1.
        -12    1    3    3    0    0  0.36572332419E+01  0.43860879917E+01  0.28666102668E+01  0.63898808501E+01  0.00000000000E+00 0.  1.
</event>
<event>
 7    1  0.6180395E-013  0.5930196E+02  0.7816164E-02  0.1266605E+00
        -11   -1    0    0    0    0  0.00000000000E+00  0.00000000000E+00  0.45593999997E+02  0.45594000000E+02  0.51100000000E-03 0. -1.
         11   -1    0    0    0    0 -0.00000000000E+00 -0.00000000000E+00 -0.45593999997E+02  0.45594000000E+02  0.51100000000E-03 0.  1.
    9900012    2    1    2    0    0 -0.86534364898E+01 -0.18477819748E+01  0.30633696548E+02  0.59301958767E+02  0.50000026881E+02 0.  0.
        -12    1    1    2    0    0  0.86534364898E+01  0.18477819748E+01 -0.30633696548E+02  0.31886041233E+02  0.00000000000E+00 0.  1.
         11    1    3    3    0    0 -0.24681154398E+01 -0.16361339653E+02 -0.69702998298E+01  0.17954668169E+02  0.51100000000E-03 0. -1.
        -11    1    3    3    0    0  0.42675175796E+00  0.70835149077E+01  0.18388386400E+02  0.19710176436E+02  0.51100000000E-03 0.  1.
         12    1    3    3    0    0 -0.66120728080E+01  0.74300427709E+01  0.19215609979E+02  0.21637114162E+02  0.00000000000E+00 0. -1.
</event>
<event>
 7    1  0.6180395E-013  0.5930194E+02  0.7816164E-02  0.1266605E+00
        -11   -1    0    0    0    0  0.00000000000E+00  0.00000000000E+00  0.45593999997E+02  0.45594000000E+02  0.51100000000E-03 0.  1.
         11   -1    0    0    0    0 -0.00000000000E+00 -0.00000000000E+00 -0.45593999997E+02  0.45594000000E+02  0.51100000000E-03 0. -1.
    9900012    2    1    2    0    0 -0.21291998178E+02  0.14446979210E+02 -0.18832328755E+02  0.59301937197E+02  0.49999987543E+02 0.  0.
        -12    1    1    2    0    0  0.21291998178E+02 -0.14446979210E+02  0.18832328755E+02  0.31886062803E+02  0.00000000000E+00 0.  1.
         11    1    3    3    0    0 -0.67520828245E+01  0.19114239893E+02 -0.12268668229E+02  0.23695252890E+02  0.51100000000E-03 0. -1.
        -11    1    3    3    0    0 -0.16998522025E+02 -0.60851843435E+01  0.87280064210E+01  0.20053860374E+02  0.51100000000E-03 0.  1.
        -12    1    3    3    0    0  0.24586066716E+01  0.14179236606E+01 -0.15291666947E+02  0.15552823933E+02  0.00000000000E+00 0.  1.
</event>
<event>
 7    1  0.6180395E-013  0.5930183E+02  0.7816164E-02  0.1266605E+00
        -11   -1    0    0    0    0  0.00000000000E+00  0.00000000000E+00  0.45593999997E+02  0.45594000000E+02  0.51100000000E-03 0. -1.
         11   -1    0    0    0    0 -0.00000000000E+00 -0.00000000000E+00 -0.45593999997E+02  0.45594000000E+02  0.51100000000E-03 0.  1.
    9900012    2    1    2    0    0  0.89903074184E+01  0.29684263618E+02  0.73991004970E+01  0.59301830236E+02  0.49999792471E+02 0.  0.
        -12    1    1    2    0    0 -0.89903074184E+01 -0.29684263618E+02 -0.73991004970E+01  0.31886169764E+02  0.00000000000E+00 0.  1.
         11    1    3    3    0    0 -0.77857422271E+01  0.55143470168E+01  0.94265625067E+01  0.13412154413E+02  0.51100000000E-03 0. -1.
        -11    1    3    3    0    0  0.10160196622E+02  0.22528672513E+02 -0.16620783625E+02  0.29782899946E+02  0.51100000000E-03 0.  1.
        -12    1    3    3    0    0  0.66158530233E+01  0.16412440879E+01  0.14593321615E+02  0.16106775877E+02  0.00000000000E+00 0.  1.
</event>
<event>
 7    1  0.6180395E-013  0.5930191E+02  0.7816164E-02  0.1266605E+00
        -11   -1    0    0    0    0  0.00000000000E+00  0.00000000000E+00  0.45593999997E+02  0.45594000000E+02  0.51100000000E-03 0.  1.
         11   -1    0    0    0    0 -0.00000000000E+00 -0.00000000000E+00 -0.45593999997E+02  0.45594000000E+02  0.51100000000E-03 0. -1.
    9900012    2    1    2    0    0  0.31529977763E+02 -0.22570368592E+01  0.41819730014E+01  0.59301911948E+02  0.49999941494E+02 0.  0.
        -12    1    1    2    0    0 -0.31529977763E+02  0.22570368592E+01 -0.41819730014E+01  0.31886088052E+02  0.00000000000E+00 0.  1.
         11    1    3    3    0    0  0.21744650390E+02  0.33370823157E+01 -0.99353699267E+01  0.24138714026E+02  0.51100000000E-03 0. -1.
        -11    1    3    3    0    0 -0.54019600038E+01  0.90755806156E+01  0.77789197921E+01  0.13117123495E+02  0.51100000000E-03 0.  1.
        -12    1    3    3    0    0  0.15187287376E+02 -0.14669699790E+02  0.63384231361E+01  0.22046074427E+02  0.00000000000E+00 0.  1.
</event>
<event>
 7    1  0.6180395E-013  0.5930195E+02  0.7816164E-02  0.1266605E+00
        -11   -1    0    0    0    0  0.00000000000E+00  0.00000000000E+00  0.45593999997E+02  0.45594000000E+02  0.51100000000E-03 0. -1.
         11   -1    0    0    0    0 -0.00000000000E+00 -0.00000000000E+00 -0.45593999997E+02  0.45594000000E+02  0.51100000000E-03 0.  1.
    9900012    2    1    2    0    0 -0.17853032600E+02  0.20650921176E+02  0.16478126550E+02  0.59301953317E+02  0.50000016942E+02 0.  0.
        -12    1    1    2    0    0  0.17853032600E+02 -0.20650921176E+02 -0.16478126550E+02  0.31886046683E+02  0.00000000000E+00 0.  1.
         11    1    3    3    0    0 -0.75422212048E+01  0.11044816320E+02  0.33695762659E+02  0.36252965254E+02  0.51100000000E-03 0. -1.
        -11    1    3    3    0    0 -0.53676294568E+01  0.68800411769E+01 -0.63146918928E+01  0.10771339125E+02  0.51100000000E-03 0.  1.
         12    1    3    3    0    0 -0.49431819389E+01  0.27260636793E+01 -0.10902944217E+02  0.12277648939E+02  0.00000000000E+00 0. -1.
</event>
<event>
 7    1  0.6180395E-013  0.5930195E+02  0.7816164E-02  0.1266605E+00
        -11   -1    0    0    0    0  0.00000000000E+00  0.00000000000E+00  0.45593999997E+02  0.45594000000E+02  0.51100000000E-03 0.  1.
         11   -1    0    0    0    0 -0.00000000000E+00 -0.00000000000E+00 -0.45593999997E+02  0.45594000000E+02  0.51100000000E-03 0. -1.
    9900012    2    1    2    0    0 -0.10699317049E+01  0.14123457369E+01 -0.31836783562E+02  0.59301948788E+02  0.50000008681E+02 0.  0.
        -12    1    1    2    0    0  0.10699317049E+01 -0.14123457369E+01  0.31836783562E+02  0.31886051212E+02  0.00000000000E+00 0.  1.
         11    1    3    3    0    0  0.22830647701E+02  0.36423455453E+01 -0.20917931850E+02  0.31177957417E+02  0.51100000000E-03 0. -1.
        -11    1    3    3    0    0 -0.14679137296E+02  0.12787004217E+01 -0.10779201396E+02  0.18256596876E+02  0.51100000000E-03 0.  1.
        -12    1    3    3    0    0 -0.92214421106E+01 -0.35087002300E+01 -0.13965031563E+00  0.98673944947E+01  0.00000000000E+00 0.  1.
</event>
<event>
 7    1  0.6180395E-013  0.5930196E+02  0.7816164E-02  0.1266605E+00
        -11   -1    0    0    0    0  0.00000000000E+00  0.00000000000E+00  0.45593999997E+02  0.45594000000E+02  0.51100000000E-03 0. -1.
         11   -1    0    0    0    0 -0.00000000000E+00 -0.00000000000E+00 -0.45593999997E+02  0.45594000000E+02  0.51100000000E-03 0.  1.
    9900012    2    1    2    0    0 -0.17217401254E+02  0.13393989982E+02  0.23256868656E+02  0.59301955823E+02  0.50000021511E+02 0.  0.
        -12    1    1    2    0    0  0.17217401254E+02 -0.13393989982E+02 -0.23256868656E+02  0.31886044177E+02  0.00000000000E+00 0.  1.
         11    1    3    3    0    0 -0.62161939189E+01  0.12901910384E+00  0.47502914787E+01  0.78245116244E+01  0.51100000000E-03 0. -1.
        -11    1    3    3    0    0  0.78185773725E+01 -0.16165620830E+01 -0.10908677968E+02  0.13518235105E+02  0.51100000000E-03 0.  1.
        -12    1    3    3    0    0 -0.18819784708E+02  0.14881532961E+02  0.29415255145E+02  0.37959209093E+02  0.00000000000E+00 0.  1.
</event>
<event>
 7    1  0.6180395E-013  0.5930194E+02  0.7816164E-02  0.1266605E+00
        -11   -1    0    0    0    0  0.00000000000E+00  0.00000000000E+00  0.45593999997E+02  0.45594000000E+02  0.51100000000E-03 0.  1.
         11   -1    0    0    0    0 -0.00000000000E+00 -0.00000000000E+00 -0.45593999997E+02  0.45594000000E+02  0.51100000000E-03 0. -1.
    9900012    2    1    2    0    0  0.21624144285E+02 -0.79265700627E+01 -0.22051909753E+02  0.59301939523E+02  0.49999991784E+02 0.  0.
        -12    1    1    2    0    0 -0.21624144285E+02  0.79265700627E+01  0.22051909753E+02  0.31886060477E+02  0.00000000000E+00 0.  1.
         11    1    3    3    0    0  0.20723547207E+02  0.15479888119E+02 -0.97652357610E+01  0.27648728267E+02  0.51100000000E-03 0.  1.
        -11    1    3    3    0    0  0.29262116330E+01 -0.24873327173E+02 -0.73204506126E+01  0.26092798176E+02  0.51100000000E-03 0. -1.
         12    1    3    3    0    0 -0.20256145556E+01  0.14668689914E+01 -0.49662233799E+01  0.55604130804E+01  0.00000000000E+00 0. -1.
</event>
<event>
 7    1  0.6180395E-013  0.5930193E+02  0.7816164E-02  0.1266605E+00
        -11   -1    0    0    0    0  0.00000000000E+00  0.00000000000E+00  0.45593999997E+02  0.45594000000E+02  0.51100000000E-03 0.  1.
         11   -1    0    0    0    0 -0.00000000000E+00 -0.00000000000E+00 -0.45593999997E+02  0.45594000000E+02  0.51100000000E-03 0. -1.
    9900012    2    1    2    0    0 -0.72184391741E+01  0.28815095243E+02 -0.11589030637E+02  0.59301933935E+02  0.49999981594E+02 0.  0.
        -12    1    1    2    0    0  0.72184391741E+01 -0.28815095243E+02  0.11589030637E+02  0.31886066065E+02  0.00000000000E+00 0.  1.
         11    1    3    3    0    0  0.53699590206E+01 -0.63623371157E+01 -0.18107542596E+02  0.19929849286E+02  0.51100000000E-03 0. -1.
        -11    1    3    3    0    0  0.35262344464E+00  0.67389079862E+00  0.21292766319E+01  0.22610376685E+01  0.51100000000E-03 0.  1.
         12    1    3    3    0    0 -0.12941021639E+02  0.34503541560E+02  0.43892353268E+01  0.37111046981E+02  0.00000000000E+00 0. -1.
</event>
<event>
 7    1  0.6180395E-013  0.5930196E+02  0.7816164E-02  0.1266605E+00
        -11   -1    0    0    0    0  0.00000000000E+00  0.00000000000E+00  0.45593999997E+02  0.45594000000E+02  0.51100000000E-03 0.  1.
         11   -1    0    0    0    0 -0.00000000000E+00 -0.00000000000E+00 -0.45593999997E+02  0.45594000000E+02  0.51100000000E-03 0. -1.
    9900012    2    1    2    0    0  0.67858897719E+01  0.14063008861E+02 -0.27801136600E+02  0.59301957372E+02  0.50000024337E+02 0.  0.
        -12    1    1    2    0    0 -0.67858897719E+01 -0.14063008861E+02  0.27801136600E+02  0.31886042628E+02  0.00000000000E+00 0.  1.
         11    1    3    3    0    0  0.51017633180E+01 -0.12031304422E+02 -0.84853181055E+01  0.15581428004E+02  0.51100000000E-03 0. -1.
        -11    1    3    3    0    0  0.14281936213E+02  0.20654191978E+02 -0.15372758870E+02  0.29443013837E+02  0.51100000000E-03 0.  1.
        -12    1    3    3    0    0 -0.12597809759E+02  0.54401213047E+01 -0.39430596239E+01  0.14277515531E+02  0.00000000000E+00 0.  1.
</event>
<event>
 7    1  0.6180395E-013  0.5930189E+02  0.7816164E-02  0.1266605E+00
        -11   -1    0    0    0    0  0.00000000000E+00  0.00000000000E+00  0.45593999997E+02  0.45594000000E+02  0.51100000000E-03 0.  1.
         11   -1    0    0    0    0 -0.00000000000E+00 -0.00000000000E+00 -0.45593999997E+02  0.45594000000E+02  0.51100000000E-03 0. -1.
    9900012    2    1    2    0    0  0.25968647489E+02  0.15546416516E+02 -0.10033057913E+02  0.59301890642E+02  0.49999902637E+02 0.  0.
        -12    1    1    2    0    0 -0.25968647489E+02 -0.15546416516E+02  0.10033057913E+02  0.31886109358E+02  0.00000000000E+00 0.  1.
         11    1    3    3    0    0  0.13637008636E+01  0.81523242746E+01 -0.14808404403E+02  0.16959036303E+02  0.51100000000E-03 0. -1.
        -11    1    3    3    0    0  0.84287069900E+01 -0.12692083505E+02  0.63468755905E+01  0.16504996675E+02  0.51100000000E-03 0.  1.
        -12    1    3    3    0    0  0.16176239636E+02  0.20086175747E+02 -0.15715291005E+01  0.25837857663E+02  0.00000000000E+00 0.  1.
</event>
<event>
 7    1  0.6180395E-013  0.5930195E+02  0.7816164E-02  0.1266605E+00
        -11   -1    0    0    0    0  0.00000000000E+00  0.00000000000E+00  0.45593999997E+02  0.45594000000E+02  0.51100000000E-03 0.  1.
         11   -1    0    0    0    0 -0.00000000000E+00 -0.00000000000E+00 -0.45593999997E+02  0.45594000000E+02  0.51100000000E-03 0. -1.
    9900012    2    1    2    0    0 -0.24517730645E+02 -0.29399498500E+01 -0.20173195069E+02  0.59301949438E+02  0.50000009867E+02 0.  0.
        -12    1    1    2    0    0  0.24517730645E+02  0.29399498500E+01  0.20173195069E+02  0.31886050562E+02  0.00000000000E+00 0.  1.
         11    1    3    3    0    0 -0.36778027274E+02  0.44981661624E+01 -0.22724256483E+02  0.43465487711E+02  0.51100000000E-03 0. -1.
        -11    1    3    3    0    0  0.84090726995E+01 -0.73619238068E+01  0.37718761032E+01  0.11795654937E+02  0.51100000000E-03 0.  1.
         12    1    3    3    0    0  0.38512239292E+01 -0.76192205605E-01 -0.12208146893E+01  0.40408067896E+01  0.00000000000E+00 0. -1.
</event>
<event>
 7    1  0.6180395E-013  0.5930197E+02  0.7816164E-02  0.1266605E+00
        -11   -1    0    0    0    0  0.00000000000E+00  0.00000000000E+00  0.45593999997E+02  0.45594000000E+02  0.51100000000E-03 0.  1.
         11   -1    0    0    0    0 -0.00000000000E+00 -0.00000000000E+00 -0.45593999997E+02  0.45594000000E+02  0.51100000000E-03 0. -1.
    9900012    2    1    2    0    0  0.65420398507E+01 -0.21198960316E+01 -0.31135620261E+02  0.59301967108E+02  0.50000042092E+02 0.  0.
        -12    1    1    2    0    0 -0.65420398507E+01  0.21198960316E+01  0.31135620261E+02  0.31886032892E+02  0.00000000000E+00 0.  1.
         11    1    3    3    0    0  0.65626757957E+01 -0.10570652155E+02 -0.42003033189E+02  0.43807102140E+02  0.51100000000E-03 0. -1.
        -11    1    3    3    0    0 -0.32543810470E+01  0.42802686741E+01  0.34388431876E+01  0.63825808770E+01  0.51100000000E-03 0.  1.
         12    1    3    3    0    0  0.32337451019E+01  0.41704874498E+01  0.74285697407E+01  0.91122840905E+01  0.00000000000E+00 0. -1.
</event>
<event>
 7    1  0.6180395E-013  0.5930194E+02  0.7816164E-02  0.1266605E+00
        -11   -1    0    0    0    0  0.00000000000E+00  0.00000000000E+00  0.45593999997E+02  0.45594000000E+02  0.51100000000E-03 0.  1.
         11   -1    0    0    0    0 -0.00000000000E+00 -0.00000000000E+00 -0.45593999997E+02  0.45594000000E+02  0.51100000000E-03 0. -1.
    9900012    2    1    2    0    0 -0.20865242623E+01  0.53255280581E+01 -0.31368870011E+02  0.59301939749E+02  0.49999992196E+02 0.  0.
        -12    1    1    2    0    0  0.20865242623E+01 -0.53255280581E+01  0.31368870011E+02  0.31886060251E+02  0.00000000000E+00 0.  1.
         11    1    3    3    0    0 -0.20653065841E+02 -0.90075780922E+01 -0.19544633552E+02  0.29827475465E+02  0.51100000000E-03 0. -1.
        -11    1    3    3    0    0  0.18501317336E+02  0.72280956111E+01 -0.93176879733E+01  0.21939995870E+02  0.51100000000E-03 0.  1.
         12    1    3    3    0    0  0.65224242329E-01  0.71050105393E+01 -0.25065484858E+01  0.75344684137E+01  0.00000000000E+00 0. -1.
</event>
<event>
 7    1  0.6180395E-013  0.5930193E+02  0.7816164E-02  0.1266605E+00
        -11   -1    0    0    0    0  0.00000000000E+00  0.00000000000E+00  0.45593999997E+02  0.45594000000E+02  0.51100000000E-03 0.  1.
         11   -1    0    0    0    0 -0.00000000000E+00 -0.00000000000E+00 -0.45593999997E+02  0.45594000000E+02  0.51100000000E-03 0. -1.
    9900012    2    1    2    0    0 -0.31142839952E+01 -0.30128952598E+02 -0.99633672165E+01  0.59301933517E+02  0.49999980832E+02 0.  0.
        -12    1    1    2    0    0  0.31142839952E+01  0.30128952598E+02  0.99633672165E+01  0.31886066483E+02  0.00000000000E+00 0.  1.
         11    1    3    3    0    0 -0.54640678365E+01 -0.24786340047E+02 -0.20997647026E+02  0.32941157708E+02  0.51100000000E-03 0. -1.
        -11    1    3    3    0    0 -0.39796248121E+01  0.75643031799E+01  0.79187324787E+01  0.11651713203E+02  0.51100000000E-03 0.  1.
        -12    1    3    3    0    0  0.63294086534E+01 -0.12906915730E+02  0.31155473310E+01  0.14709062606E+02  0.00000000000E+00 0.  1.
</event>
<event>
 7    1  0.6180395E-013  0.5930194E+02  0.7816164E-02  0.1266605E+00
        -11   -1    0    0    0    0  0.00000000000E+00  0.00000000000E+00  0.45593999997E+02  0.45594000000E+02  0.51100000000E-03 0.  1.
         11   -1    0    0    0    0 -0.00000000000E+00 -0.00000000000E+00 -0.45593999997E+02  0.45594000000E+02  0.51100000000E-03 0. -1.
    9900012    2    1    2    0    0  0.11681758991E+02  0.29012062577E+02  0.62094555387E+01  0.59301943390E+02  0.49999998836E+02 0.  0.
        -12    1    1    2    0    0 -0.11681758991E+02 -0.29012062577E+02 -0.62094555387E+01  0.31886056610E+02  0.00000000000E+00 0.  1.
         11    1    3    3    0    0  0.12133890459E+02  0.10699267760E+02 -0.69324763182E+01  0.17600137966E+02  0.51100000000E-03 0. -1.
        -11    1    3    3    0    0  0.86827810931E+01  0.52615616694E+01  0.21452683579E+02  0.23733780814E+02  0.51100000000E-03 0.  1.
         12    1    3    3    0    0 -0.91349125611E+01  0.13051233147E+02 -0.83107517226E+01  0.17968024609E+02  0.00000000000E+00 0. -1.
</event>
<event>
 7    1  0.6180395E-013  0.5930181E+02  0.7816164E-02  0.1266605E+00
        -11   -1    0    0    0    0  0.00000000000E+00  0.00000000000E+00  0.45593999997E+02  0.45594000000E+02  0.51100000000E-03 0. -1.
         11   -1    0    0    0    0 -0.00000000000E+00 -0.00000000000E+00 -0.45593999997E+02  0.45594000000E+02  0.51100000000E-03 0.  1.
    9900012    2    1    2    0    0  0.23243760851E+02  0.20809983401E+02  0.65879649969E+01  0.59301810036E+02  0.49999755631E+02 0.  0.
        -12    1    1    2    0    0 -0.23243760851E+02 -0.20809983401E+02 -0.65879649969E+01  0.31886189964E+02  0.00000000000E+00 0.  1.
         11    1    3    3    0    0  0.56496363398E+01  0.81980168203E+01  0.19091148599E+02  0.21531321967E+02  0.51100000000E-03 0. -1.
        -11    1    3    3    0    0  0.16418780043E+02  0.20927986915E+02 -0.12455475237E+02  0.29371684291E+02  0.51100000000E-03 0.  1.
        -12    1    3    3    0    0  0.11753444677E+01 -0.83160203346E+01 -0.47708364550E-01  0.83988037785E+01  0.00000000000E+00 0.  1.
</event>
<event>
 7    1  0.6180395E-013  0.5930196E+02  0.7816164E-02  0.1266605E+00
        -11   -1    0    0    0    0  0.00000000000E+00  0.00000000000E+00  0.45593999997E+02  0.45594000000E+02  0.51100000000E-03 0.  1.
         11   -1    0    0    0    0 -0.00000000000E+00 -0.00000000000E+00 -0.45593999997E+02  0.45594000000E+02  0.51100000000E-03 0. -1.
    9900012    2    1    2    0    0 -0.10748924014E-02 -0.15469034017E+02 -0.27882410245E+02  0.59301955785E+02  0.50000021443E+02 0.  0.
        -12    1    1    2    0    0  0.10748924014E-02  0.15469034017E+02  0.27882410245E+02  0.31886044215E+02  0.00000000000E+00 0.  1.
         11    1    3    3    0    0 -0.91864704287E+01 -0.16182476101E+02 -0.23793101549E+02  0.30205553352E+02  0.51100000000E-03 0. -1.
        -11    1    3    3    0    0  0.18649464027E+02  0.20617608754E+01 -0.52055989254E+01  0.19471816218E+02  0.51100000000E-03 0.  1.
        -12    1    3    3    0    0 -0.94640684903E+01 -0.13483187914E+01  0.11162902291E+01  0.96245862159E+01  0.00000000000E+00 0.  1.
</event>
<event>
 7    1  0.6180395E-013  0.5930193E+02  0.7816164E-02  0.1266605E+00
        -11   -1    0    0    0    0  0.00000000000E+00  0.00000000000E+00  0.45593999997E+02  0.45594000000E+02  0.51100000000E-03 0.  1.
         11   -1    0    0    0    0 -0.00000000000E+00 -0.00000000000E+00 -0.45593999997E+02  0.45594000000E+02  0.51100000000E-03 0. -1.
    9900012    2    1    2    0    0 -0.18675583613E+02 -0.85951068560E+01 -0.24373515374E+02  0.59301928796E+02  0.49999972221E+02 0.  0.
        -12    1    1    2    0    0  0.18675583613E+02  0.85951068560E+01  0.24373515374E+02  0.31886071204E+02  0.00000000000E+00 0.  1.
         11    1    3    3    0    0 -0.16916137353E+02  0.12727935165E+02 -0.30579345183E+01  0.21389413276E+02  0.51100000000E-03 0. -1.
        -11    1    3    3    0    0 -0.91324407614E+01 -0.22050236579E+02 -0.17372524607E+02  0.29519807231E+02  0.51100000000E-03 0.  1.
        -12    1    3    3    0    0  0.73729945016E+01  0.72719455758E+00 -0.39430562483E+01  0.83927082888E+01  0.00000000000E+00 0.  1.
</event>
<event>
 7    1  0.6180395E-013  0.5930175E+02  0.7816164E-02  0.1266605E+00
        -11   -1    0    0    0    0  0.00000000000E+00  0.00000000000E+00  0.45593999997E+02  0.45594000000E+02  0.51100000000E-03 0.  1.
         11   -1    0    0    0    0 -0.00000000000E+00 -0.00000000000E+00 -0.45593999997E+02  0.45594000000E+02  0.51100000000E-03 0. -1.
    9900012    2    1    2    0    0  0.27754642395E+02  0.15398553913E+02 -0.30491486390E+01  0.59301749914E+02  0.49999645982E+02 0.  0.
        -12    1    1    2    0    0 -0.27754642395E+02 -0.15398553913E+02  0.30491486390E+01  0.31886250086E+02  0.00000000000E+00 0.  1.
         11    1    3    3    0    0  0.13251189219E+02 -0.13770359554E+02 -0.69719351128E+01  0.20342681668E+02  0.51100000000E-03 0. -1.
        -11    1    3    3    0    0  0.12308599711E+02  0.29861296238E+02 -0.22443699662E+01  0.32376470417E+02  0.51100000000E-03 0.  1.
        -12    1    3    3    0    0  0.21948534650E+01 -0.69238277066E+00  0.61671564400E+01  0.65825978298E+01  0.00000000000E+00 0.  1.
</event>
<event>
 7    1  0.6180395E-013  0.5930196E+02  0.7816164E-02  0.1266605E+00
        -11   -1    0    0    0    0  0.00000000000E+00  0.00000000000E+00  0.45593999997E+02  0.45594000000E+02  0.51100000000E-03 0.  1.
         11   -1    0    0    0    0 -0.00000000000E+00 -0.00000000000E+00 -0.45593999997E+02  0.45594000000E+02  0.51100000000E-03 0. -1.
    9900012    2    1    2    0    0  0.28727366035E+01 -0.13622373186E+02 -0.28686201042E+02  0.59301956077E+02  0.50000021975E+02 0.  0.
        -12    1    1    2    0    0 -0.28727366035E+01  0.13622373186E+02  0.28686201042E+02  0.31886043923E+02  0.00000000000E+00 0.  1.
         11    1    3    3    0    0  0.25510842983E+01 -0.44546168271E+01 -0.33275107090E+02  0.33668745066E+02  0.51100000000E-03 0. -1.
        -11    1    3    3    0    0 -0.43996889089E+01  0.69457325370E+01 -0.17154798844E-01  0.82219679833E+01  0.51100000000E-03 0.  1.
        -12    1    3    3    0    0  0.47213412140E+01 -0.16113488896E+02  0.46060608467E+01  0.17411243028E+02  0.00000000000E+00 0.  1.
</event>
<event>
 7    1  0.6180395E-013  0.5930198E+02  0.7816164E-02  0.1266605E+00
        -11   -1    0    0    0    0  0.00000000000E+00  0.00000000000E+00  0.45593999997E+02  0.45594000000E+02  0.51100000000E-03 0.  1.
         11   -1    0    0    0    0 -0.00000000000E+00 -0.00000000000E+00 -0.45593999997E+02  0.45594000000E+02  0.51100000000E-03 0. -1.
    9900012    2    1    2    0    0  0.20654341062E+02 -0.13026190510E+02 -0.20504507171E+02  0.59301980208E+02  0.50000065983E+02 0.  0.
        -12    1    1    2    0    0 -0.20654341062E+02  0.13026190510E+02  0.20504507171E+02  0.31886019792E+02  0.00000000000E+00 0.  1.
         11    1    3    3    0    0  0.64991813121E+01  0.19398586789E-01 -0.12882383278E+02  0.14428982404E+02  0.51100000000E-03 0. -1.
        -11    1    3    3    0    0  0.12216636458E+02 -0.26959716297E+02 -0.85065955600E+01  0.30796666661E+02  0.51100000000E-03 0.  1.
        -12    1    3    3    0    0  0.19385232911E+01  0.13914127200E+02  0.88447166734E+00  0.14076331142E+02  0.00000000000E+00 0.  1.
</event>
<event>
 7    1  0.6180395E-013  0.5930193E+02  0.7816164E-02  0.1266605E+00
        -11   -1    0    0    0    0  0.00000000000E+00  0.00000000000E+00  0.45593999997E+02  0.45594000000E+02  0.51100000000E-03 0. -1.
         11   -1    0    0    0    0 -0.00000000000E+00 -0.00000000000E+00 -0.45593999997E+02  0.45594000000E+02  0.51100000000E-03 0.  1.
    9900012    2    1    2    0    0  0.39803618401E+01 -0.29947403761E+02  0.10199552907E+02  0.59301934831E+02  0.49999983228E+02 0.  0.
        -12    1    1    2    0    0 -0.39803618401E+01  0.29947403761E+02 -0.10199552907E+02  0.31886065169E+02  0.00000000000E+00 0.  1.
         11    1    3    3    0    0  0.25072490972E+02 -0.18112985804E+02  0.29920212359E+01  0.31075106591E+02  0.51100000000E-03 0. -1.
        -11    1    3    3    0    0 -0.12436712403E+01 -0.41715064227E+01 -0.22995852352E+01  0.49230352938E+01  0.51100000000E-03 0.  1.
         12    1    3    3    0    0 -0.19848457891E+02 -0.76629115342E+01  0.95071169067E+01  0.23303792947E+02  0.00000000000E+00 0. -1.
</event>
<event>
 7    1  0.6180395E-013  0.5930194E+02  0.7816164E-02  0.1266605E+00
        -11   -1    0    0    0    0  0.00000000000E+00  0.00000000000E+00  0.45593999997E+02  0.45594000000E+02  0.51100000000E-03 0.  1.
         11   -1    0    0    0    0 -0.00000000000E+00 -0.00000000000E+00 -0.45593999997E+02  0.45594000000E+02  0.51100000000E-03 0. -1.
    9900012    2    1    2    0    0 -0.30767702968E+02 -0.17810414717E+01  0.81790785827E+01  0.59301937510E+02  0.49999988114E+02 0.  0.
        -12    1    1    2    0    0  0.30767702968E+02  0.17810414717E+01 -0.81790785827E+01  0.31886062490E+02  0.00000000000E+00 0.  1.
         11    1    3    3    0    0  0.26996487676E+00  0.38309465760E+01 -0.16537818825E+02  0.16977882214E+02  0.51100000000E-03 0. -1.
        -11    1    3    3    0    0 -0.31593278773E+02 -0.41565897899E+01  0.25271792745E+02  0.40670333304E+02  0.51100000000E-03 0.  1.
        -12    1    3    3    0    0  0.55561092829E+00 -0.14553982579E+01 -0.55489533677E+00  0.16537219922E+01  0.00000000000E+00 0.  1.
</event>
<event>
 7    1  0.6180395E-013  0.5930195E+02  0.7816164E-02  0.1266605E+00
        -11   -1    0    0    0    0  0.00000000000E+00  0.00000000000E+00  0.45593999997E+02  0.45594000000E+02  0.51100000000E-03 0. -1.
         11   -1    0    0    0    0 -0.00000000000E+00 -0.00000000000E+00 -0.45593999997E+02  0.45594000000E+02  0.51100000000E-03 0.  1.
    9900012    2    1    2    0    0  0.27039746063E+02 -0.89385754064E+01  0.14341345910E+02  0.59301949759E+02  0.50000010453E+02 0.  0.
        -12    1    1    2    0    0 -0.27039746063E+02  0.89385754064E+01 -0.14341345910E+02  0.31886050241E+02  0.00000000000E+00 0.  1.
         11    1    3    3    0    0  0.25682330792E+02 -0.12211747328E+02  0.14171897540E+02  0.31773441234E+02  0.51100000000E-03 0. -1.
        -11    1    3    3    0    0  0.65874800881E+01  0.13247580643E+02 -0.43067819024E+01  0.15409142008E+02  0.51100000000E-03 0.  1.
         12    1    3    3    0    0 -0.52300648174E+01 -0.99744087210E+01  0.44762302726E+01  0.12119366517E+02  0.00000000000E+00 0. -1.
</event>
<event>
 7    1  0.6180395E-013  0.5930192E+02  0.7816164E-02  0.1266605E+00
        -11   -1    0    0    0    0  0.00000000000E+00  0.00000000000E+00  0.45593999997E+02  0.45594000000E+02  0.51100000000E-03 0. -1.
         11   -1    0    0    0    0 -0.00000000000E+00 -0.00000000000E+00 -0.45593999997E+02  0.45594000000E+02  0.51100000000E-03 0.  1.
    9900012    2    1    2    0    0  0.26588293376E+02 -0.96106223541E+01  0.14745192663E+02  0.59301919756E+02  0.49999955735E+02 0.  0.
        -12    1    1    2    0    0 -0.26588293376E+02  0.96106223541E+01 -0.14745192663E+02  0.31886080244E+02  0.00000000000E+00 0.  1.
         11    1    3    3    0    0  0.28281480786E+02 -0.16796864810E+02 -0.91168874379E+01  0.34133480041E+02  0.51100000000E-03 0. -1.
        -11    1    3    3    0    0 -0.76655728871E+00  0.41286899796E+01  0.18091619659E+02  0.18572570990E+02  0.51100000000E-03 0.  1.
         12    1    3    3    0    0 -0.92663012203E+00  0.30575524766E+01  0.57704604415E+01  0.65958687250E+01  0.00000000000E+00 0. -1.
</event>
<event>
 7    1  0.6180395E-013  0.5930197E+02  0.7816164E-02  0.1266605E+00
        -11   -1    0    0    0    0  0.00000000000E+00  0.00000000000E+00  0.45593999997E+02  0.45594000000E+02  0.51100000000E-03 0.  1.
         11   -1    0    0    0    0 -0.00000000000E+00 -0.00000000000E+00 -0.45593999997E+02  0.45594000000E+02  0.51100000000E-03 0. -1.
    9900012    2    1    2    0    0 -0.79940927536E+01  0.24028501451E+02 -0.19376392908E+02  0.59301968528E+02  0.50000044682E+02 0.  0.
        -12    1    1    2    0    0  0.79940927536E+01 -0.24028501451E+02  0.19376392908E+02  0.31886031472E+02  0.00000000000E+00 0.  1.
         11    1    3    3    0    0 -0.69019869251E+01 -0.86490441275E+01 -0.39290109761E+01  0.11742253419E+02  0.51100000000E-03 0.  1.
        -11    1    3    3    0    0  0.72917534861E+01  0.33997469087E+02 -0.67733538014E+01  0.35424227518E+02  0.51100000000E-03 0. -1.
        -12    1    3    3    0    0 -0.83838593146E+01 -0.13199235086E+01 -0.86740281302E+01  0.12135487591E+02  0.00000000000E+00 0.  1.
</event>
<event>
 7    1  0.6180395E-013  0.5930193E+02  0.7816164E-02  0.1266605E+00
        -11   -1    0    0    0    0  0.00000000000E+00  0.00000000000E+00  0.45593999997E+02  0.45594000000E+02  0.51100000000E-03 0.  1.
         11   -1    0    0    0    0 -0.00000000000E+00 -0.00000000000E+00 -0.45593999997E+02  0.45594000000E+02  0.51100000000E-03 0. -1.
    9900012    2    1    2    0    0  0.27397555664E+02  0.11701926342E+02 -0.11364881615E+02  0.59301926698E+02  0.49999968395E+02 0.  0.
        -12    1    1    2    0    0 -0.27397555664E+02 -0.11701926342E+02  0.11364881615E+02  0.31886073302E+02  0.00000000000E+00 0.  1.
         11    1    3    3    0    0  0.62735552722E+01  0.44297042830E+01 -0.84932596991E+01  0.11450556160E+02  0.51100000000E-03 0. -1.
        -11    1    3    3    0    0 -0.22689251830E+01  0.43109868605E+01  0.16581958019E+02  0.17282764860E+02  0.51100000000E-03 0.  1.
        -12    1    3    3    0    0  0.23392925575E+02  0.29612351982E+01 -0.19453579935E+02  0.30568605679E+02  0.00000000000E+00 0.  1.
</event>
<event>
 7    1  0.6180395E-013  0.5930194E+02  0.7816164E-02  0.1266605E+00
        -11   -1    0    0    0    0  0.00000000000E+00  0.00000000000E+00  0.45593999997E+02  0.45594000000E+02  0.51100000000E-03 0. -1.
         11   -1    0    0    0    0 -0.00000000000E+00 -0.00000000000E+00 -0.45593999997E+02  0.45594000000E+02  0.51100000000E-03 0.  1.
    9900012    2    1    2    0    0  0.15782796092E+02  0.19556593471E+02  0.19625598709E+02  0.59301935248E+02  0.49999983989E+02 0.  0.
        -12    1    1    2    0    0 -0.15782796092E+02 -0.19556593471E+02 -0.19625598709E+02  0.31886064752E+02  0.00000000000E+00 0.  1.
         11    1    3    3    0    0 -0.85907783070E+01  0.22516538134E+02  0.22447952131E+02  0.32934882976E+02  0.51100000000E-03 0. -1.
        -11    1    3    3    0    0  0.10955859833E+02 -0.59516360875E+01 -0.14052089162E+01  0.12547009570E+02  0.51100000000E-03 0.  1.
        -12    1    3    3    0    0  0.13417714566E+02  0.29916914239E+01 -0.14171445059E+01  0.13820042703E+02  0.00000000000E+00 0.  1.
</event>
<event>
 7    1  0.6180395E-013  0.5930195E+02  0.7816164E-02  0.1266605E+00
        -11   -1    0    0    0    0  0.00000000000E+00  0.00000000000E+00  0.45593999997E+02  0.45594000000E+02  0.51100000000E-03 0.  1.
         11   -1    0    0    0    0 -0.00000000000E+00 -0.00000000000E+00 -0.45593999997E+02  0.45594000000E+02  0.51100000000E-03 0. -1.
    9900012    2    1    2    0    0 -0.99995608931E+01  0.22718039364E+02 -0.20015487628E+02  0.59301948573E+02  0.50000008289E+02 0.  0.
        -12    1    1    2    0    0  0.99995608931E+01 -0.22718039364E+02  0.20015487628E+02  0.31886051427E+02  0.00000000000E+00 0.  1.
         11    1    3    3    0    0  0.24243815095E+01  0.27929461480E+02 -0.16676095393E+02  0.32619389971E+02  0.51100000000E-03 0. -1.
        -11    1    3    3    0    0  0.52593914313E+01 -0.14919158325E+01 -0.63327322849E+01  0.83660330822E+01  0.51100000000E-03 0.  1.
         12    1    3    3    0    0 -0.17683333834E+02 -0.37195062830E+01  0.29933400494E+01  0.18316525520E+02  0.00000000000E+00 0. -1.
</event>
<event>
 7    1  0.6180395E-013  0.5930193E+02  0.7816164E-02  0.1266605E+00
        -11   -1    0    0    0    0  0.00000000000E+00  0.00000000000E+00  0.45593999997E+02  0.45594000000E+02  0.51100000000E-03 0. -1.
         11   -1    0    0    0    0 -0.00000000000E+00 -0.00000000000E+00 -0.45593999997E+02  0.45594000000E+02  0.51100000000E-03 0.  1.
    9900012    2    1    2    0    0  0.11515722895E+02 -0.12544303556E+02  0.26958298765E+02  0.59301932544E+02  0.49999979056E+02 0.  0.
        -12    1    1    2    0    0 -0.11515722895E+02  0.12544303556E+02 -0.26958298765E+02  0.31886067456E+02  0.00000000000E+00 0.  1.
         11    1    3    3    0    0  0.17704137815E+01 -0.23226318222E+02  0.32654856028E+02  0.40111542548E+02  0.51100000000E-03 0. -1.
        -11    1    3    3    0    0  0.53828219970E+01 -0.12250153525E+01 -0.71747854882E+00  0.55668852148E+01  0.51100000000E-03 0.  1.
         12    1    3    3    0    0  0.43624871165E+01  0.11907030018E+02 -0.49790787141E+01  0.13623504781E+02  0.00000000000E+00 0. -1.
</event>
<event>
 7    1  0.6180395E-013  0.5930195E+02  0.7816164E-02  0.1266605E+00
        -11   -1    0    0    0    0  0.00000000000E+00  0.00000000000E+00  0.45593999997E+02  0.45594000000E+02  0.51100000000E-03 0.  1.
         11   -1    0    0    0    0 -0.00000000000E+00 -0.00000000000E+00 -0.45593999997E+02  0.45594000000E+02  0.51100000000E-03 0. -1.
    9900012    2    1    2    0    0  0.19681041271E+02  0.18834234170E+01 -0.25016579607E+02  0.59301954079E+02  0.50000018330E+02 0.  0.
        -12    1    1    2    0    0 -0.19681041271E+02 -0.18834234170E+01  0.25016579607E+02  0.31886045921E+02  0.00000000000E+00 0.  1.
         11    1    3    3    0    0  0.72079964953E+01 -0.49193205617E+01 -0.10174225532E+02  0.13404096154E+02  0.51100000000E-03 0. -1.
        -11    1    3    3    0    0  0.21972787343E+02  0.16809701683E+02 -0.32102031410E+01  0.27850939997E+02  0.51100000000E-03 0.  1.
        -12    1    3    3    0    0 -0.94997425669E+01 -0.10006957704E+02 -0.11632150934E+02  0.18046917927E+02  0.00000000000E+00 0.  1.
</event>
<event>
 7    1  0.6180395E-013  0.5930195E+02  0.7816164E-02  0.1266605E+00
        -11   -1    0    0    0    0  0.00000000000E+00  0.00000000000E+00  0.45593999997E+02  0.45594000000E+02  0.51100000000E-03 0.  1.
         11   -1    0    0    0    0 -0.00000000000E+00 -0.00000000000E+00 -0.45593999997E+02  0.45594000000E+02  0.51100000000E-03 0. -1.
    9900012    2    1    2    0    0 -0.28424070951E+02 -0.14382947772E+02 -0.13867985601E+01  0.59301949660E+02  0.50000010272E+02 0.  0.
        -12    1    1    2    0    0  0.28424070951E+02  0.14382947772E+02  0.13867985601E+01  0.31886050340E+02  0.00000000000E+00 0.  1.
         11    1    3    3    0    0 -0.37833011955E+02 -0.21644192073E+02 -0.35692952001E+01  0.43732684717E+02  0.51100000000E-03 0. -1.
        -11    1    3    3    0    0  0.69820448888E+01  0.19872903054E+01 -0.29349674157E+01  0.78302175947E+01  0.51100000000E-03 0.  1.
         12    1    3    3    0    0  0.24268961156E+01  0.52739539953E+01  0.51174640557E+01  0.77390473485E+01  0.00000000000E+00 0. -1.
</event>
<event>
 7    1  0.6180395E-013  0.5930197E+02  0.7816164E-02  0.1266605E+00
        -11   -1    0    0    0    0  0.00000000000E+00  0.00000000000E+00  0.45593999997E+02  0.45594000000E+02  0.51100000000E-03 0.  1.
         11   -1    0    0    0    0 -0.00000000000E+00 -0.00000000000E+00 -0.45593999997E+02  0.45594000000E+02  0.51100000000E-03 0. -1.
    9900012    2    1    2    0    0  0.62856684416E+01  0.19856237167E+02 -0.24144126534E+02  0.59301974404E+02  0.50000055400E+02 0.  0.
        -12    1    1    2    0    0 -0.62856684416E+01 -0.19856237167E+02  0.24144126534E+02  0.31886025596E+02  0.00000000000E+00 0.  1.
         11    1    3    3    0    0  0.77781787287E+01  0.17599117318E+02 -0.16811255852E+02  0.25550877055E+02  0.51100000000E-03 0. -1.
        -11    1    3    3    0    0 -0.15762787050E+02  0.85806646509E+00  0.30110782918E+01  0.16070728869E+02  0.51100000000E-03 0.  1.
        -12    1    3    3    0    0  0.14270276762E+02  0.13990533843E+01 -0.10343948973E+02  0.17680368481E+02  0.00000000000E+00 0.  1.
</event>
<event>
 7    1  0.6180395E-013  0.5930194E+02  0.7816164E-02  0.1266605E+00
        -11   -1    0    0    0    0  0.00000000000E+00  0.00000000000E+00  0.45593999997E+02  0.45594000000E+02  0.51100000000E-03 0. -1.
         11   -1    0    0    0    0 -0.00000000000E+00 -0.00000000000E+00 -0.45593999997E+02  0.45594000000E+02  0.51100000000E-03 0.  1.
    9900012    2    1    2    0    0  0.28948534584E+02  0.41811255578E+01 -0.12697300989E+02  0.59301938501E+02  0.49999989921E+02 0.  0.
        -12    1    1    2    0    0 -0.28948534584E+02 -0.41811255578E+01  0.12697300989E+02  0.31886061499E+02  0.00000000000E+00 0.  1.
         11    1    3    3    0    0  0.37758657718E+02  0.16549468747E+01 -0.82036457976E+01  0.38674990452E+02  0.51100000000E-03 0. -1.
        -11    1    3    3    0    0 -0.27829494630E+01 -0.30017382671E+01 -0.99746301571E+01  0.10781859180E+02  0.51100000000E-03 0.  1.
         12    1    3    3    0    0 -0.60271736709E+01  0.55279169503E+01  0.54809749659E+01  0.98450888694E+01  0.00000000000E+00 0. -1.
</event>
<event>
 7    1  0.6180395E-013  0.5930194E+02  0.7816164E-02  0.1266605E+00
        -11   -1    0    0    0    0  0.00000000000E+00  0.00000000000E+00  0.45593999997E+02  0.45594000000E+02  0.51100000000E-03 0.  1.
         11   -1    0    0    0    0 -0.00000000000E+00 -0.00000000000E+00 -0.45593999997E+02  0.45594000000E+02  0.51100000000E-03 0. -1.
    9900012    2    1    2    0    0 -0.23806322941E+02 -0.10597180748E+02 -0.18376058418E+02  0.59301940745E+02  0.49999994014E+02 0.  0.
        -12    1    1    2    0    0  0.23806322941E+02  0.10597180748E+02  0.18376058418E+02  0.31886059255E+02  0.00000000000E+00 0.  1.
         11    1    3    3    0    0 -0.19736443003E+02  0.87048578295E+01 -0.19416034733E+02  0.29022131852E+02  0.51100000000E-03 0. -1.
        -11    1    3    3    0    0 -0.10855943832E+02 -0.43198504711E+01  0.59547633539E+01  0.13113803089E+02  0.51100000000E-03 0.  1.
         12    1    3    3    0    0  0.67860638942E+01 -0.14982188106E+02 -0.49147870391E+01  0.17166005804E+02  0.00000000000E+00 0. -1.
</event>
<event>
 7    1  0.6180395E-013  0.5930195E+02  0.7816164E-02  0.1266605E+00
        -11   -1    0    0    0    0  0.00000000000E+00  0.00000000000E+00  0.45593999997E+02  0.45594000000E+02  0.51100000000E-03 0. -1.
         11   -1    0    0    0    0 -0.00000000000E+00 -0.00000000000E+00 -0.45593999997E+02  0.45594000000E+02  0.51100000000E-03 0.  1.
    9900012    2    1    2    0    0 -0.12034161393E+02  0.29515779645E+02  0.84737954930E+00  0.59301947554E+02  0.50000006431E+02 0.  0.
        -12    1    1    2    0    0  0.12034161393E+02 -0.29515779645E+02 -0.84737954930E+00  0.31886052446E+02  0.00000000000E+00 0.  1.
         11    1    3    3    0    0 -0.15616082311E+02  0.29776171092E+02 -0.18101251696E+01  0.33671337143E+02  0.51100000000E-03 0. -1.
        -11    1    3    3    0    0  0.97225695510E+01  0.35137924542E+01  0.10667563363E+02  0.14855032967E+02  0.51100000000E-03 0.  1.
        -12    1    3    3    0    0 -0.61406486330E+01 -0.37741839009E+01 -0.80100586445E+01  0.10775577443E+02  0.00000000000E+00 0.  1.
</event>
<event>
 7    1  0.6180395E-013  0.5930194E+02  0.7816164E-02  0.1266605E+00
        -11   -1    0    0    0    0  0.00000000000E+00  0.00000000000E+00  0.45593999997E+02  0.45594000000E+02  0.51100000000E-03 0.  1.
         11   -1    0    0    0    0 -0.00000000000E+00 -0.00000000000E+00 -0.45593999997E+02  0.45594000000E+02  0.51100000000E-03 0. -1.
    9900012    2    1    2    0    0  0.10369986524E+02 -0.78194523925E+01 -0.29121137174E+02  0.59301935857E+02  0.49999985098E+02 0.  0.
        -12    1    1    2    0    0 -0.10369986524E+02  0.78194523925E+01  0.29121137174E+02  0.31886064143E+02  0.00000000000E+00 0.  1.
         11    1    3    3    0    0  0.38630158020E+01  0.18583920461E+01 -0.41312528493E+02  0.41534341488E+02  0.51100000000E-03 0. -1.
        -11    1    3    3    0    0  0.48282340709E+01 -0.10099092917E+02  0.10512119909E+02  0.15356047253E+02  0.51100000000E-03 0.  1.
         12    1    3    3    0    0  0.16787366511E+01  0.42124847876E+00  0.16792714101E+01  0.24115471162E+01  0.00000000000E+00 0. -1.
</event>
<event>
 7    1  0.6180395E-013  0.5930172E+02  0.7816164E-02  0.1266606E+00
        -11   -1    0    0    0    0  0.00000000000E+00  0.00000000000E+00  0.45593999997E+02  0.45594000000E+02  0.51100000000E-03 0. -1.
         11   -1    0    0    0    0 -0.00000000000E+00 -0.00000000000E+00 -0.45593999997E+02  0.45594000000E+02  0.51100000000E-03 0.  1.
    9900012    2    1    2    0    0  0.26349567662E+02 -0.17902749629E+02 -0.13879779512E+01  0.59301723280E+02  0.49999597408E+02 0.  0.
        -12    1    1    2    0    0 -0.26349567662E+02  0.17902749629E+02  0.13879779512E+01  0.31886276720E+02  0.00000000000E+00 0.  1.
         11    1    3    3    0    0  0.49216254174E+01 -0.64140701616E+01 -0.63017776177E+00  0.81092426933E+01  0.51100000000E-03 0. -1.
        -11    1    3    3    0    0  0.23486452195E+02  0.10250810522E+02  0.91534687362E+01  0.27211735396E+02  0.51100000000E-03 0.  1.
        -12    1    3    3    0    0 -0.20585099501E+01 -0.21739489989E+02 -0.99112689256E+01  0.23980745191E+02  0.00000000000E+00 0.  1.
</event>
<event>
 7    1  0.6180395E-013  0.5930202E+02  0.7816164E-02  0.1266604E+00
        -11   -1    0    0    0    0  0.00000000000E+00  0.00000000000E+00  0.45593999997E+02  0.45594000000E+02  0.51100000000E-03 0.  1.
         11   -1    0    0    0    0 -0.00000000000E+00 -0.00000000000E+00 -0.45593999997E+02  0.45594000000E+02  0.51100000000E-03 0. -1.
    9900012    2    1    2    0    0  0.64265736921E+01 -0.11411812270E+02 -0.29072070896E+02  0.59302021657E+02  0.50000141577E+02 0.  0.
        -12    1    1    2    0    0 -0.64265736921E+01  0.11411812270E+02  0.29072070896E+02  0.31885978343E+02  0.00000000000E+00 0.  1.
         11    1    3    3    0    0 -0.94873083356E+01 -0.66406249187E+01 -0.17411981040E+02  0.20911336704E+02  0.51100000000E-03 0. -1.
        -11    1    3    3    0    0 -0.17679252059E+01  0.52277978625E+01  0.82640235313E+01  0.99372790648E+01  0.51100000000E-03 0.  1.
        -12    1    3    3    0    0  0.17681807234E+02 -0.99989852136E+01 -0.19924113388E+02  0.28453405888E+02  0.00000000000E+00 0.  1.
</event>
<event>
 7    1  0.6180395E-013  0.5930194E+02  0.7816164E-02  0.1266605E+00
        -11   -1    0    0    0    0  0.00000000000E+00  0.00000000000E+00  0.45593999997E+02  0.45594000000E+02  0.51100000000E-03 0.  1.
         11   -1    0    0    0    0 -0.00000000000E+00 -0.00000000000E+00 -0.45593999997E+02  0.45594000000E+02  0.51100000000E-03 0. -1.
    9900012    2    1    2    0    0 -0.12818200813E+02 -0.14789243471E+02 -0.25173259114E+02  0.59301937701E+02  0.49999988461E+02 0.  0.
        -12    1    1    2    0    0  0.12818200813E+02  0.14789243471E+02  0.25173259114E+02  0.31886062299E+02  0.00000000000E+00 0.  1.
         11    1    3    3    0    0 -0.19413976554E+02 -0.75679270802E+01 -0.12688347038E+02  0.24396109459E+02  0.51100000000E-03 0. -1.
        -11    1    3    3    0    0  0.88546196438E+01 -0.78235836796E+01  0.80120041795E+01  0.14276027524E+02  0.51100000000E-03 0.  1.
        -12    1    3    3    0    0 -0.22588439034E+01  0.60226728916E+00 -0.20496916256E+02  0.20629800718E+02  0.00000000000E+00 0.  1.
</event>
<event>
 7    1  0.6180395E-013  0.5930197E+02  0.7816164E-02  0.1266605E+00
        -11   -1    0    0    0    0  0.00000000000E+00  0.00000000000E+00  0.45593999997E+02  0.45594000000E+02  0.51100000000E-03 0.  1.
         11   -1    0    0    0    0 -0.00000000000E+00 -0.00000000000E+00 -0.45593999997E+02  0.45594000000E+02  0.51100000000E-03 0. -1.
    9900012    2    1    2    0    0  0.16501157288E+02 -0.13503372121E+02 -0.23708429527E+02  0.59301970440E+02  0.50000048170E+02 0.  0.
        -12    1    1    2    0    0 -0.16501157288E+02  0.13503372121E+02  0.23708429527E+02  0.31886029560E+02  0.00000000000E+00 0.  1.
         11    1    3    3    0    0  0.19149508828E+02 -0.14293014631E+02 -0.26207216387E+02  0.35465647415E+02  0.51100000000E-03 0. -1.
        -11    1    3    3    0    0 -0.41308596580E+01  0.10593833894E+02 -0.39165169379E+01  0.12026322101E+02  0.51100000000E-03 0.  1.
        -12    1    3    3    0    0  0.14825081176E+01 -0.98041913839E+01  0.64153037979E+01  0.11810000924E+02  0.00000000000E+00 0.  1.
</event>
<event>
 7    1  0.6180395E-013  0.5930195E+02  0.7816164E-02  0.1266605E+00
        -11   -1    0    0    0    0  0.00000000000E+00  0.00000000000E+00  0.45593999997E+02  0.45594000000E+02  0.51100000000E-03 0.  1.
         11   -1    0    0    0    0 -0.00000000000E+00 -0.00000000000E+00 -0.45593999997E+02  0.45594000000E+02  0.51100000000E-03 0. -1.
    9900012    2    1    2    0    0 -0.20728898598E+02  0.97655432597E+01 -0.22173571645E+02  0.59301947379E+02  0.50000006111E+02 0.  0.
        -12    1    1    2    0    0  0.20728898598E+02 -0.97655432597E+01  0.22173571645E+02  0.31886052621E+02  0.00000000000E+00 0.  1.
         11    1    3    3    0    0 -0.27828188539E+02  0.18450367977E+02 -0.11961812299E+02  0.35467014388E+02  0.51100000000E-03 0. -1.
        -11    1    3    3    0    0 -0.77188566286E+00 -0.81757052720E+01  0.27513568257E+01  0.86607117961E+01  0.51100000000E-03 0.  1.
         12    1    3    3    0    0  0.78711756034E+01 -0.50911944518E+00 -0.12963116172E+02  0.15174221195E+02  0.00000000000E+00 0. -1.
</event>
<event>
 7    1  0.6180395E-013  0.5930194E+02  0.7816164E-02  0.1266605E+00
        -11   -1    0    0    0    0  0.00000000000E+00  0.00000000000E+00  0.45593999997E+02  0.45594000000E+02  0.51100000000E-03 0.  1.
         11   -1    0    0    0    0 -0.00000000000E+00 -0.00000000000E+00 -0.45593999997E+02  0.45594000000E+02  0.51100000000E-03 0. -1.
    9900012    2    1    2    0    0  0.22235181605E+00  0.26835509059E+02 -0.17219948790E+02  0.59301943124E+02  0.49999998352E+02 0.  0.
        -12    1    1    2    0    0 -0.22235181605E+00 -0.26835509059E+02  0.17219948790E+02  0.31886056876E+02  0.00000000000E+00 0.  1.
         11    1    3    3    0    0  0.63735538111E+01 -0.32321027999E+01  0.13003950828E+02  0.14838174217E+02  0.51100000000E-03 0. -1.
        -11    1    3    3    0    0 -0.87147064441E+01  0.16915344522E+02 -0.20028115465E+02  0.27626081844E+02  0.51100000000E-03 0.  1.
        -12    1    3    3    0    0  0.25635044491E+01  0.13152267337E+02 -0.10195784152E+02  0.16837687064E+02  0.00000000000E+00 0.  1.
</event>
<event>
 7    1  0.6180395E-013  0.5930194E+02  0.7816164E-02  0.1266605E+00
        -11   -1    0    0    0    0  0.00000000000E+00  0.00000000000E+00  0.45593999997E+02  0.45594000000E+02  0.51100000000E-03 0.  1.
         11   -1    0    0    0    0 -0.00000000000E+00 -0.00000000000E+00 -0.45593999997E+02  0.45594000000E+02  0.51100000000E-03 0. -1.
    9900012    2    1    2    0    0 -0.29631784793E+02 -0.27420446609E+01 -0.11452482386E+02  0.59301939852E+02  0.49999992385E+02 0.  0.
        -12    1    1    2    0    0  0.29631784793E+02  0.27420446609E+01  0.11452482386E+02  0.31886060148E+02  0.00000000000E+00 0.  1.
         11    1    3    3    0    0 -0.86684566660E+01  0.13798981748E+02 -0.84784610599E+01  0.18369494834E+02  0.51100000000E-03 0. -1.
        -11    1    3    3    0    0 -0.22180580886E+02 -0.21518466935E+02 -0.97791999200E+01  0.32413814015E+02  0.51100000000E-03 0.  1.
        -12    1    3    3    0    0  0.12172527587E+01  0.49774405263E+01  0.68051785938E+01  0.85186310030E+01  0.00000000000E+00 0.  1.
</event>
<event>
 7    1  0.6180395E-013  0.5930194E+02  0.7816164E-02  0.1266605E+00
        -11   -1    0    0    0    0  0.00000000000E+00  0.00000000000E+00  0.45593999997E+02  0.45594000000E+02  0.51100000000E-03 0.  1.
         11   -1    0    0    0    0 -0.00000000000E+00 -0.00000000000E+00 -0.45593999997E+02  0.45594000000E+02  0.51100000000E-03 0. -1.
    9900012    2    1    2    0    0  0.25015669050E+02  0.18611227424E+02  0.66752659004E+01  0.59301942559E+02  0.49999997322E+02 0.  0.
        -12    1    1    2    0    0 -0.25015669050E+02 -0.18611227424E+02 -0.66752659004E+01  0.31886057441E+02  0.00000000000E+00 0.  1.
         11    1    3    3    0    0 -0.24947689823E+01  0.14596740574E+02 -0.58854654940E+01  0.15935100000E+02  0.51100000000E-03 0. -1.
        -11    1    3    3    0    0  0.95248854091E+01 -0.11536474928E+02 -0.25768343408E+01  0.15180703913E+02  0.51100000000E-03 0.  1.
        -12    1    3    3    0    0  0.17985552623E+02  0.15550961778E+02  0.15137565735E+02  0.28186138646E+02  0.00000000000E+00 0.  1.
</event>
<event>
 7    1  0.6180395E-013  0.5930195E+02  0.7816164E-02  0.1266605E+00
        -11   -1    0    0    0    0  0.00000000000E+00  0.00000000000E+00  0.45593999997E+02  0.45594000000E+02  0.51100000000E-03 0. -1.
         11   -1    0    0    0    0 -0.00000000000E+00 -0.00000000000E+00 -0.45593999997E+02  0.45594000000E+02  0.51100000000E-03 0.  1.
    9900012    2    1    2    0    0  0.27687696449E+02  0.13731897242E+02  0.78451572315E+01  0.59301952448E+02  0.50000015356E+02 0.  0.
        -12    1    1    2    0    0 -0.27687696449E+02 -0.13731897242E+02 -0.78451572315E+01  0.31886047552E+02  0.00000000000E+00 0.  1.
         11    1    3    3    0    0  0.31942826819E+02  0.15323345815E+02  0.55134810356E+01  0.35854533681E+02  0.51100000000E-03 0. -1.
        -11    1    3    3    0    0 -0.10455490742E+02 -0.22574072730E+01 -0.65891673040E+01  0.12563052984E+02  0.51100000000E-03 0.  1.
        -12    1    3    3    0    0  0.62003603726E+01  0.66595869990E+00  0.89208434999E+01  0.10884365783E+02  0.00000000000E+00 0.  1.
</event>
<event>
 7    1  0.6180395E-013  0.5930198E+02  0.7816164E-02  0.1266605E+00
        -11   -1    0    0    0    0  0.00000000000E+00  0.00000000000E+00  0.45593999997E+02  0.45594000000E+02  0.51100000000E-03 0. -1.
         11   -1    0    0    0    0 -0.00000000000E+00 -0.00000000000E+00 -0.45593999997E+02  0.45594000000E+02  0.51100000000E-03 0.  1.
    9900012    2    1    2    0    0  0.24749951285E+02  0.16352449972E+02  0.11694249532E+02  0.59301981421E+02  0.50000068196E+02 0.  0.
        -12    1    1    2    0    0 -0.24749951285E+02 -0.16352449972E+02 -0.11694249532E+02  0.31886018579E+02  0.00000000000E+00 0.  1.
         11    1    3    3    0    0 -0.21422251782E+01  0.20196927041E+02  0.94258691808E+01  0.22390891020E+02  0.51100000000E-03 0. -1.
        -11    1    3    3    0    0  0.44742902653E+01  0.32531255197E+00 -0.10041561168E+02  0.10998093134E+02  0.51100000000E-03 0.  1.
         12    1    3    3    0    0  0.22417886198E+02 -0.41697896209E+01  0.12309941520E+02  0.25912997266E+02  0.00000000000E+00 0. -1.
</event>
<event>
 7    1  0.6180395E-013  0.5930192E+02  0.7816164E-02  0.1266605E+00
        -11   -1    0    0    0    0  0.00000000000E+00  0.00000000000E+00  0.45593999997E+02  0.45594000000E+02  0.51100000000E-03 0.  1.
         11   -1    0    0    0    0 -0.00000000000E+00 -0.00000000000E+00 -0.45593999997E+02  0.45594000000E+02  0.51100000000E-03 0. -1.
    9900012    2    1    2    0    0 -0.92853067968E+01 -0.28220611555E+02 -0.11580244130E+02  0.59301923211E+02  0.49999962035E+02 0.  0.
        -12    1    1    2    0    0  0.92853067968E+01  0.28220611555E+02  0.11580244130E+02  0.31886076789E+02  0.00000000000E+00 0.  1.
         11    1    3    3    0    0 -0.72580405968E+01 -0.15112241959E+02  0.30444306561E+01  0.17039001397E+02  0.51100000000E-03 0. -1.
        -11    1    3    3    0    0  0.45517937910E+01  0.10950845766E+02  0.23532852134E+01  0.12090401204E+02  0.51100000000E-03 0.  1.
        -12    1    3    3    0    0 -0.65790599910E+01 -0.24059215362E+02 -0.16977960000E+02  0.30172520610E+02  0.00000000000E+00 0.  1.
</event>
<event>
 7    1  0.6180395E-013  0.5930193E+02  0.7816164E-02  0.1266605E+00
        -11   -1    0    0    0    0  0.00000000000E+00  0.00000000000E+00  0.45593999997E+02  0.45594000000E+02  0.51100000000E-03 0.  1.
         11   -1    0    0    0    0 -0.00000000000E+00 -0.00000000000E+00 -0.45593999997E+02  0.45594000000E+02  0.51100000000E-03 0. -1.
    9900012    2    1    2    0    0  0.73880478517E+01  0.13158951792E+01 -0.30990427491E+02  0.59301930514E+02  0.49999975355E+02 0.  0.
        -12    1    1    2    0    0 -0.73880478517E+01 -0.13158951792E+01  0.30990427491E+02  0.31886069486E+02  0.00000000000E+00 0.  1.
         11    1    3    3    0    0  0.10402572686E+02  0.18456975049E+02 -0.36929062522E+01  0.21506068988E+02  0.51100000000E-03 0. -1.
        -11    1    3    3    0    0 -0.11131824601E+02 -0.94250398597E+01 -0.12310704402E+02  0.19086705804E+02  0.51100000000E-03 0.  1.
         12    1    3    3    0    0  0.81172997669E+01 -0.77160400106E+01 -0.14986816836E+02  0.18709155722E+02  0.00000000000E+00 0. -1.
</event>
<event>
 7    1  0.6180395E-013  0.5930197E+02  0.7816164E-02  0.1266605E+00
        -11   -1    0    0    0    0  0.00000000000E+00  0.00000000000E+00  0.45593999997E+02  0.45594000000E+02  0.51100000000E-03 0. -1.
         11   -1    0    0    0    0 -0.00000000000E+00 -0.00000000000E+00 -0.45593999997E+02  0.45594000000E+02  0.51100000000E-03 0.  1.
    9900012    2    1    2    0    0 -0.17944066121E+02  0.19640517723E+02 -0.17577811930E+02  0.59301969867E+02  0.50000047125E+02 0.  0.
        -12    1    1    2    0    0  0.17944066121E+02 -0.19640517723E+02  0.17577811930E+02  0.31886030133E+02  0.00000000000E+00 0.  1.
         11    1    3    3    0    0 -0.58146730153E+01 -0.10228687750E+02  0.66211184156E+01  0.13500951251E+02  0.51100000000E-03 0. -1.
        -11    1    3    3    0    0 -0.31108852456E+01  0.15826931207E+02 -0.24235192438E+02  0.29112092182E+02  0.51100000000E-03 0.  1.
        -12    1    3    3    0    0 -0.90185078600E+01  0.14042274266E+02  0.36262091885E-01  0.16688926434E+02  0.00000000000E+00 0.  1.
</event>
<event>
 7    1  0.6180395E-013  0.5930195E+02  0.7816164E-02  0.1266605E+00
        -11   -1    0    0    0    0  0.00000000000E+00  0.00000000000E+00  0.45593999997E+02  0.45594000000E+02  0.51100000000E-03 0.  1.
         11   -1    0    0    0    0 -0.00000000000E+00 -0.00000000000E+00 -0.45593999997E+02  0.45594000000E+02  0.51100000000E-03 0. -1.
    9900012    2    1    2    0    0 -0.17659306785E+02 -0.22500111229E+02 -0.14093056713E+02  0.59301947109E+02  0.50000005620E+02 0.  0.
        -12    1    1    2    0    0  0.17659306785E+02  0.22500111229E+02  0.14093056713E+02  0.31886052891E+02  0.00000000000E+00 0.  1.
         11    1    3    3    0    0  0.45030647101E+01 -0.14929979483E+02 -0.25790910024E+01  0.15806125073E+02  0.51100000000E-03 0. -1.
        -11    1    3    3    0    0 -0.42538758886E+01  0.12901494164E+02 -0.87446859688E+01  0.16155913614E+02  0.51100000000E-03 0.  1.
        -12    1    3    3    0    0 -0.17908495607E+02 -0.20471625910E+02 -0.27692797416E+01  0.27339908423E+02  0.00000000000E+00 0.  1.
</event>
<event>
 7    1  0.6180395E-013  0.5930193E+02  0.7816164E-02  0.1266605E+00
        -11   -1    0    0    0    0  0.00000000000E+00  0.00000000000E+00  0.45593999997E+02  0.45594000000E+02  0.51100000000E-03 0.  1.
         11   -1    0    0    0    0 -0.00000000000E+00 -0.00000000000E+00 -0.45593999997E+02  0.45594000000E+02  0.51100000000E-03 0. -1.
    9900012    2    1    2    0    0  0.27557919726E+01 -0.25161005905E+02 -0.19392025011E+02  0.59301933426E+02  0.49999980665E+02 0.  0.
        -12    1    1    2    0    0 -0.27557919726E+01  0.25161005905E+02  0.19392025011E+02  0.31886066574E+02  0.00000000000E+00 0.  1.
         11    1    3    3    0    0  0.16455316528E+02 -0.75192620196E+01 -0.24022921471E+02  0.30073534870E+02  0.51100000000E-03 0. -1.
        -11    1    3    3    0    0 -0.15432256787E+02 -0.14682513335E+02 -0.23703611898E+01  0.21432437094E+02  0.51100000000E-03 0.  1.
         12    1    3    3    0    0  0.17327322317E+01 -0.29592305498E+01  0.70012576497E+01  0.77959614616E+01  0.00000000000E+00 0. -1.
</event>
<event>
 7    1  0.6180395E-013  0.5930195E+02  0.7816164E-02  0.1266605E+00
        -11   -1    0    0    0    0  0.00000000000E+00  0.00000000000E+00  0.45593999997E+02  0.45594000000E+02  0.51100000000E-03 0.  1.
         11   -1    0    0    0    0 -0.00000000000E+00 -0.00000000000E+00 -0.45593999997E+02  0.45594000000E+02  0.51100000000E-03 0. -1.
    9900012    2    1    2    0    0  0.29426657822E+02  0.95610994030E+01 -0.77056898292E+01  0.59301945554E+02  0.50000002783E+02 0.  0.
        -12    1    1    2    0    0 -0.29426657822E+02 -0.95610994030E+01  0.77056898292E+01  0.31886054446E+02  0.00000000000E+00 0.  1.
         11    1    3    3    0    0 -0.25839297386E+01  0.21750067308E+02 -0.93160402772E+01  0.23801905964E+02  0.51100000000E-03 0. -1.
        -11    1    3    3    0    0  0.61860329363E+01 -0.29521592235E+01 -0.33486091165E+01  0.76285929795E+01  0.51100000000E-03 0.  1.
         12    1    3    3    0    0  0.25824554625E+02 -0.92368086820E+01  0.49589595645E+01  0.27871446610E+02  0.00000000000E+00 0. -1.
</event>
<event>
 7    1  0.6180395E-013  0.5930190E+02  0.7816164E-02  0.1266605E+00
        -11   -1    0    0    0    0  0.00000000000E+00  0.00000000000E+00  0.45593999997E+02  0.45594000000E+02  0.51100000000E-03 0.  1.
         11   -1    0    0    0    0 -0.00000000000E+00 -0.00000000000E+00 -0.45593999997E+02  0.45594000000E+02  0.51100000000E-03 0. -1.
    9900012    2    1    2    0    0 -0.29148729007E+02  0.11310497846E+02 -0.62567942607E+01  0.59301902109E+02  0.49999923551E+02 0.  0.
        -12    1    1    2    0    0  0.29148729007E+02 -0.11310497846E+02  0.62567942607E+01  0.31886097891E+02  0.00000000000E+00 0.  1.
         11    1    3    3    0    0 -0.67172930198E+01 -0.36528113049E+01 -0.11980867824E+02  0.14212890277E+02  0.51100000000E-03 0. -1.
        -11    1    3    3    0    0  0.12105293812E+01  0.23454923741E+01  0.16127552202E+02  0.16342112965E+02  0.51100000000E-03 0.  1.
        -12    1    3    3    0    0 -0.23641965369E+02  0.12617816777E+02 -0.10403478639E+02  0.28746898868E+02  0.00000000000E+00 0.  1.
</event>
<event>
 7    1  0.6180395E-013  0.5930185E+02  0.7816164E-02  0.1266605E+00
        -11   -1    0    0    0    0  0.00000000000E+00  0.00000000000E+00  0.45593999997E+02  0.45594000000E+02  0.51100000000E-03 0.  1.
         11   -1    0    0    0    0 -0.00000000000E+00 -0.00000000000E+00 -0.45593999997E+02  0.45594000000E+02  0.51100000000E-03 0. -1.
    9900012    2    1    2    0    0  0.18534651803E+02  0.19551053866E+02 -0.17057238155E+02  0.59301852566E+02  0.49999833195E+02 0.  0.
        -12    1    1    2    0    0 -0.18534651803E+02 -0.19551053866E+02  0.17057238155E+02  0.31886147434E+02  0.00000000000E+00 0.  1.
         11    1    3    3    0    0  0.12385832396E+02  0.17351950886E+02 -0.36392744689E+01  0.21627375306E+02  0.51100000000E-03 0. -1.
        -11    1    3    3    0    0  0.25703784736E+01 -0.66458388900E+01  0.10062206972E+02  0.12329721386E+02  0.51100000000E-03 0.  1.
        -12    1    3    3    0    0  0.35784409326E+01  0.88449418694E+01 -0.23480170658E+02  0.25344755874E+02  0.00000000000E+00 0.  1.
</event>
<event>
 7    1  0.6180395E-013  0.5930195E+02  0.7816164E-02  0.1266605E+00
        -11   -1    0    0    0    0  0.00000000000E+00  0.00000000000E+00  0.45593999997E+02  0.45594000000E+02  0.51100000000E-03 0. -1.
         11   -1    0    0    0    0 -0.00000000000E+00 -0.00000000000E+00 -0.45593999997E+02  0.45594000000E+02  0.51100000000E-03 0.  1.
    9900012    2    1    2    0    0  0.43357568120E+01 -0.15835705423E+02  0.27334080904E+02  0.59301947685E+02  0.50000006670E+02 0.  0.
        -12    1    1    2    0    0 -0.43357568120E+01  0.15835705423E+02 -0.27334080904E+02  0.31886052315E+02  0.00000000000E+00 0.  1.
         11    1    3    3    0    0  0.61467558198E+01  0.32511057111E+01  0.15031163375E+02  0.16561647506E+02  0.51100000000E-03 0. -1.
        -11    1    3    3    0    0 -0.76474905488E+01 -0.28445364236E+02  0.11701289747E+02  0.31694526976E+02  0.51100000000E-03 0.  1.
        -12    1    3    3    0    0  0.58364915410E+01  0.93585531017E+01  0.60162778187E+00  0.11045773203E+02  0.00000000000E+00 0.  1.
</event>
<event>
 7    1  0.6180395E-013  0.5930195E+02  0.7816164E-02  0.1266605E+00
        -11   -1    0    0    0    0  0.00000000000E+00  0.00000000000E+00  0.45593999997E+02  0.45594000000E+02  0.51100000000E-03 0.  1.
         11   -1    0    0    0    0 -0.00000000000E+00 -0.00000000000E+00 -0.45593999997E+02  0.45594000000E+02  0.51100000000E-03 0. -1.
    9900012    2    1    2    0    0  0.12083169479E+02 -0.24979656619E+02 -0.15707767922E+02  0.59301949719E+02  0.50000010379E+02 0.  0.
        -12    1    1    2    0    0 -0.12083169479E+02  0.24979656619E+02  0.15707767922E+02  0.31886050281E+02  0.00000000000E+00 0.  1.
         11    1    3    3    0    0  0.20279079676E+02 -0.22917578236E+02 -0.26843323822E+02  0.40706516662E+02  0.51100000000E-03 0. -1.
        -11    1    3    3    0    0 -0.60692958005E+01 -0.61951473880E+00  0.13680241022E+02  0.14978956729E+02  0.51100000000E-03 0.  1.
         12    1    3    3    0    0 -0.21266143964E+01 -0.14425636437E+01 -0.25446851221E+01  0.36164763275E+01  0.00000000000E+00 0. -1.
</event>
<event>
 7    1  0.6180395E-013  0.5930194E+02  0.7816164E-02  0.1266605E+00
        -11   -1    0    0    0    0  0.00000000000E+00  0.00000000000E+00  0.45593999997E+02  0.45594000000E+02  0.51100000000E-03 0.  1.
         11   -1    0    0    0    0 -0.00000000000E+00 -0.00000000000E+00 -0.45593999997E+02  0.45594000000E+02  0.51100000000E-03 0. -1.
    9900012    2    1    2    0    0 -0.16764240924E+02 -0.16225552974E+01 -0.27074861000E+02  0.59301944151E+02  0.50000000225E+02 0.  0.
        -12    1    1    2    0    0  0.16764240924E+02  0.16225552974E+01  0.27074861000E+02  0.31886055849E+02  0.00000000000E+00 0.  1.
         11    1    3    3    0    0 -0.10895965498E+02 -0.96450404135E+01 -0.32117722322E+02  0.35260416278E+02  0.51100000000E-03 0. -1.
        -11    1    3    3    0    0  0.18442581235E+01 -0.65821413563E+01  0.23380722975E+00  0.68396300296E+01  0.51100000000E-03 0.  1.
         12    1    3    3    0    0 -0.77125335491E+01  0.14604626472E+02  0.48090540923E+01  0.17201897843E+02  0.00000000000E+00 0. -1.
</event>
<event>
 7    1  0.7068215E-013  0.5930194E+02  0.7816164E-02  0.1266605E+00
        -11   -1    0    0    0    0  0.00000000000E+00  0.00000000000E+00  0.45593999997E+02  0.45594000000E+02  0.51100000000E-03 0. -1.
         11   -1    0    0    0    0 -0.00000000000E+00 -0.00000000000E+00 -0.45593999997E+02  0.45594000000E+02  0.51100000000E-03 0.  1.
    9900012    2    1    2    0    0  0.71973883725E+01 -0.68455300642E+01  0.30299456657E+02  0.59301941057E+02  0.49999994581E+02 0.  0.
        -12    1    1    2    0    0 -0.71973883725E+01  0.68455300642E+01 -0.30299456657E+02  0.31886058943E+02  0.00000000000E+00 0.  1.
         11    1    3    3    0    0  0.55722734433E+01 -0.87938602364E+01  0.26932255912E+02  0.28874359178E+02  0.51100000000E-03 0. -1.
        -11    1    3    3    0    0  0.39293737992E+01 -0.97914187210E+01 -0.85209521295E+01  0.13561654931E+02  0.51100000000E-03 0.  1.
        -12    1    3    3    0    0 -0.23042588700E+01  0.11739748893E+02  0.11888152875E+02  0.16865926947E+02  0.00000000000E+00 0.  1.
</event>
<event>
 7    1  0.6180395E-013  0.5930188E+02  0.7816164E-02  0.1266605E+00
        -11   -1    0    0    0    0  0.00000000000E+00  0.00000000000E+00  0.45593999997E+02  0.45594000000E+02  0.51100000000E-03 0.  1.
         11   -1    0    0    0    0 -0.00000000000E+00 -0.00000000000E+00 -0.45593999997E+02  0.45594000000E+02  0.51100000000E-03 0. -1.
    9900012    2    1    2    0    0 -0.61689658844E+00  0.97586557539E+01 -0.30349835564E+02  0.59301883236E+02  0.49999889130E+02 0.  0.
        -12    1    1    2    0    0  0.61689658844E+00 -0.97586557539E+01  0.30349835564E+02  0.31886116764E+02  0.00000000000E+00 0.  1.
         11    1    3    3    0    0 -0.39682725453E+01  0.25136456054E+02 -0.16618966670E+02  0.30393727369E+02  0.51100000000E-03 0. -1.
        -11    1    3    3    0    0  0.11856533832E+01 -0.82499401770E+01 -0.18342036059E+02  0.20146899859E+02  0.51100000000E-03 0.  1.
         12    1    3    3    0    0  0.21657225736E+01 -0.71278601231E+01  0.46111671657E+01  0.87612560076E+01  0.00000000000E+00 0. -1.
</event>
<event>
 7    1  0.6180395E-013  0.5930186E+02  0.7816164E-02  0.1266605E+00
        -11   -1    0    0    0    0  0.00000000000E+00  0.00000000000E+00  0.45593999997E+02  0.45594000000E+02  0.51100000000E-03 0.  1.
         11   -1    0    0    0    0 -0.00000000000E+00 -0.00000000000E+00 -0.45593999997E+02  0.45594000000E+02  0.51100000000E-03 0. -1.
    9900012    2    1    2    0    0  0.22947042314E+01  0.29454953720E+02 -0.11994405095E+02  0.59301863204E+02  0.49999852597E+02 0.  0.
        -12    1    1    2    0    0 -0.22947042314E+01 -0.29454953720E+02  0.11994405095E+02  0.31886136796E+02  0.00000000000E+00 0.  1.
         11    1    3    3    0    0  0.17269220051E+02  0.12520936369E+02 -0.19609977282E+02  0.28975006782E+02  0.51100000000E-03 0. -1.
        -11    1    3    3    0    0 -0.40314858632E+01  0.11743214804E+01  0.10140052272E+02  0.10975088589E+02  0.51100000000E-03 0.  1.
         12    1    3    3    0    0 -0.10943029956E+02  0.15759695871E+02 -0.25244800841E+01  0.19351767833E+02  0.00000000000E+00 0. -1.
</event>
<event>
 7    1  0.6180395E-013  0.5930197E+02  0.7816164E-02  0.1266605E+00
        -11   -1    0    0    0    0  0.00000000000E+00  0.00000000000E+00  0.45593999997E+02  0.45594000000E+02  0.51100000000E-03 0.  1.
         11   -1    0    0    0    0 -0.00000000000E+00 -0.00000000000E+00 -0.45593999997E+02  0.45594000000E+02  0.51100000000E-03 0. -1.
    9900012    2    1    2    0    0 -0.26778896102E+02 -0.77045970247E+01  0.15499953197E+02  0.59301974207E+02  0.50000055040E+02 0.  0.
        -12    1    1    2    0    0  0.26778896102E+02  0.77045970247E+01 -0.15499953197E+02  0.31886025793E+02  0.00000000000E+00 0.  1.
         11    1    3    3    0    0 -0.21664877307E+02 -0.62716886124E+01  0.10429736777E+02  0.24849152828E+02  0.51100000000E-03 0. -1.
        -11    1    3    3    0    0 -0.56105731522E+01 -0.64062553186E+01 -0.13090631065E+02  0.15616762156E+02  0.51100000000E-03 0.  1.
        -12    1    3    3    0    0  0.49655435715E+00  0.49733469063E+01  0.18160847485E+02  0.18836059223E+02  0.00000000000E+00 0.  1.
</event>
<event>
 7    1  0.6180395E-013  0.5930193E+02  0.7816164E-02  0.1266605E+00
        -11   -1    0    0    0    0  0.00000000000E+00  0.00000000000E+00  0.45593999997E+02  0.45594000000E+02  0.51100000000E-03 0.  1.
         11   -1    0    0    0    0 -0.00000000000E+00 -0.00000000000E+00 -0.45593999997E+02  0.45594000000E+02  0.51100000000E-03 0. -1.
    9900012    2    1    2    0    0  0.31808599514E+02  0.44625415039E+00 -0.21760905976E+01  0.59301929121E+02  0.49999972813E+02 0.  0.
        -12    1    1    2    0    0 -0.31808599514E+02 -0.44625415039E+00  0.21760905976E+01  0.31886070879E+02  0.00000000000E+00 0.  1.
         11    1    3    3    0    0  0.40157078666E+02 -0.67600557968E+01 -0.60165787658E+01  0.41164165747E+02  0.51100000000E-03 0. -1.
        -11    1    3    3    0    0 -0.30854717136E+01  0.72373440674E+01  0.81555290014E+01  0.11331899152E+02  0.51100000000E-03 0.  1.
         12    1    3    3    0    0 -0.52630074378E+01 -0.31034120136E-01 -0.43150408331E+01  0.68058642213E+01  0.00000000000E+00 0. -1.
</event>
<event>
 7    1  0.6180395E-013  0.5930193E+02  0.7816164E-02  0.1266605E+00
        -11   -1    0    0    0    0  0.00000000000E+00  0.00000000000E+00  0.45593999997E+02  0.45594000000E+02  0.51100000000E-03 0. -1.
         11   -1    0    0    0    0 -0.00000000000E+00 -0.00000000000E+00 -0.45593999997E+02  0.45594000000E+02  0.51100000000E-03 0.  1.
    9900012    2    1    2    0    0 -0.29726088042E+02 -0.82429933229E+01  0.80705875994E+01  0.59301927281E+02  0.49999969459E+02 0.  0.
        -12    1    1    2    0    0  0.29726088042E+02  0.82429933229E+01 -0.80705875994E+01  0.31886072719E+02  0.00000000000E+00 0.  1.
         11    1    3    3    0    0 -0.69851382101E+01  0.12314901107E+02 -0.41359462167E+00  0.14164039179E+02  0.51100000000E-03 0.  1.
        -11    1    3    3    0    0 -0.29819031369E+02 -0.18442759877E+02  0.11863593946E+02  0.37014252461E+02  0.51100000000E-03 0. -1.
        -12    1    3    3    0    0  0.70780815369E+01 -0.21151345528E+01 -0.33794117254E+01  0.81236356411E+01  0.00000000000E+00 0.  1.
</event>
<event>
 7    1  0.6180395E-013  0.5930192E+02  0.7816164E-02  0.1266605E+00
        -11   -1    0    0    0    0  0.00000000000E+00  0.00000000000E+00  0.45593999997E+02  0.45594000000E+02  0.51100000000E-03 0.  1.
         11   -1    0    0    0    0 -0.00000000000E+00 -0.00000000000E+00 -0.45593999997E+02  0.45594000000E+02  0.51100000000E-03 0. -1.
    9900012    2    1    2    0    0 -0.19420184801E+02 -0.18753276070E+02 -0.16967406131E+02  0.59301924483E+02  0.49999964356E+02 0.  0.
        -12    1    1    2    0    0  0.19420184801E+02  0.18753276070E+02  0.16967406131E+02  0.31886075517E+02  0.00000000000E+00 0.  1.
         11    1    3    3    0    0  0.13899679079E+02 -0.49565170036E+01 -0.45440598896E+01  0.15440745443E+02  0.51100000000E-03 0. -1.
        -11    1    3    3    0    0 -0.21167446645E+02 -0.15662181764E+02 -0.16301353942E+02  0.30969321524E+02  0.51100000000E-03 0.  1.
        -12    1    3    3    0    0 -0.12152417235E+02  0.18654226979E+01  0.38780077005E+01  0.12891857516E+02  0.00000000000E+00 0.  1.
</event>
<event>
 7    1  0.6180395E-013  0.5930193E+02  0.7816164E-02  0.1266605E+00
        -11   -1    0    0    0    0  0.00000000000E+00  0.00000000000E+00  0.45593999997E+02  0.45594000000E+02  0.51100000000E-03 0. -1.
         11   -1    0    0    0    0 -0.00000000000E+00 -0.00000000000E+00 -0.45593999997E+02  0.45594000000E+02  0.51100000000E-03 0.  1.
    9900012    2    1    2    0    0  0.49236796183E+01 -0.10299603675E+02  0.29772416530E+02  0.59301933406E+02  0.49999980628E+02 0.  0.
        -12    1    1    2    0    0 -0.49236796183E+01  0.10299603675E+02 -0.29772416530E+02  0.31886066594E+02  0.00000000000E+00 0.  1.
         11    1    3    3    0    0  0.35704861670E+01 -0.22576273233E+02  0.25035865060E+02  0.33900310088E+02  0.51100000000E-03 0. -1.
        -11    1    3    3    0    0 -0.48343195926E+01  0.69143455010E+01 -0.70879936952E+01  0.11019005151E+02  0.51100000000E-03 0.  1.
         12    1    3    3    0    0  0.61875130440E+01  0.53623240567E+01  0.11824545165E+02  0.14382618166E+02  0.00000000000E+00 0. -1.
</event>
<event>
 7    1  0.6180395E-013  0.5930195E+02  0.7816164E-02  0.1266605E+00
        -11   -1    0    0    0    0  0.00000000000E+00  0.00000000000E+00  0.45593999997E+02  0.45594000000E+02  0.51100000000E-03 0.  1.
         11   -1    0    0    0    0 -0.00000000000E+00 -0.00000000000E+00 -0.45593999997E+02  0.45594000000E+02  0.51100000000E-03 0. -1.
    9900012    2    1    2    0    0  0.16560546506E+02  0.64486411228E+01 -0.26474205790E+02  0.59301949051E+02  0.50000009161E+02 0.  0.
        -12    1    1    2    0    0 -0.16560546506E+02 -0.64486411228E+01  0.26474205790E+02  0.31886050949E+02  0.00000000000E+00 0.  1.
         11    1    3    3    0    0  0.64772224725E+01 -0.25414887751E+01 -0.22563310885E+02  0.23611788888E+02  0.51100000000E-03 0. -1.
        -11    1    3    3    0    0 -0.21086104710E+01 -0.80513993338E+01  0.80365382444E+01  0.11569667954E+02  0.51100000000E-03 0.  1.
        -12    1    3    3    0    0  0.12191934504E+02  0.17041529232E+02 -0.11947433150E+02  0.24120492209E+02  0.00000000000E+00 0.  1.
</event>
<event>
 7    1  0.6180395E-013  0.5930196E+02  0.7816164E-02  0.1266605E+00
        -11   -1    0    0    0    0  0.00000000000E+00  0.00000000000E+00  0.45593999997E+02  0.45594000000E+02  0.51100000000E-03 0.  1.
         11   -1    0    0    0    0 -0.00000000000E+00 -0.00000000000E+00 -0.45593999997E+02  0.45594000000E+02  0.51100000000E-03 0. -1.
    9900012    2    1    2    0    0 -0.25987011745E+02  0.11543177124E+02 -0.14427390337E+02  0.59301963723E+02  0.50000035919E+02 0.  0.
        -12    1    1    2    0    0  0.25987011745E+02 -0.11543177124E+02  0.14427390337E+02  0.31886036277E+02  0.00000000000E+00 0.  1.
         11    1    3    3    0    0 -0.49812311667E+01 -0.97655522607E+01 -0.15018191419E+02  0.18593674964E+02  0.51100000000E-03 0. -1.
        -11    1    3    3    0    0 -0.12185492889E+02  0.26219751978E+02 -0.47288169837E+01  0.29297155853E+02  0.51100000000E-03 0.  1.
        -12    1    3    3    0    0 -0.88202876891E+01 -0.49110225937E+01  0.53196180655E+01  0.11411132906E+02  0.00000000000E+00 0.  1.
</event>
<event>
 7    1  0.6180395E-013  0.5930158E+02  0.7816164E-02  0.1266606E+00
        -11   -1    0    0    0    0  0.00000000000E+00  0.00000000000E+00  0.45593999997E+02  0.45594000000E+02  0.51100000000E-03 0.  1.
         11   -1    0    0    0    0 -0.00000000000E+00 -0.00000000000E+00 -0.45593999997E+02  0.45594000000E+02  0.51100000000E-03 0. -1.
    9900012    2    1    2    0    0  0.51895037341E+01 -0.13708514647E+02 -0.28317650331E+02  0.59301582153E+02  0.49999340024E+02 0.  0.
        -12    1    1    2    0    0 -0.51895037341E+01  0.13708514647E+02  0.28317650331E+02  0.31886417847E+02  0.00000000000E+00 0.  1.
         11    1    3    3    0    0 -0.60662323349E+01 -0.34004316270E+01 -0.29975110237E+01  0.75727922584E+01  0.51100000000E-03 0. -1.
        -11    1    3    3    0    0  0.26605409440E+02 -0.75695676603E+01 -0.22981326146E+02  0.35962306902E+02  0.51100000000E-03 0.  1.
        -12    1    3    3    0    0 -0.15349673371E+02 -0.27385153594E+01 -0.23388131612E+01  0.15766482993E+02  0.00000000000E+00 0.  1.
</event>
<event>
 7    1  0.6180395E-013  0.5930196E+02  0.7816164E-02  0.1266605E+00
        -11   -1    0    0    0    0  0.00000000000E+00  0.00000000000E+00  0.45593999997E+02  0.45594000000E+02  0.51100000000E-03 0. -1.
         11   -1    0    0    0    0 -0.00000000000E+00 -0.00000000000E+00 -0.45593999997E+02  0.45594000000E+02  0.51100000000E-03 0.  1.
    9900012    2    1    2    0    0  0.30233863628E+01 -0.19571647184E+02  0.24990590538E+02  0.59301955184E+02  0.50000020346E+02 0.  0.
        -12    1    1    2    0    0 -0.30233863628E+01  0.19571647184E+02 -0.24990590538E+02  0.31886044816E+02  0.00000000000E+00 0.  1.
         11    1    3    3    0    0 -0.20310223811E+00 -0.56164509087E+01 -0.14132393538E+02  0.15208889463E+02  0.51100000000E-03 0.  1.
        -11    1    3    3    0    0  0.32783882218E+01 -0.12255730945E+02  0.13924415455E+02  0.18837200332E+02  0.51100000000E-03 0. -1.
        -12    1    3    3    0    0 -0.51899620895E-01 -0.16994653303E+01  0.25198568621E+02  0.25255865388E+02  0.00000000000E+00 0.  1.
</event>
<event>
 7    1  0.6180395E-013  0.5930191E+02  0.7816164E-02  0.1266605E+00
        -11   -1    0    0    0    0  0.00000000000E+00  0.00000000000E+00  0.45593999997E+02  0.45594000000E+02  0.51100000000E-03 0. -1.
         11   -1    0    0    0    0 -0.00000000000E+00 -0.00000000000E+00 -0.45593999997E+02  0.45594000000E+02  0.51100000000E-03 0.  1.
    9900012    2    1    2    0    0  0.87054344760E+01 -0.30063539451E+02  0.60927397157E+01  0.59301914147E+02  0.49999945505E+02 0.  0.
        -12    1    1    2    0    0 -0.87054344760E+01  0.30063539451E+02 -0.60927397157E+01  0.31886085853E+02  0.00000000000E+00 0.  1.
         11    1    3    3    0    0 -0.11395827223E+02  0.87338035832E+00 -0.87649650813E+01  0.14403203966E+02  0.51100000000E-03 0.  1.
        -11    1    3    3    0    0  0.16198098707E+02 -0.28474298010E+02  0.19686304680E+02  0.38219296711E+02  0.51100000000E-03 0. -1.
        -12    1    3    3    0    0  0.39031629925E+01 -0.24626217993E+01 -0.48285998826E+01  0.66794134697E+01  0.00000000000E+00 0.  1.
</event>
<event>
 7    1  0.6180395E-013  0.5930218E+02  0.7816164E-02  0.1266604E+00
        -11   -1    0    0    0    0  0.00000000000E+00  0.00000000000E+00  0.45593999997E+02  0.45594000000E+02  0.51100000000E-03 0. -1.
         11   -1    0    0    0    0 -0.00000000000E+00 -0.00000000000E+00 -0.45593999997E+02  0.45594000000E+02  0.51100000000E-03 0.  1.
    9900012    2    1    2    0    0 -0.13942135923E+02 -0.18122265163E+02  0.22223995960E+02  0.59302177991E+02  0.50000426692E+02 0.  0.
        -12    1    1    2    0    0  0.13942135923E+02  0.18122265163E+02 -0.22223995960E+02  0.31885822009E+02  0.00000000000E+00 0.  1.
         11    1    3    3    0    0  0.91815261666E+01  0.62588627369E+00 -0.97308651187E+01  0.13393352553E+02  0.51100000000E-03 0. -1.
        -11    1    3    3    0    0 -0.50412388522E+01 -0.11746017305E+02  0.17742430674E+02  0.21867255387E+02  0.51100000000E-03 0.  1.
         12    1    3    3    0    0 -0.18082423237E+02 -0.70021341320E+01  0.14212430405E+02  0.24041570052E+02  0.00000000000E+00 0. -1.
</event>
<event>
 7    1  0.6180395E-013  0.5930196E+02  0.7816164E-02  0.1266605E+00
        -11   -1    0    0    0    0  0.00000000000E+00  0.00000000000E+00  0.45593999997E+02  0.45594000000E+02  0.51100000000E-03 0.  1.
         11   -1    0    0    0    0 -0.00000000000E+00 -0.00000000000E+00 -0.45593999997E+02  0.45594000000E+02  0.51100000000E-03 0. -1.
    9900012    2    1    2    0    0  0.13099505722E+02 -0.93480969085E+01 -0.27527001381E+02  0.59301956485E+02  0.50000022720E+02 0.  0.
        -12    1    1    2    0    0 -0.13099505722E+02  0.93480969085E+01  0.27527001381E+02  0.31886043515E+02  0.00000000000E+00 0.  1.
         11    1    3    3    0    0 -0.15633561900E+01 -0.21056018307E+02 -0.40241585812E+00  0.21117810689E+02  0.51100000000E-03 0. -1.
        -11    1    3    3    0    0  0.21936642997E+01  0.98388056489E+01 -0.22975190582E+01  0.10338900026E+02  0.51100000000E-03 0.  1.
         12    1    3    3    0    0  0.12469197612E+02  0.18691157491E+01 -0.24827066465E+02  0.27845245771E+02  0.00000000000E+00 0. -1.
</event>
<event>
 7    1  0.6180395E-013  0.5930194E+02  0.7816164E-02  0.1266605E+00
        -11   -1    0    0    0    0  0.00000000000E+00  0.00000000000E+00  0.45593999997E+02  0.45594000000E+02  0.51100000000E-03 0.  1.
         11   -1    0    0    0    0 -0.00000000000E+00 -0.00000000000E+00 -0.45593999997E+02  0.45594000000E+02  0.51100000000E-03 0. -1.
    9900012    2    1    2    0    0  0.15928361687E+02 -0.22098509938E+02 -0.16572984662E+02  0.59301942418E+02  0.49999997065E+02 0.  0.
        -12    1    1    2    0    0 -0.15928361687E+02  0.22098509938E+02  0.16572984662E+02  0.31886057582E+02  0.00000000000E+00 0.  1.
         11    1    3    3    0    0  0.20790189345E+02 -0.33715199679E+02 -0.17332075472E+02  0.43235951508E+02  0.51100000000E-03 0. -1.
        -11    1    3    3    0    0  0.11895523924E+01  0.57901666026E+01  0.39175164098E+01  0.70914031941E+01  0.51100000000E-03 0.  1.
         12    1    3    3    0    0 -0.60513800507E+01  0.58265231384E+01 -0.31584255996E+01  0.89745877158E+01  0.00000000000E+00 0. -1.
</event>
<event>
 7    1  0.6180395E-013  0.5930194E+02  0.7816164E-02  0.1266605E+00
        -11   -1    0    0    0    0  0.00000000000E+00  0.00000000000E+00  0.45593999997E+02  0.45594000000E+02  0.51100000000E-03 0.  1.
         11   -1    0    0    0    0 -0.00000000000E+00 -0.00000000000E+00 -0.45593999997E+02  0.45594000000E+02  0.51100000000E-03 0. -1.
    9900012    2    1    2    0    0  0.90707828347E+01  0.29593378968E+02 -0.76598577219E+01  0.59301943482E+02  0.49999999004E+02 0.  0.
        -12    1    1    2    0    0 -0.90707828347E+01 -0.29593378968E+02  0.76598577219E+01  0.31886056518E+02  0.00000000000E+00 0.  1.
         11    1    3    3    0    0  0.79643617979E+01  0.42794043378E+02 -0.12067309081E+02  0.45170578435E+02  0.51100000000E-03 0. -1.
        -11    1    3    3    0    0  0.25271925480E+00 -0.54742713621E+01  0.71835670935E+00  0.55269838602E+01  0.51100000000E-03 0.  1.
         12    1    3    3    0    0  0.85370178198E+00 -0.77263930482E+01  0.36890946493E+01  0.86043811863E+01  0.00000000000E+00 0. -1.
</event>
<event>
 7    1  0.6180395E-013  0.5930196E+02  0.7816164E-02  0.1266605E+00
        -11   -1    0    0    0    0  0.00000000000E+00  0.00000000000E+00  0.45593999997E+02  0.45594000000E+02  0.51100000000E-03 0.  1.
         11   -1    0    0    0    0 -0.00000000000E+00 -0.00000000000E+00 -0.45593999997E+02  0.45594000000E+02  0.51100000000E-03 0. -1.
    9900012    2    1    2    0    0  0.11594578604E+01 -0.43707702742E+01 -0.31563771029E+02  0.59301958903E+02  0.50000027128E+02 0.  0.
        -12    1    1    2    0    0 -0.11594578604E+01  0.43707702742E+01  0.31563771029E+02  0.31886041097E+02  0.00000000000E+00 0.  1.
         11    1    3    3    0    0  0.34252036844E+01  0.12566153980E+02  0.52861494786E+01  0.14056444170E+02  0.51100000000E-03 0.  1.
        -11    1    3    3    0    0 -0.90156478915E+01 -0.96556797762E+01 -0.98512538346E+01  0.16479115911E+02  0.51100000000E-03 0. -1.
         12    1    3    3    0    0  0.67499020674E+01 -0.72812444778E+01 -0.26998666673E+02  0.28766398822E+02  0.00000000000E+00 0. -1.
</event>
<event>
 7    1  0.6180395E-013  0.5930195E+02  0.7816164E-02  0.1266605E+00
        -11   -1    0    0    0    0  0.00000000000E+00  0.00000000000E+00  0.45593999997E+02  0.45594000000E+02  0.51100000000E-03 0.  1.
         11   -1    0    0    0    0 -0.00000000000E+00 -0.00000000000E+00 -0.45593999997E+02  0.45594000000E+02  0.51100000000E-03 0. -1.
    9900012    2    1    2    0    0 -0.76211246530E+01  0.15482025133E+02 -0.26813165560E+02  0.59301945202E+02  0.50000002142E+02 0.  0.
        -12    1    1    2    0    0  0.76211246530E+01 -0.15482025133E+02  0.26813165560E+02  0.31886054798E+02  0.00000000000E+00 0.  1.
         11    1    3    3    0    0 -0.42257802940E+01  0.33494759408E+02 -0.12675674739E+02  0.36061459444E+02  0.51100000000E-03 0. -1.
        -11    1    3    3    0    0 -0.15627144050E+01 -0.11099322350E+02 -0.97026616351E+01  0.14824934266E+02  0.51100000000E-03 0.  1.
         12    1    3    3    0    0 -0.18326299540E+01 -0.69134119254E+01 -0.44348291862E+01  0.84155514916E+01  0.00000000000E+00 0. -1.
</event>
<event>
 7    1  0.6180395E-013  0.5930194E+02  0.7816164E-02  0.1266605E+00
        -11   -1    0    0    0    0  0.00000000000E+00  0.00000000000E+00  0.45593999997E+02  0.45594000000E+02  0.51100000000E-03 0.  1.
         11   -1    0    0    0    0 -0.00000000000E+00 -0.00000000000E+00 -0.45593999997E+02  0.45594000000E+02  0.51100000000E-03 0. -1.
    9900012    2    1    2    0    0  0.12276892426E+02 -0.16413696374E+02 -0.24425175831E+02  0.59301941437E+02  0.49999995275E+02 0.  0.
        -12    1    1    2    0    0 -0.12276892426E+02  0.16413696374E+02  0.24425175831E+02  0.31886058563E+02  0.00000000000E+00 0.  1.
         11    1    3    3    0    0  0.18518283376E+02  0.59966828493E+01 -0.17375801219E+02  0.26092249666E+02  0.51100000000E-03 0. -1.
        -11    1    3    3    0    0 -0.39123011445E+01  0.41044193613E+01  0.18647149129E-01  0.56703356616E+01  0.51100000000E-03 0.  1.
         12    1    3    3    0    0 -0.23290898054E+01 -0.26514798584E+02 -0.70680217610E+01  0.27539356109E+02  0.00000000000E+00 0. -1.
</event>
<event>
 7    1  0.6180395E-013  0.5930194E+02  0.7816164E-02  0.1266605E+00
        -11   -1    0    0    0    0  0.00000000000E+00  0.00000000000E+00  0.45593999997E+02  0.45594000000E+02  0.51100000000E-03 0. -1.
         11   -1    0    0    0    0 -0.00000000000E+00 -0.00000000000E+00 -0.45593999997E+02  0.45594000000E+02  0.51100000000E-03 0.  1.
    9900012    2    1    2    0    0 -0.13535670859E+02 -0.11179216222E+02  0.26618258576E+02  0.59301937989E+02  0.49999988988E+02 0.  0.
        -12    1    1    2    0    0  0.13535670859E+02  0.11179216222E+02 -0.26618258576E+02  0.31886062011E+02  0.00000000000E+00 0.  1.
         11    1    3    3    0    0  0.77222765674E+00  0.46570871441E+01  0.10026470663E+02  0.11082188883E+02  0.51100000000E-03 0. -1.
        -11    1    3    3    0    0  0.76521723318E+01 -0.11364283906E+02 -0.72484083667E+01  0.15499745617E+02  0.51100000000E-03 0.  1.
        -12    1    3    3    0    0 -0.21960070848E+02 -0.44720194598E+01  0.23840196280E+02  0.32720003489E+02  0.00000000000E+00 0.  1.
</event>
<event>
 7    1  0.6180395E-013  0.5930172E+02  0.7816164E-02  0.1266606E+00
        -11   -1    0    0    0    0  0.00000000000E+00  0.00000000000E+00  0.45593999997E+02  0.45594000000E+02  0.51100000000E-03 0.  1.
         11   -1    0    0    0    0 -0.00000000000E+00 -0.00000000000E+00 -0.45593999997E+02  0.45594000000E+02  0.51100000000E-03 0. -1.
    9900012    2    1    2    0    0 -0.28074824739E+02 -0.78276294654E+00 -0.15097220559E+02  0.59301724417E+02  0.49999599480E+02 0.  0.
        -12    1    1    2    0    0  0.28074824739E+02  0.78276294654E+00  0.15097220559E+02  0.31886275583E+02  0.00000000000E+00 0.  1.
         11    1    3    3    0    0 -0.51711460179E+01 -0.45655242902E+00 -0.12335985394E+02  0.13383785980E+02  0.51100000000E-03 0. -1.
        -11    1    3    3    0    0 -0.11107343893E+02 -0.20403971541E+01  0.18423800117E+02  0.21609551590E+02  0.51100000000E-03 0.  1.
        -12    1    3    3    0    0 -0.11796334829E+02  0.17141866366E+01 -0.21185035281E+02  0.24308386847E+02  0.00000000000E+00 0.  1.
</event>
<event>
 7    1  0.6180395E-013  0.5930197E+02  0.7816164E-02  0.1266605E+00
        -11   -1    0    0    0    0  0.00000000000E+00  0.00000000000E+00  0.45593999997E+02  0.45594000000E+02  0.51100000000E-03 0.  1.
         11   -1    0    0    0    0 -0.00000000000E+00 -0.00000000000E+00 -0.45593999997E+02  0.45594000000E+02  0.51100000000E-03 0. -1.
    9900012    2    1    2    0    0  0.17185305183E+02  0.26858591794E+02 -0.45279025720E-02  0.59301973470E+02  0.50000053695E+02 0.  0.
        -12    1    1    2    0    0 -0.17185305183E+02 -0.26858591794E+02  0.45279025720E-02  0.31886026530E+02  0.00000000000E+00 0.  1.
         11    1    3    3    0    0  0.58023954526E+00  0.13861545364E+02 -0.18797021275E+02  0.23362515423E+02  0.51100000000E-03 0. -1.
        -11    1    3    3    0    0  0.20166100065E+02  0.60338744815E+01  0.18641104430E+02  0.28117076799E+02  0.51100000000E-03 0.  1.
        -12    1    3    3    0    0 -0.35610344279E+01  0.69631719485E+01  0.15138894271E+00  0.78223812483E+01  0.00000000000E+00 0.  1.
</event>
<event>
 7    1  0.6180395E-013  0.5930193E+02  0.7816164E-02  0.1266605E+00
        -11   -1    0    0    0    0  0.00000000000E+00  0.00000000000E+00  0.45593999997E+02  0.45594000000E+02  0.51100000000E-03 0. -1.
         11   -1    0    0    0    0 -0.00000000000E+00 -0.00000000000E+00 -0.45593999997E+02  0.45594000000E+02  0.51100000000E-03 0.  1.
    9900012    2    1    2    0    0 -0.60469044756E+01 -0.29908765985E+01  0.31164261281E+02  0.59301928155E+02  0.49999971051E+02 0.  0.
        -12    1    1    2    0    0  0.60469044756E+01  0.29908765985E+01 -0.31164261281E+02  0.31886071845E+02  0.00000000000E+00 0.  1.
         11    1    3    3    0    0 -0.11604738522E+02 -0.18914962641E+02  0.34020402797E+02  0.40618143416E+02  0.51100000000E-03 0. -1.
        -11    1    3    3    0    0  0.71475009478E+01  0.10922693529E+02 -0.90464177866E+00  0.13084738467E+02  0.51100000000E-03 0.  1.
         12    1    3    3    0    0 -0.15896669015E+01  0.50013925128E+01 -0.19514997377E+01  0.55990462716E+01  0.00000000000E+00 0. -1.
</event>
<event>
 7    1  0.6180395E-013  0.5930195E+02  0.7816164E-02  0.1266605E+00
        -11   -1    0    0    0    0  0.00000000000E+00  0.00000000000E+00  0.45593999997E+02  0.45594000000E+02  0.51100000000E-03 0.  1.
         11   -1    0    0    0    0 -0.00000000000E+00 -0.00000000000E+00 -0.45593999997E+02  0.45594000000E+02  0.51100000000E-03 0. -1.
    9900012    2    1    2    0    0 -0.28686460345E+01 -0.29724933987E+02 -0.11176728910E+02  0.59301951331E+02  0.50000013320E+02 0.  0.
        -12    1    1    2    0    0  0.28686460345E+01  0.29724933987E+02  0.11176728910E+02  0.31886048669E+02  0.00000000000E+00 0.  1.
         11    1    3    3    0    0 -0.13766860499E+02 -0.22983617762E+02  0.19550291585E+01  0.26862525435E+02  0.51100000000E-03 0. -1.
        -11    1    3    3    0    0  0.30144666244E+01  0.80688800173E+01 -0.13080116089E+02  0.15661521986E+02  0.51100000000E-03 0.  1.
         12    1    3    3    0    0  0.78837478406E+01 -0.14810196242E+02 -0.51641979909E-01  0.16777903910E+02  0.00000000000E+00 0. -1.
</event>
<event>
 7    1  0.6180395E-013  0.5930192E+02  0.7816164E-02  0.1266605E+00
        -11   -1    0    0    0    0  0.00000000000E+00  0.00000000000E+00  0.45593999997E+02  0.45594000000E+02  0.51100000000E-03 0. -1.
         11   -1    0    0    0    0 -0.00000000000E+00 -0.00000000000E+00 -0.45593999997E+02  0.45594000000E+02  0.51100000000E-03 0.  1.
    9900012    2    1    2    0    0 -0.12337751481E+02 -0.24736438488E+02 -0.15893721883E+02  0.59301923164E+02  0.49999961950E+02 0.  0.
        -12    1    1    2    0    0  0.12337751481E+02  0.24736438488E+02  0.15893721883E+02  0.31886076836E+02  0.00000000000E+00 0.  1.
         11    1    3    3    0    0  0.56334650172E+01 -0.79394442858E+01 -0.35680498991E+01  0.10368301887E+02  0.51100000000E-03 0.  1.
        -11    1    3    3    0    0 -0.22889835132E+02 -0.17531214869E+02  0.64211060032E+01  0.29538426663E+02  0.51100000000E-03 0. -1.
         12    1    3    3    0    0  0.49186186335E+01  0.73422066712E+00 -0.18746777987E+02  0.19395194615E+02  0.00000000000E+00 0. -1.
</event>
<event>
 7    1  0.6180395E-013  0.5930172E+02  0.7816164E-02  0.1266606E+00
        -11   -1    0    0    0    0  0.00000000000E+00  0.00000000000E+00  0.45593999997E+02  0.45594000000E+02  0.51100000000E-03 0.  1.
         11   -1    0    0    0    0 -0.00000000000E+00 -0.00000000000E+00 -0.45593999997E+02  0.45594000000E+02  0.51100000000E-03 0. -1.
    9900012    2    1    2    0    0  0.14986413337E+02 -0.16213577729E+02 -0.23005692127E+02  0.59301724618E+02  0.49999599848E+02 0.  0.
        -12    1    1    2    0    0 -0.14986413337E+02  0.16213577729E+02  0.23005692127E+02  0.31886275382E+02  0.00000000000E+00 0.  1.
         11    1    3    3    0    0  0.12751290253E+02 -0.17192582386E+02 -0.37333500400E+02  0.43034527354E+02  0.51100000000E-03 0. -1.
        -11    1    3    3    0    0  0.24498993091E+00  0.96552819606E+00 -0.62930643493E+00  0.11782578724E+01  0.51100000000E-03 0.  1.
         12    1    3    3    0    0  0.19901331538E+01  0.13476461178E-01  0.14957114708E+02  0.15088939392E+02  0.00000000000E+00 0. -1.
</event>
<event>
 7    1  0.6180395E-013  0.5930199E+02  0.7816164E-02  0.1266605E+00
        -11   -1    0    0    0    0  0.00000000000E+00  0.00000000000E+00  0.45593999997E+02  0.45594000000E+02  0.51100000000E-03 0.  1.
         11   -1    0    0    0    0 -0.00000000000E+00 -0.00000000000E+00 -0.45593999997E+02  0.45594000000E+02  0.51100000000E-03 0. -1.
    9900012    2    1    2    0    0  0.24363401277E+02 -0.12249569376E+02 -0.16525445616E+02  0.59301990145E+02  0.50000084107E+02 0.  0.
        -12    1    1    2    0    0 -0.24363401277E+02  0.12249569376E+02  0.16525445616E+02  0.31886009855E+02  0.00000000000E+00 0.  1.
         11    1    3    3    0    0  0.36714238772E+01  0.13066442663E+02 -0.12810725055E+02  0.18663492542E+02  0.51100000000E-03 0.  1.
        -11    1    3    3    0    0  0.24495113339E+02 -0.13720294413E+02 -0.43866977375E+01  0.28416547531E+02  0.51100000000E-03 0. -1.
        -12    1    3    3    0    0 -0.38031359398E+01 -0.11595717626E+02  0.67197717637E+00  0.12221950072E+02  0.00000000000E+00 0.  1.
</event>
<event>
 7    1  0.6180395E-013  0.5930194E+02  0.7816164E-02  0.1266605E+00
        -11   -1    0    0    0    0  0.00000000000E+00  0.00000000000E+00  0.45593999997E+02  0.45594000000E+02  0.51100000000E-03 0.  1.
         11   -1    0    0    0    0 -0.00000000000E+00 -0.00000000000E+00 -0.45593999997E+02  0.45594000000E+02  0.51100000000E-03 0. -1.
    9900012    2    1    2    0    0 -0.13747432768E+02 -0.11541177865E+02 -0.26353936890E+02  0.59301942172E+02  0.49999996616E+02 0.  0.
        -12    1    1    2    0    0  0.13747432768E+02  0.11541177865E+02  0.26353936890E+02  0.31886057828E+02  0.00000000000E+00 0.  1.
         11    1    3    3    0    0 -0.16526978331E+02 -0.14924901465E+02 -0.10379402306E+02  0.24568795025E+02  0.51100000000E-03 0. -1.
        -11    1    3    3    0    0  0.15158573076E+02 -0.27875890799E+01 -0.28670742909E+01  0.15677152351E+02  0.51100000000E-03 0.  1.
        -12    1    3    3    0    0 -0.12379027513E+02  0.61713126800E+01 -0.13107460292E+02  0.19055994796E+02  0.00000000000E+00 0.  1.
</event>
<event>
 7    1  0.6180395E-013  0.5930193E+02  0.7816164E-02  0.1266605E+00
        -11   -1    0    0    0    0  0.00000000000E+00  0.00000000000E+00  0.45593999997E+02  0.45594000000E+02  0.51100000000E-03 0.  1.
         11   -1    0    0    0    0 -0.00000000000E+00 -0.00000000000E+00 -0.45593999997E+02  0.45594000000E+02  0.51100000000E-03 0. -1.
    9900012    2    1    2    0    0 -0.30145491708E+02 -0.41682976215E+01 -0.95181917969E+01  0.59301931719E+02  0.49999977551E+02 0.  0.
        -12    1    1    2    0    0  0.30145491708E+02  0.41682976215E+01  0.95181917969E+01  0.31886068281E+02  0.00000000000E+00 0.  1.
         11    1    3    3    0    0 -0.10961420928E+02 -0.10879373877E+02 -0.16664531231E+01  0.15533531182E+02  0.51100000000E-03 0. -1.
        -11    1    3    3    0    0 -0.52359842783E+01  0.60477647320E+01 -0.22290190775E+02  0.23682136615E+02  0.51100000000E-03 0.  1.
        -12    1    3    3    0    0 -0.13948086501E+02  0.66331152353E+00  0.14438452101E+02  0.20086263921E+02  0.00000000000E+00 0.  1.
</event>
<event>
 7    1  0.6180395E-013  0.5930194E+02  0.7816164E-02  0.1266605E+00
        -11   -1    0    0    0    0  0.00000000000E+00  0.00000000000E+00  0.45593999997E+02  0.45594000000E+02  0.51100000000E-03 0. -1.
         11   -1    0    0    0    0 -0.00000000000E+00 -0.00000000000E+00 -0.45593999997E+02  0.45594000000E+02  0.51100000000E-03 0.  1.
    9900012    2    1    2    0    0  0.23059177198E+02  0.20950838517E+01  0.21922723323E+02  0.59301939922E+02  0.49999992512E+02 0.  0.
        -12    1    1    2    0    0 -0.23059177198E+02 -0.20950838517E+01 -0.21922723323E+02  0.31886060078E+02  0.00000000000E+00 0.  1.
         11    1    3    3    0    0  0.13608001581E+02 -0.16235193098E+01  0.41912997630E+01  0.14331103096E+02  0.51100000000E-03 0. -1.
        -11    1    3    3    0    0 -0.10581865838E+02 -0.93759854783E+01  0.15429462811E+02  0.20927334068E+02  0.51100000000E-03 0.  1.
        -12    1    3    3    0    0  0.20033041455E+02  0.13094588640E+02  0.23019607496E+01  0.24043502758E+02  0.00000000000E+00 0.  1.
</event>
<event>
 7    1  0.6180395E-013  0.5930197E+02  0.7816164E-02  0.1266605E+00
        -11   -1    0    0    0    0  0.00000000000E+00  0.00000000000E+00  0.45593999997E+02  0.45594000000E+02  0.51100000000E-03 0.  1.
         11   -1    0    0    0    0 -0.00000000000E+00 -0.00000000000E+00 -0.45593999997E+02  0.45594000000E+02  0.51100000000E-03 0. -1.
    9900012    2    1    2    0    0 -0.30995210241E+02  0.10209904302E+01  0.74144140682E+01  0.59301968335E+02  0.50000044331E+02 0.  0.
        -12    1    1    2    0    0  0.30995210241E+02 -0.10209904302E+01 -0.74144140682E+01  0.31886031665E+02  0.00000000000E+00 0.  1.
         11    1    3    3    0    0 -0.49724155685E+01  0.11916527104E+02  0.96109141772E+01  0.16096527774E+02  0.51100000000E-03 0. -1.
        -11    1    3    3    0    0 -0.32215691133E+02 -0.58988500371E+01 -0.75559004057E+01  0.33611587557E+02  0.51100000000E-03 0.  1.
        -12    1    3    3    0    0  0.61928964601E+01 -0.49966866369E+01  0.53594002967E+01  0.95938530035E+01  0.00000000000E+00 0.  1.
</event>
<event>
 7    1  0.6180395E-013  0.5930192E+02  0.7816164E-02  0.1266605E+00
        -11   -1    0    0    0    0  0.00000000000E+00  0.00000000000E+00  0.45593999997E+02  0.45594000000E+02  0.51100000000E-03 0.  1.
         11   -1    0    0    0    0 -0.00000000000E+00 -0.00000000000E+00 -0.45593999997E+02  0.45594000000E+02  0.51100000000E-03 0. -1.
    9900012    2    1    2    0    0 -0.29518878602E+02  0.98249696834E+01 -0.69877154974E+01  0.59301915400E+02  0.49999947790E+02 0.  0.
        -12    1    1    2    0    0  0.29518878602E+02 -0.98249696834E+01  0.69877154974E+01  0.31886084600E+02  0.00000000000E+00 0.  1.
         11    1    3    3    0    0 -0.13729801846E+01  0.23476511939E+02 -0.13016830710E+02  0.26878794046E+02  0.51100000000E-03 0. -1.
        -11    1    3    3    0    0 -0.12147768358E+02 -0.61023434030E+01 -0.40259785116E+00  0.13600329274E+02  0.51100000000E-03 0.  1.
         12    1    3    3    0    0 -0.15998130060E+02 -0.75491988523E+01  0.64317130639E+01  0.18822792080E+02  0.00000000000E+00 0. -1.
</event>
<event>
 7    1  0.6180395E-013  0.5930195E+02  0.7816164E-02  0.1266605E+00
        -11   -1    0    0    0    0  0.00000000000E+00  0.00000000000E+00  0.45593999997E+02  0.45594000000E+02  0.51100000000E-03 0.  1.
         11   -1    0    0    0    0 -0.00000000000E+00 -0.00000000000E+00 -0.45593999997E+02  0.45594000000E+02  0.51100000000E-03 0. -1.
    9900012    2    1    2    0    0  0.28543391802E+02 -0.13947567561E+02 -0.27313815689E+01  0.59301948163E+02  0.50000007543E+02 0.  0.
        -12    1    1    2    0    0 -0.28543391802E+02  0.13947567561E+02  0.27313815689E+01  0.31886051837E+02  0.00000000000E+00 0.  1.
         11    1    3    3    0    0  0.98051472593E+01 -0.17705221944E+02 -0.21459842704E+02  0.29498146485E+02  0.51100000000E-03 0. -1.
        -11    1    3    3    0    0  0.10184858697E+02  0.51397343521E+01  0.29189875357E+01  0.11775767677E+02  0.51100000000E-03 0.  1.
         12    1    3    3    0    0  0.85533858456E+01 -0.13820799691E+01  0.15809473600E+02  0.18028034002E+02  0.00000000000E+00 0. -1.
</event>
<event>
 7    1  0.6180395E-013  0.5930214E+02  0.7816164E-02  0.1266604E+00
        -11   -1    0    0    0    0  0.00000000000E+00  0.00000000000E+00  0.45593999997E+02  0.45594000000E+02  0.51100000000E-03 0. -1.
         11   -1    0    0    0    0 -0.00000000000E+00 -0.00000000000E+00 -0.45593999997E+02  0.45594000000E+02  0.51100000000E-03 0.  1.
    9900012    2    1    2    0    0  0.16875232930E+02 -0.79396072295E+00  0.27042642293E+02  0.59302135385E+02  0.50000348989E+02 0.  0.
        -12    1    1    2    0    0 -0.16875232930E+02  0.79396072295E+00 -0.27042642293E+02  0.31885864615E+02  0.00000000000E+00 0.  1.
         11    1    3    3    0    0 -0.79189113959E+01  0.22671346448E+01  0.17880397968E+01  0.84288874574E+01  0.51100000000E-03 0. -1.
        -11    1    3    3    0    0  0.25192320922E+02  0.11231934296E+02  0.85343938458E+01  0.28872915683E+02  0.51100000000E-03 0.  1.
        -12    1    3    3    0    0 -0.39817659660E+00 -0.14293029663E+02  0.16720208650E+02  0.22000332245E+02  0.00000000000E+00 0.  1.
</event>
<event>
 7    1  0.6180395E-013  0.5930195E+02  0.7816164E-02  0.1266605E+00
        -11   -1    0    0    0    0  0.00000000000E+00  0.00000000000E+00  0.45593999997E+02  0.45594000000E+02  0.51100000000E-03 0.  1.
         11   -1    0    0    0    0 -0.00000000000E+00 -0.00000000000E+00 -0.45593999997E+02  0.45594000000E+02  0.51100000000E-03 0. -1.
    9900012    2    1    2    0    0 -0.14123167475E+02  0.79977960592E+01 -0.27446157043E+02  0.59301950734E+02  0.50000012231E+02 0.  0.
        -12    1    1    2    0    0  0.14123167475E+02 -0.79977960592E+01  0.27446157043E+02  0.31886049266E+02  0.00000000000E+00 0.  1.
         11    1    3    3    0    0 -0.24964766998E+02  0.20151776450E+02 -0.15832727648E+02  0.35777212726E+02  0.51100000000E-03 0. -1.
        -11    1    3    3    0    0 -0.23487190608E+01  0.20783076743E+00 -0.99454226286E+00  0.25590602627E+01  0.51100000000E-03 0.  1.
         12    1    3    3    0    0  0.13190318583E+02 -0.12361811158E+02 -0.10618887132E+02  0.20965677746E+02  0.00000000000E+00 0. -1.
</event>
<event>
 7    1  0.6180395E-013  0.5930197E+02  0.7816164E-02  0.1266605E+00
        -11   -1    0    0    0    0  0.00000000000E+00  0.00000000000E+00  0.45593999997E+02  0.45594000000E+02  0.51100000000E-03 0. -1.
         11   -1    0    0    0    0 -0.00000000000E+00 -0.00000000000E+00 -0.45593999997E+02  0.45594000000E+02  0.51100000000E-03 0.  1.
    9900012    2    1    2    0    0 -0.12024156864E+02  0.10891863310E+02 -0.27450065014E+02  0.59301966946E+02  0.50000041798E+02 0.  0.
        -12    1    1    2    0    0  0.12024156864E+02 -0.10891863310E+02  0.27450065014E+02  0.31886033054E+02  0.00000000000E+00 0.  1.
         11    1    3    3    0    0 -0.23607968501E+02  0.14940912098E+02 -0.26249468509E+02  0.38335383503E+02  0.51100000000E-03 0. -1.
        -11    1    3    3    0    0  0.54344451231E+01 -0.98060613448E+00  0.78529008569E+01  0.96001476195E+01  0.51100000000E-03 0.  1.
         12    1    3    3    0    0  0.61493665144E+01 -0.30684426536E+01 -0.90534973619E+01  0.11366435824E+02  0.00000000000E+00 0. -1.
</event>
<event>
 7    1  0.6180395E-013  0.5930194E+02  0.7816164E-02  0.1266605E+00
        -11   -1    0    0    0    0  0.00000000000E+00  0.00000000000E+00  0.45593999997E+02  0.45594000000E+02  0.51100000000E-03 0.  1.
         11   -1    0    0    0    0 -0.00000000000E+00 -0.00000000000E+00 -0.45593999997E+02  0.45594000000E+02  0.51100000000E-03 0. -1.
    9900012    2    1    2    0    0 -0.18369393019E+02 -0.11251385793E+02 -0.23509409272E+02  0.59301943385E+02  0.49999998828E+02 0.  0.
        -12    1    1    2    0    0  0.18369393019E+02  0.11251385793E+02  0.23509409272E+02  0.31886056615E+02  0.00000000000E+00 0.  1.
         11    1    3    3    0    0 -0.13945138969E+02  0.18311677617E+00 -0.21263168297E+02  0.25428778163E+02  0.51100000000E-03 0. -1.
        -11    1    3    3    0    0  0.12347944695E+02 -0.11298345202E+00 -0.52455120772E+01  0.13416404163E+02  0.51100000000E-03 0.  1.
        -12    1    3    3    0    0 -0.16772198745E+02 -0.11321519117E+02  0.29992711020E+01  0.20456761059E+02  0.00000000000E+00 0.  1.
</event>
<event>
 7    1  0.6180395E-013  0.5930198E+02  0.7816164E-02  0.1266605E+00
        -11   -1    0    0    0    0  0.00000000000E+00  0.00000000000E+00  0.45593999997E+02  0.45594000000E+02  0.51100000000E-03 0.  1.
         11   -1    0    0    0    0 -0.00000000000E+00 -0.00000000000E+00 -0.45593999997E+02  0.45594000000E+02  0.51100000000E-03 0. -1.
    9900012    2    1    2    0    0  0.98792699768E+01 -0.30120230000E+02 -0.34481840753E+01  0.59301981058E+02  0.50000067535E+02 0.  0.
        -12    1    1    2    0    0 -0.98792699768E+01  0.30120230000E+02  0.34481840753E+01  0.31886018942E+02  0.00000000000E+00 0.  1.
         11    1    3    3    0    0 -0.14018001222E+02 -0.15636327020E+02  0.37551081104E+01  0.21333070995E+02  0.51100000000E-03 0. -1.
        -11    1    3    3    0    0  0.25631771512E+02 -0.12314055967E+02  0.18525420986E+01  0.28496589229E+02  0.51100000000E-03 0.  1.
         12    1    3    3    0    0 -0.17345003134E+01 -0.21698470138E+01 -0.90558342843E+01  0.94723208341E+01  0.00000000000E+00 0. -1.
</event>
<event>
 7    1  0.6180395E-013  0.5930191E+02  0.7816164E-02  0.1266605E+00
        -11   -1    0    0    0    0  0.00000000000E+00  0.00000000000E+00  0.45593999997E+02  0.45594000000E+02  0.51100000000E-03 0.  1.
         11   -1    0    0    0    0 -0.00000000000E+00 -0.00000000000E+00 -0.45593999997E+02  0.45594000000E+02  0.51100000000E-03 0. -1.
    9900012    2    1    2    0    0 -0.20902332860E+02 -0.59138640709E+01 -0.23341842284E+02  0.59301907288E+02  0.49999932995E+02 0.  0.
        -12    1    1    2    0    0  0.20902332860E+02  0.59138640709E+01  0.23341842284E+02  0.31886092712E+02  0.00000000000E+00 0.  1.
         11    1    3    3    0    0 -0.82073070902E+01  0.31780688754E+01  0.39240646804E+01  0.96363009151E+01  0.51100000000E-03 0. -1.
        -11    1    3    3    0    0  0.11807389843E+02  0.38398915643E+01 -0.14704766128E+02  0.19245502573E+02  0.51100000000E-03 0.  1.
        -12    1    3    3    0    0 -0.24502415613E+02 -0.12931824511E+02 -0.12561140837E+02  0.30420103800E+02  0.00000000000E+00 0.  1.
</event>
<event>
 7    1  0.6180395E-013  0.5930195E+02  0.7816164E-02  0.1266605E+00
        -11   -1    0    0    0    0  0.00000000000E+00  0.00000000000E+00  0.45593999997E+02  0.45594000000E+02  0.51100000000E-03 0.  1.
         11   -1    0    0    0    0 -0.00000000000E+00 -0.00000000000E+00 -0.45593999997E+02  0.45594000000E+02  0.51100000000E-03 0. -1.
    9900012    2    1    2    0    0  0.26337984616E+02 -0.16616639845E+02 -0.68496873651E+01  0.59301947087E+02  0.50000005579E+02 0.  0.
        -12    1    1    2    0    0 -0.26337984616E+02  0.16616639845E+02  0.68496873651E+01  0.31886052913E+02  0.00000000000E+00 0.  1.
         11    1    3    3    0    0  0.22628586724E+02 -0.94772925013E+01  0.10371958664E+02  0.26635493933E+02  0.51100000000E-03 0.  1.
        -11    1    3    3    0    0 -0.67532304869E+01  0.16800855071E+01 -0.17653610434E+02  0.18975741644E+02  0.51100000000E-03 0. -1.
         12    1    3    3    0    0  0.10462628379E+02 -0.88194328511E+01  0.43196440480E+00  0.13690711510E+02  0.00000000000E+00 0. -1.
</event>
<event>
 7    1  0.6180395E-013  0.5930195E+02  0.7816164E-02  0.1266605E+00
        -11   -1    0    0    0    0  0.00000000000E+00  0.00000000000E+00  0.45593999997E+02  0.45594000000E+02  0.51100000000E-03 0.  1.
         11   -1    0    0    0    0 -0.00000000000E+00 -0.00000000000E+00 -0.45593999997E+02  0.45594000000E+02  0.51100000000E-03 0. -1.
    9900012    2    1    2    0    0 -0.23282785990E+02  0.20568265196E+02  0.71818257193E+01  0.59301948547E+02  0.50000008241E+02 0.  0.
        -12    1    1    2    0    0  0.23282785990E+02 -0.20568265196E+02 -0.71818257193E+01  0.31886051453E+02  0.00000000000E+00 0.  1.
         11    1    3    3    0    0 -0.20455833585E-01 -0.74857868767E+01  0.13943740606E+02  0.15826096358E+02  0.51100000000E-03 0. -1.
        -11    1    3    3    0    0 -0.16216360998E+02  0.12423213742E+02  0.68904069878E+01  0.21558856937E+02  0.51100000000E-03 0.  1.
         12    1    3    3    0    0 -0.70459691588E+01  0.15630838330E+02 -0.13652321874E+02  0.21916995252E+02  0.00000000000E+00 0. -1.
</event>
<event>
 7    1  0.6180395E-013  0.5930188E+02  0.7816164E-02  0.1266605E+00
        -11   -1    0    0    0    0  0.00000000000E+00  0.00000000000E+00  0.45593999997E+02  0.45594000000E+02  0.51100000000E-03 0.  1.
         11   -1    0    0    0    0 -0.00000000000E+00 -0.00000000000E+00 -0.45593999997E+02  0.45594000000E+02  0.51100000000E-03 0. -1.
    9900012    2    1    2    0    0  0.22433956373E+01  0.23883022002E+02 -0.21006973219E+02  0.59301882523E+02  0.49999887830E+02 0.  0.
        -12    1    1    2    0    0 -0.22433956373E+01 -0.23883022002E+02  0.21006973219E+02  0.31886117477E+02  0.00000000000E+00 0.  1.
         11    1    3    3    0    0  0.23728476023E+01  0.28543928301E+02 -0.33255055325E+02  0.43889462898E+02  0.51100000000E-03 0. -1.
        -11    1    3    3    0    0 -0.15429496637E+01  0.15625662428E+01  0.63626720345E+01  0.67309659491E+01  0.51100000000E-03 0.  1.
         12    1    3    3    0    0  0.14134976987E+01 -0.62234725414E+01  0.58854100713E+01  0.86814536759E+01  0.00000000000E+00 0. -1.
</event>
<event>
 7    1  0.6180395E-013  0.5930192E+02  0.7816164E-02  0.1266605E+00
        -11   -1    0    0    0    0  0.00000000000E+00  0.00000000000E+00  0.45593999997E+02  0.45594000000E+02  0.51100000000E-03 0.  1.
         11   -1    0    0    0    0 -0.00000000000E+00 -0.00000000000E+00 -0.45593999997E+02  0.45594000000E+02  0.51100000000E-03 0. -1.
    9900012    2    1    2    0    0  0.21642320378E+02 -0.58426784097E+01 -0.22675871458E+02  0.59301920455E+02  0.49999957010E+02 0.  0.
        -12    1    1    2    0    0 -0.21642320378E+02  0.58426784097E+01  0.22675871458E+02  0.31886079545E+02  0.00000000000E+00 0.  1.
         11    1    3    3    0    0  0.14930977464E+02  0.90243207246E+01 -0.12171186440E+02  0.21272287893E+02  0.51100000000E-03 0. -1.
        -11    1    3    3    0    0  0.82921575879E+01 -0.53131480937E+00  0.99741865154E+01  0.12981778376E+02  0.51100000000E-03 0.  1.
        -12    1    3    3    0    0 -0.15808146736E+01 -0.14335684325E+02 -0.20478871533E+02  0.25047854187E+02  0.00000000000E+00 0.  1.
</event>
<event>
 7    1  0.6180395E-013  0.5930196E+02  0.7816164E-02  0.1266605E+00
        -11   -1    0    0    0    0  0.00000000000E+00  0.00000000000E+00  0.45593999997E+02  0.45594000000E+02  0.51100000000E-03 0. -1.
         11   -1    0    0    0    0 -0.00000000000E+00 -0.00000000000E+00 -0.45593999997E+02  0.45594000000E+02  0.51100000000E-03 0.  1.
    9900012    2    1    2    0    0  0.24103964036E+02 -0.18699343079E+02 -0.92764834748E+01  0.59301958234E+02  0.50000025908E+02 0.  0.
        -12    1    1    2    0    0 -0.24103964036E+02  0.18699343079E+02  0.92764834748E+01  0.31886041766E+02  0.00000000000E+00 0.  1.
         11    1    3    3    0    0  0.14603301760E+02 -0.29237939073E+02 -0.23882364898E+01  0.32769149780E+02  0.51100000000E-03 0. -1.
        -11    1    3    3    0    0  0.82492461242E+01  0.24514313490E+00 -0.12318655677E+02  0.14827657762E+02  0.51100000000E-03 0.  1.
         12    1    3    3    0    0  0.12514161519E+01  0.10293452859E+02  0.54304086915E+01  0.11705150691E+02  0.00000000000E+00 0. -1.
</event>
<event>
 7    1  0.6180395E-013  0.5930197E+02  0.7816164E-02  0.1266605E+00
        -11   -1    0    0    0    0  0.00000000000E+00  0.00000000000E+00  0.45593999997E+02  0.45594000000E+02  0.51100000000E-03 0. -1.
         11   -1    0    0    0    0 -0.00000000000E+00 -0.00000000000E+00 -0.45593999997E+02  0.45594000000E+02  0.51100000000E-03 0.  1.
    9900012    2    1    2    0    0 -0.31231094562E+02 -0.20356292142E+01 -0.60986585721E+01  0.59301973433E+02  0.50000053628E+02 0.  0.
        -12    1    1    2    0    0  0.31231094562E+02  0.20356292142E+01  0.60986585721E+01  0.31886026567E+02  0.00000000000E+00 0.  1.
         11    1    3    3    0    0 -0.16244331984E+01  0.10361731562E+02  0.10404300251E+02  0.14773412882E+02  0.51100000000E-03 0. -1.
        -11    1    3    3    0    0 -0.26115992179E+02 -0.17448658723E+02 -0.54404543720E+01  0.31876312252E+02  0.51100000000E-03 0.  1.
        -12    1    3    3    0    0 -0.34906691842E+01  0.50512979465E+01 -0.11062504451E+02  0.12652248300E+02  0.00000000000E+00 0.  1.
</event>
<event>
 7    1  0.6180395E-013  0.5930196E+02  0.7816164E-02  0.1266605E+00
        -11   -1    0    0    0    0  0.00000000000E+00  0.00000000000E+00  0.45593999997E+02  0.45594000000E+02  0.51100000000E-03 0. -1.
         11   -1    0    0    0    0 -0.00000000000E+00 -0.00000000000E+00 -0.45593999997E+02  0.45594000000E+02  0.51100000000E-03 0.  1.
    9900012    2    1    2    0    0  0.22893904237E+02  0.35927454099E+01 -0.21901625281E+02  0.59301955078E+02  0.50000020153E+02 0.  0.
        -12    1    1    2    0    0 -0.22893904237E+02 -0.35927454099E+01  0.21901625281E+02  0.31886044922E+02  0.00000000000E+00 0.  1.
         11    1    3    3    0    0  0.23618851010E+02  0.18739227090E+02 -0.98421514405E+01  0.31715559276E+02  0.51100000000E-03 0. -1.
        -11    1    3    3    0    0  0.14824918258E+01 -0.60136032442E+00 -0.12758224156E+02  0.12858137506E+02  0.51100000000E-03 0.  1.
         12    1    3    3    0    0 -0.22074385986E+01 -0.14545121356E+02  0.69875031464E+00  0.14728258296E+02  0.00000000000E+00 0. -1.
</event>
<event>
 7    1  0.6180395E-013  0.5930197E+02  0.7816164E-02  0.1266605E+00
        -11   -1    0    0    0    0  0.00000000000E+00  0.00000000000E+00  0.45593999997E+02  0.45594000000E+02  0.51100000000E-03 0. -1.
         11   -1    0    0    0    0 -0.00000000000E+00 -0.00000000000E+00 -0.45593999997E+02  0.45594000000E+02  0.51100000000E-03 0.  1.
    9900012    2    1    2    0    0 -0.17066242308E+02 -0.25692908278E+02 -0.80831247253E+01  0.59301967515E+02  0.50000042835E+02 0.  0.
        -12    1    1    2    0    0  0.17066242308E+02  0.25692908278E+02  0.80831247253E+01  0.31886032485E+02  0.00000000000E+00 0.  1.
         11    1    3    3    0    0 -0.12970020600E+02 -0.16793265860E+02  0.30604400234E+01  0.21438318638E+02  0.51100000000E-03 0. -1.
        -11    1    3    3    0    0  0.57458135565E+01  0.95062671002E+01 -0.12773948502E+02  0.16928001896E+02  0.51100000000E-03 0.  1.
        -12    1    3    3    0    0 -0.98420352641E+01 -0.18405909518E+02  0.16303837533E+01  0.20935646981E+02  0.00000000000E+00 0.  1.
</event>
<event>
 7    1  0.6180395E-013  0.5930194E+02  0.7816164E-02  0.1266605E+00
        -11   -1    0    0    0    0  0.00000000000E+00  0.00000000000E+00  0.45593999997E+02  0.45594000000E+02  0.51100000000E-03 0. -1.
         11   -1    0    0    0    0 -0.00000000000E+00 -0.00000000000E+00 -0.45593999997E+02  0.45594000000E+02  0.51100000000E-03 0.  1.
    9900012    2    1    2    0    0 -0.29437780836E+02 -0.26927339016E+01  0.11953549739E+02  0.59301935523E+02  0.49999984490E+02 0.  0.
        -12    1    1    2    0    0  0.29437780836E+02  0.26927339016E+01 -0.11953549739E+02  0.31886064477E+02  0.00000000000E+00 0.  1.
         11    1    3    3    0    0  0.17877778871E+01 -0.17381787946E+02  0.16053323712E+02  0.23728293332E+02  0.51100000000E-03 0. -1.
        -11    1    3    3    0    0 -0.54465327596E+01  0.47249184408E+01 -0.32863146521E+01  0.79239786488E+01  0.51100000000E-03 0.  1.
         12    1    3    3    0    0 -0.25779025964E+02  0.99641356031E+01 -0.81345932109E+00  0.27649663543E+02  0.00000000000E+00 0. -1.
</event>
<event>
 7    1  0.6180395E-013  0.5930201E+02  0.7816164E-02  0.1266605E+00
        -11   -1    0    0    0    0  0.00000000000E+00  0.00000000000E+00  0.45593999997E+02  0.45594000000E+02  0.51100000000E-03 0.  1.
         11   -1    0    0    0    0 -0.00000000000E+00 -0.00000000000E+00 -0.45593999997E+02  0.45594000000E+02  0.51100000000E-03 0. -1.
    9900012    2    1    2    0    0  0.42892769366E+01 -0.16141880742E+02 -0.27161707360E+02  0.59302006880E+02  0.50000114628E+02 0.  0.
        -12    1    1    2    0    0 -0.42892769366E+01  0.16141880742E+02  0.27161707360E+02  0.31885993120E+02  0.00000000000E+00 0.  1.
         11    1    3    3    0    0  0.85938130560E+01 -0.19356057842E+02 -0.18580731256E+02  0.28173643220E+02  0.51100000000E-03 0. -1.
        -11    1    3    3    0    0 -0.43768850933E+01  0.14821682659E+02 -0.11374734573E+02  0.19189163266E+02  0.51100000000E-03 0.  1.
         12    1    3    3    0    0  0.72348973802E-01 -0.11607505559E+02  0.27937584697E+01  0.11939200394E+02  0.00000000000E+00 0. -1.
</event>
<event>
 7    1  0.6180395E-013  0.5930195E+02  0.7816164E-02  0.1266605E+00
        -11   -1    0    0    0    0  0.00000000000E+00  0.00000000000E+00  0.45593999997E+02  0.45594000000E+02  0.51100000000E-03 0.  1.
         11   -1    0    0    0    0 -0.00000000000E+00 -0.00000000000E+00 -0.45593999997E+02  0.45594000000E+02  0.51100000000E-03 0. -1.
    9900012    2    1    2    0    0 -0.27677188896E+02 -0.12459250615E+02 -0.97703902872E+01  0.59301949172E+02  0.50000009382E+02 0.  0.
        -12    1    1    2    0    0  0.27677188896E+02  0.12459250615E+02  0.97703902872E+01  0.31886050828E+02  0.00000000000E+00 0.  1.
         11    1    3    3    0    0 -0.17269204471E-01 -0.12348673450E+01 -0.15790070848E+02  0.15838293255E+02  0.51100000000E-03 0. -1.
        -11    1    3    3    0    0 -0.97211066276E+01 -0.71242505364E+00  0.17264348514E+02  0.19825871819E+02  0.51100000000E-03 0.  1.
        -12    1    3    3    0    0 -0.17938813064E+02 -0.10511958216E+02 -0.11244667953E+02  0.23637784098E+02  0.00000000000E+00 0.  1.
</event>
<event>
 7    1  0.6180395E-013  0.5930198E+02  0.7816164E-02  0.1266605E+00
        -11   -1    0    0    0    0  0.00000000000E+00  0.00000000000E+00  0.45593999997E+02  0.45594000000E+02  0.51100000000E-03 0.  1.
         11   -1    0    0    0    0 -0.00000000000E+00 -0.00000000000E+00 -0.45593999997E+02  0.45594000000E+02  0.51100000000E-03 0. -1.
    9900012    2    1    2    0    0  0.29635974532E+02  0.67971988551E+01 -0.96033922892E+01  0.59301983595E+02  0.50000072161E+02 0.  0.
        -12    1    1    2    0    0 -0.29635974532E+02 -0.67971988551E+01  0.96033922892E+01  0.31886016405E+02  0.00000000000E+00 0.  1.
         11    1    3    3    0    0  0.65596289657E+01  0.64068335273E+01 -0.39831617861E+00  0.91779575098E+01  0.51100000000E-03 0. -1.
        -11    1    3    3    0    0 -0.40344835611E+01 -0.56081796678E+01  0.12899671043E+02  0.14633190017E+02  0.51100000000E-03 0.  1.
        -12    1    3    3    0    0  0.27110829127E+02  0.59985449956E+01 -0.22104747154E+02  0.35490836068E+02  0.00000000000E+00 0.  1.
</event>
<event>
 7    1  0.6180395E-013  0.5930198E+02  0.7816164E-02  0.1266605E+00
        -11   -1    0    0    0    0  0.00000000000E+00  0.00000000000E+00  0.45593999997E+02  0.45594000000E+02  0.51100000000E-03 0. -1.
         11   -1    0    0    0    0 -0.00000000000E+00 -0.00000000000E+00 -0.45593999997E+02  0.45594000000E+02  0.51100000000E-03 0.  1.
    9900012    2    1    2    0    0  0.18848548870E+02 -0.52831475160E+01  0.25170193363E+02  0.59301983063E+02  0.50000071190E+02 0.  0.
        -12    1    1    2    0    0 -0.18848548870E+02  0.52831475160E+01 -0.25170193363E+02  0.31886016937E+02  0.00000000000E+00 0.  1.
         11    1    3    3    0    0  0.21008682614E+02 -0.15823048564E+02  0.16633552937E+02  0.31119265650E+02  0.51100000000E-03 0. -1.
        -11    1    3    3    0    0 -0.46609910132E+01 -0.44740023972E+01  0.11006737304E+02  0.12762828880E+02  0.51100000000E-03 0.  1.
         12    1    3    3    0    0  0.25008572691E+01  0.15013903445E+02 -0.24700968781E+01  0.15419888532E+02  0.00000000000E+00 0. -1.
</event>
<event>
 7    1  0.6180395E-013  0.5930194E+02  0.7816164E-02  0.1266605E+00
        -11   -1    0    0    0    0  0.00000000000E+00  0.00000000000E+00  0.45593999997E+02  0.45594000000E+02  0.51100000000E-03 0.  1.
         11   -1    0    0    0    0 -0.00000000000E+00 -0.00000000000E+00 -0.45593999997E+02  0.45594000000E+02  0.51100000000E-03 0. -1.
    9900012    2    1    2    0    0  0.52135481034E+01 -0.38468753030E+01 -0.31220848289E+02  0.59301938761E+02  0.49999990395E+02 0.  0.
        -12    1    1    2    0    0 -0.52135481034E+01  0.38468753030E+01  0.31220848289E+02  0.31886061239E+02  0.00000000000E+00 0.  1.
         11    1    3    3    0    0  0.48236461875E+01  0.17082487348E+02 -0.17582671826E+02  0.24984580952E+02  0.51100000000E-03 0. -1.
        -11    1    3    3    0    0 -0.61901679455E+01 -0.69679750958E+01  0.46257860843E+01  0.10405227210E+02  0.51100000000E-03 0.  1.
         12    1    3    3    0    0  0.65800698613E+01 -0.13961387555E+02 -0.18263962548E+02  0.23912130600E+02  0.00000000000E+00 0. -1.
</event>
<event>
 7    1  0.6180395E-013  0.5930194E+02  0.7816164E-02  0.1266605E+00
        -11   -1    0    0    0    0  0.00000000000E+00  0.00000000000E+00  0.45593999997E+02  0.45594000000E+02  0.51100000000E-03 0.  1.
         11   -1    0    0    0    0 -0.00000000000E+00 -0.00000000000E+00 -0.45593999997E+02  0.45594000000E+02  0.51100000000E-03 0. -1.
    9900012    2    1    2    0    0 -0.11988559808E+02  0.63243854520E+01 -0.28861694793E+02  0.59301939661E+02  0.49999992035E+02 0.  0.
        -12    1    1    2    0    0  0.11988559808E+02 -0.63243854520E+01  0.28861694793E+02  0.31886060339E+02  0.00000000000E+00 0.  1.
         11    1    3    3    0    0  0.12466581330E+01  0.13577149490E+02 -0.92463150383E-01  0.13634577165E+02  0.51100000000E-03 0. -1.
        -11    1    3    3    0    0 -0.17537526822E+02 -0.15102606127E+02 -0.28497290909E+02  0.36711703151E+02  0.51100000000E-03 0.  1.
        -12    1    3    3    0    0  0.43023088809E+01  0.78498420885E+01 -0.27194073390E+00  0.89556593439E+01  0.00000000000E+00 0.  1.
</event>
<event>
 7    1  0.6180395E-013  0.5930194E+02  0.7816164E-02  0.1266605E+00
        -11   -1    0    0    0    0  0.00000000000E+00  0.00000000000E+00  0.45593999997E+02  0.45594000000E+02  0.51100000000E-03 0.  1.
         11   -1    0    0    0    0 -0.00000000000E+00 -0.00000000000E+00 -0.45593999997E+02  0.45594000000E+02  0.51100000000E-03 0. -1.
    9900012    2    1    2    0    0  0.19738221636E+02 -0.10572786720E+02 -0.22701095217E+02  0.59301938211E+02  0.49999989391E+02 0.  0.
        -12    1    1    2    0    0 -0.19738221636E+02  0.10572786720E+02  0.22701095217E+02  0.31886061789E+02  0.00000000000E+00 0.  1.
         11    1    3    3    0    0 -0.21329151420E+01  0.98146433681E+01 -0.13603900845E+02  0.16909839441E+02  0.51100000000E-03 0. -1.
        -11    1    3    3    0    0  0.99604814572E+01 -0.10878245006E+02  0.10103180623E+02  0.17877965886E+02  0.51100000000E-03 0.  1.
        -12    1    3    3    0    0  0.11910655321E+02 -0.95091850826E+01 -0.19200374995E+02  0.24514132883E+02  0.00000000000E+00 0.  1.
</event>
<event>
 7    1  0.6180395E-013  0.5930187E+02  0.7816164E-02  0.1266605E+00
        -11   -1    0    0    0    0  0.00000000000E+00  0.00000000000E+00  0.45593999997E+02  0.45594000000E+02  0.51100000000E-03 0.  1.
         11   -1    0    0    0    0 -0.00000000000E+00 -0.00000000000E+00 -0.45593999997E+02  0.45594000000E+02  0.51100000000E-03 0. -1.
    9900012    2    1    2    0    0  0.23665794768E+02 -0.60766538336E+01 -0.20487307708E+02  0.59301869145E+02  0.49999863431E+02 0.  0.
        -12    1    1    2    0    0 -0.23665794768E+02  0.60766538336E+01  0.20487307708E+02  0.31886130855E+02  0.00000000000E+00 0.  1.
         11    1    3    3    0    0  0.16396805603E+02 -0.38182770104E+00 -0.15544059736E+02  0.22596876326E+02  0.51100000000E-03 0. -1.
        -11    1    3    3    0    0 -0.13961394713E+02 -0.31094608989E+01 -0.54635997160E+01  0.15311440544E+02  0.51100000000E-03 0.  1.
        -12    1    3    3    0    0  0.21230383877E+02 -0.25853652337E+01  0.52035174349E+00  0.21393552274E+02  0.00000000000E+00 0.  1.
</event>
<event>
 7    1  0.6180395E-013  0.5930192E+02  0.7816164E-02  0.1266605E+00
        -11   -1    0    0    0    0  0.00000000000E+00  0.00000000000E+00  0.45593999997E+02  0.45594000000E+02  0.51100000000E-03 0.  1.
         11   -1    0    0    0    0 -0.00000000000E+00 -0.00000000000E+00 -0.45593999997E+02  0.45594000000E+02  0.51100000000E-03 0. -1.
    9900012    2    1    2    0    0 -0.68057711342E-01 -0.28482864201E+02 -0.14333305400E+02  0.59301924220E+02  0.49999963876E+02 0.  0.
        -12    1    1    2    0    0  0.68057711342E-01  0.28482864201E+02  0.14333305400E+02  0.31886075780E+02  0.00000000000E+00 0.  1.
         11    1    3    3    0    0 -0.17052788246E+02 -0.17095154177E+02 -0.21088863533E+02  0.32059040046E+02  0.51100000000E-03 0. -1.
        -11    1    3    3    0    0  0.21660171805E+01 -0.92103474840E+01  0.77522934694E+01  0.12231933024E+02  0.51100000000E-03 0.  1.
         12    1    3    3    0    0  0.14818713354E+02 -0.21773625391E+01 -0.99673533689E+00  0.15010951150E+02  0.00000000000E+00 0. -1.
</event>
<event>
 7    1  0.6180395E-013  0.5930191E+02  0.7816164E-02  0.1266605E+00
        -11   -1    0    0    0    0  0.00000000000E+00  0.00000000000E+00  0.45593999997E+02  0.45594000000E+02  0.51100000000E-03 0. -1.
         11   -1    0    0    0    0 -0.00000000000E+00 -0.00000000000E+00 -0.45593999997E+02  0.45594000000E+02  0.51100000000E-03 0.  1.
    9900012    2    1    2    0    0 -0.28431259567E+02 -0.40786360299E+00  0.14429816433E+02  0.59301914076E+02  0.49999945374E+02 0.  0.
        -12    1    1    2    0    0  0.28431259567E+02  0.40786360299E+00 -0.14429816433E+02  0.31886085924E+02  0.00000000000E+00 0.  1.
         11    1    3    3    0    0 -0.27001992019E+01  0.21411040277E+02 -0.98263692878E+00  0.21602992781E+02  0.51100000000E-03 0.  1.
        -11    1    3    3    0    0 -0.25760583151E+02 -0.21056339705E+02  0.14006676751E+02  0.36099363982E+02  0.51100000000E-03 0. -1.
        -12    1    3    3    0    0  0.29522786113E-01 -0.76256417562E+00  0.14057766113E+01  0.15995573130E+01  0.00000000000E+00 0.  1.
</event>
<event>
 7    1  0.6180395E-013  0.5930198E+02  0.7816164E-02  0.1266605E+00
        -11   -1    0    0    0    0  0.00000000000E+00  0.00000000000E+00  0.45593999997E+02  0.45594000000E+02  0.51100000000E-03 0. -1.
         11   -1    0    0    0    0 -0.00000000000E+00 -0.00000000000E+00 -0.45593999997E+02  0.45594000000E+02  0.51100000000E-03 0.  1.
    9900012    2    1    2    0    0 -0.24758940764E+02  0.14902759606E+02  0.13476673967E+02  0.59301982173E+02  0.50000069568E+02 0.  0.
        -12    1    1    2    0    0  0.24758940764E+02 -0.14902759606E+02 -0.13476673967E+02  0.31886017827E+02  0.00000000000E+00 0.  1.
         11    1    3    3    0    0 -0.36313555473E+01  0.12676277007E+02 -0.16145555587E+02  0.20845951821E+02  0.51100000000E-03 0.  1.
        -11    1    3    3    0    0 -0.16513647587E+02  0.21200477186E+01  0.12768023752E+02  0.20981362914E+02  0.51100000000E-03 0. -1.
         12    1    3    3    0    0 -0.46139376301E+01  0.10643488021E+00  0.16854205802E+02  0.17474667438E+02  0.00000000000E+00 0. -1.
</event>
<event>
 7    1  0.6180395E-013  0.5930192E+02  0.7816164E-02  0.1266605E+00
        -11   -1    0    0    0    0  0.00000000000E+00  0.00000000000E+00  0.45593999997E+02  0.45594000000E+02  0.51100000000E-03 0.  1.
         11   -1    0    0    0    0 -0.00000000000E+00 -0.00000000000E+00 -0.45593999997E+02  0.45594000000E+02  0.51100000000E-03 0. -1.
    9900012    2    1    2    0    0 -0.31831221890E+01  0.25737766362E+02 -0.18551471470E+02  0.59301921880E+02  0.49999959608E+02 0.  0.
        -12    1    1    2    0    0  0.31831221890E+01 -0.25737766362E+02  0.18551471470E+02  0.31886078120E+02  0.00000000000E+00 0.  1.
         11    1    3    3    0    0  0.29440837882E+00  0.35953473601E+02 -0.68587001025E+01  0.36603015008E+02  0.51100000000E-03 0.  1.
        -11    1    3    3    0    0  0.46402246551E+01 -0.60051661964E+01 -0.11215336223E+02  0.13541693866E+02  0.51100000000E-03 0. -1.
        -12    1    3    3    0    0 -0.81177552228E+01 -0.42105410434E+01 -0.47743514456E+00  0.91572130069E+01  0.00000000000E+00 0.  1.
</event>
<event>
 7    1  0.6180395E-013  0.5930193E+02  0.7816164E-02  0.1266605E+00
        -11   -1    0    0    0    0  0.00000000000E+00  0.00000000000E+00  0.45593999997E+02  0.45594000000E+02  0.51100000000E-03 0.  1.
         11   -1    0    0    0    0 -0.00000000000E+00 -0.00000000000E+00 -0.45593999997E+02  0.45594000000E+02  0.51100000000E-03 0. -1.
    9900012    2    1    2    0    0  0.13774028610E+02  0.42209552914E+01 -0.28446105732E+02  0.59301933152E+02  0.49999980165E+02 0.  0.
        -12    1    1    2    0    0 -0.13774028610E+02 -0.42209552914E+01  0.28446105732E+02  0.31886066848E+02  0.00000000000E+00 0.  1.
         11    1    3    3    0    0 -0.50374261854E+00 -0.18001988464E+02  0.10477720674E+01  0.18039489234E+02  0.51100000000E-03 0.  1.
        -11    1    3    3    0    0  0.13743744484E+02  0.14109726527E+02 -0.15445308792E+02  0.25030630417E+02  0.51100000000E-03 0. -1.
        -12    1    3    3    0    0  0.53402674388E+00  0.81132172275E+01 -0.14048569008E+02  0.16231813500E+02  0.00000000000E+00 0.  1.
</event>
<event>
 7    1  0.6180395E-013  0.5930192E+02  0.7816164E-02  0.1266605E+00
        -11   -1    0    0    0    0  0.00000000000E+00  0.00000000000E+00  0.45593999997E+02  0.45594000000E+02  0.51100000000E-03 0. -1.
         11   -1    0    0    0    0 -0.00000000000E+00 -0.00000000000E+00 -0.45593999997E+02  0.45594000000E+02  0.51100000000E-03 0.  1.
    9900012    2    1    2    0    0 -0.86436714901E+01 -0.23083110441E+02  0.20228174900E+02  0.59301919899E+02  0.49999955995E+02 0.  0.
        -12    1    1    2    0    0  0.86436714901E+01  0.23083110441E+02 -0.20228174900E+02  0.31886080101E+02  0.00000000000E+00 0.  1.
         11    1    3    3    0    0  0.32965563077E+01 -0.17661354918E+02  0.12704399972E+02  0.22004375018E+02  0.51100000000E-03 0. -1.
        -11    1    3    3    0    0 -0.12458308707E+02  0.13026231825E+02  0.27347540831E+01  0.18231046365E+02  0.51100000000E-03 0.  1.
        -12    1    3    3    0    0  0.51808090936E+00 -0.18447987348E+02  0.47890208442E+01  0.19066498516E+02  0.00000000000E+00 0.  1.
</event>
<event>
 7    1  0.6180395E-013  0.5930197E+02  0.7816164E-02  0.1266605E+00
        -11   -1    0    0    0    0  0.00000000000E+00  0.00000000000E+00  0.45593999997E+02  0.45594000000E+02  0.51100000000E-03 0. -1.
         11   -1    0    0    0    0 -0.00000000000E+00 -0.00000000000E+00 -0.45593999997E+02  0.45594000000E+02  0.51100000000E-03 0.  1.
    9900012    2    1    2    0    0  0.16089408461E+02 -0.26849278164E+02  0.60799623340E+01  0.59301972582E+02  0.50000052076E+02 0.  0.
        -12    1    1    2    0    0 -0.16089408461E+02  0.26849278164E+02 -0.60799623340E+01  0.31886027418E+02  0.00000000000E+00 0.  1.
         11    1    3    3    0    0  0.23880048094E+02 -0.59783981755E+01  0.14729668572E+02  0.28687298204E+02  0.51100000000E-03 0. -1.
        -11    1    3    3    0    0 -0.13995074899E+02 -0.12480443498E+02 -0.39170401806E+01  0.19156377407E+02  0.51100000000E-03 0.  1.
        -12    1    3    3    0    0  0.62044352658E+01 -0.83904364900E+01 -0.47326660574E+01  0.11458296971E+02  0.00000000000E+00 0.  1.
</event>
<event>
 7    1  0.6180395E-013  0.5930195E+02  0.7816164E-02  0.1266605E+00
        -11   -1    0    0    0    0  0.00000000000E+00  0.00000000000E+00  0.45593999997E+02  0.45594000000E+02  0.51100000000E-03 0.  1.
         11   -1    0    0    0    0 -0.00000000000E+00 -0.00000000000E+00 -0.45593999997E+02  0.45594000000E+02  0.51100000000E-03 0. -1.
    9900012    2    1    2    0    0  0.19466233916E+02  0.23775230665E+02  0.85161364878E+01  0.59301946046E+02  0.50000003681E+02 0.  0.
        -12    1    1    2    0    0 -0.19466233916E+02 -0.23775230665E+02 -0.85161364878E+01  0.31886053954E+02  0.00000000000E+00 0.  1.
         11    1    3    3    0    0 -0.27975837278E+01 -0.58516428146E+01 -0.19794059967E+01  0.67813160009E+01  0.51100000000E-03 0. -1.
        -11    1    3    3    0    0  0.24603764968E+02  0.23930172368E+02 -0.60634711648E+01  0.34853465868E+02  0.51100000000E-03 0.  1.
        -12    1    3    3    0    0 -0.23399473243E+01  0.56967011114E+01  0.16559013649E+02  0.17667164177E+02  0.00000000000E+00 0.  1.
</event>
<event>
 7    1  0.6180395E-013  0.5930197E+02  0.7816164E-02  0.1266605E+00
        -11   -1    0    0    0    0  0.00000000000E+00  0.00000000000E+00  0.45593999997E+02  0.45594000000E+02  0.51100000000E-03 0.  1.
         11   -1    0    0    0    0 -0.00000000000E+00 -0.00000000000E+00 -0.45593999997E+02  0.45594000000E+02  0.51100000000E-03 0. -1.
    9900012    2    1    2    0    0  0.21147526536E+02 -0.24025793726E-01 -0.23864213969E+02  0.59301966001E+02  0.50000040073E+02 0.  0.
        -12    1    1    2    0    0 -0.21147526536E+02  0.24025793726E-01  0.23864213969E+02  0.31886033999E+02  0.00000000000E+00 0.  1.
         11    1    3    3    0    0  0.12490565039E+01 -0.15152503083E+02 -0.84625425994E+01  0.17400376988E+02  0.51100000000E-03 0. -1.
        -11    1    3    3    0    0  0.10982059376E+02  0.10659951001E+02  0.74104384728E+01  0.17004551806E+02  0.51100000000E-03 0.  1.
        -12    1    3    3    0    0  0.89164106559E+01  0.44685262879E+01 -0.22812109843E+02  0.24897037206E+02  0.00000000000E+00 0.  1.
</event>
<event>
 7    1  0.6180395E-013  0.5930194E+02  0.7816164E-02  0.1266605E+00
        -11   -1    0    0    0    0  0.00000000000E+00  0.00000000000E+00  0.45593999997E+02  0.45594000000E+02  0.51100000000E-03 0. -1.
         11   -1    0    0    0    0 -0.00000000000E+00 -0.00000000000E+00 -0.45593999997E+02  0.45594000000E+02  0.51100000000E-03 0.  1.
    9900012    2    1    2    0    0 -0.26021651773E+02  0.14692992400E+02  0.11122521649E+02  0.59301939182E+02  0.49999991163E+02 0.  0.
        -12    1    1    2    0    0  0.26021651773E+02 -0.14692992400E+02 -0.11122521649E+02  0.31886060818E+02  0.00000000000E+00 0.  1.
         11    1    3    3    0    0  0.27709698838E+01  0.20266013834E+01  0.95610561883E+01  0.10158699866E+02  0.51100000000E-03 0. -1.
        -11    1    3    3    0    0 -0.26989947119E+02  0.22712947283E+02  0.91286010635E+01  0.36437159294E+02  0.51100000000E-03 0.  1.
        -12    1    3    3    0    0 -0.18026745379E+01 -0.10046556267E+02 -0.75671356032E+01  0.12706080023E+02  0.00000000000E+00 0.  1.
</event>
<event>
 7    1  0.6180395E-013  0.5930201E+02  0.7816164E-02  0.1266605E+00
        -11   -1    0    0    0    0  0.00000000000E+00  0.00000000000E+00  0.45593999997E+02  0.45594000000E+02  0.51100000000E-03 0. -1.
         11   -1    0    0    0    0 -0.00000000000E+00 -0.00000000000E+00 -0.45593999997E+02  0.45594000000E+02  0.51100000000E-03 0.  1.
    9900012    2    1    2    0    0 -0.62526307429E+01  0.31174524812E+02 -0.24021178128E+01  0.59302006861E+02  0.50000114592E+02 0.  0.
        -12    1    1    2    0    0  0.62526307429E+01 -0.31174524812E+02  0.24021178128E+01  0.31885993139E+02  0.00000000000E+00 0.  1.
         11    1    3    3    0    0 -0.18367405724E+02  0.34014722227E+02 -0.11983301966E+02  0.40471748757E+02  0.51100000000E-03 0. -1.
        -11    1    3    3    0    0  0.11089578520E+02 -0.58790265246E+01  0.56714231554E+01  0.13773407185E+02  0.51100000000E-03 0.  1.
        -12    1    3    3    0    0  0.10251964612E+01  0.30388291102E+01  0.39097609981E+01  0.50568509181E+01  0.00000000000E+00 0.  1.
</event>
<event>
 7    1  0.6180395E-013  0.5930197E+02  0.7816164E-02  0.1266605E+00
        -11   -1    0    0    0    0  0.00000000000E+00  0.00000000000E+00  0.45593999997E+02  0.45594000000E+02  0.51100000000E-03 0.  1.
         11   -1    0    0    0    0 -0.00000000000E+00 -0.00000000000E+00 -0.45593999997E+02  0.45594000000E+02  0.51100000000E-03 0. -1.
    9900012    2    1    2    0    0  0.10540987706E+02  0.25033527992E+02 -0.16701175830E+02  0.59301965131E+02  0.50000038488E+02 0.  0.
        -12    1    1    2    0    0 -0.10540987706E+02 -0.25033527992E+02  0.16701175830E+02  0.31886034869E+02  0.00000000000E+00 0.  1.
         11    1    3    3    0    0  0.39210458551E+01 -0.18945829350E+01 -0.20247240975E+02  0.20710258628E+02  0.51100000000E-03 0. -1.
        -11    1    3    3    0    0  0.14118580949E+02  0.27459119156E+02  0.35022839675E+01  0.31074162034E+02  0.51100000000E-03 0.  1.
        -12    1    3    3    0    0 -0.74986390976E+01 -0.53100822953E+00  0.43781177051E-01  0.75175444693E+01  0.00000000000E+00 0.  1.
</event>
<event>
 7    1  0.6180395E-013  0.5930195E+02  0.7816164E-02  0.1266605E+00
        -11   -1    0    0    0    0  0.00000000000E+00  0.00000000000E+00  0.45593999997E+02  0.45594000000E+02  0.51100000000E-03 0.  1.
         11   -1    0    0    0    0 -0.00000000000E+00 -0.00000000000E+00 -0.45593999997E+02  0.45594000000E+02  0.51100000000E-03 0. -1.
    9900012    2    1    2    0    0 -0.25027526049E+01 -0.18870038368E+02 -0.25580808714E+02  0.59301954571E+02  0.50000019229E+02 0.  0.
        -12    1    1    2    0    0  0.25027526049E+01  0.18870038368E+02  0.25580808714E+02  0.31886045429E+02  0.00000000000E+00 0.  1.
         11    1    3    3    0    0 -0.27452674902E+01 -0.11541295935E+02 -0.27606495867E+01  0.12180278809E+02  0.51100000000E-03 0. -1.
        -11    1    3    3    0    0  0.77344179934E+01  0.12240930698E+02  0.20239203787E+01  0.14620460322E+02  0.51100000000E-03 0.  1.
        -12    1    3    3    0    0 -0.74919031081E+01 -0.19569673131E+02 -0.24844079506E+02  0.32501215441E+02  0.00000000000E+00 0.  1.
</event>
<event>
 7    1  0.6180395E-013  0.5930192E+02  0.7816164E-02  0.1266605E+00
        -11   -1    0    0    0    0  0.00000000000E+00  0.00000000000E+00  0.45593999997E+02  0.45594000000E+02  0.51100000000E-03 0. -1.
         11   -1    0    0    0    0 -0.00000000000E+00 -0.00000000000E+00 -0.45593999997E+02  0.45594000000E+02  0.51100000000E-03 0.  1.
    9900012    2    1    2    0    0  0.89037008937E+01  0.37165606494E+01  0.30391334761E+02  0.59301922455E+02  0.49999960657E+02 0.  0.
        -12    1    1    2    0    0 -0.89037008937E+01 -0.37165606494E+01 -0.30391334761E+02  0.31886077545E+02  0.00000000000E+00 0.  1.
         11    1    3    3    0    0 -0.17020633317E+02 -0.20683193416E+01  0.54948813791E+01  0.18004822272E+02  0.51100000000E-03 0. -1.
        -11    1    3    3    0    0  0.13001009997E+02 -0.20890536867E+01  0.12555766365E+01  0.13227504648E+02  0.51100000000E-03 0.  1.
         12    1    3    3    0    0  0.12923324213E+02  0.78739336778E+01  0.23640876745E+02  0.28069595536E+02  0.00000000000E+00 0. -1.
</event>
<event>
 7    1  0.6180395E-013  0.5930192E+02  0.7816164E-02  0.1266605E+00
        -11   -1    0    0    0    0  0.00000000000E+00  0.00000000000E+00  0.45593999997E+02  0.45594000000E+02  0.51100000000E-03 0.  1.
         11   -1    0    0    0    0 -0.00000000000E+00 -0.00000000000E+00 -0.45593999997E+02  0.45594000000E+02  0.51100000000E-03 0. -1.
    9900012    2    1    2    0    0 -0.10019980676E+02  0.25098033161E+02 -0.16923668792E+02  0.59301923937E+02  0.49999963360E+02 0.  0.
        -12    1    1    2    0    0  0.10019980676E+02 -0.25098033161E+02  0.16923668792E+02  0.31886076063E+02  0.00000000000E+00 0.  1.
         11    1    3    3    0    0 -0.10591560156E+02  0.13607597513E+02  0.59540543183E+01  0.18242768970E+02  0.51100000000E-03 0. -1.
        -11    1    3    3    0    0 -0.13395750620E+02  0.22824891166E+01 -0.19853480148E+02  0.24058606890E+02  0.51100000000E-03 0.  1.
        -12    1    3    3    0    0  0.13967330099E+02  0.92079465314E+01 -0.30242429614E+01  0.17000548077E+02  0.00000000000E+00 0.  1.
</event>
<event>
 7    1  0.6180395E-013  0.5930193E+02  0.7816164E-02  0.1266605E+00
        -11   -1    0    0    0    0  0.00000000000E+00  0.00000000000E+00  0.45593999997E+02  0.45594000000E+02  0.51100000000E-03 0. -1.
         11   -1    0    0    0    0 -0.00000000000E+00 -0.00000000000E+00 -0.45593999997E+02  0.45594000000E+02  0.51100000000E-03 0.  1.
    9900012    2    1    2    0    0 -0.13302502833E+02 -0.25474120662E+02  0.13814274283E+02  0.59301928134E+02  0.49999971013E+02 0.  0.
        -12    1    1    2    0    0  0.13302502833E+02  0.25474120662E+02 -0.13814274283E+02  0.31886071866E+02  0.00000000000E+00 0.  1.
         11    1    3    3    0    0 -0.10183827989E+02 -0.90880543341E+01  0.18918568910E+02  0.23328423306E+02  0.51100000000E-03 0. -1.
        -11    1    3    3    0    0 -0.38834963506E+01 -0.60477813037E+01 -0.18026808286E+02  0.19406777678E+02  0.51100000000E-03 0.  1.
        -12    1    3    3    0    0  0.76482150662E+00 -0.10338285024E+02  0.12922513660E+02  0.16566727150E+02  0.00000000000E+00 0.  1.
</event>
<event>
 7    1  0.6180395E-013  0.5930194E+02  0.7816164E-02  0.1266605E+00
        -11   -1    0    0    0    0  0.00000000000E+00  0.00000000000E+00  0.45593999997E+02  0.45594000000E+02  0.51100000000E-03 0.  1.
         11   -1    0    0    0    0 -0.00000000000E+00 -0.00000000000E+00 -0.45593999997E+02  0.45594000000E+02  0.51100000000E-03 0. -1.
    9900012    2    1    2    0    0 -0.19441438629E+02 -0.13649923087E+02  0.21270426921E+02  0.59301937251E+02  0.49999987641E+02 0.  0.
        -12    1    1    2    0    0  0.19441438629E+02  0.13649923087E+02 -0.21270426921E+02  0.31886062749E+02  0.00000000000E+00 0.  1.
         11    1    3    3    0    0 -0.27712044701E+01 -0.10334834286E+02 -0.87577867014E+01  0.13827046037E+02  0.51100000000E-03 0. -1.
        -11    1    3    3    0    0 -0.11384307549E+02  0.12391695554E+02  0.19865966436E+02  0.26034845876E+02  0.51100000000E-03 0.  1.
         12    1    3    3    0    0 -0.52859266100E+01 -0.15706784355E+02  0.10162247186E+02  0.19440045339E+02  0.00000000000E+00 0. -1.
</event>
<event>
 7    1  0.6180395E-013  0.5930193E+02  0.7816164E-02  0.1266605E+00
        -11   -1    0    0    0    0  0.00000000000E+00  0.00000000000E+00  0.45593999997E+02  0.45594000000E+02  0.51100000000E-03 0. -1.
         11   -1    0    0    0    0 -0.00000000000E+00 -0.00000000000E+00 -0.45593999997E+02  0.45594000000E+02  0.51100000000E-03 0.  1.
    9900012    2    1    2    0    0 -0.93550051757E-01  0.31044718814E+02  0.72758529134E+01  0.59301931671E+02  0.49999977464E+02 0.  0.
        -12    1    1    2    0    0  0.93550051757E-01 -0.31044718814E+02 -0.72758529134E+01  0.31886068329E+02  0.00000000000E+00 0.  1.
         11    1    3    3    0    0  0.11349656292E+02 -0.15846697695E+00  0.17191437012E+02  0.20600614470E+02  0.51100000000E-03 0.  1.
        -11    1    3    3    0    0 -0.46196796486E+01  0.54460747049E+01  0.44653331747E+01  0.84226106623E+01  0.51100000000E-03 0. -1.
         12    1    3    3    0    0 -0.68235266950E+01  0.25757111086E+02 -0.14380917273E+02  0.30278706539E+02  0.00000000000E+00 0. -1.
</event>
<event>
 7    1  0.6180395E-013  0.5930186E+02  0.7816164E-02  0.1266605E+00
        -11   -1    0    0    0    0  0.00000000000E+00  0.00000000000E+00  0.45593999997E+02  0.45594000000E+02  0.51100000000E-03 0. -1.
         11   -1    0    0    0    0 -0.00000000000E+00 -0.00000000000E+00 -0.45593999997E+02  0.45594000000E+02  0.51100000000E-03 0.  1.
    9900012    2    1    2    0    0 -0.24926306018E+02  0.19228558464E+02  0.50663483901E+01  0.59301857581E+02  0.49999842342E+02 0.  0.
        -12    1    1    2    0    0  0.24926306018E+02 -0.19228558464E+02 -0.50663483901E+01  0.31886142419E+02  0.00000000000E+00 0.  1.
         11    1    3    3    0    0 -0.96568349638E+01 -0.18187849296E+01  0.10019238063E+02  0.14033801045E+02  0.51100000000E-03 0. -1.
        -11    1    3    3    0    0 -0.17857925556E+02  0.49539400030E+01 -0.16882101124E+02  0.25068952219E+02  0.51100000000E-03 0.  1.
        -12    1    3    3    0    0  0.25884545016E+01  0.16093403391E+02  0.11929211451E+02  0.20199104318E+02  0.00000000000E+00 0.  1.
</event>
<event>
 7    1  0.6180395E-013  0.5930197E+02  0.7816164E-02  0.1266605E+00
        -11   -1    0    0    0    0  0.00000000000E+00  0.00000000000E+00  0.45593999997E+02  0.45594000000E+02  0.51100000000E-03 0. -1.
         11   -1    0    0    0    0 -0.00000000000E+00 -0.00000000000E+00 -0.45593999997E+02  0.45594000000E+02  0.51100000000E-03 0.  1.
    9900012    2    1    2    0    0 -0.10907487930E+02  0.62574205607E+01  0.29301716796E+02  0.59301965248E+02  0.50000038700E+02 0.  0.
        -12    1    1    2    0    0  0.10907487930E+02 -0.62574205607E+01 -0.29301716796E+02  0.31886034752E+02  0.00000000000E+00 0.  1.
         11    1    3    3    0    0  0.24284755373E+01 -0.58330585531E+01  0.27943677945E+02  0.28649104748E+02  0.51100000000E-03 0. -1.
        -11    1    3    3    0    0 -0.11741537097E+02  0.12306948843E+02  0.11404120132E+02  0.20478736277E+02  0.51100000000E-03 0.  1.
         12    1    3    3    0    0 -0.15944263704E+01 -0.21646972946E+00 -0.10046081281E+02  0.10174124223E+02  0.00000000000E+00 0. -1.
</event>
<event>
 7    1  0.6180395E-013  0.5930193E+02  0.7816164E-02  0.1266605E+00
        -11   -1    0    0    0    0  0.00000000000E+00  0.00000000000E+00  0.45593999997E+02  0.45594000000E+02  0.51100000000E-03 0. -1.
         11   -1    0    0    0    0 -0.00000000000E+00 -0.00000000000E+00 -0.45593999997E+02  0.45594000000E+02  0.51100000000E-03 0.  1.
    9900012    2    1    2    0    0 -0.13183289460E+02 -0.83209967713E+01  0.27815159292E+02  0.59301934161E+02  0.49999982005E+02 0.  0.
        -12    1    1    2    0    0  0.13183289460E+02  0.83209967713E+01 -0.27815159292E+02  0.31886065839E+02  0.00000000000E+00 0.  1.
         11    1    3    3    0    0 -0.20622202262E+02 -0.24096134688E+01  0.71850813688E+01  0.21970590746E+02  0.51100000000E-03 0. -1.
        -11    1    3    3    0    0  0.72807538249E+01  0.11429393761E+02  0.11268017440E+02  0.17624092467E+02  0.51100000000E-03 0.  1.
        -12    1    3    3    0    0  0.15815897719E+00 -0.17340777063E+02  0.93620604832E+01  0.19707250948E+02  0.00000000000E+00 0.  1.
</event>
<event>
 7    1  0.6180395E-013  0.5930195E+02  0.7816164E-02  0.1266605E+00
        -11   -1    0    0    0    0  0.00000000000E+00  0.00000000000E+00  0.45593999997E+02  0.45594000000E+02  0.51100000000E-03 0. -1.
         11   -1    0    0    0    0 -0.00000000000E+00 -0.00000000000E+00 -0.45593999997E+02  0.45594000000E+02  0.51100000000E-03 0.  1.
    9900012    2    1    2    0    0 -0.29348199572E+01 -0.39707167636E+01  0.31501436538E+02  0.59301948758E+02  0.50000008628E+02 0.  0.
        -12    1    1    2    0    0  0.29348199572E+01  0.39707167636E+01 -0.31501436538E+02  0.31886051242E+02  0.00000000000E+00 0.  1.
         11    1    3    3    0    0 -0.34893505601E+00 -0.14900321164E+02  0.25334666191E+02  0.29393649616E+02  0.51100000000E-03 0. -1.
        -11    1    3    3    0    0  0.25576373082E+01  0.15886606796E+02  0.12488906541E+02  0.20369059157E+02  0.51100000000E-03 0.  1.
        -12    1    3    3    0    0 -0.51435222094E+01 -0.49570023948E+01 -0.63221361933E+01  0.95392399859E+01  0.00000000000E+00 0.  1.
</event>
<event>
 7    1  0.6180395E-013  0.5930194E+02  0.7816164E-02  0.1266605E+00
        -11   -1    0    0    0    0  0.00000000000E+00  0.00000000000E+00  0.45593999997E+02  0.45594000000E+02  0.51100000000E-03 0. -1.
         11   -1    0    0    0    0 -0.00000000000E+00 -0.00000000000E+00 -0.45593999997E+02  0.45594000000E+02  0.51100000000E-03 0.  1.
    9900012    2    1    2    0    0 -0.33323246324E+01  0.26171018284E+02 -0.17907931314E+02  0.59301943653E+02  0.49999999316E+02 0.  0.
        -12    1    1    2    0    0  0.33323246324E+01 -0.26171018284E+02  0.17907931314E+02  0.31886056347E+02  0.00000000000E+00 0.  1.
         11    1    3    3    0    0  0.78340093045E+01  0.30885759134E+02  0.40388281902E+01  0.32118747679E+02  0.51100000000E-03 0. -1.
        -11    1    3    3    0    0  0.16570271188E+01 -0.25315395178E+01 -0.38556292769E+01  0.49010517835E+01  0.51100000000E-03 0.  1.
         12    1    3    3    0    0 -0.12823361056E+02 -0.21832013324E+01 -0.18091130227E+02  0.22282144190E+02  0.00000000000E+00 0. -1.
</event>
<event>
 7    1  0.6180395E-013  0.5930194E+02  0.7816164E-02  0.1266605E+00
        -11   -1    0    0    0    0  0.00000000000E+00  0.00000000000E+00  0.45593999997E+02  0.45594000000E+02  0.51100000000E-03 0.  1.
         11   -1    0    0    0    0 -0.00000000000E+00 -0.00000000000E+00 -0.45593999997E+02  0.45594000000E+02  0.51100000000E-03 0. -1.
    9900012    2    1    2    0    0 -0.45723728430E+01  0.13575476630E+02 -0.28487204250E+02  0.59301937760E+02  0.49999988570E+02 0.  0.
        -12    1    1    2    0    0  0.45723728430E+01 -0.13575476630E+02  0.28487204250E+02  0.31886062240E+02  0.00000000000E+00 0.  1.
         11    1    3    3    0    0 -0.22424606742E+02 -0.47263357299E+00 -0.71392524751E+01  0.23538379217E+02  0.51100000000E-03 0.  1.
        -11    1    3    3    0    0  0.61537019425E+01 -0.36976974020E+01 -0.33957866680E+01  0.79418122006E+01  0.51100000000E-03 0. -1.
         12    1    3    3    0    0  0.11698531956E+02  0.17745807605E+02 -0.17952165107E+02  0.27821746342E+02  0.00000000000E+00 0. -1.
</event>
<event>
 7    1  0.6180395E-013  0.5930194E+02  0.7816164E-02  0.1266605E+00
        -11   -1    0    0    0    0  0.00000000000E+00  0.00000000000E+00  0.45593999997E+02  0.45594000000E+02  0.51100000000E-03 0. -1.
         11   -1    0    0    0    0 -0.00000000000E+00 -0.00000000000E+00 -0.45593999997E+02  0.45594000000E+02  0.51100000000E-03 0.  1.
    9900012    2    1    2    0    0 -0.85829672517E+01  0.28000889761E+02  0.12609665472E+02  0.59301940074E+02  0.49999992790E+02 0.  0.
        -12    1    1    2    0    0  0.85829672517E+01 -0.28000889761E+02 -0.12609665472E+02  0.31886059926E+02  0.00000000000E+00 0.  1.
         11    1    3    3    0    0 -0.25451442482E+02  0.22000078913E+02  0.89659830192E+01  0.34816206691E+02  0.51100000000E-03 0. -1.
        -11    1    3    3    0    0  0.88228823257E+01  0.10896163888E+02  0.51735907484E+01  0.14944419744E+02  0.51100000000E-03 0.  1.
         12    1    3    3    0    0  0.80455929046E+01 -0.48953530392E+01 -0.15299082957E+01  0.95413136390E+01  0.00000000000E+00 0. -1.
</event>
<event>
 7    1  0.6180395E-013  0.5930194E+02  0.7816164E-02  0.1266605E+00
        -11   -1    0    0    0    0  0.00000000000E+00  0.00000000000E+00  0.45593999997E+02  0.45594000000E+02  0.51100000000E-03 0.  1.
         11   -1    0    0    0    0 -0.00000000000E+00 -0.00000000000E+00 -0.45593999997E+02  0.45594000000E+02  0.51100000000E-03 0. -1.
    9900012    2    1    2    0    0 -0.86403753298E+01  0.26150249346E+02 -0.16069512218E+02  0.59301939572E+02  0.49999991874E+02 0.  0.
        -12    1    1    2    0    0  0.86403753298E+01 -0.26150249346E+02  0.16069512218E+02  0.31886060428E+02  0.00000000000E+00 0.  1.
         11    1    3    3    0    0 -0.12119515205E+02  0.98060966657E+01 -0.19578411693E+02  0.25027113003E+02  0.51100000000E-03 0. -1.
        -11    1    3    3    0    0 -0.69306373995E+00  0.13062468690E+02  0.16021261532E+02  0.20683066672E+02  0.51100000000E-03 0.  1.
        -12    1    3    3    0    0  0.41722036152E+01  0.32816839896E+01 -0.12512362058E+02  0.13591759896E+02  0.00000000000E+00 0.  1.
</event>
<event>
 7    1  0.6180395E-013  0.5930196E+02  0.7816164E-02  0.1266605E+00
        -11   -1    0    0    0    0  0.00000000000E+00  0.00000000000E+00  0.45593999997E+02  0.45594000000E+02  0.51100000000E-03 0.  1.
         11   -1    0    0    0    0 -0.00000000000E+00 -0.00000000000E+00 -0.45593999997E+02  0.45594000000E+02  0.51100000000E-03 0. -1.
    9900012    2    1    2    0    0  0.12781976293E+02 -0.14858239852E+02 -0.25151007788E+02  0.59301962269E+02  0.50000033267E+02 0.  0.
        -12    1    1    2    0    0 -0.12781976293E+02  0.14858239852E+02  0.25151007788E+02  0.31886037731E+02  0.00000000000E+00 0.  1.
         11    1    3    3    0    0  0.10891075414E+02 -0.17274807001E+02  0.15443604406E+01  0.20479734618E+02  0.51100000000E-03 0.  1.
        -11    1    3    3    0    0 -0.32989009182E+01  0.14538975434E+02 -0.12595257216E+02  0.19516789145E+02  0.51100000000E-03 0. -1.
         12    1    3    3    0    0  0.51898017975E+01 -0.12122408285E+02 -0.14100111012E+02  0.19305438505E+02  0.00000000000E+00 0. -1.
</event>
<event>
 7    1  0.6180395E-013  0.5930210E+02  0.7816164E-02  0.1266604E+00
        -11   -1    0    0    0    0  0.00000000000E+00  0.00000000000E+00  0.45593999997E+02  0.45594000000E+02  0.51100000000E-03 0. -1.
         11   -1    0    0    0    0 -0.00000000000E+00 -0.00000000000E+00 -0.45593999997E+02  0.45594000000E+02  0.51100000000E-03 0.  1.
    9900012    2    1    2    0    0  0.16296126218E+02  0.38774398969E+01  0.27131385981E+02  0.59302103821E+02  0.50000291424E+02 0.  0.
        -12    1    1    2    0    0 -0.16296126218E+02 -0.38774398969E+01 -0.27131385981E+02  0.31885896179E+02  0.00000000000E+00 0.  1.
         11    1    3    3    0    0  0.56007124254E+00  0.46862382440E+01  0.34434785575E+01  0.58422644166E+01  0.51100000000E-03 0. -1.
        -11    1    3    3    0    0  0.34676503068E+01 -0.22627301926E+02  0.11033588663E+02  0.25411797853E+02  0.51100000000E-03 0.  1.
        -12    1    3    3    0    0  0.12268404669E+02  0.21818503579E+02  0.12654318761E+02  0.28048041551E+02  0.00000000000E+00 0.  1.
</event>
<event>
 7    1  0.6180395E-013  0.5930197E+02  0.7816164E-02  0.1266605E+00
        -11   -1    0    0    0    0  0.00000000000E+00  0.00000000000E+00  0.45593999997E+02  0.45594000000E+02  0.51100000000E-03 0. -1.
         11   -1    0    0    0    0 -0.00000000000E+00 -0.00000000000E+00 -0.45593999997E+02  0.45594000000E+02  0.51100000000E-03 0.  1.
    9900012    2    1    2    0    0 -0.19925933050E+02 -0.19470020339E+02 -0.15511098668E+02  0.59301973565E+02  0.50000053869E+02 0.  0.
        -12    1    1    2    0    0  0.19925933050E+02  0.19470020339E+02  0.15511098668E+02  0.31886026435E+02  0.00000000000E+00 0.  1.
         11    1    3    3    0    0  0.12608055907E+02  0.49490790005E+01 -0.97421978565E+01  0.16684330255E+02  0.51100000000E-03 0.  1.
        -11    1    3    3    0    0 -0.15914984021E+02 -0.18046007333E+02 -0.60734002547E+01  0.24815948259E+02  0.51100000000E-03 0. -1.
        -12    1    3    3    0    0 -0.16619004936E+02 -0.63730920064E+01  0.30449944283E+00  0.17801695051E+02  0.00000000000E+00 0.  1.
</event>
<event>
 7    1  0.6180395E-013  0.5930194E+02  0.7816164E-02  0.1266605E+00
        -11   -1    0    0    0    0  0.00000000000E+00  0.00000000000E+00  0.45593999997E+02  0.45594000000E+02  0.51100000000E-03 0. -1.
         11   -1    0    0    0    0 -0.00000000000E+00 -0.00000000000E+00 -0.45593999997E+02  0.45594000000E+02  0.51100000000E-03 0.  1.
    9900012    2    1    2    0    0  0.16434011528E+02  0.12327308379E+02  0.24386094362E+02  0.59301939331E+02  0.49999991434E+02 0.  0.
        -12    1    1    2    0    0 -0.16434011528E+02 -0.12327308379E+02 -0.24386094362E+02  0.31886060669E+02  0.00000000000E+00 0.  1.
         11    1    3    3    0    0  0.17767286625E+01  0.95036002850E+01 -0.10417926518E+02  0.14212965078E+02  0.51100000000E-03 0. -1.
        -11    1    3    3    0    0  0.19525273551E+02 -0.11258505186E+01  0.16003330612E+02  0.25270742719E+02  0.51100000000E-03 0.  1.
         12    1    3    3    0    0 -0.48679906858E+01  0.39495586122E+01  0.18800690269E+02  0.19818231534E+02  0.00000000000E+00 0. -1.
</event>
<event>
 7    1  0.6180395E-013  0.5930195E+02  0.7816164E-02  0.1266605E+00
        -11   -1    0    0    0    0  0.00000000000E+00  0.00000000000E+00  0.45593999997E+02  0.45594000000E+02  0.51100000000E-03 0. -1.
         11   -1    0    0    0    0 -0.00000000000E+00 -0.00000000000E+00 -0.45593999997E+02  0.45594000000E+02  0.51100000000E-03 0.  1.
    9900012    2    1    2    0    0  0.12048840564E+02 -0.17186128016E+02  0.24003805046E+02  0.59301949574E+02  0.50000010114E+02 0.  0.
        -12    1    1    2    0    0 -0.12048840564E+02  0.17186128016E+02 -0.24003805046E+02  0.31886050426E+02  0.00000000000E+00 0.  1.
         11    1    3    3    0    0  0.83682717177E+01 -0.28137728340E+02  0.16457038480E+02  0.33654031608E+02  0.51100000000E-03 0. -1.
        -11    1    3    3    0    0 -0.19446680612E+01  0.85269091237E+01 -0.61177800376E+01  0.10673197549E+02  0.51100000000E-03 0.  1.
         12    1    3    3    0    0  0.56252369075E+01  0.24246911998E+01  0.13664546604E+02  0.14974720417E+02  0.00000000000E+00 0. -1.
</event>
<event>
 7    1  0.6180395E-013  0.5930195E+02  0.7816164E-02  0.1266605E+00
        -11   -1    0    0    0    0  0.00000000000E+00  0.00000000000E+00  0.45593999997E+02  0.45594000000E+02  0.51100000000E-03 0.  1.
         11   -1    0    0    0    0 -0.00000000000E+00 -0.00000000000E+00 -0.45593999997E+02  0.45594000000E+02  0.51100000000E-03 0. -1.
    9900012    2    1    2    0    0  0.18578327179E+01 -0.32025437992E+01 -0.31670373361E+02  0.59301946967E+02  0.50000005360E+02 0.  0.
        -12    1    1    2    0    0 -0.18578327179E+01  0.32025437992E+01  0.31670373361E+02  0.31886053033E+02  0.00000000000E+00 0.  1.
         11    1    3    3    0    0 -0.68811462614E+01 -0.88470349153E+01 -0.13124623342E+01  0.11284624863E+02  0.51100000000E-03 0. -1.
        -11    1    3    3    0    0 -0.28643087374E+01  0.18326660451E+02 -0.22377339551E+02  0.29065719903E+02  0.51100000000E-03 0.  1.
        -12    1    3    3    0    0  0.11603287717E+02 -0.12682169335E+02 -0.79805714758E+01  0.18951602200E+02  0.00000000000E+00 0.  1.
</event>
<event>
 7    1  0.6180395E-013  0.5930194E+02  0.7816164E-02  0.1266605E+00
        -11   -1    0    0    0    0  0.00000000000E+00  0.00000000000E+00  0.45593999997E+02  0.45594000000E+02  0.51100000000E-03 0. -1.
         11   -1    0    0    0    0 -0.00000000000E+00 -0.00000000000E+00 -0.45593999997E+02  0.45594000000E+02  0.51100000000E-03 0.  1.
    9900012    2    1    2    0    0  0.27505110578E+02  0.14625234773E+02  0.68038380461E+01  0.59301940158E+02  0.49999992943E+02 0.  0.
        -12    1    1    2    0    0 -0.27505110578E+02 -0.14625234773E+02 -0.68038380461E+01  0.31886059842E+02  0.00000000000E+00 0.  1.
         11    1    3    3    0    0  0.12601199112E+01  0.64122514500E+01  0.13348265928E+02  0.14862068308E+02  0.51100000000E-03 0.  1.
        -11    1    3    3    0    0  0.13446010606E+02 -0.12983416213E+02 -0.61459063683E+01  0.19675783672E+02  0.51100000000E-03 0. -1.
         12    1    3    3    0    0  0.12798980061E+02  0.21196399536E+02 -0.39852151352E+00  0.24764088178E+02  0.00000000000E+00 0. -1.
</event>
<event>
 7    1  0.6180395E-013  0.5930195E+02  0.7816164E-02  0.1266605E+00
        -11   -1    0    0    0    0  0.00000000000E+00  0.00000000000E+00  0.45593999997E+02  0.45594000000E+02  0.51100000000E-03 0.  1.
         11   -1    0    0    0    0 -0.00000000000E+00 -0.00000000000E+00 -0.45593999997E+02  0.45594000000E+02  0.51100000000E-03 0. -1.
    9900012    2    1    2    0    0 -0.27232375990E+02 -0.10208802100E+02 -0.13072813100E+02  0.59301946862E+02  0.50000005169E+02 0.  0.
        -12    1    1    2    0    0  0.27232375990E+02  0.10208802100E+02  0.13072813100E+02  0.31886053138E+02  0.00000000000E+00 0.  1.
         11    1    3    3    0    0 -0.14428284264E+02 -0.69258539650E+01  0.99393698613E+01  0.18839689845E+02  0.51100000000E-03 0. -1.
        -11    1    3    3    0    0 -0.12205236582E+02  0.12367365668E+02 -0.96546211861E+01  0.19877908444E+02  0.51100000000E-03 0.  1.
         12    1    3    3    0    0 -0.59885514396E+00 -0.15650313803E+02 -0.13357561775E+02  0.20584348573E+02  0.00000000000E+00 0. -1.
</event>
<event>
 7    1  0.6180395E-013  0.5930195E+02  0.7816164E-02  0.1266605E+00
        -11   -1    0    0    0    0  0.00000000000E+00  0.00000000000E+00  0.45593999997E+02  0.45594000000E+02  0.51100000000E-03 0.  1.
         11   -1    0    0    0    0 -0.00000000000E+00 -0.00000000000E+00 -0.45593999997E+02  0.45594000000E+02  0.51100000000E-03 0. -1.
    9900012    2    1    2    0    0 -0.18173873963E+02 -0.12286661780E+02 -0.23140191839E+02  0.59301949274E+02  0.50000009569E+02 0.  0.
        -12    1    1    2    0    0  0.18173873963E+02  0.12286661780E+02  0.23140191839E+02  0.31886050726E+02  0.00000000000E+00 0.  1.
         11    1    3    3    0    0 -0.22182646784E+02 -0.21897009782E+02  0.12286098658E+01  0.31193883025E+02  0.51100000000E-03 0. -1.
        -11    1    3    3    0    0  0.28861274327E+01  0.32540628892E+01 -0.19285131036E+01  0.47579218044E+01  0.51100000000E-03 0.  1.
         12    1    3    3    0    0  0.11226453880E+01  0.63562851124E+01 -0.22440288601E+02  0.23350144445E+02  0.00000000000E+00 0. -1.
</event>
<event>
 7    1  0.6180395E-013  0.5930200E+02  0.7816164E-02  0.1266605E+00
        -11   -1    0    0    0    0  0.00000000000E+00  0.00000000000E+00  0.45593999997E+02  0.45594000000E+02  0.51100000000E-03 0.  1.
         11   -1    0    0    0    0 -0.00000000000E+00 -0.00000000000E+00 -0.45593999997E+02  0.45594000000E+02  0.51100000000E-03 0. -1.
    9900012    2    1    2    0    0 -0.28721386645E+02  0.10664216350E+02 -0.88359181392E+01  0.59301999772E+02  0.50000101664E+02 0.  0.
        -12    1    1    2    0    0  0.28721386645E+02 -0.10664216350E+02  0.88359181392E+01  0.31886000228E+02  0.00000000000E+00 0.  1.
         11    1    3    3    0    0  0.10603387515E+02  0.41098294560E+01 -0.62766081640E+00  0.11389314436E+02  0.51100000000E-03 0. -1.
        -11    1    3    3    0    0 -0.28550658461E+02 -0.43642709183E+01  0.28210159397E+01  0.29019736222E+02  0.51100000000E-03 0.  1.
         12    1    3    3    0    0 -0.10774115700E+02  0.10918657812E+02 -0.11029273263E+02  0.18892949114E+02  0.00000000000E+00 0. -1.
</event>
<event>
 7    1  0.6180395E-013  0.5930193E+02  0.7816164E-02  0.1266605E+00
        -11   -1    0    0    0    0  0.00000000000E+00  0.00000000000E+00  0.45593999997E+02  0.45594000000E+02  0.51100000000E-03 0.  1.
         11   -1    0    0    0    0 -0.00000000000E+00 -0.00000000000E+00 -0.45593999997E+02  0.45594000000E+02  0.51100000000E-03 0. -1.
    9900012    2    1    2    0    0  0.25307512321E+02 -0.41007698717E+01 -0.18958768564E+02  0.59301930959E+02  0.49999976166E+02 0.  0.
        -12    1    1    2    0    0 -0.25307512321E+02  0.41007698717E+01  0.18958768564E+02  0.31886069041E+02  0.00000000000E+00 0.  1.
         11    1    3    3    0    0  0.27415300508E+02 -0.76473183421E+01 -0.30480632066E+02  0.41703106733E+02  0.51100000000E-03 0. -1.
        -11    1    3    3    0    0  0.44925903047E+01  0.40249897373E+01  0.27988300191E+01  0.66496135052E+01  0.51100000000E-03 0.  1.
         12    1    3    3    0    0 -0.66003784920E+01 -0.47844126691E+00  0.87230334822E+01  0.10949210721E+02  0.00000000000E+00 0. -1.
</event>
<event>
 7    1  0.6180395E-013  0.5930203E+02  0.7816164E-02  0.1266604E+00
        -11   -1    0    0    0    0  0.00000000000E+00  0.00000000000E+00  0.45593999997E+02  0.45594000000E+02  0.51100000000E-03 0.  1.
         11   -1    0    0    0    0 -0.00000000000E+00 -0.00000000000E+00 -0.45593999997E+02  0.45594000000E+02  0.51100000000E-03 0. -1.
    9900012    2    1    2    0    0 -0.10769154078E+02  0.22806078435E+02 -0.19509571197E+02  0.59302027199E+02  0.50000151685E+02 0.  0.
        -12    1    1    2    0    0  0.10769154078E+02 -0.22806078435E+02  0.19509571197E+02  0.31885972801E+02  0.00000000000E+00 0.  1.
         11    1    3    3    0    0 -0.41526002058E+01  0.15840801514E+02 -0.12629932903E+02  0.20680674226E+02  0.51100000000E-03 0. -1.
        -11    1    3    3    0    0 -0.21812282101E+02  0.59589601093E+01 -0.23523082206E+01  0.22733636098E+02  0.51100000000E-03 0.  1.
         12    1    3    3    0    0  0.15195728228E+02  0.10063168120E+01 -0.45273300740E+01  0.15887716875E+02  0.00000000000E+00 0. -1.
</event>
<event>
 7    1  0.6180395E-013  0.5930194E+02  0.7816164E-02  0.1266605E+00
        -11   -1    0    0    0    0  0.00000000000E+00  0.00000000000E+00  0.45593999997E+02  0.45594000000E+02  0.51100000000E-03 0.  1.
         11   -1    0    0    0    0 -0.00000000000E+00 -0.00000000000E+00 -0.45593999997E+02  0.45594000000E+02  0.51100000000E-03 0. -1.
    9900012    2    1    2    0    0  0.13044767584E+02  0.21841831758E+02 -0.19222099030E+02  0.59301942436E+02  0.49999997097E+02 0.  0.
        -12    1    1    2    0    0 -0.13044767584E+02 -0.21841831758E+02  0.19222099030E+02  0.31886057564E+02  0.00000000000E+00 0.  1.
         11    1    3    3    0    0  0.14833581004E+02  0.16248052072E+02 -0.21194640088E+02  0.30549093116E+02  0.51100000000E-03 0. -1.
        -11    1    3    3    0    0  0.12067401864E+02  0.44862987526E+01  0.61087377696E+01  0.14250113742E+02  0.51100000000E-03 0.  1.
        -12    1    3    3    0    0 -0.13856215284E+02  0.11074809334E+01 -0.41361967116E+01  0.14502735578E+02  0.00000000000E+00 0.  1.
</event>
<event>
 7    1  0.6180395E-013  0.5930203E+02  0.7816164E-02  0.1266604E+00
        -11   -1    0    0    0    0  0.00000000000E+00  0.00000000000E+00  0.45593999997E+02  0.45594000000E+02  0.51100000000E-03 0.  1.
         11   -1    0    0    0    0 -0.00000000000E+00 -0.00000000000E+00 -0.45593999997E+02  0.45594000000E+02  0.51100000000E-03 0. -1.
    9900012    2    1    2    0    0  0.18931652823E+02 -0.25433702657E+02  0.33814290428E+01  0.59302034877E+02  0.50000165687E+02 0.  0.
        -12    1    1    2    0    0 -0.18931652823E+02  0.25433702657E+02 -0.33814290428E+01  0.31885965123E+02  0.00000000000E+00 0.  1.
         11    1    3    3    0    0  0.14815976657E+02 -0.87643434420E+01 -0.86475719200E+01  0.19264147545E+02  0.51100000000E-03 0. -1.
        -11    1    3    3    0    0  0.58114423279E+01  0.18518043978E+01  0.19168879981E+02  0.20115864422E+02  0.51100000000E-03 0.  1.
        -12    1    3    3    0    0 -0.16957661615E+01 -0.18521163613E+02 -0.71398790180E+01  0.19922022910E+02  0.00000000000E+00 0.  1.
</event>
<event>
 7    1  0.6180395E-013  0.5930191E+02  0.7816164E-02  0.1266605E+00
        -11   -1    0    0    0    0  0.00000000000E+00  0.00000000000E+00  0.45593999997E+02  0.45594000000E+02  0.51100000000E-03 0.  1.
         11   -1    0    0    0    0 -0.00000000000E+00 -0.00000000000E+00 -0.45593999997E+02  0.45594000000E+02  0.51100000000E-03 0. -1.
    9900012    2    1    2    0    0 -0.21799457203E+02  0.11102743207E+02 -0.20450799554E+02  0.59301914579E+02  0.49999946292E+02 0.  0.
        -12    1    1    2    0    0  0.21799457203E+02 -0.11102743207E+02  0.20450799554E+02  0.31886085421E+02  0.00000000000E+00 0.  1.
         11    1    3    3    0    0 -0.14923433861E+01 -0.15004465092E+02 -0.18016758206E+02  0.23493927684E+02  0.51100000000E-03 0. -1.
        -11    1    3    3    0    0 -0.43263571946E+01 -0.20412207531E+00  0.18824640020E+01  0.47225738085E+01  0.51100000000E-03 0.  1.
         12    1    3    3    0    0 -0.15980756623E+02  0.26311330375E+02 -0.43165053500E+01  0.31085413087E+02  0.00000000000E+00 0. -1.
</event>
<event>
 7    1  0.6180395E-013  0.5930193E+02  0.7816164E-02  0.1266605E+00
        -11   -1    0    0    0    0  0.00000000000E+00  0.00000000000E+00  0.45593999997E+02  0.45594000000E+02  0.51100000000E-03 0. -1.
         11   -1    0    0    0    0 -0.00000000000E+00 -0.00000000000E+00 -0.45593999997E+02  0.45594000000E+02  0.51100000000E-03 0.  1.
    9900012    2    1    2    0    0 -0.15727149033E+02 -0.90705555914E+01  0.26212654661E+02  0.59301930003E+02  0.49999974422E+02 0.  0.
        -12    1    1    2    0    0  0.15727149033E+02  0.90705555914E+01 -0.26212654661E+02  0.31886069997E+02  0.00000000000E+00 0.  1.
         11    1    3    3    0    0  0.17085350575E+01  0.18400215558E+02  0.98298992358E+01  0.20931171584E+02  0.51100000000E-03 0.  1.
        -11    1    3    3    0    0 -0.17616911008E+02 -0.22009185832E+02  0.16920904710E+02  0.32879732829E+02  0.51100000000E-03 0. -1.
         12    1    3    3    0    0  0.18122691738E+00 -0.54615853174E+01 -0.53814928472E+00  0.54910255898E+01  0.00000000000E+00 0. -1.
</event>
<event>
 7    1  0.6180395E-013  0.5930192E+02  0.7816164E-02  0.1266605E+00
        -11   -1    0    0    0    0  0.00000000000E+00  0.00000000000E+00  0.45593999997E+02  0.45594000000E+02  0.51100000000E-03 0.  1.
         11   -1    0    0    0    0 -0.00000000000E+00 -0.00000000000E+00 -0.45593999997E+02  0.45594000000E+02  0.51100000000E-03 0. -1.
    9900012    2    1    2    0    0 -0.25299237142E+02  0.32339356014E+01 -0.19136679891E+02  0.59301917507E+02  0.49999951633E+02 0.  0.
        -12    1    1    2    0    0  0.25299237142E+02 -0.32339356014E+01  0.19136679891E+02  0.31886082493E+02  0.00000000000E+00 0.  1.
         11    1    3    3    0    0  0.47628731360E+01  0.83539609809E+01 -0.23676245441E+02  0.25554612558E+02  0.51100000000E-03 0. -1.
        -11    1    3    3    0    0 -0.20974419824E+02 -0.55240975857E+01 -0.30464824655E+01  0.21902579683E+02  0.51100000000E-03 0.  1.
        -12    1    3    3    0    0 -0.90876904540E+01  0.40407220623E+00  0.75860480149E+01  0.11844725266E+02  0.00000000000E+00 0.  1.
</event>
<event>
 7    1  0.6180395E-013  0.5930194E+02  0.7816164E-02  0.1266605E+00
        -11   -1    0    0    0    0  0.00000000000E+00  0.00000000000E+00  0.45593999997E+02  0.45594000000E+02  0.51100000000E-03 0.  1.
         11   -1    0    0    0    0 -0.00000000000E+00 -0.00000000000E+00 -0.45593999997E+02  0.45594000000E+02  0.51100000000E-03 0. -1.
    9900012    2    1    2    0    0  0.80161736898E+01  0.26995442628E+02 -0.14956865356E+02  0.59301940592E+02  0.49999993735E+02 0.  0.
        -12    1    1    2    0    0 -0.80161736898E+01 -0.26995442628E+02  0.14956865356E+02  0.31886059408E+02  0.00000000000E+00 0.  1.
         11    1    3    3    0    0  0.10187994011E+01  0.14020299186E+02 -0.13304513395E+02  0.19355020496E+02  0.51100000000E-03 0. -1.
        -11    1    3    3    0    0 -0.83446270176E+01 -0.94665544195E+01 -0.18969062310E+01  0.12761140472E+02  0.51100000000E-03 0.  1.
        -12    1    3    3    0    0  0.15342001306E+02  0.22441697861E+02  0.24455426999E+00  0.27185779624E+02  0.00000000000E+00 0.  1.
</event>
<event>
 7    1  0.6180395E-013  0.5930194E+02  0.7816164E-02  0.1266605E+00
        -11   -1    0    0    0    0  0.00000000000E+00  0.00000000000E+00  0.45593999997E+02  0.45594000000E+02  0.51100000000E-03 0.  1.
         11   -1    0    0    0    0 -0.00000000000E+00 -0.00000000000E+00 -0.45593999997E+02  0.45594000000E+02  0.51100000000E-03 0. -1.
    9900012    2    1    2    0    0 -0.16868628909E+02  0.16219134330E+02  0.21658940578E+02  0.59301942441E+02  0.49999997107E+02 0.  0.
        -12    1    1    2    0    0  0.16868628909E+02 -0.16219134330E+02 -0.21658940578E+02  0.31886057559E+02  0.00000000000E+00 0.  1.
         11    1    3    3    0    0 -0.11896909435E+02  0.41012133115E+01  0.16328545222E+02  0.20614989547E+02  0.51100000000E-03 0. -1.
        -11    1    3    3    0    0 -0.12530358176E+02 -0.68911604013E+01 -0.57607127181E+01  0.15416996432E+02  0.51100000000E-03 0.  1.
        -12    1    3    3    0    0  0.75586387018E+01  0.19009081420E+02  0.11091108075E+02  0.23269956462E+02  0.00000000000E+00 0.  1.
</event>
<event>
 7    1  0.6180395E-013  0.5930202E+02  0.7816164E-02  0.1266604E+00
        -11   -1    0    0    0    0  0.00000000000E+00  0.00000000000E+00  0.45593999997E+02  0.45594000000E+02  0.51100000000E-03 0.  1.
         11   -1    0    0    0    0 -0.00000000000E+00 -0.00000000000E+00 -0.45593999997E+02  0.45594000000E+02  0.51100000000E-03 0. -1.
    9900012    2    1    2    0    0 -0.16431526558E+02 -0.20535453687E+02  0.18028186830E+02  0.59302024344E+02  0.50000146477E+02 0.  0.
        -12    1    1    2    0    0  0.16431526558E+02  0.20535453687E+02 -0.18028186830E+02  0.31885975656E+02  0.00000000000E+00 0.  1.
         11    1    3    3    0    0 -0.17070621290E+02  0.76294894165E+01 -0.58995538293E+00  0.18707305194E+02  0.51100000000E-03 0. -1.
        -11    1    3    3    0    0 -0.19662684655E+01 -0.25976114427E+02  0.23202667124E+02  0.34885362178E+02  0.51100000000E-03 0.  1.
        -12    1    3    3    0    0  0.26053631979E+01 -0.21888286770E+01 -0.45845249110E+01  0.57093569716E+01  0.00000000000E+00 0.  1.
</event>
<event>
 7    1  0.6180395E-013  0.5930194E+02  0.7816164E-02  0.1266605E+00
        -11   -1    0    0    0    0  0.00000000000E+00  0.00000000000E+00  0.45593999997E+02  0.45594000000E+02  0.51100000000E-03 0.  1.
         11   -1    0    0    0    0 -0.00000000000E+00 -0.00000000000E+00 -0.45593999997E+02  0.45594000000E+02  0.51100000000E-03 0. -1.
    9900012    2    1    2    0    0  0.17888129003E+02 -0.24825218828E+02 -0.89690728107E+01  0.59301938528E+02  0.49999989970E+02 0.  0.
        -12    1    1    2    0    0 -0.17888129003E+02  0.24825218828E+02  0.89690728107E+01  0.31886061472E+02  0.00000000000E+00 0.  1.
         11    1    3    3    0    0 -0.18144665650E+01 -0.57699425627E+01 -0.94051862597E+01  0.11182220483E+02  0.51100000000E-03 0. -1.
        -11    1    3    3    0    0  0.12731427680E+02 -0.97992473331E+01  0.19833903828E+02  0.25524463567E+02  0.51100000000E-03 0.  1.
        -12    1    3    3    0    0  0.69711678889E+01 -0.92560289326E+01 -0.19397790379E+02  0.22595254478E+02  0.00000000000E+00 0.  1.
</event>
<event>
 7    1  0.6180395E-013  0.5930190E+02  0.7816164E-02  0.1266605E+00
        -11   -1    0    0    0    0  0.00000000000E+00  0.00000000000E+00  0.45593999997E+02  0.45594000000E+02  0.51100000000E-03 0.  1.
         11   -1    0    0    0    0 -0.00000000000E+00 -0.00000000000E+00 -0.45593999997E+02  0.45594000000E+02  0.51100000000E-03 0. -1.
    9900012    2    1    2    0    0 -0.21095809101E+02 -0.17274746789E+02 -0.16530989488E+02  0.59301895633E+02  0.49999911739E+02 0.  0.
        -12    1    1    2    0    0  0.21095809101E+02  0.17274746789E+02  0.16530989488E+02  0.31886104367E+02  0.00000000000E+00 0.  1.
         11    1    3    3    0    0  0.10277876639E+02 -0.53790647836E+01 -0.19846966484E+02  0.22988500712E+02  0.51100000000E-03 0. -1.
        -11    1    3    3    0    0 -0.49537178241E+01  0.29104051962E+01  0.16682814975E+01  0.59827202929E+01  0.51100000000E-03 0.  1.
         12    1    3    3    0    0 -0.26419967916E+02 -0.14806087202E+02  0.16476954985E+01  0.30330674627E+02  0.00000000000E+00 0. -1.
</event>
<event>
 7    1  0.6180395E-013  0.5930197E+02  0.7816164E-02  0.1266605E+00
        -11   -1    0    0    0    0  0.00000000000E+00  0.00000000000E+00  0.45593999997E+02  0.45594000000E+02  0.51100000000E-03 0.  1.
         11   -1    0    0    0    0 -0.00000000000E+00 -0.00000000000E+00 -0.45593999997E+02  0.45594000000E+02  0.51100000000E-03 0. -1.
    9900012    2    1    2    0    0 -0.94414726053E+01 -0.12054092825E+02 -0.27969199990E+02  0.59301973172E+02  0.50000053153E+02 0.  0.
        -12    1    1    2    0    0  0.94414726053E+01  0.12054092825E+02  0.27969199990E+02  0.31886026828E+02  0.00000000000E+00 0.  1.
         11    1    3    3    0    0 -0.55813175240E+01 -0.22747042928E+02 -0.15226126781E+02  0.27935890970E+02  0.51100000000E-03 0. -1.
        -11    1    3    3    0    0  0.39134594588E+01  0.24367041541E+01  0.71268762795E+01  0.84879360173E+01  0.51100000000E-03 0.  1.
        -12    1    3    3    0    0 -0.77736145401E+01  0.82562459491E+01 -0.19869949488E+02  0.22878146185E+02  0.00000000000E+00 0.  1.
</event>
<event>
 7    1  0.6180395E-013  0.5930221E+02  0.7816164E-02  0.1266604E+00
        -11   -1    0    0    0    0  0.00000000000E+00  0.00000000000E+00  0.45593999997E+02  0.45594000000E+02  0.51100000000E-03 0. -1.
         11   -1    0    0    0    0 -0.00000000000E+00 -0.00000000000E+00 -0.45593999997E+02  0.45594000000E+02  0.51100000000E-03 0.  1.
    9900012    2    1    2    0    0  0.20903962882E+02  0.23995678226E+02  0.19837588950E+01  0.59302211048E+02  0.50000486979E+02 0.  0.
        -12    1    1    2    0    0 -0.20903962882E+02 -0.23995678226E+02 -0.19837588950E+01  0.31885788952E+02  0.00000000000E+00 0.  1.
         11    1    3    3    0    0  0.12156442580E+02  0.15771687172E+02  0.21316585447E+02  0.29170567835E+02  0.51100000000E-03 0. -1.
        -11    1    3    3    0    0  0.23426855344E+01 -0.58196209435E+01 -0.13211134322E+01  0.64110454998E+01  0.51100000000E-03 0.  1.
         12    1    3    3    0    0  0.64048347678E+01  0.14043611998E+02 -0.18011713120E+02  0.23720597713E+02  0.00000000000E+00 0. -1.
</event>
<event>
 7    1  0.6180395E-013  0.5930208E+02  0.7816164E-02  0.1266604E+00
        -11   -1    0    0    0    0  0.00000000000E+00  0.00000000000E+00  0.45593999997E+02  0.45594000000E+02  0.51100000000E-03 0. -1.
         11   -1    0    0    0    0 -0.00000000000E+00 -0.00000000000E+00 -0.45593999997E+02  0.45594000000E+02  0.51100000000E-03 0.  1.
    9900012    2    1    2    0    0 -0.28123510309E+02 -0.10589837287E+02 -0.10659991842E+02  0.59302079722E+02  0.50000247474E+02 0.  0.
        -12    1    1    2    0    0  0.28123510309E+02  0.10589837287E+02  0.10659991842E+02  0.31885920278E+02  0.00000000000E+00 0.  1.
         11    1    3    3    0    0 -0.48135845077E+01  0.53141898270E+01  0.10111276855E+02  0.12395528598E+02  0.51100000000E-03 0. -1.
        -11    1    3    3    0    0 -0.24940811289E+02 -0.55825575580E+01 -0.24889430947E+02  0.35674820109E+02  0.51100000000E-03 0.  1.
         12    1    3    3    0    0  0.16308854874E+01 -0.10321469556E+02  0.41181622506E+01  0.11231731015E+02  0.00000000000E+00 0. -1.
</event>
<event>
 7    1  0.6180395E-013  0.5930197E+02  0.7816164E-02  0.1266605E+00
        -11   -1    0    0    0    0  0.00000000000E+00  0.00000000000E+00  0.45593999997E+02  0.45594000000E+02  0.51100000000E-03 0. -1.
         11   -1    0    0    0    0 -0.00000000000E+00 -0.00000000000E+00 -0.45593999997E+02  0.45594000000E+02  0.51100000000E-03 0.  1.
    9900012    2    1    2    0    0  0.17915108513E+02  0.25678632745E+02  0.60312263251E+01  0.59301968832E+02  0.50000045237E+02 0.  0.
        -12    1    1    2    0    0 -0.17915108513E+02 -0.25678632745E+02 -0.60312263251E+01  0.31886031168E+02  0.00000000000E+00 0.  1.
         11    1    3    3    0    0  0.29209093775E+01  0.31735885403E+02 -0.28985286169E+01  0.32001556248E+02  0.51100000000E-03 0. -1.
        -11    1    3    3    0    0  0.27812754228E+01 -0.69588786685E+01  0.12473676563E+02  0.14551772832E+02  0.51100000000E-03 0.  1.
        -12    1    3    3    0    0  0.12212923712E+02  0.90162601024E+00 -0.35439216210E+01  0.12748639752E+02  0.00000000000E+00 0.  1.
</event>
<event>
 7    1  0.6180395E-013  0.5930190E+02  0.7816164E-02  0.1266605E+00
        -11   -1    0    0    0    0  0.00000000000E+00  0.00000000000E+00  0.45593999997E+02  0.45594000000E+02  0.51100000000E-03 0. -1.
         11   -1    0    0    0    0 -0.00000000000E+00 -0.00000000000E+00 -0.45593999997E+02  0.45594000000E+02  0.51100000000E-03 0.  1.
    9900012    2    1    2    0    0  0.46154274363E+01 -0.30267151491E+02  0.89062015283E+01  0.59301904983E+02  0.49999928791E+02 0.  0.
        -12    1    1    2    0    0 -0.46154274363E+01  0.30267151491E+02 -0.89062015283E+01  0.31886095017E+02  0.00000000000E+00 0.  1.
         11    1    3    3    0    0  0.16339522824E+02 -0.21449613666E+02  0.13483273673E+02  0.30147381342E+02  0.51100000000E-03 0. -1.
        -11    1    3    3    0    0 -0.49747783079E+01  0.76678914478E+01 -0.65314349025E+01  0.11234082990E+02  0.51100000000E-03 0.  1.
         12    1    3    3    0    0 -0.67493170802E+01 -0.16485429273E+02  0.19543627580E+01  0.17920440652E+02  0.00000000000E+00 0. -1.
</event>
<event>
 7    1  0.6180395E-013  0.5930194E+02  0.7816164E-02  0.1266605E+00
        -11   -1    0    0    0    0  0.00000000000E+00  0.00000000000E+00  0.45593999997E+02  0.45594000000E+02  0.51100000000E-03 0.  1.
         11   -1    0    0    0    0 -0.00000000000E+00 -0.00000000000E+00 -0.45593999997E+02  0.45594000000E+02  0.51100000000E-03 0. -1.
    9900012    2    1    2    0    0  0.19883545520E+02 -0.11740068708E+02 -0.21989461355E+02  0.59301937114E+02  0.49999987391E+02 0.  0.
        -12    1    1    2    0    0 -0.19883545520E+02  0.11740068708E+02  0.21989461355E+02  0.31886062886E+02  0.00000000000E+00 0.  1.
         11    1    3    3    0    0 -0.54687656343E+01 -0.10309259335E+02 -0.95094802827E+00  0.11708651844E+02  0.51100000000E-03 0.  1.
        -11    1    3    3    0    0  0.27448000826E+02 -0.10059197958E+02 -0.24421049274E+02  0.38091572045E+02  0.51100000000E-03 0. -1.
        -12    1    3    3    0    0 -0.20956896726E+01  0.86283885848E+01  0.33825359478E+01  0.95017132252E+01  0.00000000000E+00 0.  1.
</event>
<event>
 7    1  0.6180395E-013  0.5930195E+02  0.7816164E-02  0.1266605E+00
        -11   -1    0    0    0    0  0.00000000000E+00  0.00000000000E+00  0.45593999997E+02  0.45594000000E+02  0.51100000000E-03 0.  1.
         11   -1    0    0    0    0 -0.00000000000E+00 -0.00000000000E+00 -0.45593999997E+02  0.45594000000E+02  0.51100000000E-03 0. -1.
    9900012    2    1    2    0    0  0.14801329607E+02 -0.34629343590E+01 -0.28029425625E+02  0.59301953313E+02  0.50000016933E+02 0.  0.
        -12    1    1    2    0    0 -0.14801329607E+02  0.34629343590E+01  0.28029425625E+02  0.31886046687E+02  0.00000000000E+00 0.  1.
         11    1    3    3    0    0  0.24421819029E+02  0.49175498596E+01 -0.13121600846E+02  0.28156419346E+02  0.51100000000E-03 0.  1.
        -11    1    3    3    0    0 -0.12494550720E+02 -0.10309195816E+02 -0.37150529916E+00  0.16202818660E+02  0.51100000000E-03 0. -1.
         12    1    3    3    0    0  0.28740612972E+01  0.19287115977E+01 -0.14536319479E+02  0.14942715307E+02  0.00000000000E+00 0. -1.
</event>
<event>
 7    1  0.6180395E-013  0.5930194E+02  0.7816164E-02  0.1266605E+00
        -11   -1    0    0    0    0  0.00000000000E+00  0.00000000000E+00  0.45593999997E+02  0.45594000000E+02  0.51100000000E-03 0.  1.
         11   -1    0    0    0    0 -0.00000000000E+00 -0.00000000000E+00 -0.45593999997E+02  0.45594000000E+02  0.51100000000E-03 0. -1.
    9900012    2    1    2    0    0 -0.67757949306E+01 -0.23571666619E+02 -0.20376119900E+02  0.59301935233E+02  0.49999983961E+02 0.  0.
        -12    1    1    2    0    0  0.67757949306E+01  0.23571666619E+02  0.20376119900E+02  0.31886064767E+02  0.00000000000E+00 0.  1.
         11    1    3    3    0    0  0.28111399253E+01  0.13880496721E+02 -0.67910002125E+00  0.14178570944E+02  0.51100000000E-03 0. -1.
        -11    1    3    3    0    0 -0.71188870595E+01 -0.80021152890E+01 -0.27579956547E+01  0.11059789435E+02  0.51100000000E-03 0.  1.
         12    1    3    3    0    0 -0.24680477964E+01 -0.29450048052E+02 -0.16939024224E+02  0.34063574854E+02  0.00000000000E+00 0. -1.
</event>
<event>
 7    1  0.6180395E-013  0.5930194E+02  0.7816164E-02  0.1266605E+00
        -11   -1    0    0    0    0  0.00000000000E+00  0.00000000000E+00  0.45593999997E+02  0.45594000000E+02  0.51100000000E-03 0.  1.
         11   -1    0    0    0    0 -0.00000000000E+00 -0.00000000000E+00 -0.45593999997E+02  0.45594000000E+02  0.51100000000E-03 0. -1.
    9900012    2    1    2    0    0 -0.55498687419E+01  0.21504599968E+02 -0.22879506680E+02  0.59301942094E+02  0.49999996474E+02 0.  0.
        -12    1    1    2    0    0  0.55498687419E+01 -0.21504599968E+02  0.22879506680E+02  0.31886057906E+02  0.00000000000E+00 0.  1.
         11    1    3    3    0    0  0.85690215935E+01  0.16164327864E+02  0.73914772326E+01  0.19731892010E+02  0.51100000000E-03 0. -1.
        -11    1    3    3    0    0 -0.42331859484E+01  0.18759163922E+00 -0.27839327008E+02  0.28159957074E+02  0.51100000000E-03 0.  1.
        -12    1    3    3    0    0 -0.98857043870E+01  0.51526804647E+01 -0.24316569054E+01  0.11410093010E+02  0.00000000000E+00 0.  1.
</event>
<event>
 7    1  0.6180395E-013  0.5930197E+02  0.7816164E-02  0.1266605E+00
        -11   -1    0    0    0    0  0.00000000000E+00  0.00000000000E+00  0.45593999997E+02  0.45594000000E+02  0.51100000000E-03 0.  1.
         11   -1    0    0    0    0 -0.00000000000E+00 -0.00000000000E+00 -0.45593999997E+02  0.45594000000E+02  0.51100000000E-03 0. -1.
    9900012    2    1    2    0    0 -0.94056788346E+01 -0.28755177614E+02  0.10069338238E+02  0.59301974746E+02  0.50000056022E+02 0.  0.
        -12    1    1    2    0    0  0.94056788346E+01  0.28755177614E+02 -0.10069338238E+02  0.31886025254E+02  0.00000000000E+00 0.  1.
         11    1    3    3    0    0  0.73556406153E+01 -0.92600803388E+01 -0.11055473765E+02  0.16188824453E+02  0.51100000000E-03 0.  1.
        -11    1    3    3    0    0 -0.14832254225E+02  0.22020320058E+01  0.13061724269E+02  0.19886008938E+02  0.51100000000E-03 0. -1.
         12    1    3    3    0    0 -0.19290652250E+01 -0.21697129281E+02  0.80630877338E+01  0.23227141354E+02  0.00000000000E+00 0. -1.
</event>
<event>
 7    1  0.6180395E-013  0.5930194E+02  0.7816164E-02  0.1266605E+00
        -11   -1    0    0    0    0  0.00000000000E+00  0.00000000000E+00  0.45593999997E+02  0.45594000000E+02  0.51100000000E-03 0.  1.
         11   -1    0    0    0    0 -0.00000000000E+00 -0.00000000000E+00 -0.45593999997E+02  0.45594000000E+02  0.51100000000E-03 0. -1.
    9900012    2    1    2    0    0 -0.29747637871E+02  0.10482137828E+02 -0.46822711941E+01  0.59301939787E+02  0.49999992266E+02 0.  0.
        -12    1    1    2    0    0  0.29747637871E+02 -0.10482137828E+02  0.46822711941E+01  0.31886060213E+02  0.00000000000E+00 0.  1.
         11    1    3    3    0    0 -0.19467471258E+02 -0.12502026034E+02  0.72224331404E+01  0.24237298382E+02  0.51100000000E-03 0. -1.
        -11    1    3    3    0    0  0.61923098539E+01  0.29064572529E+01 -0.39708554029E+01  0.79094808920E+01  0.51100000000E-03 0.  1.
         12    1    3    3    0    0 -0.16472476467E+02  0.20077706609E+02 -0.79338489317E+01  0.27155160513E+02  0.00000000000E+00 0. -1.
</event>
<event>
 7    1  0.6180395E-013  0.5930177E+02  0.7816164E-02  0.1266605E+00
        -11   -1    0    0    0    0  0.00000000000E+00  0.00000000000E+00  0.45593999997E+02  0.45594000000E+02  0.51100000000E-03 0.  1.
         11   -1    0    0    0    0 -0.00000000000E+00 -0.00000000000E+00 -0.45593999997E+02  0.45594000000E+02  0.51100000000E-03 0. -1.
    9900012    2    1    2    0    0  0.29419461496E+02 -0.12229956815E+02  0.12865913812E+01  0.59301766673E+02  0.49999676547E+02 0.  0.
        -12    1    1    2    0    0 -0.29419461496E+02  0.12229956815E+02 -0.12865913812E+01  0.31886233327E+02  0.00000000000E+00 0.  1.
         11    1    3    3    0    0  0.19720269669E+01  0.15217074163E+02  0.85077637965E+01  0.17545092804E+02  0.51100000000E-03 0. -1.
        -11    1    3    3    0    0  0.91141504182E+01 -0.56337023612E+01  0.35602742345E+01  0.11290787972E+02  0.51100000000E-03 0.  1.
         12    1    3    3    0    0  0.18333284111E+02 -0.21813328616E+02 -0.10781446650E+02  0.30465885897E+02  0.00000000000E+00 0. -1.
</event>
<event>
 7    1  0.6180395E-013  0.5930211E+02  0.7816164E-02  0.1266604E+00
        -11   -1    0    0    0    0  0.00000000000E+00  0.00000000000E+00  0.45593999997E+02  0.45594000000E+02  0.51100000000E-03 0.  1.
         11   -1    0    0    0    0 -0.00000000000E+00 -0.00000000000E+00 -0.45593999997E+02  0.45594000000E+02  0.51100000000E-03 0. -1.
    9900012    2    1    2    0    0 -0.16326795964E+02  0.16096408157E+02 -0.22159681241E+02  0.59302108218E+02  0.50000299444E+02 0.  0.
        -12    1    1    2    0    0  0.16326795964E+02 -0.16096408157E+02  0.22159681241E+02  0.31885891782E+02  0.00000000000E+00 0.  1.
         11    1    3    3    0    0 -0.97409864601E+01  0.87357502730E+01 -0.11523819913E+02  0.17435554930E+02  0.51100000000E-03 0. -1.
        -11    1    3    3    0    0  0.94600305718E+01  0.17024678436E+02  0.15214852846E+01  0.19535781838E+02  0.51100000000E-03 0.  1.
        -12    1    3    3    0    0 -0.16045840075E+02 -0.96640205519E+01 -0.12157346612E+02  0.22330771451E+02  0.00000000000E+00 0.  1.
</event>
<event>
 7    1  0.6180395E-013  0.5930192E+02  0.7816164E-02  0.1266605E+00
        -11   -1    0    0    0    0  0.00000000000E+00  0.00000000000E+00  0.45593999997E+02  0.45594000000E+02  0.51100000000E-03 0.  1.
         11   -1    0    0    0    0 -0.00000000000E+00 -0.00000000000E+00 -0.45593999997E+02  0.45594000000E+02  0.51100000000E-03 0. -1.
    9900012    2    1    2    0    0 -0.74807921716E+01 -0.24056810293E+01 -0.30902628525E+02  0.59301921494E+02  0.49999958904E+02 0.  0.
        -12    1    1    2    0    0  0.74807921716E+01  0.24056810293E+01  0.30902628525E+02  0.31886078506E+02  0.00000000000E+00 0.  1.
         11    1    3    3    0    0 -0.20528310839E+01 -0.21570023257E+02 -0.15710277895E+02  0.26763647931E+02  0.51100000000E-03 0. -1.
        -11    1    3    3    0    0 -0.50962018466E+01  0.14940491415E+02  0.98389810446E+00  0.15816371668E+02  0.51100000000E-03 0.  1.
         12    1    3    3    0    0 -0.33175924109E+00  0.42238508125E+01 -0.16176248734E+02  0.16721901895E+02  0.00000000000E+00 0. -1.
</event>
<event>
 7    1  0.6180395E-013  0.5930193E+02  0.7816164E-02  0.1266605E+00
        -11   -1    0    0    0    0  0.00000000000E+00  0.00000000000E+00  0.45593999997E+02  0.45594000000E+02  0.51100000000E-03 0.  1.
         11   -1    0    0    0    0 -0.00000000000E+00 -0.00000000000E+00 -0.45593999997E+02  0.45594000000E+02  0.51100000000E-03 0. -1.
    9900012    2    1    2    0    0  0.15414007068E+02  0.35646795670E+01 -0.27684348754E+02  0.59301925920E+02  0.49999966977E+02 0.  0.
        -12    1    1    2    0    0 -0.15414007068E+02 -0.35646795670E+01  0.27684348754E+02  0.31886074080E+02  0.00000000000E+00 0.  1.
         11    1    3    3    0    0  0.24017493688E+02  0.64336573515E+01 -0.34035191107E+02  0.42150043700E+02  0.51100000000E-03 0. -1.
        -11    1    3    3    0    0 -0.21244108603E+01 -0.41104423245E+01  0.89389095230E+01  0.10065433986E+02  0.51100000000E-03 0.  1.
         12    1    3    3    0    0 -0.64790757596E+01  0.12414645400E+01 -0.25880671693E+01  0.70864482342E+01  0.00000000000E+00 0. -1.
</event>
<event>
 7    1  0.6180395E-013  0.5930189E+02  0.7816164E-02  0.1266605E+00
        -11   -1    0    0    0    0  0.00000000000E+00  0.00000000000E+00  0.45593999997E+02  0.45594000000E+02  0.51100000000E-03 0.  1.
         11   -1    0    0    0    0 -0.00000000000E+00 -0.00000000000E+00 -0.45593999997E+02  0.45594000000E+02  0.51100000000E-03 0. -1.
    9900012    2    1    2    0    0 -0.40869631193E+01 -0.31567888252E+02  0.18678571326E+01  0.59301894460E+02  0.49999909600E+02 0.  0.
        -12    1    1    2    0    0  0.40869631193E+01  0.31567888252E+02 -0.18678571326E+01  0.31886105540E+02  0.00000000000E+00 0.  1.
         11    1    3    3    0    0 -0.12436815279E+02 -0.32180603738E+01 -0.86728602199E+01  0.15499961016E+02  0.51100000000E-03 0. -1.
        -11    1    3    3    0    0 -0.36018140003E+00 -0.82155381169E+01  0.18674607911E+02  0.20405042957E+02  0.51100000000E-03 0.  1.
        -12    1    3    3    0    0  0.87100335593E+01 -0.20134289762E+02 -0.81338905588E+01  0.23396890486E+02  0.00000000000E+00 0.  1.
</event>
<event>
 7    1  0.6180395E-013  0.5930192E+02  0.7816164E-02  0.1266605E+00
        -11   -1    0    0    0    0  0.00000000000E+00  0.00000000000E+00  0.45593999997E+02  0.45594000000E+02  0.51100000000E-03 0. -1.
         11   -1    0    0    0    0 -0.00000000000E+00 -0.00000000000E+00 -0.45593999997E+02  0.45594000000E+02  0.51100000000E-03 0.  1.
    9900012    2    1    2    0    0  0.65885328424E+01 -0.77900945574E+00  0.31188241210E+02  0.59301921368E+02  0.49999958674E+02 0.  0.
        -12    1    1    2    0    0 -0.65885328424E+01  0.77900945574E+00 -0.31188241210E+02  0.31886078632E+02  0.00000000000E+00 0.  1.
         11    1    3    3    0    0 -0.88761855272E+01  0.12204845739E+02 -0.17341377207E+01  0.15190528724E+02  0.51100000000E-03 0. -1.
        -11    1    3    3    0    0  0.13184052043E+02  0.21844938939E+01  0.20004517181E+02  0.24057679642E+02  0.51100000000E-03 0.  1.
         12    1    3    3    0    0  0.22806663264E+01 -0.15168349088E+02  0.12917861750E+02  0.20053713002E+02  0.00000000000E+00 0. -1.
</event>
<event>
 7    1  0.6180395E-013  0.5930194E+02  0.7816164E-02  0.1266605E+00
        -11   -1    0    0    0    0  0.00000000000E+00  0.00000000000E+00  0.45593999997E+02  0.45594000000E+02  0.51100000000E-03 0.  1.
         11   -1    0    0    0    0 -0.00000000000E+00 -0.00000000000E+00 -0.45593999997E+02  0.45594000000E+02  0.51100000000E-03 0. -1.
    9900012    2    1    2    0    0  0.24636073626E+01  0.31466099837E+02 -0.45316844990E+01  0.59301937769E+02  0.49999988585E+02 0.  0.
        -12    1    1    2    0    0 -0.24636073626E+01 -0.31466099837E+02  0.45316844990E+01  0.31886062231E+02  0.00000000000E+00 0.  1.
         11    1    3    3    0    0 -0.12357181026E+02  0.18406247393E+02 -0.17441145374E+02  0.28207860929E+02  0.51100000000E-03 0. -1.
        -11    1    3    3    0    0  0.23000690595E+01  0.14877680667E+02  0.10115590470E+02  0.18137278477E+02  0.51100000000E-03 0.  1.
         12    1    3    3    0    0  0.12520719329E+02 -0.18178282229E+01  0.27938704046E+01  0.12956798362E+02  0.00000000000E+00 0. -1.
</event>
<event>
 7    1  0.6180395E-013  0.5930195E+02  0.7816164E-02  0.1266605E+00
        -11   -1    0    0    0    0  0.00000000000E+00  0.00000000000E+00  0.45593999997E+02  0.45594000000E+02  0.51100000000E-03 0. -1.
         11   -1    0    0    0    0 -0.00000000000E+00 -0.00000000000E+00 -0.45593999997E+02  0.45594000000E+02  0.51100000000E-03 0.  1.
    9900012    2    1    2    0    0 -0.29960190943E+01 -0.24736032159E+02  0.19896546777E+02  0.59301953035E+02  0.50000016427E+02 0.  0.
        -12    1    1    2    0    0  0.29960190943E+01  0.24736032159E+02 -0.19896546777E+02  0.31886046965E+02  0.00000000000E+00 0.  1.
         11    1    3    3    0    0 -0.10867730662E+02 -0.36103974855E+02  0.13683822407E+02  0.40110491969E+02  0.51100000000E-03 0. -1.
        -11    1    3    3    0    0  0.90866696554E+01  0.28343457612E+01  0.37087878641E+01  0.10215487703E+02  0.51100000000E-03 0.  1.
         12    1    3    3    0    0 -0.12149580881E+01  0.85335969345E+01  0.25039365057E+01  0.89759733635E+01  0.00000000000E+00 0. -1.
</event>
<event>
 7    1  0.6180395E-013  0.5930193E+02  0.7816164E-02  0.1266605E+00
        -11   -1    0    0    0    0  0.00000000000E+00  0.00000000000E+00  0.45593999997E+02  0.45594000000E+02  0.51100000000E-03 0. -1.
         11   -1    0    0    0    0 -0.00000000000E+00 -0.00000000000E+00 -0.45593999997E+02  0.45594000000E+02  0.51100000000E-03 0.  1.
    9900012    2    1    2    0    0  0.17189630892E+02  0.23917947606E+02  0.12213515093E+02  0.59301928138E+02  0.49999971021E+02 0.  0.
        -12    1    1    2    0    0 -0.17189630892E+02 -0.23917947606E+02 -0.12213515093E+02  0.31886071862E+02  0.00000000000E+00 0.  1.
         11    1    3    3    0    0  0.13521368361E+02  0.24323268479E+01  0.14277171276E+02  0.19813662866E+02  0.51100000000E-03 0. -1.
        -11    1    3    3    0    0 -0.84221788751E+01  0.25357109884E+02 -0.19852332016E+01  0.26792858559E+02  0.51100000000E-03 0.  1.
        -12    1    3    3    0    0  0.12090441406E+02 -0.38714891255E+01 -0.78422981868E-01  0.12695406713E+02  0.00000000000E+00 0.  1.
</event>
<event>
 7    1  0.6180395E-013  0.5930195E+02  0.7816164E-02  0.1266605E+00
        -11   -1    0    0    0    0  0.00000000000E+00  0.00000000000E+00  0.45593999997E+02  0.45594000000E+02  0.51100000000E-03 0. -1.
         11   -1    0    0    0    0 -0.00000000000E+00 -0.00000000000E+00 -0.45593999997E+02  0.45594000000E+02  0.51100000000E-03 0.  1.
    9900012    2    1    2    0    0  0.27099836227E+02 -0.14529652911E+02  0.84385077355E+01  0.59301947406E+02  0.50000006161E+02 0.  0.
        -12    1    1    2    0    0 -0.27099836227E+02  0.14529652911E+02 -0.84385077355E+01  0.31886052594E+02  0.00000000000E+00 0.  1.
         11    1    3    3    0    0  0.24661014796E+02 -0.45734366018E+01  0.38169638269E+01  0.25370281556E+02  0.51100000000E-03 0. -1.
        -11    1    3    3    0    0 -0.42585085839E+01  0.40026454697E+01 -0.10673208506E+02  0.12168543306E+02  0.51100000000E-03 0.  1.
        -12    1    3    3    0    0  0.66973300151E+01 -0.13958861779E+02  0.15294752414E+02  0.21763122545E+02  0.00000000000E+00 0.  1.
</event>
<event>
 7    1  0.6180395E-013  0.5930186E+02  0.7816164E-02  0.1266605E+00
        -11   -1    0    0    0    0  0.00000000000E+00  0.00000000000E+00  0.45593999997E+02  0.45594000000E+02  0.51100000000E-03 0.  1.
         11   -1    0    0    0    0 -0.00000000000E+00 -0.00000000000E+00 -0.45593999997E+02  0.45594000000E+02  0.51100000000E-03 0. -1.
    9900012    2    1    2    0    0 -0.14887055239E+02  0.26815195323E+02  0.87204677521E+01  0.59301863958E+02  0.49999853971E+02 0.  0.
        -12    1    1    2    0    0  0.14887055239E+02 -0.26815195323E+02 -0.87204677521E+01  0.31886136042E+02  0.00000000000E+00 0.  1.
         11    1    3    3    0    0 -0.58368173127E+01 -0.39049527002E+01  0.30489182197E-01  0.70226791030E+01  0.51100000000E-03 0. -1.
        -11    1    3    3    0    0  0.17125533369E+01  0.23480916273E+02 -0.13083901921E+02  0.26934638622E+02  0.51100000000E-03 0.  1.
        -12    1    3    3    0    0 -0.10762791263E+02  0.72392317505E+01  0.21773880491E+02  0.25344546233E+02  0.00000000000E+00 0.  1.
</event>
<event>
 7    1  0.6180395E-013  0.5930193E+02  0.7816164E-02  0.1266605E+00
        -11   -1    0    0    0    0  0.00000000000E+00  0.00000000000E+00  0.45593999997E+02  0.45594000000E+02  0.51100000000E-03 0.  1.
         11   -1    0    0    0    0 -0.00000000000E+00 -0.00000000000E+00 -0.45593999997E+02  0.45594000000E+02  0.51100000000E-03 0. -1.
    9900012    2    1    2    0    0 -0.20541689817E+02  0.13181431236E+02 -0.20518542866E+02  0.59301925433E+02  0.49999966088E+02 0.  0.
        -12    1    1    2    0    0  0.20541689817E+02 -0.13181431236E+02  0.20518542866E+02  0.31886074567E+02  0.00000000000E+00 0.  1.
         11    1    3    3    0    0  0.20074478438E+01  0.68203754751E+01 -0.63491648403E+01  0.95320125313E+01  0.51100000000E-03 0. -1.
        -11    1    3    3    0    0 -0.27212378434E+02  0.14415467775E+02  0.22705284783E+01  0.30878383232E+02  0.51100000000E-03 0.  1.
        -12    1    3    3    0    0  0.46632407736E+01 -0.80544120146E+01 -0.16439906504E+02  0.18891529670E+02  0.00000000000E+00 0.  1.
</event>
<event>
 7    1  0.6180395E-013  0.5930194E+02  0.7816164E-02  0.1266605E+00
        -11   -1    0    0    0    0  0.00000000000E+00  0.00000000000E+00  0.45593999997E+02  0.45594000000E+02  0.51100000000E-03 0.  1.
         11   -1    0    0    0    0 -0.00000000000E+00 -0.00000000000E+00 -0.45593999997E+02  0.45594000000E+02  0.51100000000E-03 0. -1.
    9900012    2    1    2    0    0  0.81255115896E+01 -0.10630029070E+02 -0.28943035301E+02  0.59301941149E+02  0.49999994750E+02 0.  0.
        -12    1    1    2    0    0 -0.81255115896E+01  0.10630029070E+02  0.28943035301E+02  0.31886058851E+02  0.00000000000E+00 0.  1.
         11    1    3    3    0    0  0.17865225534E+02 -0.27931496380E+01 -0.12832218582E+02  0.22172816742E+02  0.51100000000E-03 0. -1.
        -11    1    3    3    0    0 -0.15824227478E+02 -0.16454410368E+02 -0.12152233210E+02  0.25861758797E+02  0.51100000000E-03 0.  1.
        -12    1    3    3    0    0  0.60845135331E+01  0.86175309365E+01 -0.39585835096E+01  0.11267365609E+02  0.00000000000E+00 0.  1.
</event>
<event>
 7    1  0.6180395E-013  0.5930194E+02  0.7816164E-02  0.1266605E+00
        -11   -1    0    0    0    0  0.00000000000E+00  0.00000000000E+00  0.45593999997E+02  0.45594000000E+02  0.51100000000E-03 0. -1.
         11   -1    0    0    0    0 -0.00000000000E+00 -0.00000000000E+00 -0.45593999997E+02  0.45594000000E+02  0.51100000000E-03 0.  1.
    9900012    2    1    2    0    0  0.23323283393E+02  0.20328948695E+02 -0.77122652851E+01  0.59301941305E+02  0.49999995035E+02 0.  0.
        -12    1    1    2    0    0 -0.23323283393E+02 -0.20328948695E+02  0.77122652851E+01  0.31886058695E+02  0.00000000000E+00 0.  1.
         11    1    3    3    0    0 -0.65989957192E+01  0.14621951347E+02  0.15307998487E+01  0.16114948158E+02  0.51100000000E-03 0.  1.
        -11    1    3    3    0    0  0.25101565969E+02 -0.12528242276E+01 -0.18071250055E+02  0.30955262258E+02  0.51100000000E-03 0. -1.
         12    1    3    3    0    0  0.48207131427E+01  0.69598215752E+01  0.88281849207E+01  0.12231730890E+02  0.00000000000E+00 0. -1.
</event>
<event>
 7    1  0.6180395E-013  0.5930189E+02  0.7816164E-02  0.1266605E+00
        -11   -1    0    0    0    0  0.00000000000E+00  0.00000000000E+00  0.45593999997E+02  0.45594000000E+02  0.51100000000E-03 0.  1.
         11   -1    0    0    0    0 -0.00000000000E+00 -0.00000000000E+00 -0.45593999997E+02  0.45594000000E+02  0.51100000000E-03 0. -1.
    9900012    2    1    2    0    0 -0.95508643938E+01  0.82887155261E+01 -0.29271189131E+02  0.59301885014E+02  0.49999892373E+02 0.  0.
        -12    1    1    2    0    0  0.95508643938E+01 -0.82887155261E+01  0.29271189131E+02  0.31886114986E+02  0.00000000000E+00 0.  1.
         11    1    3    3    0    0  0.96054644517E+01 -0.81387248020E+01 -0.22099710559E+02  0.25434248481E+02  0.51100000000E-03 0. -1.
        -11    1    3    3    0    0 -0.19755678970E+02  0.33948197026E+01 -0.47079147440E+01  0.20590680268E+02  0.51100000000E-03 0.  1.
         12    1    3    3    0    0  0.59935012498E+00  0.13032620626E+02 -0.24635638282E+01  0.13276956266E+02  0.00000000000E+00 0. -1.
</event>
<event>
 7    1  0.6180395E-013  0.5930195E+02  0.7816164E-02  0.1266605E+00
        -11   -1    0    0    0    0  0.00000000000E+00  0.00000000000E+00  0.45593999997E+02  0.45594000000E+02  0.51100000000E-03 0. -1.
         11   -1    0    0    0    0 -0.00000000000E+00 -0.00000000000E+00 -0.45593999997E+02  0.45594000000E+02  0.51100000000E-03 0.  1.
    9900012    2    1    2    0    0 -0.80318733432E+01  0.25853094165E+02  0.16847151058E+02  0.59301953427E+02  0.50000017142E+02 0.  0.
        -12    1    1    2    0    0  0.80318733432E+01 -0.25853094165E+02 -0.16847151058E+02  0.31886046573E+02  0.00000000000E+00 0.  1.
         11    1    3    3    0    0 -0.12426929346E+02  0.30791686684E+02  0.23364674928E+02  0.40601287868E+02  0.51100000000E-03 0. -1.
        -11    1    3    3    0    0 -0.54043140402E+01  0.79291713316E+00 -0.46954068083E+01  0.72029280978E+01  0.51100000000E-03 0.  1.
         12    1    3    3    0    0  0.97993700432E+01 -0.57315096522E+01 -0.18221170617E+01  0.11497737461E+02  0.00000000000E+00 0. -1.
</event>
<event>
 7    1  0.6180395E-013  0.5930194E+02  0.7816164E-02  0.1266605E+00
        -11   -1    0    0    0    0  0.00000000000E+00  0.00000000000E+00  0.45593999997E+02  0.45594000000E+02  0.51100000000E-03 0. -1.
         11   -1    0    0    0    0 -0.00000000000E+00 -0.00000000000E+00 -0.45593999997E+02  0.45594000000E+02  0.51100000000E-03 0.  1.
    9900012    2    1    2    0    0  0.65592115589E+01  0.30526312134E+02  0.64685027026E+01  0.59301944804E+02  0.50000001415E+02 0.  0.
        -12    1    1    2    0    0 -0.65592115589E+01 -0.30526312134E+02 -0.64685027026E+01  0.31886055196E+02  0.00000000000E+00 0.  1.
         11    1    3    3    0    0  0.14463039986E+02  0.26671375656E+02  0.22058347770E+02  0.37511498392E+02  0.51100000000E-03 0. -1.
        -11    1    3    3    0    0  0.29796051468E+01 -0.77861445323E+00 -0.52153946378E+01  0.60567836998E+01  0.51100000000E-03 0.  1.
         12    1    3    3    0    0 -0.10883433574E+02  0.46335509312E+01 -0.10374450430E+02  0.15733662712E+02  0.00000000000E+00 0. -1.
</event>
<event>
 7    1  0.6180395E-013  0.5930195E+02  0.7816164E-02  0.1266605E+00
        -11   -1    0    0    0    0  0.00000000000E+00  0.00000000000E+00  0.45593999997E+02  0.45594000000E+02  0.51100000000E-03 0. -1.
         11   -1    0    0    0    0 -0.00000000000E+00 -0.00000000000E+00 -0.45593999997E+02  0.45594000000E+02  0.51100000000E-03 0.  1.
    9900012    2    1    2    0    0 -0.16869512892E+02 -0.26668097115E+02  0.45773524801E+01  0.59301952508E+02  0.50000015466E+02 0.  0.
        -12    1    1    2    0    0  0.16869512892E+02  0.26668097115E+02 -0.45773524801E+01  0.31886047492E+02  0.00000000000E+00 0.  1.
         11    1    3    3    0    0  0.52247333174E+01 -0.50255711425E+01  0.12014650364E+02  0.14032320805E+02  0.51100000000E-03 0. -1.
        -11    1    3    3    0    0 -0.24720869370E+02 -0.21971818734E+01 -0.63489239938E+01  0.25617529676E+02  0.51100000000E-03 0.  1.
        -12    1    3    3    0    0  0.26266231604E+01 -0.19445344099E+02 -0.10883738901E+01  0.19652102027E+02  0.00000000000E+00 0.  1.
</event>
<event>
 7    1  0.6180395E-013  0.5930195E+02  0.7816164E-02  0.1266605E+00
        -11   -1    0    0    0    0  0.00000000000E+00  0.00000000000E+00  0.45593999997E+02  0.45594000000E+02  0.51100000000E-03 0. -1.
         11   -1    0    0    0    0 -0.00000000000E+00 -0.00000000000E+00 -0.45593999997E+02  0.45594000000E+02  0.51100000000E-03 0.  1.
    9900012    2    1    2    0    0 -0.20533235722E+02  0.14807221727E+02  0.19386925119E+02  0.59301945837E+02  0.50000003300E+02 0.  0.
        -12    1    1    2    0    0  0.20533235722E+02 -0.14807221727E+02 -0.19386925119E+02  0.31886054163E+02  0.00000000000E+00 0.  1.
         11    1    3    3    0    0 -0.22538644981E+02  0.51637220859E+01  0.12104442689E+02  0.26099273484E+02  0.51100000000E-03 0. -1.
        -11    1    3    3    0    0  0.96578697723E+01 -0.49160421758E+01  0.11923369138E+02  0.16112375712E+02  0.51100000000E-03 0.  1.
        -12    1    3    3    0    0 -0.76524605139E+01  0.14559541817E+02 -0.46408867078E+01  0.17090296641E+02  0.00000000000E+00 0.  1.
</event>
<event>
 7    1  0.6180395E-013  0.5930194E+02  0.7816164E-02  0.1266605E+00
        -11   -1    0    0    0    0  0.00000000000E+00  0.00000000000E+00  0.45593999997E+02  0.45594000000E+02  0.51100000000E-03 0. -1.
         11   -1    0    0    0    0 -0.00000000000E+00 -0.00000000000E+00 -0.45593999997E+02  0.45594000000E+02  0.51100000000E-03 0.  1.
    9900012    2    1    2    0    0 -0.21733398060E+02 -0.19005096885E+01  0.23254429895E+02  0.59301936617E+02  0.49999986485E+02 0.  0.
        -12    1    1    2    0    0  0.21733398060E+02  0.19005096885E+01 -0.23254429895E+02  0.31886063383E+02  0.00000000000E+00 0.  1.
         11    1    3    3    0    0 -0.11135043634E+02 -0.97035813568E+01  0.46599864823E+01  0.15487548617E+02  0.51100000000E-03 0. -1.
        -11    1    3    3    0    0  0.13456727059E+02  0.21131273739E+00  0.19640284647E+01  0.13600939831E+02  0.51100000000E-03 0.  1.
        -12    1    3    3    0    0 -0.24055081485E+02  0.75917589310E+01  0.16630414948E+02  0.30213448169E+02  0.00000000000E+00 0.  1.
</event>
<event>
 7    1  0.6180395E-013  0.5930195E+02  0.7816164E-02  0.1266605E+00
        -11   -1    0    0    0    0  0.00000000000E+00  0.00000000000E+00  0.45593999997E+02  0.45594000000E+02  0.51100000000E-03 0.  1.
         11   -1    0    0    0    0 -0.00000000000E+00 -0.00000000000E+00 -0.45593999997E+02  0.45594000000E+02  0.51100000000E-03 0. -1.
    9900012    2    1    2    0    0  0.23951735246E+02 -0.42112061809E+00 -0.21044174474E+02  0.59301949082E+02  0.50000009217E+02 0.  0.
        -12    1    1    2    0    0 -0.23951735246E+02  0.42112061809E+00  0.21044174474E+02  0.31886050918E+02  0.00000000000E+00 0.  1.
         11    1    3    3    0    0  0.14569270288E+02  0.53577198907E+01 -0.11484073944E+02  0.19309395479E+02  0.51100000000E-03 0. -1.
        -11    1    3    3    0    0 -0.20314393284E+01 -0.14007797908E+02 -0.18521115315E+02  0.23310445315E+02  0.51100000000E-03 0.  1.
        -12    1    3    3    0    0  0.11413904287E+02  0.82289573992E+01  0.89610147858E+01  0.16682108288E+02  0.00000000000E+00 0.  1.
</event>
<event>
 7    1  0.6180395E-013  0.5930194E+02  0.7816164E-02  0.1266605E+00
        -11   -1    0    0    0    0  0.00000000000E+00  0.00000000000E+00  0.45593999997E+02  0.45594000000E+02  0.51100000000E-03 0.  1.
         11   -1    0    0    0    0 -0.00000000000E+00 -0.00000000000E+00 -0.45593999997E+02  0.45594000000E+02  0.51100000000E-03 0. -1.
    9900012    2    1    2    0    0 -0.22646307188E+01 -0.71508780640E+01 -0.30991249244E+02  0.59301935033E+02  0.49999983597E+02 0.  0.
        -12    1    1    2    0    0  0.22646307188E+01  0.71508780640E+01  0.30991249244E+02  0.31886064967E+02  0.00000000000E+00 0.  1.
         11    1    3    3    0    0  0.41137915378E+01  0.51769744573E+00 -0.18613954171E+02  0.19070148967E+02  0.51100000000E-03 0. -1.
        -11    1    3    3    0    0 -0.20144239377E+02  0.22969497735E+01 -0.21284790305E+01  0.20386190953E+02  0.51100000000E-03 0.  1.
        -12    1    3    3    0    0  0.13765817120E+02 -0.99655252832E+01 -0.10248816042E+02  0.19845595114E+02  0.00000000000E+00 0.  1.
</event>
<event>
 7    1  0.6180395E-013  0.5930192E+02  0.7816164E-02  0.1266605E+00
        -11   -1    0    0    0    0  0.00000000000E+00  0.00000000000E+00  0.45593999997E+02  0.45594000000E+02  0.51100000000E-03 0.  1.
         11   -1    0    0    0    0 -0.00000000000E+00 -0.00000000000E+00 -0.45593999997E+02  0.45594000000E+02  0.51100000000E-03 0. -1.
    9900012    2    1    2    0    0 -0.18126041469E+02 -0.20366612418E+02 -0.16533892873E+02  0.59301923191E+02  0.49999961999E+02 0.  0.
        -12    1    1    2    0    0  0.18126041469E+02  0.20366612418E+02  0.16533892873E+02  0.31886076809E+02  0.00000000000E+00 0.  1.
         11    1    3    3    0    0  0.15942735463E+01 -0.18953066758E+02 -0.19586061918E+02  0.27301543352E+02  0.51100000000E-03 0. -1.
        -11    1    3    3    0    0 -0.17228687199E+02 -0.99664648100E+01  0.84070184273E+01  0.21606388928E+02  0.51100000000E-03 0.  1.
         12    1    3    3    0    0 -0.24916278157E+01  0.85529191499E+01 -0.53548493826E+01  0.10393990911E+02  0.00000000000E+00 0. -1.
</event>
<event>
 7    1  0.6180395E-013  0.5930195E+02  0.7816164E-02  0.1266605E+00
        -11   -1    0    0    0    0  0.00000000000E+00  0.00000000000E+00  0.45593999997E+02  0.45594000000E+02  0.51100000000E-03 0.  1.
         11   -1    0    0    0    0 -0.00000000000E+00 -0.00000000000E+00 -0.45593999997E+02  0.45594000000E+02  0.51100000000E-03 0. -1.
    9900012    2    1    2    0    0  0.23724785873E+02 -0.58086618895E+01 -0.20496688314E+02  0.59301948983E+02  0.50000009037E+02 0.  0.
        -12    1    1    2    0    0 -0.23724785873E+02  0.58086618895E+01  0.20496688314E+02  0.31886051017E+02  0.00000000000E+00 0.  1.
         11    1    3    3    0    0  0.24463846273E+02 -0.16026788689E+02 -0.11224257762E+02  0.31326054534E+02  0.51100000000E-03 0. -1.
        -11    1    3    3    0    0 -0.10288610927E+02  0.30197327429E+01 -0.11595807618E+02  0.15793576391E+02  0.51100000000E-03 0.  1.
        -12    1    3    3    0    0  0.95495505270E+01  0.71983940568E+01  0.23233770658E+01  0.12182318058E+02  0.00000000000E+00 0.  1.
</event>
<event>
 7    1  0.6180395E-013  0.5930199E+02  0.7816164E-02  0.1266605E+00
        -11   -1    0    0    0    0  0.00000000000E+00  0.00000000000E+00  0.45593999997E+02  0.45594000000E+02  0.51100000000E-03 0.  1.
         11   -1    0    0    0    0 -0.00000000000E+00 -0.00000000000E+00 -0.45593999997E+02  0.45594000000E+02  0.51100000000E-03 0. -1.
    9900012    2    1    2    0    0 -0.27151655774E+01 -0.11543604580E+02 -0.29598831485E+02  0.59301988081E+02  0.50000080343E+02 0.  0.
        -12    1    1    2    0    0  0.27151655774E+01  0.11543604580E+02  0.29598831485E+02  0.31886011919E+02  0.00000000000E+00 0.  1.
         11    1    3    3    0    0 -0.63863884195E+01  0.11151309684E+02 -0.22867827261E+02  0.26231187328E+02  0.51100000000E-03 0. -1.
        -11    1    3    3    0    0  0.76047204620E+01 -0.22994519529E+02 -0.11558770378E+02  0.26836260443E+02  0.51100000000E-03 0.  1.
        -12    1    3    3    0    0 -0.39334976199E+01  0.29960526446E+00  0.48277661546E+01  0.62345403105E+01  0.00000000000E+00 0.  1.
</event>
<event>
 7    1  0.6180395E-013  0.5930195E+02  0.7816164E-02  0.1266605E+00
        -11   -1    0    0    0    0  0.00000000000E+00  0.00000000000E+00  0.45593999997E+02  0.45594000000E+02  0.51100000000E-03 0. -1.
         11   -1    0    0    0    0 -0.00000000000E+00 -0.00000000000E+00 -0.45593999997E+02  0.45594000000E+02  0.51100000000E-03 0.  1.
    9900012    2    1    2    0    0 -0.99085999978E+01  0.16360884725E+02  0.25511981044E+02  0.59301951645E+02  0.50000013893E+02 0.  0.
        -12    1    1    2    0    0  0.99085999978E+01 -0.16360884725E+02 -0.25511981044E+02  0.31886048355E+02  0.00000000000E+00 0.  1.
         11    1    3    3    0    0 -0.44766928112E+01  0.29203692295E+02  0.23920490425E+02  0.38014290532E+02  0.51100000000E-03 0. -1.
        -11    1    3    3    0    0 -0.93167647925E+01 -0.11321882666E+02  0.54132761972E+01  0.15629801430E+02  0.51100000000E-03 0.  1.
        -12    1    3    3    0    0  0.38848576059E+01 -0.15209249049E+01 -0.38217855786E+01  0.56578596831E+01  0.00000000000E+00 0.  1.
</event>
<event>
 7    1  0.6180395E-013  0.5930189E+02  0.7816164E-02  0.1266605E+00
        -11   -1    0    0    0    0  0.00000000000E+00  0.00000000000E+00  0.45593999997E+02  0.45594000000E+02  0.51100000000E-03 0. -1.
         11   -1    0    0    0    0 -0.00000000000E+00 -0.00000000000E+00 -0.45593999997E+02  0.45594000000E+02  0.51100000000E-03 0.  1.
    9900012    2    1    2    0    0 -0.50835668922E+01  0.23636874607E+02  0.20788929348E+02  0.59301888965E+02  0.49999899578E+02 0.  0.
        -12    1    1    2    0    0  0.50835668922E+01 -0.23636874607E+02 -0.20788929348E+02  0.31886111035E+02  0.00000000000E+00 0.  1.
         11    1    3    3    0    0 -0.46312377377E+01  0.19462899171E+02  0.22998739455E+01  0.20138079043E+02  0.51100000000E-03 0. -1.
        -11    1    3    3    0    0  0.44696797827E+01 -0.13639851740E+02  0.14201381506E+02  0.20191652478E+02  0.51100000000E-03 0.  1.
        -12    1    3    3    0    0 -0.49220089373E+01  0.17813827175E+02  0.42876738968E+01  0.18972157444E+02  0.00000000000E+00 0.  1.
</event>
<event>
 7    1  0.6180395E-013  0.5930194E+02  0.7816164E-02  0.1266605E+00
        -11   -1    0    0    0    0  0.00000000000E+00  0.00000000000E+00  0.45593999997E+02  0.45594000000E+02  0.51100000000E-03 0.  1.
         11   -1    0    0    0    0 -0.00000000000E+00 -0.00000000000E+00 -0.45593999997E+02  0.45594000000E+02  0.51100000000E-03 0. -1.
    9900012    2    1    2    0    0  0.17749037209E+02  0.21529692272E+02  0.15432591548E+02  0.59301939518E+02  0.49999991775E+02 0.  0.
        -12    1    1    2    0    0 -0.17749037209E+02 -0.21529692272E+02 -0.15432591548E+02  0.31886060482E+02  0.00000000000E+00 0.  1.
         11    1    3    3    0    0  0.13669119300E+02  0.25913465404E+02 -0.23188528504E+01  0.29389276794E+02  0.51100000000E-03 0. -1.
        -11    1    3    3    0    0 -0.74574937850E+01  0.41396109567E+01  0.11368106685E+02  0.14212123075E+02  0.51100000000E-03 0.  1.
         12    1    3    3    0    0  0.11537411694E+02 -0.85233840884E+01  0.63833377134E+01  0.15700539649E+02  0.00000000000E+00 0. -1.
</event>
<event>
 7    1  0.6180395E-013  0.5930192E+02  0.7816164E-02  0.1266605E+00
        -11   -1    0    0    0    0  0.00000000000E+00  0.00000000000E+00  0.45593999997E+02  0.45594000000E+02  0.51100000000E-03 0. -1.
         11   -1    0    0    0    0 -0.00000000000E+00 -0.00000000000E+00 -0.45593999997E+02  0.45594000000E+02  0.51100000000E-03 0.  1.
    9900012    2    1    2    0    0 -0.52256852235E+01  0.67316657486E+01  0.30726196933E+02  0.59301917021E+02  0.49999950746E+02 0.  0.
        -12    1    1    2    0    0  0.52256852235E+01 -0.67316657486E+01 -0.30726196933E+02  0.31886082979E+02  0.00000000000E+00 0.  1.
         11    1    3    3    0    0  0.13491953859E+01 -0.18189928709E+02  0.23713800522E+02  0.29917188539E+02  0.51100000000E-03 0. -1.
        -11    1    3    3    0    0 -0.44511484934E+01  0.19716051008E+02  0.10491777082E+02  0.22773071310E+02  0.51100000000E-03 0.  1.
         12    1    3    3    0    0 -0.21237321160E+01  0.52055434490E+01 -0.34793806715E+01  0.66116571718E+01  0.00000000000E+00 0. -1.
</event>
<event>
 7    1  0.6180395E-013  0.5930197E+02  0.7816164E-02  0.1266605E+00
        -11   -1    0    0    0    0  0.00000000000E+00  0.00000000000E+00  0.45593999997E+02  0.45594000000E+02  0.51100000000E-03 0. -1.
         11   -1    0    0    0    0 -0.00000000000E+00 -0.00000000000E+00 -0.45593999997E+02  0.45594000000E+02  0.51100000000E-03 0.  1.
    9900012    2    1    2    0    0 -0.17099644104E+02  0.96149769639E+01  0.25137091856E+02  0.59301968615E+02  0.50000044842E+02 0.  0.
        -12    1    1    2    0    0  0.17099644104E+02 -0.96149769639E+01 -0.25137091856E+02  0.31886031385E+02  0.00000000000E+00 0.  1.
         11    1    3    3    0    0  0.42539807421E+01  0.16889920475E+02 -0.91099627241E+00  0.17441206388E+02  0.51100000000E-03 0. -1.
        -11    1    3    3    0    0 -0.20145980083E+02 -0.14281328666E+02  0.15552648809E+02  0.29183929606E+02  0.51100000000E-03 0.  1.
        -12    1    3    3    0    0 -0.12076447633E+01  0.70063851552E+01  0.10495439319E+02  0.12676832621E+02  0.00000000000E+00 0.  1.
</event>
<event>
 7    1  0.6180395E-013  0.5930195E+02  0.7816164E-02  0.1266605E+00
        -11   -1    0    0    0    0  0.00000000000E+00  0.00000000000E+00  0.45593999997E+02  0.45594000000E+02  0.51100000000E-03 0. -1.
         11   -1    0    0    0    0 -0.00000000000E+00 -0.00000000000E+00 -0.45593999997E+02  0.45594000000E+02  0.51100000000E-03 0.  1.
    9900012    2    1    2    0    0  0.13116331520E+02 -0.24858895718E+02  0.15057133437E+02  0.59301951072E+02  0.50000012848E+02 0.  0.
        -12    1    1    2    0    0 -0.13116331520E+02  0.24858895718E+02 -0.15057133437E+02  0.31886048928E+02  0.00000000000E+00 0.  1.
         11    1    3    3    0    0 -0.85232307034E+01 -0.24109542932E+02  0.17847933852E+02  0.31184359302E+02  0.51100000000E-03 0. -1.
        -11    1    3    3    0    0  0.14132142519E+02  0.70025832423E+01  0.27132671392E+01  0.16003607189E+02  0.51100000000E-03 0.  1.
         12    1    3    3    0    0  0.75074197045E+01 -0.77519360284E+01 -0.55040675538E+01  0.12113984582E+02  0.00000000000E+00 0. -1.
</event>
<event>
 7    1  0.6180395E-013  0.5930192E+02  0.7816164E-02  0.1266605E+00
        -11   -1    0    0    0    0  0.00000000000E+00  0.00000000000E+00  0.45593999997E+02  0.45594000000E+02  0.51100000000E-03 0. -1.
         11   -1    0    0    0    0 -0.00000000000E+00 -0.00000000000E+00 -0.45593999997E+02  0.45594000000E+02  0.51100000000E-03 0.  1.
    9900012    2    1    2    0    0  0.18743291303E+02  0.25078120840E+02  0.60414622702E+01  0.59301915573E+02  0.49999948105E+02 0.  0.
        -12    1    1    2    0    0 -0.18743291303E+02 -0.25078120840E+02 -0.60414622702E+01  0.31886084427E+02  0.00000000000E+00 0.  1.
         11    1    3    3    0    0 -0.82682264993E+01  0.21995162018E+02  0.53105658870E+00  0.23503887827E+02  0.51100000000E-03 0. -1.
        -11    1    3    3    0    0  0.20042442135E+02 -0.23065615487E+01 -0.62345598833E+01  0.21116094575E+02  0.51100000000E-03 0.  1.
         12    1    3    3    0    0  0.69690756676E+01  0.53895203709E+01  0.11744965565E+02  0.14681933170E+02  0.00000000000E+00 0. -1.
</event>
<event>
 7    1  0.6180395E-013  0.5930197E+02  0.7816164E-02  0.1266605E+00
        -11   -1    0    0    0    0  0.00000000000E+00  0.00000000000E+00  0.45593999997E+02  0.45594000000E+02  0.51100000000E-03 0. -1.
         11   -1    0    0    0    0 -0.00000000000E+00 -0.00000000000E+00 -0.45593999997E+02  0.45594000000E+02  0.51100000000E-03 0.  1.
    9900012    2    1    2    0    0 -0.59495654011E+01  0.55977822526E+01  0.30821846826E+02  0.59301972709E+02  0.50000052308E+02 0.  0.
        -12    1    1    2    0    0  0.59495654011E+01 -0.55977822526E+01 -0.30821846826E+02  0.31886027291E+02  0.00000000000E+00 0.  1.
         11    1    3    3    0    0  0.11070524875E+02  0.99641176319E+01  0.34571407135E+02  0.37643357352E+02  0.51100000000E-03 0. -1.
        -11    1    3    3    0    0  0.76830167449E+00  0.55178544700E+00 -0.30459602038E+01  0.31894558261E+01  0.51100000000E-03 0.  1.
         12    1    3    3    0    0 -0.17788391951E+02 -0.49181208262E+01 -0.70360010470E+00  0.18469159531E+02  0.00000000000E+00 0. -1.
</event>
<event>
 7    1  0.6180395E-013  0.5930195E+02  0.7816164E-02  0.1266605E+00
        -11   -1    0    0    0    0  0.00000000000E+00  0.00000000000E+00  0.45593999997E+02  0.45594000000E+02  0.51100000000E-03 0.  1.
         11   -1    0    0    0    0 -0.00000000000E+00 -0.00000000000E+00 -0.45593999997E+02  0.45594000000E+02  0.51100000000E-03 0. -1.
    9900012    2    1    2    0    0 -0.25280965495E+02  0.14146189589E+02  0.13322107224E+02  0.59301946040E+02  0.50000003670E+02 0.  0.
        -12    1    1    2    0    0  0.25280965495E+02 -0.14146189589E+02 -0.13322107224E+02  0.31886053960E+02  0.00000000000E+00 0.  1.
         11    1    3    3    0    0  0.21102440041E+01 -0.76931312279E+01 -0.43627576106E+01  0.90923622935E+01  0.51100000000E-03 0. -1.
        -11    1    3    3    0    0 -0.32375573050E+02  0.13649944289E+02  0.19886730654E+02  0.40373020271E+02  0.51100000000E-03 0.  1.
        -12    1    3    3    0    0  0.49843635512E+01  0.81893765276E+01 -0.22018658199E+01  0.98365634756E+01  0.00000000000E+00 0.  1.
</event>
<event>
 7    1  0.6180395E-013  0.5930195E+02  0.7816164E-02  0.1266605E+00
        -11   -1    0    0    0    0  0.00000000000E+00  0.00000000000E+00  0.45593999997E+02  0.45594000000E+02  0.51100000000E-03 0.  1.
         11   -1    0    0    0    0 -0.00000000000E+00 -0.00000000000E+00 -0.45593999997E+02  0.45594000000E+02  0.51100000000E-03 0. -1.
    9900012    2    1    2    0    0 -0.21221655353E+02  0.11078881102E+02 -0.21062287236E+02  0.59301949664E+02  0.50000010280E+02 0.  0.
        -12    1    1    2    0    0  0.21221655353E+02 -0.11078881102E+02  0.21062287236E+02  0.31886050336E+02  0.00000000000E+00 0.  1.
         11    1    3    3    0    0  0.14898145286E+01  0.19387262510E+02 -0.21607246233E+02  0.29068171339E+02  0.51100000000E-03 0. -1.
        -11    1    3    3    0    0 -0.10063541709E+02 -0.41023860384E+01 -0.87763657877E+01  0.13968859640E+02  0.51100000000E-03 0.  1.
         12    1    3    3    0    0 -0.12647928172E+02 -0.42059953690E+01  0.93213247847E+01  0.16264918685E+02  0.00000000000E+00 0. -1.
</event>
<event>
 7    1  0.6180395E-013  0.5930194E+02  0.7816164E-02  0.1266605E+00
        -11   -1    0    0    0    0  0.00000000000E+00  0.00000000000E+00  0.45593999997E+02  0.45594000000E+02  0.51100000000E-03 0. -1.
         11   -1    0    0    0    0 -0.00000000000E+00 -0.00000000000E+00 -0.45593999997E+02  0.45594000000E+02  0.51100000000E-03 0.  1.
    9900012    2    1    2    0    0  0.22313042646E+02 -0.18318269667E+01 -0.22704479683E+02  0.59301939411E+02  0.49999991581E+02 0.  0.
        -12    1    1    2    0    0 -0.22313042646E+02  0.18318269667E+01  0.22704479683E+02  0.31886060589E+02  0.00000000000E+00 0.  1.
         11    1    3    3    0    0  0.67578567111E+01  0.19616289908E+02 -0.18312830995E+02  0.27673583728E+02  0.51100000000E-03 0. -1.
        -11    1    3    3    0    0  0.26605969434E+01 -0.17046670473E+02  0.18838163229E+00  0.17254078886E+02  0.51100000000E-03 0.  1.
        -12    1    3    3    0    0  0.12894588992E+02 -0.44014464010E+01 -0.45800303208E+01  0.14374276797E+02  0.00000000000E+00 0.  1.
</event>
<event>
 7    1  0.6180395E-013  0.5930196E+02  0.7816164E-02  0.1266605E+00
        -11   -1    0    0    0    0  0.00000000000E+00  0.00000000000E+00  0.45593999997E+02  0.45594000000E+02  0.51100000000E-03 0.  1.
         11   -1    0    0    0    0 -0.00000000000E+00 -0.00000000000E+00 -0.45593999997E+02  0.45594000000E+02  0.51100000000E-03 0. -1.
    9900012    2    1    2    0    0 -0.21763206594E+02  0.19157780801E+02 -0.13268838233E+02  0.59301956116E+02  0.50000022047E+02 0.  0.
        -12    1    1    2    0    0  0.21763206594E+02 -0.19157780801E+02  0.13268838233E+02  0.31886043884E+02  0.00000000000E+00 0.  1.
         11    1    3    3    0    0 -0.14505044777E+02  0.27407616599E+02 -0.75979398544E+00  0.31018559908E+02  0.51100000000E-03 0.  1.
        -11    1    3    3    0    0 -0.34623503682E+01 -0.73550426801E+01 -0.19025302910E+02  0.20689288871E+02  0.51100000000E-03 0. -1.
        -12    1    3    3    0    0 -0.37958114492E+01 -0.89479311753E+00  0.65162586630E+01  0.75941073368E+01  0.00000000000E+00 0.  1.
</event>
<event>
 7    1  0.6180395E-013  0.5930194E+02  0.7816164E-02  0.1266605E+00
        -11   -1    0    0    0    0  0.00000000000E+00  0.00000000000E+00  0.45593999997E+02  0.45594000000E+02  0.51100000000E-03 0. -1.
         11   -1    0    0    0    0 -0.00000000000E+00 -0.00000000000E+00 -0.45593999997E+02  0.45594000000E+02  0.51100000000E-03 0.  1.
    9900012    2    1    2    0    0 -0.99662082186E+01  0.69205727333E+01  0.29487301779E+02  0.59301943495E+02  0.49999999029E+02 0.  0.
        -12    1    1    2    0    0  0.99662082186E+01 -0.69205727333E+01 -0.29487301779E+02  0.31886056505E+02  0.00000000000E+00 0.  1.
         11    1    3    3    0    0 -0.63966738351E+01  0.18040475134E+02  0.94014675760E+01  0.21325191021E+02  0.51100000000E-03 0. -1.
        -11    1    3    3    0    0 -0.85279262822E+01 -0.36088984447E+01 -0.55575735147E+01  0.10799828623E+02  0.51100000000E-03 0.  1.
        -12    1    3    3    0    0  0.49583918986E+01 -0.75110039563E+01  0.25643407718E+02  0.27176923851E+02  0.00000000000E+00 0.  1.
</event>
<event>
 7    1  0.6180395E-013  0.5930195E+02  0.7816164E-02  0.1266605E+00
        -11   -1    0    0    0    0  0.00000000000E+00  0.00000000000E+00  0.45593999997E+02  0.45594000000E+02  0.51100000000E-03 0.  1.
         11   -1    0    0    0    0 -0.00000000000E+00 -0.00000000000E+00 -0.45593999997E+02  0.45594000000E+02  0.51100000000E-03 0. -1.
    9900012    2    1    2    0    0  0.11388240139E+02 -0.19258720034E+02 -0.22718493735E+02  0.59301948686E+02  0.50000008496E+02 0.  0.
        -12    1    1    2    0    0 -0.11388240139E+02  0.19258720034E+02  0.22718493735E+02  0.31886051314E+02  0.00000000000E+00 0.  1.
         11    1    3    3    0    0  0.18331873983E+01 -0.19956336818E+02 -0.15105353442E+02  0.25095570487E+02  0.51100000000E-03 0. -1.
        -11    1    3    3    0    0  0.10288818994E+02  0.14335402906E+02 -0.10089204534E+02  0.20326229880E+02  0.51100000000E-03 0.  1.
        -12    1    3    3    0    0 -0.73376625300E+00 -0.13637786121E+02  0.24760642411E+01  0.13880148318E+02  0.00000000000E+00 0.  1.
</event>
<event>
 7    1  0.6180395E-013  0.5930196E+02  0.7816164E-02  0.1266605E+00
        -11   -1    0    0    0    0  0.00000000000E+00  0.00000000000E+00  0.45593999997E+02  0.45594000000E+02  0.51100000000E-03 0.  1.
         11   -1    0    0    0    0 -0.00000000000E+00 -0.00000000000E+00 -0.45593999997E+02  0.45594000000E+02  0.51100000000E-03 0. -1.
    9900012    2    1    2    0    0 -0.83598557875E+00  0.23708923742E+02 -0.21305107294E+02  0.59301960206E+02  0.50000029506E+02 0.  0.
        -12    1    1    2    0    0  0.83598557875E+00 -0.23708923742E+02  0.21305107294E+02  0.31886039794E+02  0.00000000000E+00 0.  1.
         11    1    3    3    0    0 -0.10351481126E+02  0.94714037593E+01 -0.31724296268E+02  0.34688494125E+02  0.51100000000E-03 0. -1.
        -11    1    3    3    0    0  0.11607777991E+02  0.98046350858E+01  0.12108144947E+02  0.19428807306E+02  0.51100000000E-03 0.  1.
        -12    1    3    3    0    0 -0.20922824429E+01  0.44328848973E+01 -0.16889559726E+01  0.51846587747E+01  0.00000000000E+00 0.  1.
</event>
<event>
 7    1  0.6180395E-013  0.5930195E+02  0.7816164E-02  0.1266605E+00
        -11   -1    0    0    0    0  0.00000000000E+00  0.00000000000E+00  0.45593999997E+02  0.45594000000E+02  0.51100000000E-03 0.  1.
         11   -1    0    0    0    0 -0.00000000000E+00 -0.00000000000E+00 -0.45593999997E+02  0.45594000000E+02  0.51100000000E-03 0. -1.
    9900012    2    1    2    0    0 -0.70874755970E+01  0.30745566161E+02  0.46041556289E+01  0.59301946654E+02  0.50000004790E+02 0.  0.
        -12    1    1    2    0    0  0.70874755970E+01 -0.30745566161E+02 -0.46041556289E+01  0.31886053346E+02  0.00000000000E+00 0.  1.
         11    1    3    3    0    0 -0.56040521556E+01 -0.92500436043E+01 -0.64692185037E+01  0.12602360714E+02  0.51100000000E-03 0. -1.
        -11    1    3    3    0    0  0.29594377909E+01  0.22522766160E+02 -0.41631442855E+01  0.23094697186E+02  0.51100000000E-03 0.  1.
         12    1    3    3    0    0 -0.44428612324E+01  0.17472843606E+02  0.15236518418E+02  0.23604888754E+02  0.00000000000E+00 0. -1.
</event>
<event>
 7    1  0.6180395E-013  0.5930192E+02  0.7816164E-02  0.1266605E+00
        -11   -1    0    0    0    0  0.00000000000E+00  0.00000000000E+00  0.45593999997E+02  0.45594000000E+02  0.51100000000E-03 0.  1.
         11   -1    0    0    0    0 -0.00000000000E+00 -0.00000000000E+00 -0.45593999997E+02  0.45594000000E+02  0.51100000000E-03 0. -1.
    9900012    2    1    2    0    0 -0.56074415762E+01  0.17490783346E+02 -0.26064363455E+02  0.59301922389E+02  0.49999960537E+02 0.  0.
        -12    1    1    2    0    0  0.56074415762E+01 -0.17490783346E+02  0.26064363455E+02  0.31886077611E+02  0.00000000000E+00 0.  1.
         11    1    3    3    0    0 -0.15976011076E+02  0.16901755580E+02 -0.92169992213E+00  0.23275562348E+02  0.51100000000E-03 0. -1.
        -11    1    3    3    0    0  0.15353818166E+02  0.69427724963E+01 -0.21076438328E+02  0.26984404293E+02  0.51100000000E-03 0.  1.
        -12    1    3    3    0    0 -0.49852486654E+01 -0.63537447296E+01 -0.40662252046E+01  0.90419557486E+01  0.00000000000E+00 0.  1.
</event>
<event>
 7    1  0.6180395E-013  0.5930195E+02  0.7816164E-02  0.1266605E+00
        -11   -1    0    0    0    0  0.00000000000E+00  0.00000000000E+00  0.45593999997E+02  0.45594000000E+02  0.51100000000E-03 0.  1.
         11   -1    0    0    0    0 -0.00000000000E+00 -0.00000000000E+00 -0.45593999997E+02  0.45594000000E+02  0.51100000000E-03 0. -1.
    9900012    2    1    2    0    0 -0.10395674877E+02  0.28781368895E+02  0.89600873053E+01  0.59301946369E+02  0.50000004270E+02 0.  0.
        -12    1    1    2    0    0  0.10395674877E+02 -0.28781368895E+02 -0.89600873053E+01  0.31886053631E+02  0.00000000000E+00 0.  1.
         11    1    3    3    0    0  0.10081522328E+02 -0.77037403659E+01 -0.44183928527E+01  0.13435285770E+02  0.51100000000E-03 0. -1.
        -11    1    3    3    0    0 -0.14113476060E+00  0.12047056630E+02  0.44581901836E+01  0.12846281658E+02  0.51100000000E-03 0.  1.
         12    1    3    3    0    0 -0.20336062444E+02  0.24438052631E+02  0.89202899745E+01  0.33020378940E+02  0.00000000000E+00 0. -1.
</event>
<event>
 7    1  0.6180395E-013  0.5930194E+02  0.7816164E-02  0.1266605E+00
        -11   -1    0    0    0    0  0.00000000000E+00  0.00000000000E+00  0.45593999997E+02  0.45594000000E+02  0.51100000000E-03 0.  1.
         11   -1    0    0    0    0 -0.00000000000E+00 -0.00000000000E+00 -0.45593999997E+02  0.45594000000E+02  0.51100000000E-03 0. -1.
    9900012    2    1    2    0    0  0.15425902717E+02  0.13604207343E+02 -0.24365710123E+02  0.59301940948E+02  0.49999994384E+02 0.  0.
        -12    1    1    2    0    0 -0.15425902717E+02 -0.13604207343E+02  0.24365710123E+02  0.31886059052E+02  0.00000000000E+00 0.  1.
         11    1    3    3    0    0 -0.26229931427E+01 -0.13804381755E+02 -0.20016750393E+02  0.24456315038E+02  0.51100000000E-03 0. -1.
        -11    1    3    3    0    0  0.18319293775E+02  0.20218468710E+02 -0.44826557449E+01  0.27649180896E+02  0.51100000000E-03 0.  1.
         12    1    3    3    0    0 -0.27039791551E+00  0.71901203879E+01  0.13369601583E+00  0.71964450147E+01  0.00000000000E+00 0. -1.
</event>
<event>
 7    1  0.6180395E-013  0.5930195E+02  0.7816164E-02  0.1266605E+00
        -11   -1    0    0    0    0  0.00000000000E+00  0.00000000000E+00  0.45593999997E+02  0.45594000000E+02  0.51100000000E-03 0.  1.
         11   -1    0    0    0    0 -0.00000000000E+00 -0.00000000000E+00 -0.45593999997E+02  0.45594000000E+02  0.51100000000E-03 0. -1.
    9900012    2    1    2    0    0 -0.14701213335E+02 -0.20020158845E+01 -0.28223859791E+02  0.59301952854E+02  0.50000016096E+02 0.  0.
        -12    1    1    2    0    0  0.14701213335E+02  0.20020158845E+01  0.28223859791E+02  0.31886047146E+02  0.00000000000E+00 0.  1.
         11    1    3    3    0    0  0.10232932877E+02  0.77298035879E+01 -0.80696241591E+01  0.15151950802E+02  0.51100000000E-03 0.  1.
        -11    1    3    3    0    0 -0.30730827161E+02 -0.12089075604E+02 -0.16854102187E+02  0.37075466926E+02  0.51100000000E-03 0. -1.
         12    1    3    3    0    0  0.57966809492E+01  0.23572561313E+01 -0.33001334447E+01  0.70745351259E+01  0.00000000000E+00 0. -1.
</event>
<event>
 7    1  0.6180395E-013  0.5930195E+02  0.7816164E-02  0.1266605E+00
        -11   -1    0    0    0    0  0.00000000000E+00  0.00000000000E+00  0.45593999997E+02  0.45594000000E+02  0.51100000000E-03 0.  1.
         11   -1    0    0    0    0 -0.00000000000E+00 -0.00000000000E+00 -0.45593999997E+02  0.45594000000E+02  0.51100000000E-03 0. -1.
    9900012    2    1    2    0    0  0.13538914310E+02 -0.27011183933E+02  0.10188901396E+02  0.59301953368E+02  0.50000017035E+02 0.  0.
        -12    1    1    2    0    0 -0.13538914310E+02  0.27011183933E+02 -0.10188901396E+02  0.31886046632E+02  0.00000000000E+00 0.  1.
         11    1    3    3    0    0  0.46456116611E+01  0.77895823771E+00 -0.12997850672E+02  0.13825071645E+02  0.51100000000E-03 0. -1.
        -11    1    3    3    0    0  0.95310511952E+01 -0.30533023435E+01  0.17386289281E+02  0.20061072935E+02  0.51100000000E-03 0.  1.
         12    1    3    3    0    0 -0.63774854594E+00 -0.24736839827E+02  0.58004627874E+01  0.25415808788E+02  0.00000000000E+00 0. -1.
</event>
<event>
 7    1  0.6180395E-013  0.5930187E+02  0.7816164E-02  0.1266605E+00
        -11   -1    0    0    0    0  0.00000000000E+00  0.00000000000E+00  0.45593999997E+02  0.45594000000E+02  0.51100000000E-03 0.  1.
         11   -1    0    0    0    0 -0.00000000000E+00 -0.00000000000E+00 -0.45593999997E+02  0.45594000000E+02  0.51100000000E-03 0. -1.
    9900012    2    1    2    0    0  0.10134088073E+02  0.15460629860E+02 -0.25980653047E+02  0.59301872146E+02  0.49999868906E+02 0.  0.
        -12    1    1    2    0    0 -0.10134088073E+02 -0.15460629860E+02  0.25980653047E+02  0.31886127854E+02  0.00000000000E+00 0.  1.
         11    1    3    3    0    0 -0.48849976603E+01 -0.11312979221E+02 -0.12607152692E+02  0.17629152000E+02  0.51100000000E-03 0. -1.
        -11    1    3    3    0    0  0.89686567892E+01  0.74588942160E+01  0.64604845037E+01  0.13334532906E+02  0.51100000000E-03 0.  1.
         12    1    3    3    0    0  0.60504289437E+01  0.19314714864E+02 -0.19833984859E+02  0.28338187241E+02  0.00000000000E+00 0. -1.
</event>
<event>
 7    1  0.6180395E-013  0.5930200E+02  0.7816164E-02  0.1266605E+00
        -11   -1    0    0    0    0  0.00000000000E+00  0.00000000000E+00  0.45593999997E+02  0.45594000000E+02  0.51100000000E-03 0.  1.
         11   -1    0    0    0    0 -0.00000000000E+00 -0.00000000000E+00 -0.45593999997E+02  0.45594000000E+02  0.51100000000E-03 0. -1.
    9900012    2    1    2    0    0 -0.26038448227E+02  0.18390219491E+02 -0.71827312721E+00  0.59302001893E+02  0.50000105531E+02 0.  0.
        -12    1    1    2    0    0  0.26038448227E+02 -0.18390219491E+02  0.71827312721E+00  0.31885998107E+02  0.00000000000E+00 0.  1.
         11    1    3    3    0    0 -0.14305000596E+02  0.35944655557E+00 -0.22293823142E+02  0.26491070088E+02  0.51100000000E-03 0. -1.
        -11    1    3    3    0    0 -0.54308625350E+01  0.48808771398E+01  0.15265522749E+02  0.16921980221E+02  0.51100000000E-03 0.  1.
         12    1    3    3    0    0 -0.63025850964E+01  0.13149895796E+02  0.63100272650E+01  0.15888951584E+02  0.00000000000E+00 0. -1.
</event>
<event>
 7    1  0.6180395E-013  0.5930194E+02  0.7816164E-02  0.1266605E+00
        -11   -1    0    0    0    0  0.00000000000E+00  0.00000000000E+00  0.45593999997E+02  0.45594000000E+02  0.51100000000E-03 0.  1.
         11   -1    0    0    0    0 -0.00000000000E+00 -0.00000000000E+00 -0.45593999997E+02  0.45594000000E+02  0.51100000000E-03 0. -1.
    9900012    2    1    2    0    0  0.11633981846E+02 -0.21300598000E+02 -0.20679833406E+02  0.59301944765E+02  0.50000001344E+02 0.  0.
        -12    1    1    2    0    0 -0.11633981846E+02  0.21300598000E+02  0.20679833406E+02  0.31886055235E+02  0.00000000000E+00 0.  1.
         11    1    3    3    0    0  0.20268793869E+02 -0.98934593557E+01 -0.29499468980E+02  0.37133855352E+02  0.51100000000E-03 0. -1.
        -11    1    3    3    0    0 -0.39094555407E+01 -0.34613865136E+01  0.11426380366E+02  0.12562929903E+02  0.51100000000E-03 0.  1.
         12    1    3    3    0    0 -0.47253564821E+01 -0.79457521306E+01 -0.26067447912E+01  0.96051595098E+01  0.00000000000E+00 0. -1.
</event>
<event>
 7    1  0.6180395E-013  0.5930194E+02  0.7816164E-02  0.1266605E+00
        -11   -1    0    0    0    0  0.00000000000E+00  0.00000000000E+00  0.45593999997E+02  0.45594000000E+02  0.51100000000E-03 0.  1.
         11   -1    0    0    0    0 -0.00000000000E+00 -0.00000000000E+00 -0.45593999997E+02  0.45594000000E+02  0.51100000000E-03 0. -1.
    9900012    2    1    2    0    0 -0.94556975543E+01 -0.16453001481E+02 -0.25624388944E+02  0.59301940621E+02  0.49999993786E+02 0.  0.
        -12    1    1    2    0    0  0.94556975543E+01  0.16453001481E+02  0.25624388944E+02  0.31886059379E+02  0.00000000000E+00 0.  1.
         11    1    3    3    0    0 -0.91631400535E+01  0.52700359012E+01 -0.25065318514E+02  0.27203062447E+02  0.51100000000E-03 0. -1.
        -11    1    3    3    0    0  0.63016923422E+01 -0.20865956099E+02  0.61550063838E+01  0.22649140252E+02  0.51100000000E-03 0.  1.
        -12    1    3    3    0    0 -0.65942498430E+01 -0.85708128343E+00 -0.67140768144E+01  0.94497379217E+01  0.00000000000E+00 0.  1.
</event>
<event>
 7    1  0.6180395E-013  0.5930195E+02  0.7816164E-02  0.1266605E+00
        -11   -1    0    0    0    0  0.00000000000E+00  0.00000000000E+00  0.45593999997E+02  0.45594000000E+02  0.51100000000E-03 0.  1.
         11   -1    0    0    0    0 -0.00000000000E+00 -0.00000000000E+00 -0.45593999997E+02  0.45594000000E+02  0.51100000000E-03 0. -1.
    9900012    2    1    2    0    0 -0.23579879221E+02 -0.20450193919E+02 -0.65191250371E+01  0.59301950909E+02  0.50000012549E+02 0.  0.
        -12    1    1    2    0    0  0.23579879221E+02  0.20450193919E+02  0.65191250371E+01  0.31886049091E+02  0.00000000000E+00 0.  1.
         11    1    3    3    0    0  0.71402961838E+01 -0.49899175827E+01 -0.71274632777E+01  0.11255391602E+02  0.51100000000E-03 0. -1.
        -11    1    3    3    0    0 -0.25470698166E+01  0.88550157092E+01  0.51496852911E+01  0.10555478517E+02  0.51100000000E-03 0.  1.
        -12    1    3    3    0    0 -0.28173105588E+02 -0.24315292046E+02 -0.45413470505E+01  0.37491080790E+02  0.00000000000E+00 0.  1.
</event>
<event>
 7    1  0.6180395E-013  0.5930191E+02  0.7816164E-02  0.1266605E+00
        -11   -1    0    0    0    0  0.00000000000E+00  0.00000000000E+00  0.45593999997E+02  0.45594000000E+02  0.51100000000E-03 0.  1.
         11   -1    0    0    0    0 -0.00000000000E+00 -0.00000000000E+00 -0.45593999997E+02  0.45594000000E+02  0.51100000000E-03 0. -1.
    9900012    2    1    2    0    0  0.13038213773E+02  0.29041377416E+02 -0.18236991432E+01  0.59301913706E+02  0.49999944701E+02 0.  0.
        -12    1    1    2    0    0 -0.13038213773E+02 -0.29041377416E+02  0.18236991432E+01  0.31886086294E+02  0.00000000000E+00 0.  1.
         11    1    3    3    0    0 -0.78296982526E+01 -0.35439439776E+01 -0.87807304820E+01  0.12286779143E+02  0.51100000000E-03 0. -1.
        -11    1    3    3    0    0  0.14446882176E+02  0.22232699157E+02  0.16769698110E+02  0.31372409716E+02  0.51100000000E-03 0.  1.
         12    1    3    3    0    0  0.64210298494E+01  0.10352622236E+02 -0.98126667714E+01  0.15642724847E+02  0.00000000000E+00 0. -1.
</event>
<event>
 7    1  0.6180395E-013  0.5930195E+02  0.7816164E-02  0.1266605E+00
        -11   -1    0    0    0    0  0.00000000000E+00  0.00000000000E+00  0.45593999997E+02  0.45594000000E+02  0.51100000000E-03 0.  1.
         11   -1    0    0    0    0 -0.00000000000E+00 -0.00000000000E+00 -0.45593999997E+02  0.45594000000E+02  0.51100000000E-03 0. -1.
    9900012    2    1    2    0    0 -0.24162616424E+02 -0.85936163197E+01 -0.18948291108E+02  0.59301952741E+02  0.50000015890E+02 0.  0.
        -12    1    1    2    0    0  0.24162616424E+02  0.85936163197E+01  0.18948291108E+02  0.31886047259E+02  0.00000000000E+00 0.  1.
         11    1    3    3    0    0 -0.23931356869E+02 -0.34659687404E+01 -0.20873758368E+02  0.31944272876E+02  0.51100000000E-03 0. -1.
        -11    1    3    3    0    0  0.22424188570E+00 -0.97935459281E+01  0.12446651644E+02  0.15839285453E+02  0.51100000000E-03 0.  1.
         12    1    3    3    0    0 -0.45550144006E+00  0.46658983488E+01 -0.10521184384E+02  0.11518394411E+02  0.00000000000E+00 0. -1.
</event>
<event>
 7    1  0.6180395E-013  0.5930195E+02  0.7816164E-02  0.1266605E+00
        -11   -1    0    0    0    0  0.00000000000E+00  0.00000000000E+00  0.45593999997E+02  0.45594000000E+02  0.51100000000E-03 0.  1.
         11   -1    0    0    0    0 -0.00000000000E+00 -0.00000000000E+00 -0.45593999997E+02  0.45594000000E+02  0.51100000000E-03 0. -1.
    9900012    2    1    2    0    0 -0.22780396295E+02  0.21826473783E+02 -0.46236989643E+01  0.59301952813E+02  0.50000016021E+02 0.  0.
        -12    1    1    2    0    0  0.22780396295E+02 -0.21826473783E+02  0.46236989643E+01  0.31886047187E+02  0.00000000000E+00 0.  1.
         11    1    3    3    0    0 -0.35462587410E+01 -0.37971836451E+01  0.26675780427E+01  0.58404218655E+01  0.51100000000E-03 0. -1.
        -11    1    3    3    0    0  0.12948249445E+01  0.24716510063E+02  0.99126096668E+01  0.26661625457E+02  0.51100000000E-03 0.  1.
        -12    1    3    3    0    0 -0.20528962498E+02  0.90714736463E+00 -0.17203886674E+02  0.26799905490E+02  0.00000000000E+00 0.  1.
</event>
<event>
 7    1  0.6180395E-013  0.5930194E+02  0.7816164E-02  0.1266605E+00
        -11   -1    0    0    0    0  0.00000000000E+00  0.00000000000E+00  0.45593999997E+02  0.45594000000E+02  0.51100000000E-03 0.  1.
         11   -1    0    0    0    0 -0.00000000000E+00 -0.00000000000E+00 -0.45593999997E+02  0.45594000000E+02  0.51100000000E-03 0. -1.
    9900012    2    1    2    0    0  0.68563600005E+01 -0.25261309606E+02 -0.18209271807E+02  0.59301936975E+02  0.49999987138E+02 0.  0.
        -12    1    1    2    0    0 -0.68563600005E+01  0.25261309606E+02  0.18209271807E+02  0.31886063025E+02  0.00000000000E+00 0.  1.
         11    1    3    3    0    0  0.98752226046E+01 -0.28675177140E+01 -0.17670739498E+02  0.20444992395E+02  0.51100000000E-03 0. -1.
        -11    1    3    3    0    0  0.11387692518E+02 -0.20180703287E+02 -0.48150779963E+01  0.23666966481E+02  0.51100000000E-03 0.  1.
        -12    1    3    3    0    0 -0.14406555122E+02 -0.22130886052E+01  0.42765456881E+01  0.15189978100E+02  0.00000000000E+00 0.  1.
</event>
<event>
 7    1  0.6180395E-013  0.5930195E+02  0.7816164E-02  0.1266605E+00
        -11   -1    0    0    0    0  0.00000000000E+00  0.00000000000E+00  0.45593999997E+02  0.45594000000E+02  0.51100000000E-03 0.  1.
         11   -1    0    0    0    0 -0.00000000000E+00 -0.00000000000E+00 -0.45593999997E+02  0.45594000000E+02  0.51100000000E-03 0. -1.
    9900012    2    1    2    0    0  0.15522003369E+02 -0.23842011380E+02  0.14399522122E+02  0.59301947680E+02  0.50000006661E+02 0.  0.
        -12    1    1    2    0    0 -0.15522003369E+02  0.23842011380E+02 -0.14399522122E+02  0.31886052320E+02  0.00000000000E+00 0.  1.
         11    1    3    3    0    0 -0.88252179493E+01 -0.18999364838E+02  0.14102271156E+02  0.25253403496E+02  0.51100000000E-03 0. -1.
        -11    1    3    3    0    0  0.33701135301E+01  0.72014199757E+01 -0.48564147434E+01  0.93168062818E+01  0.51100000000E-03 0.  1.
         12    1    3    3    0    0  0.20977107788E+02 -0.12044066517E+02  0.51536657091E+01  0.24731737902E+02  0.00000000000E+00 0. -1.
</event>
<event>
 7    1  0.6180395E-013  0.5930194E+02  0.7816164E-02  0.1266605E+00
        -11   -1    0    0    0    0  0.00000000000E+00  0.00000000000E+00  0.45593999997E+02  0.45594000000E+02  0.51100000000E-03 0. -1.
         11   -1    0    0    0    0 -0.00000000000E+00 -0.00000000000E+00 -0.45593999997E+02  0.45594000000E+02  0.51100000000E-03 0.  1.
    9900012    2    1    2    0    0  0.26841025649E+02 -0.14348634504E+02  0.95077344607E+01  0.59301937455E+02  0.49999988013E+02 0.  0.
        -12    1    1    2    0    0 -0.26841025649E+02  0.14348634504E+02 -0.95077344607E+01  0.31886062545E+02  0.00000000000E+00 0.  1.
         11    1    3    3    0    0  0.12703541562E+02 -0.27483051280E+01  0.23748304635E+02  0.27072405187E+02  0.51100000000E-03 0. -1.
        -11    1    3    3    0    0  0.68635366100E+01 -0.17013425408E+02 -0.44346416410E+01  0.18874078141E+02  0.51100000000E-03 0.  1.
         12    1    3    3    0    0  0.72739474773E+01  0.54130960325E+01 -0.98059285331E+01  0.13355454128E+02  0.00000000000E+00 0. -1.
</event>
<event>
 7    1  0.6180395E-013  0.5930196E+02  0.7816164E-02  0.1266605E+00
        -11   -1    0    0    0    0  0.00000000000E+00  0.00000000000E+00  0.45593999997E+02  0.45594000000E+02  0.51100000000E-03 0.  1.
         11   -1    0    0    0    0 -0.00000000000E+00 -0.00000000000E+00 -0.45593999997E+02  0.45594000000E+02  0.51100000000E-03 0. -1.
    9900012    2    1    2    0    0  0.21773351753E+02 -0.11291631405E+02 -0.20374981503E+02  0.59301958264E+02  0.50000025963E+02 0.  0.
        -12    1    1    2    0    0 -0.21773351753E+02  0.11291631405E+02  0.20374981503E+02  0.31886041736E+02  0.00000000000E+00 0.  1.
         11    1    3    3    0    0  0.13458608334E+02 -0.43181499091E+01 -0.82233699806E+01  0.16352503509E+02  0.51100000000E-03 0. -1.
        -11    1    3    3    0    0 -0.11571530893E+02  0.92371870770E+01 -0.83917848449E+01  0.17019048312E+02  0.51100000000E-03 0.  1.
        -12    1    3    3    0    0  0.19886274312E+02 -0.16210668573E+02 -0.37598266777E+01  0.25930406442E+02  0.00000000000E+00 0.  1.
</event>
<event>
 7    1  0.6180395E-013  0.5930193E+02  0.7816164E-02  0.1266605E+00
        -11   -1    0    0    0    0  0.00000000000E+00  0.00000000000E+00  0.45593999997E+02  0.45594000000E+02  0.51100000000E-03 0. -1.
         11   -1    0    0    0    0 -0.00000000000E+00 -0.00000000000E+00 -0.45593999997E+02  0.45594000000E+02  0.51100000000E-03 0.  1.
    9900012    2    1    2    0    0  0.39980541858E+01 -0.15381273269E+02  0.27643326657E+02  0.59301929165E+02  0.49999972894E+02 0.  0.
        -12    1    1    2    0    0 -0.39980541858E+01  0.15381273269E+02 -0.27643326657E+02  0.31886070835E+02  0.00000000000E+00 0.  1.
         11    1    3    3    0    0  0.12937771731E+02  0.55408250527E+01  0.38954707873E+01  0.14603471250E+02  0.51100000000E-03 0. -1.
        -11    1    3    3    0    0 -0.13370382970E+02 -0.48430008593E+01 -0.16479590134E+01  0.14315640652E+02  0.51100000000E-03 0.  1.
         12    1    3    3    0    0  0.44306654253E+01 -0.16079097462E+02  0.25395814883E+02  0.30382817264E+02  0.00000000000E+00 0. -1.
</event>
<event>
 7    1  0.6180395E-013  0.5930195E+02  0.7816164E-02  0.1266605E+00
        -11   -1    0    0    0    0  0.00000000000E+00  0.00000000000E+00  0.45593999997E+02  0.45594000000E+02  0.51100000000E-03 0. -1.
         11   -1    0    0    0    0 -0.00000000000E+00 -0.00000000000E+00 -0.45593999997E+02  0.45594000000E+02  0.51100000000E-03 0.  1.
    9900012    2    1    2    0    0 -0.66326455544E+01  0.13316108755E+02  0.28203009266E+02  0.59301945508E+02  0.50000002699E+02 0.  0.
        -12    1    1    2    0    0  0.66326455544E+01 -0.13316108755E+02 -0.28203009266E+02  0.31886054492E+02  0.00000000000E+00 0.  1.
         11    1    3    3    0    0 -0.29402681883E+01 -0.13805984560E+02  0.21069260872E+02  0.25360680998E+02  0.51100000000E-03 0. -1.
        -11    1    3    3    0    0 -0.93702512521E+01  0.20207250502E+02  0.10179339969E+02  0.24489866146E+02  0.51100000000E-03 0.  1.
         12    1    3    3    0    0  0.56778738861E+01  0.69148428131E+01 -0.30455915754E+01  0.94513983643E+01  0.00000000000E+00 0. -1.
</event>
<event>
 7    1  0.6180395E-013  0.5930193E+02  0.7816164E-02  0.1266605E+00
        -11   -1    0    0    0    0  0.00000000000E+00  0.00000000000E+00  0.45593999997E+02  0.45594000000E+02  0.51100000000E-03 0.  1.
         11   -1    0    0    0    0 -0.00000000000E+00 -0.00000000000E+00 -0.45593999997E+02  0.45594000000E+02  0.51100000000E-03 0. -1.
    9900012    2    1    2    0    0 -0.98398582538E+01  0.22113227625E+02 -0.20758219938E+02  0.59301931860E+02  0.49999977808E+02 0.  0.
        -12    1    1    2    0    0  0.98398582538E+01 -0.22113227625E+02  0.20758219938E+02  0.31886068140E+02  0.00000000000E+00 0.  1.
         11    1    3    3    0    0 -0.89312286130E+01  0.19600478992E+02 -0.19507641824E+02  0.29060173968E+02  0.51100000000E-03 0. -1.
        -11    1    3    3    0    0 -0.85242248917E+01 -0.76279207849E+00  0.11923095715E+02  0.14676664248E+02  0.51100000000E-03 0.  1.
         12    1    3    3    0    0  0.76155952508E+01  0.32755407118E+01 -0.13173673829E+02  0.15565093644E+02  0.00000000000E+00 0. -1.
</event>
<event>
 7    1  0.6180395E-013  0.5930223E+02  0.7816164E-02  0.1266604E+00
        -11   -1    0    0    0    0  0.00000000000E+00  0.00000000000E+00  0.45593999997E+02  0.45594000000E+02  0.51100000000E-03 0. -1.
         11   -1    0    0    0    0 -0.00000000000E+00 -0.00000000000E+00 -0.45593999997E+02  0.45594000000E+02  0.51100000000E-03 0.  1.
    9900012    2    1    2    0    0  0.27229650184E+02  0.15441040445E+02 -0.60681912377E+01  0.59302226933E+02  0.50000515949E+02 0.  0.
        -12    1    1    2    0    0 -0.27229650184E+02 -0.15441040445E+02  0.60681912377E+01  0.31885773067E+02  0.00000000000E+00 0.  1.
         11    1    3    3    0    0  0.22147213521E+02 -0.34410311589E+01  0.10987665120E+01  0.22439854061E+02  0.51100000000E-03 0. -1.
        -11    1    3    3    0    0  0.42784841945E+01  0.21630146751E+02 -0.16216616864E+02  0.27370556045E+02  0.51100000000E-03 0.  1.
        -12    1    3    3    0    0  0.80395246868E+00 -0.27480751471E+01  0.90496591142E+01  0.94918168265E+01  0.00000000000E+00 0.  1.
</event>
<event>
 7    1  0.6180395E-013  0.5930188E+02  0.7816164E-02  0.1266605E+00
        -11   -1    0    0    0    0  0.00000000000E+00  0.00000000000E+00  0.45593999997E+02  0.45594000000E+02  0.51100000000E-03 0.  1.
         11   -1    0    0    0    0 -0.00000000000E+00 -0.00000000000E+00 -0.45593999997E+02  0.45594000000E+02  0.51100000000E-03 0. -1.
    9900012    2    1    2    0    0  0.15405364222E+02 -0.26158948676E+02 -0.97523646707E+01  0.59301882969E+02  0.49999888643E+02 0.  0.
        -12    1    1    2    0    0 -0.15405364222E+02  0.26158948676E+02  0.97523646707E+01  0.31886117031E+02  0.00000000000E+00 0.  1.
         11    1    3    3    0    0 -0.18683734363E+01 -0.67860369832E+01 -0.18086525006E+02  0.19407820699E+02  0.51100000000E-03 0. -1.
        -11    1    3    3    0    0 -0.65043765210E+01 -0.89378822124E+01  0.84710391269E+01  0.13926634788E+02  0.51100000000E-03 0.  1.
        -12    1    3    3    0    0  0.23778114179E+02 -0.10435029480E+02 -0.13687879122E+00  0.25967427481E+02  0.00000000000E+00 0.  1.
</event>
<event>
 7    1  0.6180395E-013  0.5930197E+02  0.7816164E-02  0.1266605E+00
        -11   -1    0    0    0    0  0.00000000000E+00  0.00000000000E+00  0.45593999997E+02  0.45594000000E+02  0.51100000000E-03 0.  1.
         11   -1    0    0    0    0 -0.00000000000E+00 -0.00000000000E+00 -0.45593999997E+02  0.45594000000E+02  0.51100000000E-03 0. -1.
    9900012    2    1    2    0    0 -0.14405718271E+02  0.25408188476E+02 -0.12791342426E+02  0.59301965414E+02  0.50000039004E+02 0.  0.
        -12    1    1    2    0    0  0.14405718271E+02 -0.25408188476E+02  0.12791342426E+02  0.31886034586E+02  0.00000000000E+00 0.  1.
         11    1    3    3    0    0 -0.25262479659E+02  0.14539079798E+02 -0.34213303896E+01  0.29347627192E+02  0.51100000000E-03 0. -1.
        -11    1    3    3    0    0  0.49775479991E+01  0.17024100608E+02 -0.62056750397E+00  0.17747706609E+02  0.51100000000E-03 0.  1.
         12    1    3    3    0    0  0.58792133889E+01 -0.61549919298E+01 -0.87494445322E+01  0.12206631614E+02  0.00000000000E+00 0. -1.
</event>
<event>
 7    1  0.6180395E-013  0.5930196E+02  0.7816164E-02  0.1266605E+00
        -11   -1    0    0    0    0  0.00000000000E+00  0.00000000000E+00  0.45593999997E+02  0.45594000000E+02  0.51100000000E-03 0. -1.
         11   -1    0    0    0    0 -0.00000000000E+00 -0.00000000000E+00 -0.45593999997E+02  0.45594000000E+02  0.51100000000E-03 0.  1.
    9900012    2    1    2    0    0 -0.19080626361E+02 -0.19846899986E+02  0.16085704032E+02  0.59301958922E+02  0.50000027164E+02 0.  0.
        -12    1    1    2    0    0  0.19080626361E+02  0.19846899986E+02 -0.16085704032E+02  0.31886041078E+02  0.00000000000E+00 0.  1.
         11    1    3    3    0    0 -0.74006547343E+01 -0.49094059237E+01 -0.13777709594E+02  0.16391987035E+02  0.51100000000E-03 0. -1.
        -11    1    3    3    0    0  0.69500906482E+00 -0.18031659308E+02  0.18084372077E+02  0.25547373420E+02  0.51100000000E-03 0.  1.
         12    1    3    3    0    0 -0.12374980692E+02  0.30941652462E+01  0.11779041550E+02  0.17362598467E+02  0.00000000000E+00 0. -1.
</event>
<event>
 7    1  0.6180395E-013  0.5930193E+02  0.7816164E-02  0.1266605E+00
        -11   -1    0    0    0    0  0.00000000000E+00  0.00000000000E+00  0.45593999997E+02  0.45594000000E+02  0.51100000000E-03 0. -1.
         11   -1    0    0    0    0 -0.00000000000E+00 -0.00000000000E+00 -0.45593999997E+02  0.45594000000E+02  0.51100000000E-03 0.  1.
    9900012    2    1    2    0    0 -0.14018677774E+02  0.28636796602E+02 -0.36321942818E+00  0.59301931342E+02  0.49999976864E+02 0.  0.
        -12    1    1    2    0    0  0.14018677774E+02 -0.28636796602E+02  0.36321942818E+00  0.31886068658E+02  0.00000000000E+00 0.  1.
         11    1    3    3    0    0 -0.72897660230E+01  0.16975875663E+02 -0.12279548405E+02  0.22183515333E+02  0.51100000000E-03 0. -1.
        -11    1    3    3    0    0 -0.81467646046E+01 -0.45915677083E+01  0.17527508440E+02  0.19866197923E+02  0.51100000000E-03 0.  1.
         12    1    3    3    0    0  0.14178528539E+01  0.16252488647E+02 -0.56111794630E+01  0.17252218086E+02  0.00000000000E+00 0. -1.
</event>
<event>
 7    1  0.6180395E-013  0.5930194E+02  0.7816164E-02  0.1266605E+00
        -11   -1    0    0    0    0  0.00000000000E+00  0.00000000000E+00  0.45593999997E+02  0.45594000000E+02  0.51100000000E-03 0.  1.
         11   -1    0    0    0    0 -0.00000000000E+00 -0.00000000000E+00 -0.45593999997E+02  0.45594000000E+02  0.51100000000E-03 0. -1.
    9900012    2    1    2    0    0 -0.27582433439E+01 -0.31391824548E+02 -0.48647862655E+01  0.59301941915E+02  0.49999996147E+02 0.  0.
        -12    1    1    2    0    0  0.27582433439E+01  0.31391824548E+02  0.48647862655E+01  0.31886058085E+02  0.00000000000E+00 0.  1.
         11    1    3    3    0    0  0.11053131106E+02  0.53823850284E+01  0.61613523867E+01  0.13751510439E+02  0.51100000000E-03 0. -1.
        -11    1    3    3    0    0 -0.14568169451E+02 -0.37696608418E+02 -0.65785828501E+01  0.40945617592E+02  0.51100000000E-03 0.  1.
         12    1    3    3    0    0  0.75679500116E+00  0.92239884185E+00 -0.44475558022E+01  0.46048138845E+01  0.00000000000E+00 0. -1.
</event>
<event>
 7    1  0.6180395E-013  0.5930186E+02  0.7816164E-02  0.1266605E+00
        -11   -1    0    0    0    0  0.00000000000E+00  0.00000000000E+00  0.45593999997E+02  0.45594000000E+02  0.51100000000E-03 0.  1.
         11   -1    0    0    0    0 -0.00000000000E+00 -0.00000000000E+00 -0.45593999997E+02  0.45594000000E+02  0.51100000000E-03 0. -1.
    9900012    2    1    2    0    0 -0.18846739939E+02  0.23255363203E+02 -0.10987018121E+02  0.59301857379E+02  0.49999841974E+02 0.  0.
        -12    1    1    2    0    0  0.18846739939E+02 -0.23255363203E+02  0.10987018121E+02  0.31886142621E+02  0.00000000000E+00 0.  1.
         11    1    3    3    0    0  0.99212816214E+01  0.72511095277E+01 -0.17576633314E+02  0.21446408961E+02  0.51100000000E-03 0. -1.
        -11    1    3    3    0    0 -0.13245057854E+02  0.13779212842E+02  0.10341572747E+02  0.21731230781E+02  0.51100000000E-03 0.  1.
         12    1    3    3    0    0 -0.15522963707E+02  0.22250408333E+01 -0.37519575534E+01  0.16124217638E+02  0.00000000000E+00 0. -1.
</event>
<event>
 7    1  0.6180395E-013  0.5930196E+02  0.7816164E-02  0.1266605E+00
        -11   -1    0    0    0    0  0.00000000000E+00  0.00000000000E+00  0.45593999997E+02  0.45594000000E+02  0.51100000000E-03 0.  1.
         11   -1    0    0    0    0 -0.00000000000E+00 -0.00000000000E+00 -0.45593999997E+02  0.45594000000E+02  0.51100000000E-03 0. -1.
    9900012    2    1    2    0    0  0.11215279214E+02 -0.40488233423E+01 -0.29572689745E+02  0.59301961722E+02  0.50000032271E+02 0.  0.
        -12    1    1    2    0    0 -0.11215279214E+02  0.40488233423E+01  0.29572689745E+02  0.31886038278E+02  0.00000000000E+00 0.  1.
         11    1    3    3    0    0  0.22464585396E+02 -0.19041735225E+02 -0.77760879643E+01  0.30458378514E+02  0.51100000000E-03 0. -1.
        -11    1    3    3    0    0 -0.76659657803E+01  0.84740840718E+01 -0.13920192327E+02  0.18009688695E+02  0.51100000000E-03 0.  1.
         12    1    3    3    0    0 -0.35833404014E+01  0.65188278112E+01 -0.78764094537E+01  0.10833894514E+02  0.00000000000E+00 0. -1.
</event>
<event>
 7    1  0.6180395E-013  0.5930194E+02  0.7816164E-02  0.1266605E+00
        -11   -1    0    0    0    0  0.00000000000E+00  0.00000000000E+00  0.45593999997E+02  0.45594000000E+02  0.51100000000E-03 0.  1.
         11   -1    0    0    0    0 -0.00000000000E+00 -0.00000000000E+00 -0.45593999997E+02  0.45594000000E+02  0.51100000000E-03 0. -1.
    9900012    2    1    2    0    0  0.19509367086E+02 -0.15030827763E+02 -0.20252885853E+02  0.59301943914E+02  0.49999999793E+02 0.  0.
        -12    1    1    2    0    0 -0.19509367086E+02  0.15030827763E+02  0.20252885853E+02  0.31886056086E+02  0.00000000000E+00 0.  1.
         11    1    3    3    0    0  0.62182804639E+01  0.96451234988E+01 -0.16973556433E+01  0.11600708413E+02  0.51100000000E-03 0. -1.
        -11    1    3    3    0    0  0.52291877311E+01 -0.31196229797E+02 -0.19708135402E+02  0.37268750437E+02  0.51100000000E-03 0.  1.
        -12    1    3    3    0    0  0.80618988906E+01  0.65202785345E+01  0.11526051930E+01  0.10432485064E+02  0.00000000000E+00 0.  1.
</event>
<event>
 7    1  0.6180395E-013  0.5930196E+02  0.7816164E-02  0.1266605E+00
        -11   -1    0    0    0    0  0.00000000000E+00  0.00000000000E+00  0.45593999997E+02  0.45594000000E+02  0.51100000000E-03 0. -1.
         11   -1    0    0    0    0 -0.00000000000E+00 -0.00000000000E+00 -0.45593999997E+02  0.45594000000E+02  0.51100000000E-03 0.  1.
    9900012    2    1    2    0    0  0.49972171268E+01  0.30948694765E+02  0.58245808159E+01  0.59301958722E+02  0.50000026799E+02 0.  0.
        -12    1    1    2    0    0 -0.49972171268E+01 -0.30948694765E+02 -0.58245808159E+01  0.31886041278E+02  0.00000000000E+00 0.  1.
         11    1    3    3    0    0 -0.32614365026E+01 -0.33904373010E+01  0.11936920222E+02  0.12830514323E+02  0.51100000000E-03 0. -1.
        -11    1    3    3    0    0  0.34202646198E+01  0.16446102046E+02 -0.17866451776E+02  0.24523103023E+02  0.51100000000E-03 0.  1.
        -12    1    3    3    0    0  0.48383890096E+01  0.17893030021E+02  0.11754112370E+02  0.21948341376E+02  0.00000000000E+00 0.  1.
</event>
<event>
 7    1  0.6180395E-013  0.5930206E+02  0.7816164E-02  0.1266604E+00
        -11   -1    0    0    0    0  0.00000000000E+00  0.00000000000E+00  0.45593999997E+02  0.45594000000E+02  0.51100000000E-03 0.  1.
         11   -1    0    0    0    0 -0.00000000000E+00 -0.00000000000E+00 -0.45593999997E+02  0.45594000000E+02  0.51100000000E-03 0. -1.
    9900012    2    1    2    0    0 -0.22753903552E+02  0.13512206078E+01 -0.22296803435E+02  0.59302056900E+02  0.50000205851E+02 0.  0.
        -12    1    1    2    0    0  0.22753903552E+02 -0.13512206078E+01  0.22296803435E+02  0.31885943100E+02  0.00000000000E+00 0.  1.
         11    1    3    3    0    0 -0.42867326621E+01  0.12390485081E+02 -0.22281381749E+02  0.25852662733E+02  0.51100000000E-03 0. -1.
        -11    1    3    3    0    0 -0.34508401901E+01 -0.16951426680E+02  0.43987106435E+00  0.17304700267E+02  0.51100000000E-03 0.  1.
        -12    1    3    3    0    0 -0.15016330700E+02  0.59121622066E+01 -0.45529275026E+00  0.16144693900E+02  0.00000000000E+00 0.  1.
</event>
<event>
 7    1  0.6180395E-013  0.5930193E+02  0.7816164E-02  0.1266605E+00
        -11   -1    0    0    0    0  0.00000000000E+00  0.00000000000E+00  0.45593999997E+02  0.45594000000E+02  0.51100000000E-03 0.  1.
         11   -1    0    0    0    0 -0.00000000000E+00 -0.00000000000E+00 -0.45593999997E+02  0.45594000000E+02  0.51100000000E-03 0. -1.
    9900012    2    1    2    0    0  0.31835966073E+02  0.15105707826E+01  0.95456014551E+00  0.59301925532E+02  0.49999966269E+02 0.  0.
        -12    1    1    2    0    0 -0.31835966073E+02 -0.15105707826E+01 -0.95456014551E+00  0.31886074468E+02  0.00000000000E+00 0.  1.
         11    1    3    3    0    0  0.35839281223E+02 -0.30951512469E+01 -0.45188962770E+01  0.36255405992E+02  0.51100000000E-03 0. -1.
        -11    1    3    3    0    0 -0.53395156131E+01 -0.35537079292E+01  0.11257220068E+02  0.12956244477E+02  0.51100000000E-03 0.  1.
        -12    1    3    3    0    0  0.13362004628E+01  0.81594299587E+01 -0.57837636460E+01  0.10090275063E+02  0.00000000000E+00 0.  1.
</event>
<event>
 7    1  0.6180395E-013  0.5930212E+02  0.7816164E-02  0.1266604E+00
        -11   -1    0    0    0    0  0.00000000000E+00  0.00000000000E+00  0.45593999997E+02  0.45594000000E+02  0.51100000000E-03 0.  1.
         11   -1    0    0    0    0 -0.00000000000E+00 -0.00000000000E+00 -0.45593999997E+02  0.45594000000E+02  0.51100000000E-03 0. -1.
    9900012    2    1    2    0    0 -0.97975031624E+01 -0.91457019395E+01 -0.28932234777E+02  0.59302123167E+02  0.50000326706E+02 0.  0.
        -12    1    1    2    0    0  0.97975031624E+01  0.91457019395E+01  0.28932234777E+02  0.31885876833E+02  0.00000000000E+00 0.  1.
         11    1    3    3    0    0  0.50062889581E+01  0.12971714832E+02 -0.20434507999E+02  0.24716339378E+02  0.51100000000E-03 0.  1.
        -11    1    3    3    0    0 -0.18684429092E+02 -0.21225097039E+02 -0.10455688562E+02  0.30148533271E+02  0.51100000000E-03 0. -1.
        -12    1    3    3    0    0  0.38806369718E+01 -0.89231973238E+00  0.19579617836E+01  0.44372505178E+01  0.00000000000E+00 0.  1.
</event>
<event>
 7    1  0.6180395E-013  0.5930193E+02  0.7816164E-02  0.1266605E+00
        -11   -1    0    0    0    0  0.00000000000E+00  0.00000000000E+00  0.45593999997E+02  0.45594000000E+02  0.51100000000E-03 0.  1.
         11   -1    0    0    0    0 -0.00000000000E+00 -0.00000000000E+00 -0.45593999997E+02  0.45594000000E+02  0.51100000000E-03 0. -1.
    9900012    2    1    2    0    0 -0.95935611890E+01 -0.28197127554E+02 -0.11384500960E+02  0.59301932813E+02  0.49999979547E+02 0.  0.
        -12    1    1    2    0    0  0.95935611890E+01  0.28197127554E+02  0.11384500960E+02  0.31886067187E+02  0.00000000000E+00 0.  1.
         11    1    3    3    0    0  0.10272946094E+02  0.67562373800E+01 -0.49336116461E+01  0.13248422137E+02  0.51100000000E-03 0. -1.
        -11    1    3    3    0    0  0.98974202274E+00 -0.15098279718E+02  0.36014504046E+01  0.15553394646E+02  0.51100000000E-03 0.  1.
         12    1    3    3    0    0 -0.20856249306E+02 -0.19855085215E+02 -0.10052339718E+02  0.30500116030E+02  0.00000000000E+00 0. -1.
</event>
<event>
 7    1  0.6180395E-013  0.5930194E+02  0.7816164E-02  0.1266605E+00
        -11   -1    0    0    0    0  0.00000000000E+00  0.00000000000E+00  0.45593999997E+02  0.45594000000E+02  0.51100000000E-03 0.  1.
         11   -1    0    0    0    0 -0.00000000000E+00 -0.00000000000E+00 -0.45593999997E+02  0.45594000000E+02  0.51100000000E-03 0. -1.
    9900012    2    1    2    0    0  0.55101979028E+01  0.25010040705E+02 -0.18996223545E+02  0.59301938375E+02  0.49999989691E+02 0.  0.
        -12    1    1    2    0    0 -0.55101979028E+01 -0.25010040705E+02  0.18996223545E+02  0.31886061625E+02  0.00000000000E+00 0.  1.
         11    1    3    3    0    0 -0.38799283936E+01  0.13337752391E+02 -0.52183301127E+01  0.14838478783E+02  0.51100000000E-03 0. -1.
        -11    1    3    3    0    0  0.89895760492E+01 -0.74365183487E+01 -0.21006741981E+02  0.24029096770E+02  0.51100000000E-03 0.  1.
        -12    1    3    3    0    0  0.40055024728E+00  0.19108806663E+02  0.72288485489E+01  0.20434362821E+02  0.00000000000E+00 0.  1.
</event>
<event>
 7    1  0.6180395E-013  0.5930194E+02  0.7816164E-02  0.1266605E+00
        -11   -1    0    0    0    0  0.00000000000E+00  0.00000000000E+00  0.45593999997E+02  0.45594000000E+02  0.51100000000E-03 0.  1.
         11   -1    0    0    0    0 -0.00000000000E+00 -0.00000000000E+00 -0.45593999997E+02  0.45594000000E+02  0.51100000000E-03 0. -1.
    9900012    2    1    2    0    0 -0.33014315845E+01  0.26636218305E+02 -0.17214324135E+02  0.59301944560E+02  0.50000000971E+02 0.  0.
        -12    1    1    2    0    0  0.33014315845E+01 -0.26636218305E+02  0.17214324135E+02  0.31886055440E+02  0.00000000000E+00 0.  1.
         11    1    3    3    0    0  0.14321656842E+02  0.23429166413E+02 -0.73735105108E+01  0.28432452427E+02  0.51100000000E-03 0. -1.
        -11    1    3    3    0    0 -0.76957973615E+01  0.48107684705E+01  0.68587755174E+01  0.11375921596E+02  0.51100000000E-03 0.  1.
         12    1    3    3    0    0 -0.99272910648E+01 -0.16037165788E+01 -0.16699589142E+02  0.19493570536E+02  0.00000000000E+00 0. -1.
</event>
<event>
 7    1  0.6180395E-013  0.5930193E+02  0.7816164E-02  0.1266605E+00
        -11   -1    0    0    0    0  0.00000000000E+00  0.00000000000E+00  0.45593999997E+02  0.45594000000E+02  0.51100000000E-03 0. -1.
         11   -1    0    0    0    0 -0.00000000000E+00 -0.00000000000E+00 -0.45593999997E+02  0.45594000000E+02  0.51100000000E-03 0.  1.
    9900012    2    1    2    0    0 -0.16221736133E+01  0.19634873359E+02  0.25071130900E+02  0.59301932452E+02  0.49999978889E+02 0.  0.
        -12    1    1    2    0    0  0.16221736133E+01 -0.19634873359E+02 -0.25071130900E+02  0.31886067548E+02  0.00000000000E+00 0.  1.
         11    1    3    3    0    0  0.10165767685E+02  0.76506311757E+01  0.18933752865E+02  0.22811444229E+02  0.51100000000E-03 0. -1.
        -11    1    3    3    0    0 -0.19608852519E+02  0.71199440789E+01 -0.55721385332E+01  0.21592809657E+02  0.51100000000E-03 0.  1.
        -12    1    3    3    0    0  0.78209112213E+01  0.48642981042E+01  0.11709516568E+02  0.14897678566E+02  0.00000000000E+00 0.  1.
</event>
<event>
 7    1  0.6180395E-013  0.5930196E+02  0.7816164E-02  0.1266605E+00
        -11   -1    0    0    0    0  0.00000000000E+00  0.00000000000E+00  0.45593999997E+02  0.45594000000E+02  0.51100000000E-03 0.  1.
         11   -1    0    0    0    0 -0.00000000000E+00 -0.00000000000E+00 -0.45593999997E+02  0.45594000000E+02  0.51100000000E-03 0. -1.
    9900012    2    1    2    0    0 -0.27757464076E+02 -0.69987784407E+01 -0.14044922172E+02  0.59301959945E+02  0.50000029029E+02 0.  0.
        -12    1    1    2    0    0  0.27757464076E+02  0.69987784407E+01  0.14044922172E+02  0.31886040055E+02  0.00000000000E+00 0.  1.
         11    1    3    3    0    0 -0.14999553830E+02 -0.15641231471E+02 -0.11859680235E+02  0.24703982524E+02  0.51100000000E-03 0. -1.
        -11    1    3    3    0    0 -0.17105230180E+02  0.80954130543E+01  0.10173535990E+02  0.21485470598E+02  0.51100000000E-03 0.  1.
        -12    1    3    3    0    0  0.43473199333E+01  0.54703997590E+00 -0.12358777926E+02  0.13112506822E+02  0.00000000000E+00 0.  1.
</event>
<event>
 7    1  0.6180395E-013  0.5930194E+02  0.7816164E-02  0.1266605E+00
        -11   -1    0    0    0    0  0.00000000000E+00  0.00000000000E+00  0.45593999997E+02  0.45594000000E+02  0.51100000000E-03 0.  1.
         11   -1    0    0    0    0 -0.00000000000E+00 -0.00000000000E+00 -0.45593999997E+02  0.45594000000E+02  0.51100000000E-03 0. -1.
    9900012    2    1    2    0    0 -0.26640840385E+02  0.17518804494E+02  0.27912477623E+00  0.59301940382E+02  0.49999993351E+02 0.  0.
        -12    1    1    2    0    0  0.26640840385E+02 -0.17518804494E+02 -0.27912477623E+00  0.31886059618E+02  0.00000000000E+00 0.  1.
         11    1    3    3    0    0 -0.75771188910E+01 -0.87093442663E+01 -0.65203996655E+01  0.13258243485E+02  0.51100000000E-03 0. -1.
        -11    1    3    3    0    0 -0.28084813563E+02  0.20047055188E+02  0.38662787954E+01  0.34721596832E+02  0.51100000000E-03 0.  1.
        -12    1    3    3    0    0  0.90210920691E+01  0.61810935732E+01  0.29332456464E+01  0.11322100066E+02  0.00000000000E+00 0.  1.
</event>
<event>
 7    1  0.6180395E-013  0.5930195E+02  0.7816164E-02  0.1266605E+00
        -11   -1    0    0    0    0  0.00000000000E+00  0.00000000000E+00  0.45593999997E+02  0.45594000000E+02  0.51100000000E-03 0.  1.
         11   -1    0    0    0    0 -0.00000000000E+00 -0.00000000000E+00 -0.45593999997E+02  0.45594000000E+02  0.51100000000E-03 0. -1.
    9900012    2    1    2    0    0 -0.83891445301E+01 -0.30509858746E+02  0.39358313648E+01  0.59301952970E+02  0.50000016309E+02 0.  0.
        -12    1    1    2    0    0  0.83891445301E+01  0.30509858746E+02 -0.39358313648E+01  0.31886047030E+02  0.00000000000E+00 0.  1.
         11    1    3    3    0    0  0.13206954674E+02 -0.35118336153E+01  0.58721163876E+01  0.14874084114E+02  0.51100000000E-03 0. -1.
        -11    1    3    3    0    0 -0.21763762910E+02 -0.19802371482E+02  0.94957920061E+01  0.30918689468E+02  0.51100000000E-03 0.  1.
        -12    1    3    3    0    0  0.16766370602E+00 -0.71956536489E+01 -0.11432077029E+02  0.13509179388E+02  0.00000000000E+00 0.  1.
</event>
<event>
 7    1  0.6180395E-013  0.5930196E+02  0.7816164E-02  0.1266605E+00
        -11   -1    0    0    0    0  0.00000000000E+00  0.00000000000E+00  0.45593999997E+02  0.45594000000E+02  0.51100000000E-03 0.  1.
         11   -1    0    0    0    0 -0.00000000000E+00 -0.00000000000E+00 -0.45593999997E+02  0.45594000000E+02  0.51100000000E-03 0. -1.
    9900012    2    1    2    0    0 -0.12636999231E+02 -0.19632949165E+02  0.21715731556E+02  0.59301961683E+02  0.50000032200E+02 0.  0.
        -12    1    1    2    0    0  0.12636999231E+02  0.19632949165E+02 -0.21715731556E+02  0.31886038317E+02  0.00000000000E+00 0.  1.
         11    1    3    3    0    0  0.10515820776E+02 -0.10397247596E+02 -0.42104368437E+01  0.15375728368E+02  0.51100000000E-03 0. -1.
        -11    1    3    3    0    0 -0.27641386802E+02 -0.51023627137E+01  0.16194437406E+02  0.32439793044E+02  0.51100000000E-03 0.  1.
         12    1    3    3    0    0  0.44885667943E+01 -0.41333388553E+01  0.97317309937E+01  0.11486440271E+02  0.00000000000E+00 0. -1.
</event>
<event>
 7    1  0.6180395E-013  0.5930195E+02  0.7816164E-02  0.1266605E+00
        -11   -1    0    0    0    0  0.00000000000E+00  0.00000000000E+00  0.45593999997E+02  0.45594000000E+02  0.51100000000E-03 0.  1.
         11   -1    0    0    0    0 -0.00000000000E+00 -0.00000000000E+00 -0.45593999997E+02  0.45594000000E+02  0.51100000000E-03 0. -1.
    9900012    2    1    2    0    0  0.12733189167E+02 -0.46633598730E+01 -0.28858952783E+02  0.59301949956E+02  0.50000010812E+02 0.  0.
        -12    1    1    2    0    0 -0.12733189167E+02  0.46633598730E+01  0.28858952783E+02  0.31886050044E+02  0.00000000000E+00 0.  1.
         11    1    3    3    0    0  0.17781135389E+02 -0.13537084177E+02 -0.53665370520E+01  0.22983062110E+02  0.51100000000E-03 0.  1.
        -11    1    3    3    0    0 -0.32713077867E+01  0.15514481728E+02 -0.50554607774E+01  0.16642063629E+02  0.51100000000E-03 0. -1.
         12    1    3    3    0    0 -0.17766384357E+01 -0.66407574236E+01 -0.18436954954E+02  0.19676824217E+02  0.00000000000E+00 0. -1.
</event>
<event>
 7    1  0.6180395E-013  0.5930181E+02  0.7816164E-02  0.1266605E+00
        -11   -1    0    0    0    0  0.00000000000E+00  0.00000000000E+00  0.45593999997E+02  0.45594000000E+02  0.51100000000E-03 0.  1.
         11   -1    0    0    0    0 -0.00000000000E+00 -0.00000000000E+00 -0.45593999997E+02  0.45594000000E+02  0.51100000000E-03 0. -1.
    9900012    2    1    2    0    0  0.15947658033E+02  0.14635323951E+02 -0.23413848601E+02  0.59301814743E+02  0.49999764216E+02 0.  0.
        -12    1    1    2    0    0 -0.15947658033E+02 -0.14635323951E+02  0.23413848601E+02  0.31886185257E+02  0.00000000000E+00 0.  1.
         11    1    3    3    0    0 -0.13297176962E+02 -0.47046016416E+01 -0.19198174647E+01  0.14234953148E+02  0.51100000000E-03 0. -1.
        -11    1    3    3    0    0  0.13426829502E+02  0.94125312996E+01  0.25590540165E+00  0.16399420227E+02  0.51100000000E-03 0.  1.
         12    1    3    3    0    0  0.15818005492E+02  0.99273942928E+01 -0.21749936538E+02  0.28667441369E+02  0.00000000000E+00 0. -1.
</event>
<event>
 7    1  0.6180395E-013  0.5930194E+02  0.7816164E-02  0.1266605E+00
        -11   -1    0    0    0    0  0.00000000000E+00  0.00000000000E+00  0.45593999997E+02  0.45594000000E+02  0.51100000000E-03 0.  1.
         11   -1    0    0    0    0 -0.00000000000E+00 -0.00000000000E+00 -0.45593999997E+02  0.45594000000E+02  0.51100000000E-03 0. -1.
    9900012    2    1    2    0    0 -0.24630851731E+02 -0.20084027498E+02  0.25833494967E+01  0.59301941727E+02  0.49999995805E+02 0.  0.
        -12    1    1    2    0    0  0.24630851731E+02  0.20084027498E+02 -0.25833494967E+01  0.31886058273E+02  0.00000000000E+00 0.  1.
         11    1    3    3    0    0 -0.97868283730E+00 -0.27189089363E+02  0.72620152380E+01  0.28159212810E+02  0.51100000000E-03 0. -1.
        -11    1    3    3    0    0 -0.18581238826E+02 -0.30540507507E+01 -0.58743742655E+01  0.19725565532E+02  0.51100000000E-03 0.  1.
         12    1    3    3    0    0 -0.50709300682E+01  0.10159112616E+02  0.11957085241E+01  0.11417163386E+02  0.00000000000E+00 0. -1.
</event>
<event>
 7    1  0.6180395E-013  0.5930192E+02  0.7816164E-02  0.1266605E+00
        -11   -1    0    0    0    0  0.00000000000E+00  0.00000000000E+00  0.45593999997E+02  0.45594000000E+02  0.51100000000E-03 0.  1.
         11   -1    0    0    0    0 -0.00000000000E+00 -0.00000000000E+00 -0.45593999997E+02  0.45594000000E+02  0.51100000000E-03 0. -1.
    9900012    2    1    2    0    0  0.11764117730E+02  0.24274630102E+01 -0.29537014562E+02  0.59301917270E+02  0.49999951201E+02 0.  0.
        -12    1    1    2    0    0 -0.11764117730E+02 -0.24274630102E+01  0.29537014562E+02  0.31886082730E+02  0.00000000000E+00 0.  1.
         11    1    3    3    0    0  0.53485302935E+01  0.43889081582E+01 -0.14451263272E+02  0.16022119134E+02  0.51100000000E-03 0. -1.
        -11    1    3    3    0    0  0.10037758440E+02 -0.19382317004E+02 -0.12895591211E+02  0.25352062636E+02  0.51100000000E-03 0.  1.
        -12    1    3    3    0    0 -0.36221710037E+01  0.17420871856E+02 -0.21901600787E+01  0.17927735501E+02  0.00000000000E+00 0.  1.
</event>
<event>
 7    1  0.6180395E-013  0.5930198E+02  0.7816164E-02  0.1266605E+00
        -11   -1    0    0    0    0  0.00000000000E+00  0.00000000000E+00  0.45593999997E+02  0.45594000000E+02  0.51100000000E-03 0. -1.
         11   -1    0    0    0    0 -0.00000000000E+00 -0.00000000000E+00 -0.45593999997E+02  0.45594000000E+02  0.51100000000E-03 0.  1.
    9900012    2    1    2    0    0 -0.11225070815E+02 -0.29824200460E+02  0.11105674759E+01  0.59301976290E+02  0.50000058839E+02 0.  0.
        -12    1    1    2    0    0  0.11225070815E+02  0.29824200460E+02 -0.11105674759E+01  0.31886023710E+02  0.00000000000E+00 0.  1.
         11    1    3    3    0    0  0.38793977489E+01  0.33677864873E+00  0.99824483605E+01  0.10715055869E+02  0.51100000000E-03 0. -1.
        -11    1    3    3    0    0 -0.25372647670E+02 -0.16267781868E+02 -0.84657981499E+01  0.31306256807E+02  0.51100000000E-03 0.  1.
         12    1    3    3    0    0  0.10268179106E+02 -0.13893197241E+02 -0.40608273469E+00  0.17280663614E+02  0.00000000000E+00 0. -1.
</event>
<event>
 7    1  0.6180395E-013  0.5930199E+02  0.7816164E-02  0.1266605E+00
        -11   -1    0    0    0    0  0.00000000000E+00  0.00000000000E+00  0.45593999997E+02  0.45594000000E+02  0.51100000000E-03 0. -1.
         11   -1    0    0    0    0 -0.00000000000E+00 -0.00000000000E+00 -0.45593999997E+02  0.45594000000E+02  0.51100000000E-03 0.  1.
    9900012    2    1    2    0    0 -0.26422044002E+02  0.15908511738E+02 -0.80939612932E+01  0.59301994223E+02  0.50000091545E+02 0.  0.
        -12    1    1    2    0    0  0.26422044002E+02 -0.15908511738E+02  0.80939612932E+01  0.31886005777E+02  0.00000000000E+00 0.  1.
         11    1    3    3    0    0 -0.33558393833E+02  0.12476184260E+02 -0.33308437754E+01  0.35957134074E+02  0.51100000000E-03 0. -1.
        -11    1    3    3    0    0  0.68908134553E+01 -0.81036865257E+01 -0.51099028606E+01  0.11801023383E+02  0.51100000000E-03 0.  1.
         12    1    3    3    0    0  0.24553637529E+00  0.11536014004E+02  0.34678534279E+00  0.11543836766E+02  0.00000000000E+00 0. -1.
</event>
<event>
 7    1  0.6180395E-013  0.5930194E+02  0.7816164E-02  0.1266605E+00
        -11   -1    0    0    0    0  0.00000000000E+00  0.00000000000E+00  0.45593999997E+02  0.45594000000E+02  0.51100000000E-03 0. -1.
         11   -1    0    0    0    0 -0.00000000000E+00 -0.00000000000E+00 -0.45593999997E+02  0.45594000000E+02  0.51100000000E-03 0.  1.
    9900012    2    1    2    0    0 -0.20689403532E+02  0.69785481069E+01  0.23237232653E+02  0.59301944528E+02  0.50000000913E+02 0.  0.
        -12    1    1    2    0    0  0.20689403532E+02 -0.69785481069E+01 -0.23237232653E+02  0.31886055472E+02  0.00000000000E+00 0.  1.
         11    1    3    3    0    0 -0.19385459454E+02  0.96531138836E+01 -0.91828398571E+01  0.23522397710E+02  0.51100000000E-03 0.  1.
        -11    1    3    3    0    0 -0.34791427428E+00  0.59919613437E+01  0.17474843054E+02  0.18476871627E+02  0.51100000000E-03 0. -1.
        -12    1    3    3    0    0 -0.95602980320E+00 -0.86665271204E+01  0.14945229456E+02  0.17302675192E+02  0.00000000000E+00 0.  1.
</event>
<event>
 7    1  0.6180395E-013  0.5930195E+02  0.7816164E-02  0.1266605E+00
        -11   -1    0    0    0    0  0.00000000000E+00  0.00000000000E+00  0.45593999997E+02  0.45594000000E+02  0.51100000000E-03 0. -1.
         11   -1    0    0    0    0 -0.00000000000E+00 -0.00000000000E+00 -0.45593999997E+02  0.45594000000E+02  0.51100000000E-03 0.  1.
    9900012    2    1    2    0    0 -0.13584222859E+02  0.24772842141E+02 -0.14781596537E+02  0.59301946394E+02  0.50000004315E+02 0.  0.
        -12    1    1    2    0    0  0.13584222859E+02 -0.24772842141E+02  0.14781596537E+02  0.31886053606E+02  0.00000000000E+00 0.  1.
         11    1    3    3    0    0 -0.19115829607E+02  0.24539062361E+02 -0.14410122836E+02  0.34281659288E+02  0.51100000000E-03 0. -1.
        -11    1    3    3    0    0  0.15261471706E+01 -0.11755734319E+02 -0.27215922692E+01  0.12162790770E+02  0.51100000000E-03 0.  1.
         12    1    3    3    0    0  0.40054595781E+01  0.11989514099E+02  0.23501185676E+01  0.12857496336E+02  0.00000000000E+00 0. -1.
</event>
<event>
 7    1  0.6180395E-013  0.5930195E+02  0.7816164E-02  0.1266605E+00
        -11   -1    0    0    0    0  0.00000000000E+00  0.00000000000E+00  0.45593999997E+02  0.45594000000E+02  0.51100000000E-03 0.  1.
         11   -1    0    0    0    0 -0.00000000000E+00 -0.00000000000E+00 -0.45593999997E+02  0.45594000000E+02  0.51100000000E-03 0. -1.
    9900012    2    1    2    0    0  0.13036454246E+02  0.28346717403E+02  0.65753141284E+01  0.59301948462E+02  0.50000008086E+02 0.  0.
        -12    1    1    2    0    0 -0.13036454246E+02 -0.28346717403E+02 -0.65753141284E+01  0.31886051538E+02  0.00000000000E+00 0.  1.
         11    1    3    3    0    0 -0.15351436953E+02  0.17844013277E+02 -0.12040470941E+01  0.23569581159E+02  0.51100000000E-03 0. -1.
        -11    1    3    3    0    0  0.22505016626E+01 -0.39534838226E+01  0.30859514636E+01  0.54970800217E+01  0.51100000000E-03 0.  1.
         12    1    3    3    0    0  0.26137389536E+02  0.14456187949E+02  0.46934097589E+01  0.30235287281E+02  0.00000000000E+00 0. -1.
</event>
<event>
 7    1  0.6180395E-013  0.5930195E+02  0.7816164E-02  0.1266605E+00
        -11   -1    0    0    0    0  0.00000000000E+00  0.00000000000E+00  0.45593999997E+02  0.45594000000E+02  0.51100000000E-03 0. -1.
         11   -1    0    0    0    0 -0.00000000000E+00 -0.00000000000E+00 -0.45593999997E+02  0.45594000000E+02  0.51100000000E-03 0.  1.
    9900012    2    1    2    0    0  0.30632538069E+02 -0.76248017521E+01  0.44977873530E+01  0.59301951618E+02  0.50000013843E+02 0.  0.
        -12    1    1    2    0    0 -0.30632538069E+02  0.76248017521E+01 -0.44977873530E+01  0.31886048382E+02  0.00000000000E+00 0.  1.
         11    1    3    3    0    0  0.21009095035E+02 -0.25541673927E+02  0.11754829794E+01  0.33092913768E+02  0.51100000000E-03 0. -1.
        -11    1    3    3    0    0  0.24545224609E+01  0.18632107139E+02  0.23883039543E+01  0.18944236406E+02  0.51100000000E-03 0.  1.
         12    1    3    3    0    0  0.71689205735E+01 -0.71523496445E+00  0.93400041929E+00  0.72648014444E+01  0.00000000000E+00 0. -1.
</event>
<event>
 7    1  0.6180395E-013  0.5930177E+02  0.7816164E-02  0.1266605E+00
        -11   -1    0    0    0    0  0.00000000000E+00  0.00000000000E+00  0.45593999997E+02  0.45594000000E+02  0.51100000000E-03 0. -1.
         11   -1    0    0    0    0 -0.00000000000E+00 -0.00000000000E+00 -0.45593999997E+02  0.45594000000E+02  0.51100000000E-03 0.  1.
    9900012    2    1    2    0    0  0.10816834191E+02  0.29044507688E+02  0.74929326731E+01  0.59301774623E+02  0.49999691046E+02 0.  0.
        -12    1    1    2    0    0 -0.10816834191E+02 -0.29044507688E+02 -0.74929326731E+01  0.31886225377E+02  0.00000000000E+00 0.  1.
         11    1    3    3    0    0  0.26926116702E+01  0.31051013074E+02  0.97768535512E+01  0.32665003232E+02  0.51100000000E-03 0. -1.
        -11    1    3    3    0    0 -0.84660240211E+01  0.16657973055E+01  0.25020358150E+01  0.89837980203E+01  0.51100000000E-03 0.  1.
         12    1    3    3    0    0  0.16590246541E+02 -0.36723026918E+01 -0.47859566931E+01  0.17652973371E+02  0.00000000000E+00 0. -1.
</event>
<event>
 7    1  0.6180395E-013  0.5930225E+02  0.7816164E-02  0.1266604E+00
        -11   -1    0    0    0    0  0.00000000000E+00  0.00000000000E+00  0.45593999997E+02  0.45594000000E+02  0.51100000000E-03 0.  1.
         11   -1    0    0    0    0 -0.00000000000E+00 -0.00000000000E+00 -0.45593999997E+02  0.45594000000E+02  0.51100000000E-03 0. -1.
    9900012    2    1    2    0    0  0.29311490660E+02 -0.10166950032E+02 -0.73600739004E+01  0.59302250119E+02  0.50000558233E+02 0.  0.
        -12    1    1    2    0    0 -0.29311490660E+02  0.10166950032E+02  0.73600739004E+01  0.31885749881E+02  0.00000000000E+00 0.  1.
         11    1    3    3    0    0  0.14855572508E+02  0.44485641012E+01 -0.22314752209E+02  0.27173993514E+02  0.51100000000E-03 0. -1.
        -11    1    3    3    0    0  0.27186767882E+01  0.47253409183E+01  0.50508032049E+01  0.74317335493E+01  0.51100000000E-03 0.  1.
         12    1    3    3    0    0  0.11737241364E+02 -0.19340855051E+02  0.99038751034E+01  0.24696523055E+02  0.00000000000E+00 0. -1.
</event>
<event>
 7    1  0.6180395E-013  0.5930194E+02  0.7816164E-02  0.1266605E+00
        -11   -1    0    0    0    0  0.00000000000E+00  0.00000000000E+00  0.45593999997E+02  0.45594000000E+02  0.51100000000E-03 0.  1.
         11   -1    0    0    0    0 -0.00000000000E+00 -0.00000000000E+00 -0.45593999997E+02  0.45594000000E+02  0.51100000000E-03 0. -1.
    9900012    2    1    2    0    0  0.24895379554E+02  0.52506513873E+01  0.19219041748E+02  0.59301939898E+02  0.49999992468E+02 0.  0.
        -12    1    1    2    0    0 -0.24895379554E+02 -0.52506513873E+01 -0.19219041748E+02  0.31886060102E+02  0.00000000000E+00 0.  1.
         11    1    3    3    0    0  0.18936317500E+00  0.25578357237E+00 -0.11716244059E+02  0.11720565633E+02  0.51100000000E-03 0. -1.
        -11    1    3    3    0    0  0.13845765689E+02  0.15382284589E+02  0.21470372832E+02  0.29821080070E+02  0.51100000000E-03 0.  1.
        -12    1    3    3    0    0  0.10860250689E+02 -0.10387416774E+02  0.94649129751E+01  0.17760294195E+02  0.00000000000E+00 0.  1.
</event>
<event>
 7    1  0.6180395E-013  0.5930198E+02  0.7816164E-02  0.1266605E+00
        -11   -1    0    0    0    0  0.00000000000E+00  0.00000000000E+00  0.45593999997E+02  0.45594000000E+02  0.51100000000E-03 0. -1.
         11   -1    0    0    0    0 -0.00000000000E+00 -0.00000000000E+00 -0.45593999997E+02  0.45594000000E+02  0.51100000000E-03 0.  1.
    9900012    2    1    2    0    0 -0.21779241693E+02 -0.22294728734E+02 -0.67326046212E+01  0.59301980132E+02  0.50000065846E+02 0.  0.
        -12    1    1    2    0    0  0.21779241693E+02  0.22294728734E+02  0.67326046212E+01  0.31886019868E+02  0.00000000000E+00 0.  1.
         11    1    3    3    0    0 -0.24671930380E+02 -0.11777003760E+02 -0.79417894968E+01  0.28468824825E+02  0.51100000000E-03 0. -1.
        -11    1    3    3    0    0  0.81278381953E+01  0.48895572481E+01  0.87442480802E+01  0.12900829375E+02  0.51100000000E-03 0.  1.
        -12    1    3    3    0    0 -0.52351495078E+01 -0.15407282222E+02 -0.75350632046E+01  0.17932325932E+02  0.00000000000E+00 0.  1.
</event>
<event>
 7    1  0.6180395E-013  0.5930196E+02  0.7816164E-02  0.1266605E+00
        -11   -1    0    0    0    0  0.00000000000E+00  0.00000000000E+00  0.45593999997E+02  0.45594000000E+02  0.51100000000E-03 0.  1.
         11   -1    0    0    0    0 -0.00000000000E+00 -0.00000000000E+00 -0.45593999997E+02  0.45594000000E+02  0.51100000000E-03 0. -1.
    9900012    2    1    2    0    0  0.22996416366E+02 -0.12345873680E+01 -0.22053580067E+02  0.59301956573E+02  0.50000022880E+02 0.  0.
        -12    1    1    2    0    0 -0.22996416366E+02  0.12345873680E+01  0.22053580067E+02  0.31886043427E+02  0.00000000000E+00 0.  1.
         11    1    3    3    0    0  0.13869007990E+02 -0.18076054182E+02  0.70528898389E+00  0.22794528954E+02  0.51100000000E-03 0. -1.
        -11    1    3    3    0    0  0.12244756890E+02  0.12739392773E+02 -0.25222831863E+02  0.30796386914E+02  0.51100000000E-03 0.  1.
        -12    1    3    3    0    0 -0.31173485141E+01  0.41020740410E+01  0.24639628121E+01  0.57110407051E+01  0.00000000000E+00 0.  1.
</event>
<event>
 7    1  0.6180395E-013  0.5930194E+02  0.7816164E-02  0.1266605E+00
        -11   -1    0    0    0    0  0.00000000000E+00  0.00000000000E+00  0.45593999997E+02  0.45594000000E+02  0.51100000000E-03 0.  1.
         11   -1    0    0    0    0 -0.00000000000E+00 -0.00000000000E+00 -0.45593999997E+02  0.45594000000E+02  0.51100000000E-03 0. -1.
    9900012    2    1    2    0    0  0.43719866194E+00  0.39048077071E+01 -0.31643042414E+02  0.59301940364E+02  0.49999993318E+02 0.  0.
        -12    1    1    2    0    0 -0.43719866194E+00 -0.39048077071E+01  0.31643042414E+02  0.31886059636E+02  0.00000000000E+00 0.  1.
         11    1    3    3    0    0  0.17033549943E+02  0.12726034619E+02 -0.13970601032E+02  0.25441530501E+02  0.51100000000E-03 0. -1.
        -11    1    3    3    0    0 -0.29814414028E+01 -0.13663763299E+02 -0.11662797393E+02  0.18210114322E+02  0.51100000000E-03 0.  1.
         12    1    3    3    0    0 -0.13614909878E+02  0.48425363871E+01 -0.60096439892E+01  0.15650295541E+02  0.00000000000E+00 0. -1.
</event>
<event>
 7    1  0.6180395E-013  0.5930181E+02  0.7816164E-02  0.1266605E+00
        -11   -1    0    0    0    0  0.00000000000E+00  0.00000000000E+00  0.45593999997E+02  0.45594000000E+02  0.51100000000E-03 0.  1.
         11   -1    0    0    0    0 -0.00000000000E+00 -0.00000000000E+00 -0.45593999997E+02  0.45594000000E+02  0.51100000000E-03 0. -1.
    9900012    2    1    2    0    0 -0.23230433911E+02 -0.77913512431E+01 -0.20405161123E+02  0.59301814679E+02  0.49999764098E+02 0.  0.
        -12    1    1    2    0    0  0.23230433911E+02  0.77913512431E+01  0.20405161123E+02  0.31886185321E+02  0.00000000000E+00 0.  1.
         11    1    3    3    0    0  0.59198535629E+01 -0.12638630111E+02 -0.23766229370E+02  0.27561082998E+02  0.51100000000E-03 0. -1.
        -11    1    3    3    0    0 -0.22357775980E+02  0.79388315763E+01  0.44878140069E+00  0.23729656521E+02  0.51100000000E-03 0.  1.
         12    1    3    3    0    0 -0.67925114940E+01 -0.30915527086E+01  0.29122868464E+01  0.80110751601E+01  0.00000000000E+00 0. -1.
</event>
<event>
 7    1  0.6180395E-013  0.5930194E+02  0.7816164E-02  0.1266605E+00
        -11   -1    0    0    0    0  0.00000000000E+00  0.00000000000E+00  0.45593999997E+02  0.45594000000E+02  0.51100000000E-03 0.  1.
         11   -1    0    0    0    0 -0.00000000000E+00 -0.00000000000E+00 -0.45593999997E+02  0.45594000000E+02  0.51100000000E-03 0. -1.
    9900012    2    1    2    0    0  0.11130850141E+02  0.25963442819E+02 -0.14789342164E+02  0.59301939887E+02  0.49999992448E+02 0.  0.
        -12    1    1    2    0    0 -0.11130850141E+02 -0.25963442819E+02  0.14789342164E+02  0.31886060113E+02  0.00000000000E+00 0.  1.
         11    1    3    3    0    0  0.24403041005E+02  0.29794248008E+02 -0.14679848824E+02  0.41215331934E+02  0.51100000000E-03 0. -1.
        -11    1    3    3    0    0 -0.33357426558E+01 -0.21495190689E+01  0.53218476168E+01  0.66384993493E+01  0.51100000000E-03 0.  1.
         12    1    3    3    0    0 -0.99364482082E+01 -0.16812861200E+01 -0.54313409569E+01  0.11448108604E+02  0.00000000000E+00 0. -1.
</event>
<event>
 7    1  0.6180395E-013  0.5930194E+02  0.7816164E-02  0.1266605E+00
        -11   -1    0    0    0    0  0.00000000000E+00  0.00000000000E+00  0.45593999997E+02  0.45594000000E+02  0.51100000000E-03 0.  1.
         11   -1    0    0    0    0 -0.00000000000E+00 -0.00000000000E+00 -0.45593999997E+02  0.45594000000E+02  0.51100000000E-03 0. -1.
    9900012    2    1    2    0    0  0.20997769115E+02 -0.27030983369E+01 -0.23843400016E+02  0.59301940777E+02  0.49999994071E+02 0.  0.
        -12    1    1    2    0    0 -0.20997769115E+02  0.27030983369E+01  0.23843400016E+02  0.31886059223E+02  0.00000000000E+00 0.  1.
         11    1    3    3    0    0  0.18136178740E+02 -0.76634055428E+01 -0.21815121644E+02  0.29386192275E+02  0.51100000000E-03 0. -1.
        -11    1    3    3    0    0 -0.90168790800E+01  0.12404567036E+02  0.16467364244E+01  0.15423654976E+02  0.51100000000E-03 0.  1.
        -12    1    3    3    0    0  0.11878469455E+02 -0.74442598304E+01 -0.36750147968E+01  0.14492093527E+02  0.00000000000E+00 0.  1.
</event>
<event>
 7    1  0.6180395E-013  0.5930195E+02  0.7816164E-02  0.1266605E+00
        -11   -1    0    0    0    0  0.00000000000E+00  0.00000000000E+00  0.45593999997E+02  0.45594000000E+02  0.51100000000E-03 0.  1.
         11   -1    0    0    0    0 -0.00000000000E+00 -0.00000000000E+00 -0.45593999997E+02  0.45594000000E+02  0.51100000000E-03 0. -1.
    9900012    2    1    2    0    0  0.24973070058E+02  0.19159096021E+02 -0.50985109399E+01  0.59301952859E+02  0.50000016106E+02 0.  0.
        -12    1    1    2    0    0 -0.24973070058E+02 -0.19159096021E+02  0.50985109399E+01  0.31886047141E+02  0.00000000000E+00 0.  1.
         11    1    3    3    0    0 -0.20956407109E+01  0.18422825605E+02 -0.16969003263E+02  0.25134424307E+02  0.51100000000E-03 0. -1.
        -11    1    3    3    0    0  0.18269246032E+02  0.11087037063E+01 -0.12718105182E+01  0.18346990945E+02  0.51100000000E-03 0.  1.
         12    1    3    3    0    0  0.87994647374E+01 -0.37243329030E+00  0.13142302841E+02  0.15820537607E+02  0.00000000000E+00 0. -1.
</event>
<event>
 7    1  0.6180395E-013  0.5930193E+02  0.7816164E-02  0.1266605E+00
        -11   -1    0    0    0    0  0.00000000000E+00  0.00000000000E+00  0.45593999997E+02  0.45594000000E+02  0.51100000000E-03 0. -1.
         11   -1    0    0    0    0 -0.00000000000E+00 -0.00000000000E+00 -0.45593999997E+02  0.45594000000E+02  0.51100000000E-03 0.  1.
    9900012    2    1    2    0    0  0.18261178516E+02  0.33855683775E+01  0.25918893680E+02  0.59301925239E+02  0.49999965734E+02 0.  0.
        -12    1    1    2    0    0 -0.18261178516E+02 -0.33855683775E+01 -0.25918893680E+02  0.31886074761E+02  0.00000000000E+00 0.  1.
         11    1    3    3    0    0  0.28137679198E+01  0.82956979144E+01  0.23401440410E+02  0.24987262902E+02  0.51100000000E-03 0. -1.
        -11    1    3    3    0    0 -0.24939445912E+01 -0.12913089617E+02 -0.37808502699E+01  0.13684387897E+02  0.51100000000E-03 0.  1.
        -12    1    3    3    0    0  0.17941355187E+02  0.80029600802E+01  0.62983035398E+01  0.20630274440E+02  0.00000000000E+00 0.  1.
</event>
<event>
 7    1  0.6180395E-013  0.5930195E+02  0.7816164E-02  0.1266605E+00
        -11   -1    0    0    0    0  0.00000000000E+00  0.00000000000E+00  0.45593999997E+02  0.45594000000E+02  0.51100000000E-03 0. -1.
         11   -1    0    0    0    0 -0.00000000000E+00 -0.00000000000E+00 -0.45593999997E+02  0.45594000000E+02  0.51100000000E-03 0.  1.
    9900012    2    1    2    0    0  0.71859715016E+01  0.26178825092E+02  0.16725761252E+02  0.59301950400E+02  0.50000011622E+02 0.  0.
        -12    1    1    2    0    0 -0.71859715016E+01 -0.26178825092E+02 -0.16725761252E+02  0.31886049600E+02  0.00000000000E+00 0.  1.
         11    1    3    3    0    0 -0.18438528973E+02  0.45550967531E+01  0.52340031757E+01  0.19700838729E+02  0.51100000000E-03 0. -1.
        -11    1    3    3    0    0  0.66032275985E+01  0.52105222783E+01 -0.47738090663E+01  0.96716808463E+01  0.51100000000E-03 0.  1.
         12    1    3    3    0    0  0.19021272876E+02  0.16413206061E+02  0.16265567143E+02  0.29929430825E+02  0.00000000000E+00 0. -1.
</event>
<event>
 7    1  0.6180395E-013  0.5930193E+02  0.7816164E-02  0.1266605E+00
        -11   -1    0    0    0    0  0.00000000000E+00  0.00000000000E+00  0.45593999997E+02  0.45594000000E+02  0.51100000000E-03 0.  1.
         11   -1    0    0    0    0 -0.00000000000E+00 -0.00000000000E+00 -0.45593999997E+02  0.45594000000E+02  0.51100000000E-03 0. -1.
    9900012    2    1    2    0    0  0.71106987808E+01 -0.18639007604E+02 -0.24874617893E+02  0.59301933185E+02  0.49999980226E+02 0.  0.
        -12    1    1    2    0    0 -0.71106987808E+01  0.18639007604E+02  0.24874617893E+02  0.31886066815E+02  0.00000000000E+00 0.  1.
         11    1    3    3    0    0 -0.10956882546E+02 -0.12162631522E+02 -0.14866233094E+02  0.22113067796E+02  0.51100000000E-03 0. -1.
        -11    1    3    3    0    0  0.68539642950E+01  0.42266879582E+01  0.93819460934E+01  0.12363762794E+02  0.51100000000E-03 0.  1.
        -12    1    3    3    0    0  0.11213617032E+02 -0.10703064041E+02 -0.19390330892E+02  0.24825102596E+02  0.00000000000E+00 0.  1.
</event>
<event>
 7    1  0.6180395E-013  0.5930194E+02  0.7816164E-02  0.1266605E+00
        -11   -1    0    0    0    0  0.00000000000E+00  0.00000000000E+00  0.45593999997E+02  0.45594000000E+02  0.51100000000E-03 0. -1.
         11   -1    0    0    0    0 -0.00000000000E+00 -0.00000000000E+00 -0.45593999997E+02  0.45594000000E+02  0.51100000000E-03 0.  1.
    9900012    2    1    2    0    0  0.37329561415E+01  0.21747454482E+02  0.23018119392E+02  0.59301944139E+02  0.50000000203E+02 0.  0.
        -12    1    1    2    0    0 -0.37329561415E+01 -0.21747454482E+02 -0.23018119392E+02  0.31886055861E+02  0.00000000000E+00 0.  1.
         11    1    3    3    0    0 -0.74552483993E+01  0.28279460125E+01  0.11626553637E+02  0.14098040895E+02  0.51100000000E-03 0. -1.
        -11    1    3    3    0    0  0.56168752210E+01 -0.69948005227E+01 -0.82701160182E+01  0.12201284392E+02  0.51100000000E-03 0.  1.
        -12    1    3    3    0    0  0.55713293198E+01  0.25914308993E+02  0.19661681773E+02  0.33002618852E+02  0.00000000000E+00 0.  1.
</event>
<event>
 7    1  0.6180395E-013  0.5930194E+02  0.7816164E-02  0.1266605E+00
        -11   -1    0    0    0    0  0.00000000000E+00  0.00000000000E+00  0.45593999997E+02  0.45594000000E+02  0.51100000000E-03 0.  1.
         11   -1    0    0    0    0 -0.00000000000E+00 -0.00000000000E+00 -0.45593999997E+02  0.45594000000E+02  0.51100000000E-03 0. -1.
    9900012    2    1    2    0    0 -0.20065290660E+02 -0.14598781472E+02 -0.20024504400E+02  0.59301935862E+02  0.49999985107E+02 0.  0.
        -12    1    1    2    0    0  0.20065290660E+02  0.14598781472E+02  0.20024504400E+02  0.31886064138E+02  0.00000000000E+00 0.  1.
         11    1    3    3    0    0  0.53219586542E+01  0.24011003443E+01 -0.24382905072E+02  0.25072187515E+02  0.51100000000E-03 0. -1.
        -11    1    3    3    0    0 -0.81565129088E+01  0.17073867535E+01 -0.45133040826E+00  0.83455120728E+01  0.51100000000E-03 0.  1.
         12    1    3    3    0    0 -0.17230736405E+02 -0.18707268570E+02  0.48097310799E+01  0.25884236274E+02  0.00000000000E+00 0. -1.
</event>
<event>
 7    1  0.6180395E-013  0.5930194E+02  0.7816164E-02  0.1266605E+00
        -11   -1    0    0    0    0  0.00000000000E+00  0.00000000000E+00  0.45593999997E+02  0.45594000000E+02  0.51100000000E-03 0. -1.
         11   -1    0    0    0    0 -0.00000000000E+00 -0.00000000000E+00 -0.45593999997E+02  0.45594000000E+02  0.51100000000E-03 0.  1.
    9900012    2    1    2    0    0  0.11841880833E+02 -0.15761270737E+01  0.29563605264E+02  0.59301936047E+02  0.49999985445E+02 0.  0.
        -12    1    1    2    0    0 -0.11841880833E+02  0.15761270737E+01 -0.29563605264E+02  0.31886063953E+02  0.00000000000E+00 0.  1.
         11    1    3    3    0    0 -0.39392154470E+01  0.21757825075E+02  0.81128512062E+01  0.23552892079E+02  0.51100000000E-03 0. -1.
        -11    1    3    3    0    0  0.11845591095E+02 -0.17263942856E+02  0.13086783709E+02  0.24690598604E+02  0.51100000000E-03 0.  1.
         12    1    3    3    0    0  0.39355051849E+01 -0.60700092931E+01  0.83639703487E+01  0.11058445364E+02  0.00000000000E+00 0. -1.
</event>
<event>
 7    1  0.6180395E-013  0.5930192E+02  0.7816164E-02  0.1266605E+00
        -11   -1    0    0    0    0  0.00000000000E+00  0.00000000000E+00  0.45593999997E+02  0.45594000000E+02  0.51100000000E-03 0.  1.
         11   -1    0    0    0    0 -0.00000000000E+00 -0.00000000000E+00 -0.45593999997E+02  0.45594000000E+02  0.51100000000E-03 0. -1.
    9900012    2    1    2    0    0 -0.12882290433E+02 -0.27027792335E+02 -0.10966629500E+02  0.59301922664E+02  0.49999961037E+02 0.  0.
        -12    1    1    2    0    0  0.12882290433E+02  0.27027792335E+02  0.10966629500E+02  0.31886077336E+02  0.00000000000E+00 0.  1.
         11    1    3    3    0    0  0.15995905928E+02 -0.28408409070E+01  0.70051509446E+00  0.16261306994E+02  0.51100000000E-03 0. -1.
        -11    1    3    3    0    0 -0.23850949244E+02 -0.10990984148E+02 -0.29046421756E+01  0.26421704313E+02  0.51100000000E-03 0.  1.
         12    1    3    3    0    0 -0.50272471163E+01 -0.13195967280E+02 -0.87625024189E+01  0.16618911356E+02  0.00000000000E+00 0. -1.
</event>
<event>
 7    1  0.6180395E-013  0.5930196E+02  0.7816164E-02  0.1266605E+00
        -11   -1    0    0    0    0  0.00000000000E+00  0.00000000000E+00  0.45593999997E+02  0.45594000000E+02  0.51100000000E-03 0.  1.
         11   -1    0    0    0    0 -0.00000000000E+00 -0.00000000000E+00 -0.45593999997E+02  0.45594000000E+02  0.51100000000E-03 0. -1.
    9900012    2    1    2    0    0 -0.31679378219E+02 -0.95610525794E+00 -0.34960597373E+01  0.59301959554E+02  0.50000028317E+02 0.  0.
        -12    1    1    2    0    0  0.31679378219E+02  0.95610525794E+00  0.34960597373E+01  0.31886040446E+02  0.00000000000E+00 0.  1.
         11    1    3    3    0    0 -0.39400972758E+02 -0.13063198405E+02 -0.10266024880E+02  0.42760672047E+02  0.51100000000E-03 0. -1.
        -11    1    3    3    0    0  0.17190616926E+01  0.70085114149E+01  0.33060918668E+01  0.79375467903E+01  0.51100000000E-03 0.  1.
         12    1    3    3    0    0  0.60025328464E+01  0.50985817320E+01  0.34638732757E+01  0.86037407167E+01  0.00000000000E+00 0. -1.
</event>
<event>
 7    1  0.6180395E-013  0.5930194E+02  0.7816164E-02  0.1266605E+00
        -11   -1    0    0    0    0  0.00000000000E+00  0.00000000000E+00  0.45593999997E+02  0.45594000000E+02  0.51100000000E-03 0.  1.
         11   -1    0    0    0    0 -0.00000000000E+00 -0.00000000000E+00 -0.45593999997E+02  0.45594000000E+02  0.51100000000E-03 0. -1.
    9900012    2    1    2    0    0 -0.31335564429E+02  0.58966600516E+01  0.18147147681E+00  0.59301935180E+02  0.49999983864E+02 0.  0.
        -12    1    1    2    0    0  0.31335564429E+02 -0.58966600516E+01 -0.18147147681E+00  0.31886064820E+02  0.00000000000E+00 0.  1.
         11    1    3    3    0    0 -0.39505158787E+02  0.11345010599E+02 -0.78258914387E+01  0.41840308475E+02  0.51100000000E-03 0. -1.
        -11    1    3    3    0    0  0.95357885885E+00 -0.35089449367E+01  0.92022337341E+01  0.98946002024E+01  0.51100000000E-03 0.  1.
         12    1    3    3    0    0  0.72160154992E+01 -0.19394056107E+01 -0.11948708185E+01  0.75670265019E+01  0.00000000000E+00 0. -1.
</event>
<event>
 7    1  0.6180395E-013  0.5930198E+02  0.7816164E-02  0.1266605E+00
        -11   -1    0    0    0    0  0.00000000000E+00  0.00000000000E+00  0.45593999997E+02  0.45594000000E+02  0.51100000000E-03 0.  1.
         11   -1    0    0    0    0 -0.00000000000E+00 -0.00000000000E+00 -0.45593999997E+02  0.45594000000E+02  0.51100000000E-03 0. -1.
    9900012    2    1    2    0    0  0.41717545723E+01  0.27078616566E+02 -0.16311446389E+02  0.59301979636E+02  0.50000064941E+02 0.  0.
        -12    1    1    2    0    0 -0.41717545723E+01 -0.27078616566E+02  0.16311446389E+02  0.31886020364E+02  0.00000000000E+00 0.  1.
         11    1    3    3    0    0  0.20735533734E+02  0.18193171406E+01 -0.14409583920E+02  0.25316168413E+02  0.51100000000E-03 0. -1.
        -11    1    3    3    0    0 -0.12707453049E+02  0.25690376439E+02 -0.49063134063E+01  0.29078285990E+02  0.51100000000E-03 0.  1.
        -12    1    3    3    0    0 -0.38563261128E+01 -0.43107701385E+00  0.30044509376E+01  0.49075252334E+01  0.00000000000E+00 0.  1.
</event>
<event>
 7    1  0.6850300E-013  0.5930211E+02  0.7816164E-02  0.1266604E+00
        -11   -1    0    0    0    0  0.00000000000E+00  0.00000000000E+00  0.45593999997E+02  0.45594000000E+02  0.51100000000E-03 0. -1.
         11   -1    0    0    0    0 -0.00000000000E+00 -0.00000000000E+00 -0.45593999997E+02  0.45594000000E+02  0.51100000000E-03 0.  1.
    9900012    2    1    2    0    0 -0.11884326122E+02 -0.21371314948E+02  0.20463134560E+02  0.59302106786E+02  0.50000296832E+02 0.  0.
        -12    1    1    2    0    0  0.11884326122E+02  0.21371314948E+02 -0.20463134560E+02  0.31885893214E+02  0.00000000000E+00 0.  1.
         11    1    3    3    0    0 -0.14042590102E+02 -0.96614828861E+01  0.12660348687E+02  0.21232593281E+02  0.51100000000E-03 0. -1.
        -11    1    3    3    0    0  0.13518551914E+02 -0.19318740543E+02  0.45269667253E+01  0.24009548309E+02  0.51100000000E-03 0.  1.
        -12    1    3    3    0    0 -0.11360287934E+02  0.76089084807E+01  0.32758191482E+01  0.14059965196E+02  0.00000000000E+00 0.  1.
</event>
<event>
 7    1  0.6180395E-013  0.5930194E+02  0.7816164E-02  0.1266605E+00
        -11   -1    0    0    0    0  0.00000000000E+00  0.00000000000E+00  0.45593999997E+02  0.45594000000E+02  0.51100000000E-03 0. -1.
         11   -1    0    0    0    0 -0.00000000000E+00 -0.00000000000E+00 -0.45593999997E+02  0.45594000000E+02  0.51100000000E-03 0.  1.
    9900012    2    1    2    0    0 -0.10634791669E+02 -0.28303032499E+02  0.10127204843E+02  0.59301941598E+02  0.49999995569E+02 0.  0.
        -12    1    1    2    0    0  0.10634791669E+02  0.28303032499E+02 -0.10127204843E+02  0.31886058402E+02  0.00000000000E+00 0.  1.
         11    1    3    3    0    0  0.36796595187E+01  0.95373639845E+01  0.42961784392E+01  0.11088658863E+02  0.51100000000E-03 0. -1.
        -11    1    3    3    0    0 -0.62021406044E+01 -0.39043547315E+02  0.61366469933E+01  0.40006544110E+02  0.51100000000E-03 0.  1.
        -12    1    3    3    0    0 -0.81123105830E+01  0.12031508316E+01 -0.30562058947E+00  0.82067386253E+01  0.00000000000E+00 0.  1.
</event>
<event>
 7    1  0.6180395E-013  0.5930197E+02  0.7816164E-02  0.1266605E+00
        -11   -1    0    0    0    0  0.00000000000E+00  0.00000000000E+00  0.45593999997E+02  0.45594000000E+02  0.51100000000E-03 0.  1.
         11   -1    0    0    0    0 -0.00000000000E+00 -0.00000000000E+00 -0.45593999997E+02  0.45594000000E+02  0.51100000000E-03 0. -1.
    9900012    2    1    2    0    0 -0.29960491812E+02 -0.94506157096E+01 -0.54565084112E+01  0.59301973421E+02  0.50000053607E+02 0.  0.
        -12    1    1    2    0    0  0.29960491812E+02  0.94506157096E+01  0.54565084112E+01  0.31886026579E+02  0.00000000000E+00 0.  1.
         11    1    3    3    0    0 -0.12687644700E+02 -0.69839341800E+01 -0.12691505234E+02  0.19256842161E+02  0.51100000000E-03 0. -1.
        -11    1    3    3    0    0  0.41980176846E+01  0.39060925752E+01  0.15222557261E+02  0.16266750183E+02  0.51100000000E-03 0.  1.
        -12    1    3    3    0    0 -0.21470864797E+02 -0.63727741048E+01 -0.79875604385E+01  0.23778381077E+02  0.00000000000E+00 0.  1.
</event>
<event>
 7    1  0.6180395E-013  0.5930194E+02  0.7816164E-02  0.1266605E+00
        -11   -1    0    0    0    0  0.00000000000E+00  0.00000000000E+00  0.45593999997E+02  0.45594000000E+02  0.51100000000E-03 0.  1.
         11   -1    0    0    0    0 -0.00000000000E+00 -0.00000000000E+00 -0.45593999997E+02  0.45594000000E+02  0.51100000000E-03 0. -1.
    9900012    2    1    2    0    0  0.10047319464E+02  0.23088852786E+02 -0.19562131757E+02  0.59301941130E+02  0.49999994715E+02 0.  0.
        -12    1    1    2    0    0 -0.10047319464E+02 -0.23088852786E+02  0.19562131757E+02  0.31886058870E+02  0.00000000000E+00 0.  1.
         11    1    3    3    0    0 -0.13514933308E+02  0.19629040645E+01 -0.11491539050E+02  0.17848302011E+02  0.51100000000E-03 0. -1.
        -11    1    3    3    0    0  0.20203752888E+02  0.26771499614E+02 -0.41289157041E+01  0.33792791650E+02  0.51100000000E-03 0.  1.
        -12    1    3    3    0    0  0.33584998843E+01 -0.56455508927E+01 -0.39416770020E+01  0.76608474690E+01  0.00000000000E+00 0.  1.
</event>
<event>
 7    1  0.6180395E-013  0.5930194E+02  0.7816164E-02  0.1266605E+00
        -11   -1    0    0    0    0  0.00000000000E+00  0.00000000000E+00  0.45593999997E+02  0.45594000000E+02  0.51100000000E-03 0.  1.
         11   -1    0    0    0    0 -0.00000000000E+00 -0.00000000000E+00 -0.45593999997E+02  0.45594000000E+02  0.51100000000E-03 0. -1.
    9900012    2    1    2    0    0  0.19918822009E+01  0.27404745218E+02 -0.16178176943E+02  0.59301936204E+02  0.49999985731E+02 0.  0.
        -12    1    1    2    0    0 -0.19918822009E+01 -0.27404745218E+02  0.16178176943E+02  0.31886063796E+02  0.00000000000E+00 0.  1.
         11    1    3    3    0    0  0.11556502492E+01 -0.45785369600E+01 -0.50620509387E+01  0.69226359257E+01  0.51100000000E-03 0. -1.
        -11    1    3    3    0    0  0.48451790078E+01  0.20132712517E+02 -0.25804178363E+02  0.33085608566E+02  0.51100000000E-03 0.  1.
        -12    1    3    3    0    0 -0.40089470561E+01  0.11850569661E+02  0.14688052359E+02  0.19293691712E+02  0.00000000000E+00 0.  1.
</event>
<event>
 7    1  0.6180395E-013  0.5930192E+02  0.7816164E-02  0.1266605E+00
        -11   -1    0    0    0    0  0.00000000000E+00  0.00000000000E+00  0.45593999997E+02  0.45594000000E+02  0.51100000000E-03 0.  1.
         11   -1    0    0    0    0 -0.00000000000E+00 -0.00000000000E+00 -0.45593999997E+02  0.45594000000E+02  0.51100000000E-03 0. -1.
    9900012    2    1    2    0    0 -0.15793927148E+02  0.21207560364E+02 -0.17818901306E+02  0.59301921610E+02  0.49999959116E+02 0.  0.
        -12    1    1    2    0    0  0.15793927148E+02 -0.21207560364E+02  0.17818901306E+02  0.31886078390E+02  0.00000000000E+00 0.  1.
         11    1    3    3    0    0 -0.35804583879E+01  0.25671968309E+02  0.40418289478E+01  0.26233681035E+02  0.51100000000E-03 0.  1.
        -11    1    3    3    0    0 -0.44181071510E+01 -0.37854934715E+01  0.33207459966E+01  0.66990287248E+01  0.51100000000E-03 0. -1.
         12    1    3    3    0    0 -0.77953616088E+01 -0.67891447350E+00 -0.25181476250E+02  0.26369211850E+02  0.00000000000E+00 0. -1.
</event>
<event>
 7    1  0.6180395E-013  0.5930199E+02  0.7816164E-02  0.1266605E+00
        -11   -1    0    0    0    0  0.00000000000E+00  0.00000000000E+00  0.45593999997E+02  0.45594000000E+02  0.51100000000E-03 0.  1.
         11   -1    0    0    0    0 -0.00000000000E+00 -0.00000000000E+00 -0.45593999997E+02  0.45594000000E+02  0.51100000000E-03 0. -1.
    9900012    2    1    2    0    0  0.53980224100E+01  0.23023931317E+02 -0.21388726375E+02  0.59301989349E+02  0.50000082656E+02 0.  0.
        -12    1    1    2    0    0 -0.53980224100E+01 -0.23023931317E+02  0.21388726375E+02  0.31886010651E+02  0.00000000000E+00 0.  1.
         11    1    3    3    0    0 -0.14148636470E+02  0.17281281020E+02 -0.15776650489E+02  0.27344639119E+02  0.51100000000E-03 0. -1.
        -11    1    3    3    0    0  0.64884398330E+01 -0.33094313451E+01  0.81547316257E+01  0.10933976195E+02  0.51100000000E-03 0.  1.
         12    1    3    3    0    0  0.13058219047E+02  0.90520816423E+01 -0.13766807512E+02  0.21023374035E+02  0.00000000000E+00 0. -1.
</event>
<event>
 7    1  0.6180395E-013  0.5930197E+02  0.7816164E-02  0.1266605E+00
        -11   -1    0    0    0    0  0.00000000000E+00  0.00000000000E+00  0.45593999997E+02  0.45594000000E+02  0.51100000000E-03 0.  1.
         11   -1    0    0    0    0 -0.00000000000E+00 -0.00000000000E+00 -0.45593999997E+02  0.45594000000E+02  0.51100000000E-03 0. -1.
    9900012    2    1    2    0    0  0.17208640715E+02  0.26011855520E+02 -0.66306116057E+01  0.59301969310E+02  0.50000046109E+02 0.  0.
        -12    1    1    2    0    0 -0.17208640715E+02 -0.26011855520E+02  0.66306116057E+01  0.31886030690E+02  0.00000000000E+00 0.  1.
         11    1    3    3    0    0 -0.51365938972E+01  0.85590794171E+01  0.14072148615E+02  0.17253052027E+02  0.51100000000E-03 0. -1.
        -11    1    3    3    0    0  0.31887796292E+00 -0.13357049307E+01 -0.11628084930E+02  0.11708891930E+02  0.51100000000E-03 0.  1.
         12    1    3    3    0    0  0.22026356650E+02  0.18788481034E+02 -0.90746752911E+01  0.30340025354E+02  0.00000000000E+00 0. -1.
</event>
<event>
 7    1  0.6180395E-013  0.5930194E+02  0.7816164E-02  0.1266605E+00
        -11   -1    0    0    0    0  0.00000000000E+00  0.00000000000E+00  0.45593999997E+02  0.45594000000E+02  0.51100000000E-03 0. -1.
         11   -1    0    0    0    0 -0.00000000000E+00 -0.00000000000E+00 -0.45593999997E+02  0.45594000000E+02  0.51100000000E-03 0.  1.
    9900012    2    1    2    0    0 -0.32956153529E+01  0.25499928038E+02  0.18857716578E+02  0.59301939016E+02  0.49999990861E+02 0.  0.
        -12    1    1    2    0    0  0.32956153529E+01 -0.25499928038E+02 -0.18857716578E+02  0.31886060984E+02  0.00000000000E+00 0.  1.
         11    1    3    3    0    0 -0.13174932364E+01  0.12541433105E+02 -0.13657734659E+02  0.18589164829E+02  0.51100000000E-03 0. -1.
        -11    1    3    3    0    0  0.40663779761E+01 -0.44648728033E+01  0.73360600368E+01  0.95020153714E+01  0.51100000000E-03 0.  1.
         12    1    3    3    0    0 -0.60445000926E+01  0.17423367737E+02  0.25179391200E+02  0.31210758816E+02  0.00000000000E+00 0. -1.
</event>
<event>
 7    1  0.6180395E-013  0.5930187E+02  0.7816164E-02  0.1266605E+00
        -11   -1    0    0    0    0  0.00000000000E+00  0.00000000000E+00  0.45593999997E+02  0.45594000000E+02  0.51100000000E-03 0.  1.
         11   -1    0    0    0    0 -0.00000000000E+00 -0.00000000000E+00 -0.45593999997E+02  0.45594000000E+02  0.51100000000E-03 0. -1.
    9900012    2    1    2    0    0  0.30889477699E+02 -0.72830930284E+01 -0.30857858738E+01  0.59301868986E+02  0.49999863142E+02 0.  0.
        -12    1    1    2    0    0 -0.30889477699E+02  0.72830930284E+01  0.30857858738E+01  0.31886131014E+02  0.00000000000E+00 0.  1.
         11    1    3    3    0    0 -0.37639295300E+00  0.57570019093E+01 -0.17331713483E+00  0.57718958522E+01  0.51100000000E-03 0. -1.
        -11    1    3    3    0    0  0.36417577439E+02 -0.32435183131E+01 -0.12750441210E+02  0.38721235891E+02  0.51100000000E-03 0.  1.
        -12    1    3    3    0    0 -0.51517067877E+01 -0.97965766246E+01  0.98379724713E+01  0.14808737243E+02  0.00000000000E+00 0.  1.
</event>
<event>
 7    1  0.6180395E-013  0.5930199E+02  0.7816164E-02  0.1266605E+00
        -11   -1    0    0    0    0  0.00000000000E+00  0.00000000000E+00  0.45593999997E+02  0.45594000000E+02  0.51100000000E-03 0.  1.
         11   -1    0    0    0    0 -0.00000000000E+00 -0.00000000000E+00 -0.45593999997E+02  0.45594000000E+02  0.51100000000E-03 0. -1.
    9900012    2    1    2    0    0 -0.11476975540E+00 -0.30954868397E+02  0.76485627637E+01  0.59301991126E+02  0.50000085895E+02 0.  0.
        -12    1    1    2    0    0  0.11476975540E+00  0.30954868397E+02 -0.76485627637E+01  0.31886008874E+02  0.00000000000E+00 0.  1.
         11    1    3    3    0    0 -0.56890305908E+01  0.41309254174E+01 -0.10415591873E+02  0.12566390420E+02  0.51100000000E-03 0. -1.
        -11    1    3    3    0    0  0.26477460923E+01 -0.10072359585E+02  0.18853985713E+02  0.21539168148E+02  0.51100000000E-03 0.  1.
         12    1    3    3    0    0  0.29265147431E+01 -0.25013434230E+02 -0.78983107596E+00  0.25196432558E+02  0.00000000000E+00 0. -1.
</event>
<event>
 7    1  0.6180395E-013  0.5930201E+02  0.7816164E-02  0.1266605E+00
        -11   -1    0    0    0    0  0.00000000000E+00  0.00000000000E+00  0.45593999997E+02  0.45594000000E+02  0.51100000000E-03 0.  1.
         11   -1    0    0    0    0 -0.00000000000E+00 -0.00000000000E+00 -0.45593999997E+02  0.45594000000E+02  0.51100000000E-03 0. -1.
    9900012    2    1    2    0    0  0.90438064002E+01  0.10260144433E+02 -0.28803740038E+02  0.59302008747E+02  0.50000118033E+02 0.  0.
        -12    1    1    2    0    0 -0.90438064002E+01 -0.10260144433E+02  0.28803740038E+02  0.31885991253E+02  0.00000000000E+00 0.  1.
         11    1    3    3    0    0 -0.11794514948E+02  0.15452588078E+01 -0.19081073474E+02  0.22485234551E+02  0.51100000000E-03 0. -1.
        -11    1    3    3    0    0  0.13553150271E+02  0.42882697613E+01  0.85956311838E+01  0.16612104488E+02  0.51100000000E-03 0.  1.
         12    1    3    3    0    0  0.72851710767E+01  0.44266158643E+01 -0.18318297748E+02  0.20204669708E+02  0.00000000000E+00 0. -1.
</event>
<event>
 7    1  0.6180395E-013  0.5930197E+02  0.7816164E-02  0.1266605E+00
        -11   -1    0    0    0    0  0.00000000000E+00  0.00000000000E+00  0.45593999997E+02  0.45594000000E+02  0.51100000000E-03 0. -1.
         11   -1    0    0    0    0 -0.00000000000E+00 -0.00000000000E+00 -0.45593999997E+02  0.45594000000E+02  0.51100000000E-03 0.  1.
    9900012    2    1    2    0    0 -0.17238615290E+02  0.36759756989E+01  0.26571342474E+02  0.59301970217E+02  0.50000047763E+02 0.  0.
        -12    1    1    2    0    0  0.17238615290E+02 -0.36759756989E+01 -0.26571342474E+02  0.31886029783E+02  0.00000000000E+00 0.  1.
         11    1    3    3    0    0 -0.18815724353E+02  0.40389170674E+01  0.74170468974E+01  0.20624182867E+02  0.51100000000E-03 0. -1.
        -11    1    3    3    0    0  0.57693759922E+01 -0.15602189712E+02  0.47656768245E+01  0.17303921492E+02  0.51100000000E-03 0.  1.
        -12    1    3    3    0    0 -0.41922669288E+01  0.15239248344E+02  0.14388618752E+02  0.21373865857E+02  0.00000000000E+00 0.  1.
</event>
<event>
 7    1  0.6180395E-013  0.5930194E+02  0.7816164E-02  0.1266605E+00
        -11   -1    0    0    0    0  0.00000000000E+00  0.00000000000E+00  0.45593999997E+02  0.45594000000E+02  0.51100000000E-03 0. -1.
         11   -1    0    0    0    0 -0.00000000000E+00 -0.00000000000E+00 -0.45593999997E+02  0.45594000000E+02  0.51100000000E-03 0.  1.
    9900012    2    1    2    0    0 -0.19768016869E+01  0.89257840953E+01  0.30547398306E+02  0.59301938627E+02  0.49999990150E+02 0.  0.
        -12    1    1    2    0    0  0.19768016869E+01 -0.89257840953E+01 -0.30547398306E+02  0.31886061373E+02  0.00000000000E+00 0.  1.
         11    1    3    3    0    0 -0.48357888815E+01 -0.81544285442E+01 -0.99221934434E+01  0.13723318913E+02  0.51100000000E-03 0. -1.
        -11    1    3    3    0    0 -0.37556775537E+01  0.89288726152E+01  0.13316050704E+02  0.16466544467E+02  0.51100000000E-03 0.  1.
         12    1    3    3    0    0  0.66146647483E+01  0.81513400243E+01  0.27153541045E+02  0.29112075247E+02  0.00000000000E+00 0. -1.
</event>
<event>
 7    1  0.6180395E-013  0.5930192E+02  0.7816164E-02  0.1266605E+00
        -11   -1    0    0    0    0  0.00000000000E+00  0.00000000000E+00  0.45593999997E+02  0.45594000000E+02  0.51100000000E-03 0. -1.
         11   -1    0    0    0    0 -0.00000000000E+00 -0.00000000000E+00 -0.45593999997E+02  0.45594000000E+02  0.51100000000E-03 0.  1.
    9900012    2    1    2    0    0 -0.50012230065E+01 -0.27030534760E+02  0.16157354455E+02  0.59301919276E+02  0.49999954859E+02 0.  0.
        -12    1    1    2    0    0  0.50012230065E+01  0.27030534760E+02 -0.16157354455E+02  0.31886080724E+02  0.00000000000E+00 0.  1.
         11    1    3    3    0    0 -0.14644134400E+01 -0.31856481229E+02  0.82649654814E+01  0.32943733208E+02  0.51100000000E-03 0. -1.
        -11    1    3    3    0    0 -0.35766138547E+01  0.12692364339E+02  0.11690639828E+02  0.17622693864E+02  0.51100000000E-03 0.  1.
        -12    1    3    3    0    0  0.39804288214E-01 -0.78664178700E+01 -0.37982508544E+01  0.87354922036E+01  0.00000000000E+00 0.  1.
</event>
<event>
 7    1  0.6180395E-013  0.5930195E+02  0.7816164E-02  0.1266605E+00
        -11   -1    0    0    0    0  0.00000000000E+00  0.00000000000E+00  0.45593999997E+02  0.45594000000E+02  0.51100000000E-03 0.  1.
         11   -1    0    0    0    0 -0.00000000000E+00 -0.00000000000E+00 -0.45593999997E+02  0.45594000000E+02  0.51100000000E-03 0. -1.
    9900012    2    1    2    0    0  0.18800932963E+02  0.23739573292E+02  0.99838698495E+01  0.59301951679E+02  0.50000013953E+02 0.  0.
        -12    1    1    2    0    0 -0.18800932963E+02 -0.23739573292E+02 -0.99838698495E+01  0.31886048321E+02  0.00000000000E+00 0.  1.
         11    1    3    3    0    0  0.45083876794E+00 -0.10500530271E+02  0.33043386733E+01  0.11017397420E+02  0.51100000000E-03 0. -1.
        -11    1    3    3    0    0  0.21716609802E+02  0.11104910970E+02  0.45168439538E+01  0.24805887779E+02  0.51100000000E-03 0.  1.
         12    1    3    3    0    0 -0.33665156065E+01  0.23135192593E+02  0.21626872224E+01  0.23478666480E+02  0.00000000000E+00 0. -1.
</event>
<event>
 7    1  0.6180395E-013  0.5930193E+02  0.7816164E-02  0.1266605E+00
        -11   -1    0    0    0    0  0.00000000000E+00  0.00000000000E+00  0.45593999997E+02  0.45594000000E+02  0.51100000000E-03 0.  1.
         11   -1    0    0    0    0 -0.00000000000E+00 -0.00000000000E+00 -0.45593999997E+02  0.45594000000E+02  0.51100000000E-03 0. -1.
    9900012    2    1    2    0    0  0.10518717588E+01  0.24262587813E+02  0.20662563785E+02  0.59301934960E+02  0.49999983463E+02 0.  0.
        -12    1    1    2    0    0 -0.10518717588E+01 -0.24262587813E+02 -0.20662563785E+02  0.31886065040E+02  0.00000000000E+00 0.  1.
         11    1    3    3    0    0 -0.16252718149E+02  0.13890265920E+02  0.70034145291E+01  0.22497514305E+02  0.51100000000E-03 0. -1.
        -11    1    3    3    0    0  0.74756180396E+01  0.53359897233E+01  0.21420016580E+02  0.23306109971E+02  0.51100000000E-03 0.  1.
         12    1    3    3    0    0  0.98289718683E+01  0.50363321694E+01 -0.77608673245E+01  0.13498310685E+02  0.00000000000E+00 0. -1.
</event>
<event>
 7    1  0.6180395E-013  0.5930198E+02  0.7816164E-02  0.1266605E+00
        -11   -1    0    0    0    0  0.00000000000E+00  0.00000000000E+00  0.45593999997E+02  0.45594000000E+02  0.51100000000E-03 0.  1.
         11   -1    0    0    0    0 -0.00000000000E+00 -0.00000000000E+00 -0.45593999997E+02  0.45594000000E+02  0.51100000000E-03 0. -1.
    9900012    2    1    2    0    0  0.18072506501E+02  0.25543020817E+02 -0.61365447998E+01  0.59301975071E+02  0.50000056616E+02 0.  0.
        -12    1    1    2    0    0 -0.18072506501E+02 -0.25543020817E+02  0.61365447998E+01  0.31886024929E+02  0.00000000000E+00 0.  1.
         11    1    3    3    0    0  0.53122088481E+01  0.33638097494E+02  0.67077574323E+01  0.34709295238E+02  0.51100000000E-03 0. -1.
        -11    1    3    3    0    0  0.81322927429E+01 -0.75644405871E+01 -0.15623005907E+02  0.19168548731E+02  0.51100000000E-03 0.  1.
         12    1    3    3    0    0  0.46280049096E+01 -0.53063608962E+00  0.27787036744E+01  0.54241311021E+01  0.00000000000E+00 0. -1.
</event>
<event>
 7    1  0.6180395E-013  0.5930157E+02  0.7816164E-02  0.1266606E+00
        -11   -1    0    0    0    0  0.00000000000E+00  0.00000000000E+00  0.45593999997E+02  0.45594000000E+02  0.51100000000E-03 0.  1.
         11   -1    0    0    0    0 -0.00000000000E+00 -0.00000000000E+00 -0.45593999997E+02  0.45594000000E+02  0.51100000000E-03 0. -1.
    9900012    2    1    2    0    0 -0.17920642063E+02  0.15615122433E+02 -0.21254719905E+02  0.59301567481E+02  0.49999313264E+02 0.  0.
        -12    1    1    2    0    0  0.17920642063E+02 -0.15615122433E+02  0.21254719905E+02  0.31886432519E+02  0.00000000000E+00 0.  1.
         11    1    3    3    0    0 -0.48205912097E+01  0.49092513222E+01  0.48849279725E+00  0.68976426139E+01  0.51100000000E-03 0. -1.
        -11    1    3    3    0    0 -0.23917785112E+01  0.27601999077E+01 -0.34057858544E+02  0.34253131781E+02  0.51100000000E-03 0.  1.
        -12    1    3    3    0    0 -0.10708272342E+02  0.79456712033E+01  0.12314645842E+02  0.18150793086E+02  0.00000000000E+00 0.  1.
</event>
<event>
 7    1  0.6180395E-013  0.5930198E+02  0.7816164E-02  0.1266605E+00
        -11   -1    0    0    0    0  0.00000000000E+00  0.00000000000E+00  0.45593999997E+02  0.45594000000E+02  0.51100000000E-03 0.  1.
         11   -1    0    0    0    0 -0.00000000000E+00 -0.00000000000E+00 -0.45593999997E+02  0.45594000000E+02  0.51100000000E-03 0. -1.
    9900012    2    1    2    0    0  0.42839961845E+01  0.31594144986E+02 -0.41927911845E+00  0.59301977738E+02  0.50000061479E+02 0.  0.
        -12    1    1    2    0    0 -0.42839961845E+01 -0.31594144986E+02  0.41927911845E+00  0.31886022262E+02  0.00000000000E+00 0.  1.
         11    1    3    3    0    0  0.11815176695E+02  0.10695953314E+02 -0.76346100677E+01  0.17671703053E+02  0.51100000000E-03 0. -1.
        -11    1    3    3    0    0 -0.68383473161E+01  0.68223594827E+01  0.20248549786E+02  0.22434601659E+02  0.51100000000E-03 0.  1.
        -12    1    3    3    0    0 -0.69283319478E+00  0.14075832190E+02 -0.13033218836E+02  0.19195673026E+02  0.00000000000E+00 0.  1.
</event>
<event>
 7    1  0.6180395E-013  0.5930195E+02  0.7816164E-02  0.1266605E+00
        -11   -1    0    0    0    0  0.00000000000E+00  0.00000000000E+00  0.45593999997E+02  0.45594000000E+02  0.51100000000E-03 0.  1.
         11   -1    0    0    0    0 -0.00000000000E+00 -0.00000000000E+00 -0.45593999997E+02  0.45594000000E+02  0.51100000000E-03 0. -1.
    9900012    2    1    2    0    0 -0.21900147520E+02 -0.14736604606E+02 -0.17886759732E+02  0.59301950536E+02  0.50000011870E+02 0.  0.
        -12    1    1    2    0    0  0.21900147520E+02  0.14736604606E+02  0.17886759732E+02  0.31886049464E+02  0.00000000000E+00 0.  1.
         11    1    3    3    0    0 -0.24618921986E+02 -0.12113699732E+02 -0.33206161112E+02  0.43075308206E+02  0.51100000000E-03 0. -1.
        -11    1    3    3    0    0 -0.53554421158E+00 -0.15370067297E+01  0.77053795074E+01  0.78754092531E+01  0.51100000000E-03 0.  1.
         12    1    3    3    0    0  0.32543186776E+01 -0.10858981441E+01  0.76140218728E+01  0.83512330775E+01  0.00000000000E+00 0. -1.
</event>
<event>
 7    1  0.6180395E-013  0.5930192E+02  0.7816164E-02  0.1266605E+00
        -11   -1    0    0    0    0  0.00000000000E+00  0.00000000000E+00  0.45593999997E+02  0.45594000000E+02  0.51100000000E-03 0.  1.
         11   -1    0    0    0    0 -0.00000000000E+00 -0.00000000000E+00 -0.45593999997E+02  0.45594000000E+02  0.51100000000E-03 0. -1.
    9900012    2    1    2    0    0  0.23604864669E+02 -0.21093563111E+02  0.38202158697E+01  0.59301920121E+02  0.49999956400E+02 0.  0.
        -12    1    1    2    0    0 -0.23604864669E+02  0.21093563111E+02 -0.38202158697E+01  0.31886079879E+02  0.00000000000E+00 0.  1.
         11    1    3    3    0    0  0.37029977732E+02 -0.13840716090E+02  0.11467431059E+02  0.41161713377E+02  0.51100000000E-03 0. -1.
        -11    1    3    3    0    0 -0.75575325923E+01 -0.13318686987E+01 -0.57552390597E+01  0.95923380888E+01  0.51100000000E-03 0.  1.
         12    1    3    3    0    0 -0.58675804712E+01 -0.59209783224E+01 -0.18919761299E+01  0.85478686558E+01  0.00000000000E+00 0. -1.
</event>
<event>
 7    1  0.6180395E-013  0.5930201E+02  0.7816164E-02  0.1266605E+00
        -11   -1    0    0    0    0  0.00000000000E+00  0.00000000000E+00  0.45593999997E+02  0.45594000000E+02  0.51100000000E-03 0. -1.
         11   -1    0    0    0    0 -0.00000000000E+00 -0.00000000000E+00 -0.45593999997E+02  0.45594000000E+02  0.51100000000E-03 0.  1.
    9900012    2    1    2    0    0  0.27397129946E+02  0.14415352166E+02  0.76361934810E+01  0.59302006864E+02  0.50000114599E+02 0.  0.
        -12    1    1    2    0    0 -0.27397129946E+02 -0.14415352166E+02 -0.76361934810E+01  0.31885993136E+02  0.00000000000E+00 0.  1.
         11    1    3    3    0    0 -0.13191639459E+01 -0.50950301130E+01 -0.53055597419E+01  0.74731847164E+01  0.51100000000E-03 0. -1.
        -11    1    3    3    0    0  0.26176788492E+02  0.27307050630E+02  0.16360727439E+01  0.37862593733E+02  0.51100000000E-03 0.  1.
        -12    1    3    3    0    0  0.25395053999E+01 -0.77966683512E+01  0.11305680479E+02  0.13966228415E+02  0.00000000000E+00 0.  1.
</event>
<event>
 7    1  0.6180395E-013  0.5930193E+02  0.7816164E-02  0.1266605E+00
        -11   -1    0    0    0    0  0.00000000000E+00  0.00000000000E+00  0.45593999997E+02  0.45594000000E+02  0.51100000000E-03 0.  1.
         11   -1    0    0    0    0 -0.00000000000E+00 -0.00000000000E+00 -0.45593999997E+02  0.45594000000E+02  0.51100000000E-03 0. -1.
    9900012    2    1    2    0    0 -0.11590047243E+02 -0.94199914185E+01 -0.28171896370E+02  0.59301934415E+02  0.49999982468E+02 0.  0.
        -12    1    1    2    0    0  0.11590047243E+02  0.94199914185E+01  0.28171896370E+02  0.31886065585E+02  0.00000000000E+00 0.  1.
         11    1    3    3    0    0 -0.95619210611E+01 -0.50069396409E+01  0.56544477865E+01  0.12184931636E+02  0.51100000000E-03 0. -1.
        -11    1    3    3    0    0  0.12562478293E+02 -0.83982473253E+00 -0.28537277580E+02  0.31191302929E+02  0.51100000000E-03 0.  1.
        -12    1    3    3    0    0 -0.14590604475E+02 -0.35732270451E+01 -0.52890665765E+01  0.15925699850E+02  0.00000000000E+00 0.  1.
</event>
<event>
 7    1  0.6180395E-013  0.5930194E+02  0.7816164E-02  0.1266605E+00
        -11   -1    0    0    0    0  0.00000000000E+00  0.00000000000E+00  0.45593999997E+02  0.45594000000E+02  0.51100000000E-03 0.  1.
         11   -1    0    0    0    0 -0.00000000000E+00 -0.00000000000E+00 -0.45593999997E+02  0.45594000000E+02  0.51100000000E-03 0. -1.
    9900012    2    1    2    0    0 -0.28066675508E+02  0.14160606344E+02  0.53347986817E+01  0.59301935284E+02  0.49999984053E+02 0.  0.
        -12    1    1    2    0    0  0.28066675508E+02 -0.14160606344E+02 -0.53347986817E+01  0.31886064716E+02  0.00000000000E+00 0.  1.
         11    1    3    3    0    0 -0.23503817531E+02 -0.52787582018E+01 -0.43496091806E+01  0.24478844478E+02  0.51100000000E-03 0. -1.
        -11    1    3    3    0    0  0.15788193230E+00  0.60067863489E+01  0.17554745591E+02  0.18554662540E+02  0.51100000000E-03 0.  1.
         12    1    3    3    0    0 -0.47207399095E+01  0.13432578196E+02 -0.78703377285E+01  0.16268428266E+02  0.00000000000E+00 0. -1.
</event>
<event>
 7    1  0.6180395E-013  0.5930196E+02  0.7816164E-02  0.1266605E+00
        -11   -1    0    0    0    0  0.00000000000E+00  0.00000000000E+00  0.45593999997E+02  0.45594000000E+02  0.51100000000E-03 0.  1.
         11   -1    0    0    0    0 -0.00000000000E+00 -0.00000000000E+00 -0.45593999997E+02  0.45594000000E+02  0.51100000000E-03 0. -1.
    9900012    2    1    2    0    0  0.43122236658E+01  0.98568969234E+01 -0.30016088079E+02  0.59301964915E+02  0.50000038093E+02 0.  0.
        -12    1    1    2    0    0 -0.43122236658E+01 -0.98568969234E+01  0.30016088079E+02  0.31886035085E+02  0.00000000000E+00 0.  1.
         11    1    3    3    0    0  0.10396170318E+02  0.15556944235E+02 -0.32450145088E+02  0.37458120451E+02  0.51100000000E-03 0. -1.
        -11    1    3    3    0    0 -0.13432524383E+02 -0.40516012069E+01  0.37091405524E+00  0.14035161600E+02  0.51100000000E-03 0.  1.
        -12    1    3    3    0    0  0.73485777310E+01 -0.16484461049E+01  0.20631429541E+01  0.78086828645E+01  0.00000000000E+00 0.  1.
</event>
<event>
 7    1  0.6180395E-013  0.5930193E+02  0.7816164E-02  0.1266605E+00
        -11   -1    0    0    0    0  0.00000000000E+00  0.00000000000E+00  0.45593999997E+02  0.45594000000E+02  0.51100000000E-03 0.  1.
         11   -1    0    0    0    0 -0.00000000000E+00 -0.00000000000E+00 -0.45593999997E+02  0.45594000000E+02  0.51100000000E-03 0. -1.
    9900012    2    1    2    0    0  0.13700937168E+02  0.29469935110E+01 -0.28641246818E+02  0.59301929854E+02  0.49999974151E+02 0.  0.
        -12    1    1    2    0    0 -0.13700937168E+02 -0.29469935110E+01  0.28641246818E+02  0.31886070146E+02  0.00000000000E+00 0.  1.
         11    1    3    3    0    0  0.69417171670E+01  0.94819360313E+01 -0.18353491215E+02  0.21793237212E+02  0.51100000000E-03 0. -1.
        -11    1    3    3    0    0 -0.14024112373E+02 -0.18687691430E+01 -0.74387086743E+00  0.14167616952E+02  0.51100000000E-03 0.  1.
        -12    1    3    3    0    0  0.20783332374E+02 -0.46661733774E+01 -0.95438847361E+01  0.23341075691E+02  0.00000000000E+00 0.  1.
</event>
<event>
 7    1  0.6180395E-013  0.5930194E+02  0.7816164E-02  0.1266605E+00
        -11   -1    0    0    0    0  0.00000000000E+00  0.00000000000E+00  0.45593999997E+02  0.45594000000E+02  0.51100000000E-03 0.  1.
         11   -1    0    0    0    0 -0.00000000000E+00 -0.00000000000E+00 -0.45593999997E+02  0.45594000000E+02  0.51100000000E-03 0. -1.
    9900012    2    1    2    0    0 -0.30120297291E+01 -0.72169025008E+01 -0.30912208335E+02  0.59301943033E+02  0.49999998185E+02 0.  0.
        -12    1    1    2    0    0  0.30120297291E+01  0.72169025008E+01  0.30912208335E+02  0.31886056967E+02  0.00000000000E+00 0.  1.
         11    1    3    3    0    0  0.11166781713E+02  0.15729171061E+02 -0.23197818390E+01  0.19428978979E+02  0.51100000000E-03 0. -1.
        -11    1    3    3    0    0 -0.13415810421E+01 -0.41061298334E+01 -0.17630475956E+01  0.46656702613E+01  0.51100000000E-03 0.  1.
         12    1    3    3    0    0 -0.12837230401E+02 -0.18839943729E+02 -0.26829378900E+02  0.35207293793E+02  0.00000000000E+00 0. -1.
</event>
<event>
 7    1  0.6180395E-013  0.5930194E+02  0.7816164E-02  0.1266605E+00
        -11   -1    0    0    0    0  0.00000000000E+00  0.00000000000E+00  0.45593999997E+02  0.45594000000E+02  0.51100000000E-03 0. -1.
         11   -1    0    0    0    0 -0.00000000000E+00 -0.00000000000E+00 -0.45593999997E+02  0.45594000000E+02  0.51100000000E-03 0.  1.
    9900012    2    1    2    0    0 -0.35488396313E+01  0.30483293537E+02  0.86541971252E+01  0.59301943871E+02  0.49999999714E+02 0.  0.
        -12    1    1    2    0    0  0.35488396313E+01 -0.30483293537E+02 -0.86541971252E+01  0.31886056129E+02  0.00000000000E+00 0.  1.
         11    1    3    3    0    0 -0.53830836362E+01  0.12649056934E+01  0.72333964188E+01  0.91049217383E+01  0.51100000000E-03 0. -1.
        -11    1    3    3    0    0  0.14455671327E+02  0.32551471973E+02  0.64711839565E+01  0.36200013580E+02  0.51100000000E-03 0.  1.
        -12    1    3    3    0    0 -0.12621427322E+02 -0.33330841295E+01 -0.50503832501E+01  0.13997008553E+02  0.00000000000E+00 0.  1.
</event>
<event>
 7    1  0.6180395E-013  0.5930195E+02  0.7816164E-02  0.1266605E+00
        -11   -1    0    0    0    0  0.00000000000E+00  0.00000000000E+00  0.45593999997E+02  0.45594000000E+02  0.51100000000E-03 0.  1.
         11   -1    0    0    0    0 -0.00000000000E+00 -0.00000000000E+00 -0.45593999997E+02  0.45594000000E+02  0.51100000000E-03 0. -1.
    9900012    2    1    2    0    0 -0.18424722974E+02  0.62668558425E+01 -0.25258198684E+02  0.59301945061E+02  0.50000001884E+02 0.  0.
        -12    1    1    2    0    0  0.18424722974E+02 -0.62668558425E+01  0.25258198684E+02  0.31886054939E+02  0.00000000000E+00 0.  1.
         11    1    3    3    0    0 -0.45700273812E+01  0.17483946629E+02  0.28530949450E+00  0.18073597920E+02  0.51100000000E-03 0. -1.
        -11    1    3    3    0    0 -0.68914539113E+01 -0.19998804689E+02 -0.16486766577E+02  0.26818982054E+02  0.51100000000E-03 0.  1.
         12    1    3    3    0    0 -0.69632416819E+01  0.87817139025E+01 -0.90567416015E+01  0.14409365087E+02  0.00000000000E+00 0. -1.
</event>
<event>
 7    1  0.6180395E-013  0.5930194E+02  0.7816164E-02  0.1266605E+00
        -11   -1    0    0    0    0  0.00000000000E+00  0.00000000000E+00  0.45593999997E+02  0.45594000000E+02  0.51100000000E-03 0. -1.
         11   -1    0    0    0    0 -0.00000000000E+00 -0.00000000000E+00 -0.45593999997E+02  0.45594000000E+02  0.51100000000E-03 0.  1.
    9900012    2    1    2    0    0  0.26683337718E+02 -0.68265977201E+01 -0.16066041362E+02  0.59301942965E+02  0.49999998061E+02 0.  0.
        -12    1    1    2    0    0 -0.26683337718E+02  0.68265977201E+01  0.16066041362E+02  0.31886057035E+02  0.00000000000E+00 0.  1.
         11    1    3    3    0    0  0.23802915823E+01  0.12622562927E+02  0.10976607480E+02  0.16896176931E+02  0.51100000000E-03 0. -1.
        -11    1    3    3    0    0  0.24122271093E+02 -0.17674042886E+02 -0.22196717502E+02  0.37241777921E+02  0.51100000000E-03 0.  1.
         12    1    3    3    0    0  0.18077504293E+00 -0.17751177610E+01 -0.48459313395E+01  0.51639881128E+01  0.00000000000E+00 0. -1.
</event>
<event>
 7    1  0.6180395E-013  0.5930195E+02  0.7816164E-02  0.1266605E+00
        -11   -1    0    0    0    0  0.00000000000E+00  0.00000000000E+00  0.45593999997E+02  0.45594000000E+02  0.51100000000E-03 0.  1.
         11   -1    0    0    0    0 -0.00000000000E+00 -0.00000000000E+00 -0.45593999997E+02  0.45594000000E+02  0.51100000000E-03 0. -1.
    9900012    2    1    2    0    0 -0.77926975274E+01 -0.10987961221E+02 -0.28900843933E+02  0.59301949655E+02  0.50000010263E+02 0.  0.
        -12    1    1    2    0    0  0.77926975274E+01  0.10987961221E+02  0.28900843933E+02  0.31886050345E+02  0.00000000000E+00 0.  1.
         11    1    3    3    0    0  0.16419866978E+02 -0.14945658068E+02 -0.16533998383E+02  0.27683168704E+02  0.51100000000E-03 0.  1.
        -11    1    3    3    0    0 -0.23857083796E+02 -0.56107343288E+00 -0.76089398741E+01  0.25047379442E+02  0.51100000000E-03 0. -1.
         12    1    3    3    0    0 -0.35548070894E+00  0.45187702801E+01 -0.47579056756E+01  0.65714015093E+01  0.00000000000E+00 0. -1.
</event>
<event>
 7    1  0.6180395E-013  0.5930194E+02  0.7816164E-02  0.1266605E+00
        -11   -1    0    0    0    0  0.00000000000E+00  0.00000000000E+00  0.45593999997E+02  0.45594000000E+02  0.51100000000E-03 0. -1.
         11   -1    0    0    0    0 -0.00000000000E+00 -0.00000000000E+00 -0.45593999997E+02  0.45594000000E+02  0.51100000000E-03 0.  1.
    9900012    2    1    2    0    0 -0.22201890296E+02 -0.21381685419E+02  0.81621192714E+01  0.59301943564E+02  0.49999999154E+02 0.  0.
        -12    1    1    2    0    0  0.22201890296E+02  0.21381685419E+02 -0.81621192714E+01  0.31886056436E+02  0.00000000000E+00 0.  1.
         11    1    3    3    0    0 -0.13624766873E+02 -0.18892400206E+02  0.26385247938E+02  0.35195715179E+02  0.51100000000E-03 0. -1.
        -11    1    3    3    0    0 -0.63060764019E+01 -0.66976539975E+01 -0.16737144412E+02  0.19098617018E+02  0.51100000000E-03 0.  1.
         12    1    3    3    0    0 -0.22710470210E+01  0.42083687848E+01 -0.14859842549E+01  0.50076113673E+01  0.00000000000E+00 0. -1.
</event>
<event>
 7    1  0.6180395E-013  0.5930195E+02  0.7816164E-02  0.1266605E+00
        -11   -1    0    0    0    0  0.00000000000E+00  0.00000000000E+00  0.45593999997E+02  0.45594000000E+02  0.51100000000E-03 0.  1.
         11   -1    0    0    0    0 -0.00000000000E+00 -0.00000000000E+00 -0.45593999997E+02  0.45594000000E+02  0.51100000000E-03 0. -1.
    9900012    2    1    2    0    0  0.22309784953E+02  0.65775608586E+01 -0.21811219684E+02  0.59301951082E+02  0.50000012865E+02 0.  0.
        -12    1    1    2    0    0 -0.22309784953E+02 -0.65775608586E+01  0.21811219684E+02  0.31886048918E+02  0.00000000000E+00 0.  1.
         11    1    3    3    0    0  0.79501388016E+00 -0.53682141467E+01 -0.19987374686E+02  0.20710985426E+02  0.51100000000E-03 0. -1.
        -11    1    3    3    0    0  0.27835713294E+02  0.36596805605E+01 -0.44870485235E+00  0.28078844931E+02  0.51100000000E-03 0.  1.
        -12    1    3    3    0    0 -0.63209422212E+01  0.82860944447E+01 -0.13751401456E+01  0.10512120725E+02  0.00000000000E+00 0.  1.
</event>
<event>
 7    1  0.6180395E-013  0.5930196E+02  0.7816164E-02  0.1266605E+00
        -11   -1    0    0    0    0  0.00000000000E+00  0.00000000000E+00  0.45593999997E+02  0.45594000000E+02  0.51100000000E-03 0.  1.
         11   -1    0    0    0    0 -0.00000000000E+00 -0.00000000000E+00 -0.45593999997E+02  0.45594000000E+02  0.51100000000E-03 0. -1.
    9900012    2    1    2    0    0 -0.24603403121E+02 -0.40564400280E+01 -0.19873037929E+02  0.59301956229E+02  0.50000022252E+02 0.  0.
        -12    1    1    2    0    0  0.24603403121E+02  0.40564400280E+01  0.19873037929E+02  0.31886043771E+02  0.00000000000E+00 0.  1.
         11    1    3    3    0    0 -0.30455479795E+02  0.44820994901E+00 -0.69125135587E+01  0.31233315316E+02  0.51100000000E-03 0. -1.
        -11    1    3    3    0    0  0.16811794033E+01  0.96203579073E+01 -0.76746695377E+01  0.12420877716E+02  0.51100000000E-03 0.  1.
         12    1    3    3    0    0  0.41708972697E+01 -0.14125007884E+02 -0.52858548325E+01  0.15647763197E+02  0.00000000000E+00 0. -1.
</event>
<event>
 7    1  0.6180395E-013  0.5930192E+02  0.7816164E-02  0.1266605E+00
        -11   -1    0    0    0    0  0.00000000000E+00  0.00000000000E+00  0.45593999997E+02  0.45594000000E+02  0.51100000000E-03 0. -1.
         11   -1    0    0    0    0 -0.00000000000E+00 -0.00000000000E+00 -0.45593999997E+02  0.45594000000E+02  0.51100000000E-03 0.  1.
    9900012    2    1    2    0    0 -0.25695196340E+02  0.11710744250E+02  0.14810042350E+02  0.59301921529E+02  0.49999958968E+02 0.  0.
        -12    1    1    2    0    0  0.25695196340E+02 -0.11710744250E+02 -0.14810042350E+02  0.31886078471E+02  0.00000000000E+00 0.  1.
         11    1    3    3    0    0 -0.12573245607E+02  0.19829677761E+02 -0.83623769944E+01  0.24924525562E+02  0.51100000000E-03 0. -1.
        -11    1    3    3    0    0  0.31986441409E+01  0.63594986109E+00  0.12676969399E+02  0.13089740638E+02  0.51100000000E-03 0.  1.
         12    1    3    3    0    0 -0.16320594873E+02 -0.87548833721E+01  0.10495449946E+02  0.21287655330E+02  0.00000000000E+00 0. -1.
</event>
<event>
 7    1  0.6180395E-013  0.5930195E+02  0.7816164E-02  0.1266605E+00
        -11   -1    0    0    0    0  0.00000000000E+00  0.00000000000E+00  0.45593999997E+02  0.45594000000E+02  0.51100000000E-03 0.  1.
         11   -1    0    0    0    0 -0.00000000000E+00 -0.00000000000E+00 -0.45593999997E+02  0.45594000000E+02  0.51100000000E-03 0. -1.
    9900012    2    1    2    0    0  0.92920204499E+01 -0.19046303370E+01 -0.30442583730E+02  0.59301950308E+02  0.50000011454E+02 0.  0.
        -12    1    1    2    0    0 -0.92920204499E+01  0.19046303370E+01  0.30442583730E+02  0.31886049692E+02  0.00000000000E+00 0.  1.
         11    1    3    3    0    0  0.12316833719E+02 -0.19525120379E+02 -0.33286907549E+02  0.40508677257E+02  0.51100000000E-03 0. -1.
        -11    1    3    3    0    0 -0.17812652756E+01  0.40730312338E+01  0.26740843665E+01  0.51877949915E+01  0.51100000000E-03 0.  1.
         12    1    3    3    0    0 -0.12435479932E+01  0.13547458808E+02  0.17023945170E+00  0.13605478060E+02  0.00000000000E+00 0. -1.
</event>
<event>
 7    1  0.6180395E-013  0.5930193E+02  0.7816164E-02  0.1266605E+00
        -11   -1    0    0    0    0  0.00000000000E+00  0.00000000000E+00  0.45593999997E+02  0.45594000000E+02  0.51100000000E-03 0.  1.
         11   -1    0    0    0    0 -0.00000000000E+00 -0.00000000000E+00 -0.45593999997E+02  0.45594000000E+02  0.51100000000E-03 0. -1.
    9900012    2    1    2    0    0 -0.25628370861E+02  0.13450232736E+00 -0.18970767764E+02  0.59301929163E+02  0.49999972890E+02 0.  0.
        -12    1    1    2    0    0  0.25628370861E+02 -0.13450232736E+00  0.18970767764E+02  0.31886070837E+02  0.00000000000E+00 0.  1.
         11    1    3    3    0    0 -0.93550585460E+01 -0.92299250443E+01 -0.23392328743E+02  0.26831132682E+02  0.51100000000E-03 0. -1.
        -11    1    3    3    0    0 -0.18041046933E+02  0.16034561985E+02  0.69568217033E+01  0.25119393324E+02  0.51100000000E-03 0.  1.
         12    1    3    3    0    0  0.17677346176E+01 -0.66701346131E+01 -0.25352607244E+01  0.73514031570E+01  0.00000000000E+00 0. -1.
</event>
<event>
 7    1  0.6180395E-013  0.5930195E+02  0.7816164E-02  0.1266605E+00
        -11   -1    0    0    0    0  0.00000000000E+00  0.00000000000E+00  0.45593999997E+02  0.45594000000E+02  0.51100000000E-03 0. -1.
         11   -1    0    0    0    0 -0.00000000000E+00 -0.00000000000E+00 -0.45593999997E+02  0.45594000000E+02  0.51100000000E-03 0.  1.
    9900012    2    1    2    0    0 -0.19078201858E+02  0.19784609938E+02  0.16165133246E+02  0.59301951180E+02  0.50000013044E+02 0.  0.
        -12    1    1    2    0    0  0.19078201858E+02 -0.19784609938E+02 -0.16165133246E+02  0.31886048820E+02  0.00000000000E+00 0.  1.
         11    1    3    3    0    0  0.38261766590E+01 -0.69155261416E+01  0.10327580304E+02  0.13004731633E+02  0.51100000000E-03 0.  1.
        -11    1    3    3    0    0 -0.20303541173E+02  0.29143526585E+02 -0.40846494644E+01  0.35752808106E+02  0.51100000000E-03 0. -1.
         12    1    3    3    0    0 -0.26008373440E+01 -0.24433905059E+01  0.99222024057E+01  0.10544411441E+02  0.00000000000E+00 0. -1.
</event>
<event>
 7    1  0.6180395E-013  0.5930194E+02  0.7816164E-02  0.1266605E+00
        -11   -1    0    0    0    0  0.00000000000E+00  0.00000000000E+00  0.45593999997E+02  0.45594000000E+02  0.51100000000E-03 0.  1.
         11   -1    0    0    0    0 -0.00000000000E+00 -0.00000000000E+00 -0.45593999997E+02  0.45594000000E+02  0.51100000000E-03 0. -1.
    9900012    2    1    2    0    0  0.17770639376E+02 -0.26173021423E+02  0.39872453186E+01  0.59301940358E+02  0.49999993307E+02 0.  0.
        -12    1    1    2    0    0 -0.17770639376E+02  0.26173021423E+02 -0.39872453186E+01  0.31886059642E+02  0.00000000000E+00 0.  1.
         11    1    3    3    0    0  0.72202561880E+01  0.90378663167E+00  0.71745250143E+01  0.10218744499E+02  0.51100000000E-03 0. -1.
        -11    1    3    3    0    0  0.11199053716E+02 -0.29981988692E+02 -0.16103628718E+02  0.35828275261E+02  0.51100000000E-03 0.  1.
        -12    1    3    3    0    0 -0.64867052864E+00  0.29051806369E+01  0.12916349022E+02  0.13254920598E+02  0.00000000000E+00 0.  1.
</event>
<event>
 7    1  0.6180395E-013  0.5930189E+02  0.7816164E-02  0.1266605E+00
        -11   -1    0    0    0    0  0.00000000000E+00  0.00000000000E+00  0.45593999997E+02  0.45594000000E+02  0.51100000000E-03 0. -1.
         11   -1    0    0    0    0 -0.00000000000E+00 -0.00000000000E+00 -0.45593999997E+02  0.45594000000E+02  0.51100000000E-03 0.  1.
    9900012    2    1    2    0    0 -0.13070382704E+02  0.15798869596E+02  0.24418947088E+02  0.59301887640E+02  0.49999897162E+02 0.  0.
        -12    1    1    2    0    0  0.13070382704E+02 -0.15798869596E+02 -0.24418947088E+02  0.31886112360E+02  0.00000000000E+00 0.  1.
         11    1    3    3    0    0 -0.11384791766E+01  0.17740986260E+02  0.30694678727E+02  0.35471143634E+02  0.51100000000E-03 0. -1.
        -11    1    3    3    0    0 -0.11241831230E+02  0.64212758669E+01  0.63148729018E+00  0.12961879864E+02  0.51100000000E-03 0.  1.
         12    1    3    3    0    0 -0.69007229783E+00 -0.83633925310E+01 -0.69072189287E+01  0.10868864142E+02  0.00000000000E+00 0. -1.
</event>
<event>
 7    1  0.6180395E-013  0.5930195E+02  0.7816164E-02  0.1266605E+00
        -11   -1    0    0    0    0  0.00000000000E+00  0.00000000000E+00  0.45593999997E+02  0.45594000000E+02  0.51100000000E-03 0. -1.
         11   -1    0    0    0    0 -0.00000000000E+00 -0.00000000000E+00 -0.45593999997E+02  0.45594000000E+02  0.51100000000E-03 0.  1.
    9900012    2    1    2    0    0 -0.22178762182E+02 -0.83091925057E+01  0.21348998716E+02  0.59301954177E+02  0.50000018510E+02 0.  0.
        -12    1    1    2    0    0  0.22178762182E+02  0.83091925057E+01 -0.21348998716E+02  0.31886045823E+02  0.00000000000E+00 0.  1.
         11    1    3    3    0    0  0.96929827096E+01 -0.46159374561E+01  0.11631826626E+02  0.15829092941E+02  0.51100000000E-03 0.  1.
        -11    1    3    3    0    0 -0.16446169794E+02  0.55078783136E+01 -0.72186286272E+01  0.18786213667E+02  0.51100000000E-03 0. -1.
         12    1    3    3    0    0 -0.15425575098E+02 -0.92011333632E+01  0.16935800718E+02  0.24686647569E+02  0.00000000000E+00 0. -1.
</event>
<event>
 7    1  0.6180395E-013  0.5930200E+02  0.7816164E-02  0.1266605E+00
        -11   -1    0    0    0    0  0.00000000000E+00  0.00000000000E+00  0.45593999997E+02  0.45594000000E+02  0.51100000000E-03 0.  1.
         11   -1    0    0    0    0 -0.00000000000E+00 -0.00000000000E+00 -0.45593999997E+02  0.45594000000E+02  0.51100000000E-03 0. -1.
    9900012    2    1    2    0    0 -0.23346204578E+02 -0.20903345261E+02  0.58925060245E+01  0.59302004037E+02  0.50000109442E+02 0.  0.
        -12    1    1    2    0    0  0.23346204578E+02  0.20903345261E+02 -0.58925060245E+01  0.31885995963E+02  0.00000000000E+00 0.  1.
         11    1    3    3    0    0 -0.23121470277E+02 -0.10392959363E+02  0.21380097891E+02  0.33162095504E+02  0.51100000000E-03 0. -1.
        -11    1    3    3    0    0  0.39625392722E+01 -0.11334417152E+02 -0.22300737560E+01  0.12212450978E+02  0.51100000000E-03 0.  1.
         12    1    3    3    0    0 -0.41872735733E+01  0.82403125444E+00 -0.13257518111E+02  0.13927457555E+02  0.00000000000E+00 0. -1.
</event>
<event>
 7    1  0.6180395E-013  0.5930193E+02  0.7816164E-02  0.1266605E+00
        -11   -1    0    0    0    0  0.00000000000E+00  0.00000000000E+00  0.45593999997E+02  0.45594000000E+02  0.51100000000E-03 0.  1.
         11   -1    0    0    0    0 -0.00000000000E+00 -0.00000000000E+00 -0.45593999997E+02  0.45594000000E+02  0.51100000000E-03 0. -1.
    9900012    2    1    2    0    0  0.15434753834E+02 -0.27644124924E+02  0.37805072477E+01  0.59301929314E+02  0.49999973166E+02 0.  0.
        -12    1    1    2    0    0 -0.15434753834E+02  0.27644124924E+02 -0.37805072477E+01  0.31886070686E+02  0.00000000000E+00 0.  1.
         11    1    3    3    0    0 -0.87518950699E+01 -0.10306052949E+02 -0.64625150782E+01  0.14985809825E+02  0.51100000000E-03 0. -1.
        -11    1    3    3    0    0  0.12578299402E+02  0.10672726727E+01  0.17321643599E+02  0.21433432390E+02  0.51100000000E-03 0.  1.
         12    1    3    3    0    0  0.11608349502E+02 -0.18405344647E+02 -0.70786212731E+01  0.22882687099E+02  0.00000000000E+00 0. -1.
</event>
<event>
 7    1  0.6180395E-013  0.5930196E+02  0.7816164E-02  0.1266605E+00
        -11   -1    0    0    0    0  0.00000000000E+00  0.00000000000E+00  0.45593999997E+02  0.45594000000E+02  0.51100000000E-03 0.  1.
         11   -1    0    0    0    0 -0.00000000000E+00 -0.00000000000E+00 -0.45593999997E+02  0.45594000000E+02  0.51100000000E-03 0. -1.
    9900012    2    1    2    0    0  0.10172328939E+02  0.29379023848E+02 -0.70792821215E+01  0.59301959894E+02  0.50000028936E+02 0.  0.
        -12    1    1    2    0    0 -0.10172328939E+02 -0.29379023848E+02  0.70792821215E+01  0.31886040106E+02  0.00000000000E+00 0.  1.
         11    1    3    3    0    0 -0.13826402096E+02  0.93000342148E+01 -0.59980761000E+01  0.17709798092E+02  0.51100000000E-03 0. -1.
        -11    1    3    3    0    0  0.23658630077E+02  0.22568444122E+02  0.67341536405E+01  0.33382843988E+02  0.51100000000E-03 0.  1.
         12    1    3    3    0    0  0.34010095782E+00 -0.24894544892E+01 -0.78153596620E+01  0.82093178134E+01  0.00000000000E+00 0. -1.
</event>
<event>
 7    1  0.6180395E-013  0.5930200E+02  0.7816164E-02  0.1266605E+00
        -11   -1    0    0    0    0  0.00000000000E+00  0.00000000000E+00  0.45593999997E+02  0.45594000000E+02  0.51100000000E-03 0. -1.
         11   -1    0    0    0    0 -0.00000000000E+00 -0.00000000000E+00 -0.45593999997E+02  0.45594000000E+02  0.51100000000E-03 0.  1.
    9900012    2    1    2    0    0  0.15320276930E+02 -0.12418643675E+00  0.27964096097E+02  0.59302000282E+02  0.50000102594E+02 0.  0.
        -12    1    1    2    0    0 -0.15320276930E+02  0.12418643675E+00 -0.27964096097E+02  0.31885999718E+02  0.00000000000E+00 0.  1.
         11    1    3    3    0    0  0.17088063817E+02 -0.37308697375E+01  0.69463079693E+01  0.18819471530E+02  0.51100000000E-03 0. -1.
        -11    1    3    3    0    0 -0.33214973036E+01 -0.11775536786E+02  0.21803850362E+02  0.25002069950E+02  0.51100000000E-03 0.  1.
        -12    1    3    3    0    0  0.15537104162E+01  0.15382220087E+02 -0.78606223374E+00  0.15480458801E+02  0.00000000000E+00 0.  1.
</event>
<event>
 7    1  0.6180395E-013  0.5930198E+02  0.7816164E-02  0.1266605E+00
        -11   -1    0    0    0    0  0.00000000000E+00  0.00000000000E+00  0.45593999997E+02  0.45594000000E+02  0.51100000000E-03 0.  1.
         11   -1    0    0    0    0 -0.00000000000E+00 -0.00000000000E+00 -0.45593999997E+02  0.45594000000E+02  0.51100000000E-03 0. -1.
    9900012    2    1    2    0    0 -0.15699969767E+02 -0.26763070573E+02  0.73462482666E+01  0.59301978599E+02  0.50000063050E+02 0.  0.
        -12    1    1    2    0    0  0.15699969767E+02  0.26763070573E+02 -0.73462482666E+01  0.31886021401E+02  0.00000000000E+00 0.  1.
         11    1    3    3    0    0 -0.15002205693E+02 -0.13284221510E+01  0.15101605094E+02  0.21328135356E+02  0.51100000000E-03 0. -1.
        -11    1    3    3    0    0 -0.16453920606E+01 -0.24245935584E+02  0.52646206782E+01  0.24865416517E+02  0.51100000000E-03 0.  1.
         12    1    3    3    0    0  0.94762798634E+00 -0.11887128373E+01 -0.13019977506E+02  0.13108426727E+02  0.00000000000E+00 0. -1.
</event>
<event>
 7    1  0.6180395E-013  0.5930202E+02  0.7816164E-02  0.1266605E+00
        -11   -1    0    0    0    0  0.00000000000E+00  0.00000000000E+00  0.45593999997E+02  0.45594000000E+02  0.51100000000E-03 0.  1.
         11   -1    0    0    0    0 -0.00000000000E+00 -0.00000000000E+00 -0.45593999997E+02  0.45594000000E+02  0.51100000000E-03 0. -1.
    9900012    2    1    2    0    0 -0.30975025568E+02  0.26376998086E+00 -0.75626748615E+01  0.59302018212E+02  0.50000135294E+02 0.  0.
        -12    1    1    2    0    0  0.30975025568E+02 -0.26376998086E+00  0.75626748615E+01  0.31885981788E+02  0.00000000000E+00 0.  1.
         11    1    3    3    0    0 -0.30098134346E+02 -0.72627137035E+01  0.23688199486E+01  0.31052471877E+02  0.51100000000E-03 0. -1.
        -11    1    3    3    0    0 -0.31928333665E+01  0.63942013470E+01  0.76563593320E+01  0.10473768866E+02  0.51100000000E-03 0.  1.
         12    1    3    3    0    0  0.23159421449E+01  0.11322823374E+01 -0.17587854142E+02  0.17775777469E+02  0.00000000000E+00 0. -1.
</event>
<event>
 7    1  0.6180395E-013  0.5930193E+02  0.7816164E-02  0.1266605E+00
        -11   -1    0    0    0    0  0.00000000000E+00  0.00000000000E+00  0.45593999997E+02  0.45594000000E+02  0.51100000000E-03 0. -1.
         11   -1    0    0    0    0 -0.00000000000E+00 -0.00000000000E+00 -0.45593999997E+02  0.45594000000E+02  0.51100000000E-03 0.  1.
    9900012    2    1    2    0    0  0.22495277274E+02  0.22288323473E+02  0.37302240818E+01  0.59301930400E+02  0.49999975146E+02 0.  0.
        -12    1    1    2    0    0 -0.22495277274E+02 -0.22288323473E+02 -0.37302240818E+01  0.31886069600E+02  0.00000000000E+00 0.  1.
         11    1    3    3    0    0  0.44137236903E+01  0.28673077684E+02 -0.16297237997E+01  0.29056536969E+02  0.51100000000E-03 0.  1.
        -11    1    3    3    0    0  0.22612010592E+02 -0.77506151467E+01  0.74994940340E+01  0.25052294689E+02  0.51100000000E-03 0. -1.
         12    1    3    3    0    0 -0.45304570084E+01  0.13658609351E+01 -0.21395461525E+01  0.51930987413E+01  0.00000000000E+00 0. -1.
</event>
<event>
 7    1  0.6180395E-013  0.5930191E+02  0.7816164E-02  0.1266605E+00
        -11   -1    0    0    0    0  0.00000000000E+00  0.00000000000E+00  0.45593999997E+02  0.45594000000E+02  0.51100000000E-03 0.  1.
         11   -1    0    0    0    0 -0.00000000000E+00 -0.00000000000E+00 -0.45593999997E+02  0.45594000000E+02  0.51100000000E-03 0. -1.
    9900012    2    1    2    0    0 -0.65632243809E+01  0.56859120705E+01 -0.30680889569E+02  0.59301913769E+02  0.49999944816E+02 0.  0.
        -12    1    1    2    0    0  0.65632243809E+01 -0.56859120705E+01  0.30680889569E+02  0.31886086231E+02  0.00000000000E+00 0.  1.
         11    1    3    3    0    0  0.76108520604E+01  0.12866431816E+02 -0.31519937458E+02  0.34885191620E+02  0.51100000000E-03 0. -1.
        -11    1    3    3    0    0 -0.14858695683E+02 -0.27889255713E+01 -0.59958766753E+01  0.16263747434E+02  0.51100000000E-03 0.  1.
         12    1    3    3    0    0  0.68461924180E+00 -0.43915941743E+01  0.68349245640E+01  0.81529747144E+01  0.00000000000E+00 0. -1.
</event>
<event>
 7    1  0.6180395E-013  0.5930193E+02  0.7816164E-02  0.1266605E+00
        -11   -1    0    0    0    0  0.00000000000E+00  0.00000000000E+00  0.45593999997E+02  0.45594000000E+02  0.51100000000E-03 0.  1.
         11   -1    0    0    0    0 -0.00000000000E+00 -0.00000000000E+00 -0.45593999997E+02  0.45594000000E+02  0.51100000000E-03 0. -1.
    9900012    2    1    2    0    0 -0.27976754070E+02  0.12402558240E+02 -0.89554199745E+01  0.59301925200E+02  0.49999965663E+02 0.  0.
        -12    1    1    2    0    0  0.27976754070E+02 -0.12402558240E+02  0.89554199745E+01  0.31886074800E+02  0.00000000000E+00 0.  1.
         11    1    3    3    0    0 -0.13183963750E+02 -0.19520403351E+01  0.45730123625E+01  0.14090415323E+02  0.51100000000E-03 0. -1.
        -11    1    3    3    0    0 -0.61980518103E+01  0.10866775739E+00 -0.24506431642E+02  0.25278307835E+02  0.51100000000E-03 0.  1.
        -12    1    3    3    0    0 -0.85947385096E+01  0.14245930818E+02  0.10977999305E+02  0.19933202042E+02  0.00000000000E+00 0.  1.
</event>
<event>
 7    1  0.6180395E-013  0.5930194E+02  0.7816164E-02  0.1266605E+00
        -11   -1    0    0    0    0  0.00000000000E+00  0.00000000000E+00  0.45593999997E+02  0.45594000000E+02  0.51100000000E-03 0.  1.
         11   -1    0    0    0    0 -0.00000000000E+00 -0.00000000000E+00 -0.45593999997E+02  0.45594000000E+02  0.51100000000E-03 0. -1.
    9900012    2    1    2    0    0  0.82290424351E+01  0.30064439744E+01 -0.30658843871E+02  0.59301944235E+02  0.50000000378E+02 0.  0.
        -12    1    1    2    0    0 -0.82290424351E+01 -0.30064439744E+01  0.30658843871E+02  0.31886055765E+02  0.00000000000E+00 0.  1.
         11    1    3    3    0    0 -0.17640070173E+01 -0.52455328880E+01 -0.33142096211E+02  0.33600980307E+02  0.51100000000E-03 0. -1.
        -11    1    3    3    0    0  0.47541178532E+01  0.14598048405E+02  0.63432496358E+01  0.16611486086E+02  0.51100000000E-03 0.  1.
        -12    1    3    3    0    0  0.52389315992E+01 -0.63460715424E+01 -0.38599972950E+01  0.90894778420E+01  0.00000000000E+00 0.  1.
</event>
<event>
 7    1  0.6180395E-013  0.5930195E+02  0.7816164E-02  0.1266605E+00
        -11   -1    0    0    0    0  0.00000000000E+00  0.00000000000E+00  0.45593999997E+02  0.45594000000E+02  0.51100000000E-03 0. -1.
         11   -1    0    0    0    0 -0.00000000000E+00 -0.00000000000E+00 -0.45593999997E+02  0.45594000000E+02  0.51100000000E-03 0.  1.
    9900012    2    1    2    0    0 -0.54714666439E+01 -0.26005383702E+02  0.17621101487E+02  0.59301950600E+02  0.50000011986E+02 0.  0.
        -12    1    1    2    0    0  0.54714666439E+01  0.26005383702E+02 -0.17621101487E+02  0.31886049400E+02  0.00000000000E+00 0.  1.
         11    1    3    3    0    0 -0.14144334187E+02 -0.46032238656E+01  0.29146177007E+02  0.32722339371E+02  0.51100000000E-03 0. -1.
        -11    1    3    3    0    0  0.75954508145E+01 -0.10873997452E+02 -0.51767461617E+01  0.14238447765E+02  0.51100000000E-03 0.  1.
        -12    1    3    3    0    0  0.10774167286E+01 -0.10528162384E+02 -0.63483293586E+01  0.12341163464E+02  0.00000000000E+00 0.  1.
</event>
<event>
 7    1  0.6180395E-013  0.5930192E+02  0.7816164E-02  0.1266605E+00
        -11   -1    0    0    0    0  0.00000000000E+00  0.00000000000E+00  0.45593999997E+02  0.45594000000E+02  0.51100000000E-03 0.  1.
         11   -1    0    0    0    0 -0.00000000000E+00 -0.00000000000E+00 -0.45593999997E+02  0.45594000000E+02  0.51100000000E-03 0. -1.
    9900012    2    1    2    0    0 -0.63337145268E+01  0.21207142423E+02  0.22953502274E+02  0.59301920026E+02  0.49999956227E+02 0.  0.
        -12    1    1    2    0    0  0.63337145268E+01 -0.21207142423E+02 -0.22953502274E+02  0.31886079974E+02  0.00000000000E+00 0.  1.
         11    1    3    3    0    0 -0.51094197816E+01  0.29420428412E+02  0.19833812070E+01  0.29926603211E+02  0.51100000000E-03 0. -1.
        -11    1    3    3    0    0 -0.99217433734E+01 -0.30015701477E+01  0.94272721380E+01  0.14011562195E+02  0.51100000000E-03 0.  1.
         12    1    3    3    0    0  0.86974486282E+01 -0.52117158414E+01  0.11542848929E+02  0.15363754621E+02  0.00000000000E+00 0. -1.
</event>
<event>
 7    1  0.6180395E-013  0.5930190E+02  0.7816164E-02  0.1266605E+00
        -11   -1    0    0    0    0  0.00000000000E+00  0.00000000000E+00  0.45593999997E+02  0.45594000000E+02  0.51100000000E-03 0. -1.
         11   -1    0    0    0    0 -0.00000000000E+00 -0.00000000000E+00 -0.45593999997E+02  0.45594000000E+02  0.51100000000E-03 0.  1.
    9900012    2    1    2    0    0  0.29614804168E+02  0.11061060998E+02  0.41640854683E+01  0.59301901083E+02  0.49999921680E+02 0.  0.
        -12    1    1    2    0    0 -0.29614804168E+02 -0.11061060998E+02 -0.41640854683E+01  0.31886098917E+02  0.00000000000E+00 0.  1.
         11    1    3    3    0    0  0.25470815420E+02  0.86113009881E+01  0.81088699670E+00  0.26899339785E+02  0.51100000000E-03 0. -1.
        -11    1    3    3    0    0  0.22913049039E+01 -0.10299048186E+02  0.12681844596E+02  0.16496958942E+02  0.51100000000E-03 0.  1.
        -12    1    3    3    0    0  0.18526838446E+01  0.12748808195E+02 -0.93286461247E+01  0.15905602357E+02  0.00000000000E+00 0.  1.
</event>
<event>
 7    1  0.6180395E-013  0.5930194E+02  0.7816164E-02  0.1266605E+00
        -11   -1    0    0    0    0  0.00000000000E+00  0.00000000000E+00  0.45593999997E+02  0.45594000000E+02  0.51100000000E-03 0. -1.
         11   -1    0    0    0    0 -0.00000000000E+00 -0.00000000000E+00 -0.45593999997E+02  0.45594000000E+02  0.51100000000E-03 0.  1.
    9900012    2    1    2    0    0  0.48245682372E+01 -0.19947368267E+02  0.24403822587E+02  0.59301944799E+02  0.50000001406E+02 0.  0.
        -12    1    1    2    0    0 -0.48245682372E+01  0.19947368267E+02 -0.24403822587E+02  0.31886055201E+02  0.00000000000E+00 0.  1.
         11    1    3    3    0    0 -0.70748261548E+01 -0.43936575561E+01  0.22302155836E+02  0.23806376184E+02  0.51100000000E-03 0. -1.
        -11    1    3    3    0    0  0.14045947332E+02  0.43719168791E+01 -0.25295118814E+01  0.14926510787E+02  0.51100000000E-03 0.  1.
        -12    1    3    3    0    0 -0.21465529404E+01 -0.19925627590E+02  0.46311786324E+01  0.20569057827E+02  0.00000000000E+00 0.  1.
</event>
<event>
 7    1  0.6180395E-013  0.5930206E+02  0.7816164E-02  0.1266604E+00
        -11   -1    0    0    0    0  0.00000000000E+00  0.00000000000E+00  0.45593999997E+02  0.45594000000E+02  0.51100000000E-03 0. -1.
         11   -1    0    0    0    0 -0.00000000000E+00 -0.00000000000E+00 -0.45593999997E+02  0.45594000000E+02  0.51100000000E-03 0.  1.
    9900012    2    1    2    0    0 -0.17431596377E+02 -0.26609965398E+02  0.21822556555E+01  0.59302061870E+02  0.50000214915E+02 0.  0.
        -12    1    1    2    0    0  0.17431596377E+02  0.26609965398E+02 -0.21822556555E+01  0.31885938130E+02  0.00000000000E+00 0.  1.
         11    1    3    3    0    0 -0.15255802681E+02 -0.10331005896E+02  0.83809733107E+01  0.20241292255E+02  0.51100000000E-03 0. -1.
        -11    1    3    3    0    0  0.14748622190E+02 -0.15312082812E+02 -0.60656697854E+01  0.22108235723E+02  0.51100000000E-03 0.  1.
        -12    1    3    3    0    0 -0.16924415886E+02 -0.96687668896E+00 -0.13304786974E+00  0.16952533892E+02  0.00000000000E+00 0.  1.
</event>
<event>
 7    1  0.6180395E-013  0.5930190E+02  0.7816164E-02  0.1266605E+00
        -11   -1    0    0    0    0  0.00000000000E+00  0.00000000000E+00  0.45593999997E+02  0.45594000000E+02  0.51100000000E-03 0. -1.
         11   -1    0    0    0    0 -0.00000000000E+00 -0.00000000000E+00 -0.45593999997E+02  0.45594000000E+02  0.51100000000E-03 0.  1.
    9900012    2    1    2    0    0  0.67280520275E+01  0.13200378507E+02  0.28234853238E+02  0.59301896221E+02  0.49999912813E+02 0.  0.
        -12    1    1    2    0    0 -0.67280520275E+01 -0.13200378507E+02 -0.28234853238E+02  0.31886103779E+02  0.00000000000E+00 0.  1.
         11    1    3    3    0    0  0.11195879144E+02  0.26806828619E+02  0.15840841896E+02  0.33089062282E+02  0.51100000000E-03 0. -1.
        -11    1    3    3    0    0 -0.49006687587E+01 -0.15270040313E+02  0.25726849151E+01  0.16242210237E+02  0.51100000000E-03 0.  1.
         12    1    3    3    0    0  0.43284164236E+00  0.16635902009E+01  0.98213264267E+01  0.99706237028E+01  0.00000000000E+00 0. -1.
</event>
<event>
 7    1  0.6180395E-013  0.5930191E+02  0.7816164E-02  0.1266605E+00
        -11   -1    0    0    0    0  0.00000000000E+00  0.00000000000E+00  0.45593999997E+02  0.45594000000E+02  0.51100000000E-03 0. -1.
         11   -1    0    0    0    0 -0.00000000000E+00 -0.00000000000E+00 -0.45593999997E+02  0.45594000000E+02  0.51100000000E-03 0.  1.
    9900012    2    1    2    0    0  0.12090677631E+02  0.25993015764E+02  0.13960719281E+02  0.59301905274E+02  0.49999929322E+02 0.  0.
        -12    1    1    2    0    0 -0.12090677631E+02 -0.25993015764E+02 -0.13960719281E+02  0.31886094726E+02  0.00000000000E+00 0.  1.
         11    1    3    3    0    0  0.13667734402E+02 -0.28712384241E+01  0.14257573011E+02  0.19958190353E+02  0.51100000000E-03 0. -1.
        -11    1    3    3    0    0 -0.35756243734E+01  0.25460036325E+02 -0.10978644310E+02  0.27955843226E+02  0.51100000000E-03 0.  1.
        -12    1    3    3    0    0  0.19985676027E+01  0.34042178627E+01  0.10681790580E+02  0.11387871694E+02  0.00000000000E+00 0.  1.
</event>
<event>
 7    1  0.6180395E-013  0.5930189E+02  0.7816164E-02  0.1266605E+00
        -11   -1    0    0    0    0  0.00000000000E+00  0.00000000000E+00  0.45593999997E+02  0.45594000000E+02  0.51100000000E-03 0.  1.
         11   -1    0    0    0    0 -0.00000000000E+00 -0.00000000000E+00 -0.45593999997E+02  0.45594000000E+02  0.51100000000E-03 0. -1.
    9900012    2    1    2    0    0  0.50140569804E+01 -0.12361814579E+02 -0.28961508410E+02  0.59301887091E+02  0.49999896161E+02 0.  0.
        -12    1    1    2    0    0 -0.50140569804E+01  0.12361814579E+02  0.28961508410E+02  0.31886112909E+02  0.00000000000E+00 0.  1.
         11    1    3    3    0    0 -0.13458343839E+02  0.44939729469E+01 -0.28817070381E+02  0.32120808790E+02  0.51100000000E-03 0. -1.
        -11    1    3    3    0    0  0.54745719364E+01 -0.37323343022E+01  0.46543007145E+01  0.80971459559E+01  0.51100000000E-03 0.  1.
         12    1    3    3    0    0  0.12997828883E+02 -0.13123453224E+02 -0.47987387431E+01  0.19083932344E+02  0.00000000000E+00 0. -1.
</event>
<event>
 7    1  0.6180395E-013  0.5930191E+02  0.7816164E-02  0.1266605E+00
        -11   -1    0    0    0    0  0.00000000000E+00  0.00000000000E+00  0.45593999997E+02  0.45594000000E+02  0.51100000000E-03 0. -1.
         11   -1    0    0    0    0 -0.00000000000E+00 -0.00000000000E+00 -0.45593999997E+02  0.45594000000E+02  0.51100000000E-03 0.  1.
    9900012    2    1    2    0    0  0.11495930254E+02 -0.41041737081E+01  0.29457118611E+02  0.59301913833E+02  0.49999944931E+02 0.  0.
        -12    1    1    2    0    0 -0.11495930254E+02  0.41041737081E+01 -0.29457118611E+02  0.31886086167E+02  0.00000000000E+00 0.  1.
         11    1    3    3    0    0  0.68553397887E+01  0.11856419801E+02  0.18212875890E+02  0.22787698930E+02  0.51100000000E-03 0. -1.
        -11    1    3    3    0    0 -0.11827035990E+02 -0.90417602428E+01  0.11237029916E+02  0.18652159397E+02  0.51100000000E-03 0.  1.
         12    1    3    3    0    0  0.16467626455E+02 -0.69188332660E+01  0.72128052156E-02  0.17862055505E+02  0.00000000000E+00 0. -1.
</event>
<event>
 7    1  0.6180395E-013  0.5930194E+02  0.7816164E-02  0.1266605E+00
        -11   -1    0    0    0    0  0.00000000000E+00  0.00000000000E+00  0.45593999997E+02  0.45594000000E+02  0.51100000000E-03 0.  1.
         11   -1    0    0    0    0 -0.00000000000E+00 -0.00000000000E+00 -0.45593999997E+02  0.45594000000E+02  0.51100000000E-03 0. -1.
    9900012    2    1    2    0    0  0.93196033115E+01 -0.15282133446E+02 -0.26387913396E+02  0.59301943769E+02  0.49999999529E+02 0.  0.
        -12    1    1    2    0    0 -0.93196033115E+01  0.15282133446E+02  0.26387913396E+02  0.31886056231E+02  0.00000000000E+00 0.  1.
         11    1    3    3    0    0  0.56718941873E+01 -0.52250963324E+01  0.21494446360E+00  0.77148050356E+01  0.51100000000E-03 0. -1.
        -11    1    3    3    0    0 -0.62046848001E+01  0.12682305334E+02  0.14061367469E+01  0.14188594112E+02  0.51100000000E-03 0.  1.
        -12    1    3    3    0    0  0.98523939244E+01 -0.22739342448E+02 -0.28008994606E+02  0.37398544622E+02  0.00000000000E+00 0.  1.
</event>
<event>
 7    1  0.6180395E-013  0.5930194E+02  0.7816164E-02  0.1266605E+00
        -11   -1    0    0    0    0  0.00000000000E+00  0.00000000000E+00  0.45593999997E+02  0.45594000000E+02  0.51100000000E-03 0.  1.
         11   -1    0    0    0    0 -0.00000000000E+00 -0.00000000000E+00 -0.45593999997E+02  0.45594000000E+02  0.51100000000E-03 0. -1.
    9900012    2    1    2    0    0 -0.27253013903E+02 -0.16440445406E+02 -0.19250315140E+01  0.59301941005E+02  0.49999994487E+02 0.  0.
        -12    1    1    2    0    0  0.27253013903E+02  0.16440445406E+02  0.19250315140E+01  0.31886058995E+02  0.00000000000E+00 0.  1.
         11    1    3    3    0    0 -0.20474554266E+02 -0.87770603025E+01  0.43482324968E+01  0.22696944421E+02  0.51100000000E-03 0. -1.
        -11    1    3    3    0    0 -0.14557070201E+01 -0.64276276545E+00 -0.20125536868E+02  0.20188349645E+02  0.51100000000E-03 0.  1.
        -12    1    3    3    0    0 -0.53227526168E+01 -0.70206223377E+01  0.13852272857E+02  0.16416646939E+02  0.00000000000E+00 0.  1.
</event>
<event>
 7    1  0.6180395E-013  0.5930192E+02  0.7816164E-02  0.1266605E+00
        -11   -1    0    0    0    0  0.00000000000E+00  0.00000000000E+00  0.45593999997E+02  0.45594000000E+02  0.51100000000E-03 0. -1.
         11   -1    0    0    0    0 -0.00000000000E+00 -0.00000000000E+00 -0.45593999997E+02  0.45594000000E+02  0.51100000000E-03 0.  1.
    9900012    2    1    2    0    0 -0.12265468816E+01 -0.10331896979E+02  0.30140825994E+02  0.59301923038E+02  0.49999961720E+02 0.  0.
        -12    1    1    2    0    0  0.12265468816E+01  0.10331896979E+02 -0.30140825994E+02  0.31886076962E+02  0.00000000000E+00 0.  1.
         11    1    3    3    0    0 -0.86432034773E+01  0.14231496864E+01  0.10521464027E+02  0.13690563426E+02  0.51100000000E-03 0. -1.
        -11    1    3    3    0    0  0.15083352259E+02  0.15888358569E+01 -0.55161824293E+01  0.16138778876E+02  0.51100000000E-03 0.  1.
        -12    1    3    3    0    0 -0.76666956638E+01 -0.13343882523E+02  0.25135544395E+02  0.29472580736E+02  0.00000000000E+00 0.  1.
</event>
<event>
 7    1  0.6180395E-013  0.5930191E+02  0.7816164E-02  0.1266605E+00
        -11   -1    0    0    0    0  0.00000000000E+00  0.00000000000E+00  0.45593999997E+02  0.45594000000E+02  0.51100000000E-03 0.  1.
         11   -1    0    0    0    0 -0.00000000000E+00 -0.00000000000E+00 -0.45593999997E+02  0.45594000000E+02  0.51100000000E-03 0. -1.
    9900012    2    1    2    0    0 -0.31218462749E+02  0.11833047425E+01  0.63820178578E+01  0.59301909326E+02  0.49999936712E+02 0.  0.
        -12    1    1    2    0    0  0.31218462749E+02 -0.11833047425E+01 -0.63820178578E+01  0.31886090674E+02  0.00000000000E+00 0.  1.
         11    1    3    3    0    0 -0.28933519733E+02  0.33251573524E+01  0.84595397541E+01  0.30327694417E+02  0.51100000000E-03 0. -1.
        -11    1    3    3    0    0 -0.51492314948E+01 -0.14924638454E+02 -0.72103697862E+00  0.15804408010E+02  0.51100000000E-03 0.  1.
         12    1    3    3    0    0  0.28642884786E+01  0.12782785844E+02 -0.13564849177E+01  0.13169806899E+02  0.00000000000E+00 0. -1.
</event>
<event>
 7    1  0.6180395E-013  0.5930194E+02  0.7816164E-02  0.1266605E+00
        -11   -1    0    0    0    0  0.00000000000E+00  0.00000000000E+00  0.45593999997E+02  0.45594000000E+02  0.51100000000E-03 0.  1.
         11   -1    0    0    0    0 -0.00000000000E+00 -0.00000000000E+00 -0.45593999997E+02  0.45594000000E+02  0.51100000000E-03 0. -1.
    9900012    2    1    2    0    0 -0.10783997586E+01 -0.24805232505E+02 -0.20006456104E+02  0.59301940483E+02  0.49999993536E+02 0.  0.
        -12    1    1    2    0    0  0.10783997586E+01  0.24805232505E+02  0.20006456104E+02  0.31886059517E+02  0.00000000000E+00 0.  1.
         11    1    3    3    0    0  0.91663852427E+01  0.45535134679E+01 -0.11573847166E+02  0.15450276431E+02  0.51100000000E-03 0. -1.
        -11    1    3    3    0    0 -0.94597277220E+01 -0.33892683356E+02 -0.12861711102E+02  0.37464970925E+02  0.51100000000E-03 0.  1.
        -12    1    3    3    0    0 -0.78505727931E+00  0.45339373837E+01  0.44291021637E+01  0.63866931277E+01  0.00000000000E+00 0.  1.
</event>
<event>
 7    1  0.6180395E-013  0.5930193E+02  0.7816164E-02  0.1266605E+00
        -11   -1    0    0    0    0  0.00000000000E+00  0.00000000000E+00  0.45593999997E+02  0.45594000000E+02  0.51100000000E-03 0.  1.
         11   -1    0    0    0    0 -0.00000000000E+00 -0.00000000000E+00 -0.45593999997E+02  0.45594000000E+02  0.51100000000E-03 0. -1.
    9900012    2    1    2    0    0  0.23520420747E+02  0.17106956049E+02 -0.13071475185E+02  0.59301927792E+02  0.49999970389E+02 0.  0.
        -12    1    1    2    0    0 -0.23520420747E+02 -0.17106956049E+02  0.13071475185E+02  0.31886072208E+02  0.00000000000E+00 0.  1.
         11    1    3    3    0    0 -0.12024606681E+02  0.69964968642E+01 -0.10227881101E+02  0.17267069417E+02  0.51100000000E-03 0. -1.
        -11    1    3    3    0    0  0.95200423816E+01 -0.32937195486E-01  0.76336344851E+01  0.12202650020E+02  0.51100000000E-03 0.  1.
         12    1    3    3    0    0  0.26024985046E+02  0.10143396380E+02 -0.10477228569E+02  0.29832208354E+02  0.00000000000E+00 0. -1.
</event>
<event>
 7    1  0.6180395E-013  0.5930197E+02  0.7816164E-02  0.1266605E+00
        -11   -1    0    0    0    0  0.00000000000E+00  0.00000000000E+00  0.45593999997E+02  0.45594000000E+02  0.51100000000E-03 0. -1.
         11   -1    0    0    0    0 -0.00000000000E+00 -0.00000000000E+00 -0.45593999997E+02  0.45594000000E+02  0.51100000000E-03 0.  1.
    9900012    2    1    2    0    0 -0.24482045294E+02  0.12672126107E+02  0.16023914466E+02  0.59301966119E+02  0.50000040289E+02 0.  0.
        -12    1    1    2    0    0  0.24482045294E+02 -0.12672126107E+02 -0.16023914466E+02  0.31886033881E+02  0.00000000000E+00 0.  1.
         11    1    3    3    0    0 -0.31271641474E+02  0.24560753120E+02  0.86034507034E+01  0.40683725476E+02  0.51100000000E-03 0. -1.
        -11    1    3    3    0    0 -0.90178806551E-01 -0.20496004677E+01 -0.23642140770E+01  0.31302560210E+01  0.51100000000E-03 0.  1.
         12    1    3    3    0    0  0.68797749867E+01 -0.98390265453E+01  0.97846778399E+01  0.15487984622E+02  0.00000000000E+00 0. -1.
</event>
<event>
 7    1  0.6180395E-013  0.5930197E+02  0.7816164E-02  0.1266605E+00
        -11   -1    0    0    0    0  0.00000000000E+00  0.00000000000E+00  0.45593999997E+02  0.45594000000E+02  0.51100000000E-03 0.  1.
         11   -1    0    0    0    0 -0.00000000000E+00 -0.00000000000E+00 -0.45593999997E+02  0.45594000000E+02  0.51100000000E-03 0. -1.
    9900012    2    1    2    0    0  0.30486704330E+02 -0.26716080486E+01 -0.89522231722E+01  0.59301969670E+02  0.50000046766E+02 0.  0.
        -12    1    1    2    0    0 -0.30486704330E+02  0.26716080486E+01  0.89522231722E+01  0.31886030330E+02  0.00000000000E+00 0.  1.
         11    1    3    3    0    0  0.13557659533E+02  0.37859241430E+01 -0.81759967467E+01  0.16278521944E+02  0.51100000000E-03 0. -1.
        -11    1    3    3    0    0 -0.11694719288E+02  0.41811158579E+01 -0.12541679814E+01  0.12482833278E+02  0.51100000000E-03 0.  1.
        -12    1    3    3    0    0  0.28623764085E+02 -0.10638648050E+02  0.47794155597E+00  0.30540614448E+02  0.00000000000E+00 0.  1.
</event>
<event>
 7    1  0.6180395E-013  0.5930191E+02  0.7816164E-02  0.1266605E+00
        -11   -1    0    0    0    0  0.00000000000E+00  0.00000000000E+00  0.45593999997E+02  0.45594000000E+02  0.51100000000E-03 0. -1.
         11   -1    0    0    0    0 -0.00000000000E+00 -0.00000000000E+00 -0.45593999997E+02  0.45594000000E+02  0.51100000000E-03 0.  1.
    9900012    2    1    2    0    0 -0.42858394401E+01  0.22835094794E+02  0.21838331411E+02  0.59301910670E+02  0.49999939164E+02 0.  0.
        -12    1    1    2    0    0  0.42858394401E+01 -0.22835094794E+02 -0.21838331411E+02  0.31886089330E+02  0.00000000000E+00 0.  1.
         11    1    3    3    0    0 -0.97340929031E+01  0.25655674685E+02  0.19068295620E+02  0.33415058078E+02  0.51100000000E-03 0. -1.
        -11    1    3    3    0    0  0.65755662882E+01 -0.68538702895E+01  0.12263034890E+02  0.15511145506E+02  0.51100000000E-03 0.  1.
         12    1    3    3    0    0 -0.11273128252E+01  0.40332903978E+01 -0.94929990993E+01  0.10375707086E+02  0.00000000000E+00 0. -1.
</event>
<event>
 7    1  0.6180395E-013  0.5930194E+02  0.7816164E-02  0.1266605E+00
        -11   -1    0    0    0    0  0.00000000000E+00  0.00000000000E+00  0.45593999997E+02  0.45594000000E+02  0.51100000000E-03 0. -1.
         11   -1    0    0    0    0 -0.00000000000E+00 -0.00000000000E+00 -0.45593999997E+02  0.45594000000E+02  0.51100000000E-03 0.  1.
    9900012    2    1    2    0    0  0.25512078166E+02 -0.14560227897E+02  0.12403817341E+02  0.59301936377E+02  0.49999986046E+02 0.  0.
        -12    1    1    2    0    0 -0.25512078166E+02  0.14560227897E+02 -0.12403817341E+02  0.31886063623E+02  0.00000000000E+00 0.  1.
         11    1    3    3    0    0  0.70300222063E+01 -0.13520683088E+02  0.21347539011E+02  0.26228753411E+02  0.51100000000E-03 0. -1.
        -11    1    3    3    0    0  0.21840929330E+02  0.63052165870E+01 -0.27567408633E+01  0.22899379264E+02  0.51100000000E-03 0.  1.
        -12    1    3    3    0    0 -0.33588733702E+01 -0.73447613956E+01 -0.61869808067E+01  0.10173803703E+02  0.00000000000E+00 0.  1.
</event>
<event>
 7    1  0.6180395E-013  0.5930203E+02  0.7816164E-02  0.1266604E+00
        -11   -1    0    0    0    0  0.00000000000E+00  0.00000000000E+00  0.45593999997E+02  0.45594000000E+02  0.51100000000E-03 0. -1.
         11   -1    0    0    0    0 -0.00000000000E+00 -0.00000000000E+00 -0.45593999997E+02  0.45594000000E+02  0.51100000000E-03 0.  1.
    9900012    2    1    2    0    0  0.26490798890E+02  0.10088818360E+02  0.14600296924E+02  0.59302025779E+02  0.50000149095E+02 0.  0.
        -12    1    1    2    0    0 -0.26490798890E+02 -0.10088818360E+02 -0.14600296924E+02  0.31885974221E+02  0.00000000000E+00 0.  1.
         11    1    3    3    0    0  0.69974207321E+01  0.22188386160E+01  0.64000926839E+01  0.97390106443E+01  0.51100000000E-03 0. -1.
        -11    1    3    3    0    0 -0.69316776577E+01  0.11746112224E+02 -0.10284928306E+02  0.17082126860E+02  0.51100000000E-03 0.  1.
        -12    1    3    3    0    0  0.26425055816E+02 -0.38761324801E+01  0.18485132546E+02  0.32480888275E+02  0.00000000000E+00 0.  1.
</event>
<event>
 7    1  0.6180395E-013  0.5930196E+02  0.7816164E-02  0.1266605E+00
        -11   -1    0    0    0    0  0.00000000000E+00  0.00000000000E+00  0.45593999997E+02  0.45594000000E+02  0.51100000000E-03 0.  1.
         11   -1    0    0    0    0 -0.00000000000E+00 -0.00000000000E+00 -0.45593999997E+02  0.45594000000E+02  0.51100000000E-03 0. -1.
    9900012    2    1    2    0    0  0.49300308962E+01 -0.10072100907E+02 -0.29849070241E+02  0.59301962059E+02  0.50000032884E+02 0.  0.
        -12    1    1    2    0    0 -0.49300308962E+01  0.10072100907E+02  0.29849070241E+02  0.31886037941E+02  0.00000000000E+00 0.  1.
         11    1    3    3    0    0  0.40857491464E+00  0.49313581966E+01 -0.12177717896E+02  0.13144658251E+02  0.51100000000E-03 0. -1.
        -11    1    3    3    0    0 -0.10860658519E+01 -0.48268164482E+01  0.12705109117E+02  0.13634423126E+02  0.51100000000E-03 0.  1.
        -12    1    3    3    0    0  0.56075218334E+01 -0.10176642656E+02 -0.30376461462E+02  0.32522880681E+02  0.00000000000E+00 0.  1.
</event>
<event>
 7    1  0.6180395E-013  0.5930190E+02  0.7816164E-02  0.1266605E+00
        -11   -1    0    0    0    0  0.00000000000E+00  0.00000000000E+00  0.45593999997E+02  0.45594000000E+02  0.51100000000E-03 0. -1.
         11   -1    0    0    0    0 -0.00000000000E+00 -0.00000000000E+00 -0.45593999997E+02  0.45594000000E+02  0.51100000000E-03 0.  1.
    9900012    2    1    2    0    0 -0.26299969680E+02  0.15033879807E+02 -0.99507507768E+01  0.59301899764E+02  0.49999919274E+02 0.  0.
        -12    1    1    2    0    0  0.26299969680E+02 -0.15033879807E+02  0.99507507768E+01  0.31886100236E+02  0.00000000000E+00 0.  1.
         11    1    3    3    0    0 -0.12679057990E+02  0.38360873527E+01  0.15966174196E+02  0.20745910353E+02  0.51100000000E-03 0. -1.
        -11    1    3    3    0    0 -0.10790140039E+02  0.17877912225E+02 -0.21913415086E+02  0.30269533008E+02  0.51100000000E-03 0.  1.
        -12    1    3    3    0    0 -0.28307716514E+01 -0.66801197705E+01 -0.40035098867E+01  0.82864564021E+01  0.00000000000E+00 0.  1.
</event>
<event>
 7    1  0.6180395E-013  0.5930195E+02  0.7816164E-02  0.1266605E+00
        -11   -1    0    0    0    0  0.00000000000E+00  0.00000000000E+00  0.45593999997E+02  0.45594000000E+02  0.51100000000E-03 0. -1.
         11   -1    0    0    0    0 -0.00000000000E+00 -0.00000000000E+00 -0.45593999997E+02  0.45594000000E+02  0.51100000000E-03 0.  1.
    9900012    2    1    2    0    0 -0.28771847685E+02  0.12690122268E+01  0.13685410466E+02  0.59301951784E+02  0.50000014145E+02 0.  0.
        -12    1    1    2    0    0  0.28771847685E+02 -0.12690122268E+01 -0.13685410466E+02  0.31886048216E+02  0.00000000000E+00 0.  1.
         11    1    3    3    0    0 -0.23151554377E+02 -0.99837855558E+01  0.96435956079E+01  0.26993876724E+02  0.51100000000E-03 0. -1.
        -11    1    3    3    0    0 -0.58016663409E+01  0.20127086323E+02 -0.27570875823E+01  0.21127244694E+02  0.51100000000E-03 0.  1.
        -12    1    3    3    0    0  0.18137303299E+00 -0.88742885399E+01  0.67989024400E+01  0.11180830365E+02  0.00000000000E+00 0.  1.
</event>
<event>
 7    1  0.6180395E-013  0.5930195E+02  0.7816164E-02  0.1266605E+00
        -11   -1    0    0    0    0  0.00000000000E+00  0.00000000000E+00  0.45593999997E+02  0.45594000000E+02  0.51100000000E-03 0. -1.
         11   -1    0    0    0    0 -0.00000000000E+00 -0.00000000000E+00 -0.45593999997E+02  0.45594000000E+02  0.51100000000E-03 0.  1.
    9900012    2    1    2    0    0  0.18631462573E+02  0.12241561981E+02  0.22797653815E+02  0.59301948868E+02  0.50000008827E+02 0.  0.
        -12    1    1    2    0    0 -0.18631462573E+02 -0.12241561981E+02 -0.22797653815E+02  0.31886051132E+02  0.00000000000E+00 0.  1.
         11    1    3    3    0    0  0.21892619100E+02  0.70486010022E+01  0.12081258343E+02  0.25979344691E+02  0.51100000000E-03 0. -1.
        -11    1    3    3    0    0 -0.10332871612E+02  0.13871358909E+01  0.19070664904E+02  0.21734365459E+02  0.51100000000E-03 0.  1.
        -12    1    3    3    0    0  0.70717150844E+01  0.38058250885E+01 -0.83542694327E+01  0.11588238718E+02  0.00000000000E+00 0.  1.
</event>
<event>
 7    1  0.6180395E-013  0.5930194E+02  0.7816164E-02  0.1266605E+00
        -11   -1    0    0    0    0  0.00000000000E+00  0.00000000000E+00  0.45593999997E+02  0.45594000000E+02  0.51100000000E-03 0. -1.
         11   -1    0    0    0    0 -0.00000000000E+00 -0.00000000000E+00 -0.45593999997E+02  0.45594000000E+02  0.51100000000E-03 0.  1.
    9900012    2    1    2    0    0 -0.80783807789E+01  0.22982643694E+01  0.30760014337E+02  0.59301941336E+02  0.49999995091E+02 0.  0.
        -12    1    1    2    0    0  0.80783807789E+01 -0.22982643694E+01 -0.30760014337E+02  0.31886058664E+02  0.00000000000E+00 0.  1.
         11    1    3    3    0    0  0.10489423213E+02 -0.41897817912E+01  0.34575597969E+02  0.36373812640E+02  0.51100000000E-03 0. -1.
        -11    1    3    3    0    0 -0.50877018027E+01  0.71162991508E+01 -0.35216662453E+01  0.94301938814E+01  0.51100000000E-03 0.  1.
         12    1    3    3    0    0 -0.13480102189E+02 -0.62825299009E+00 -0.29391738631E+00  0.13497934815E+02  0.00000000000E+00 0. -1.
</event>
<event>
 7    1  0.6180395E-013  0.5930200E+02  0.7816164E-02  0.1266605E+00
        -11   -1    0    0    0    0  0.00000000000E+00  0.00000000000E+00  0.45593999997E+02  0.45594000000E+02  0.51100000000E-03 0.  1.
         11   -1    0    0    0    0 -0.00000000000E+00 -0.00000000000E+00 -0.45593999997E+02  0.45594000000E+02  0.51100000000E-03 0. -1.
    9900012    2    1    2    0    0 -0.10035594843E+02 -0.29942861677E+02 -0.44077865842E+01  0.59302004456E+02  0.50000110207E+02 0.  0.
        -12    1    1    2    0    0  0.10035594843E+02  0.29942861677E+02  0.44077865842E+01  0.31885995544E+02  0.00000000000E+00 0.  1.
         11    1    3    3    0    0 -0.86497892376E+00 -0.57311564593E+01 -0.44567088458E+01  0.73114018422E+01  0.51100000000E-03 0. -1.
        -11    1    3    3    0    0 -0.58844522933E+01  0.70031029279E+01  0.14730362515E+02  0.17339371658E+02  0.51100000000E-03 0.  1.
        -12    1    3    3    0    0 -0.32861636255E+01 -0.31214808145E+02 -0.14681440253E+02  0.34651230957E+02  0.00000000000E+00 0.  1.
</event>
<event>
 7    1  0.6180395E-013  0.5930198E+02  0.7816164E-02  0.1266605E+00
        -11   -1    0    0    0    0  0.00000000000E+00  0.00000000000E+00  0.45593999997E+02  0.45594000000E+02  0.51100000000E-03 0. -1.
         11   -1    0    0    0    0 -0.00000000000E+00 -0.00000000000E+00 -0.45593999997E+02  0.45594000000E+02  0.51100000000E-03 0.  1.
    9900012    2    1    2    0    0  0.27175855431E+02  0.55747659135E-01  0.16678976694E+02  0.59301976576E+02  0.50000059361E+02 0.  0.
        -12    1    1    2    0    0 -0.27175855431E+02 -0.55747659135E-01 -0.16678976694E+02  0.31886023424E+02  0.00000000000E+00 0.  1.
         11    1    3    3    0    0  0.47086008368E+01 -0.75310372422E+01  0.14141756096E+02  0.16699602076E+02  0.51100000000E-03 0. -1.
        -11    1    3    3    0    0  0.12914042830E+02  0.19253432827E+02  0.10612904949E+02  0.25497076883E+02  0.51100000000E-03 0.  1.
        -12    1    3    3    0    0  0.95532117643E+01 -0.11666647926E+02 -0.80756843506E+01  0.17105297617E+02  0.00000000000E+00 0.  1.
</event>
<event>
 7    1  0.6180395E-013  0.5930194E+02  0.7816164E-02  0.1266605E+00
        -11   -1    0    0    0    0  0.00000000000E+00  0.00000000000E+00  0.45593999997E+02  0.45594000000E+02  0.51100000000E-03 0.  1.
         11   -1    0    0    0    0 -0.00000000000E+00 -0.00000000000E+00 -0.45593999997E+02  0.45594000000E+02  0.51100000000E-03 0. -1.
    9900012    2    1    2    0    0  0.10070222808E+02  0.21368124631E+02 -0.21417621803E+02  0.59301942524E+02  0.49999997258E+02 0.  0.
        -12    1    1    2    0    0 -0.10070222808E+02 -0.21368124631E+02  0.21417621803E+02  0.31886057476E+02  0.00000000000E+00 0.  1.
         11    1    3    3    0    0  0.48547046533E+01  0.23060731829E+02 -0.29580155003E+02  0.37819982549E+02  0.51100000000E-03 0. -1.
        -11    1    3    3    0    0  0.11527531720E+02 -0.49151477031E+01  0.35452463633E+01  0.13023495558E+02  0.51100000000E-03 0.  1.
        -12    1    3    3    0    0 -0.63120135656E+01  0.32225405048E+01  0.46172868366E+01  0.84584644167E+01  0.00000000000E+00 0.  1.
</event>
<event>
 7    1  0.6180395E-013  0.5930193E+02  0.7816164E-02  0.1266605E+00
        -11   -1    0    0    0    0  0.00000000000E+00  0.00000000000E+00  0.45593999997E+02  0.45594000000E+02  0.51100000000E-03 0.  1.
         11   -1    0    0    0    0 -0.00000000000E+00 -0.00000000000E+00 -0.45593999997E+02  0.45594000000E+02  0.51100000000E-03 0. -1.
    9900012    2    1    2    0    0  0.10527713378E+02 -0.22190499543E+02 -0.20333965502E+02  0.59301934517E+02  0.49999982655E+02 0.  0.
        -12    1    1    2    0    0 -0.10527713378E+02  0.22190499543E+02  0.20333965502E+02  0.31886065483E+02  0.00000000000E+00 0.  1.
         11    1    3    3    0    0 -0.21285009174E+01 -0.22543883165E+02 -0.29054384497E+02  0.36836319619E+02  0.51100000000E-03 0. -1.
        -11    1    3    3    0    0  0.74268005567E+01 -0.49703436407E+01 -0.22333792309E+01  0.92113878143E+01  0.51100000000E-03 0.  1.
         12    1    3    3    0    0  0.52294137389E+01  0.53237272630E+01  0.10953798226E+02  0.13254227084E+02  0.00000000000E+00 0. -1.
</event>
<event>
 7    1  0.6180395E-013  0.5930194E+02  0.7816164E-02  0.1266605E+00
        -11   -1    0    0    0    0  0.00000000000E+00  0.00000000000E+00  0.45593999997E+02  0.45594000000E+02  0.51100000000E-03 0. -1.
         11   -1    0    0    0    0 -0.00000000000E+00 -0.00000000000E+00 -0.45593999997E+02  0.45594000000E+02  0.51100000000E-03 0.  1.
    9900012    2    1    2    0    0 -0.16824309654E+02 -0.20107868438E+02  0.18147639088E+02  0.59301943910E+02  0.49999999786E+02 0.  0.
        -12    1    1    2    0    0  0.16824309654E+02  0.20107868438E+02 -0.18147639088E+02  0.31886056090E+02  0.00000000000E+00 0.  1.
         11    1    3    3    0    0  0.48580628428E+01  0.44299612962E+01  0.14673325080E+02  0.16078924120E+02  0.51100000000E-03 0. -1.
        -11    1    3    3    0    0 -0.18101805974E+02 -0.11166528119E+02 -0.10355388652E+02  0.23655883076E+02  0.51100000000E-03 0.  1.
         12    1    3    3    0    0 -0.35805665236E+01 -0.13371301616E+02  0.13829702660E+02  0.19567136714E+02  0.00000000000E+00 0. -1.
</event>
<event>
 7    1  0.6180395E-013  0.5930195E+02  0.7816164E-02  0.1266605E+00
        -11   -1    0    0    0    0  0.00000000000E+00  0.00000000000E+00  0.45593999997E+02  0.45594000000E+02  0.51100000000E-03 0.  1.
         11   -1    0    0    0    0 -0.00000000000E+00 -0.00000000000E+00 -0.45593999997E+02  0.45594000000E+02  0.51100000000E-03 0. -1.
    9900012    2    1    2    0    0  0.36648011811E+01  0.26762430017E+02 -0.16942889853E+02  0.59301953762E+02  0.50000017753E+02 0.  0.
        -12    1    1    2    0    0 -0.36648011811E+01 -0.26762430017E+02  0.16942889853E+02  0.31886046238E+02  0.00000000000E+00 0.  1.
         11    1    3    3    0    0 -0.37602061020E+00  0.10020910102E+02 -0.15196634679E+02  0.18207079299E+02  0.51100000000E-03 0. -1.
        -11    1    3    3    0    0  0.97876817548E+01 -0.82173956238E+01  0.63005522404E+01  0.14248553041E+02  0.51100000000E-03 0.  1.
        -12    1    3    3    0    0 -0.57468599634E+01  0.24958915539E+02 -0.80468074140E+01  0.26846321422E+02  0.00000000000E+00 0.  1.
</event>
<event>
 7    1  0.6180395E-013  0.5930193E+02  0.7816164E-02  0.1266605E+00
        -11   -1    0    0    0    0  0.00000000000E+00  0.00000000000E+00  0.45593999997E+02  0.45594000000E+02  0.51100000000E-03 0.  1.
         11   -1    0    0    0    0 -0.00000000000E+00 -0.00000000000E+00 -0.45593999997E+02  0.45594000000E+02  0.51100000000E-03 0. -1.
    9900012    2    1    2    0    0 -0.30476185295E+02 -0.71709784536E+01  0.60415819003E+01  0.59301929154E+02  0.49999972874E+02 0.  0.
        -12    1    1    2    0    0  0.30476185295E+02  0.71709784536E+01 -0.60415819003E+01  0.31886070846E+02  0.00000000000E+00 0.  1.
         11    1    3    3    0    0 -0.87506233459E+01  0.10887656453E+02 -0.12016266760E+02  0.18425665228E+02  0.51100000000E-03 0. -1.
        -11    1    3    3    0    0 -0.11675902550E+02 -0.98119489189E+00  0.17491311190E+02  0.21053156799E+02  0.51100000000E-03 0.  1.
         12    1    3    3    0    0 -0.10049659399E+02 -0.17077440015E+02  0.56653747029E+00  0.19823107128E+02  0.00000000000E+00 0. -1.
</event>
<event>
 7    1  0.6180395E-013  0.5930193E+02  0.7816164E-02  0.1266605E+00
        -11   -1    0    0    0    0  0.00000000000E+00  0.00000000000E+00  0.45593999997E+02  0.45594000000E+02  0.51100000000E-03 0.  1.
         11   -1    0    0    0    0 -0.00000000000E+00 -0.00000000000E+00 -0.45593999997E+02  0.45594000000E+02  0.51100000000E-03 0. -1.
    9900012    2    1    2    0    0  0.16750225414E+02 -0.27101980732E+02 -0.12781886270E+01  0.59301934436E+02  0.49999982506E+02 0.  0.
        -12    1    1    2    0    0 -0.16750225414E+02  0.27101980732E+02  0.12781886270E+01  0.31886065564E+02  0.00000000000E+00 0.  1.
         11    1    3    3    0    0 -0.12368037013E+02 -0.82466510170E+01 -0.18995597564E+01  0.14986124252E+02  0.51100000000E-03 0. -1.
        -11    1    3    3    0    0  0.12062237065E+02 -0.50346234748E+00  0.11799519866E+02  0.16881341969E+02  0.51100000000E-03 0.  1.
        -12    1    3    3    0    0  0.17056025362E+02 -0.18351867367E+02 -0.11178148737E+02  0.27434468214E+02  0.00000000000E+00 0.  1.
</event>
<event>
 7    1  0.6180395E-013  0.5930192E+02  0.7816164E-02  0.1266605E+00
        -11   -1    0    0    0    0  0.00000000000E+00  0.00000000000E+00  0.45593999997E+02  0.45594000000E+02  0.51100000000E-03 0.  1.
         11   -1    0    0    0    0 -0.00000000000E+00 -0.00000000000E+00 -0.45593999997E+02  0.45594000000E+02  0.51100000000E-03 0. -1.
    9900012    2    1    2    0    0  0.30784658945E+02 -0.83075646743E+01 -0.10455079333E+00  0.59301924857E+02  0.49999965037E+02 0.  0.
        -12    1    1    2    0    0 -0.30784658945E+02  0.83075646743E+01  0.10455079333E+00  0.31886075143E+02  0.00000000000E+00 0.  1.
         11    1    3    3    0    0  0.36789005977E+02  0.34673087101E+01  0.51650953445E+01  0.37311277124E+02  0.51100000000E-03 0. -1.
        -11    1    3    3    0    0 -0.16620307279E+00 -0.15072905259E+01  0.56834913533E+01  0.58823143757E+01  0.51100000000E-03 0.  1.
         12    1    3    3    0    0 -0.58381439593E+01 -0.10267582859E+02 -0.10953137491E+02  0.16108333357E+02  0.00000000000E+00 0. -1.
</event>
<event>
 7    1  0.6180395E-013  0.5930197E+02  0.7816164E-02  0.1266605E+00
        -11   -1    0    0    0    0  0.00000000000E+00  0.00000000000E+00  0.45593999997E+02  0.45594000000E+02  0.51100000000E-03 0.  1.
         11   -1    0    0    0    0 -0.00000000000E+00 -0.00000000000E+00 -0.45593999997E+02  0.45594000000E+02  0.51100000000E-03 0. -1.
    9900012    2    1    2    0    0  0.30355984698E+02 -0.48079412736E+01 -0.84921535838E+01  0.59301972044E+02  0.50000051095E+02 0.  0.
        -12    1    1    2    0    0 -0.30355984698E+02  0.48079412736E+01  0.84921535838E+01  0.31886027956E+02  0.00000000000E+00 0.  1.
         11    1    3    3    0    0  0.29015000904E+02  0.69041286912E+01  0.10826267706E+02  0.31729250592E+02  0.51100000000E-03 0. -1.
        -11    1    3    3    0    0 -0.56406273575E+01 -0.11209067208E+02 -0.13858604516E+02  0.18695474961E+02  0.51100000000E-03 0.  1.
        -12    1    3    3    0    0  0.69816111523E+01 -0.50300275731E+00 -0.54598167741E+01  0.88772464910E+01  0.00000000000E+00 0.  1.
</event>
<event>
 7    1  0.6180395E-013  0.5930195E+02  0.7816164E-02  0.1266605E+00
        -11   -1    0    0    0    0  0.00000000000E+00  0.00000000000E+00  0.45593999997E+02  0.45594000000E+02  0.51100000000E-03 0.  1.
         11   -1    0    0    0    0 -0.00000000000E+00 -0.00000000000E+00 -0.45593999997E+02  0.45594000000E+02  0.51100000000E-03 0. -1.
    9900012    2    1    2    0    0  0.13926826358E+02 -0.17629608086E+02 -0.22626548643E+02  0.59301948549E+02  0.50000008245E+02 0.  0.
        -12    1    1    2    0    0 -0.13926826358E+02  0.17629608086E+02  0.22626548643E+02  0.31886051451E+02  0.00000000000E+00 0.  1.
         11    1    3    3    0    0 -0.90578981038E+01  0.84018590895E+01 -0.41603243021E+01  0.13036297510E+02  0.51100000000E-03 0. -1.
        -11    1    3    3    0    0  0.20336325298E+02 -0.64364577942E+01 -0.38463313041E+01  0.21674602195E+02  0.51100000000E-03 0.  1.
         12    1    3    3    0    0  0.26483991641E+01 -0.19595009381E+02 -0.14619893036E+02  0.24591048843E+02  0.00000000000E+00 0. -1.
</event>
<event>
 7    1  0.6180395E-013  0.5930191E+02  0.7816164E-02  0.1266605E+00
        -11   -1    0    0    0    0  0.00000000000E+00  0.00000000000E+00  0.45593999997E+02  0.45594000000E+02  0.51100000000E-03 0. -1.
         11   -1    0    0    0    0 -0.00000000000E+00 -0.00000000000E+00 -0.45593999997E+02  0.45594000000E+02  0.51100000000E-03 0.  1.
    9900012    2    1    2    0    0 -0.14581685228E+02  0.23376981310E+02  0.16050355196E+02  0.59301910538E+02  0.49999938923E+02 0.  0.
        -12    1    1    2    0    0  0.14581685228E+02 -0.23376981310E+02 -0.16050355196E+02  0.31886089462E+02  0.00000000000E+00 0.  1.
         11    1    3    3    0    0 -0.21146017809E+02  0.20763484427E+02 -0.63749528569E+01  0.30313633549E+02  0.51100000000E-03 0. -1.
        -11    1    3    3    0    0 -0.15610213886E+00 -0.53610350905E+01  0.15671017289E+02  0.16563388791E+02  0.51100000000E-03 0.  1.
         12    1    3    3    0    0  0.67204347201E+01  0.79745319730E+01  0.67542907643E+01  0.12424888198E+02  0.00000000000E+00 0. -1.
</event>
<event>
 7    1  0.6180395E-013  0.5930193E+02  0.7816164E-02  0.1266605E+00
        -11   -1    0    0    0    0  0.00000000000E+00  0.00000000000E+00  0.45593999997E+02  0.45594000000E+02  0.51100000000E-03 0. -1.
         11   -1    0    0    0    0 -0.00000000000E+00 -0.00000000000E+00 -0.45593999997E+02  0.45594000000E+02  0.51100000000E-03 0.  1.
    9900012    2    1    2    0    0 -0.10053814906E+02  0.14606099316E+00  0.30259227058E+02  0.59301931724E+02  0.49999977561E+02 0.  0.
        -12    1    1    2    0    0  0.10053814906E+02 -0.14606099316E+00 -0.30259227058E+02  0.31886068276E+02  0.00000000000E+00 0.  1.
         11    1    3    3    0    0  0.21473475884E+01 -0.64564508069E+01  0.75320954672E+01  0.10150336008E+02  0.51100000000E-03 0. -1.
        -11    1    3    3    0    0 -0.71459437178E+00  0.60965697251E+01 -0.11505038613E+02  0.13040119680E+02  0.51100000000E-03 0.  1.
        -12    1    3    3    0    0 -0.11486568122E+02  0.50594207495E+00  0.34232170204E+02  0.36111476036E+02  0.00000000000E+00 0.  1.
</event>
<event>
 7    1  0.6180395E-013  0.5930175E+02  0.7816164E-02  0.1266605E+00
        -11   -1    0    0    0    0  0.00000000000E+00  0.00000000000E+00  0.45593999997E+02  0.45594000000E+02  0.51100000000E-03 0. -1.
         11   -1    0    0    0    0 -0.00000000000E+00 -0.00000000000E+00 -0.45593999997E+02  0.45594000000E+02  0.51100000000E-03 0.  1.
    9900012    2    1    2    0    0  0.86271562359E+01  0.11758918447E+02  0.28355475486E+02  0.59301749392E+02  0.49999645030E+02 0.  0.
        -12    1    1    2    0    0 -0.86271562359E+01 -0.11758918447E+02 -0.28355475486E+02  0.31886250608E+02  0.00000000000E+00 0.  1.
         11    1    3    3    0    0  0.13699788529E+02  0.96886327788E+01  0.28411432307E+02  0.32996413394E+02  0.51100000000E-03 0. -1.
        -11    1    3    3    0    0 -0.11262608126E+02  0.98679974421E+01  0.40869818434E+01  0.15521827733E+02  0.51100000000E-03 0.  1.
         12    1    3    3    0    0  0.61899758331E+01 -0.77977117744E+01 -0.41429386640E+01  0.10783508265E+02  0.00000000000E+00 0. -1.
</event>
<event>
 7    1  0.6180395E-013  0.5930193E+02  0.7816164E-02  0.1266605E+00
        -11   -1    0    0    0    0  0.00000000000E+00  0.00000000000E+00  0.45593999997E+02  0.45594000000E+02  0.51100000000E-03 0. -1.
         11   -1    0    0    0    0 -0.00000000000E+00 -0.00000000000E+00 -0.45593999997E+02  0.45594000000E+02  0.51100000000E-03 0.  1.
    9900012    2    1    2    0    0  0.15054390936E+01 -0.30787900151E+02  0.81584314994E+01  0.59301934907E+02  0.49999983366E+02 0.  0.
        -12    1    1    2    0    0 -0.15054390936E+01  0.30787900151E+02 -0.81584314994E+01  0.31886065093E+02  0.00000000000E+00 0.  1.
         11    1    3    3    0    0 -0.12942006615E+02 -0.95505377268E+01 -0.34212085188E+01  0.16444238325E+02  0.51100000000E-03 0. -1.
        -11    1    3    3    0    0  0.14822844588E+02 -0.16323080482E+02  0.22113620505E+02  0.31227742316E+02  0.51100000000E-03 0.  1.
        -12    1    3    3    0    0 -0.37539887965E+00 -0.49142819430E+01 -0.10533980487E+02  0.11629954266E+02  0.00000000000E+00 0.  1.
</event>
<event>
 7    1  0.6180395E-013  0.5930197E+02  0.7816164E-02  0.1266605E+00
        -11   -1    0    0    0    0  0.00000000000E+00  0.00000000000E+00  0.45593999997E+02  0.45594000000E+02  0.51100000000E-03 0. -1.
         11   -1    0    0    0    0 -0.00000000000E+00 -0.00000000000E+00 -0.45593999997E+02  0.45594000000E+02  0.51100000000E-03 0.  1.
    9900012    2    1    2    0    0  0.20753293161E+02 -0.22020318821E+02  0.10056120145E+02  0.59301965904E+02  0.50000039897E+02 0.  0.
        -12    1    1    2    0    0 -0.20753293161E+02  0.22020318821E+02 -0.10056120145E+02  0.31886034096E+02  0.00000000000E+00 0.  1.
         11    1    3    3    0    0  0.76999014492E+01  0.62322880803E+01  0.10399797865E+02  0.14362649231E+02  0.51100000000E-03 0. -1.
        -11    1    3    3    0    0 -0.10225974030E+02 -0.14459176447E+02  0.17691839611E+01  0.17797986979E+02  0.51100000000E-03 0.  1.
        -12    1    3    3    0    0  0.23279365742E+02 -0.13793430455E+02 -0.21128616819E+01  0.27141329693E+02  0.00000000000E+00 0.  1.
</event>
<event>
 7    1  0.6180395E-013  0.5930193E+02  0.7816164E-02  0.1266605E+00
        -11   -1    0    0    0    0  0.00000000000E+00  0.00000000000E+00  0.45593999997E+02  0.45594000000E+02  0.51100000000E-03 0.  1.
         11   -1    0    0    0    0 -0.00000000000E+00 -0.00000000000E+00 -0.45593999997E+02  0.45594000000E+02  0.51100000000E-03 0. -1.
    9900012    2    1    2    0    0  0.23215741745E+02 -0.14041918472E+02 -0.16750375211E+02  0.59301933939E+02  0.49999981600E+02 0.  0.
        -12    1    1    2    0    0 -0.23215741745E+02  0.14041918472E+02  0.16750375211E+02  0.31886066061E+02  0.00000000000E+00 0.  1.
         11    1    3    3    0    0  0.63631855614E+01  0.14601935680E+02  0.41320758405E+01  0.16455415738E+02  0.51100000000E-03 0. -1.
        -11    1    3    3    0    0  0.88448483113E+01 -0.25616140515E+02 -0.97450615894E+01  0.28799031619E+02  0.51100000000E-03 0.  1.
         12    1    3    3    0    0  0.80077078726E+01 -0.30277136368E+01 -0.11137389462E+02  0.14047486582E+02  0.00000000000E+00 0. -1.
</event>
<event>
 7    1  0.6180395E-013  0.5930192E+02  0.7816164E-02  0.1266605E+00
        -11   -1    0    0    0    0  0.00000000000E+00  0.00000000000E+00  0.45593999997E+02  0.45594000000E+02  0.51100000000E-03 0. -1.
         11   -1    0    0    0    0 -0.00000000000E+00 -0.00000000000E+00 -0.45593999997E+02  0.45594000000E+02  0.51100000000E-03 0.  1.
    9900012    2    1    2    0    0 -0.26325453571E+02  0.17668663399E+02  0.33927460690E+01  0.59301923134E+02  0.49999961894E+02 0.  0.
        -12    1    1    2    0    0  0.26325453571E+02 -0.17668663399E+02 -0.33927460690E+01  0.31886076866E+02  0.00000000000E+00 0.  1.
         11    1    3    3    0    0 -0.10580160943E+02 -0.28432046571E+01  0.14839924485E+02  0.18445784811E+02  0.51100000000E-03 0. -1.
        -11    1    3    3    0    0  0.65754389474E+01  0.14006397502E+02 -0.14249629145E+01  0.15538535578E+02  0.51100000000E-03 0.  1.
         12    1    3    3    0    0 -0.22320731576E+02  0.65054705543E+01 -0.10022215501E+02  0.25317602745E+02  0.00000000000E+00 0. -1.
</event>
<event>
 7    1  0.6180395E-013  0.5930195E+02  0.7816164E-02  0.1266605E+00
        -11   -1    0    0    0    0  0.00000000000E+00  0.00000000000E+00  0.45593999997E+02  0.45594000000E+02  0.51100000000E-03 0.  1.
         11   -1    0    0    0    0 -0.00000000000E+00 -0.00000000000E+00 -0.45593999997E+02  0.45594000000E+02  0.51100000000E-03 0. -1.
    9900012    2    1    2    0    0  0.88324899587E+01  0.26595429153E+02 -0.15211521636E+02  0.59301950994E+02  0.50000012706E+02 0.  0.
        -12    1    1    2    0    0 -0.88324899587E+01 -0.26595429153E+02  0.15211521636E+02  0.31886049006E+02  0.00000000000E+00 0.  1.
         11    1    3    3    0    0  0.22873768009E+02  0.72408001835E+01  0.39881940440E+01  0.24321680497E+02  0.51100000000E-03 0.  1.
        -11    1    3    3    0    0 -0.58016598081E+01  0.27448651411E+01  0.20887379386E+01  0.67495457335E+01  0.51100000000E-03 0. -1.
         12    1    3    3    0    0 -0.82396182419E+01  0.16609763828E+02 -0.21288453619E+02  0.28230724764E+02  0.00000000000E+00 0. -1.
</event>
<event>
 7    1  0.6180395E-013  0.5930204E+02  0.7816164E-02  0.1266604E+00
        -11   -1    0    0    0    0  0.00000000000E+00  0.00000000000E+00  0.45593999997E+02  0.45594000000E+02  0.51100000000E-03 0.  1.
         11   -1    0    0    0    0 -0.00000000000E+00 -0.00000000000E+00 -0.45593999997E+02  0.45594000000E+02  0.51100000000E-03 0. -1.
    9900012    2    1    2    0    0 -0.13869133677E+02 -0.11226458150E+02 -0.26425904519E+02  0.59302036612E+02  0.50000168852E+02 0.  0.
        -12    1    1    2    0    0  0.13869133677E+02  0.11226458150E+02  0.26425904519E+02  0.31885963388E+02  0.00000000000E+00 0.  1.
         11    1    3    3    0    0 -0.38475778669E+01 -0.23450655587E+02 -0.32016720796E+02  0.39872390369E+02  0.51100000000E-03 0. -1.
        -11    1    3    3    0    0 -0.64352255941E+01  0.93023720316E+01 -0.10242372433E+01  0.11357610490E+02  0.51100000000E-03 0.  1.
         12    1    3    3    0    0 -0.35863302158E+01  0.29218254061E+01  0.66150535205E+01  0.80720357531E+01  0.00000000000E+00 0. -1.
</event>
<event>
 7    1  0.6180395E-013  0.5930195E+02  0.7816164E-02  0.1266605E+00
        -11   -1    0    0    0    0  0.00000000000E+00  0.00000000000E+00  0.45593999997E+02  0.45594000000E+02  0.51100000000E-03 0.  1.
         11   -1    0    0    0    0 -0.00000000000E+00 -0.00000000000E+00 -0.45593999997E+02  0.45594000000E+02  0.51100000000E-03 0. -1.
    9900012    2    1    2    0    0  0.36102837127E+01 -0.31292497120E+02 -0.49462630483E+01  0.59301952226E+02  0.50000014951E+02 0.  0.
        -12    1    1    2    0    0 -0.36102837127E+01  0.31292497120E+02  0.49462630483E+01  0.31886047774E+02  0.00000000000E+00 0.  1.
         11    1    3    3    0    0 -0.13219971267E+01  0.10590917074E+02  0.24759074732E+01  0.10956519472E+02  0.51100000000E-03 0. -1.
        -11    1    3    3    0    0  0.88343881611E+01 -0.41044726671E+02 -0.10532174370E+02  0.43285594589E+02  0.51100000000E-03 0.  1.
         12    1    3    3    0    0 -0.39021073216E+01 -0.83868752319E+00  0.31100038489E+01  0.50598381645E+01  0.00000000000E+00 0. -1.
</event>
<event>
 7    1  0.6180395E-013  0.5930191E+02  0.7816164E-02  0.1266605E+00
        -11   -1    0    0    0    0  0.00000000000E+00  0.00000000000E+00  0.45593999997E+02  0.45594000000E+02  0.51100000000E-03 0.  1.
         11   -1    0    0    0    0 -0.00000000000E+00 -0.00000000000E+00 -0.45593999997E+02  0.45594000000E+02  0.51100000000E-03 0. -1.
    9900012    2    1    2    0    0 -0.17246061534E+02  0.53538908059E+01 -0.26279873609E+02  0.59301913033E+02  0.49999943472E+02 0.  0.
        -12    1    1    2    0    0  0.17246061534E+02 -0.53538908059E+01  0.26279873609E+02  0.31886086967E+02  0.00000000000E+00 0.  1.
         11    1    3    3    0    0 -0.30437343919E+02 -0.57550718572E+00 -0.10057976732E+02  0.32061285214E+02  0.51100000000E-03 0. -1.
        -11    1    3    3    0    0  0.87035554536E+01 -0.11386535178E+01  0.23016774163E+00  0.87807395370E+01  0.51100000000E-03 0.  1.
         12    1    3    3    0    0  0.44877269319E+01  0.70680515094E+01 -0.16452064619E+02  0.18459888282E+02  0.00000000000E+00 0. -1.
</event>
<event>
 7    1  0.6180395E-013  0.5930197E+02  0.7816164E-02  0.1266605E+00
        -11   -1    0    0    0    0  0.00000000000E+00  0.00000000000E+00  0.45593999997E+02  0.45594000000E+02  0.51100000000E-03 0. -1.
         11   -1    0    0    0    0 -0.00000000000E+00 -0.00000000000E+00 -0.45593999997E+02  0.45594000000E+02  0.51100000000E-03 0.  1.
    9900012    2    1    2    0    0  0.22027368622E+02  0.23049998393E+02  0.45977084570E+00  0.59301971970E+02  0.50000050959E+02 0.  0.
        -12    1    1    2    0    0 -0.22027368622E+02 -0.23049998393E+02 -0.45977084570E+00  0.31886028030E+02  0.00000000000E+00 0.  1.
         11    1    3    3    0    0 -0.11813627037E+01  0.37961749612E+01  0.12493865203E+02  0.13111187214E+02  0.51100000000E-03 0.  1.
        -11    1    3    3    0    0  0.21173757206E+02  0.10173667100E+02 -0.22261486185E+02  0.32363641079E+02  0.51100000000E-03 0. -1.
         12    1    3    3    0    0  0.20349741198E+01  0.90801563320E+01  0.10227391827E+02  0.13827143677E+02  0.00000000000E+00 0. -1.
</event>
<event>
 7    1  0.6180395E-013  0.5930193E+02  0.7816164E-02  0.1266605E+00
        -11   -1    0    0    0    0  0.00000000000E+00  0.00000000000E+00  0.45593999997E+02  0.45594000000E+02  0.51100000000E-03 0.  1.
         11   -1    0    0    0    0 -0.00000000000E+00 -0.00000000000E+00 -0.45593999997E+02  0.45594000000E+02  0.51100000000E-03 0. -1.
    9900012    2    1    2    0    0  0.19013861225E+02  0.23520740940E+00 -0.25595686235E+02  0.59301931019E+02  0.49999976276E+02 0.  0.
        -12    1    1    2    0    0 -0.19013861225E+02 -0.23520740940E+00  0.25595686235E+02  0.31886068981E+02  0.00000000000E+00 0.  1.
         11    1    3    3    0    0  0.21593240583E+02 -0.21482854220E+02 -0.19902699618E+02  0.36385416263E+02  0.51100000000E-03 0. -1.
        -11    1    3    3    0    0 -0.13892239835E+01  0.19957715708E+02 -0.56603541164E+01  0.20791343596E+02  0.51100000000E-03 0.  1.
         12    1    3    3    0    0 -0.11901553752E+01  0.17603459213E+01 -0.32632500870E-01  0.21251711601E+01  0.00000000000E+00 0. -1.
</event>
<event>
 7    1  0.6180395E-013  0.5930194E+02  0.7816164E-02  0.1266605E+00
        -11   -1    0    0    0    0  0.00000000000E+00  0.00000000000E+00  0.45593999997E+02  0.45594000000E+02  0.51100000000E-03 0. -1.
         11   -1    0    0    0    0 -0.00000000000E+00 -0.00000000000E+00 -0.45593999997E+02  0.45594000000E+02  0.51100000000E-03 0.  1.
    9900012    2    1    2    0    0  0.16255475943E+02 -0.27295569296E+02  0.27262457709E+01  0.59301936942E+02  0.49999987078E+02 0.  0.
        -12    1    1    2    0    0 -0.16255475943E+02  0.27295569296E+02 -0.27262457709E+01  0.31886063058E+02  0.00000000000E+00 0.  1.
         11    1    3    3    0    0  0.11620895619E+02 -0.30338401850E+02 -0.98879271645E+01  0.33959313092E+02  0.51100000000E-03 0. -1.
        -11    1    3    3    0    0  0.10215142713E+02  0.27792221103E+01 -0.99325634867E+00  0.10632957003E+02  0.51100000000E-03 0.  1.
         12    1    3    3    0    0 -0.55805623891E+01  0.26361044412E+00  0.13607429284E+02  0.14709666847E+02  0.00000000000E+00 0. -1.
</event>
<event>
 7    1  0.6180395E-013  0.5930188E+02  0.7816164E-02  0.1266605E+00
        -11   -1    0    0    0    0  0.00000000000E+00  0.00000000000E+00  0.45593999997E+02  0.45594000000E+02  0.51100000000E-03 0.  1.
         11   -1    0    0    0    0 -0.00000000000E+00 -0.00000000000E+00 -0.45593999997E+02  0.45594000000E+02  0.51100000000E-03 0. -1.
    9900012    2    1    2    0    0  0.46201386040E+01  0.70108314403E+01 -0.30760809960E+02  0.59301876567E+02  0.49999876967E+02 0.  0.
        -12    1    1    2    0    0 -0.46201386040E+01 -0.70108314403E+01  0.30760809960E+02  0.31886123433E+02  0.00000000000E+00 0.  1.
         11    1    3    3    0    0  0.24143507023E+01  0.20948832127E+02 -0.25906193409E+02  0.33403794904E+02  0.51100000000E-03 0. -1.
        -11    1    3    3    0    0 -0.17171848674E+01 -0.21215828037E+01  0.77285057703E+01  0.81963186349E+01  0.51100000000E-03 0.  1.
         12    1    3    3    0    0  0.39229727692E+01 -0.11816417883E+02 -0.12583122321E+02  0.17701763027E+02  0.00000000000E+00 0. -1.
</event>
<event>
 7    1  0.6180395E-013  0.5930208E+02  0.7816164E-02  0.1266604E+00
        -11   -1    0    0    0    0  0.00000000000E+00  0.00000000000E+00  0.45593999997E+02  0.45594000000E+02  0.51100000000E-03 0. -1.
         11   -1    0    0    0    0 -0.00000000000E+00 -0.00000000000E+00 -0.45593999997E+02  0.45594000000E+02  0.51100000000E-03 0.  1.
    9900012    2    1    2    0    0 -0.29245852509E+02  0.65654851299E+01  0.10875962277E+02  0.59302077723E+02  0.50000243828E+02 0.  0.
        -12    1    1    2    0    0  0.29245852509E+02 -0.65654851299E+01 -0.10875962277E+02  0.31885922277E+02  0.00000000000E+00 0.  1.
         11    1    3    3    0    0 -0.16096605992E+02  0.59273017055E+01  0.30166572966E+02  0.34702388315E+02  0.51100000000E-03 0. -1.
        -11    1    3    3    0    0 -0.11257878504E+02 -0.25635922526E+01 -0.14546862973E+02  0.18572104250E+02  0.51100000000E-03 0.  1.
         12    1    3    3    0    0 -0.18913680141E+01  0.32017756770E+01 -0.47437477161E+01  0.60275851586E+01  0.00000000000E+00 0. -1.
</event>
<event>
 7    1  0.6180395E-013  0.5930194E+02  0.7816164E-02  0.1266605E+00
        -11   -1    0    0    0    0  0.00000000000E+00  0.00000000000E+00  0.45593999997E+02  0.45594000000E+02  0.51100000000E-03 0. -1.
         11   -1    0    0    0    0 -0.00000000000E+00 -0.00000000000E+00 -0.45593999997E+02  0.45594000000E+02  0.51100000000E-03 0.  1.
    9900012    2    1    2    0    0 -0.16545933084E+02  0.48673695461E+01  0.26819058692E+02  0.59301935693E+02  0.49999984799E+02 0.  0.
        -12    1    1    2    0    0  0.16545933084E+02 -0.48673695461E+01 -0.26819058692E+02  0.31886064307E+02  0.00000000000E+00 0.  1.
         11    1    3    3    0    0  0.57679752555E+01  0.13600255790E+02  0.64924364494E+01  0.16136549427E+02  0.51100000000E-03 0. -1.
        -11    1    3    3    0    0 -0.43602903658E+01 -0.16727519253E+02  0.14782497837E+02  0.22745203340E+02  0.51100000000E-03 0.  1.
        -12    1    3    3    0    0 -0.17953617973E+02  0.79946330094E+01  0.55441244056E+01  0.20420182926E+02  0.00000000000E+00 0.  1.
</event>
<event>
 7    1  0.6180395E-013  0.5930194E+02  0.7816164E-02  0.1266605E+00
        -11   -1    0    0    0    0  0.00000000000E+00  0.00000000000E+00  0.45593999997E+02  0.45594000000E+02  0.51100000000E-03 0. -1.
         11   -1    0    0    0    0 -0.00000000000E+00 -0.00000000000E+00 -0.45593999997E+02  0.45594000000E+02  0.51100000000E-03 0.  1.
    9900012    2    1    2    0    0  0.77079772878E+01 -0.13031162046E+02 -0.28062366790E+02  0.59301944615E+02  0.50000001072E+02 0.  0.
        -12    1    1    2    0    0 -0.77079772878E+01  0.13031162046E+02  0.28062366790E+02  0.31886055385E+02  0.00000000000E+00 0.  1.
         11    1    3    3    0    0  0.81452374399E+01 -0.14065895378E+02  0.93503168867E+01  0.18751606114E+02  0.51100000000E-03 0. -1.
        -11    1    3    3    0    0  0.62855029415E+01  0.16668787291E+01 -0.76926523459E+01  0.10072881033E+02  0.51100000000E-03 0.  1.
         12    1    3    3    0    0 -0.67227630937E+01 -0.63214539767E+00 -0.29720031331E+02  0.30477457468E+02  0.00000000000E+00 0. -1.
</event>
<event>
 7    1  0.6180395E-013  0.5930194E+02  0.7816164E-02  0.1266605E+00
        -11   -1    0    0    0    0  0.00000000000E+00  0.00000000000E+00  0.45593999997E+02  0.45594000000E+02  0.51100000000E-03 0. -1.
         11   -1    0    0    0    0 -0.00000000000E+00 -0.00000000000E+00 -0.45593999997E+02  0.45594000000E+02  0.51100000000E-03 0.  1.
    9900012    2    1    2    0    0  0.71620251262E+01  0.30712127887E+02  0.47108079966E+01  0.59301935407E+02  0.49999984278E+02 0.  0.
        -12    1    1    2    0    0 -0.71620251262E+01 -0.30712127887E+02 -0.47108079966E+01  0.31886064593E+02  0.00000000000E+00 0.  1.
         11    1    3    3    0    0  0.13162671630E+02  0.31628242072E+02  0.77344550154E+01  0.35120128354E+02  0.51100000000E-03 0. -1.
        -11    1    3    3    0    0 -0.65102333217E+00 -0.78226885069E+01  0.72572584210E+01  0.10690467104E+02  0.51100000000E-03 0.  1.
         12    1    3    3    0    0 -0.53496231714E+01  0.69065743220E+01 -0.10280905440E+02  0.13491339948E+02  0.00000000000E+00 0. -1.
</event>
<event>
 7    1  0.6180395E-013  0.5930194E+02  0.7816164E-02  0.1266605E+00
        -11   -1    0    0    0    0  0.00000000000E+00  0.00000000000E+00  0.45593999997E+02  0.45594000000E+02  0.51100000000E-03 0. -1.
         11   -1    0    0    0    0 -0.00000000000E+00 -0.00000000000E+00 -0.45593999997E+02  0.45594000000E+02  0.51100000000E-03 0.  1.
    9900012    2    1    2    0    0 -0.13511102778E+02  0.27774501386E+02  0.79213768273E+01  0.59301936644E+02  0.49999986533E+02 0.  0.
        -12    1    1    2    0    0  0.13511102778E+02 -0.27774501386E+02 -0.79213768273E+01  0.31886063356E+02  0.00000000000E+00 0.  1.
         11    1    3    3    0    0 -0.20533736043E+02  0.32772992633E+02 -0.82569833296E+01  0.39545937035E+02  0.51100000000E-03 0. -1.
        -11    1    3    3    0    0  0.21759747157E+01 -0.54660626325E+01  0.56532598172E+01  0.81591699019E+01  0.51100000000E-03 0.  1.
         12    1    3    3    0    0  0.48466585486E+01  0.46757138552E+00  0.10525100340E+02  0.11596829707E+02  0.00000000000E+00 0. -1.
</event>
<event>
 7    1  0.6180395E-013  0.5930195E+02  0.7816164E-02  0.1266605E+00
        -11   -1    0    0    0    0  0.00000000000E+00  0.00000000000E+00  0.45593999997E+02  0.45594000000E+02  0.51100000000E-03 0.  1.
         11   -1    0    0    0    0 -0.00000000000E+00 -0.00000000000E+00 -0.45593999997E+02  0.45594000000E+02  0.51100000000E-03 0. -1.
    9900012    2    1    2    0    0  0.18434198827E+02  0.93708748170E+01 -0.24271115257E+02  0.59301952628E+02  0.50000015685E+02 0.  0.
        -12    1    1    2    0    0 -0.18434198827E+02 -0.93708748170E+01  0.24271115257E+02  0.31886047372E+02  0.00000000000E+00 0.  1.
         11    1    3    3    0    0 -0.47097379370E+01  0.23774140140E+02 -0.99788903140E+01  0.26210105360E+02  0.51100000000E-03 0. -1.
        -11    1    3    3    0    0  0.18787741985E+02 -0.12516932498E+02 -0.57134566700E+01  0.23287259079E+02  0.51100000000E-03 0.  1.
         12    1    3    3    0    0  0.43561947790E+01 -0.18863328251E+01 -0.85787682727E+01  0.98045881890E+01  0.00000000000E+00 0. -1.
</event>
<event>
 7    1  0.6180395E-013  0.5930199E+02  0.7816164E-02  0.1266605E+00
        -11   -1    0    0    0    0  0.00000000000E+00  0.00000000000E+00  0.45593999997E+02  0.45594000000E+02  0.51100000000E-03 0.  1.
         11   -1    0    0    0    0 -0.00000000000E+00 -0.00000000000E+00 -0.45593999997E+02  0.45594000000E+02  0.51100000000E-03 0. -1.
    9900012    2    1    2    0    0  0.10266381466E+02 -0.29724711312E+02 -0.52688237064E+01  0.59301991246E+02  0.50000086115E+02 0.  0.
        -12    1    1    2    0    0 -0.10266381466E+02  0.29724711312E+02  0.52688237064E+01  0.31886008754E+02  0.00000000000E+00 0.  1.
         11    1    3    3    0    0  0.23490178679E+02 -0.18875836789E+02 -0.14634946461E+02  0.33500259209E+02  0.51100000000E-03 0. -1.
        -11    1    3    3    0    0 -0.26101366621E+01 -0.89513681923E+01  0.11505761556E+02  0.14809535953E+02  0.51100000000E-03 0.  1.
         12    1    3    3    0    0 -0.10613660551E+02 -0.18975063303E+01 -0.21396388010E+01  0.10992196084E+02  0.00000000000E+00 0. -1.
</event>
<event>
 7    1  0.6180395E-013  0.5930194E+02  0.7816164E-02  0.1266605E+00
        -11   -1    0    0    0    0  0.00000000000E+00  0.00000000000E+00  0.45593999997E+02  0.45594000000E+02  0.51100000000E-03 0.  1.
         11   -1    0    0    0    0 -0.00000000000E+00 -0.00000000000E+00 -0.45593999997E+02  0.45594000000E+02  0.51100000000E-03 0. -1.
    9900012    2    1    2    0    0  0.14552029811E+02 -0.50565571331E+01 -0.27917571485E+02  0.59301935030E+02  0.49999983591E+02 0.  0.
        -12    1    1    2    0    0 -0.14552029811E+02  0.50565571331E+01  0.27917571485E+02  0.31886064970E+02  0.00000000000E+00 0.  1.
         11    1    3    3    0    0 -0.86164534541E+01  0.12974857302E+02 -0.18369369852E+02  0.24083686204E+02  0.51100000000E-03 0. -1.
        -11    1    3    3    0    0  0.93228049896E+01 -0.96920372653E+01  0.41046701532E+01  0.14060533295E+02  0.51100000000E-03 0.  1.
         12    1    3    3    0    0  0.13845678276E+02 -0.83393771698E+01 -0.13652871786E+02  0.21157715531E+02  0.00000000000E+00 0. -1.
</event>
<event>
 7    1  0.6180395E-013  0.5930196E+02  0.7816164E-02  0.1266605E+00
        -11   -1    0    0    0    0  0.00000000000E+00  0.00000000000E+00  0.45593999997E+02  0.45594000000E+02  0.51100000000E-03 0. -1.
         11   -1    0    0    0    0 -0.00000000000E+00 -0.00000000000E+00 -0.45593999997E+02  0.45594000000E+02  0.51100000000E-03 0.  1.
    9900012    2    1    2    0    0  0.90918834859E+01  0.17873965058E+02  0.24790690141E+02  0.59301964030E+02  0.50000036479E+02 0.  0.
        -12    1    1    2    0    0 -0.90918834859E+01 -0.17873965058E+02 -0.24790690141E+02  0.31886035970E+02  0.00000000000E+00 0.  1.
         11    1    3    3    0    0  0.28898033329E+01 -0.29642336523E+01  0.15935411192E+02  0.16464354666E+02  0.51100000000E-03 0. -1.
        -11    1    3    3    0    0  0.11042428823E+02  0.22415315375E+02 -0.71921139238E+01  0.26002078775E+02  0.51100000000E-03 0.  1.
        -12    1    3    3    0    0 -0.48403486699E+01 -0.15771166642E+01  0.16047392873E+02  0.16835530589E+02  0.00000000000E+00 0.  1.
</event>
<event>
 7    1  0.6180395E-013  0.5930193E+02  0.7816164E-02  0.1266605E+00
        -11   -1    0    0    0    0  0.00000000000E+00  0.00000000000E+00  0.45593999997E+02  0.45594000000E+02  0.51100000000E-03 0.  1.
         11   -1    0    0    0    0 -0.00000000000E+00 -0.00000000000E+00 -0.45593999997E+02  0.45594000000E+02  0.51100000000E-03 0. -1.
    9900012    2    1    2    0    0 -0.25421881510E+02 -0.13535207528E+02 -0.13683846516E+02  0.59301928467E+02  0.49999971621E+02 0.  0.
        -12    1    1    2    0    0  0.25421881510E+02  0.13535207528E+02  0.13683846516E+02  0.31886071533E+02  0.00000000000E+00 0.  1.
         11    1    3    3    0    0  0.46070948603E+00 -0.80469389410E+01 -0.49580501866E+01  0.94629668426E+01  0.51100000000E-03 0. -1.
        -11    1    3    3    0    0 -0.22397581701E+02  0.15735728442E+02 -0.70473820207E+01  0.28265357051E+02  0.51100000000E-03 0.  1.
        -12    1    3    3    0    0 -0.34850092954E+01 -0.21223997029E+02 -0.16784143085E+01  0.21573604573E+02  0.00000000000E+00 0.  1.
</event>
<event>
 7    1  0.6180395E-013  0.5930190E+02  0.7816164E-02  0.1266605E+00
        -11   -1    0    0    0    0  0.00000000000E+00  0.00000000000E+00  0.45593999997E+02  0.45594000000E+02  0.51100000000E-03 0. -1.
         11   -1    0    0    0    0 -0.00000000000E+00 -0.00000000000E+00 -0.45593999997E+02  0.45594000000E+02  0.51100000000E-03 0.  1.
    9900012    2    1    2    0    0  0.33667032176E+01  0.16268599176E+02  0.27216193585E+02  0.59301902670E+02  0.49999924574E+02 0.  0.
        -12    1    1    2    0    0 -0.33667032176E+01 -0.16268599176E+02 -0.27216193585E+02  0.31886097330E+02  0.00000000000E+00 0.  1.
         11    1    3    3    0    0 -0.15133405185E+02  0.60696220152E+01  0.15288292722E+02  0.22351558301E+02  0.51100000000E-03 0. -1.
        -11    1    3    3    0    0  0.14367516841E+02  0.19296970298E+02  0.44423340110E+01  0.24464932753E+02  0.51100000000E-03 0.  1.
         12    1    3    3    0    0  0.41325915608E+01 -0.90979931375E+01  0.74855668516E+01  0.12485411616E+02  0.00000000000E+00 0. -1.
</event>
<event>
 7    1  0.6180395E-013  0.5930211E+02  0.7816164E-02  0.1266604E+00
        -11   -1    0    0    0    0  0.00000000000E+00  0.00000000000E+00  0.45593999997E+02  0.45594000000E+02  0.51100000000E-03 0.  1.
         11   -1    0    0    0    0 -0.00000000000E+00 -0.00000000000E+00 -0.45593999997E+02  0.45594000000E+02  0.51100000000E-03 0. -1.
    9900012    2    1    2    0    0 -0.14073053050E+02 -0.16083556583E+02 -0.23663862101E+02  0.59302109954E+02  0.50000302609E+02 0.  0.
        -12    1    1    2    0    0  0.14073053050E+02  0.16083556583E+02  0.23663862101E+02  0.31885890046E+02  0.00000000000E+00 0.  1.
         11    1    3    3    0    0  0.25232822811E+01 -0.36673993797E+01 -0.30821783560E+02  0.31141597804E+02  0.51100000000E-03 0. -1.
        -11    1    3    3    0    0  0.17541088270E+00 -0.11285264514E+00  0.73560644965E+01  0.73590209834E+01  0.51100000000E-03 0.  1.
         12    1    3    3    0    0 -0.16771746213E+02 -0.12303304558E+02 -0.19814303687E+00  0.20801491167E+02  0.00000000000E+00 0. -1.
</event>
<event>
 7    1  0.6180395E-013  0.5930192E+02  0.7816164E-02  0.1266605E+00
        -11   -1    0    0    0    0  0.00000000000E+00  0.00000000000E+00  0.45593999997E+02  0.45594000000E+02  0.51100000000E-03 0. -1.
         11   -1    0    0    0    0 -0.00000000000E+00 -0.00000000000E+00 -0.45593999997E+02  0.45594000000E+02  0.51100000000E-03 0.  1.
    9900012    2    1    2    0    0  0.85452376977E+01  0.10767694498E+02  0.28770775733E+02  0.59301923596E+02  0.49999962738E+02 0.  0.
        -12    1    1    2    0    0 -0.85452376977E+01 -0.10767694498E+02 -0.28770775733E+02  0.31886076404E+02  0.00000000000E+00 0.  1.
         11    1    3    3    0    0  0.20219130766E+02  0.60927101566E+01  0.26909137034E+02  0.34205789307E+02  0.51100000000E-03 0. -1.
        -11    1    3    3    0    0 -0.10025982048E+02  0.12724552588E+02 -0.13905412433E+01  0.16259402197E+02  0.51100000000E-03 0.  1.
        -12    1    3    3    0    0 -0.16479110198E+01 -0.80495682464E+01  0.32521799429E+01  0.88367320919E+01  0.00000000000E+00 0.  1.
</event>
<event>
 7    1  0.6180395E-013  0.5930193E+02  0.7816164E-02  0.1266605E+00
        -11   -1    0    0    0    0  0.00000000000E+00  0.00000000000E+00  0.45593999997E+02  0.45594000000E+02  0.51100000000E-03 0. -1.
         11   -1    0    0    0    0 -0.00000000000E+00 -0.00000000000E+00 -0.45593999997E+02  0.45594000000E+02  0.51100000000E-03 0.  1.
    9900012    2    1    2    0    0  0.27830173741E+02 -0.12674396692E+02 -0.90311985074E+01  0.59301930182E+02  0.49999974749E+02 0.  0.
        -12    1    1    2    0    0 -0.27830173741E+02  0.12674396692E+02  0.90311985074E+01  0.31886069818E+02  0.00000000000E+00 0.  1.
         11    1    3    3    0    0 -0.39233888315E+00 -0.94727698313E+00  0.22292193212E+01  0.24537079136E+01  0.51100000000E-03 0. -1.
        -11    1    3    3    0    0  0.37452885478E+02 -0.17626495495E+02 -0.16678303564E+02  0.44627096971E+02  0.51100000000E-03 0.  1.
        -12    1    3    3    0    0 -0.92303728537E+01  0.58993757858E+01  0.54178857358E+01  0.12221125297E+02  0.00000000000E+00 0.  1.
</event>
<event>
 7    1  0.6180395E-013  0.5930194E+02  0.7816164E-02  0.1266605E+00
        -11   -1    0    0    0    0  0.00000000000E+00  0.00000000000E+00  0.45593999997E+02  0.45594000000E+02  0.51100000000E-03 0. -1.
         11   -1    0    0    0    0 -0.00000000000E+00 -0.00000000000E+00 -0.45593999997E+02  0.45594000000E+02  0.51100000000E-03 0.  1.
    9900012    2    1    2    0    0  0.21262654829E+02  0.76004826894E+01  0.22513397791E+02  0.59301938663E+02  0.49999990216E+02 0.  0.
        -12    1    1    2    0    0 -0.21262654829E+02 -0.76004826894E+01 -0.22513397791E+02  0.31886061337E+02  0.00000000000E+00 0.  1.
         11    1    3    3    0    0  0.13380890728E+01  0.10924953923E+02  0.17626733697E+02  0.20780924947E+02  0.51100000000E-03 0.  1.
        -11    1    3    3    0    0  0.11487313921E+02 -0.81813394470E+01 -0.12336273419E+02  0.18737031206E+02  0.51100000000E-03 0. -1.
         12    1    3    3    0    0  0.84372518352E+01  0.48568682135E+01  0.17222937513E+02  0.19783982510E+02  0.00000000000E+00 0. -1.
</event>
<event>
 7    1  0.6180395E-013  0.5930195E+02  0.7816164E-02  0.1266605E+00
        -11   -1    0    0    0    0  0.00000000000E+00  0.00000000000E+00  0.45593999997E+02  0.45594000000E+02  0.51100000000E-03 0.  1.
         11   -1    0    0    0    0 -0.00000000000E+00 -0.00000000000E+00 -0.45593999997E+02  0.45594000000E+02  0.51100000000E-03 0. -1.
    9900012    2    1    2    0    0  0.11833824061E+02  0.90635488808E+01 -0.28187462059E+02  0.59301947758E+02  0.50000006803E+02 0.  0.
        -12    1    1    2    0    0 -0.11833824061E+02 -0.90635488808E+01  0.28187462059E+02  0.31886052242E+02  0.00000000000E+00 0.  1.
         11    1    3    3    0    0  0.10443312172E+02 -0.90719592900E+01 -0.18770525364E+02  0.23317286231E+02  0.51100000000E-03 0. -1.
        -11    1    3    3    0    0 -0.13772876562E+02  0.10832452024E+02 -0.74474625041E+01  0.19039402397E+02  0.51100000000E-03 0.  1.
        -12    1    3    3    0    0  0.15163388451E+02  0.73030561468E+01 -0.19694741915E+01  0.16945259130E+02  0.00000000000E+00 0.  1.
</event>
<event>
 7    1  0.6180395E-013  0.5930195E+02  0.7816164E-02  0.1266605E+00
        -11   -1    0    0    0    0  0.00000000000E+00  0.00000000000E+00  0.45593999997E+02  0.45594000000E+02  0.51100000000E-03 0. -1.
         11   -1    0    0    0    0 -0.00000000000E+00 -0.00000000000E+00 -0.45593999997E+02  0.45594000000E+02  0.51100000000E-03 0.  1.
    9900012    2    1    2    0    0 -0.25082910704E+02  0.19682884692E+02 -0.38997125846E+00  0.59301946046E+02  0.50000003680E+02 0.  0.
        -12    1    1    2    0    0  0.25082910704E+02 -0.19682884692E+02  0.38997125846E+00  0.31886053954E+02  0.00000000000E+00 0.  1.
         11    1    3    3    0    0 -0.17125109680E+02  0.76747107277E+01  0.39416580312E+01  0.19175693849E+02  0.51100000000E-03 0. -1.
        -11    1    3    3    0    0  0.18644052572E+01  0.15435050067E+02 -0.17458122856E+02  0.23377400015E+02  0.51100000000E-03 0.  1.
        -12    1    3    3    0    0 -0.98222062817E+01 -0.34268761032E+01  0.13126493566E+02  0.16748852182E+02  0.00000000000E+00 0.  1.
</event>
<event>
 7    1  0.6180395E-013  0.5930191E+02  0.7816164E-02  0.1266605E+00
        -11   -1    0    0    0    0  0.00000000000E+00  0.00000000000E+00  0.45593999997E+02  0.45594000000E+02  0.51100000000E-03 0.  1.
         11   -1    0    0    0    0 -0.00000000000E+00 -0.00000000000E+00 -0.45593999997E+02  0.45594000000E+02  0.51100000000E-03 0. -1.
    9900012    2    1    2    0    0  0.71792402706E+01 -0.25145565357E+02 -0.18245054684E+02  0.59301906348E+02  0.49999931281E+02 0.  0.
        -12    1    1    2    0    0 -0.71792402706E+01  0.25145565357E+02  0.18245054684E+02  0.31886093652E+02  0.00000000000E+00 0.  1.
         11    1    3    3    0    0  0.12617128025E+02  0.66871463576E+01 -0.80283830547E+01  0.16381843020E+02  0.51100000000E-03 0. -1.
        -11    1    3    3    0    0 -0.13177514797E+02 -0.28179387851E+02 -0.21879609549E+01  0.31185124167E+02  0.51100000000E-03 0.  1.
        -12    1    3    3    0    0  0.77396270426E+01 -0.36533238631E+01 -0.80287106746E+01  0.11734939161E+02  0.00000000000E+00 0.  1.
</event>
<event>
 7    1  0.6180395E-013  0.5930194E+02  0.7816164E-02  0.1266605E+00
        -11   -1    0    0    0    0  0.00000000000E+00  0.00000000000E+00  0.45593999997E+02  0.45594000000E+02  0.51100000000E-03 0.  1.
         11   -1    0    0    0    0 -0.00000000000E+00 -0.00000000000E+00 -0.45593999997E+02  0.45594000000E+02  0.51100000000E-03 0. -1.
    9900012    2    1    2    0    0 -0.24748186534E+02 -0.78099281373E+01 -0.18527083280E+02  0.59301944598E+02  0.50000001040E+02 0.  0.
        -12    1    1    2    0    0  0.24748186534E+02  0.78099281373E+01  0.18527083280E+02  0.31886055402E+02  0.00000000000E+00 0.  1.
         11    1    3    3    0    0 -0.69311500851E+01 -0.62587730558E+01 -0.25484574259E+02  0.27141787102E+02  0.51100000000E-03 0. -1.
        -11    1    3    3    0    0 -0.22458146084E+02 -0.56918182571E+01  0.47022121033E+00  0.23172963316E+02  0.51100000000E-03 0.  1.
         12    1    3    3    0    0  0.46411096354E+01  0.41406631755E+01  0.64872697685E+01  0.89871941800E+01  0.00000000000E+00 0. -1.
</event>
<event>
 7    1  0.6180395E-013  0.5930194E+02  0.7816164E-02  0.1266605E+00
        -11   -1    0    0    0    0  0.00000000000E+00  0.00000000000E+00  0.45593999997E+02  0.45594000000E+02  0.51100000000E-03 0.  1.
         11   -1    0    0    0    0 -0.00000000000E+00 -0.00000000000E+00 -0.45593999997E+02  0.45594000000E+02  0.51100000000E-03 0. -1.
    9900012    2    1    2    0    0  0.18422901732E+02  0.19051465688E+02 -0.17730177403E+02  0.59301939663E+02  0.49999992039E+02 0.  0.
        -12    1    1    2    0    0 -0.18422901732E+02 -0.19051465688E+02  0.17730177403E+02  0.31886060337E+02  0.00000000000E+00 0.  1.
         11    1    3    3    0    0  0.19432841395E+02  0.26002442605E+02 -0.17184945378E+02  0.36729888293E+02  0.51100000000E-03 0. -1.
        -11    1    3    3    0    0 -0.87313273203E+01 -0.87594824267E+01  0.45133613504E+01  0.13165676591E+02  0.51100000000E-03 0.  1.
        -12    1    3    3    0    0  0.77213876575E+01  0.18085055094E+01 -0.50585933759E+01  0.94063747787E+01  0.00000000000E+00 0.  1.
</event>
<event>
 7    1  0.6180395E-013  0.5930198E+02  0.7816164E-02  0.1266605E+00
        -11   -1    0    0    0    0  0.00000000000E+00  0.00000000000E+00  0.45593999997E+02  0.45594000000E+02  0.51100000000E-03 0. -1.
         11   -1    0    0    0    0 -0.00000000000E+00 -0.00000000000E+00 -0.45593999997E+02  0.45594000000E+02  0.51100000000E-03 0.  1.
    9900012    2    1    2    0    0  0.30245146698E+02 -0.96748195205E+01 -0.28891971476E+01  0.59301976546E+02  0.50000059306E+02 0.  0.
        -12    1    1    2    0    0 -0.30245146698E+02  0.96748195205E+01  0.28891971476E+01  0.31886023454E+02  0.00000000000E+00 0.  1.
         11    1    3    3    0    0 -0.13295355378E+01 -0.15001384961E+02  0.46920323923E+01  0.15774168242E+02  0.51100000000E-03 0. -1.
        -11    1    3    3    0    0  0.29949588349E+02  0.40589517437E+01  0.51255904184E+01  0.30654927971E+02  0.51100000000E-03 0.  1.
        -12    1    3    3    0    0  0.16250938867E+01  0.12676136964E+01 -0.12706819958E+02  0.12872880333E+02  0.00000000000E+00 0.  1.
</event>
<event>
 7    1  0.6180395E-013  0.5930194E+02  0.7816164E-02  0.1266605E+00
        -11   -1    0    0    0    0  0.00000000000E+00  0.00000000000E+00  0.45593999997E+02  0.45594000000E+02  0.51100000000E-03 0. -1.
         11   -1    0    0    0    0 -0.00000000000E+00 -0.00000000000E+00 -0.45593999997E+02  0.45594000000E+02  0.51100000000E-03 0.  1.
    9900012    2    1    2    0    0  0.13291647752E+02 -0.10144493143E+02  0.27150364528E+02  0.59301938232E+02  0.49999989430E+02 0.  0.
        -12    1    1    2    0    0 -0.13291647752E+02  0.10144493143E+02 -0.27150364528E+02  0.31886061768E+02  0.00000000000E+00 0.  1.
         11    1    3    3    0    0  0.25865831826E+02 -0.15850301918E+02  0.16272855659E+02  0.34424978700E+02  0.51100000000E-03 0. -1.
        -11    1    3    3    0    0 -0.38716034978E-01  0.19214186207E+01  0.11604479715E+02  0.11762537913E+02  0.51100000000E-03 0.  1.
         12    1    3    3    0    0 -0.12535468039E+02  0.37843901535E+01 -0.72697084649E+00  0.13114421619E+02  0.00000000000E+00 0. -1.
</event>
<event>
 7    1  0.6180395E-013  0.5930194E+02  0.7816164E-02  0.1266605E+00
        -11   -1    0    0    0    0  0.00000000000E+00  0.00000000000E+00  0.45593999997E+02  0.45594000000E+02  0.51100000000E-03 0. -1.
         11   -1    0    0    0    0 -0.00000000000E+00 -0.00000000000E+00 -0.45593999997E+02  0.45594000000E+02  0.51100000000E-03 0.  1.
    9900012    2    1    2    0    0  0.91674391458E+01  0.29798096819E+02  0.66897157991E+01  0.59301940162E+02  0.49999992950E+02 0.  0.
        -12    1    1    2    0    0 -0.91674391458E+01 -0.29798096819E+02 -0.66897157991E+01  0.31886059838E+02  0.00000000000E+00 0.  1.
         11    1    3    3    0    0 -0.28640590903E+01 -0.54082751584E+01  0.17069905326E+02  0.18133779053E+02  0.51100000000E-03 0. -1.
        -11    1    3    3    0    0  0.14961063101E+01  0.19789317659E+02 -0.10588929130E+02  0.22494018047E+02  0.51100000000E-03 0.  1.
         12    1    3    3    0    0  0.10535391926E+02  0.15417054318E+02  0.20873960383E+00  0.18674143062E+02  0.00000000000E+00 0. -1.
</event>
<event>
 7    1  0.6180395E-013  0.5930195E+02  0.7816164E-02  0.1266605E+00
        -11   -1    0    0    0    0  0.00000000000E+00  0.00000000000E+00  0.45593999997E+02  0.45594000000E+02  0.51100000000E-03 0.  1.
         11   -1    0    0    0    0 -0.00000000000E+00 -0.00000000000E+00 -0.45593999997E+02  0.45594000000E+02  0.51100000000E-03 0. -1.
    9900012    2    1    2    0    0  0.43889178259E+01 -0.31440643357E+02 -0.29906084145E+01  0.59301946731E+02  0.50000004930E+02 0.  0.
        -12    1    1    2    0    0 -0.43889178259E+01  0.31440643357E+02  0.29906084145E+01  0.31886053269E+02  0.00000000000E+00 0.  1.
         11    1    3    3    0    0 -0.24017889000E+01 -0.29923310718E+02 -0.79741420073E+01  0.31060586846E+02  0.51100000000E-03 0. -1.
        -11    1    3    3    0    0  0.38330339385E+01  0.66077631013E+01 -0.89972534381E+01  0.11802764594E+02  0.51100000000E-03 0.  1.
         12    1    3    3    0    0  0.29576727874E+01 -0.81250957409E+01  0.13980787031E+02  0.16438595290E+02  0.00000000000E+00 0. -1.
</event>
<event>
 7    1  0.6180395E-013  0.5930197E+02  0.7816164E-02  0.1266605E+00
        -11   -1    0    0    0    0  0.00000000000E+00  0.00000000000E+00  0.45593999997E+02  0.45594000000E+02  0.51100000000E-03 0.  1.
         11   -1    0    0    0    0 -0.00000000000E+00 -0.00000000000E+00 -0.45593999997E+02  0.45594000000E+02  0.51100000000E-03 0. -1.
    9900012    2    1    2    0    0  0.18902168823E+02  0.51209547497E+01 -0.25163523695E+02  0.59301967187E+02  0.50000042237E+02 0.  0.
        -12    1    1    2    0    0 -0.18902168823E+02 -0.51209547497E+01  0.25163523695E+02  0.31886032813E+02  0.00000000000E+00 0.  1.
         11    1    3    3    0    0 -0.79356316508E-01  0.93829964754E+01 -0.32229364807E+02  0.33567527112E+02  0.51100000000E-03 0. -1.
        -11    1    3    3    0    0 -0.26737265284E+01 -0.48883672506E+00  0.12791799570E+01  0.30040100726E+01  0.51100000000E-03 0.  1.
         12    1    3    3    0    0  0.21655251668E+02 -0.37732050006E+01  0.57866611547E+01  0.22730430003E+02  0.00000000000E+00 0. -1.
</event>
<event>
 7    1  0.6180395E-013  0.5930196E+02  0.7816164E-02  0.1266605E+00
        -11   -1    0    0    0    0  0.00000000000E+00  0.00000000000E+00  0.45593999997E+02  0.45594000000E+02  0.51100000000E-03 0. -1.
         11   -1    0    0    0    0 -0.00000000000E+00 -0.00000000000E+00 -0.45593999997E+02  0.45594000000E+02  0.51100000000E-03 0.  1.
    9900012    2    1    2    0    0 -0.94980499690E+01 -0.17572848939E+02  0.24853605379E+02  0.59301958016E+02  0.50000025512E+02 0.  0.
        -12    1    1    2    0    0  0.94980499690E+01  0.17572848939E+02 -0.24853605379E+02  0.31886041984E+02  0.00000000000E+00 0.  1.
         11    1    3    3    0    0 -0.26652262342E+02 -0.18954285395E+02  0.10781926798E+02  0.34436288542E+02  0.51100000000E-03 0. -1.
        -11    1    3    3    0    0  0.82279664712E+01  0.30359769268E+01  0.82802071853E+00  0.88092114699E+01  0.51100000000E-03 0.  1.
         12    1    3    3    0    0  0.89262459020E+01 -0.16545404700E+01  0.13243657863E+02  0.16056458005E+02  0.00000000000E+00 0. -1.
</event>
<event>
 7    1  0.6180395E-013  0.5930195E+02  0.7816164E-02  0.1266605E+00
        -11   -1    0    0    0    0  0.00000000000E+00  0.00000000000E+00  0.45593999997E+02  0.45594000000E+02  0.51100000000E-03 0. -1.
         11   -1    0    0    0    0 -0.00000000000E+00 -0.00000000000E+00 -0.45593999997E+02  0.45594000000E+02  0.51100000000E-03 0.  1.
    9900012    2    1    2    0    0 -0.51612180143E+01 -0.13282598322E+02  0.28524632397E+02  0.59301949085E+02  0.50000009223E+02 0.  0.
        -12    1    1    2    0    0  0.51612180143E+01  0.13282598322E+02 -0.28524632397E+02  0.31886050915E+02  0.00000000000E+00 0.  1.
         11    1    3    3    0    0  0.84104330705E+01  0.12577386917E+02  0.16032311203E+02  0.22044524238E+02  0.51100000000E-03 0. -1.
        -11    1    3    3    0    0 -0.75505599565E+01 -0.21960554059E+02  0.43367387021E+00  0.23226385072E+02  0.51100000000E-03 0.  1.
        -12    1    3    3    0    0 -0.60210911284E+01 -0.38994311803E+01  0.12058647323E+02  0.14031039775E+02  0.00000000000E+00 0.  1.
</event>
<event>
 7    1  0.6180395E-013  0.5930194E+02  0.7816164E-02  0.1266605E+00
        -11   -1    0    0    0    0  0.00000000000E+00  0.00000000000E+00  0.45593999997E+02  0.45594000000E+02  0.51100000000E-03 0. -1.
         11   -1    0    0    0    0 -0.00000000000E+00 -0.00000000000E+00 -0.45593999997E+02  0.45594000000E+02  0.51100000000E-03 0.  1.
    9900012    2    1    2    0    0 -0.20373345287E+02  0.22172264951E+02  0.10489909689E+02  0.59301941345E+02  0.49999995108E+02 0.  0.
        -12    1    1    2    0    0  0.20373345287E+02 -0.22172264951E+02 -0.10489909689E+02  0.31886058655E+02  0.00000000000E+00 0.  1.
         11    1    3    3    0    0 -0.83591672355E+01  0.15229353517E+02  0.15102867636E+02  0.23019676290E+02  0.51100000000E-03 0. -1.
        -11    1    3    3    0    0 -0.19458166065E+02 -0.62259182828E+01  0.12551012116E+00  0.20430321538E+02  0.51100000000E-03 0.  1.
        -12    1    3    3    0    0  0.74439880136E+01  0.13168829717E+02 -0.47384680675E+01  0.15851943517E+02  0.00000000000E+00 0.  1.
</event>
<event>
 7    1  0.6180395E-013  0.5930193E+02  0.7816164E-02  0.1266605E+00
        -11   -1    0    0    0    0  0.00000000000E+00  0.00000000000E+00  0.45593999997E+02  0.45594000000E+02  0.51100000000E-03 0.  1.
         11   -1    0    0    0    0 -0.00000000000E+00 -0.00000000000E+00 -0.45593999997E+02  0.45594000000E+02  0.51100000000E-03 0. -1.
    9900012    2    1    2    0    0  0.25890261723E+02 -0.17638565190E+02 -0.59410915587E+01  0.59301934032E+02  0.49999981770E+02 0.  0.
        -12    1    1    2    0    0 -0.25890261723E+02  0.17638565190E+02  0.59410915587E+01  0.31886065968E+02  0.00000000000E+00 0.  1.
         11    1    3    3    0    0 -0.54536785070E+01 -0.28087795489E+01 -0.43118556397E+01  0.74982632076E+01  0.51100000000E-03 0. -1.
        -11    1    3    3    0    0  0.25799079077E+02 -0.26250327926E+02  0.55452106601E+01  0.37221251443E+02  0.51100000000E-03 0.  1.
        -12    1    3    3    0    0  0.55448611526E+01  0.11420542285E+02 -0.71744465791E+01  0.14582419381E+02  0.00000000000E+00 0.  1.
</event>
<event>
 7    1  0.6180395E-013  0.5930195E+02  0.7816164E-02  0.1266605E+00
        -11   -1    0    0    0    0  0.00000000000E+00  0.00000000000E+00  0.45593999997E+02  0.45594000000E+02  0.51100000000E-03 0.  1.
         11   -1    0    0    0    0 -0.00000000000E+00 -0.00000000000E+00 -0.45593999997E+02  0.45594000000E+02  0.51100000000E-03 0. -1.
    9900012    2    1    2    0    0 -0.11661449481E+02 -0.51365320114E+01 -0.29229216755E+02  0.59301945412E+02  0.50000002524E+02 0.  0.
        -12    1    1    2    0    0  0.11661449481E+02  0.51365320114E+01  0.29229216755E+02  0.31886054588E+02  0.00000000000E+00 0.  1.
         11    1    3    3    0    0 -0.89544584658E+01  0.91686812350E+01  0.61890568101E+01  0.14232057703E+02  0.51100000000E-03 0. -1.
        -11    1    3    3    0    0 -0.10021496289E+02 -0.16997951032E+02 -0.22005111650E+02  0.29556482642E+02  0.51100000000E-03 0.  1.
         12    1    3    3    0    0  0.73145052745E+01  0.26927377857E+01 -0.13413161915E+02  0.15513405066E+02  0.00000000000E+00 0. -1.
</event>
<event>
 7    1  0.6180395E-013  0.5930199E+02  0.7816164E-02  0.1266605E+00
        -11   -1    0    0    0    0  0.00000000000E+00  0.00000000000E+00  0.45593999997E+02  0.45594000000E+02  0.51100000000E-03 0.  1.
         11   -1    0    0    0    0 -0.00000000000E+00 -0.00000000000E+00 -0.45593999997E+02  0.45594000000E+02  0.51100000000E-03 0. -1.
    9900012    2    1    2    0    0  0.17807675486E+02  0.62396981726E+01 -0.25703513551E+02  0.59301988202E+02  0.50000080564E+02 0.  0.
        -12    1    1    2    0    0 -0.17807675486E+02 -0.62396981726E+01  0.25703513551E+02  0.31886011798E+02  0.00000000000E+00 0.  1.
         11    1    3    3    0    0  0.23483117173E+02  0.16865711664E+02 -0.21647707045E+02  0.36118308967E+02  0.51100000000E-03 0. -1.
        -11    1    3    3    0    0 -0.10504526564E+02 -0.51422755727E+01  0.39500002240E+01  0.12344657890E+02  0.51100000000E-03 0.  1.
        -12    1    3    3    0    0  0.48290848772E+01 -0.54837379189E+01 -0.80058067298E+01  0.10839021345E+02  0.00000000000E+00 0.  1.
</event>
<event>
 7    1  0.6180395E-013  0.5930206E+02  0.7816164E-02  0.1266604E+00
        -11   -1    0    0    0    0  0.00000000000E+00  0.00000000000E+00  0.45593999997E+02  0.45594000000E+02  0.51100000000E-03 0.  1.
         11   -1    0    0    0    0 -0.00000000000E+00 -0.00000000000E+00 -0.45593999997E+02  0.45594000000E+02  0.51100000000E-03 0. -1.
    9900012    2    1    2    0    0  0.23121841362E+02  0.28012776782E+01 -0.21777202782E+02  0.59302058496E+02  0.50000208762E+02 0.  0.
        -12    1    1    2    0    0 -0.23121841362E+02 -0.28012776782E+01  0.21777202782E+02  0.31885941504E+02  0.00000000000E+00 0.  1.
         11    1    3    3    0    0  0.40055320805E+01  0.88313243141E+00 -0.19662322626E+01  0.45486569129E+01  0.51100000000E-03 0. -1.
        -11    1    3    3    0    0 -0.62830671305E+01  0.17275883767E+02  0.11466808252E+01  0.18418685340E+02  0.51100000000E-03 0.  1.
        -12    1    3    3    0    0  0.25399376412E+02 -0.15357738520E+02 -0.20957651345E+02  0.36334716243E+02  0.00000000000E+00 0.  1.
</event>
<event>
 7    1  0.6180395E-013  0.5930194E+02  0.7816164E-02  0.1266605E+00
        -11   -1    0    0    0    0  0.00000000000E+00  0.00000000000E+00  0.45593999997E+02  0.45594000000E+02  0.51100000000E-03 0.  1.
         11   -1    0    0    0    0 -0.00000000000E+00 -0.00000000000E+00 -0.45593999997E+02  0.45594000000E+02  0.51100000000E-03 0. -1.
    9900012    2    1    2    0    0  0.84771908420E+01 -0.24357470618E+02 -0.18750240591E+02  0.59301942518E+02  0.49999997247E+02 0.  0.
        -12    1    1    2    0    0 -0.84771908420E+01  0.24357470618E+02  0.18750240591E+02  0.31886057482E+02  0.00000000000E+00 0.  1.
         11    1    3    3    0    0 -0.72179342153E+01 -0.27423051707E+02 -0.16911813796E+02  0.33017143810E+02  0.51100000000E-03 0.  1.
        -11    1    3    3    0    0  0.19718407972E+02  0.66438524046E+01 -0.19548192499E+01  0.20899227408E+02  0.51100000000E-03 0. -1.
         12    1    3    3    0    0 -0.40232829141E+01 -0.35782713165E+01  0.11639245444E+00  0.53855712998E+01  0.00000000000E+00 0. -1.
</event>
<event>
 7    1  0.6180395E-013  0.5930194E+02  0.7816164E-02  0.1266605E+00
        -11   -1    0    0    0    0  0.00000000000E+00  0.00000000000E+00  0.45593999997E+02  0.45594000000E+02  0.51100000000E-03 0. -1.
         11   -1    0    0    0    0 -0.00000000000E+00 -0.00000000000E+00 -0.45593999997E+02  0.45594000000E+02  0.51100000000E-03 0.  1.
    9900012    2    1    2    0    0  0.10308218249E+02 -0.62304626012E+01  0.29523602049E+02  0.59301935558E+02  0.49999984553E+02 0.  0.
        -12    1    1    2    0    0 -0.10308218249E+02  0.62304626012E+01 -0.29523602049E+02  0.31886064442E+02  0.00000000000E+00 0.  1.
         11    1    3    3    0    0 -0.10297237821E+02 -0.35956705843E+01  0.35921904671E+02  0.37541246505E+02  0.51100000000E-03 0. -1.
        -11    1    3    3    0    0  0.10685942262E+02 -0.12991630711E+01 -0.27809363936E+01  0.11118039134E+02  0.51100000000E-03 0.  1.
         12    1    3    3    0    0  0.99195138077E+01 -0.13356289458E+01 -0.36173662286E+01  0.10642649919E+02  0.00000000000E+00 0. -1.
</event>
<event>
 7    1  0.6180395E-013  0.5930195E+02  0.7816164E-02  0.1266605E+00
        -11   -1    0    0    0    0  0.00000000000E+00  0.00000000000E+00  0.45593999997E+02  0.45594000000E+02  0.51100000000E-03 0.  1.
         11   -1    0    0    0    0 -0.00000000000E+00 -0.00000000000E+00 -0.45593999997E+02  0.45594000000E+02  0.51100000000E-03 0. -1.
    9900012    2    1    2    0    0  0.51925319284E+01 -0.38765360939E+01 -0.31220675562E+02  0.59301945016E+02  0.50000001802E+02 0.  0.
        -12    1    1    2    0    0 -0.51925319284E+01  0.38765360939E+01  0.31220675562E+02  0.31886054984E+02  0.00000000000E+00 0.  1.
         11    1    3    3    0    0  0.45172165452E+01 -0.14046884885E+02 -0.21768030399E+02  0.26297668489E+02  0.51100000000E-03 0. -1.
        -11    1    3    3    0    0  0.70939512222E+01 -0.27648129173E+00  0.86186392280E+01  0.11166088315E+02  0.51100000000E-03 0.  1.
         12    1    3    3    0    0 -0.64186358390E+01  0.10446830083E+02 -0.18071284391E+02  0.21838188212E+02  0.00000000000E+00 0. -1.
</event>
<event>
 7    1  0.6180395E-013  0.5930195E+02  0.7816164E-02  0.1266605E+00
        -11   -1    0    0    0    0  0.00000000000E+00  0.00000000000E+00  0.45593999997E+02  0.45594000000E+02  0.51100000000E-03 0.  1.
         11   -1    0    0    0    0 -0.00000000000E+00 -0.00000000000E+00 -0.45593999997E+02  0.45594000000E+02  0.51100000000E-03 0. -1.
    9900012    2    1    2    0    0  0.23597017736E+02  0.19063638478E+01 -0.21360397618E+02  0.59301952024E+02  0.50000014583E+02 0.  0.
        -12    1    1    2    0    0 -0.23597017736E+02 -0.19063638478E+01  0.21360397618E+02  0.31886047976E+02  0.00000000000E+00 0.  1.
         11    1    3    3    0    0  0.30819613655E+02 -0.13679208521E+02 -0.11237116348E+02  0.35542117490E+02  0.51100000000E-03 0. -1.
        -11    1    3    3    0    0 -0.53160185707E+01  0.61411892471E+00  0.39171189679E+00  0.53656904466E+01  0.51100000000E-03 0.  1.
         12    1    3    3    0    0 -0.19065773484E+01  0.14971453444E+02 -0.10514993167E+02  0.18394144087E+02  0.00000000000E+00 0. -1.
</event>
<event>
 7    1  0.6180395E-013  0.5930192E+02  0.7816164E-02  0.1266605E+00
        -11   -1    0    0    0    0  0.00000000000E+00  0.00000000000E+00  0.45593999997E+02  0.45594000000E+02  0.51100000000E-03 0.  1.
         11   -1    0    0    0    0 -0.00000000000E+00 -0.00000000000E+00 -0.45593999997E+02  0.45594000000E+02  0.51100000000E-03 0. -1.
    9900012    2    1    2    0    0  0.26284004559E+01 -0.31280600478E+02 -0.55979911138E+01  0.59301922165E+02  0.49999960127E+02 0.  0.
        -12    1    1    2    0    0 -0.26284004559E+01  0.31280600478E+02  0.55979911138E+01  0.31886077835E+02  0.00000000000E+00 0.  1.
         11    1    3    3    0    0  0.15019970252E+02 -0.21496552037E+02 -0.25721501606E+01  0.26349899669E+02  0.51100000000E-03 0. -1.
        -11    1    3    3    0    0 -0.49184763369E+01  0.20268791056E+01  0.11575599349E+02  0.12739472082E+02  0.51100000000E-03 0.  1.
         12    1    3    3    0    0 -0.74730934592E+01 -0.11810927546E+02 -0.14601440302E+02  0.20212550414E+02  0.00000000000E+00 0. -1.
</event>
<event>
 7    1  0.6180395E-013  0.5930194E+02  0.7816164E-02  0.1266605E+00
        -11   -1    0    0    0    0  0.00000000000E+00  0.00000000000E+00  0.45593999997E+02  0.45594000000E+02  0.51100000000E-03 0.  1.
         11   -1    0    0    0    0 -0.00000000000E+00 -0.00000000000E+00 -0.45593999997E+02  0.45594000000E+02  0.51100000000E-03 0. -1.
    9900012    2    1    2    0    0  0.21507487828E+02 -0.92201383673E+01 -0.21659583735E+02  0.59301944243E+02  0.50000000392E+02 0.  0.
        -12    1    1    2    0    0 -0.21507487828E+02  0.92201383673E+01  0.21659583735E+02  0.31886055757E+02  0.00000000000E+00 0.  1.
         11    1    3    3    0    0  0.16377167072E+02 -0.17328911979E+02 -0.15983525765E+02  0.28704980192E+02  0.51100000000E-03 0. -1.
        -11    1    3    3    0    0 -0.65036709358E+01  0.10372724334E+02 -0.12016980235E+02  0.17155143834E+02  0.51100000000E-03 0.  1.
        -12    1    3    3    0    0  0.11633991692E+02 -0.22639507218E+01  0.63409222648E+01  0.13441820216E+02  0.00000000000E+00 0.  1.
</event>
<event>
 7    1  0.6180395E-013  0.5930192E+02  0.7816164E-02  0.1266605E+00
        -11   -1    0    0    0    0  0.00000000000E+00  0.00000000000E+00  0.45593999997E+02  0.45594000000E+02  0.51100000000E-03 0. -1.
         11   -1    0    0    0    0 -0.00000000000E+00 -0.00000000000E+00 -0.45593999997E+02  0.45594000000E+02  0.51100000000E-03 0.  1.
    9900012    2    1    2    0    0 -0.13612652604E+02  0.17075098287E+02  0.23234855258E+02  0.59301924807E+02  0.49999964945E+02 0.  0.
        -12    1    1    2    0    0  0.13612652604E+02 -0.17075098287E+02 -0.23234855258E+02  0.31886075193E+02  0.00000000000E+00 0.  1.
         11    1    3    3    0    0  0.14819224453E+02  0.10103462207E+02  0.17845983941E+01  0.18024265690E+02  0.51100000000E-03 0. -1.
        -11    1    3    3    0    0 -0.96900103099E+01 -0.21046425736E+01 -0.17862599572E+01  0.10075541924E+02  0.51100000000E-03 0.  1.
         12    1    3    3    0    0 -0.18741866747E+02  0.90762786533E+01  0.23236516821E+02  0.31202117193E+02  0.00000000000E+00 0. -1.
</event>
<event>
 7    1  0.6180395E-013  0.5930194E+02  0.7816164E-02  0.1266605E+00
        -11   -1    0    0    0    0  0.00000000000E+00  0.00000000000E+00  0.45593999997E+02  0.45594000000E+02  0.51100000000E-03 0. -1.
         11   -1    0    0    0    0 -0.00000000000E+00 -0.00000000000E+00 -0.45593999997E+02  0.45594000000E+02  0.51100000000E-03 0.  1.
    9900012    2    1    2    0    0  0.18599480031E+02  0.18536527295E+00  0.25898761530E+02  0.59301939307E+02  0.49999991391E+02 0.  0.
        -12    1    1    2    0    0 -0.18599480031E+02 -0.18536527295E+00 -0.25898761530E+02  0.31886060693E+02  0.00000000000E+00 0.  1.
         11    1    3    3    0    0  0.20503070407E+02  0.22829048746E+01  0.25734220730E+02  0.32982384202E+02  0.51100000000E-03 0. -1.
        -11    1    3    3    0    0 -0.62943135331E+01 -0.12718338272E+02 -0.27694189255E+01  0.14458360650E+02  0.51100000000E-03 0.  1.
        -12    1    3    3    0    0  0.43907231573E+01  0.10620798670E+02  0.29339597258E+01  0.11861194455E+02  0.00000000000E+00 0.  1.
</event>
<event>
 7    1  0.6180395E-013  0.5930198E+02  0.7816164E-02  0.1266605E+00
        -11   -1    0    0    0    0  0.00000000000E+00  0.00000000000E+00  0.45593999997E+02  0.45594000000E+02  0.51100000000E-03 0. -1.
         11   -1    0    0    0    0 -0.00000000000E+00 -0.00000000000E+00 -0.45593999997E+02  0.45594000000E+02  0.51100000000E-03 0.  1.
    9900012    2    1    2    0    0 -0.20111559054E+02  0.17330285644E+02  0.17660829210E+02  0.59301976471E+02  0.50000059169E+02 0.  0.
        -12    1    1    2    0    0  0.20111559054E+02 -0.17330285644E+02 -0.17660829210E+02  0.31886023529E+02  0.00000000000E+00 0.  1.
         11    1    3    3    0    0 -0.54732720100E+01 -0.45517812916E+01  0.28384616198E+02  0.29263661022E+02  0.51100000000E-03 0. -1.
        -11    1    3    3    0    0 -0.26054535686E+01  0.12518498540E+02 -0.55274539360E+01  0.13930324521E+02  0.51100000000E-03 0.  1.
        -12    1    3    3    0    0 -0.12032833475E+02  0.93635683958E+01 -0.51963330521E+01  0.16107990928E+02  0.00000000000E+00 0.  1.
</event>
<event>
 7    1  0.6180395E-013  0.5930188E+02  0.7816164E-02  0.1266605E+00
        -11   -1    0    0    0    0  0.00000000000E+00  0.00000000000E+00  0.45593999997E+02  0.45594000000E+02  0.51100000000E-03 0. -1.
         11   -1    0    0    0    0 -0.00000000000E+00 -0.00000000000E+00 -0.45593999997E+02  0.45594000000E+02  0.51100000000E-03 0.  1.
    9900012    2    1    2    0    0 -0.83713398066E+01  0.30453577741E+02  0.43846300123E+01  0.59301879074E+02  0.49999881540E+02 0.  0.
        -12    1    1    2    0    0  0.83713398066E+01 -0.30453577741E+02 -0.43846300123E+01  0.31886120926E+02  0.00000000000E+00 0.  1.
         11    1    3    3    0    0  0.13591664323E+02  0.49886327650E+01  0.12320838430E+02  0.19011124528E+02  0.51100000000E-03 0. -1.
        -11    1    3    3    0    0 -0.15367844977E+02  0.24878946533E+02  0.89109731007E+00  0.29256224885E+02  0.51100000000E-03 0.  1.
        -12    1    3    3    0    0 -0.65951591531E+01  0.58599844226E+00 -0.88273057280E+01  0.11034529661E+02  0.00000000000E+00 0.  1.
</event>
<event>
 7    1  0.6180395E-013  0.5930201E+02  0.7816164E-02  0.1266605E+00
        -11   -1    0    0    0    0  0.00000000000E+00  0.00000000000E+00  0.45593999997E+02  0.45594000000E+02  0.51100000000E-03 0.  1.
         11   -1    0    0    0    0 -0.00000000000E+00 -0.00000000000E+00 -0.45593999997E+02  0.45594000000E+02  0.51100000000E-03 0. -1.
    9900012    2    1    2    0    0 -0.11257961391E+02  0.12572189795E+02 -0.27053919887E+02  0.59302011977E+02  0.50000123923E+02 0.  0.
        -12    1    1    2    0    0  0.11257961391E+02 -0.12572189795E+02  0.27053919887E+02  0.31885988023E+02  0.00000000000E+00 0.  1.
         11    1    3    3    0    0  0.38088720916E+01  0.27168787239E+01 -0.93446525933E+01  0.10450429128E+02  0.51100000000E-03 0. -1.
        -11    1    3    3    0    0 -0.57194376930E+01  0.18661533542E+02  0.72183934243E+01  0.20810334104E+02  0.51100000000E-03 0.  1.
        -12    1    3    3    0    0 -0.93473957900E+01 -0.88062224706E+01 -0.24927660718E+02  0.28041248744E+02  0.00000000000E+00 0.  1.
</event>
<event>
 7    1  0.6180395E-013  0.5930195E+02  0.7816164E-02  0.1266605E+00
        -11   -1    0    0    0    0  0.00000000000E+00  0.00000000000E+00  0.45593999997E+02  0.45594000000E+02  0.51100000000E-03 0. -1.
         11   -1    0    0    0    0 -0.00000000000E+00 -0.00000000000E+00 -0.45593999997E+02  0.45594000000E+02  0.51100000000E-03 0.  1.
    9900012    2    1    2    0    0 -0.15030795253E+02  0.23762573163E+02  0.15037795500E+02  0.59301953165E+02  0.50000016664E+02 0.  0.
        -12    1    1    2    0    0  0.15030795253E+02 -0.23762573163E+02 -0.15037795500E+02  0.31886046835E+02  0.00000000000E+00 0.  1.
         11    1    3    3    0    0 -0.19129766993E+02 -0.17907077479E+00  0.20913192917E+02  0.28343282975E+02  0.51100000000E-03 0. -1.
        -11    1    3    3    0    0  0.10392643924E+01  0.12557329754E+02 -0.12236046307E+02  0.17563810251E+02  0.51100000000E-03 0.  1.
         12    1    3    3    0    0  0.30597073476E+01  0.11384314183E+02  0.63606488908E+01  0.13394859939E+02  0.00000000000E+00 0. -1.
</event>
<event>
 7    1  0.6180395E-013  0.5930193E+02  0.7816164E-02  0.1266605E+00
        -11   -1    0    0    0    0  0.00000000000E+00  0.00000000000E+00  0.45593999997E+02  0.45594000000E+02  0.51100000000E-03 0.  1.
         11   -1    0    0    0    0 -0.00000000000E+00 -0.00000000000E+00 -0.45593999997E+02  0.45594000000E+02  0.51100000000E-03 0. -1.
    9900012    2    1    2    0    0 -0.16390415705E+02  0.13441029557E+02 -0.23820466578E+02  0.59301927327E+02  0.49999969542E+02 0.  0.
        -12    1    1    2    0    0  0.16390415705E+02 -0.13441029557E+02  0.23820466578E+02  0.31886072673E+02  0.00000000000E+00 0.  1.
         11    1    3    3    0    0 -0.25187007462E+02 -0.56177732392E+01 -0.11479271823E+02  0.28243909129E+02  0.51100000000E-03 0. -1.
        -11    1    3    3    0    0  0.85175774035E+01 -0.80547452667E+00 -0.26681324587E+01  0.89619665875E+01  0.51100000000E-03 0.  1.
         12    1    3    3    0    0  0.27901435371E+00  0.19864277323E+02 -0.96730622964E+01  0.22096051610E+02  0.00000000000E+00 0. -1.
</event>
<event>
 7    1  0.6180395E-013  0.5930194E+02  0.7816164E-02  0.1266605E+00
        -11   -1    0    0    0    0  0.00000000000E+00  0.00000000000E+00  0.45593999997E+02  0.45594000000E+02  0.51100000000E-03 0.  1.
         11   -1    0    0    0    0 -0.00000000000E+00 -0.00000000000E+00 -0.45593999997E+02  0.45594000000E+02  0.51100000000E-03 0. -1.
    9900012    2    1    2    0    0  0.14787388122E+02 -0.82193858940E+01 -0.27027688079E+02  0.59301936040E+02  0.49999985432E+02 0.  0.
        -12    1    1    2    0    0 -0.14787388122E+02  0.82193858940E+01  0.27027688079E+02  0.31886063960E+02  0.00000000000E+00 0.  1.
         11    1    3    3    0    0 -0.36064927732E+01 -0.15480870879E+02 -0.16509899529E+02  0.22918135527E+02  0.51100000000E-03 0. -1.
        -11    1    3    3    0    0  0.66711589794E+01  0.16640994801E+02  0.21338089219E+00  0.17929657046E+02  0.51100000000E-03 0.  1.
        -12    1    3    3    0    0  0.11722721916E+02 -0.93795098165E+01 -0.10731169442E+02  0.18454143467E+02  0.00000000000E+00 0.  1.
</event>
<event>
 7    1  0.6180395E-013  0.5930193E+02  0.7816164E-02  0.1266605E+00
        -11   -1    0    0    0    0  0.00000000000E+00  0.00000000000E+00  0.45593999997E+02  0.45594000000E+02  0.51100000000E-03 0. -1.
         11   -1    0    0    0    0 -0.00000000000E+00 -0.00000000000E+00 -0.45593999997E+02  0.45594000000E+02  0.51100000000E-03 0.  1.
    9900012    2    1    2    0    0  0.14930729886E+02 -0.10132350208E+02  0.26289361245E+02  0.59301925762E+02  0.49999966688E+02 0.  0.
        -12    1    1    2    0    0 -0.14930729886E+02  0.10132350208E+02 -0.26289361245E+02  0.31886074238E+02  0.00000000000E+00 0.  1.
         11    1    3    3    0    0 -0.71560183856E+00  0.17645574214E+02  0.11977814616E+02  0.21338847640E+02  0.51100000000E-03 0. -1.
        -11    1    3    3    0    0  0.38479223763E+01 -0.14610143983E+02  0.13504913447E+02  0.20264389981E+02  0.51100000000E-03 0.  1.
         12    1    3    3    0    0  0.11798409348E+02 -0.13167780439E+02  0.80663318159E+00  0.17698688142E+02  0.00000000000E+00 0. -1.
</event>
<event>
 7    1  0.6180395E-013  0.5930195E+02  0.7816164E-02  0.1266605E+00
        -11   -1    0    0    0    0  0.00000000000E+00  0.00000000000E+00  0.45593999997E+02  0.45594000000E+02  0.51100000000E-03 0. -1.
         11   -1    0    0    0    0 -0.00000000000E+00 -0.00000000000E+00 -0.45593999997E+02  0.45594000000E+02  0.51100000000E-03 0.  1.
    9900012    2    1    2    0    0 -0.19711064800E+01  0.10162541181E+02  0.30158875054E+02  0.59301948998E+02  0.50000009064E+02 0.  0.
        -12    1    1    2    0    0  0.19711064800E+01 -0.10162541181E+02 -0.30158875054E+02  0.31886051002E+02  0.00000000000E+00 0.  1.
         11    1    3    3    0    0  0.11544484967E+02  0.12725111054E+01  0.21942163867E+02  0.24826457120E+02  0.51100000000E-03 0. -1.
        -11    1    3    3    0    0 -0.79882253777E+01  0.19405070035E+02  0.83767848804E+01  0.22595110377E+02  0.51100000000E-03 0.  1.
         12    1    3    3    0    0 -0.55273660693E+01 -0.10515039960E+02 -0.16007369395E+00  0.11880381501E+02  0.00000000000E+00 0. -1.
</event>
<event>
 7    1  0.6180395E-013  0.5930194E+02  0.7816164E-02  0.1266605E+00
        -11   -1    0    0    0    0  0.00000000000E+00  0.00000000000E+00  0.45593999997E+02  0.45594000000E+02  0.51100000000E-03 0.  1.
         11   -1    0    0    0    0 -0.00000000000E+00 -0.00000000000E+00 -0.45593999997E+02  0.45594000000E+02  0.51100000000E-03 0. -1.
    9900012    2    1    2    0    0 -0.27862435346E+02  0.81575625733E+01 -0.13185581184E+02  0.59301942205E+02  0.49999996676E+02 0.  0.
        -12    1    1    2    0    0  0.27862435346E+02 -0.81575625733E+01  0.13185581184E+02  0.31886057795E+02  0.00000000000E+00 0.  1.
         11    1    3    3    0    0 -0.13525836449E+02  0.19015915819E+02 -0.10543866365E+02  0.25607155723E+02  0.51100000000E-03 0. -1.
        -11    1    3    3    0    0 -0.20590026061E+02 -0.11793684660E+02 -0.83714526035E+01  0.25161903545E+02  0.51100000000E-03 0.  1.
        -12    1    3    3    0    0  0.62534271632E+01  0.93533141504E+00  0.57297377842E+01  0.85328829370E+01  0.00000000000E+00 0.  1.
</event>
<event>
 7    1  0.6180395E-013  0.5930197E+02  0.7816164E-02  0.1266605E+00
        -11   -1    0    0    0    0  0.00000000000E+00  0.00000000000E+00  0.45593999997E+02  0.45594000000E+02  0.51100000000E-03 0. -1.
         11   -1    0    0    0    0 -0.00000000000E+00 -0.00000000000E+00 -0.45593999997E+02  0.45594000000E+02  0.51100000000E-03 0.  1.
    9900012    2    1    2    0    0  0.19195924455E+02  0.94322023714E+01  0.23648871002E+02  0.59301967683E+02  0.50000043142E+02 0.  0.
        -12    1    1    2    0    0 -0.19195924455E+02 -0.94322023714E+01 -0.23648871002E+02  0.31886032317E+02  0.00000000000E+00 0.  1.
         11    1    3    3    0    0  0.21206356124E+01  0.77713341206E+01 -0.91035001701E+01  0.12155839955E+02  0.51100000000E-03 0.  1.
        -11    1    3    3    0    0 -0.22522158910E+01 -0.85766949507E+01  0.19879534897E+02  0.21767592441E+02  0.51100000000E-03 0. -1.
         12    1    3    3    0    0  0.19327504734E+02  0.10237563202E+02  0.12872836275E+02  0.25378535287E+02  0.00000000000E+00 0. -1.
</event>
<event>
 7    1  0.6180395E-013  0.5930195E+02  0.7816164E-02  0.1266605E+00
        -11   -1    0    0    0    0  0.00000000000E+00  0.00000000000E+00  0.45593999997E+02  0.45594000000E+02  0.51100000000E-03 0. -1.
         11   -1    0    0    0    0 -0.00000000000E+00 -0.00000000000E+00 -0.45593999997E+02  0.45594000000E+02  0.51100000000E-03 0.  1.
    9900012    2    1    2    0    0  0.25321436891E+02 -0.79636456454E+01  0.17667075351E+02  0.59301947099E+02  0.50000005601E+02 0.  0.
        -12    1    1    2    0    0 -0.25321436891E+02  0.79636456454E+01 -0.17667075351E+02  0.31886052901E+02  0.00000000000E+00 0.  1.
         11    1    3    3    0    0  0.37278165489E+02 -0.12758801930E+02  0.10875804496E+02  0.40874585901E+02  0.51100000000E-03 0. -1.
        -11    1    3    3    0    0 -0.51164345684E+00  0.42232820582E+01 -0.12431093756E+01  0.44320662845E+01  0.51100000000E-03 0.  1.
         12    1    3    3    0    0 -0.11445085141E+02  0.57187422682E+00  0.80343802306E+01  0.13995294913E+02  0.00000000000E+00 0. -1.
</event>
<event>
 7    1  0.6180395E-013  0.5930196E+02  0.7816164E-02  0.1266605E+00
        -11   -1    0    0    0    0  0.00000000000E+00  0.00000000000E+00  0.45593999997E+02  0.45594000000E+02  0.51100000000E-03 0. -1.
         11   -1    0    0    0    0 -0.00000000000E+00 -0.00000000000E+00 -0.45593999997E+02  0.45594000000E+02  0.51100000000E-03 0.  1.
    9900012    2    1    2    0    0 -0.10747399041E+02 -0.27425394480E+02  0.12209030877E+02  0.59301964130E+02  0.50000036662E+02 0.  0.
        -12    1    1    2    0    0  0.10747399041E+02  0.27425394480E+02 -0.12209030877E+02  0.31886035870E+02  0.00000000000E+00 0.  1.
         11    1    3    3    0    0 -0.83685898161E+01 -0.41439293314E+02  0.93034420552E+01  0.43287438828E+02  0.51100000000E-03 0. -1.
        -11    1    3    3    0    0 -0.23404870346E+01  0.10513628680E+02  0.50640643849E+01  0.11902059315E+02  0.51100000000E-03 0.  1.
         12    1    3    3    0    0 -0.38322190270E-01  0.35002701545E+01 -0.21584755633E+01  0.41124659880E+01  0.00000000000E+00 0. -1.
</event>
<event>
 7    1  0.6180395E-013  0.5930198E+02  0.7816164E-02  0.1266605E+00
        -11   -1    0    0    0    0  0.00000000000E+00  0.00000000000E+00  0.45593999997E+02  0.45594000000E+02  0.51100000000E-03 0.  1.
         11   -1    0    0    0    0 -0.00000000000E+00 -0.00000000000E+00 -0.45593999997E+02  0.45594000000E+02  0.51100000000E-03 0. -1.
    9900012    2    1    2    0    0 -0.24476556145E+02  0.15639677962E+02 -0.13153596534E+02  0.59301977526E+02  0.50000061092E+02 0.  0.
        -12    1    1    2    0    0  0.24476556145E+02 -0.15639677962E+02  0.13153596534E+02  0.31886022474E+02  0.00000000000E+00 0.  1.
         11    1    3    3    0    0 -0.18358438926E+02  0.67511897473E+01 -0.24492488926E+02  0.31344742093E+02  0.51100000000E-03 0. -1.
        -11    1    3    3    0    0 -0.57712107238E+01 -0.29439475274E+01  0.14348298990E+02  0.15743169453E+02  0.51100000000E-03 0.  1.
         12    1    3    3    0    0 -0.34690649518E+00  0.11832435742E+02 -0.30094065973E+01  0.12214065980E+02  0.00000000000E+00 0. -1.
</event>
<event>
 7    1  0.6180395E-013  0.5930196E+02  0.7816164E-02  0.1266605E+00
        -11   -1    0    0    0    0  0.00000000000E+00  0.00000000000E+00  0.45593999997E+02  0.45594000000E+02  0.51100000000E-03 0. -1.
         11   -1    0    0    0    0 -0.00000000000E+00 -0.00000000000E+00 -0.45593999997E+02  0.45594000000E+02  0.51100000000E-03 0.  1.
    9900012    2    1    2    0    0  0.15526422356E+02 -0.14488292983E+02  0.23785267414E+02  0.59301962762E+02  0.50000034167E+02 0.  0.
        -12    1    1    2    0    0 -0.15526422356E+02  0.14488292983E+02 -0.23785267414E+02  0.31886037238E+02  0.00000000000E+00 0.  1.
         11    1    3    3    0    0  0.75498902618E-01 -0.23494454439E+02  0.24327062381E+02  0.33820127939E+02  0.51100000000E-03 0. -1.
        -11    1    3    3    0    0  0.33528804628E+01  0.32896543361E+01 -0.86451192031E+01  0.98387864773E+01  0.51100000000E-03 0.  1.
         12    1    3    3    0    0  0.12098042991E+02  0.57165071201E+01  0.81033242362E+01  0.15643048346E+02  0.00000000000E+00 0. -1.
</event>
<event>
 7    1  0.6180395E-013  0.5930198E+02  0.7816164E-02  0.1266605E+00
        -11   -1    0    0    0    0  0.00000000000E+00  0.00000000000E+00  0.45593999997E+02  0.45594000000E+02  0.51100000000E-03 0.  1.
         11   -1    0    0    0    0 -0.00000000000E+00 -0.00000000000E+00 -0.45593999997E+02  0.45594000000E+02  0.51100000000E-03 0. -1.
    9900012    2    1    2    0    0 -0.11822906051E+02 -0.18003829987E+02 -0.23511684988E+02  0.59301979040E+02  0.50000063853E+02 0.  0.
        -12    1    1    2    0    0  0.11822906051E+02  0.18003829987E+02  0.23511684988E+02  0.31886020960E+02  0.00000000000E+00 0.  1.
         11    1    3    3    0    0 -0.58188322424E+01 -0.25432778839E+02 -0.79081489629E+00  0.26101924002E+02  0.51100000000E-03 0. -1.
        -11    1    3    3    0    0 -0.10065455440E+02  0.38270661262E+01 -0.25070160146E+02  0.27285028099E+02  0.51100000000E-03 0.  1.
         12    1    3    3    0    0  0.40613816309E+01  0.36018827259E+01  0.23492900544E+01  0.59150269384E+01  0.00000000000E+00 0. -1.
</event>
<event>
 7    1  0.6180395E-013  0.5930196E+02  0.7816164E-02  0.1266605E+00
        -11   -1    0    0    0    0  0.00000000000E+00  0.00000000000E+00  0.45593999997E+02  0.45594000000E+02  0.51100000000E-03 0.  1.
         11   -1    0    0    0    0 -0.00000000000E+00 -0.00000000000E+00 -0.45593999997E+02  0.45594000000E+02  0.51100000000E-03 0. -1.
    9900012    2    1    2    0    0  0.97411931702E+01  0.11210495787E+02 -0.28216197506E+02  0.59301955061E+02  0.50000020122E+02 0.  0.
        -12    1    1    2    0    0 -0.97411931702E+01 -0.11210495787E+02  0.28216197506E+02  0.31886044939E+02  0.00000000000E+00 0.  1.
         11    1    3    3    0    0 -0.93886595245E+01  0.11413485666E+02 -0.26598222463E+02  0.30428276671E+02  0.51100000000E-03 0. -1.
        -11    1    3    3    0    0  0.23681167144E+02 -0.22934220814E+01 -0.85372290675E+00  0.23807274208E+02  0.51100000000E-03 0.  1.
        -12    1    3    3    0    0 -0.45513144494E+01  0.20904322025E+01 -0.76425213599E+00  0.50664041822E+01  0.00000000000E+00 0.  1.
</event>
<event>
 7    1  0.6180395E-013  0.5930196E+02  0.7816164E-02  0.1266605E+00
        -11   -1    0    0    0    0  0.00000000000E+00  0.00000000000E+00  0.45593999997E+02  0.45594000000E+02  0.51100000000E-03 0.  1.
         11   -1    0    0    0    0 -0.00000000000E+00 -0.00000000000E+00 -0.45593999997E+02  0.45594000000E+02  0.51100000000E-03 0. -1.
    9900012    2    1    2    0    0 -0.34344487792E+01 -0.26987720308E+02 -0.16630916266E+02  0.59301955063E+02  0.50000020126E+02 0.  0.
        -12    1    1    2    0    0  0.34344487792E+01  0.26987720308E+02  0.16630916266E+02  0.31886044937E+02  0.00000000000E+00 0.  1.
         11    1    3    3    0    0  0.14893274585E+01 -0.12671901035E+02  0.69761627268E+01  0.14541733692E+02  0.51100000000E-03 0. -1.
        -11    1    3    3    0    0  0.78705512160E+01  0.48482168858E+01 -0.19186940607E+02  0.21297640093E+02  0.51100000000E-03 0.  1.
         12    1    3    3    0    0 -0.12794327454E+02 -0.19164036159E+02 -0.44201383858E+01  0.23462581279E+02  0.00000000000E+00 0. -1.
</event>
<event>
 7    1  0.6180395E-013  0.5930193E+02  0.7816164E-02  0.1266605E+00
        -11   -1    0    0    0    0  0.00000000000E+00  0.00000000000E+00  0.45593999997E+02  0.45594000000E+02  0.51100000000E-03 0. -1.
         11   -1    0    0    0    0 -0.00000000000E+00 -0.00000000000E+00 -0.45593999997E+02  0.45594000000E+02  0.51100000000E-03 0.  1.
    9900012    2    1    2    0    0 -0.18747303013E+01  0.15043567378E+02  0.28051703804E+02  0.59301927501E+02  0.49999969859E+02 0.  0.
        -12    1    1    2    0    0  0.18747303013E+01 -0.15043567378E+02 -0.28051703804E+02  0.31886072499E+02  0.00000000000E+00 0.  1.
         11    1    3    3    0    0  0.48013927442E+00  0.29897757745E+02  0.13933749732E+02  0.32988722827E+02  0.51100000000E-03 0.  1.
        -11    1    3    3    0    0 -0.55186392214E+01 -0.68144444108E+01 -0.10759745677E+01  0.88345771271E+01  0.51100000000E-03 0. -1.
         12    1    3    3    0    0  0.31637696456E+01 -0.80397459566E+01  0.15193928639E+02  0.17478627546E+02  0.00000000000E+00 0. -1.
</event>
<event>
 7    1  0.6180395E-013  0.5930191E+02  0.7816164E-02  0.1266605E+00
        -11   -1    0    0    0    0  0.00000000000E+00  0.00000000000E+00  0.45593999997E+02  0.45594000000E+02  0.51100000000E-03 0. -1.
         11   -1    0    0    0    0 -0.00000000000E+00 -0.00000000000E+00 -0.45593999997E+02  0.45594000000E+02  0.51100000000E-03 0.  1.
    9900012    2    1    2    0    0 -0.31027277789E+02 -0.63641924235E+01  0.36779809739E+01  0.59301914379E+02  0.49999945928E+02 0.  0.
        -12    1    1    2    0    0  0.31027277789E+02  0.63641924235E+01 -0.36779809739E+01  0.31886085621E+02  0.00000000000E+00 0.  1.
         11    1    3    3    0    0  0.64717892813E+01  0.33432468564E-01  0.53188630417E+01  0.83770805504E+01  0.51100000000E-03 0.  1.
        -11    1    3    3    0    0 -0.36943314186E+02 -0.71906855553E+01  0.10239825953E+02  0.39004723529E+02  0.51100000000E-03 0. -1.
        -12    1    3    3    0    0 -0.55575288437E+00  0.79306066331E+00 -0.11880708020E+02  0.11920110299E+02  0.00000000000E+00 0.  1.
</event>
<event>
 7    1  0.6180395E-013  0.5930194E+02  0.7816164E-02  0.1266605E+00
        -11   -1    0    0    0    0  0.00000000000E+00  0.00000000000E+00  0.45593999997E+02  0.45594000000E+02  0.51100000000E-03 0. -1.
         11   -1    0    0    0    0 -0.00000000000E+00 -0.00000000000E+00 -0.45593999997E+02  0.45594000000E+02  0.51100000000E-03 0.  1.
    9900012    2    1    2    0    0 -0.30085203567E+02 -0.10267269822E+02  0.24868801909E+01  0.59301939152E+02  0.49999991109E+02 0.  0.
        -12    1    1    2    0    0  0.30085203567E+02  0.10267269822E+02 -0.24868801909E+01  0.31886060848E+02  0.00000000000E+00 0.  1.
         11    1    3    3    0    0 -0.11050350895E+01 -0.20442000146E+02  0.11039561097E+02  0.23258727008E+02  0.51100000000E-03 0. -1.
        -11    1    3    3    0    0 -0.15467906232E+02 -0.13632258666E+01 -0.95802260975E+01  0.18245416967E+02  0.51100000000E-03 0.  1.
         12    1    3    3    0    0 -0.13512262246E+02  0.11537956191E+02  0.10275451910E+01  0.17797795178E+02  0.00000000000E+00 0. -1.
</event>
<event>
 7    1  0.6180395E-013  0.5930192E+02  0.7816164E-02  0.1266605E+00
        -11   -1    0    0    0    0  0.00000000000E+00  0.00000000000E+00  0.45593999997E+02  0.45594000000E+02  0.51100000000E-03 0.  1.
         11   -1    0    0    0    0 -0.00000000000E+00 -0.00000000000E+00 -0.45593999997E+02  0.45594000000E+02  0.51100000000E-03 0. -1.
    9900012    2    1    2    0    0  0.28398461125E+02  0.77156812220E+00 -0.14479431245E+02  0.59301924029E+02  0.49999963526E+02 0.  0.
        -12    1    1    2    0    0 -0.28398461125E+02 -0.77156812220E+00  0.14479431245E+02  0.31886075971E+02  0.00000000000E+00 0.  1.
         11    1    3    3    0    0  0.98648356972E+01 -0.43749542635E+01  0.22855725230E+01  0.11030822733E+02  0.51100000000E-03 0. -1.
        -11    1    3    3    0    0 -0.12544256026E+02 -0.26649706121E+01 -0.19650351956E+01  0.12973888823E+02  0.51100000000E-03 0.  1.
        -12    1    3    3    0    0  0.31077881455E+02  0.78114929978E+01 -0.14799968573E+02  0.35297212472E+02  0.00000000000E+00 0.  1.
</event>
<event>
 7    1  0.6180395E-013  0.5930193E+02  0.7816164E-02  0.1266605E+00
        -11   -1    0    0    0    0  0.00000000000E+00  0.00000000000E+00  0.45593999997E+02  0.45594000000E+02  0.51100000000E-03 0.  1.
         11   -1    0    0    0    0 -0.00000000000E+00 -0.00000000000E+00 -0.45593999997E+02  0.45594000000E+02  0.51100000000E-03 0. -1.
    9900012    2    1    2    0    0  0.99170277690E+01  0.71474284898E+01 -0.29449758128E+02  0.59301930509E+02  0.49999975345E+02 0.  0.
        -12    1    1    2    0    0 -0.99170277690E+01 -0.71474284898E+01  0.29449758128E+02  0.31886069491E+02  0.00000000000E+00 0.  1.
         11    1    3    3    0    0  0.16412039827E+02  0.14376367351E+02 -0.33193608710E+02  0.39722168231E+02  0.51100000000E-03 0. -1.
        -11    1    3    3    0    0 -0.81807731636E+01 -0.14937052852E+01  0.85367571909E+01  0.11917735885E+02  0.51100000000E-03 0.  1.
         12    1    3    3    0    0  0.16857611056E+01 -0.57352335763E+01 -0.47929066087E+01  0.76620263925E+01  0.00000000000E+00 0. -1.
</event>
<event>
 7    1  0.6180395E-013  0.5930194E+02  0.7816164E-02  0.1266605E+00
        -11   -1    0    0    0    0  0.00000000000E+00  0.00000000000E+00  0.45593999997E+02  0.45594000000E+02  0.51100000000E-03 0. -1.
         11   -1    0    0    0    0 -0.00000000000E+00 -0.00000000000E+00 -0.45593999997E+02  0.45594000000E+02  0.51100000000E-03 0.  1.
    9900012    2    1    2    0    0 -0.18536987720E+02  0.43119791895E+01  0.25583351966E+02  0.59301937589E+02  0.49999988258E+02 0.  0.
        -12    1    1    2    0    0  0.18536987720E+02 -0.43119791895E+01 -0.25583351966E+02  0.31886062411E+02  0.00000000000E+00 0.  1.
         11    1    3    3    0    0 -0.24170418804E+02  0.93905145122E+01  0.33772567400E+01  0.26149508051E+02  0.51100000000E-03 0. -1.
        -11    1    3    3    0    0 -0.36699094956E+01 -0.12263141067E+02  0.10404525951E+02  0.16495666857E+02  0.51100000000E-03 0.  1.
         12    1    3    3    0    0  0.93033405797E+01  0.71846057445E+01  0.11801569275E+02  0.16656762680E+02  0.00000000000E+00 0. -1.
</event>
<event>
 7    1  0.6180395E-013  0.5930195E+02  0.7816164E-02  0.1266605E+00
        -11   -1    0    0    0    0  0.00000000000E+00  0.00000000000E+00  0.45593999997E+02  0.45594000000E+02  0.51100000000E-03 0. -1.
         11   -1    0    0    0    0 -0.00000000000E+00 -0.00000000000E+00 -0.45593999997E+02  0.45594000000E+02  0.51100000000E-03 0.  1.
    9900012    2    1    2    0    0  0.27619906890E+02  0.15849706198E+02  0.16271266175E+01  0.59301953143E+02  0.50000016624E+02 0.  0.
        -12    1    1    2    0    0 -0.27619906890E+02 -0.15849706198E+02 -0.16271266175E+01  0.31886046857E+02  0.00000000000E+00 0.  1.
         11    1    3    3    0    0  0.29183431297E+01  0.50921869160E+01  0.83877443128E+01  0.10237253007E+02  0.51100000000E-03 0. -1.
        -11    1    3    3    0    0  0.11526616602E+01  0.21384964447E+02 -0.87889272700E+01  0.23149310489E+02  0.51100000000E-03 0.  1.
        -12    1    3    3    0    0  0.23548902100E+02 -0.10627445165E+02  0.20283095748E+01  0.25915389647E+02  0.00000000000E+00 0.  1.
</event>
<event>
 7    1  0.6180395E-013  0.5930193E+02  0.7816164E-02  0.1266605E+00
        -11   -1    0    0    0    0  0.00000000000E+00  0.00000000000E+00  0.45593999997E+02  0.45594000000E+02  0.51100000000E-03 0.  1.
         11   -1    0    0    0    0 -0.00000000000E+00 -0.00000000000E+00 -0.45593999997E+02  0.45594000000E+02  0.51100000000E-03 0. -1.
    9900012    2    1    2    0    0  0.21200054216E+02 -0.15158371333E+02  0.18371250821E+02  0.59301931303E+02  0.49999976792E+02 0.  0.
        -12    1    1    2    0    0 -0.21200054216E+02  0.15158371333E+02 -0.18371250821E+02  0.31886068697E+02  0.00000000000E+00 0.  1.
         11    1    3    3    0    0  0.17975338646E+02  0.20042662469E+01  0.38542961691E+01  0.18492849479E+02  0.51100000000E-03 0. -1.
        -11    1    3    3    0    0 -0.14593272429E+02 -0.66897787303E+01  0.94081906142E+00  0.16081103209E+02  0.51100000000E-03 0.  1.
        -12    1    3    3    0    0  0.17817987998E+02 -0.10472858850E+02  0.13576135591E+02  0.24727978615E+02  0.00000000000E+00 0.  1.
</event>
<event>
 7    1  0.6180395E-013  0.5930194E+02  0.7816164E-02  0.1266605E+00
        -11   -1    0    0    0    0  0.00000000000E+00  0.00000000000E+00  0.45593999997E+02  0.45594000000E+02  0.51100000000E-03 0. -1.
         11   -1    0    0    0    0 -0.00000000000E+00 -0.00000000000E+00 -0.45593999997E+02  0.45594000000E+02  0.51100000000E-03 0.  1.
    9900012    2    1    2    0    0 -0.23994329762E+01  0.29184125478E+02  0.12619446993E+02  0.59301938767E+02  0.49999990406E+02 0.  0.
        -12    1    1    2    0    0  0.23994329762E+01 -0.29184125478E+02 -0.12619446993E+02  0.31886061233E+02  0.00000000000E+00 0.  1.
         11    1    3    3    0    0  0.14673632516E+02  0.30389826038E+02  0.15499751685E+02  0.37136226523E+02  0.51100000000E-03 0. -1.
        -11    1    3    3    0    0 -0.11144894676E+02  0.57251134815E+01 -0.35450325484E+01  0.13021246397E+02  0.51100000000E-03 0.  1.
         12    1    3    3    0    0 -0.59281708168E+01 -0.69308140408E+01  0.66472785642E+00  0.91444658468E+01  0.00000000000E+00 0. -1.
</event>
<event>
 7    1  0.6180395E-013  0.5930194E+02  0.7816164E-02  0.1266605E+00
        -11   -1    0    0    0    0  0.00000000000E+00  0.00000000000E+00  0.45593999997E+02  0.45594000000E+02  0.51100000000E-03 0. -1.
         11   -1    0    0    0    0 -0.00000000000E+00 -0.00000000000E+00 -0.45593999997E+02  0.45594000000E+02  0.51100000000E-03 0.  1.
    9900012    2    1    2    0    0  0.74967426221E+01  0.27879940807E+02  0.13536205136E+02  0.59301935664E+02  0.49999984747E+02 0.  0.
        -12    1    1    2    0    0 -0.74967426221E+01 -0.27879940807E+02 -0.13536205136E+02  0.31886064336E+02  0.00000000000E+00 0.  1.
         11    1    3    3    0    0  0.23588116907E+01  0.14498714339E+02  0.31468789487E+02  0.34728395041E+02  0.51100000000E-03 0. -1.
        -11    1    3    3    0    0 -0.11983738191E+01  0.88230068599E+01 -0.10828486811E+02  0.14019189589E+02  0.51100000000E-03 0.  1.
         12    1    3    3    0    0  0.63363047505E+01  0.45582196080E+01 -0.71040975403E+01  0.10554351034E+02  0.00000000000E+00 0. -1.
</event>
<event>
 7    1  0.6180395E-013  0.5930191E+02  0.7816164E-02  0.1266605E+00
        -11   -1    0    0    0    0  0.00000000000E+00  0.00000000000E+00  0.45593999997E+02  0.45594000000E+02  0.51100000000E-03 0.  1.
         11   -1    0    0    0    0 -0.00000000000E+00 -0.00000000000E+00 -0.45593999997E+02  0.45594000000E+02  0.51100000000E-03 0. -1.
    9900012    2    1    2    0    0 -0.23320101601E+02  0.24015919618E+01 -0.21613140675E+02  0.59301911615E+02  0.49999940887E+02 0.  0.
        -12    1    1    2    0    0  0.23320101601E+02 -0.24015919618E+01  0.21613140675E+02  0.31886088385E+02  0.00000000000E+00 0.  1.
         11    1    3    3    0    0 -0.16053089690E+02 -0.11722979513E+02 -0.14872605749E+02  0.24825880433E+02  0.51100000000E-03 0. -1.
        -11    1    3    3    0    0 -0.79273793944E+01  0.68935462877E+01  0.11058414024E+02  0.15252961859E+02  0.51100000000E-03 0.  1.
         12    1    3    3    0    0  0.66036748335E+00  0.72310251869E+01 -0.17798948950E+02  0.19223069323E+02  0.00000000000E+00 0. -1.
</event>
<event>
 7    1  0.6180395E-013  0.5930198E+02  0.7816164E-02  0.1266605E+00
        -11   -1    0    0    0    0  0.00000000000E+00  0.00000000000E+00  0.45593999997E+02  0.45594000000E+02  0.51100000000E-03 0. -1.
         11   -1    0    0    0    0 -0.00000000000E+00 -0.00000000000E+00 -0.45593999997E+02  0.45594000000E+02  0.51100000000E-03 0.  1.
    9900012    2    1    2    0    0  0.29703630050E+02  0.11464519552E+02  0.17255689063E+01  0.59301977439E+02  0.50000060934E+02 0.  0.
        -12    1    1    2    0    0 -0.29703630050E+02 -0.11464519552E+02 -0.17255689063E+01  0.31886022561E+02  0.00000000000E+00 0.  1.
         11    1    3    3    0    0  0.14338986050E+02 -0.14526783256E+02 -0.48787091947E+01  0.20986561329E+02  0.51100000000E-03 0.  1.
        -11    1    3    3    0    0  0.20732226714E+02  0.23927047214E+02  0.73914516215E+01  0.32510957695E+02  0.51100000000E-03 0. -1.
        -12    1    3    3    0    0 -0.53675827138E+01  0.20642555940E+01 -0.78717352056E+00  0.58044584156E+01  0.00000000000E+00 0.  1.
</event>
<event>
 7    1  0.6180395E-013  0.5930194E+02  0.7816164E-02  0.1266605E+00
        -11   -1    0    0    0    0  0.00000000000E+00  0.00000000000E+00  0.45593999997E+02  0.45594000000E+02  0.51100000000E-03 0.  1.
         11   -1    0    0    0    0 -0.00000000000E+00 -0.00000000000E+00 -0.45593999997E+02  0.45594000000E+02  0.51100000000E-03 0. -1.
    9900012    2    1    2    0    0  0.14628423154E+02  0.43959678617E+01 -0.27989384653E+02  0.59301937987E+02  0.49999988984E+02 0.  0.
        -12    1    1    2    0    0 -0.14628423154E+02 -0.43959678617E+01  0.27989384653E+02  0.31886062013E+02  0.00000000000E+00 0.  1.
         11    1    3    3    0    0  0.11203636012E+02 -0.32446540406E+01 -0.68400898302E+01  0.13521688832E+02  0.51100000000E-03 0. -1.
        -11    1    3    3    0    0 -0.82696173812E+01  0.15028874424E+02 -0.25976604371E+02  0.31129368978E+02  0.51100000000E-03 0.  1.
        -12    1    3    3    0    0  0.11694404524E+02 -0.73882525215E+01  0.48273095480E+01  0.14650880177E+02  0.00000000000E+00 0.  1.
</event>
<event>
 7    1  0.6180395E-013  0.5930195E+02  0.7816164E-02  0.1266605E+00
        -11   -1    0    0    0    0  0.00000000000E+00  0.00000000000E+00  0.45593999997E+02  0.45594000000E+02  0.51100000000E-03 0.  1.
         11   -1    0    0    0    0 -0.00000000000E+00 -0.00000000000E+00 -0.45593999997E+02  0.45594000000E+02  0.51100000000E-03 0. -1.
    9900012    2    1    2    0    0 -0.84817413438E+01  0.11732075431E+02 -0.28410186096E+02  0.59301949694E+02  0.50000010333E+02 0.  0.
        -12    1    1    2    0    0  0.84817413438E+01 -0.11732075431E+02  0.28410186096E+02  0.31886050306E+02  0.00000000000E+00 0.  1.
         11    1    3    3    0    0  0.39783738052E+01  0.16245567092E+02 -0.29888152947E+02  0.34249782409E+02  0.51100000000E-03 0. -1.
        -11    1    3    3    0    0  0.40831721613E+01 -0.26734283578E+01  0.60664832733E+01  0.77859959960E+01  0.51100000000E-03 0.  1.
        -12    1    3    3    0    0 -0.16543287310E+02 -0.18400633029E+01 -0.45885164224E+01  0.17266171288E+02  0.00000000000E+00 0.  1.
</event>
<event>
 7    1  0.6180395E-013  0.5930191E+02  0.7816164E-02  0.1266605E+00
        -11   -1    0    0    0    0  0.00000000000E+00  0.00000000000E+00  0.45593999997E+02  0.45594000000E+02  0.51100000000E-03 0. -1.
         11   -1    0    0    0    0 -0.00000000000E+00 -0.00000000000E+00 -0.45593999997E+02  0.45594000000E+02  0.51100000000E-03 0.  1.
    9900012    2    1    2    0    0 -0.29140975273E+02 -0.12706822988E+02  0.24623558925E+01  0.59301906058E+02  0.49999930753E+02 0.  0.
        -12    1    1    2    0    0  0.29140975273E+02  0.12706822988E+02 -0.24623558925E+01  0.31886093942E+02  0.00000000000E+00 0.  1.
         11    1    3    3    0    0 -0.35248010327E+02 -0.18243337186E+02 -0.24243257462E+01  0.39763286324E+02  0.51100000000E-03 0. -1.
        -11    1    3    3    0    0  0.59777054787E+01  0.11347804752E+02  0.17833892044E+01  0.12949367274E+02  0.51100000000E-03 0.  1.
        -12    1    3    3    0    0  0.12932957531E+00 -0.58112905545E+01  0.31032924342E+01  0.65892524599E+01  0.00000000000E+00 0.  1.
</event>
<event>
 7    1  0.6180395E-013  0.5930194E+02  0.7816164E-02  0.1266605E+00
        -11   -1    0    0    0    0  0.00000000000E+00  0.00000000000E+00  0.45593999997E+02  0.45594000000E+02  0.51100000000E-03 0.  1.
         11   -1    0    0    0    0 -0.00000000000E+00 -0.00000000000E+00 -0.45593999997E+02  0.45594000000E+02  0.51100000000E-03 0. -1.
    9900012    2    1    2    0    0 -0.61507204806E+00 -0.26527124004E+02 -0.17682029246E+02  0.59301940667E+02  0.49999993870E+02 0.  0.
        -12    1    1    2    0    0  0.61507204806E+00  0.26527124004E+02  0.17682029246E+02  0.31886059333E+02  0.00000000000E+00 0.  1.
         11    1    3    3    0    0  0.25733486638E+01 -0.30573790372E+02 -0.22777767471E+02  0.38212634982E+02  0.51100000000E-03 0. -1.
        -11    1    3    3    0    0 -0.55509090713E+01  0.91408640405E+00  0.11940704654E+02  0.13199567166E+02  0.51100000000E-03 0.  1.
        -12    1    3    3    0    0  0.23624883595E+01  0.31325799641E+01 -0.68449664286E+01  0.78897385184E+01  0.00000000000E+00 0.  1.
</event>
<event>
 7    1  0.6180395E-013  0.5930197E+02  0.7816164E-02  0.1266605E+00
        -11   -1    0    0    0    0  0.00000000000E+00  0.00000000000E+00  0.45593999997E+02  0.45594000000E+02  0.51100000000E-03 0.  1.
         11   -1    0    0    0    0 -0.00000000000E+00 -0.00000000000E+00 -0.45593999997E+02  0.45594000000E+02  0.51100000000E-03 0. -1.
    9900012    2    1    2    0    0 -0.97006928554E+01  0.10964494476E+01 -0.30354790953E+02  0.59301968935E+02  0.50000045425E+02 0.  0.
        -12    1    1    2    0    0  0.97006928554E+01 -0.10964494476E+01  0.30354790953E+02  0.31886031065E+02  0.00000000000E+00 0.  1.
         11    1    3    3    0    0 -0.11989669944E+02  0.70698985807E+01 -0.35681688980E+02  0.38300373106E+02  0.51100000000E-03 0. -1.
        -11    1    3    3    0    0  0.15566586198E+01  0.33776335657E+01  0.98933990661E+01  0.10569339615E+02  0.51100000000E-03 0.  1.
        -12    1    3    3    0    0  0.73231846850E+00 -0.93510826988E+01 -0.45665010391E+01  0.10432256214E+02  0.00000000000E+00 0.  1.
</event>
<event>
 7    1  0.6180395E-013  0.5930197E+02  0.7816164E-02  0.1266605E+00
        -11   -1    0    0    0    0  0.00000000000E+00  0.00000000000E+00  0.45593999997E+02  0.45594000000E+02  0.51100000000E-03 0.  1.
         11   -1    0    0    0    0 -0.00000000000E+00 -0.00000000000E+00 -0.45593999997E+02  0.45594000000E+02  0.51100000000E-03 0. -1.
    9900012    2    1    2    0    0 -0.65615204284E+01 -0.18269042065E+02 -0.25296387894E+02  0.59301973455E+02  0.50000053669E+02 0.  0.
        -12    1    1    2    0    0  0.65615204284E+01  0.18269042065E+02  0.25296387894E+02  0.31886026545E+02  0.00000000000E+00 0.  1.
         11    1    3    3    0    0  0.18905539857E+02 -0.31883562091E+01 -0.95443673861E+01  0.21416815862E+02  0.51100000000E-03 0. -1.
        -11    1    3    3    0    0 -0.20235974190E+02 -0.80897230840E+01 -0.18651618551E+02  0.28684859174E+02  0.51100000000E-03 0.  1.
        -12    1    3    3    0    0 -0.52310860952E+01 -0.69909627719E+01  0.28995980426E+01  0.92002984203E+01  0.00000000000E+00 0.  1.
</event>
<event>
 7    1  0.6180395E-013  0.5930201E+02  0.7816164E-02  0.1266605E+00
        -11   -1    0    0    0    0  0.00000000000E+00  0.00000000000E+00  0.45593999997E+02  0.45594000000E+02  0.51100000000E-03 0.  1.
         11   -1    0    0    0    0 -0.00000000000E+00 -0.00000000000E+00 -0.45593999997E+02  0.45594000000E+02  0.51100000000E-03 0. -1.
    9900012    2    1    2    0    0  0.30530690645E+02 -0.18203825978E+00  0.91956526993E+01  0.59302011890E+02  0.50000123764E+02 0.  0.
        -12    1    1    2    0    0 -0.30530690645E+02  0.18203825978E+00 -0.91956526993E+01  0.31885988110E+02  0.00000000000E+00 0.  1.
         11    1    3    3    0    0  0.25781872690E+02  0.20738967374E+01 -0.10969302401E+02  0.28095045871E+02  0.51100000000E-03 0. -1.
        -11    1    3    3    0    0  0.10933985303E+02 -0.85819883987E+01  0.16644208801E+02  0.21684839090E+02  0.51100000000E-03 0.  1.
        -12    1    3    3    0    0 -0.61851673475E+01  0.63260534015E+01  0.35207462987E+01  0.95221269291E+01  0.00000000000E+00 0.  1.
</event>
<event>
 7    1  0.6180395E-013  0.5930194E+02  0.7816164E-02  0.1266605E+00
        -11   -1    0    0    0    0  0.00000000000E+00  0.00000000000E+00  0.45593999997E+02  0.45594000000E+02  0.51100000000E-03 0. -1.
         11   -1    0    0    0    0 -0.00000000000E+00 -0.00000000000E+00 -0.45593999997E+02  0.45594000000E+02  0.51100000000E-03 0.  1.
    9900012    2    1    2    0    0  0.45560782604E+01 -0.18239998966E+02  0.25753934326E+02  0.59301944354E+02  0.50000000595E+02 0.  0.
        -12    1    1    2    0    0 -0.45560782604E+01  0.18239998966E+02 -0.25753934326E+02  0.31886055646E+02  0.00000000000E+00 0.  1.
         11    1    3    3    0    0 -0.31079388107E+01 -0.23216515728E+02  0.32218511981E+02  0.39833382994E+02  0.51100000000E-03 0. -1.
        -11    1    3    3    0    0  0.60991967972E+01 -0.46722691263E+01  0.11779750492E+00  0.76840208792E+01  0.51100000000E-03 0.  1.
         12    1    3    3    0    0  0.15648202739E+01  0.96487858885E+01 -0.65823751599E+01  0.11784540481E+02  0.00000000000E+00 0. -1.
</event>
<event>
 7    1  0.6180395E-013  0.5930194E+02  0.7816164E-02  0.1266605E+00
        -11   -1    0    0    0    0  0.00000000000E+00  0.00000000000E+00  0.45593999997E+02  0.45594000000E+02  0.51100000000E-03 0. -1.
         11   -1    0    0    0    0 -0.00000000000E+00 -0.00000000000E+00 -0.45593999997E+02  0.45594000000E+02  0.51100000000E-03 0.  1.
    9900012    2    1    2    0    0  0.27673567622E+02 -0.15525672821E+02 -0.31381627439E+01  0.59301938360E+02  0.49999989664E+02 0.  0.
        -12    1    1    2    0    0 -0.27673567622E+02  0.15525672821E+02  0.31381627439E+01  0.31886061640E+02  0.00000000000E+00 0.  1.
         11    1    3    3    0    0  0.14804344917E+02  0.45275716219E+01  0.15328953885E+02  0.21786334265E+02  0.51100000000E-03 0. -1.
        -11    1    3    3    0    0  0.50861334066E+00 -0.60019170594E+01 -0.17797695934E+02  0.18789350088E+02  0.51100000000E-03 0.  1.
        -12    1    3    3    0    0  0.12360609364E+02 -0.14051327383E+02 -0.66942069437E+00  0.18726254007E+02  0.00000000000E+00 0.  1.
</event>
<event>
 7    1  0.6180395E-013  0.5930196E+02  0.7816164E-02  0.1266605E+00
        -11   -1    0    0    0    0  0.00000000000E+00  0.00000000000E+00  0.45593999997E+02  0.45594000000E+02  0.51100000000E-03 0. -1.
         11   -1    0    0    0    0 -0.00000000000E+00 -0.00000000000E+00 -0.45593999997E+02  0.45594000000E+02  0.51100000000E-03 0.  1.
    9900012    2    1    2    0    0 -0.78667678329E+01 -0.20820757928E+02  0.22832641333E+02  0.59301960624E+02  0.50000030268E+02 0.  0.
        -12    1    1    2    0    0  0.78667678329E+01  0.20820757928E+02 -0.22832641333E+02  0.31886039376E+02  0.00000000000E+00 0.  1.
         11    1    3    3    0    0 -0.22891029414E+01 -0.37447556609E+01  0.59842638045E+01  0.74212263662E+01  0.51100000000E-03 0. -1.
        -11    1    3    3    0    0  0.13789167099E+02  0.73775471971E+01 -0.14672093362E+01  0.15707387925E+02  0.51100000000E-03 0.  1.
        -12    1    3    3    0    0 -0.19366831990E+02 -0.24453549464E+02  0.18315586864E+02  0.36173346333E+02  0.00000000000E+00 0.  1.
</event>
<event>
 7    1  0.6180395E-013  0.5930193E+02  0.7816164E-02  0.1266605E+00
        -11   -1    0    0    0    0  0.00000000000E+00  0.00000000000E+00  0.45593999997E+02  0.45594000000E+02  0.51100000000E-03 0.  1.
         11   -1    0    0    0    0 -0.00000000000E+00 -0.00000000000E+00 -0.45593999997E+02  0.45594000000E+02  0.51100000000E-03 0. -1.
    9900012    2    1    2    0    0  0.26778809960E+02  0.14877645788E+02 -0.88471834922E+01  0.59301926821E+02  0.49999968618E+02 0.  0.
        -12    1    1    2    0    0 -0.26778809960E+02 -0.14877645788E+02  0.88471834922E+01  0.31886073179E+02  0.00000000000E+00 0.  1.
         11    1    3    3    0    0  0.19493999631E+02  0.10472872271E+02 -0.31013982311E+01  0.22345374163E+02  0.51100000000E-03 0. -1.
        -11    1    3    3    0    0 -0.70201564769E+00  0.45683534691E+01 -0.20048365338E+02  0.20574246824E+02  0.51100000000E-03 0.  1.
        -12    1    3    3    0    0  0.79868259766E+01 -0.16357995261E+00  0.14302580077E+02  0.16382305834E+02  0.00000000000E+00 0.  1.
</event>
<event>
 7    1  0.6180395E-013  0.5930195E+02  0.7816164E-02  0.1266605E+00
        -11   -1    0    0    0    0  0.00000000000E+00  0.00000000000E+00  0.45593999997E+02  0.45594000000E+02  0.51100000000E-03 0. -1.
         11   -1    0    0    0    0 -0.00000000000E+00 -0.00000000000E+00 -0.45593999997E+02  0.45594000000E+02  0.51100000000E-03 0.  1.
    9900012    2    1    2    0    0  0.24982318832E+02  0.17224278512E+02  0.97942978158E+01  0.59301948281E+02  0.50000007758E+02 0.  0.
        -12    1    1    2    0    0 -0.24982318832E+02 -0.17224278512E+02 -0.97942978158E+01  0.31886051719E+02  0.00000000000E+00 0.  1.
         11    1    3    3    0    0  0.13445515852E+02  0.28039723483E+02  0.93120470676E+01  0.32461087633E+02  0.51100000000E-03 0. -1.
        -11    1    3    3    0    0  0.83830349861E+01 -0.74467480501E+01 -0.10229125728E+02  0.15177758251E+02  0.51100000000E-03 0.  1.
        -12    1    3    3    0    0  0.31537679945E+01 -0.33686969205E+01  0.10711376476E+02  0.11663102397E+02  0.00000000000E+00 0.  1.
</event>
<event>
 7    1  0.6180395E-013  0.5930198E+02  0.7816164E-02  0.1266605E+00
        -11   -1    0    0    0    0  0.00000000000E+00  0.00000000000E+00  0.45593999997E+02  0.45594000000E+02  0.51100000000E-03 0. -1.
         11   -1    0    0    0    0 -0.00000000000E+00 -0.00000000000E+00 -0.45593999997E+02  0.45594000000E+02  0.51100000000E-03 0.  1.
    9900012    2    1    2    0    0  0.28184715215E+02 -0.14097681743E+02  0.48575377360E+01  0.59301976806E+02  0.50000059780E+02 0.  0.
        -12    1    1    2    0    0 -0.28184715215E+02  0.14097681743E+02 -0.48575377360E+01  0.31886023194E+02  0.00000000000E+00 0.  1.
         11    1    3    3    0    0  0.11574914214E+02  0.58103886521E+01  0.49572565055E+01  0.13867719628E+02  0.51100000000E-03 0. -1.
        -11    1    3    3    0    0  0.26273584556E+01 -0.15507102545E+02  0.16833356386E+02  0.23037689322E+02  0.51100000000E-03 0.  1.
        -12    1    3    3    0    0  0.13982442546E+02 -0.44009678493E+01 -0.16933075155E+02  0.22396567857E+02  0.00000000000E+00 0.  1.
</event>
<event>
 7    1  0.6180395E-013  0.5930195E+02  0.7816164E-02  0.1266605E+00
        -11   -1    0    0    0    0  0.00000000000E+00  0.00000000000E+00  0.45593999997E+02  0.45594000000E+02  0.51100000000E-03 0.  1.
         11   -1    0    0    0    0 -0.00000000000E+00 -0.00000000000E+00 -0.45593999997E+02  0.45594000000E+02  0.51100000000E-03 0. -1.
    9900012    2    1    2    0    0  0.27723874949E+02 -0.10406028755E+02  0.11824609387E+02  0.59301951895E+02  0.50000014347E+02 0.  0.
        -12    1    1    2    0    0 -0.27723874949E+02  0.10406028755E+02 -0.11824609387E+02  0.31886048105E+02  0.00000000000E+00 0.  1.
         11    1    3    3    0    0  0.74140679193E+01 -0.15815203075E+02 -0.17681855662E+01  0.17556068235E+02  0.51100000000E-03 0. -1.
        -11    1    3    3    0    0 -0.50490605594E+01  0.10329271691E+02  0.10781526615E+02  0.15761604697E+02  0.51100000000E-03 0.  1.
        -12    1    3    3    0    0  0.25358867589E+02 -0.49200973706E+01  0.28112683377E+01  0.25984278963E+02  0.00000000000E+00 0.  1.
</event>
<event>
 7    1  0.6180395E-013  0.5930196E+02  0.7816164E-02  0.1266605E+00
        -11   -1    0    0    0    0  0.00000000000E+00  0.00000000000E+00  0.45593999997E+02  0.45594000000E+02  0.51100000000E-03 0. -1.
         11   -1    0    0    0    0 -0.00000000000E+00 -0.00000000000E+00 -0.45593999997E+02  0.45594000000E+02  0.51100000000E-03 0.  1.
    9900012    2    1    2    0    0  0.27742473659E+01 -0.26695701077E+01  0.31652746564E+02  0.59301962020E+02  0.50000032814E+02 0.  0.
        -12    1    1    2    0    0 -0.27742473659E+01  0.26695701077E+01 -0.31652746564E+02  0.31886037980E+02  0.00000000000E+00 0.  1.
         11    1    3    3    0    0  0.12951690602E+02 -0.13091535921E+01  0.21793738006E+00  0.13019511110E+02  0.51100000000E-03 0. -1.
        -11    1    3    3    0    0 -0.21395995456E+02 -0.37316875657E+01  0.15639279627E+02  0.26763803562E+02  0.51100000000E-03 0.  1.
        -12    1    3    3    0    0  0.11218552219E+02  0.23712710501E+01  0.15795529557E+02  0.19518647348E+02  0.00000000000E+00 0.  1.
</event>
<event>
 7    1  0.6180395E-013  0.5930199E+02  0.7816164E-02  0.1266605E+00
        -11   -1    0    0    0    0  0.00000000000E+00  0.00000000000E+00  0.45593999997E+02  0.45594000000E+02  0.51100000000E-03 0.  1.
         11   -1    0    0    0    0 -0.00000000000E+00 -0.00000000000E+00 -0.45593999997E+02  0.45594000000E+02  0.51100000000E-03 0. -1.
    9900012    2    1    2    0    0 -0.25413924837E+02 -0.12607620431E+02 -0.14556706165E+02  0.59301994246E+02  0.50000091586E+02 0.  0.
        -12    1    1    2    0    0  0.25413924837E+02  0.12607620431E+02  0.14556706165E+02  0.31886005754E+02  0.00000000000E+00 0.  1.
         11    1    3    3    0    0  0.39503398414E+01  0.70568233454E+01 -0.13980830622E+02  0.16151395163E+02  0.51100000000E-03 0. -1.
        -11    1    3    3    0    0 -0.27226871641E+02 -0.42190644133E+01 -0.15079142043E+00  0.27552237336E+02  0.51100000000E-03 0.  1.
        -12    1    3    3    0    0 -0.21373930377E+01 -0.15445379364E+02 -0.42508412271E+00  0.15598361747E+02  0.00000000000E+00 0.  1.
</event>
<event>
 7    1  0.6180395E-013  0.5930195E+02  0.7816164E-02  0.1266605E+00
        -11   -1    0    0    0    0  0.00000000000E+00  0.00000000000E+00  0.45593999997E+02  0.45594000000E+02  0.51100000000E-03 0. -1.
         11   -1    0    0    0    0 -0.00000000000E+00 -0.00000000000E+00 -0.45593999997E+02  0.45594000000E+02  0.51100000000E-03 0.  1.
    9900012    2    1    2    0    0 -0.10722973358E+02 -0.20396644746E+02  0.22038941895E+02  0.59301949220E+02  0.50000009469E+02 0.  0.
        -12    1    1    2    0    0  0.10722973358E+02  0.20396644746E+02 -0.22038941895E+02  0.31886050780E+02  0.00000000000E+00 0.  1.
         11    1    3    3    0    0 -0.39710407162E+01  0.28418640408E+01  0.76887923915E+01  0.91083963626E+01  0.51100000000E-03 0. -1.
        -11    1    3    3    0    0 -0.51972837581E+01 -0.35171762896E+02  0.74646162485E+01  0.36328847487E+02  0.51100000000E-03 0.  1.
        -12    1    3    3    0    0 -0.15546488837E+01  0.11933254110E+02  0.68855332550E+01  0.13864705370E+02  0.00000000000E+00 0.  1.
</event>
<event>
 7    1  0.6180395E-013  0.5930195E+02  0.7816164E-02  0.1266605E+00
        -11   -1    0    0    0    0  0.00000000000E+00  0.00000000000E+00  0.45593999997E+02  0.45594000000E+02  0.51100000000E-03 0. -1.
         11   -1    0    0    0    0 -0.00000000000E+00 -0.00000000000E+00 -0.45593999997E+02  0.45594000000E+02  0.51100000000E-03 0.  1.
    9900012    2    1    2    0    0  0.20862936647E+02 -0.16991195305E+02 -0.17110144445E+02  0.59301954677E+02  0.50000019421E+02 0.  0.
        -12    1    1    2    0    0 -0.20862936647E+02  0.16991195305E+02  0.17110144445E+02  0.31886045323E+02  0.00000000000E+00 0.  1.
         11    1    3    3    0    0 -0.44892246461E+01 -0.16247324729E+02  0.70592126173E+01  0.18274604833E+02  0.51100000000E-03 0. -1.
        -11    1    3    3    0    0  0.24922944486E+02 -0.63698359299E+01 -0.24295533014E+02  0.35383624691E+02  0.51100000000E-03 0.  1.
        -12    1    3    3    0    0  0.42921680746E+00  0.56259653536E+01  0.12617595114E+00  0.56437251526E+01  0.00000000000E+00 0.  1.
</event>
<event>
 7    1  0.6180395E-013  0.5930183E+02  0.7816164E-02  0.1266605E+00
        -11   -1    0    0    0    0  0.00000000000E+00  0.00000000000E+00  0.45593999997E+02  0.45594000000E+02  0.51100000000E-03 0. -1.
         11   -1    0    0    0    0 -0.00000000000E+00 -0.00000000000E+00 -0.45593999997E+02  0.45594000000E+02  0.51100000000E-03 0.  1.
    9900012    2    1    2    0    0  0.37248293331E+01  0.30594436256E+02  0.81752189039E+01  0.59301826076E+02  0.49999784884E+02 0.  0.
        -12    1    1    2    0    0 -0.37248293331E+01 -0.30594436256E+02 -0.81752189039E+01  0.31886173924E+02  0.00000000000E+00 0.  1.
         11    1    3    3    0    0 -0.10845310885E+01  0.15319073922E+02 -0.17771747358E+01  0.15459902451E+02  0.51100000000E-03 0. -1.
        -11    1    3    3    0    0  0.45164774466E+01 -0.12819330689E+02 -0.11309313419E+01  0.13638651465E+02  0.51100000000E-03 0.  1.
        -12    1    3    3    0    0  0.29288297498E+00  0.28094693023E+02  0.11083324982E+02  0.30203272159E+02  0.00000000000E+00 0.  1.
</event>
<event>
 7    1  0.6180395E-013  0.5930195E+02  0.7816164E-02  0.1266605E+00
        -11   -1    0    0    0    0  0.00000000000E+00  0.00000000000E+00  0.45593999997E+02  0.45594000000E+02  0.51100000000E-03 0. -1.
         11   -1    0    0    0    0 -0.00000000000E+00 -0.00000000000E+00 -0.45593999997E+02  0.45594000000E+02  0.51100000000E-03 0.  1.
    9900012    2    1    2    0    0  0.69020378036E+01 -0.31292881340E+01  0.30972402591E+02  0.59301948311E+02  0.50000007812E+02 0.  0.
        -12    1    1    2    0    0 -0.69020378036E+01  0.31292881340E+01 -0.30972402591E+02  0.31886051689E+02  0.00000000000E+00 0.  1.
         11    1    3    3    0    0 -0.62281485182E+01 -0.83979671189E+01  0.11399553403E+02  0.15468209455E+02  0.51100000000E-03 0. -1.
        -11    1    3    3    0    0  0.16603731890E+02  0.13387850708E+02 -0.10964092306E+01  0.21356979485E+02  0.51100000000E-03 0.  1.
        -12    1    3    3    0    0 -0.34735455678E+01 -0.81191717235E+01  0.20669258418E+02  0.22476759371E+02  0.00000000000E+00 0.  1.
</event>
<event>
 7    1  0.6180395E-013  0.5930198E+02  0.7816164E-02  0.1266605E+00
        -11   -1    0    0    0    0  0.00000000000E+00  0.00000000000E+00  0.45593999997E+02  0.45594000000E+02  0.51100000000E-03 0. -1.
         11   -1    0    0    0    0 -0.00000000000E+00 -0.00000000000E+00 -0.45593999997E+02  0.45594000000E+02  0.51100000000E-03 0.  1.
    9900012    2    1    2    0    0 -0.59517888697E+01 -0.22804192031E+02 -0.21477040854E+02  0.59301980355E+02  0.50000066253E+02 0.  0.
        -12    1    1    2    0    0  0.59517888697E+01  0.22804192031E+02  0.21477040854E+02  0.31886019645E+02  0.00000000000E+00 0.  1.
         11    1    3    3    0    0 -0.15402063816E+02  0.65395843882E+01  0.42698157811E+01  0.17269078170E+02  0.51100000000E-03 0. -1.
        -11    1    3    3    0    0 -0.27340706343E+01 -0.24707031536E+01 -0.34690145782E+01  0.50609859427E+01  0.51100000000E-03 0.  1.
         12    1    3    3    0    0  0.12184345581E+02 -0.26873073266E+02 -0.22277842056E+02  0.36971916243E+02  0.00000000000E+00 0. -1.
</event>
<event>
 7    1  0.6180395E-013  0.5930196E+02  0.7816164E-02  0.1266605E+00
        -11   -1    0    0    0    0  0.00000000000E+00  0.00000000000E+00  0.45593999997E+02  0.45594000000E+02  0.51100000000E-03 0. -1.
         11   -1    0    0    0    0 -0.00000000000E+00 -0.00000000000E+00 -0.45593999997E+02  0.45594000000E+02  0.51100000000E-03 0.  1.
    9900012    2    1    2    0    0  0.16099574609E+02 -0.27170356565E+02  0.43926129331E+01  0.59301958746E+02  0.50000026842E+02 0.  0.
        -12    1    1    2    0    0 -0.16099574609E+02  0.27170356565E+02 -0.43926129331E+01  0.31886041254E+02  0.00000000000E+00 0.  1.
         11    1    3    3    0    0  0.56860209494E+01 -0.12047165911E+02 -0.10480433975E+02  0.16950060097E+02  0.51100000000E-03 0. -1.
        -11    1    3    3    0    0  0.23290468729E+02 -0.11173554081E+02  0.12414535791E+02  0.28660337464E+02  0.51100000000E-03 0.  1.
        -12    1    3    3    0    0 -0.12876915069E+02 -0.39496365729E+01  0.24585111170E+01  0.13691561184E+02  0.00000000000E+00 0.  1.
</event>
<event>
 7    1  0.6180395E-013  0.5930192E+02  0.7816164E-02  0.1266605E+00
        -11   -1    0    0    0    0  0.00000000000E+00  0.00000000000E+00  0.45593999997E+02  0.45594000000E+02  0.51100000000E-03 0.  1.
         11   -1    0    0    0    0 -0.00000000000E+00 -0.00000000000E+00 -0.45593999997E+02  0.45594000000E+02  0.51100000000E-03 0. -1.
    9900012    2    1    2    0    0 -0.66227386842E+01  0.12635806496E+02 -0.28516618590E+02  0.59301924524E+02  0.49999964429E+02 0.  0.
        -12    1    1    2    0    0  0.66227386842E+01 -0.12635806496E+02  0.28516618590E+02  0.31886075476E+02  0.00000000000E+00 0.  1.
         11    1    3    3    0    0  0.10754739195E+02 -0.10516102187E+02 -0.18441744272E+02  0.23798124977E+02  0.51100000000E-03 0. -1.
        -11    1    3    3    0    0 -0.68421933980E+00  0.23702262323E+01  0.44937346230E+01  0.51263807525E+01  0.51100000000E-03 0.  1.
         12    1    3    3    0    0 -0.16693258540E+02  0.20781682450E+02 -0.14568608941E+02  0.30377418794E+02  0.00000000000E+00 0. -1.
</event>
<event>
 7    1  0.6180395E-013  0.5930187E+02  0.7816164E-02  0.1266605E+00
        -11   -1    0    0    0    0  0.00000000000E+00  0.00000000000E+00  0.45593999997E+02  0.45594000000E+02  0.51100000000E-03 0. -1.
         11   -1    0    0    0    0 -0.00000000000E+00 -0.00000000000E+00 -0.45593999997E+02  0.45594000000E+02  0.51100000000E-03 0.  1.
    9900012    2    1    2    0    0 -0.55259567418E+01  0.17935165373E+02  0.25778259970E+02  0.59301873833E+02  0.49999871981E+02 0.  0.
        -12    1    1    2    0    0  0.55259567418E+01 -0.17935165373E+02 -0.25778259970E+02  0.31886126167E+02  0.00000000000E+00 0.  1.
         11    1    3    3    0    0 -0.16145600514E+01  0.12036973801E+02  0.34234277523E+02  0.36324665177E+02  0.51100000000E-03 0. -1.
        -11    1    3    3    0    0 -0.10131236194E+02  0.76565521531E+01 -0.10193543268E+02  0.16284135296E+02  0.51100000000E-03 0.  1.
        -12    1    3    3    0    0  0.62198395041E+01 -0.17583605819E+01  0.17375257157E+01  0.66930733602E+01  0.00000000000E+00 0.  1.
</event>
<event>
 7    1  0.6180395E-013  0.5930194E+02  0.7816164E-02  0.1266605E+00
        -11   -1    0    0    0    0  0.00000000000E+00  0.00000000000E+00  0.45593999997E+02  0.45594000000E+02  0.51100000000E-03 0.  1.
         11   -1    0    0    0    0 -0.00000000000E+00 -0.00000000000E+00 -0.45593999997E+02  0.45594000000E+02  0.51100000000E-03 0. -1.
    9900012    2    1    2    0    0  0.30593271845E+02 -0.84615729421E+01 -0.30289360587E+01  0.59301937959E+02  0.49999988933E+02 0.  0.
        -12    1    1    2    0    0 -0.30593271845E+02  0.84615729421E+01  0.30289360587E+01  0.31886062041E+02  0.00000000000E+00 0.  1.
         11    1    3    3    0    0  0.13334269212E+02 -0.11843973762E+02 -0.20042425036E+02  0.26828739282E+02  0.51100000000E-03 0. -1.
        -11    1    3    3    0    0  0.20759487050E+02  0.42524737896E+01  0.78029066895E+01  0.22581523176E+02  0.51100000000E-03 0.  1.
        -12    1    3    3    0    0 -0.35004844167E+01 -0.87007296979E+00  0.92105822880E+01  0.98916755006E+01  0.00000000000E+00 0.  1.
</event>
<event>
 7    1  0.6180395E-013  0.5930194E+02  0.7816164E-02  0.1266605E+00
        -11   -1    0    0    0    0  0.00000000000E+00  0.00000000000E+00  0.45593999997E+02  0.45594000000E+02  0.51100000000E-03 0.  1.
         11   -1    0    0    0    0 -0.00000000000E+00 -0.00000000000E+00 -0.45593999997E+02  0.45594000000E+02  0.51100000000E-03 0. -1.
    9900012    2    1    2    0    0  0.12863047561E+02  0.10383848684E+02 -0.27266073024E+02  0.59301936521E+02  0.49999986309E+02 0.  0.
        -12    1    1    2    0    0 -0.12863047561E+02 -0.10383848684E+02  0.27266073024E+02  0.31886063479E+02  0.00000000000E+00 0.  1.
         11    1    3    3    0    0  0.48326016910E+01  0.16650210080E+02  0.94632500134E+00  0.17363152538E+02  0.51100000000E-03 0. -1.
        -11    1    3    3    0    0 -0.47572710492E+01 -0.13473953845E+02 -0.64235118254E+01  0.15666542837E+02  0.51100000000E-03 0.  1.
         12    1    3    3    0    0  0.12787716919E+02  0.72075924495E+01 -0.21788886200E+02  0.26272241145E+02  0.00000000000E+00 0. -1.
</event>
<event>
 7    1  0.6180395E-013  0.5930195E+02  0.7816164E-02  0.1266605E+00
        -11   -1    0    0    0    0  0.00000000000E+00  0.00000000000E+00  0.45593999997E+02  0.45594000000E+02  0.51100000000E-03 0.  1.
         11   -1    0    0    0    0 -0.00000000000E+00 -0.00000000000E+00 -0.45593999997E+02  0.45594000000E+02  0.51100000000E-03 0. -1.
    9900012    2    1    2    0    0  0.13273409735E+02 -0.28585664099E+02  0.48369903654E+01  0.59301951739E+02  0.50000014063E+02 0.  0.
        -12    1    1    2    0    0 -0.13273409735E+02  0.28585664099E+02 -0.48369903654E+01  0.31886048261E+02  0.00000000000E+00 0.  1.
         11    1    3    3    0    0 -0.14523575047E+02 -0.59570810208E+01  0.77851735941E+01  0.17522270817E+02  0.51100000000E-03 0. -1.
        -11    1    3    3    0    0  0.14599714422E+02  0.59222138156E+00  0.15529132508E+01  0.14694009908E+02  0.51100000000E-03 0.  1.
         12    1    3    3    0    0  0.13197270360E+02 -0.23220804459E+02 -0.45010964796E+01  0.27085671013E+02  0.00000000000E+00 0. -1.
</event>
<event>
 7    1  0.6180395E-013  0.5930179E+02  0.7816164E-02  0.1266605E+00
        -11   -1    0    0    0    0  0.00000000000E+00  0.00000000000E+00  0.45593999997E+02  0.45594000000E+02  0.51100000000E-03 0.  1.
         11   -1    0    0    0    0 -0.00000000000E+00 -0.00000000000E+00 -0.45593999997E+02  0.45594000000E+02  0.51100000000E-03 0. -1.
    9900012    2    1    2    0    0  0.88813043869E+01  0.22865723551E+02 -0.20371835252E+02  0.59301787420E+02  0.49999714385E+02 0.  0.
        -12    1    1    2    0    0 -0.88813043869E+01 -0.22865723551E+02  0.20371835252E+02  0.31886212580E+02  0.00000000000E+00 0.  1.
         11    1    3    3    0    0  0.10140145472E+02  0.23003394571E+02 -0.15688653473E+01  0.25188093432E+02  0.51100000000E-03 0. -1.
        -11    1    3    3    0    0 -0.28062997931E+00 -0.13775512067E+02 -0.13944210160E+02  0.19603175333E+02  0.51100000000E-03 0.  1.
        -12    1    3    3    0    0 -0.97821110610E+00  0.13637841047E+02 -0.48587597450E+01  0.14510518655E+02  0.00000000000E+00 0.  1.
</event>
<event>
 7    1  0.6180395E-013  0.5930195E+02  0.7816164E-02  0.1266605E+00
        -11   -1    0    0    0    0  0.00000000000E+00  0.00000000000E+00  0.45593999997E+02  0.45594000000E+02  0.51100000000E-03 0.  1.
         11   -1    0    0    0    0 -0.00000000000E+00 -0.00000000000E+00 -0.45593999997E+02  0.45594000000E+02  0.51100000000E-03 0. -1.
    9900012    2    1    2    0    0  0.40336358559E+01  0.25714664705E+02 -0.18417550274E+02  0.59301947293E+02  0.50000005955E+02 0.  0.
        -12    1    1    2    0    0 -0.40336358559E+01 -0.25714664705E+02  0.18417550274E+02  0.31886052707E+02  0.00000000000E+00 0.  1.
         11    1    3    3    0    0 -0.32756142873E+00  0.14872805570E+02  0.12888716333E+02  0.19683156530E+02  0.51100000000E-03 0.  1.
        -11    1    3    3    0    0  0.75510738756E+01  0.92887057838E+01 -0.33412934431E+02  0.35492576116E+02  0.51100000000E-03 0. -1.
         12    1    3    3    0    0 -0.31898765909E+01  0.15531533517E+01  0.21066678236E+01  0.41262146477E+01  0.00000000000E+00 0. -1.
</event>
<event>
 7    1  0.6180395E-013  0.5930196E+02  0.7816164E-02  0.1266605E+00
        -11   -1    0    0    0    0  0.00000000000E+00  0.00000000000E+00  0.45593999997E+02  0.45594000000E+02  0.51100000000E-03 0. -1.
         11   -1    0    0    0    0 -0.00000000000E+00 -0.00000000000E+00 -0.45593999997E+02  0.45594000000E+02  0.51100000000E-03 0.  1.
    9900012    2    1    2    0    0  0.14017983329E+02 -0.12103307524E+02  0.25956221524E+02  0.59301963159E+02  0.50000034891E+02 0.  0.
        -12    1    1    2    0    0 -0.14017983329E+02  0.12103307524E+02 -0.25956221524E+02  0.31886036841E+02  0.00000000000E+00 0.  1.
         11    1    3    3    0    0  0.29907886697E+01 -0.28469923172E+02  0.22106411522E+02  0.36168698801E+02  0.51100000000E-03 0. -1.
        -11    1    3    3    0    0 -0.45833534116E+00  0.67691833548E+01  0.45170896761E+01  0.81508290363E+01  0.51100000000E-03 0.  1.
         12    1    3    3    0    0  0.11485530000E+02  0.95974322930E+01 -0.66727967466E+00  0.14982435322E+02  0.00000000000E+00 0. -1.
</event>
<event>
 7    1  0.6180395E-013  0.5930193E+02  0.7816164E-02  0.1266605E+00
        -11   -1    0    0    0    0  0.00000000000E+00  0.00000000000E+00  0.45593999997E+02  0.45594000000E+02  0.51100000000E-03 0. -1.
         11   -1    0    0    0    0 -0.00000000000E+00 -0.00000000000E+00 -0.45593999997E+02  0.45594000000E+02  0.51100000000E-03 0.  1.
    9900012    2    1    2    0    0 -0.28178528734E+02  0.14656428363E+02 -0.28073544600E+01  0.59301927601E+02  0.49999970042E+02 0.  0.
        -12    1    1    2    0    0  0.28178528734E+02 -0.14656428363E+02  0.28073544600E+01  0.31886072399E+02  0.00000000000E+00 0.  1.
         11    1    3    3    0    0 -0.73315842642E+01  0.37769713957E+01  0.17981805429E+02  0.19782895832E+02  0.51100000000E-03 0. -1.
        -11    1    3    3    0    0 -0.17589842589E+02 -0.42349494358E+01 -0.12335121628E+02  0.21897319126E+02  0.51100000000E-03 0.  1.
        -12    1    3    3    0    0 -0.32571018802E+01  0.15114406403E+02 -0.84540382610E+01  0.17621712643E+02  0.00000000000E+00 0.  1.
</event>
<event>
 7    1  0.6180395E-013  0.5930210E+02  0.7816164E-02  0.1266604E+00
        -11   -1    0    0    0    0  0.00000000000E+00  0.00000000000E+00  0.45593999997E+02  0.45594000000E+02  0.51100000000E-03 0.  1.
         11   -1    0    0    0    0 -0.00000000000E+00 -0.00000000000E+00 -0.45593999997E+02  0.45594000000E+02  0.51100000000E-03 0. -1.
    9900012    2    1    2    0    0 -0.30900347118E+02 -0.74374056544E+01 -0.25620911971E+01  0.59302097689E+02  0.50000280241E+02 0.  0.
        -12    1    1    2    0    0  0.30900347118E+02  0.74374056544E+01  0.25620911971E+01  0.31885902311E+02  0.00000000000E+00 0.  1.
         11    1    3    3    0    0 -0.34829257129E+02  0.13506332544E+02 -0.53760158811E+01  0.37741220409E+02  0.51100000000E-03 0. -1.
        -11    1    3    3    0    0  0.22355668490E+01 -0.13240318190E+02  0.98195549590E+00  0.13463581312E+02  0.51100000000E-03 0.  1.
         12    1    3    3    0    0  0.16933431619E+01 -0.77034200085E+01  0.18319691881E+01  0.80972959683E+01  0.00000000000E+00 0. -1.
</event>
<event>
 7    1  0.6180395E-013  0.5930194E+02  0.7816164E-02  0.1266605E+00
        -11   -1    0    0    0    0  0.00000000000E+00  0.00000000000E+00  0.45593999997E+02  0.45594000000E+02  0.51100000000E-03 0.  1.
         11   -1    0    0    0    0 -0.00000000000E+00 -0.00000000000E+00 -0.45593999997E+02  0.45594000000E+02  0.51100000000E-03 0. -1.
    9900012    2    1    2    0    0  0.26044797612E+02 -0.94369596713E+01 -0.15790279881E+02  0.59301943029E+02  0.49999998178E+02 0.  0.
        -12    1    1    2    0    0 -0.26044797612E+02  0.94369596713E+01  0.15790279881E+02  0.31886056971E+02  0.00000000000E+00 0.  1.
         11    1    3    3    0    0  0.23416617146E+02  0.45998554694E+01  0.87561002645E+01  0.25419793882E+02  0.51100000000E-03 0. -1.
        -11    1    3    3    0    0  0.63801150655E+00 -0.88505376683E+01 -0.26536971414E+02  0.27981242428E+02  0.51100000000E-03 0.  1.
        -12    1    3    3    0    0  0.19901689593E+01 -0.51862774724E+01  0.19905912690E+01  0.59009067191E+01  0.00000000000E+00 0.  1.
</event>
<event>
 7    1  0.6180395E-013  0.5930211E+02  0.7816164E-02  0.1266604E+00
        -11   -1    0    0    0    0  0.00000000000E+00  0.00000000000E+00  0.45593999997E+02  0.45594000000E+02  0.51100000000E-03 0.  1.
         11   -1    0    0    0    0 -0.00000000000E+00 -0.00000000000E+00 -0.45593999997E+02  0.45594000000E+02  0.51100000000E-03 0. -1.
    9900012    2    1    2    0    0 -0.27727842002E+02 -0.12164809873E+02 -0.99947161139E+01  0.59302107014E+02  0.50000297247E+02 0.  0.
        -12    1    1    2    0    0  0.27727842002E+02  0.12164809873E+02  0.99947161139E+01  0.31885892986E+02  0.00000000000E+00 0.  1.
         11    1    3    3    0    0  0.46645971733E+01 -0.12733766787E+02 -0.19718640614E+02  0.23931821312E+02  0.51100000000E-03 0. -1.
        -11    1    3    3    0    0 -0.29187335972E+02  0.36297703389E+01  0.95910344812E+01  0.30936447058E+02  0.51100000000E-03 0.  1.
         12    1    3    3    0    0 -0.32051032031E+01 -0.30608134252E+01  0.13289001941E+00  0.44338386443E+01  0.00000000000E+00 0. -1.
</event>
<event>
 7    1  0.6180395E-013  0.5930194E+02  0.7816164E-02  0.1266605E+00
        -11   -1    0    0    0    0  0.00000000000E+00  0.00000000000E+00  0.45593999997E+02  0.45594000000E+02  0.51100000000E-03 0.  1.
         11   -1    0    0    0    0 -0.00000000000E+00 -0.00000000000E+00 -0.45593999997E+02  0.45594000000E+02  0.51100000000E-03 0. -1.
    9900012    2    1    2    0    0 -0.37053407790E+01  0.15795359153E+02 -0.27449919054E+02  0.59301937572E+02  0.49999988227E+02 0.  0.
        -12    1    1    2    0    0  0.37053407790E+01 -0.15795359153E+02  0.27449919054E+02  0.31886062428E+02  0.00000000000E+00 0.  1.
         11    1    3    3    0    0  0.90999466981E+01  0.12254054950E+02 -0.28724110532E+02  0.32527610098E+02  0.51100000000E-03 0. -1.
        -11    1    3    3    0    0  0.68120459952E+01  0.95131364134E+00  0.12268068201E+01  0.69867033370E+01  0.51100000000E-03 0.  1.
         12    1    3    3    0    0 -0.19617333472E+02  0.25899905619E+01  0.47384657283E-01  0.19787624137E+02  0.00000000000E+00 0. -1.
</event>
<event>
 7    1  0.6180395E-013  0.5930197E+02  0.7816164E-02  0.1266605E+00
        -11   -1    0    0    0    0  0.00000000000E+00  0.00000000000E+00  0.45593999997E+02  0.45594000000E+02  0.51100000000E-03 0. -1.
         11   -1    0    0    0    0 -0.00000000000E+00 -0.00000000000E+00 -0.45593999997E+02  0.45594000000E+02  0.51100000000E-03 0.  1.
    9900012    2    1    2    0    0  0.10879954738E+02 -0.25408463665E+02 -0.15898285840E+02  0.59301969617E+02  0.50000046669E+02 0.  0.
        -12    1    1    2    0    0 -0.10879954738E+02  0.25408463665E+02  0.15898285840E+02  0.31886030383E+02  0.00000000000E+00 0.  1.
         11    1    3    3    0    0 -0.30116501061E+01 -0.19569412658E+02 -0.17972672297E+01  0.19881200112E+02  0.51100000000E-03 0. -1.
        -11    1    3    3    0    0 -0.85888271827E+01  0.37559936912E+01 -0.11505473465E+02  0.14840867929E+02  0.51100000000E-03 0.  1.
        -12    1    3    3    0    0  0.22480432027E+02 -0.95950446985E+01 -0.25955451458E+01  0.24579901576E+02  0.00000000000E+00 0.  1.
</event>
<event>
 7    1  0.6180395E-013  0.5930194E+02  0.7816164E-02  0.1266605E+00
        -11   -1    0    0    0    0  0.00000000000E+00  0.00000000000E+00  0.45593999997E+02  0.45594000000E+02  0.51100000000E-03 0.  1.
         11   -1    0    0    0    0 -0.00000000000E+00 -0.00000000000E+00 -0.45593999997E+02  0.45594000000E+02  0.51100000000E-03 0. -1.
    9900012    2    1    2    0    0 -0.23759870752E+02 -0.20999102607E+02  0.33507113023E+01  0.59301936670E+02  0.49999986582E+02 0.  0.
        -12    1    1    2    0    0  0.23759870752E+02  0.20999102607E+02 -0.33507113023E+01  0.31886063330E+02  0.00000000000E+00 0.  1.
         11    1    3    3    0    0  0.42188107923E+01 -0.17005686103E+02  0.18527054757E+02  0.25499872206E+02  0.51100000000E-03 0. -1.
        -11    1    3    3    0    0 -0.18920676667E+02  0.15194940139E+01 -0.63812462241E+01  0.20025513008E+02  0.51100000000E-03 0.  1.
         12    1    3    3    0    0 -0.90580048766E+01 -0.55129105184E+01 -0.87950972302E+01  0.13776551456E+02  0.00000000000E+00 0. -1.
</event>
<event>
 7    1  0.6180395E-013  0.5930203E+02  0.7816164E-02  0.1266604E+00
        -11   -1    0    0    0    0  0.00000000000E+00  0.00000000000E+00  0.45593999997E+02  0.45594000000E+02  0.51100000000E-03 0.  1.
         11   -1    0    0    0    0 -0.00000000000E+00 -0.00000000000E+00 -0.45593999997E+02  0.45594000000E+02  0.51100000000E-03 0. -1.
    9900012    2    1    2    0    0 -0.21916939207E+02 -0.22214705510E+02 -0.65475176534E+01  0.59302025771E+02  0.50000149080E+02 0.  0.
        -12    1    1    2    0    0  0.21916939207E+02  0.22214705510E+02  0.65475176534E+01  0.31885974229E+02  0.00000000000E+00 0.  1.
         11    1    3    3    0    0  0.72902255642E+00 -0.12199215052E+02 -0.17439493922E+02  0.21295264034E+02  0.51100000000E-03 0. -1.
        -11    1    3    3    0    0 -0.21093699648E+02 -0.10950595051E+02  0.18542600171E+02  0.30144447551E+02  0.51100000000E-03 0.  1.
        -12    1    3    3    0    0 -0.15522621157E+01  0.93510459276E+00 -0.76506239025E+01  0.78623141868E+01  0.00000000000E+00 0.  1.
</event>
<event>
 7    1  0.6180395E-013  0.5930191E+02  0.7816164E-02  0.1266605E+00
        -11   -1    0    0    0    0  0.00000000000E+00  0.00000000000E+00  0.45593999997E+02  0.45594000000E+02  0.51100000000E-03 0. -1.
         11   -1    0    0    0    0 -0.00000000000E+00 -0.00000000000E+00 -0.45593999997E+02  0.45594000000E+02  0.51100000000E-03 0.  1.
    9900012    2    1    2    0    0 -0.45793185668E+01  0.26317366260E+02  0.17411170399E+02  0.59301909301E+02  0.49999936666E+02 0.  0.
        -12    1    1    2    0    0  0.45793185668E+01 -0.26317366260E+02 -0.17411170399E+02  0.31886090699E+02  0.00000000000E+00 0.  1.
         11    1    3    3    0    0 -0.61210676705E-02  0.21457042083E+02 -0.67568770484E+01  0.22495779162E+02  0.51100000000E-03 0.  1.
        -11    1    3    3    0    0 -0.12182418513E+02 -0.45368678321E+01  0.20309650926E+02  0.24113822003E+02  0.51100000000E-03 0. -1.
         12    1    3    3    0    0  0.76092210141E+01  0.93971920097E+01  0.38583965207E+01  0.12692308136E+02  0.00000000000E+00 0. -1.
</event>
<event>
 7    1  0.6180395E-013  0.5930200E+02  0.7816164E-02  0.1266605E+00
        -11   -1    0    0    0    0  0.00000000000E+00  0.00000000000E+00  0.45593999997E+02  0.45594000000E+02  0.51100000000E-03 0. -1.
         11   -1    0    0    0    0 -0.00000000000E+00 -0.00000000000E+00 -0.45593999997E+02  0.45594000000E+02  0.51100000000E-03 0.  1.
    9900012    2    1    2    0    0 -0.98836593038E+00 -0.14226088297E+02  0.28519442570E+02  0.59301998997E+02  0.50000100251E+02 0.  0.
        -12    1    1    2    0    0  0.98836593038E+00  0.14226088297E+02 -0.28519442570E+02  0.31886001003E+02  0.00000000000E+00 0.  1.
         11    1    3    3    0    0 -0.57660082455E+01 -0.21862590661E+02  0.37819404246E+02  0.44062762728E+02  0.51100000000E-03 0. -1.
        -11    1    3    3    0    0 -0.87087577605E+00  0.41543415307E+01 -0.70562942420E+01  0.82345775157E+01  0.51100000000E-03 0.  1.
         12    1    3    3    0    0  0.56485180911E+01  0.34821608333E+01 -0.22436674338E+01  0.70046587532E+01  0.00000000000E+00 0. -1.
</event>
<event>
 7    1  0.6180395E-013  0.5930192E+02  0.7816164E-02  0.1266605E+00
        -11   -1    0    0    0    0  0.00000000000E+00  0.00000000000E+00  0.45593999997E+02  0.45594000000E+02  0.51100000000E-03 0. -1.
         11   -1    0    0    0    0 -0.00000000000E+00 -0.00000000000E+00 -0.45593999997E+02  0.45594000000E+02  0.51100000000E-03 0.  1.
    9900012    2    1    2    0    0  0.30121950548E+02 -0.73731800351E+01  0.74179955296E+01  0.59301916102E+02  0.49999949071E+02 0.  0.
        -12    1    1    2    0    0 -0.30121950548E+02  0.73731800351E+01 -0.74179955296E+01  0.31886083898E+02  0.00000000000E+00 0.  1.
         11    1    3    3    0    0  0.90941551780E+01  0.65218029770E+01 -0.13583608675E+02  0.17599772651E+02  0.51100000000E-03 0. -1.
        -11    1    3    3    0    0  0.52333634023E+01  0.47997341002E+01  0.14860281998E+02  0.16469775993E+02  0.51100000000E-03 0.  1.
         12    1    3    3    0    0  0.15794431968E+02 -0.18694717112E+02  0.61413222069E+01  0.25232367458E+02  0.00000000000E+00 0. -1.
</event>
<event>
 7    1  0.6180395E-013  0.5930190E+02  0.7816164E-02  0.1266605E+00
        -11   -1    0    0    0    0  0.00000000000E+00  0.00000000000E+00  0.45593999997E+02  0.45594000000E+02  0.51100000000E-03 0.  1.
         11   -1    0    0    0    0 -0.00000000000E+00 -0.00000000000E+00 -0.45593999997E+02  0.45594000000E+02  0.51100000000E-03 0. -1.
    9900012    2    1    2    0    0  0.20426831331E+01  0.17097948857E+02 -0.26836746587E+02  0.59301899943E+02  0.49999919600E+02 0.  0.
        -12    1    1    2    0    0 -0.20426831331E+01 -0.17097948857E+02  0.26836746587E+02  0.31886100057E+02  0.00000000000E+00 0.  1.
         11    1    3    3    0    0  0.15732678832E+02  0.15449581290E+02 -0.15878897448E+02  0.27172525273E+02  0.51100000000E-03 0. -1.
        -11    1    3    3    0    0 -0.85841246535E+01  0.77664139472E+01  0.62575844235E+01  0.13159093614E+02  0.51100000000E-03 0.  1.
         12    1    3    3    0    0 -0.51058710454E+01 -0.61180463801E+01 -0.17215433562E+02  0.18970281056E+02  0.00000000000E+00 0. -1.
</event>
<event>
 7    1  0.6180395E-013  0.5930195E+02  0.7816164E-02  0.1266605E+00
        -11   -1    0    0    0    0  0.00000000000E+00  0.00000000000E+00  0.45593999997E+02  0.45594000000E+02  0.51100000000E-03 0.  1.
         11   -1    0    0    0    0 -0.00000000000E+00 -0.00000000000E+00 -0.45593999997E+02  0.45594000000E+02  0.51100000000E-03 0. -1.
    9900012    2    1    2    0    0 -0.29118714603E+02 -0.12676966706E+02  0.28486821942E+01  0.59301952656E+02  0.50000015735E+02 0.  0.
        -12    1    1    2    0    0  0.29118714603E+02  0.12676966706E+02 -0.28486821942E+01  0.31886047344E+02  0.00000000000E+00 0.  1.
         11    1    3    3    0    0 -0.19246258234E+02 -0.19851158081E+02  0.16832228037E+02  0.32369906304E+02  0.51100000000E-03 0. -1.
        -11    1    3    3    0    0 -0.10081330172E+02  0.12498857569E+02 -0.56156093693E+01  0.17011458709E+02  0.51100000000E-03 0.  1.
         12    1    3    3    0    0  0.20887380323E+00 -0.53246661943E+01 -0.83679364736E+01  0.99205876425E+01  0.00000000000E+00 0. -1.
</event>
<event>
 7    1  0.6180395E-013  0.5930193E+02  0.7816164E-02  0.1266605E+00
        -11   -1    0    0    0    0  0.00000000000E+00  0.00000000000E+00  0.45593999997E+02  0.45594000000E+02  0.51100000000E-03 0. -1.
         11   -1    0    0    0    0 -0.00000000000E+00 -0.00000000000E+00 -0.45593999997E+02  0.45594000000E+02  0.51100000000E-03 0.  1.
    9900012    2    1    2    0    0  0.17615993798E+02  0.12646565414E+02  0.23376540665E+02  0.59301929252E+02  0.49999973053E+02 0.  0.
        -12    1    1    2    0    0 -0.17615993798E+02 -0.12646565414E+02 -0.23376540665E+02  0.31886070748E+02  0.00000000000E+00 0.  1.
         11    1    3    3    0    0  0.14835239445E+01 -0.65551514928E+01  0.24698276706E+02  0.25596400663E+02  0.51100000000E-03 0. -1.
        -11    1    3    3    0    0  0.61338360364E+01  0.35051788973E+00 -0.91115579012E+01  0.10989417408E+02  0.51100000000E-03 0.  1.
         12    1    3    3    0    0  0.99986338169E+01  0.18851199018E+02  0.77898218602E+01  0.22716111182E+02  0.00000000000E+00 0. -1.
</event>
<event>
 7    1  0.6180395E-013  0.5930187E+02  0.7816164E-02  0.1266605E+00
        -11   -1    0    0    0    0  0.00000000000E+00  0.00000000000E+00  0.45593999997E+02  0.45594000000E+02  0.51100000000E-03 0. -1.
         11   -1    0    0    0    0 -0.00000000000E+00 -0.00000000000E+00 -0.45593999997E+02  0.45594000000E+02  0.51100000000E-03 0.  1.
    9900012    2    1    2    0    0 -0.39503707115E+01 -0.24047131274E+02  0.20563442462E+02  0.59301872653E+02  0.49999869830E+02 0.  0.
        -12    1    1    2    0    0  0.39503707115E+01  0.24047131274E+02 -0.20563442462E+02  0.31886127347E+02  0.00000000000E+00 0.  1.
         11    1    3    3    0    0 -0.18254014037E+02 -0.89913372602E+01  0.22697567832E+02  0.30483319372E+02  0.51100000000E-03 0. -1.
        -11    1    3    3    0    0  0.10328022710E+02 -0.17694827154E+02  0.41736441972E+01  0.20909190975E+02  0.51100000000E-03 0.  1.
         12    1    3    3    0    0  0.39756206153E+01  0.26390331397E+01 -0.63077695665E+01  0.79093623064E+01  0.00000000000E+00 0. -1.
</event>
<event>
 7    1  0.6180395E-013  0.5930193E+02  0.7816164E-02  0.1266605E+00
        -11   -1    0    0    0    0  0.00000000000E+00  0.00000000000E+00  0.45593999997E+02  0.45594000000E+02  0.51100000000E-03 0. -1.
         11   -1    0    0    0    0 -0.00000000000E+00 -0.00000000000E+00 -0.45593999997E+02  0.45594000000E+02  0.51100000000E-03 0.  1.
    9900012    2    1    2    0    0  0.17252991302E+02  0.10135153776E+02  0.24826086822E+02  0.59301927212E+02  0.49999969333E+02 0.  0.
        -12    1    1    2    0    0 -0.17252991302E+02 -0.10135153776E+02 -0.24826086822E+02  0.31886072788E+02  0.00000000000E+00 0.  1.
         11    1    3    3    0    0  0.22107351874E+02  0.65623782153E+01  0.29885961444E+02  0.37748781522E+02  0.51100000000E-03 0.  1.
        -11    1    3    3    0    0 -0.89968208417E+01  0.62191441560E+01  0.36683401355E+01  0.11535911707E+02  0.51100000000E-03 0. -1.
        -12    1    3    3    0    0  0.41424602699E+01 -0.26463685949E+01 -0.87282147576E+01  0.10017233984E+02  0.00000000000E+00 0.  1.
</event>
<event>
 7    1  0.6180395E-013  0.5930193E+02  0.7816164E-02  0.1266605E+00
        -11   -1    0    0    0    0  0.00000000000E+00  0.00000000000E+00  0.45593999997E+02  0.45594000000E+02  0.51100000000E-03 0. -1.
         11   -1    0    0    0    0 -0.00000000000E+00 -0.00000000000E+00 -0.45593999997E+02  0.45594000000E+02  0.51100000000E-03 0.  1.
    9900012    2    1    2    0    0  0.15910407366E+02 -0.19511022462E+02  0.19567840525E+02  0.59301930269E+02  0.49999974908E+02 0.  0.
        -12    1    1    2    0    0 -0.15910407366E+02  0.19511022462E+02 -0.19567840525E+02  0.31886069731E+02  0.00000000000E+00 0.  1.
         11    1    3    3    0    0  0.16464482074E+01  0.50659081242E+01  0.17767241328E+02  0.18548560092E+02  0.51100000000E-03 0. -1.
        -11    1    3    3    0    0 -0.71234169392E+01 -0.70217238788E+01 -0.64236327710E+01  0.11887419121E+02  0.51100000000E-03 0.  1.
        -12    1    3    3    0    0  0.21387376098E+02 -0.17555206708E+02  0.82242319676E+01  0.28865951056E+02  0.00000000000E+00 0.  1.
</event>
<event>
 7    1  0.6180395E-013  0.5930195E+02  0.7816164E-02  0.1266605E+00
        -11   -1    0    0    0    0  0.00000000000E+00  0.00000000000E+00  0.45593999997E+02  0.45594000000E+02  0.51100000000E-03 0. -1.
         11   -1    0    0    0    0 -0.00000000000E+00 -0.00000000000E+00 -0.45593999997E+02  0.45594000000E+02  0.51100000000E-03 0.  1.
    9900012    2    1    2    0    0  0.14433026125E+02  0.19526822353E+02  0.20666667358E+02  0.59301950166E+02  0.50000011195E+02 0.  0.
        -12    1    1    2    0    0 -0.14433026125E+02 -0.19526822353E+02 -0.20666667358E+02  0.31886049834E+02  0.00000000000E+00 0.  1.
         11    1    3    3    0    0 -0.28553392054E+01 -0.70495267871E+01  0.22757355699E+02  0.23994708346E+02  0.51100000000E-03 0. -1.
        -11    1    3    3    0    0  0.19105947854E+02  0.23739511571E+02  0.13352590793E+01  0.30502205988E+02  0.51100000000E-03 0.  1.
         12    1    3    3    0    0 -0.18175825243E+01  0.28368375691E+01 -0.34259474208E+01  0.48050358330E+01  0.00000000000E+00 0. -1.
</event>
<event>
 7    1  0.6180395E-013  0.5930190E+02  0.7816164E-02  0.1266605E+00
        -11   -1    0    0    0    0  0.00000000000E+00  0.00000000000E+00  0.45593999997E+02  0.45594000000E+02  0.51100000000E-03 0.  1.
         11   -1    0    0    0    0 -0.00000000000E+00 -0.00000000000E+00 -0.45593999997E+02  0.45594000000E+02  0.51100000000E-03 0. -1.
    9900012    2    1    2    0    0 -0.31090529013E+02  0.42899826426E+00 -0.70652911626E+01  0.59301900003E+02  0.49999919709E+02 0.  0.
        -12    1    1    2    0    0  0.31090529013E+02 -0.42899826426E+00  0.70652911626E+01  0.31886099997E+02  0.00000000000E+00 0.  1.
         11    1    3    3    0    0 -0.36578777040E+01  0.25132031721E+00 -0.15520092897E+02  0.15947304317E+02  0.51100000000E-03 0. -1.
        -11    1    3    3    0    0 -0.84276250405E+01 -0.55549580515E+01  0.18524397110E+02  0.21095869532E+02  0.51100000000E-03 0.  1.
        -12    1    3    3    0    0 -0.19005026269E+02  0.57326359986E+01 -0.10069595375E+02  0.22258726154E+02  0.00000000000E+00 0.  1.
</event>
<event>
 7    1  0.6180395E-013  0.5930194E+02  0.7816164E-02  0.1266605E+00
        -11   -1    0    0    0    0  0.00000000000E+00  0.00000000000E+00  0.45593999997E+02  0.45594000000E+02  0.51100000000E-03 0.  1.
         11   -1    0    0    0    0 -0.00000000000E+00 -0.00000000000E+00 -0.45593999997E+02  0.45594000000E+02  0.51100000000E-03 0. -1.
    9900012    2    1    2    0    0  0.69833440056E+01 -0.23130361893E+02 -0.20807209330E+02  0.59301941998E+02  0.49999996297E+02 0.  0.
        -12    1    1    2    0    0 -0.69833440056E+01  0.23130361893E+02  0.20807209330E+02  0.31886058002E+02  0.00000000000E+00 0.  1.
         11    1    3    3    0    0 -0.64132835724E-01  0.30703223760E+01 -0.64489123358E+01  0.71427909873E+01  0.51100000000E-03 0. -1.
        -11    1    3    3    0    0  0.11427856534E+02 -0.23984291132E+02  0.91841306390E+01  0.28110325183E+02  0.51100000000E-03 0.  1.
        -12    1    3    3    0    0 -0.43803796923E+01 -0.22163931378E+01 -0.23542427634E+02  0.24048825827E+02  0.00000000000E+00 0.  1.
</event>
<event>
 7    1  0.6180395E-013  0.5930195E+02  0.7816164E-02  0.1266605E+00
        -11   -1    0    0    0    0  0.00000000000E+00  0.00000000000E+00  0.45593999997E+02  0.45594000000E+02  0.51100000000E-03 0.  1.
         11   -1    0    0    0    0 -0.00000000000E+00 -0.00000000000E+00 -0.45593999997E+02  0.45594000000E+02  0.51100000000E-03 0. -1.
    9900012    2    1    2    0    0 -0.12243230657E+02  0.17206289714E+02 -0.23890737355E+02  0.59301946089E+02  0.50000003759E+02 0.  0.
        -12    1    1    2    0    0  0.12243230657E+02 -0.17206289714E+02  0.23890737355E+02  0.31886053911E+02  0.00000000000E+00 0.  1.
         11    1    3    3    0    0 -0.15830739745E+02  0.11374076030E+02 -0.37803475240E+02  0.42533335948E+02  0.51100000000E-03 0. -1.
        -11    1    3    3    0    0  0.15995047094E+00  0.53767369157E+01  0.11010969871E+02  0.12254645722E+02  0.51100000000E-03 0.  1.
         12    1    3    3    0    0  0.34275586174E+01  0.45547676889E+00  0.29017680135E+01  0.45139644180E+01  0.00000000000E+00 0. -1.
</event>
<event>
 7    1  0.6180395E-013  0.5930192E+02  0.7816164E-02  0.1266605E+00
        -11   -1    0    0    0    0  0.00000000000E+00  0.00000000000E+00  0.45593999997E+02  0.45594000000E+02  0.51100000000E-03 0. -1.
         11   -1    0    0    0    0 -0.00000000000E+00 -0.00000000000E+00 -0.45593999997E+02  0.45594000000E+02  0.51100000000E-03 0.  1.
    9900012    2    1    2    0    0 -0.57189479523E+01  0.30861620303E+02 -0.56192391576E+01  0.59301924322E+02  0.49999964062E+02 0.  0.
        -12    1    1    2    0    0  0.57189479523E+01 -0.30861620303E+02  0.56192391576E+01  0.31886075678E+02  0.00000000000E+00 0.  1.
         11    1    3    3    0    0  0.42330399904E+01  0.39726949357E+02 -0.59316884203E+01  0.40389776684E+02  0.51100000000E-03 0. -1.
        -11    1    3    3    0    0 -0.42730944794E+01 -0.11672300482E+02  0.13123959361E+01  0.12498972691E+02  0.51100000000E-03 0.  1.
         12    1    3    3    0    0 -0.56788934634E+01  0.28069714279E+01 -0.99994667333E+00  0.64131749481E+01  0.00000000000E+00 0. -1.
</event>
<event>
 7    1  0.6180395E-013  0.5930196E+02  0.7816164E-02  0.1266605E+00
        -11   -1    0    0    0    0  0.00000000000E+00  0.00000000000E+00  0.45593999997E+02  0.45594000000E+02  0.51100000000E-03 0.  1.
         11   -1    0    0    0    0 -0.00000000000E+00 -0.00000000000E+00 -0.45593999997E+02  0.45594000000E+02  0.51100000000E-03 0. -1.
    9900012    2    1    2    0    0 -0.27269503951E+02 -0.11152137312E+02 -0.12195234774E+02  0.59301956602E+02  0.50000022932E+02 0.  0.
        -12    1    1    2    0    0  0.27269503951E+02  0.11152137312E+02  0.12195234774E+02  0.31886043398E+02  0.00000000000E+00 0.  1.
         11    1    3    3    0    0 -0.67762312768E+01  0.67631260871E+01 -0.22063558433E+02  0.24051149573E+02  0.51100000000E-03 0. -1.
        -11    1    3    3    0    0 -0.15765807573E+02 -0.37312024882E+01  0.11982404042E+02  0.20150944577E+02  0.51100000000E-03 0.  1.
         12    1    3    3    0    0 -0.47274651012E+01 -0.14184060911E+02 -0.21140803831E+01  0.15099862452E+02  0.00000000000E+00 0. -1.
</event>
<event>
 7    1  0.6180395E-013  0.5930194E+02  0.7816164E-02  0.1266605E+00
        -11   -1    0    0    0    0  0.00000000000E+00  0.00000000000E+00  0.45593999997E+02  0.45594000000E+02  0.51100000000E-03 0. -1.
         11   -1    0    0    0    0 -0.00000000000E+00 -0.00000000000E+00 -0.45593999997E+02  0.45594000000E+02  0.51100000000E-03 0.  1.
    9900012    2    1    2    0    0 -0.10747542078E+02 -0.27255970989E+02 -0.12582643015E+02  0.59301944733E+02  0.50000001286E+02 0.  0.
        -12    1    1    2    0    0  0.10747542078E+02  0.27255970989E+02  0.12582643015E+02  0.31886055267E+02  0.00000000000E+00 0.  1.
         11    1    3    3    0    0 -0.80320330347E+01  0.49111853957E+01 -0.62024486101E+01  0.11274026152E+02  0.51100000000E-03 0. -1.
        -11    1    3    3    0    0 -0.62759778835E+01 -0.31556517594E+02 -0.17296766173E+02  0.36529163984E+02  0.51100000000E-03 0.  1.
        -12    1    3    3    0    0  0.35604688404E+01 -0.61063879038E+00  0.10916571768E+02  0.11498754596E+02  0.00000000000E+00 0.  1.
</event>
<event>
 7    1  0.6180395E-013  0.5930194E+02  0.7816164E-02  0.1266605E+00
        -11   -1    0    0    0    0  0.00000000000E+00  0.00000000000E+00  0.45593999997E+02  0.45594000000E+02  0.51100000000E-03 0.  1.
         11   -1    0    0    0    0 -0.00000000000E+00 -0.00000000000E+00 -0.45593999997E+02  0.45594000000E+02  0.51100000000E-03 0. -1.
    9900012    2    1    2    0    0  0.11785349968E+01  0.17932562645E+02 -0.26339226204E+02  0.59301943725E+02  0.49999999448E+02 0.  0.
        -12    1    1    2    0    0 -0.11785349968E+01 -0.17932562645E+02  0.26339226204E+02  0.31886056275E+02  0.00000000000E+00 0.  1.
         11    1    3    3    0    0 -0.33983682758E+01 -0.77776925228E+01 -0.41421788759E+01  0.94445250817E+01  0.51100000000E-03 0. -1.
        -11    1    3    3    0    0 -0.12985186295E+01  0.33793428889E+02 -0.12859229966E+02  0.36180682446E+02  0.51100000000E-03 0.  1.
        -12    1    3    3    0    0  0.58754219020E+01 -0.80831737210E+01 -0.93378173614E+01  0.13676736197E+02  0.00000000000E+00 0.  1.
</event>
<event>
 7    1  0.6180395E-013  0.5930194E+02  0.7816164E-02  0.1266605E+00
        -11   -1    0    0    0    0  0.00000000000E+00  0.00000000000E+00  0.45593999997E+02  0.45594000000E+02  0.51100000000E-03 0.  1.
         11   -1    0    0    0    0 -0.00000000000E+00 -0.00000000000E+00 -0.45593999997E+02  0.45594000000E+02  0.51100000000E-03 0. -1.
    9900012    2    1    2    0    0  0.16261646565E+01  0.25709504057E+02 -0.18790895444E+02  0.59301940947E+02  0.49999994381E+02 0.  0.
        -12    1    1    2    0    0 -0.16261646565E+01 -0.25709504057E+02  0.18790895444E+02  0.31886059053E+02  0.00000000000E+00 0.  1.
         11    1    3    3    0    0  0.27406721032E+01  0.31543379954E+01  0.98700159297E+01  0.10718131669E+02  0.51100000000E-03 0.  1.
        -11    1    3    3    0    0 -0.11913192395E+02  0.37170778066E+01 -0.22962857077E+02  0.26134912012E+02  0.51100000000E-03 0. -1.
        -12    1    3    3    0    0  0.10798684948E+02  0.18838088255E+02 -0.56980542971E+01  0.22448897266E+02  0.00000000000E+00 0.  1.
</event>
<event>
 7    1  0.6180395E-013  0.5930201E+02  0.7816164E-02  0.1266605E+00
        -11   -1    0    0    0    0  0.00000000000E+00  0.00000000000E+00  0.45593999997E+02  0.45594000000E+02  0.51100000000E-03 0.  1.
         11   -1    0    0    0    0 -0.00000000000E+00 -0.00000000000E+00 -0.45593999997E+02  0.45594000000E+02  0.51100000000E-03 0. -1.
    9900012    2    1    2    0    0 -0.11452762563E+02 -0.13715935851E+02 -0.26408785729E+02  0.59302005735E+02  0.50000112539E+02 0.  0.
        -12    1    1    2    0    0  0.11452762563E+02  0.13715935851E+02  0.26408785729E+02  0.31885994265E+02  0.00000000000E+00 0.  1.
         11    1    3    3    0    0  0.12618747795E+02 -0.76560519769E+01  0.71272190450E+01  0.16390399000E+02  0.51100000000E-03 0. -1.
        -11    1    3    3    0    0 -0.80924667270E+01  0.21743523533E+01 -0.73309733399E+01  0.11133687451E+02  0.51100000000E-03 0.  1.
         12    1    3    3    0    0 -0.15979043631E+02 -0.82342362275E+01 -0.26205031434E+02  0.31777919285E+02  0.00000000000E+00 0. -1.
</event>
<event>
 7    1  0.6180395E-013  0.5930192E+02  0.7816164E-02  0.1266605E+00
        -11   -1    0    0    0    0  0.00000000000E+00  0.00000000000E+00  0.45593999997E+02  0.45594000000E+02  0.51100000000E-03 0.  1.
         11   -1    0    0    0    0 -0.00000000000E+00 -0.00000000000E+00 -0.45593999997E+02  0.45594000000E+02  0.51100000000E-03 0. -1.
    9900012    2    1    2    0    0 -0.15886643829E+02 -0.13509441412E+01 -0.27613610717E+02  0.59301921549E+02  0.49999959003E+02 0.  0.
        -12    1    1    2    0    0  0.15886643829E+02  0.13509441412E+01  0.27613610717E+02  0.31886078451E+02  0.00000000000E+00 0.  1.
         11    1    3    3    0    0 -0.25726621220E+02 -0.71512234626E+01 -0.18489779857E+02  0.32478777622E+02  0.51100000000E-03 0. -1.
        -11    1    3    3    0    0  0.96812152965E+01  0.80737845855E+01 -0.15542413123E+02  0.20011959752E+02  0.51100000000E-03 0.  1.
         12    1    3    3    0    0  0.15876209485E+00 -0.22735052640E+01  0.64185822636E+01  0.68111841748E+01  0.00000000000E+00 0. -1.
</event>
<event>
 7    1  0.6180395E-013  0.5930194E+02  0.7816164E-02  0.1266605E+00
        -11   -1    0    0    0    0  0.00000000000E+00  0.00000000000E+00  0.45593999997E+02  0.45594000000E+02  0.51100000000E-03 0. -1.
         11   -1    0    0    0    0 -0.00000000000E+00 -0.00000000000E+00 -0.45593999997E+02  0.45594000000E+02  0.51100000000E-03 0.  1.
    9900012    2    1    2    0    0  0.24685803281E+02  0.94476663389E+01  0.17834608466E+02  0.59301944395E+02  0.50000000670E+02 0.  0.
        -12    1    1    2    0    0 -0.24685803281E+02 -0.94476663389E+01 -0.17834608466E+02  0.31886055605E+02  0.00000000000E+00 0.  1.
         11    1    3    3    0    0 -0.66900768024E+01 -0.42395365873E+01  0.13512515875E+02  0.15662658894E+02  0.51100000000E-03 0. -1.
        -11    1    3    3    0    0  0.15781766962E+02  0.10206257644E+02 -0.10769120053E+02  0.21661159030E+02  0.51100000000E-03 0.  1.
         12    1    3    3    0    0  0.15594113122E+02  0.34809452820E+01  0.15091212644E+02  0.21978126471E+02  0.00000000000E+00 0. -1.
</event>
<event>
 7    1  0.6180395E-013  0.5930194E+02  0.7816164E-02  0.1266605E+00
        -11   -1    0    0    0    0  0.00000000000E+00  0.00000000000E+00  0.45593999997E+02  0.45594000000E+02  0.51100000000E-03 0. -1.
         11   -1    0    0    0    0 -0.00000000000E+00 -0.00000000000E+00 -0.45593999997E+02  0.45594000000E+02  0.51100000000E-03 0.  1.
    9900012    2    1    2    0    0  0.22594012839E+02 -0.13233120990E+02  0.18196587604E+02  0.59301941797E+02  0.49999995931E+02 0.  0.
        -12    1    1    2    0    0 -0.22594012839E+02  0.13233120990E+02 -0.18196587604E+02  0.31886058203E+02  0.00000000000E+00 0.  1.
         11    1    3    3    0    0  0.55844428084E+01 -0.75847024947E+01  0.14015287172E+02  0.16886147820E+02  0.51100000000E-03 0. -1.
        -11    1    3    3    0    0 -0.13402064789E+01 -0.14913327183E+02 -0.94910322807E+01  0.17728033593E+02  0.51100000000E-03 0.  1.
        -12    1    3    3    0    0  0.18349776510E+02  0.92649086878E+01  0.13672332713E+02  0.24687760384E+02  0.00000000000E+00 0.  1.
</event>
<event>
 7    1  0.6180395E-013  0.5930192E+02  0.7816164E-02  0.1266605E+00
        -11   -1    0    0    0    0  0.00000000000E+00  0.00000000000E+00  0.45593999997E+02  0.45594000000E+02  0.51100000000E-03 0.  1.
         11   -1    0    0    0    0 -0.00000000000E+00 -0.00000000000E+00 -0.45593999997E+02  0.45594000000E+02  0.51100000000E-03 0. -1.
    9900012    2    1    2    0    0 -0.24489202328E+02  0.96049869122E+01 -0.18020681896E+02  0.59301924979E+02  0.49999965260E+02 0.  0.
        -12    1    1    2    0    0  0.24489202328E+02 -0.96049869122E+01  0.18020681896E+02  0.31886075021E+02  0.00000000000E+00 0.  1.
         11    1    3    3    0    0 -0.19781985002E+02  0.21597085568E+01 -0.29331500772E+02  0.35444720474E+02  0.51100000000E-03 0. -1.
        -11    1    3    3    0    0 -0.98264992520E+01 -0.10508251099E+01  0.16659749036E+01  0.10021965556E+02  0.51100000000E-03 0.  1.
         12    1    3    3    0    0  0.51192819261E+01  0.84961034653E+01  0.96448439730E+01  0.13835238950E+02  0.00000000000E+00 0. -1.
</event>
<event>
 7    1  0.6180395E-013  0.5930188E+02  0.7816164E-02  0.1266605E+00
        -11   -1    0    0    0    0  0.00000000000E+00  0.00000000000E+00  0.45593999997E+02  0.45594000000E+02  0.51100000000E-03 0.  1.
         11   -1    0    0    0    0 -0.00000000000E+00 -0.00000000000E+00 -0.45593999997E+02  0.45594000000E+02  0.51100000000E-03 0. -1.
    9900012    2    1    2    0    0 -0.15180634084E+02  0.33028296339E+01 -0.27845363679E+02  0.59301880556E+02  0.49999884243E+02 0.  0.
        -12    1    1    2    0    0  0.15180634084E+02 -0.33028296339E+01  0.27845363679E+02  0.31886119444E+02  0.00000000000E+00 0.  1.
         11    1    3    3    0    0 -0.21443006864E+02  0.16963748689E+02 -0.28170710197E+02  0.39257613609E+02  0.51100000000E-03 0. -1.
        -11    1    3    3    0    0  0.56447799071E+01 -0.64838440848E+01  0.63222331057E+01  0.10671195154E+02  0.51100000000E-03 0.  1.
         12    1    3    3    0    0  0.61759287321E+00 -0.71770749707E+01 -0.59968865875E+01  0.93730717930E+01  0.00000000000E+00 0. -1.
</event>
<event>
 7    1  0.6180395E-013  0.5930194E+02  0.7816164E-02  0.1266605E+00
        -11   -1    0    0    0    0  0.00000000000E+00  0.00000000000E+00  0.45593999997E+02  0.45594000000E+02  0.51100000000E-03 0.  1.
         11   -1    0    0    0    0 -0.00000000000E+00 -0.00000000000E+00 -0.45593999997E+02  0.45594000000E+02  0.51100000000E-03 0. -1.
    9900012    2    1    2    0    0 -0.22448750706E+02 -0.13255351115E+02 -0.18359464955E+02  0.59301941998E+02  0.49999996299E+02 0.  0.
        -12    1    1    2    0    0  0.22448750706E+02  0.13255351115E+02  0.18359464955E+02  0.31886058002E+02  0.00000000000E+00 0.  1.
         11    1    3    3    0    0  0.10572828211E+02 -0.11334277960E+02 -0.29129434030E+01  0.15771359890E+02  0.51100000000E-03 0. -1.
        -11    1    3    3    0    0 -0.19069069427E+02  0.56464959790E+01  0.19478538323E+01  0.19982653990E+02  0.51100000000E-03 0.  1.
         12    1    3    3    0    0 -0.13952509490E+02 -0.75675691342E+01 -0.17394375384E+02  0.23547928119E+02  0.00000000000E+00 0. -1.
</event>
<event>
 7    1  0.6180395E-013  0.5930195E+02  0.7816164E-02  0.1266605E+00
        -11   -1    0    0    0    0  0.00000000000E+00  0.00000000000E+00  0.45593999997E+02  0.45594000000E+02  0.51100000000E-03 0. -1.
         11   -1    0    0    0    0 -0.00000000000E+00 -0.00000000000E+00 -0.45593999997E+02  0.45594000000E+02  0.51100000000E-03 0.  1.
    9900012    2    1    2    0    0 -0.42899303152E+01  0.26722001412E+02  0.16859760551E+02  0.59301946820E+02  0.50000005093E+02 0.  0.
        -12    1    1    2    0    0  0.42899303152E+01 -0.26722001412E+02 -0.16859760551E+02  0.31886053180E+02  0.00000000000E+00 0.  1.
         11    1    3    3    0    0 -0.87716192102E+01  0.14099835941E+02  0.30499405610E+01  0.16883388725E+02  0.51100000000E-03 0. -1.
        -11    1    3    3    0    0  0.34082562154E+01  0.14244591871E+01  0.25750241481E+02  0.26013846909E+02  0.51100000000E-03 0.  1.
        -12    1    3    3    0    0  0.10734326795E+01  0.11197706283E+02 -0.11940421492E+02  0.16404711187E+02  0.00000000000E+00 0.  1.
</event>
<event>
 7    1  0.6180395E-013  0.5930196E+02  0.7816164E-02  0.1266605E+00
        -11   -1    0    0    0    0  0.00000000000E+00  0.00000000000E+00  0.45593999997E+02  0.45594000000E+02  0.51100000000E-03 0.  1.
         11   -1    0    0    0    0 -0.00000000000E+00 -0.00000000000E+00 -0.45593999997E+02  0.45594000000E+02  0.51100000000E-03 0. -1.
    9900012    2    1    2    0    0 -0.35284870335E+01 -0.31344119526E+02 -0.46706948855E+01  0.59301961671E+02  0.50000032176E+02 0.  0.
        -12    1    1    2    0    0  0.35284870335E+01  0.31344119526E+02  0.46706948855E+01  0.31886038329E+02  0.00000000000E+00 0.  1.
         11    1    3    3    0    0  0.15222864008E-01 -0.34860012101E+02 -0.42800113811E+01  0.35121776338E+02  0.51100000000E-03 0. -1.
        -11    1    3    3    0    0 -0.74916860013E+01  0.12252407844E+02  0.13924085872E+01  0.14428640236E+02  0.51100000000E-03 0.  1.
        -12    1    3    3    0    0  0.39479761039E+01 -0.87365152696E+01 -0.17830920916E+01  0.97515450971E+01  0.00000000000E+00 0.  1.
</event>
<event>
 7    1  0.6180395E-013  0.5930187E+02  0.7816164E-02  0.1266605E+00
        -11   -1    0    0    0    0  0.00000000000E+00  0.00000000000E+00  0.45593999997E+02  0.45594000000E+02  0.51100000000E-03 0. -1.
         11   -1    0    0    0    0 -0.00000000000E+00 -0.00000000000E+00 -0.45593999997E+02  0.45594000000E+02  0.51100000000E-03 0.  1.
    9900012    2    1    2    0    0  0.29461502403E+02  0.98718836289E+01 -0.71617841000E+01  0.59301868818E+02  0.49999862836E+02 0.  0.
        -12    1    1    2    0    0 -0.29461502403E+02 -0.98718836289E+01  0.71617841000E+01  0.31886131182E+02  0.00000000000E+00 0.  1.
         11    1    3    3    0    0  0.10620415907E+02  0.68434985847E+00 -0.19012987284E+01  0.10810943802E+02  0.51100000000E-03 0. -1.
        -11    1    3    3    0    0 -0.73899408408E+01  0.18433318019E+02 -0.57455957851E+01  0.20673904083E+02  0.51100000000E-03 0.  1.
        -12    1    3    3    0    0  0.26231027337E+02 -0.92457842490E+01  0.48511041349E+00  0.27817020934E+02  0.00000000000E+00 0.  1.
</event>
<event>
 7    1  0.6180395E-013  0.5930196E+02  0.7816164E-02  0.1266605E+00
        -11   -1    0    0    0    0  0.00000000000E+00  0.00000000000E+00  0.45593999997E+02  0.45594000000E+02  0.51100000000E-03 0.  1.
         11   -1    0    0    0    0 -0.00000000000E+00 -0.00000000000E+00 -0.45593999997E+02  0.45594000000E+02  0.51100000000E-03 0. -1.
    9900012    2    1    2    0    0  0.97800311680E+01 -0.23395783245E+01 -0.30258827832E+02  0.59301963900E+02  0.50000036242E+02 0.  0.
        -12    1    1    2    0    0 -0.97800311680E+01  0.23395783245E+01  0.30258827832E+02  0.31886036100E+02  0.00000000000E+00 0.  1.
         11    1    3    3    0    0  0.94340632027E+01 -0.12219138385E+01 -0.21364940888E+02  0.23387075947E+02  0.51100000000E-03 0. -1.
        -11    1    3    3    0    0  0.17185845406E+01  0.13272902904E+02  0.64302507185E+01  0.14848286396E+02  0.51100000000E-03 0.  1.
        -12    1    3    3    0    0 -0.13726165753E+01 -0.14390567390E+02 -0.15324137663E+02  0.21066601557E+02  0.00000000000E+00 0.  1.
</event>
<event>
 7    1  0.6180395E-013  0.5930196E+02  0.7816164E-02  0.1266605E+00
        -11   -1    0    0    0    0  0.00000000000E+00  0.00000000000E+00  0.45593999997E+02  0.45594000000E+02  0.51100000000E-03 0.  1.
         11   -1    0    0    0    0 -0.00000000000E+00 -0.00000000000E+00 -0.45593999997E+02  0.45594000000E+02  0.51100000000E-03 0. -1.
    9900012    2    1    2    0    0 -0.16236793812E+02 -0.32922878067E+01 -0.27244203293E+02  0.59301964728E+02  0.50000037752E+02 0.  0.
        -12    1    1    2    0    0  0.16236793812E+02  0.32922878067E+01  0.27244203293E+02  0.31886035272E+02  0.00000000000E+00 0.  1.
         11    1    3    3    0    0 -0.17312642395E+02  0.12039215722E+02 -0.21280132912E+02  0.29958544006E+02  0.51100000000E-03 0. -1.
        -11    1    3    3    0    0 -0.69240998636E+01 -0.34861673440E+01  0.67002075594E+01  0.10246428806E+02  0.51100000000E-03 0.  1.
        -12    1    3    3    0    0  0.79999484469E+01 -0.11845336185E+02 -0.12664277941E+02  0.19096991916E+02  0.00000000000E+00 0.  1.
</event>
<event>
 7    1  0.6180395E-013  0.5930195E+02  0.7816164E-02  0.1266605E+00
        -11   -1    0    0    0    0  0.00000000000E+00  0.00000000000E+00  0.45593999997E+02  0.45594000000E+02  0.51100000000E-03 0. -1.
         11   -1    0    0    0    0 -0.00000000000E+00 -0.00000000000E+00 -0.45593999997E+02  0.45594000000E+02  0.51100000000E-03 0.  1.
    9900012    2    1    2    0    0  0.18026768762E+02 -0.19852056409E+02  0.17252588646E+02  0.59301947396E+02  0.50000006143E+02 0.  0.
        -12    1    1    2    0    0 -0.18026768762E+02  0.19852056409E+02 -0.17252588646E+02  0.31886052604E+02  0.00000000000E+00 0.  1.
         11    1    3    3    0    0  0.65233062814E+01 -0.37851020364E+01  0.27114860003E+02  0.28144202876E+02  0.51100000000E-03 0. -1.
        -11    1    3    3    0    0  0.55024969653E+01 -0.20495124657E+02 -0.38258875890E+01  0.21563047643E+02  0.51100000000E-03 0.  1.
         12    1    3    3    0    0  0.60009655154E+01  0.44281702835E+01 -0.60363837681E+01  0.95946968776E+01  0.00000000000E+00 0. -1.
</event>
<event>
 7    1  0.6180395E-013  0.5930193E+02  0.7816164E-02  0.1266605E+00
        -11   -1    0    0    0    0  0.00000000000E+00  0.00000000000E+00  0.45593999997E+02  0.45594000000E+02  0.51100000000E-03 0.  1.
         11   -1    0    0    0    0 -0.00000000000E+00 -0.00000000000E+00 -0.45593999997E+02  0.45594000000E+02  0.51100000000E-03 0. -1.
    9900012    2    1    2    0    0 -0.29051590989E+01 -0.18065787596E+01 -0.31702019374E+02  0.59301926102E+02  0.49999967308E+02 0.  0.
        -12    1    1    2    0    0  0.29051590989E+01  0.18065787596E+01  0.31702019374E+02  0.31886073898E+02  0.00000000000E+00 0.  1.
         11    1    3    3    0    0  0.38580943247E+01 -0.11385325567E+01 -0.21477631531E+01  0.45600476998E+01  0.51100000000E-03 0. -1.
        -11    1    3    3    0    0 -0.25518901017E+02  0.46406458134E+01 -0.12283953296E+02  0.28699223186E+02  0.51100000000E-03 0.  1.
        -12    1    3    3    0    0  0.18755647593E+02 -0.53086920163E+01 -0.17270302926E+02  0.26042655216E+02  0.00000000000E+00 0.  1.
</event>
<event>
 7    1  0.6180395E-013  0.5930195E+02  0.7816164E-02  0.1266605E+00
        -11   -1    0    0    0    0  0.00000000000E+00  0.00000000000E+00  0.45593999997E+02  0.45594000000E+02  0.51100000000E-03 0.  1.
         11   -1    0    0    0    0 -0.00000000000E+00 -0.00000000000E+00 -0.45593999997E+02  0.45594000000E+02  0.51100000000E-03 0. -1.
    9900012    2    1    2    0    0 -0.37403324434E+01 -0.21679574138E+02 -0.23080859433E+02  0.59301951425E+02  0.50000013490E+02 0.  0.
        -12    1    1    2    0    0  0.37403324434E+01  0.21679574138E+02  0.23080859433E+02  0.31886048575E+02  0.00000000000E+00 0.  1.
         11    1    3    3    0    0  0.59966747776E+01  0.13148789741E+02  0.24795067400E+01  0.14662835128E+02  0.51100000000E-03 0. -1.
        -11    1    3    3    0    0 -0.15149152962E+01 -0.15727423730E+02 -0.11205847728E+02  0.19370540754E+02  0.51100000000E-03 0.  1.
         12    1    3    3    0    0 -0.82220919248E+01 -0.19100940149E+02 -0.14354518445E+02  0.25268575543E+02  0.00000000000E+00 0. -1.
</event>
<event>
 7    1  0.6180395E-013  0.5930192E+02  0.7816164E-02  0.1266605E+00
        -11   -1    0    0    0    0  0.00000000000E+00  0.00000000000E+00  0.45593999997E+02  0.45594000000E+02  0.51100000000E-03 0.  1.
         11   -1    0    0    0    0 -0.00000000000E+00 -0.00000000000E+00 -0.45593999997E+02  0.45594000000E+02  0.51100000000E-03 0. -1.
    9900012    2    1    2    0    0  0.25343452010E+02  0.19272070265E+02 -0.17375001251E+01  0.59301919044E+02  0.49999954435E+02 0.  0.
        -12    1    1    2    0    0 -0.25343452010E+02 -0.19272070265E+02  0.17375001251E+01  0.31886080956E+02  0.00000000000E+00 0.  1.
         11    1    3    3    0    0 -0.38977331742E+00 -0.37012900621E+01 -0.78647327582E+01  0.87008903557E+01  0.51100000000E-03 0. -1.
        -11    1    3    3    0    0 -0.41515687469E+00  0.12533854748E+02  0.16386681101E+02  0.20634756791E+02  0.51100000000E-03 0.  1.
        -12    1    3    3    0    0  0.26148382202E+02  0.10439505579E+02 -0.10259448468E+02  0.29966271896E+02  0.00000000000E+00 0.  1.
</event>
<event>
 7    1  0.6180395E-013  0.5930204E+02  0.7816164E-02  0.1266604E+00
        -11   -1    0    0    0    0  0.00000000000E+00  0.00000000000E+00  0.45593999997E+02  0.45594000000E+02  0.51100000000E-03 0. -1.
         11   -1    0    0    0    0 -0.00000000000E+00 -0.00000000000E+00 -0.45593999997E+02  0.45594000000E+02  0.51100000000E-03 0.  1.
    9900012    2    1    2    0    0  0.80758250874E+01  0.19855663645E+02  0.23606096777E+02  0.59302044868E+02  0.50000183908E+02 0.  0.
        -12    1    1    2    0    0 -0.80758250874E+01 -0.19855663645E+02 -0.23606096777E+02  0.31885955132E+02  0.00000000000E+00 0.  1.
         11    1    3    3    0    0 -0.91595797522E+01  0.66550549555E+01  0.10712077978E+02  0.15586413076E+02  0.51100000000E-03 0. -1.
        -11    1    3    3    0    0  0.10829731765E+02  0.14521717586E+02 -0.94514376643E+01  0.20432646572E+02  0.51100000000E-03 0.  1.
        -12    1    3    3    0    0  0.64056730747E+01 -0.13211088957E+01  0.22345456463E+02  0.23282985221E+02  0.00000000000E+00 0.  1.
</event>
<event>
 7    1  0.6180395E-013  0.5930195E+02  0.7816164E-02  0.1266605E+00
        -11   -1    0    0    0    0  0.00000000000E+00  0.00000000000E+00  0.45593999997E+02  0.45594000000E+02  0.51100000000E-03 0. -1.
         11   -1    0    0    0    0 -0.00000000000E+00 -0.00000000000E+00 -0.45593999997E+02  0.45594000000E+02  0.51100000000E-03 0.  1.
    9900012    2    1    2    0    0 -0.25659998749E+02  0.17250975676E+02  0.77902691014E+01  0.59301953048E+02  0.50000016451E+02 0.  0.
        -12    1    1    2    0    0  0.25659998749E+02 -0.17250975676E+02 -0.77902691014E+01  0.31886046952E+02  0.00000000000E+00 0.  1.
         11    1    3    3    0    0  0.80329364234E+01  0.88729340121E+01  0.75396925228E+01  0.14145811718E+02  0.51100000000E-03 0. -1.
        -11    1    3    3    0    0 -0.16320937478E+02  0.76597706328E+01 -0.13878648375E+02  0.22752185989E+02  0.51100000000E-03 0.  1.
         12    1    3    3    0    0 -0.17371997694E+02  0.71827103080E+00  0.14129224953E+02  0.22403955341E+02  0.00000000000E+00 0. -1.
</event>
<event>
 7    1  0.6180395E-013  0.5930190E+02  0.7816164E-02  0.1266605E+00
        -11   -1    0    0    0    0  0.00000000000E+00  0.00000000000E+00  0.45593999997E+02  0.45594000000E+02  0.51100000000E-03 0.  1.
         11   -1    0    0    0    0 -0.00000000000E+00 -0.00000000000E+00 -0.45593999997E+02  0.45594000000E+02  0.51100000000E-03 0. -1.
    9900012    2    1    2    0    0  0.31072882632E+02 -0.59037766937E+01  0.40428297082E+01  0.59301904498E+02  0.49999927907E+02 0.  0.
        -12    1    1    2    0    0 -0.31072882632E+02  0.59037766937E+01 -0.40428297082E+01  0.31886095502E+02  0.00000000000E+00 0.  1.
         11    1    3    3    0    0  0.17224013635E+02 -0.20596200060E+02 -0.45033689701E+01  0.27224078221E+02  0.51100000000E-03 0.  1.
        -11    1    3    3    0    0  0.16999346872E+02  0.11708284145E+02 -0.19370387438E+01  0.20731951935E+02  0.51100000000E-03 0. -1.
        -12    1    3    3    0    0 -0.31504778748E+01  0.29841392218E+01  0.10483237422E+02  0.11345874342E+02  0.00000000000E+00 0.  1.
</event>
<event>
 7    1  0.6180395E-013  0.5930196E+02  0.7816164E-02  0.1266605E+00
        -11   -1    0    0    0    0  0.00000000000E+00  0.00000000000E+00  0.45593999997E+02  0.45594000000E+02  0.51100000000E-03 0.  1.
         11   -1    0    0    0    0 -0.00000000000E+00 -0.00000000000E+00 -0.45593999997E+02  0.45594000000E+02  0.51100000000E-03 0. -1.
    9900012    2    1    2    0    0 -0.23100106583E+02 -0.21636807253E+02  0.38669077996E+01  0.59301963429E+02  0.50000035383E+02 0.  0.
        -12    1    1    2    0    0  0.23100106583E+02  0.21636807253E+02 -0.38669077996E+01  0.31886036571E+02  0.00000000000E+00 0.  1.
         11    1    3    3    0    0 -0.12055435299E+02 -0.32437072641E+01 -0.18925726108E+02  0.22672412004E+02  0.51100000000E-03 0. -1.
        -11    1    3    3    0    0 -0.71363989968E+00 -0.17886524365E+02  0.11306050401E+02  0.21172241537E+02  0.51100000000E-03 0.  1.
        -12    1    3    3    0    0 -0.10331031384E+02 -0.50657562429E+00  0.11486583508E+02  0.15457309889E+02  0.00000000000E+00 0.  1.
</event>
<event>
 7    1  0.6180395E-013  0.5930187E+02  0.7816164E-02  0.1266605E+00
        -11   -1    0    0    0    0  0.00000000000E+00  0.00000000000E+00  0.45593999997E+02  0.45594000000E+02  0.51100000000E-03 0.  1.
         11   -1    0    0    0    0 -0.00000000000E+00 -0.00000000000E+00 -0.45593999997E+02  0.45594000000E+02  0.51100000000E-03 0. -1.
    9900012    2    1    2    0    0  0.21688818053E+02 -0.22916514637E+02  0.45993230716E+01  0.59301870659E+02  0.49999866192E+02 0.  0.
        -12    1    1    2    0    0 -0.21688818053E+02  0.22916514637E+02 -0.45993230716E+01  0.31886129341E+02  0.00000000000E+00 0.  1.
         11    1    3    3    0    0  0.55780166988E+01 -0.15509960595E+02 -0.25356567668E+01  0.16676411588E+02  0.51100000000E-03 0. -1.
        -11    1    3    3    0    0  0.25257126367E+01  0.13338078317E+02  0.11072021037E+02  0.17517796882E+02  0.51100000000E-03 0.  1.
        -12    1    3    3    0    0  0.13585088717E+02 -0.20744632360E+02 -0.39370411982E+01  0.25107662189E+02  0.00000000000E+00 0.  1.
</event>
<event>
 7    1  0.6269115E-013  0.5930198E+02  0.7816164E-02  0.1266605E+00
        -11   -1    0    0    0    0  0.00000000000E+00  0.00000000000E+00  0.45593999997E+02  0.45594000000E+02  0.51100000000E-03 0.  1.
         11   -1    0    0    0    0 -0.00000000000E+00 -0.00000000000E+00 -0.45593999997E+02  0.45594000000E+02  0.51100000000E-03 0. -1.
    9900012    2    1    2    0    0  0.21837113999E+02 -0.94973041078E+01 -0.21205183802E+02  0.59301981854E+02  0.50000068986E+02 0.  0.
        -12    1    1    2    0    0 -0.21837113999E+02  0.94973041078E+01  0.21205183802E+02  0.31886018146E+02  0.00000000000E+00 0.  1.
         11    1    3    3    0    0  0.22130782016E+02 -0.10536602722E+02 -0.36276076203E+01  0.24778035573E+02  0.51100000000E-03 0. -1.
        -11    1    3    3    0    0 -0.11006500222E+02  0.38371696134E+01  0.21962184871E+01  0.11861293930E+02  0.51100000000E-03 0.  1.
         12    1    3    3    0    0  0.10712832205E+02 -0.27978709994E+01 -0.19773794669E+02  0.22662652351E+02  0.00000000000E+00 0. -1.
</event>
<event>
 7    1  0.6180395E-013  0.5930195E+02  0.7816164E-02  0.1266605E+00
        -11   -1    0    0    0    0  0.00000000000E+00  0.00000000000E+00  0.45593999997E+02  0.45594000000E+02  0.51100000000E-03 0. -1.
         11   -1    0    0    0    0 -0.00000000000E+00 -0.00000000000E+00 -0.45593999997E+02  0.45594000000E+02  0.51100000000E-03 0.  1.
    9900012    2    1    2    0    0 -0.19091884007E+02 -0.25512031891E+02  0.11645133450E+01  0.59301954503E+02  0.50000019104E+02 0.  0.
        -12    1    1    2    0    0  0.19091884007E+02  0.25512031891E+02 -0.11645133450E+01  0.31886045497E+02  0.00000000000E+00 0.  1.
         11    1    3    3    0    0 -0.94387106204E+01 -0.38206421435E+02  0.56479071318E+01  0.39758253888E+02  0.51100000000E-03 0. -1.
        -11    1    3    3    0    0 -0.18810299757E+01  0.73970351216E+01  0.22719452780E+01  0.79634250148E+01  0.51100000000E-03 0.  1.
         12    1    3    3    0    0 -0.77721434113E+01  0.52973544224E+01 -0.67553390647E+01  0.11580275600E+02  0.00000000000E+00 0. -1.
</event>
<event>
 7    1  0.6180395E-013  0.5930194E+02  0.7816164E-02  0.1266605E+00
        -11   -1    0    0    0    0  0.00000000000E+00  0.00000000000E+00  0.45593999997E+02  0.45594000000E+02  0.51100000000E-03 0.  1.
         11   -1    0    0    0    0 -0.00000000000E+00 -0.00000000000E+00 -0.45593999997E+02  0.45594000000E+02  0.51100000000E-03 0. -1.
    9900012    2    1    2    0    0 -0.29359131515E+02 -0.12199945141E+02 -0.24338374708E+01  0.59301939886E+02  0.49999992446E+02 0.  0.
        -12    1    1    2    0    0  0.29359131515E+02  0.12199945141E+02  0.24338374708E+01  0.31886060114E+02  0.00000000000E+00 0.  1.
         11    1    3    3    0    0 -0.90699725397E+01 -0.18672438890E+02  0.10119438045E+02  0.23093882363E+02  0.51100000000E-03 0. -1.
        -11    1    3    3    0    0  0.61154092212E+01  0.42794794932E+01 -0.25680928927E+01  0.78934958062E+01  0.51100000000E-03 0.  1.
         12    1    3    3    0    0 -0.26404568197E+02  0.21930142565E+01 -0.99851826235E+01  0.28314561717E+02  0.00000000000E+00 0. -1.
</event>
<event>
 7    1  0.6180395E-013  0.5930195E+02  0.7816164E-02  0.1266605E+00
        -11   -1    0    0    0    0  0.00000000000E+00  0.00000000000E+00  0.45593999997E+02  0.45594000000E+02  0.51100000000E-03 0.  1.
         11   -1    0    0    0    0 -0.00000000000E+00 -0.00000000000E+00 -0.45593999997E+02  0.45594000000E+02  0.51100000000E-03 0. -1.
    9900012    2    1    2    0    0  0.17424124784E+02 -0.24512369661E+02 -0.10595464314E+02  0.59301948898E+02  0.50000008881E+02 0.  0.
        -12    1    1    2    0    0 -0.17424124784E+02  0.24512369661E+02  0.10595464314E+02  0.31886051102E+02  0.00000000000E+00 0.  1.
         11    1    3    3    0    0  0.19554684200E+02 -0.20458525478E+02 -0.26922169837E+02  0.39060724108E+02  0.51100000000E-03 0. -1.
        -11    1    3    3    0    0 -0.13844465301E+01 -0.58810811587E+01  0.17088864830E+02  0.18125482317E+02  0.51100000000E-03 0.  1.
         12    1    3    3    0    0 -0.74611288560E+00  0.18272369753E+01 -0.76215930621E+00  0.21157424725E+01  0.00000000000E+00 0. -1.
</event>
<event>
 7    1  0.6180395E-013  0.5930194E+02  0.7816164E-02  0.1266605E+00
        -11   -1    0    0    0    0  0.00000000000E+00  0.00000000000E+00  0.45593999997E+02  0.45594000000E+02  0.51100000000E-03 0.  1.
         11   -1    0    0    0    0 -0.00000000000E+00 -0.00000000000E+00 -0.45593999997E+02  0.45594000000E+02  0.51100000000E-03 0. -1.
    9900012    2    1    2    0    0  0.53569898622E+01  0.10353307908E+02 -0.29678823999E+02  0.59301938484E+02  0.49999989890E+02 0.  0.
        -12    1    1    2    0    0 -0.53569898622E+01 -0.10353307908E+02  0.29678823999E+02  0.31886061516E+02  0.00000000000E+00 0.  1.
         11    1    3    3    0    0  0.19382760646E+02 -0.14584122539E+01 -0.28235817592E+02  0.34279436576E+02  0.51100000000E-03 0. -1.
        -11    1    3    3    0    0 -0.72662127213E+01  0.94650701282E+01  0.70951124607E+01  0.13882579765E+02  0.51100000000E-03 0.  1.
         12    1    3    3    0    0 -0.67595580625E+01  0.23466500338E+01 -0.85381188670E+01  0.11139922144E+02  0.00000000000E+00 0. -1.
</event>
<event>
 7    1  0.6180395E-013  0.5930193E+02  0.7816164E-02  0.1266605E+00
        -11   -1    0    0    0    0  0.00000000000E+00  0.00000000000E+00  0.45593999997E+02  0.45594000000E+02  0.51100000000E-03 0. -1.
         11   -1    0    0    0    0 -0.00000000000E+00 -0.00000000000E+00 -0.45593999997E+02  0.45594000000E+02  0.51100000000E-03 0.  1.
    9900012    2    1    2    0    0  0.13177306354E+02 -0.16813336280E+02  0.23672591737E+02  0.59301932836E+02  0.49999979589E+02 0.  0.
        -12    1    1    2    0    0 -0.13177306354E+02  0.16813336280E+02 -0.23672591737E+02  0.31886067164E+02  0.00000000000E+00 0.  1.
         11    1    3    3    0    0 -0.60535944431E+01 -0.45203020863E+01  0.11429771314E+02  0.13701051390E+02  0.51100000000E-03 0. -1.
        -11    1    3    3    0    0  0.19914130164E+02 -0.13087329445E+02 -0.81472638439E+01  0.25183897248E+02  0.51100000000E-03 0.  1.
        -12    1    3    3    0    0 -0.68322936770E+00  0.79429525126E+00  0.20390084267E+02  0.20416984198E+02  0.00000000000E+00 0.  1.
</event>
<event>
 7    1  0.6180395E-013  0.5930199E+02  0.7816164E-02  0.1266605E+00
        -11   -1    0    0    0    0  0.00000000000E+00  0.00000000000E+00  0.45593999997E+02  0.45594000000E+02  0.51100000000E-03 0.  1.
         11   -1    0    0    0    0 -0.00000000000E+00 -0.00000000000E+00 -0.45593999997E+02  0.45594000000E+02  0.51100000000E-03 0. -1.
    9900012    2    1    2    0    0 -0.29367893769E+02  0.19553834319E+01 -0.12264617135E+02  0.59301991434E+02  0.50000086457E+02 0.  0.
        -12    1    1    2    0    0  0.29367893769E+02 -0.19553834319E+01  0.12264617135E+02  0.31886008566E+02  0.00000000000E+00 0.  1.
         11    1    3    3    0    0 -0.26869320536E+02  0.98058386543E+01 -0.88169095944E+01  0.29930799402E+02  0.51100000000E-03 0. -1.
        -11    1    3    3    0    0 -0.17525837978E+00 -0.92736114155E+01  0.11160187988E+02  0.14511387955E+02  0.51100000000E-03 0.  1.
        -12    1    3    3    0    0 -0.23233148535E+01  0.14231561930E+01 -0.14607895528E+02  0.14859804077E+02  0.00000000000E+00 0.  1.
</event>
<event>
 7    1  0.6180395E-013  0.5930184E+02  0.7816164E-02  0.1266605E+00
        -11   -1    0    0    0    0  0.00000000000E+00  0.00000000000E+00  0.45593999997E+02  0.45594000000E+02  0.51100000000E-03 0. -1.
         11   -1    0    0    0    0 -0.00000000000E+00 -0.00000000000E+00 -0.45593999997E+02  0.45594000000E+02  0.51100000000E-03 0.  1.
    9900012    2    1    2    0    0  0.23744068744E+02 -0.14372988606E+02  0.15695974401E+02  0.59301839768E+02  0.49999809854E+02 0.  0.
        -12    1    1    2    0    0 -0.23744068744E+02  0.14372988606E+02 -0.15695974401E+02  0.31886160232E+02  0.00000000000E+00 0.  1.
         11    1    3    3    0    0  0.36473298842E+02 -0.21686358843E+02  0.12851029101E+02  0.44336763950E+02  0.51100000000E-03 0. -1.
        -11    1    3    3    0    0 -0.26056606392E+01  0.14475433988E+01  0.34354649612E+00  0.30004789141E+01  0.51100000000E-03 0.  1.
         12    1    3    3    0    0 -0.10123569459E+02  0.58658268390E+01  0.25013988038E+01  0.11964596904E+02  0.00000000000E+00 0. -1.
</event>
<event>
 7    1  0.6180395E-013  0.5930197E+02  0.7816164E-02  0.1266605E+00
        -11   -1    0    0    0    0  0.00000000000E+00  0.00000000000E+00  0.45593999997E+02  0.45594000000E+02  0.51100000000E-03 0. -1.
         11   -1    0    0    0    0 -0.00000000000E+00 -0.00000000000E+00 -0.45593999997E+02  0.45594000000E+02  0.51100000000E-03 0.  1.
    9900012    2    1    2    0    0 -0.17109138361E+02 -0.12977985382E+02  0.23570494461E+02  0.59301969687E+02  0.50000046796E+02 0.  0.
        -12    1    1    2    0    0  0.17109138361E+02  0.12977985382E+02 -0.23570494461E+02  0.31886030313E+02  0.00000000000E+00 0.  1.
         11    1    3    3    0    0 -0.13702884912E+02  0.59321644389E+01  0.17184268715E+02  0.22765296426E+02  0.51100000000E-03 0. -1.
        -11    1    3    3    0    0  0.43691062693E+01 -0.19877771030E+02 -0.65777570876E+01  0.21388823233E+02  0.51100000000E-03 0.  1.
        -12    1    3    3    0    0 -0.77753597182E+01  0.96762120943E+00  0.12963982834E+02  0.15147850028E+02  0.00000000000E+00 0.  1.
</event>
<event>
 7    1  0.6180395E-013  0.5930194E+02  0.7816164E-02  0.1266605E+00
        -11   -1    0    0    0    0  0.00000000000E+00  0.00000000000E+00  0.45593999997E+02  0.45594000000E+02  0.51100000000E-03 0. -1.
         11   -1    0    0    0    0 -0.00000000000E+00 -0.00000000000E+00 -0.45593999997E+02  0.45594000000E+02  0.51100000000E-03 0.  1.
    9900012    2    1    2    0    0  0.11983584268E+02  0.59337629013E+01  0.28946592608E+02  0.59301936310E+02  0.49999985924E+02 0.  0.
        -12    1    1    2    0    0 -0.11983584268E+02 -0.59337629013E+01 -0.28946592608E+02  0.31886063690E+02  0.00000000000E+00 0.  1.
         11    1    3    3    0    0 -0.39132202506E+01  0.20591086907E+02  0.29436130130E+02  0.36135742833E+02  0.51100000000E-03 0. -1.
        -11    1    3    3    0    0  0.83425153377E+01 -0.66158080623E+01 -0.43150624365E+01  0.11488526562E+02  0.51100000000E-03 0.  1.
         12    1    3    3    0    0  0.75542891811E+01 -0.80415159438E+01  0.38255249137E+01  0.11677666915E+02  0.00000000000E+00 0. -1.
</event>
<event>
 7    1  0.6180395E-013  0.5930197E+02  0.7816164E-02  0.1266605E+00
        -11   -1    0    0    0    0  0.00000000000E+00  0.00000000000E+00  0.45593999997E+02  0.45594000000E+02  0.51100000000E-03 0.  1.
         11   -1    0    0    0    0 -0.00000000000E+00 -0.00000000000E+00 -0.45593999997E+02  0.45594000000E+02  0.51100000000E-03 0. -1.
    9900012    2    1    2    0    0 -0.18472269258E+02 -0.14271801618E+02 -0.21721191247E+02  0.59301965406E+02  0.50000038989E+02 0.  0.
        -12    1    1    2    0    0  0.18472269258E+02  0.14271801618E+02  0.21721191247E+02  0.31886034594E+02  0.00000000000E+00 0.  1.
         11    1    3    3    0    0 -0.11489455076E+02 -0.26677482564E+02 -0.12864905094E+02  0.31767930956E+02  0.51100000000E-03 0. -1.
        -11    1    3    3    0    0 -0.95360593901E+01  0.14653257785E+02  0.59106559407E+00  0.17492962905E+02  0.51100000000E-03 0.  1.
        -12    1    3    3    0    0  0.25532452079E+01 -0.22475768381E+01 -0.94473517469E+01  0.10041071545E+02  0.00000000000E+00 0.  1.
</event>
<event>
 7    1  0.6180395E-013  0.5930182E+02  0.7816164E-02  0.1266605E+00
        -11   -1    0    0    0    0  0.00000000000E+00  0.00000000000E+00  0.45593999997E+02  0.45594000000E+02  0.51100000000E-03 0. -1.
         11   -1    0    0    0    0 -0.00000000000E+00 -0.00000000000E+00 -0.45593999997E+02  0.45594000000E+02  0.51100000000E-03 0.  1.
    9900012    2    1    2    0    0 -0.92644114782E+01  0.16988267920E+02  0.25343590869E+02  0.59301824859E+02  0.49999782665E+02 0.  0.
        -12    1    1    2    0    0  0.92644114782E+01 -0.16988267920E+02 -0.25343590869E+02  0.31886175141E+02  0.00000000000E+00 0.  1.
         11    1    3    3    0    0 -0.11421441496E+02 -0.12869672343E+02  0.53511332126E+01  0.18019778550E+02  0.51100000000E-03 0. -1.
        -11    1    3    3    0    0 -0.71935287312E+01  0.78349081481E+01  0.90425121027E+00  0.10674751136E+02  0.51100000000E-03 0.  1.
         12    1    3    3    0    0  0.93505587494E+01  0.22023032115E+02  0.19088206447E+02  0.30607295173E+02  0.00000000000E+00 0. -1.
</event>
<event>
 7    1  0.8469409E-013  0.5930197E+02  0.7816164E-02  0.1266605E+00
        -11   -1    0    0    0    0  0.00000000000E+00  0.00000000000E+00  0.45593999997E+02  0.45594000000E+02  0.51100000000E-03 0.  1.
         11   -1    0    0    0    0 -0.00000000000E+00 -0.00000000000E+00 -0.45593999997E+02  0.45594000000E+02  0.51100000000E-03 0. -1.
    9900012    2    1    2    0    0  0.22282653077E+02  0.17261655155E+02 -0.14907623853E+02  0.59301974600E+02  0.50000055757E+02 0.  0.
        -12    1    1    2    0    0 -0.22282653077E+02 -0.17261655155E+02  0.14907623853E+02  0.31886025400E+02  0.00000000000E+00 0.  1.
         11    1    3    3    0    0  0.10191563184E+02  0.19643784914E+02 -0.16623490561E+02  0.27678270982E+02  0.51100000000E-03 0. -1.
        -11    1    3    3    0    0  0.15365985845E+02 -0.13210688744E+02  0.11208809069E+01  0.20295127305E+02  0.51100000000E-03 0.  1.
        -12    1    3    3    0    0 -0.32748959515E+01  0.10828558984E+02  0.59498580046E+00  0.11328576313E+02  0.00000000000E+00 0.  1.
</event>
<event>
 7    1  0.6180395E-013  0.5930203E+02  0.7816164E-02  0.1266604E+00
        -11   -1    0    0    0    0  0.00000000000E+00  0.00000000000E+00  0.45593999997E+02  0.45594000000E+02  0.51100000000E-03 0.  1.
         11   -1    0    0    0    0 -0.00000000000E+00 -0.00000000000E+00 -0.45593999997E+02  0.45594000000E+02  0.51100000000E-03 0. -1.
    9900012    2    1    2    0    0 -0.52627576651E+01  0.23429809427E+02 -0.20977662731E+02  0.59302032528E+02  0.50000161402E+02 0.  0.
        -12    1    1    2    0    0  0.52627576651E+01 -0.23429809427E+02  0.20977662731E+02  0.31885967472E+02  0.00000000000E+00 0.  1.
         11    1    3    3    0    0  0.11838666389E+01  0.62120001898E+01 -0.19633043653E+02  0.20626363953E+02  0.51100000000E-03 0. -1.
        -11    1    3    3    0    0 -0.48247909385E+00  0.39549136149E+01  0.15742055919E+02  0.16238425188E+02  0.51100000000E-03 0.  1.
        -12    1    3    3    0    0 -0.59641452101E+01  0.13262895622E+02 -0.17086674996E+02  0.22437243386E+02  0.00000000000E+00 0.  1.
</event>
<event>
 7    1  0.6180395E-013  0.5930193E+02  0.7816164E-02  0.1266605E+00
        -11   -1    0    0    0    0  0.00000000000E+00  0.00000000000E+00  0.45593999997E+02  0.45594000000E+02  0.51100000000E-03 0. -1.
         11   -1    0    0    0    0 -0.00000000000E+00 -0.00000000000E+00 -0.45593999997E+02  0.45594000000E+02  0.51100000000E-03 0.  1.
    9900012    2    1    2    0    0 -0.37063082268E+01 -0.90395786603E+00  0.31657032770E+02  0.59301928052E+02  0.49999970864E+02 0.  0.
        -12    1    1    2    0    0  0.37063082268E+01  0.90395786603E+00 -0.31657032770E+02  0.31886071948E+02  0.00000000000E+00 0.  1.
         11    1    3    3    0    0 -0.18012576118E+02  0.48888354909E+01  0.13671286987E+02  0.23135636991E+02  0.51100000000E-03 0. -1.
        -11    1    3    3    0    0  0.14527213440E+02  0.60545999224E+01  0.18520886734E+02  0.24304759950E+02  0.51100000000E-03 0.  1.
        -12    1    3    3    0    0 -0.22094554911E+00 -0.11847393279E+02 -0.53514095059E+00  0.11861531111E+02  0.00000000000E+00 0.  1.
</event>
<event>
 7    1  0.6180395E-013  0.5930206E+02  0.7816164E-02  0.1266604E+00
        -11   -1    0    0    0    0  0.00000000000E+00  0.00000000000E+00  0.45593999997E+02  0.45594000000E+02  0.51100000000E-03 0.  1.
         11   -1    0    0    0    0 -0.00000000000E+00 -0.00000000000E+00 -0.45593999997E+02  0.45594000000E+02  0.51100000000E-03 0. -1.
    9900012    2    1    2    0    0 -0.12205406122E+02 -0.90496673380E+01 -0.28032918775E+02  0.59302063404E+02  0.50000217714E+02 0.  0.
        -12    1    1    2    0    0  0.12205406122E+02  0.90496673380E+01  0.28032918775E+02  0.31885936596E+02  0.00000000000E+00 0.  1.
         11    1    3    3    0    0 -0.64162304798E-01  0.42092369299E+00 -0.35534494871E+02  0.35537045735E+02  0.51100000000E-03 0. -1.
        -11    1    3    3    0    0 -0.14453052275E+02 -0.31891138758E+01  0.16829437620E+01  0.14896088995E+02  0.51100000000E-03 0.  1.
         12    1    3    3    0    0  0.23118084576E+01 -0.62814771551E+01  0.58186323341E+01  0.88689286746E+01  0.00000000000E+00 0. -1.
</event>
<event>
 7    1  0.6180395E-013  0.5930194E+02  0.7816164E-02  0.1266605E+00
        -11   -1    0    0    0    0  0.00000000000E+00  0.00000000000E+00  0.45593999997E+02  0.45594000000E+02  0.51100000000E-03 0. -1.
         11   -1    0    0    0    0 -0.00000000000E+00 -0.00000000000E+00 -0.45593999997E+02  0.45594000000E+02  0.51100000000E-03 0.  1.
    9900012    2    1    2    0    0  0.25747352639E+01  0.18710473972E+01  0.31726809568E+02  0.59301944656E+02  0.50000001145E+02 0.  0.
        -12    1    1    2    0    0 -0.25747352639E+01 -0.18710473972E+01 -0.31726809568E+02  0.31886055344E+02  0.00000000000E+00 0.  1.
         11    1    3    3    0    0 -0.55839477415E+01 -0.19327180013E+02  0.73684660670E+00  0.20131152545E+02  0.51100000000E-03 0. -1.
        -11    1    3    3    0    0  0.47958579672E+01  0.72189502182E+01  0.17142409125E+02  0.19208739853E+02  0.51100000000E-03 0.  1.
         12    1    3    3    0    0  0.33628250383E+01  0.13979277192E+02  0.13847553837E+02  0.19962052257E+02  0.00000000000E+00 0. -1.
</event>
<event>
 7    1  0.6180395E-013  0.5930195E+02  0.7816164E-02  0.1266605E+00
        -11   -1    0    0    0    0  0.00000000000E+00  0.00000000000E+00  0.45593999997E+02  0.45594000000E+02  0.51100000000E-03 0. -1.
         11   -1    0    0    0    0 -0.00000000000E+00 -0.00000000000E+00 -0.45593999997E+02  0.45594000000E+02  0.51100000000E-03 0.  1.
    9900012    2    1    2    0    0 -0.28684854072E+02  0.17796699845E+01  0.13810579034E+02  0.59301950203E+02  0.50000011262E+02 0.  0.
        -12    1    1    2    0    0  0.28684854072E+02 -0.17796699845E+01 -0.13810579034E+02  0.31886049797E+02  0.00000000000E+00 0.  1.
         11    1    3    3    0    0 -0.13127996438E+02 -0.14554756403E+02  0.71674942498E+01  0.20870031109E+02  0.51100000000E-03 0. -1.
        -11    1    3    3    0    0 -0.19704301759E+02  0.18426133690E+02 -0.35695287919E+01  0.27212560457E+02  0.51100000000E-03 0.  1.
        -12    1    3    3    0    0  0.41474441237E+01 -0.20917073027E+01  0.10212613576E+02  0.11219358638E+02  0.00000000000E+00 0.  1.
</event>
<event>
 7    1  0.6180395E-013  0.5930194E+02  0.7816164E-02  0.1266605E+00
        -11   -1    0    0    0    0  0.00000000000E+00  0.00000000000E+00  0.45593999997E+02  0.45594000000E+02  0.51100000000E-03 0. -1.
         11   -1    0    0    0    0 -0.00000000000E+00 -0.00000000000E+00 -0.45593999997E+02  0.45594000000E+02  0.51100000000E-03 0.  1.
    9900012    2    1    2    0    0 -0.27413470705E+02 -0.14647255388E+02  0.71189954641E+01  0.59301944068E+02  0.50000000073E+02 0.  0.
        -12    1    1    2    0    0  0.27413470705E+02  0.14647255388E+02 -0.71189954641E+01  0.31886055932E+02  0.00000000000E+00 0.  1.
         11    1    3    3    0    0  0.23052404105E+01  0.20830966984E+01  0.39135641517E+01  0.49969400473E+01  0.51100000000E-03 0. -1.
        -11    1    3    3    0    0 -0.27647072906E+02  0.45621249167E+01 -0.93013184906E+01  0.29524365360E+02  0.51100000000E-03 0.  1.
        -12    1    3    3    0    0 -0.20716382100E+01 -0.21292477003E+02  0.12506749803E+02  0.24780638660E+02  0.00000000000E+00 0.  1.
</event>
<event>
 7    1  0.6180395E-013  0.5930195E+02  0.7816164E-02  0.1266605E+00
        -11   -1    0    0    0    0  0.00000000000E+00  0.00000000000E+00  0.45593999997E+02  0.45594000000E+02  0.51100000000E-03 0.  1.
         11   -1    0    0    0    0 -0.00000000000E+00 -0.00000000000E+00 -0.45593999997E+02  0.45594000000E+02  0.51100000000E-03 0. -1.
    9900012    2    1    2    0    0  0.43152932632E+00 -0.31324267316E+02 -0.59434122212E+01  0.59301951495E+02  0.50000013618E+02 0.  0.
        -12    1    1    2    0    0 -0.43152932632E+00  0.31324267316E+02  0.59434122212E+01  0.31886048505E+02  0.00000000000E+00 0.  1.
         11    1    3    3    0    0  0.45829667925E+01 -0.14788389713E+02 -0.23179653684E+02  0.27874655157E+02  0.51100000000E-03 0. -1.
        -11    1    3    3    0    0  0.18575631503E+01 -0.18403593715E+02  0.17012083439E+02  0.25130733887E+02  0.51100000000E-03 0.  1.
         12    1    3    3    0    0 -0.60090006165E+01  0.18677161127E+01  0.22415802421E+00  0.62965624516E+01  0.00000000000E+00 0. -1.
</event>
<event>
 7    1  0.6180395E-013  0.5930194E+02  0.7816164E-02  0.1266605E+00
        -11   -1    0    0    0    0  0.00000000000E+00  0.00000000000E+00  0.45593999997E+02  0.45594000000E+02  0.51100000000E-03 0. -1.
         11   -1    0    0    0    0 -0.00000000000E+00 -0.00000000000E+00 -0.45593999997E+02  0.45594000000E+02  0.51100000000E-03 0.  1.
    9900012    2    1    2    0    0  0.41748257825E+01  0.30419085887E+02  0.86006407861E+01  0.59301937552E+02  0.49999988190E+02 0.  0.
        -12    1    1    2    0    0 -0.41748257825E+01 -0.30419085887E+02 -0.86006407861E+01  0.31886062448E+02  0.00000000000E+00 0.  1.
         11    1    3    3    0    0 -0.14419197864E+02  0.34960185329E+01  0.13617331282E+02  0.20138697181E+02  0.51100000000E-03 0.  1.
        -11    1    3    3    0    0  0.11867138340E+02  0.28539749871E+02 -0.75122323582E+01  0.31808488339E+02  0.51100000000E-03 0. -1.
         12    1    3    3    0    0  0.67268853061E+01 -0.16166825179E+01  0.24955418621E+01  0.73547520332E+01  0.00000000000E+00 0. -1.
</event>
<event>
 7    1  0.6180395E-013  0.5930193E+02  0.7816164E-02  0.1266605E+00
        -11   -1    0    0    0    0  0.00000000000E+00  0.00000000000E+00  0.45593999997E+02  0.45594000000E+02  0.51100000000E-03 0.  1.
         11   -1    0    0    0    0 -0.00000000000E+00 -0.00000000000E+00 -0.45593999997E+02  0.45594000000E+02  0.51100000000E-03 0. -1.
    9900012    2    1    2    0    0  0.20736504724E+02 -0.50734289331E+01 -0.23684998245E+02  0.59301930139E+02  0.49999974670E+02 0.  0.
        -12    1    1    2    0    0 -0.20736504724E+02  0.50734289331E+01  0.23684998245E+02  0.31886069861E+02  0.00000000000E+00 0.  1.
         11    1    3    3    0    0 -0.73558650631E+01  0.12175524575E+02 -0.26524258691E+01  0.14470228497E+02  0.51100000000E-03 0. -1.
        -11    1    3    3    0    0  0.27192407254E+02 -0.72476560096E+01 -0.20423093492E+02  0.34771515325E+02  0.51100000000E-03 0.  1.
         12    1    3    3    0    0  0.89996253282E+00 -0.10001297499E+02 -0.60947888374E+00  0.10060186317E+02  0.00000000000E+00 0. -1.
</event>
<event>
 7    1  0.6180395E-013  0.5930195E+02  0.7816164E-02  0.1266605E+00
        -11   -1    0    0    0    0  0.00000000000E+00  0.00000000000E+00  0.45593999997E+02  0.45594000000E+02  0.51100000000E-03 0.  1.
         11   -1    0    0    0    0 -0.00000000000E+00 -0.00000000000E+00 -0.45593999997E+02  0.45594000000E+02  0.51100000000E-03 0. -1.
    9900012    2    1    2    0    0  0.75788962280E+01 -0.11151038676E+02 -0.28895239691E+02  0.59301949627E+02  0.50000010212E+02 0.  0.
        -12    1    1    2    0    0 -0.75788962280E+01  0.11151038676E+02  0.28895239691E+02  0.31886050373E+02  0.00000000000E+00 0.  1.
         11    1    3    3    0    0 -0.77946433520E+01 -0.82539411445E+01 -0.22883029755E+02  0.25544413488E+02  0.51100000000E-03 0. -1.
        -11    1    3    3    0    0  0.17846296433E+02  0.97150583711E+01 -0.28129259820E+01  0.20513049709E+02  0.51100000000E-03 0.  1.
        -12    1    3    3    0    0 -0.24727568534E+01 -0.12612155903E+02 -0.31992839537E+01  0.13244486430E+02  0.00000000000E+00 0.  1.
</event>
<event>
 7    1  0.6180395E-013  0.5930197E+02  0.7816164E-02  0.1266605E+00
        -11   -1    0    0    0    0  0.00000000000E+00  0.00000000000E+00  0.45593999997E+02  0.45594000000E+02  0.51100000000E-03 0.  1.
         11   -1    0    0    0    0 -0.00000000000E+00 -0.00000000000E+00 -0.45593999997E+02  0.45594000000E+02  0.51100000000E-03 0. -1.
    9900012    2    1    2    0    0 -0.25424302260E-01 -0.81558669923E+01 -0.30825320070E+02  0.59301965907E+02  0.50000039902E+02 0.  0.
        -12    1    1    2    0    0  0.25424302260E-01  0.81558669923E+01  0.30825320070E+02  0.31886034093E+02  0.00000000000E+00 0.  1.
         11    1    3    3    0    0  0.98938492964E+01  0.81832305313E+01 -0.26919754143E+02  0.29824933851E+02  0.51100000000E-03 0. -1.
        -11    1    3    3    0    0 -0.16268105098E+02 -0.65714234274E+01 -0.17833190565E+01  0.17635619537E+02  0.51100000000E-03 0.  1.
         12    1    3    3    0    0  0.63488314996E+01 -0.97676740961E+01 -0.21222468701E+01  0.11841412519E+02  0.00000000000E+00 0. -1.
</event>
<event>
 7    1  0.6180395E-013  0.5930194E+02  0.7816164E-02  0.1266605E+00
        -11   -1    0    0    0    0  0.00000000000E+00  0.00000000000E+00  0.45593999997E+02  0.45594000000E+02  0.51100000000E-03 0.  1.
         11   -1    0    0    0    0 -0.00000000000E+00 -0.00000000000E+00 -0.45593999997E+02  0.45594000000E+02  0.51100000000E-03 0. -1.
    9900012    2    1    2    0    0  0.31570007207E+02  0.41824159698E+01  0.16009578892E+01  0.59301936829E+02  0.49999986871E+02 0.  0.
        -12    1    1    2    0    0 -0.31570007207E+02 -0.41824159698E+01 -0.16009578892E+01  0.31886063171E+02  0.00000000000E+00 0.  1.
         11    1    3    3    0    0 -0.25699431033E+00 -0.10333833905E+02 -0.48112418175E+00  0.10348219654E+02  0.51100000000E-03 0. -1.
        -11    1    3    3    0    0  0.28007210639E+02  0.24007522153E+02 -0.39130773193E+01  0.37095513773E+02  0.51100000000E-03 0.  1.
        -12    1    3    3    0    0  0.38197908785E+01 -0.94912722782E+01  0.59951593902E+01  0.11858203402E+02  0.00000000000E+00 0.  1.
</event>
<event>
 7    1  0.6180395E-013  0.5930195E+02  0.7816164E-02  0.1266605E+00
        -11   -1    0    0    0    0  0.00000000000E+00  0.00000000000E+00  0.45593999997E+02  0.45594000000E+02  0.51100000000E-03 0.  1.
         11   -1    0    0    0    0 -0.00000000000E+00 -0.00000000000E+00 -0.45593999997E+02  0.45594000000E+02  0.51100000000E-03 0. -1.
    9900012    2    1    2    0    0 -0.46127223579E+00  0.13829669772E+02 -0.28727124247E+02  0.59301949671E+02  0.50000010292E+02 0.  0.
        -12    1    1    2    0    0  0.46127223579E+00 -0.13829669772E+02  0.28727124247E+02  0.31886050329E+02  0.00000000000E+00 0.  1.
         11    1    3    3    0    0  0.60079970903E+01 -0.21417321914E+01 -0.94417360628E+01  0.11394271629E+02  0.51100000000E-03 0. -1.
        -11    1    3    3    0    0 -0.37614607570E+01  0.23720697051E+02 -0.27351257136E+02  0.36399331351E+02  0.51100000000E-03 0.  1.
        -12    1    3    3    0    0 -0.27078085690E+01 -0.77492950879E+01  0.80658689520E+01  0.11508346691E+02  0.00000000000E+00 0.  1.
</event>
<event>
 7    1  0.6180395E-013  0.5930195E+02  0.7816164E-02  0.1266605E+00
        -11   -1    0    0    0    0  0.00000000000E+00  0.00000000000E+00  0.45593999997E+02  0.45594000000E+02  0.51100000000E-03 0.  1.
         11   -1    0    0    0    0 -0.00000000000E+00 -0.00000000000E+00 -0.45593999997E+02  0.45594000000E+02  0.51100000000E-03 0. -1.
    9900012    2    1    2    0    0 -0.19336371040E+02 -0.53519698279E+01 -0.24782677613E+02  0.59301953903E+02  0.50000018010E+02 0.  0.
        -12    1    1    2    0    0  0.19336371040E+02  0.53519698279E+01  0.24782677613E+02  0.31886046097E+02  0.00000000000E+00 0.  1.
         11    1    3    3    0    0  0.49898626760E+00  0.35533895076E+01 -0.29409982497E+02  0.29628071740E+02  0.51100000000E-03 0. -1.
        -11    1    3    3    0    0 -0.19648667990E+02 -0.26827193930E+01 -0.27501502235E+01  0.20020750826E+02  0.51100000000E-03 0.  1.
        -12    1    3    3    0    0 -0.18668931774E+00 -0.62226399424E+01  0.73774551076E+01  0.96531313375E+01  0.00000000000E+00 0.  1.
</event>
<event>
 7    1  0.6180395E-013  0.5930195E+02  0.7816164E-02  0.1266605E+00
        -11   -1    0    0    0    0  0.00000000000E+00  0.00000000000E+00  0.45593999997E+02  0.45594000000E+02  0.51100000000E-03 0.  1.
         11   -1    0    0    0    0 -0.00000000000E+00 -0.00000000000E+00 -0.45593999997E+02  0.45594000000E+02  0.51100000000E-03 0. -1.
    9900012    2    1    2    0    0 -0.99787959781E+01  0.14444034760E+02 -0.26617918368E+02  0.59301951522E+02  0.50000013667E+02 0.  0.
        -12    1    1    2    0    0  0.99787959781E+01 -0.14444034760E+02  0.26617918368E+02  0.31886048478E+02  0.00000000000E+00 0.  1.
         11    1    3    3    0    0 -0.17175240557E+02  0.22305702994E+02 -0.26130601058E+02  0.38410175555E+02  0.51100000000E-03 0. -1.
        -11    1    3    3    0    0  0.71451971595E+01 -0.19853680270E+01  0.77803186742E+01  0.10748436518E+02  0.51100000000E-03 0.  1.
        -12    1    3    3    0    0  0.51247419031E-01 -0.58763002067E+01 -0.82676359839E+01  0.10143339449E+02  0.00000000000E+00 0.  1.
</event>
<event>
 7    1  0.6180395E-013  0.5930188E+02  0.7816164E-02  0.1266605E+00
        -11   -1    0    0    0    0  0.00000000000E+00  0.00000000000E+00  0.45593999997E+02  0.45594000000E+02  0.51100000000E-03 0. -1.
         11   -1    0    0    0    0 -0.00000000000E+00 -0.00000000000E+00 -0.45593999997E+02  0.45594000000E+02  0.51100000000E-03 0.  1.
    9900012    2    1    2    0    0  0.22118784703E+02  0.96130238402E+01  0.20858427060E+02  0.59301876945E+02  0.49999877657E+02 0.  0.
        -12    1    1    2    0    0 -0.22118784703E+02 -0.96130238402E+01 -0.20858427060E+02  0.31886123055E+02  0.00000000000E+00 0.  1.
         11    1    3    3    0    0  0.28162764118E+01 -0.19677645386E+01  0.11914206558E+02  0.12399670490E+02  0.51100000000E-03 0. -1.
        -11    1    3    3    0    0  0.31492789590E+02  0.63554792479E+01  0.26944460178E+01  0.32240470720E+02  0.51100000000E-03 0.  1.
        -12    1    3    3    0    0 -0.12190281299E+02  0.52253091308E+01  0.62497744842E+01  0.14661735735E+02  0.00000000000E+00 0.  1.
</event>
<event>
 7    1  0.6180395E-013  0.5930195E+02  0.7816164E-02  0.1266605E+00
        -11   -1    0    0    0    0  0.00000000000E+00  0.00000000000E+00  0.45593999997E+02  0.45594000000E+02  0.51100000000E-03 0.  1.
         11   -1    0    0    0    0 -0.00000000000E+00 -0.00000000000E+00 -0.45593999997E+02  0.45594000000E+02  0.51100000000E-03 0. -1.
    9900012    2    1    2    0    0  0.10859893088E+02  0.22830022211E+02 -0.19431238509E+02  0.59301949413E+02  0.50000009821E+02 0.  0.
        -12    1    1    2    0    0 -0.10859893088E+02 -0.22830022211E+02  0.19431238509E+02  0.31886050587E+02  0.00000000000E+00 0.  1.
         11    1    3    3    0    0  0.67265632842E+01 -0.49490634591E+01 -0.18875378616E+01  0.85616985569E+01  0.51100000000E-03 0. -1.
        -11    1    3    3    0    0 -0.48556109458E+01  0.32579833198E+02 -0.22007324129E+02  0.39614956828E+02  0.51100000000E-03 0.  1.
        -12    1    3    3    0    0  0.89889407496E+01 -0.48007475283E+01  0.44636234815E+01  0.11125294028E+02  0.00000000000E+00 0.  1.
</event>
<event>
 7    1  0.6180395E-013  0.5930197E+02  0.7816164E-02  0.1266605E+00
        -11   -1    0    0    0    0  0.00000000000E+00  0.00000000000E+00  0.45593999997E+02  0.45594000000E+02  0.51100000000E-03 0.  1.
         11   -1    0    0    0    0 -0.00000000000E+00 -0.00000000000E+00 -0.45593999997E+02  0.45594000000E+02  0.51100000000E-03 0. -1.
    9900012    2    1    2    0    0 -0.29100651793E+01 -0.93306893621E+01 -0.30351086945E+02  0.59301972934E+02  0.50000052718E+02 0.  0.
        -12    1    1    2    0    0  0.29100651793E+01  0.93306893621E+01  0.30351086945E+02  0.31886027066E+02  0.00000000000E+00 0.  1.
         11    1    3    3    0    0 -0.31493330040E+01  0.40215806071E+01 -0.38605350460E+01  0.64027447280E+01  0.51100000000E-03 0. -1.
        -11    1    3    3    0    0  0.16300636175E+02 -0.16660793490E+02 -0.19582014301E+01  0.23390753141E+02  0.51100000000E-03 0.  1.
        -12    1    3    3    0    0 -0.16061368350E+02  0.33085235206E+01 -0.24532350468E+02  0.29508475065E+02  0.00000000000E+00 0.  1.
</event>
<event>
 7    1  0.6180395E-013  0.5930193E+02  0.7816164E-02  0.1266605E+00
        -11   -1    0    0    0    0  0.00000000000E+00  0.00000000000E+00  0.45593999997E+02  0.45594000000E+02  0.51100000000E-03 0. -1.
         11   -1    0    0    0    0 -0.00000000000E+00 -0.00000000000E+00 -0.45593999997E+02  0.45594000000E+02  0.51100000000E-03 0.  1.
    9900012    2    1    2    0    0 -0.86424229713E+01 -0.18111026176E+02  0.24779436509E+02  0.59301933801E+02  0.49999981349E+02 0.  0.
        -12    1    1    2    0    0  0.86424229713E+01  0.18111026176E+02 -0.24779436509E+02  0.31886066199E+02  0.00000000000E+00 0.  1.
         11    1    3    3    0    0 -0.25963464551E+01 -0.46130564043E+01 -0.10072129301E+02  0.11378448630E+02  0.51100000000E-03 0. -1.
        -11    1    3    3    0    0  0.63362480553E+01 -0.12013861650E+02  0.32511863873E+02  0.35234957130E+02  0.51100000000E-03 0.  1.
        -12    1    3    3    0    0 -0.12382324571E+02 -0.14841081217E+01  0.23397019360E+01  0.12688528041E+02  0.00000000000E+00 0.  1.
</event>
<event>
 7    1  0.6180395E-013  0.5930200E+02  0.7816164E-02  0.1266605E+00
        -11   -1    0    0    0    0  0.00000000000E+00  0.00000000000E+00  0.45593999997E+02  0.45594000000E+02  0.51100000000E-03 0.  1.
         11   -1    0    0    0    0 -0.00000000000E+00 -0.00000000000E+00 -0.45593999997E+02  0.45594000000E+02  0.51100000000E-03 0. -1.
    9900012    2    1    2    0    0 -0.18676132635E+02 -0.25836304434E+02 -0.63577254133E+00  0.59302003642E+02  0.50000108721E+02 0.  0.
        -12    1    1    2    0    0  0.18676132635E+02  0.25836304434E+02  0.63577254133E+00  0.31885996358E+02  0.00000000000E+00 0.  1.
         11    1    3    3    0    0 -0.57185052354E+01 -0.23770993791E+02  0.63142320249E+01  0.25251355890E+02  0.51100000000E-03 0. -1.
        -11    1    3    3    0    0 -0.20971273439E+02  0.60699774933E+01 -0.56944641405E+01  0.22562487862E+02  0.51100000000E-03 0.  1.
        -12    1    3    3    0    0  0.80136460387E+01 -0.81352881362E+01 -0.12555404257E+01  0.11488159890E+02  0.00000000000E+00 0.  1.
</event>
<event>
 7    1  0.6180395E-013  0.5930194E+02  0.7816164E-02  0.1266605E+00
        -11   -1    0    0    0    0  0.00000000000E+00  0.00000000000E+00  0.45593999997E+02  0.45594000000E+02  0.51100000000E-03 0. -1.
         11   -1    0    0    0    0 -0.00000000000E+00 -0.00000000000E+00 -0.45593999997E+02  0.45594000000E+02  0.51100000000E-03 0.  1.
    9900012    2    1    2    0    0 -0.24048014796E+02  0.12816652129E+02  0.16557396828E+02  0.59301937572E+02  0.49999988227E+02 0.  0.
        -12    1    1    2    0    0  0.24048014796E+02 -0.12816652129E+02 -0.16557396828E+02  0.31886062428E+02  0.00000000000E+00 0.  1.
         11    1    3    3    0    0 -0.18404040041E+02  0.20428824627E+02  0.53103019039E+01  0.28004372374E+02  0.51100000000E-03 0. -1.
        -11    1    3    3    0    0 -0.12664187911E+01 -0.13823363310E+02 -0.38419813036E+01  0.14403125021E+02  0.51100000000E-03 0.  1.
        -12    1    3    3    0    0 -0.43775559634E+01  0.62111908121E+01  0.15089076228E+02  0.16894440178E+02  0.00000000000E+00 0.  1.
</event>
<event>
 7    1  0.6180395E-013  0.5930191E+02  0.7816164E-02  0.1266605E+00
        -11   -1    0    0    0    0  0.00000000000E+00  0.00000000000E+00  0.45593999997E+02  0.45594000000E+02  0.51100000000E-03 0. -1.
         11   -1    0    0    0    0 -0.00000000000E+00 -0.00000000000E+00 -0.45593999997E+02  0.45594000000E+02  0.51100000000E-03 0.  1.
    9900012    2    1    2    0    0 -0.26431330513E+02 -0.76158882575E+01  0.16127788653E+02  0.59301912854E+02  0.49999943146E+02 0.  0.
        -12    1    1    2    0    0  0.26431330513E+02  0.76158882575E+01 -0.16127788653E+02  0.31886087146E+02  0.00000000000E+00 0.  1.
         11    1    3    3    0    0 -0.25039774707E+02 -0.43846104607E+01  0.18113778562E+02  0.31214165059E+02  0.51100000000E-03 0. -1.
        -11    1    3    3    0    0  0.12224755459E+02  0.17662203514E+01 -0.49094603034E+01  0.13291613186E+02  0.51100000000E-03 0.  1.
        -12    1    3    3    0    0 -0.13616311265E+02 -0.49974981481E+01  0.29234703948E+01  0.14796134609E+02  0.00000000000E+00 0.  1.
</event>
<event>
 7    1  0.6180395E-013  0.5930196E+02  0.7816164E-02  0.1266605E+00
        -11   -1    0    0    0    0  0.00000000000E+00  0.00000000000E+00  0.45593999997E+02  0.45594000000E+02  0.51100000000E-03 0. -1.
         11   -1    0    0    0    0 -0.00000000000E+00 -0.00000000000E+00 -0.45593999997E+02  0.45594000000E+02  0.51100000000E-03 0.  1.
    9900012    2    1    2    0    0  0.61894645910E+01  0.31273043901E+02 -0.63757425003E+00  0.59301964692E+02  0.50000037687E+02 0.  0.
        -12    1    1    2    0    0 -0.61894645910E+01 -0.31273043901E+02  0.63757425003E+00  0.31886035308E+02  0.00000000000E+00 0.  1.
         11    1    3    3    0    0  0.76101085798E+00  0.27596110283E+02 -0.16944475141E+02  0.32391969350E+02  0.51100000000E-03 0.  1.
        -11    1    3    3    0    0 -0.65341666381E+00  0.11483489553E+02  0.91379977433E+01  0.14690149375E+02  0.51100000000E-03 0. -1.
         12    1    3    3    0    0  0.60818703968E+01 -0.78065559357E+01  0.71689031480E+01  0.12219845967E+02  0.00000000000E+00 0. -1.
</event>
<event>
 7    1  0.6180395E-013  0.5930195E+02  0.7816164E-02  0.1266605E+00
        -11   -1    0    0    0    0  0.00000000000E+00  0.00000000000E+00  0.45593999997E+02  0.45594000000E+02  0.51100000000E-03 0. -1.
         11   -1    0    0    0    0 -0.00000000000E+00 -0.00000000000E+00 -0.45593999997E+02  0.45594000000E+02  0.51100000000E-03 0.  1.
    9900012    2    1    2    0    0  0.61641180897E+01  0.22390135576E+02  0.21849614767E+02  0.59301949941E+02  0.50000010784E+02 0.  0.
        -12    1    1    2    0    0 -0.61641180897E+01 -0.22390135576E+02 -0.21849614767E+02  0.31886050059E+02  0.00000000000E+00 0.  1.
         11    1    3    3    0    0 -0.31215251440E+01 -0.70036113237E+01 -0.89994589533E+01  0.11823060201E+02  0.51100000000E-03 0. -1.
        -11    1    3    3    0    0  0.89619069981E+01  0.47463354311E+01  0.36648005351E+01  0.10783053384E+02  0.51100000000E-03 0.  1.
         12    1    3    3    0    0  0.32373623565E+00  0.24647411468E+02  0.27184273185E+02  0.36695836356E+02  0.00000000000E+00 0. -1.
</event>
<event>
 7    1  0.6180395E-013  0.5930196E+02  0.7816164E-02  0.1266605E+00
        -11   -1    0    0    0    0  0.00000000000E+00  0.00000000000E+00  0.45593999997E+02  0.45594000000E+02  0.51100000000E-03 0. -1.
         11   -1    0    0    0    0 -0.00000000000E+00 -0.00000000000E+00 -0.45593999997E+02  0.45594000000E+02  0.51100000000E-03 0.  1.
    9900012    2    1    2    0    0 -0.18749656731E+01  0.31260018897E+02  0.60012950581E+01  0.59301955716E+02  0.50000021316E+02 0.  0.
        -12    1    1    2    0    0  0.18749656731E+01 -0.31260018897E+02 -0.60012950581E+01  0.31886044284E+02  0.00000000000E+00 0.  1.
         11    1    3    3    0    0 -0.61113330287E+01  0.66627872523E+00  0.12172889868E+01  0.62669060521E+01  0.51100000000E-03 0. -1.
        -11    1    3    3    0    0  0.15512780376E+02 -0.38144886751E+01 -0.23002990354E+01  0.16139642337E+02  0.51100000000E-03 0.  1.
        -12    1    3    3    0    0 -0.11276413020E+02  0.34408228847E+02  0.70843051066E+01  0.36895407327E+02  0.00000000000E+00 0.  1.
</event>
<event>
 7    1  0.6180395E-013  0.5930192E+02  0.7816164E-02  0.1266605E+00
        -11   -1    0    0    0    0  0.00000000000E+00  0.00000000000E+00  0.45593999997E+02  0.45594000000E+02  0.51100000000E-03 0.  1.
         11   -1    0    0    0    0 -0.00000000000E+00 -0.00000000000E+00 -0.45593999997E+02  0.45594000000E+02  0.51100000000E-03 0. -1.
    9900012    2    1    2    0    0 -0.20005686650E+02 -0.23035813589E+02  0.92653067539E+01  0.59301919725E+02  0.49999955678E+02 0.  0.
        -12    1    1    2    0    0  0.20005686650E+02  0.23035813589E+02 -0.92653067539E+01  0.31886080275E+02  0.00000000000E+00 0.  1.
         11    1    3    3    0    0 -0.21046279949E+02 -0.36309545806E+02  0.11878731194E+02  0.43616892041E+02  0.51100000000E-03 0. -1.
        -11    1    3    3    0    0 -0.20791127772E+01  0.21869943500E+01 -0.28705980203E+01  0.41648514358E+01  0.51100000000E-03 0.  1.
         12    1    3    3    0    0  0.31197060760E+01  0.11086737867E+02  0.25717358058E+00  0.11520176248E+02  0.00000000000E+00 0. -1.
</event>
<event>
 7    1  0.6180395E-013  0.5930196E+02  0.7816164E-02  0.1266605E+00
        -11   -1    0    0    0    0  0.00000000000E+00  0.00000000000E+00  0.45593999997E+02  0.45594000000E+02  0.51100000000E-03 0. -1.
         11   -1    0    0    0    0 -0.00000000000E+00 -0.00000000000E+00 -0.45593999997E+02  0.45594000000E+02  0.51100000000E-03 0.  1.
    9900012    2    1    2    0    0 -0.19956814916E+02  0.13591354511E+02  0.20825951563E+02  0.59301958579E+02  0.50000026538E+02 0.  0.
        -12    1    1    2    0    0  0.19956814916E+02 -0.13591354511E+02 -0.20825951563E+02  0.31886041421E+02  0.00000000000E+00 0.  1.
         11    1    3    3    0    0 -0.10988724203E+02  0.63343412503E-01  0.16532989123E+02  0.19851846302E+02  0.51100000000E-03 0. -1.
        -11    1    3    3    0    0 -0.15995110935E+01  0.25193364044E+02  0.45457282720E+01  0.25650100845E+02  0.51100000000E-03 0.  1.
        -12    1    3    3    0    0 -0.73685796191E+01 -0.11665352946E+02 -0.25276583211E+00  0.13800011432E+02  0.00000000000E+00 0.  1.
</event>
<event>
 7    1  0.6180395E-013  0.5930196E+02  0.7816164E-02  0.1266605E+00
        -11   -1    0    0    0    0  0.00000000000E+00  0.00000000000E+00  0.45593999997E+02  0.45594000000E+02  0.51100000000E-03 0.  1.
         11   -1    0    0    0    0 -0.00000000000E+00 -0.00000000000E+00 -0.45593999997E+02  0.45594000000E+02  0.51100000000E-03 0. -1.
    9900012    2    1    2    0    0 -0.14492197818E+02  0.14652747107E+02 -0.24330900579E+02  0.59301960447E+02  0.50000029945E+02 0.  0.
        -12    1    1    2    0    0  0.14492197818E+02 -0.14652747107E+02  0.24330900579E+02  0.31886039553E+02  0.00000000000E+00 0.  1.
         11    1    3    3    0    0  0.61763085977E-01  0.10125299004E+02 -0.27692519714E+02  0.29485609083E+02  0.51100000000E-03 0. -1.
        -11    1    3    3    0    0 -0.25425120718E+01  0.89740109278E+01  0.11373397691E+02  0.14708888982E+02  0.51100000000E-03 0.  1.
        -12    1    3    3    0    0 -0.12011448832E+02 -0.44465628246E+01 -0.80117785563E+01  0.15107462383E+02  0.00000000000E+00 0.  1.
</event>
<event>
 7    1  0.6180395E-013  0.5930193E+02  0.7816164E-02  0.1266605E+00
        -11   -1    0    0    0    0  0.00000000000E+00  0.00000000000E+00  0.45593999997E+02  0.45594000000E+02  0.51100000000E-03 0.  1.
         11   -1    0    0    0    0 -0.00000000000E+00 -0.00000000000E+00 -0.45593999997E+02  0.45594000000E+02  0.51100000000E-03 0. -1.
    9900012    2    1    2    0    0 -0.16003603821E+02 -0.20907427421E+02 -0.17985712703E+02  0.59301925954E+02  0.49999967038E+02 0.  0.
        -12    1    1    2    0    0  0.16003603821E+02  0.20907427421E+02  0.17985712703E+02  0.31886074046E+02  0.00000000000E+00 0.  1.
         11    1    3    3    0    0 -0.97339517141E+01  0.86558906293E+01 -0.13277060415E+02  0.18599854626E+02  0.51100000000E-03 0. -1.
        -11    1    3    3    0    0 -0.31927445622E+01 -0.93000449409E+01  0.11092082808E+02  0.14822913176E+02  0.51100000000E-03 0.  1.
         12    1    3    3    0    0 -0.30769075447E+01 -0.20263273109E+02 -0.15800735096E+02  0.25879158153E+02  0.00000000000E+00 0. -1.
</event>
<event>
 7    1  0.6180395E-013  0.5930194E+02  0.7816164E-02  0.1266605E+00
        -11   -1    0    0    0    0  0.00000000000E+00  0.00000000000E+00  0.45593999997E+02  0.45594000000E+02  0.51100000000E-03 0.  1.
         11   -1    0    0    0    0 -0.00000000000E+00 -0.00000000000E+00 -0.45593999997E+02  0.45594000000E+02  0.51100000000E-03 0. -1.
    9900012    2    1    2    0    0  0.23563893683E+02  0.16992037422E+01 -0.21414395844E+02  0.59301941476E+02  0.49999995347E+02 0.  0.
        -12    1    1    2    0    0 -0.23563893683E+02 -0.16992037422E+01  0.21414395844E+02  0.31886058524E+02  0.00000000000E+00 0.  1.
         11    1    3    3    0    0  0.22359271151E+02 -0.16708357195E+02 -0.11793076754E+02  0.30301532406E+02  0.51100000000E-03 0. -1.
        -11    1    3    3    0    0  0.50103706378E+01  0.19840534635E+02 -0.12535279321E+02  0.23997580221E+02  0.51100000000E-03 0.  1.
         12    1    3    3    0    0 -0.38057481062E+01 -0.14329736982E+01  0.29139602315E+01  0.50028288496E+01  0.00000000000E+00 0. -1.
</event>
<event>
 7    1  0.6180395E-013  0.5930181E+02  0.7816164E-02  0.1266605E+00
        -11   -1    0    0    0    0  0.00000000000E+00  0.00000000000E+00  0.45593999997E+02  0.45594000000E+02  0.51100000000E-03 0. -1.
         11   -1    0    0    0    0 -0.00000000000E+00 -0.00000000000E+00 -0.45593999997E+02  0.45594000000E+02  0.51100000000E-03 0.  1.
    9900012    2    1    2    0    0  0.30883880662E+02  0.39596841135E+01  0.68728357936E+01  0.59301810907E+02  0.49999757219E+02 0.  0.
        -12    1    1    2    0    0 -0.30883880662E+02 -0.39596841135E+01 -0.68728357936E+01  0.31886189093E+02  0.00000000000E+00 0.  1.
         11    1    3    3    0    0 -0.91609655356E+00 -0.13589949496E+02 -0.10277674028E+02  0.17063309874E+02  0.51100000000E-03 0.  1.
        -11    1    3    3    0    0  0.21975954270E+02  0.56194770308E+01  0.13363315053E+02  0.26326778718E+02  0.51100000000E-03 0. -1.
        -12    1    3    3    0    0  0.98240229454E+01  0.11930156578E+02  0.37871947686E+01  0.15911722315E+02  0.00000000000E+00 0.  1.
</event>
<event>
 7    1  0.6180395E-013  0.5930194E+02  0.7816164E-02  0.1266605E+00
        -11   -1    0    0    0    0  0.00000000000E+00  0.00000000000E+00  0.45593999997E+02  0.45594000000E+02  0.51100000000E-03 0. -1.
         11   -1    0    0    0    0 -0.00000000000E+00 -0.00000000000E+00 -0.45593999997E+02  0.45594000000E+02  0.51100000000E-03 0.  1.
    9900012    2    1    2    0    0  0.43329737784E+01  0.11542075414E+02  0.29406236399E+02  0.59301938692E+02  0.49999990269E+02 0.  0.
        -12    1    1    2    0    0 -0.43329737784E+01 -0.11542075414E+02 -0.29406236399E+02  0.31886061308E+02  0.00000000000E+00 0.  1.
         11    1    3    3    0    0  0.20830681854E+02  0.12764899499E+02  0.69487204815E+01  0.25399698469E+02  0.51100000000E-03 0. -1.
        -11    1    3    3    0    0  0.20104307209E+00  0.15563141225E+01  0.15533427308E+02  0.15612491670E+02  0.51100000000E-03 0.  1.
         12    1    3    3    0    0 -0.16698751148E+02 -0.27791382077E+01  0.69240886094E+01  0.18289748553E+02  0.00000000000E+00 0. -1.
</event>
<event>
 7    1  0.6180395E-013  0.5930201E+02  0.7816164E-02  0.1266605E+00
        -11   -1    0    0    0    0  0.00000000000E+00  0.00000000000E+00  0.45593999997E+02  0.45594000000E+02  0.51100000000E-03 0. -1.
         11   -1    0    0    0    0 -0.00000000000E+00 -0.00000000000E+00 -0.45593999997E+02  0.45594000000E+02  0.51100000000E-03 0.  1.
    9900012    2    1    2    0    0 -0.42823121128E+01 -0.30755264590E+02  0.72451150989E+01  0.59302012641E+02  0.50000125134E+02 0.  0.
        -12    1    1    2    0    0  0.42823121128E+01  0.30755264590E+02 -0.72451150989E+01  0.31885987359E+02  0.00000000000E+00 0.  1.
         11    1    3    3    0    0  0.68067685351E+01 -0.48756629428E+01  0.33217866201E+01  0.90076885844E+01  0.51100000000E-03 0. -1.
        -11    1    3    3    0    0 -0.21042483685E+02  0.31208582765E+00 -0.34391989934E+01  0.21323967904E+02  0.51100000000E-03 0.  1.
        -12    1    3    3    0    0  0.99534030370E+01 -0.26191687475E+02  0.73625274722E+01  0.28970356152E+02  0.00000000000E+00 0.  1.
</event>
<event>
 7    1  0.6180395E-013  0.5930202E+02  0.7816164E-02  0.1266604E+00
        -11   -1    0    0    0    0  0.00000000000E+00  0.00000000000E+00  0.45593999997E+02  0.45594000000E+02  0.51100000000E-03 0. -1.
         11   -1    0    0    0    0 -0.00000000000E+00 -0.00000000000E+00 -0.45593999997E+02  0.45594000000E+02  0.51100000000E-03 0.  1.
    9900012    2    1    2    0    0 -0.89851252827E+01 -0.30455051943E+02 -0.29108107602E+01  0.59302023702E+02  0.50000145306E+02 0.  0.
        -12    1    1    2    0    0  0.89851252827E+01  0.30455051943E+02  0.29108107602E+01  0.31885976298E+02  0.00000000000E+00 0.  1.
         11    1    3    3    0    0 -0.12413962052E+02 -0.30218476437E+02  0.10757786232E+02  0.34394661459E+02  0.51100000000E-03 0. -1.
        -11    1    3    3    0    0  0.33794370247E+01  0.66751457694E+01  0.20318289729E+01  0.77528378599E+01  0.51100000000E-03 0.  1.
         12    1    3    3    0    0  0.49399744464E-01 -0.69117212759E+01 -0.15700425965E+02  0.17154524383E+02  0.00000000000E+00 0. -1.
</event>
<event>
 7    1  0.6180395E-013  0.5930187E+02  0.7816164E-02  0.1266605E+00
        -11   -1    0    0    0    0  0.00000000000E+00  0.00000000000E+00  0.45593999997E+02  0.45594000000E+02  0.51100000000E-03 0. -1.
         11   -1    0    0    0    0 -0.00000000000E+00 -0.00000000000E+00 -0.45593999997E+02  0.45594000000E+02  0.51100000000E-03 0.  1.
    9900012    2    1    2    0    0  0.29424406555E+02 -0.42635066704E+01  0.11521802240E+02  0.59301872654E+02  0.49999869832E+02 0.  0.
        -12    1    1    2    0    0 -0.29424406555E+02  0.42635066704E+01 -0.11521802240E+02  0.31886127346E+02  0.00000000000E+00 0.  1.
         11    1    3    3    0    0  0.10740512124E+02 -0.11140242494E+02  0.14854188957E+02  0.21450187256E+02  0.51100000000E-03 0. -1.
        -11    1    3    3    0    0 -0.76282672550E+00 -0.34968262293E+01 -0.13219255728E+02  0.13695196989E+02  0.51100000000E-03 0.  1.
         12    1    3    3    0    0  0.19446721157E+02  0.10373562053E+02  0.98868690109E+01  0.24156488409E+02  0.00000000000E+00 0. -1.
</event>
<event>
 7    1  0.6180395E-013  0.5930200E+02  0.7816164E-02  0.1266605E+00
        -11   -1    0    0    0    0  0.00000000000E+00  0.00000000000E+00  0.45593999997E+02  0.45594000000E+02  0.51100000000E-03 0. -1.
         11   -1    0    0    0    0 -0.00000000000E+00 -0.00000000000E+00 -0.45593999997E+02  0.45594000000E+02  0.51100000000E-03 0.  1.
    9900012    2    1    2    0    0 -0.29729660521E+02  0.10736253520E+02  0.41949228243E+01  0.59301996302E+02  0.50000095336E+02 0.  0.
        -12    1    1    2    0    0  0.29729660521E+02 -0.10736253520E+02 -0.41949228243E+01  0.31886003698E+02  0.00000000000E+00 0.  1.
         11    1    3    3    0    0 -0.39950217672E+01 -0.19026942235E+02  0.33597922406E+01  0.19730000859E+02  0.51100000000E-03 0.  1.
        -11    1    3    3    0    0 -0.20453988477E+02  0.20904862026E+02  0.38802340762E+00  0.29249435266E+02  0.51100000000E-03 0. -1.
        -12    1    3    3    0    0 -0.52806502762E+01  0.88583337286E+01  0.44710717608E+00  0.10322560177E+02  0.00000000000E+00 0.  1.
</event>
<event>
 7    1  0.6180395E-013  0.5930196E+02  0.7816164E-02  0.1266605E+00
        -11   -1    0    0    0    0  0.00000000000E+00  0.00000000000E+00  0.45593999997E+02  0.45594000000E+02  0.51100000000E-03 0.  1.
         11   -1    0    0    0    0 -0.00000000000E+00 -0.00000000000E+00 -0.45593999997E+02  0.45594000000E+02  0.51100000000E-03 0. -1.
    9900012    2    1    2    0    0  0.39139786858E+01 -0.50613474226E+01 -0.31237525001E+02  0.59301961753E+02  0.50000032327E+02 0.  0.
        -12    1    1    2    0    0 -0.39139786858E+01  0.50613474226E+01  0.31237525001E+02  0.31886038247E+02  0.00000000000E+00 0.  1.
         11    1    3    3    0    0 -0.12292726163E+02  0.42834899893E+01 -0.27590190774E+02  0.30507016082E+02  0.51100000000E-03 0. -1.
        -11    1    3    3    0    0 -0.46013175465E+00 -0.66803991446E+01  0.63078111415E+01  0.91993443038E+01  0.51100000000E-03 0.  1.
         12    1    3    3    0    0  0.16666836603E+02 -0.26644382674E+01 -0.99551453688E+01  0.19595601368E+02  0.00000000000E+00 0. -1.
</event>
<event>
 7    1  0.6180395E-013  0.5930194E+02  0.7816164E-02  0.1266605E+00
        -11   -1    0    0    0    0  0.00000000000E+00  0.00000000000E+00  0.45593999997E+02  0.45594000000E+02  0.51100000000E-03 0. -1.
         11   -1    0    0    0    0 -0.00000000000E+00 -0.00000000000E+00 -0.45593999997E+02  0.45594000000E+02  0.51100000000E-03 0.  1.
    9900012    2    1    2    0    0  0.21268890330E+02 -0.22296221996E+02 -0.81995982052E+01  0.59301943142E+02  0.49999998385E+02 0.  0.
        -12    1    1    2    0    0 -0.21268890330E+02  0.22296221996E+02  0.81995982052E+01  0.31886056858E+02  0.00000000000E+00 0.  1.
         11    1    3    3    0    0  0.30350988107E+02 -0.15378236695E+02 -0.85775900050E+01  0.35089139252E+02  0.51100000000E-03 0. -1.
        -11    1    3    3    0    0 -0.13567467614E+02 -0.10573917734E+02 -0.30754720083E+01  0.17474050533E+02  0.51100000000E-03 0.  1.
        -12    1    3    3    0    0  0.44853698377E+01  0.36559324318E+01  0.34534638081E+01  0.67387533566E+01  0.00000000000E+00 0.  1.
</event>
<event>
 7    1  0.6180395E-013  0.5930193E+02  0.7816164E-02  0.1266605E+00
        -11   -1    0    0    0    0  0.00000000000E+00  0.00000000000E+00  0.45593999997E+02  0.45594000000E+02  0.51100000000E-03 0.  1.
         11   -1    0    0    0    0 -0.00000000000E+00 -0.00000000000E+00 -0.45593999997E+02  0.45594000000E+02  0.51100000000E-03 0. -1.
    9900012    2    1    2    0    0  0.22787575209E+02  0.97033463935E+01 -0.20082152729E+02  0.59301931359E+02  0.49999976895E+02 0.  0.
        -12    1    1    2    0    0 -0.22787575209E+02 -0.97033463935E+01  0.20082152729E+02  0.31886068641E+02  0.00000000000E+00 0.  1.
         11    1    3    3    0    0  0.30761619401E+02 -0.11660636112E+02 -0.10921797771E+02  0.34663140792E+02  0.51100000000E-03 0. -1.
        -11    1    3    3    0    0 -0.29970821180E+01  0.62169661512E+01 -0.33238451347E+01  0.76603600495E+01  0.51100000000E-03 0.  1.
         12    1    3    3    0    0 -0.49769620741E+01  0.15147016355E+02 -0.58365098234E+01  0.16978430518E+02  0.00000000000E+00 0. -1.
</event>
<event>
 7    1  0.6180395E-013  0.5930199E+02  0.7816164E-02  0.1266605E+00
        -11   -1    0    0    0    0  0.00000000000E+00  0.00000000000E+00  0.45593999997E+02  0.45594000000E+02  0.51100000000E-03 0. -1.
         11   -1    0    0    0    0 -0.00000000000E+00 -0.00000000000E+00 -0.45593999997E+02  0.45594000000E+02  0.51100000000E-03 0.  1.
    9900012    2    1    2    0    0 -0.28755902556E+02 -0.43251874611E+01  0.13080840341E+02  0.59301991118E+02  0.50000085881E+02 0.  0.
        -12    1    1    2    0    0  0.28755902556E+02  0.43251874611E+01 -0.13080840341E+02  0.31886008882E+02  0.00000000000E+00 0.  1.
         11    1    3    3    0    0 -0.35614824866E+02  0.63379888515E+01  0.64665393469E+01  0.36747816048E+02  0.51100000000E-03 0. -1.
        -11    1    3    3    0    0  0.38739524904E+01  0.43908168520E+01  0.33258269222E-01  0.58555859569E+01  0.51100000000E-03 0.  1.
         12    1    3    3    0    0  0.29849698190E+01 -0.15053993165E+02  0.65810427253E+01  0.16698589113E+02  0.00000000000E+00 0. -1.
</event>
<event>
 7    1  0.6180395E-013  0.5930193E+02  0.7816164E-02  0.1266605E+00
        -11   -1    0    0    0    0  0.00000000000E+00  0.00000000000E+00  0.45593999997E+02  0.45594000000E+02  0.51100000000E-03 0.  1.
         11   -1    0    0    0    0 -0.00000000000E+00 -0.00000000000E+00 -0.45593999997E+02  0.45594000000E+02  0.51100000000E-03 0. -1.
    9900012    2    1    2    0    0 -0.55489249358E+01  0.19360801181E+02 -0.24720246239E+02  0.59301925227E+02  0.49999965712E+02 0.  0.
        -12    1    1    2    0    0  0.55489249358E+01 -0.19360801181E+02  0.24720246239E+02  0.31886074773E+02  0.00000000000E+00 0.  1.
         11    1    3    3    0    0 -0.27925905237E+01 -0.17938525815E+00 -0.21133589861E+02  0.21318052481E+02  0.51100000000E-03 0. -1.
        -11    1    3    3    0    0 -0.97706152368E+01  0.94012407365E+01  0.12002860436E+02  0.18108476148E+02  0.51100000000E-03 0.  1.
        -12    1    3    3    0    0  0.70142808247E+01  0.10138945702E+02 -0.15589516814E+02  0.19875396598E+02  0.00000000000E+00 0.  1.
</event>
<event>
 7    1  0.6180395E-013  0.5930193E+02  0.7816164E-02  0.1266605E+00
        -11   -1    0    0    0    0  0.00000000000E+00  0.00000000000E+00  0.45593999997E+02  0.45594000000E+02  0.51100000000E-03 0.  1.
         11   -1    0    0    0    0 -0.00000000000E+00 -0.00000000000E+00 -0.45593999997E+02  0.45594000000E+02  0.51100000000E-03 0. -1.
    9900012    2    1    2    0    0 -0.22613201510E+01 -0.31679810302E+02  0.28279713939E+01  0.59301931384E+02  0.49999976941E+02 0.  0.
        -12    1    1    2    0    0  0.22613201510E+01  0.31679810302E+02 -0.28279713939E+01  0.31886068616E+02  0.00000000000E+00 0.  1.
         11    1    3    3    0    0 -0.11638314664E+02  0.67994198371E+01 -0.83563104116E+01  0.15859079491E+02  0.51100000000E-03 0. -1.
        -11    1    3    3    0    0 -0.63415402736E+00 -0.24620413836E+02  0.42449871244E+01  0.24991735528E+02  0.51100000000E-03 0.  1.
         12    1    3    3    0    0  0.10011148541E+02 -0.13858816303E+02  0.69392946811E+01  0.18451116365E+02  0.00000000000E+00 0. -1.
</event>
<event>
 7    1  0.6180395E-013  0.5930194E+02  0.7816164E-02  0.1266605E+00
        -11   -1    0    0    0    0  0.00000000000E+00  0.00000000000E+00  0.45593999997E+02  0.45594000000E+02  0.51100000000E-03 0.  1.
         11   -1    0    0    0    0 -0.00000000000E+00 -0.00000000000E+00 -0.45593999997E+02  0.45594000000E+02  0.51100000000E-03 0. -1.
    9900012    2    1    2    0    0  0.12729190217E+02  0.10479199426E+02 -0.27292397877E+02  0.59301939000E+02  0.49999990831E+02 0.  0.
        -12    1    1    2    0    0 -0.12729190217E+02 -0.10479199426E+02  0.27292397877E+02  0.31886061000E+02  0.00000000000E+00 0.  1.
         11    1    3    3    0    0  0.50241757610E+01 -0.86686636009E+01 -0.21494829303E+02  0.23715306402E+02  0.51100000000E-03 0. -1.
        -11    1    3    3    0    0 -0.56854853349E+01  0.14308314163E+02  0.65579380869E+01  0.16734967878E+02  0.51100000000E-03 0.  1.
         12    1    3    3    0    0  0.13390499791E+02  0.48395488639E+01 -0.12355506661E+02  0.18851664720E+02  0.00000000000E+00 0. -1.
</event>
<event>
 7    1  0.6180395E-013  0.5930195E+02  0.7816164E-02  0.1266605E+00
        -11   -1    0    0    0    0  0.00000000000E+00  0.00000000000E+00  0.45593999997E+02  0.45594000000E+02  0.51100000000E-03 0. -1.
         11   -1    0    0    0    0 -0.00000000000E+00 -0.00000000000E+00 -0.45593999997E+02  0.45594000000E+02  0.51100000000E-03 0.  1.
    9900012    2    1    2    0    0  0.16568605075E+02  0.12414205589E+02  0.24250543128E+02  0.59301952636E+02  0.50000015699E+02 0.  0.
        -12    1    1    2    0    0 -0.16568605075E+02 -0.12414205589E+02 -0.24250543128E+02  0.31886047364E+02  0.00000000000E+00 0.  1.
         11    1    3    3    0    0  0.16324642393E+02  0.11816606356E+02  0.19728766038E+02  0.28201956398E+02  0.51100000000E-03 0. -1.
        -11    1    3    3    0    0 -0.13397523111E+02  0.64920487613E+01  0.62361279520E+01  0.16140929797E+02  0.51100000000E-03 0.  1.
         12    1    3    3    0    0  0.13641485793E+02 -0.58944495286E+01 -0.17143508624E+01  0.14959066440E+02  0.00000000000E+00 0. -1.
</event>
<event>
 7    1  0.6180395E-013  0.5930195E+02  0.7816164E-02  0.1266605E+00
        -11   -1    0    0    0    0  0.00000000000E+00  0.00000000000E+00  0.45593999997E+02  0.45594000000E+02  0.51100000000E-03 0. -1.
         11   -1    0    0    0    0 -0.00000000000E+00 -0.00000000000E+00 -0.45593999997E+02  0.45594000000E+02  0.51100000000E-03 0.  1.
    9900012    2    1    2    0    0  0.21951208203E+02 -0.19684702776E+02 -0.12139903114E+02  0.59301947994E+02  0.50000007233E+02 0.  0.
        -12    1    1    2    0    0 -0.21951208203E+02  0.19684702776E+02  0.12139903114E+02  0.31886052006E+02  0.00000000000E+00 0.  1.
         11    1    3    3    0    0  0.10021639982E+02 -0.57862441922E+01  0.21888136756E+01  0.11777300002E+02  0.51100000000E-03 0. -1.
        -11    1    3    3    0    0  0.13998364626E+02 -0.10010906138E+02 -0.28163784087E+02  0.33005623586E+02  0.51100000000E-03 0.  1.
        -12    1    3    3    0    0 -0.20687964052E+01 -0.38875524458E+01  0.13835067297E+02  0.14519024406E+02  0.00000000000E+00 0.  1.
</event>
<event>
 7    1  0.6180395E-013  0.5930194E+02  0.7816164E-02  0.1266605E+00
        -11   -1    0    0    0    0  0.00000000000E+00  0.00000000000E+00  0.45593999997E+02  0.45594000000E+02  0.51100000000E-03 0.  1.
         11   -1    0    0    0    0 -0.00000000000E+00 -0.00000000000E+00 -0.45593999997E+02  0.45594000000E+02  0.51100000000E-03 0. -1.
    9900012    2    1    2    0    0  0.24242955998E+02  0.12742981153E+02 -0.16328385490E+02  0.59301942594E+02  0.49999997386E+02 0.  0.
        -12    1    1    2    0    0 -0.24242955998E+02 -0.12742981153E+02  0.16328385490E+02  0.31886057406E+02  0.00000000000E+00 0.  1.
         11    1    3    3    0    0 -0.86793174839E+01  0.47446040240E+01 -0.11410227306E+02  0.15100831327E+02  0.51100000000E-03 0. -1.
        -11    1    3    3    0    0  0.95160084947E+01 -0.94694911417E+01  0.33713623798E+01  0.13841667700E+02  0.51100000000E-03 0.  1.
         12    1    3    3    0    0  0.23406264987E+02  0.17467868271E+02 -0.82895205639E+01  0.30359443568E+02  0.00000000000E+00 0. -1.
</event>
<event>
 7    1  0.6180395E-013  0.5930193E+02  0.7816164E-02  0.1266605E+00
        -11   -1    0    0    0    0  0.00000000000E+00  0.00000000000E+00  0.45593999997E+02  0.45594000000E+02  0.51100000000E-03 0. -1.
         11   -1    0    0    0    0 -0.00000000000E+00 -0.00000000000E+00 -0.45593999997E+02  0.45594000000E+02  0.51100000000E-03 0.  1.
    9900012    2    1    2    0    0 -0.92531578913E+01  0.28706457454E+02  0.10346015077E+02  0.59301926888E+02  0.49999968741E+02 0.  0.
        -12    1    1    2    0    0  0.92531578913E+01 -0.28706457454E+02 -0.10346015077E+02  0.31886073112E+02  0.00000000000E+00 0.  1.
         11    1    3    3    0    0 -0.20482239722E+02  0.24498521328E+01  0.12352368831E+02  0.24043812832E+02  0.51100000000E-03 0. -1.
        -11    1    3    3    0    0 -0.73286622403E+00  0.22354397291E+02 -0.33036152513E+01  0.22609069975E+02  0.51100000000E-03 0.  1.
         12    1    3    3    0    0  0.11961948055E+02  0.39022080301E+01  0.12972614975E+01  0.12649044081E+02  0.00000000000E+00 0. -1.
</event>
<event>
 7    1  0.6180395E-013  0.5930199E+02  0.7816164E-02  0.1266605E+00
        -11   -1    0    0    0    0  0.00000000000E+00  0.00000000000E+00  0.45593999997E+02  0.45594000000E+02  0.51100000000E-03 0. -1.
         11   -1    0    0    0    0 -0.00000000000E+00 -0.00000000000E+00 -0.45593999997E+02  0.45594000000E+02  0.51100000000E-03 0.  1.
    9900012    2    1    2    0    0  0.71223394497E+01  0.30700940598E+02  0.48417200107E+01  0.59301988560E+02  0.50000081217E+02 0.  0.
        -12    1    1    2    0    0 -0.71223394497E+01 -0.30700940598E+02 -0.48417200107E+01  0.31886011440E+02  0.00000000000E+00 0.  1.
         11    1    3    3    0    0  0.11485436577E+02 -0.61069000928E+01 -0.71961354460E+01  0.14865861823E+02  0.51100000000E-03 0. -1.
        -11    1    3    3    0    0 -0.11673662327E+02  0.20584912613E+02  0.14027805002E+01  0.23706134497E+02  0.51100000000E-03 0.  1.
         12    1    3    3    0    0  0.73105651996E+01  0.16222928078E+02  0.10635074957E+02  0.20729992240E+02  0.00000000000E+00 0. -1.
</event>
<event>
 7    1  0.6180395E-013  0.5930196E+02  0.7816164E-02  0.1266605E+00
        -11   -1    0    0    0    0  0.00000000000E+00  0.00000000000E+00  0.45593999997E+02  0.45594000000E+02  0.51100000000E-03 0.  1.
         11   -1    0    0    0    0 -0.00000000000E+00 -0.00000000000E+00 -0.45593999997E+02  0.45594000000E+02  0.51100000000E-03 0. -1.
    9900012    2    1    2    0    0  0.11846900381E+02  0.29464766178E+02 -0.28632514651E+01  0.59301957544E+02  0.50000024651E+02 0.  0.
        -12    1    1    2    0    0 -0.11846900381E+02 -0.29464766178E+02  0.28632514651E+01  0.31886042456E+02  0.00000000000E+00 0.  1.
         11    1    3    3    0    0  0.93138477924E+01  0.13258851870E+02 -0.89694534775E+01  0.18520151445E+02  0.51100000000E-03 0. -1.
        -11    1    3    3    0    0 -0.57253889995E+01  0.16489684432E+02  0.18788105695E+02  0.25645324871E+02  0.51100000000E-03 0.  1.
        -12    1    3    3    0    0  0.82584415882E+01 -0.28377012489E+00 -0.12681903682E+02  0.15136481228E+02  0.00000000000E+00 0.  1.
</event>
<event>
 7    1  0.6180395E-013  0.5930192E+02  0.7816164E-02  0.1266605E+00
        -11   -1    0    0    0    0  0.00000000000E+00  0.00000000000E+00  0.45593999997E+02  0.45594000000E+02  0.51100000000E-03 0.  1.
         11   -1    0    0    0    0 -0.00000000000E+00 -0.00000000000E+00 -0.45593999997E+02  0.45594000000E+02  0.51100000000E-03 0. -1.
    9900012    2    1    2    0    0 -0.21491153876E+01  0.29665718371E+02 -0.11491238013E+02  0.59301920051E+02  0.49999956272E+02 0.  0.
        -12    1    1    2    0    0  0.21491153876E+01 -0.29665718371E+02  0.11491238013E+02  0.31886079949E+02  0.00000000000E+00 0.  1.
         11    1    3    3    0    0 -0.12824740923E+02  0.34640861086E+02  0.23175707118E+01  0.37011273563E+02  0.51100000000E-03 0. -1.
        -11    1    3    3    0    0  0.18544868084E+00 -0.19533260260E+01  0.21783983984E+01  0.29317731188E+01  0.51100000000E-03 0.  1.
         12    1    3    3    0    0  0.10490176854E+02 -0.30218166883E+01 -0.15987207123E+02  0.19358873369E+02  0.00000000000E+00 0. -1.
</event>
<event>
 7    1  0.6180395E-013  0.5930193E+02  0.7816164E-02  0.1266605E+00
        -11   -1    0    0    0    0  0.00000000000E+00  0.00000000000E+00  0.45593999997E+02  0.45594000000E+02  0.51100000000E-03 0.  1.
         11   -1    0    0    0    0 -0.00000000000E+00 -0.00000000000E+00 -0.45593999997E+02  0.45594000000E+02  0.51100000000E-03 0. -1.
    9900012    2    1    2    0    0 -0.14053955045E+02 -0.74297597594E+01 -0.27640670087E+02  0.59301927408E+02  0.49999969690E+02 0.  0.
        -12    1    1    2    0    0  0.14053955045E+02  0.74297597594E+01  0.27640670087E+02  0.31886072592E+02  0.00000000000E+00 0.  1.
         11    1    3    3    0    0 -0.14632340188E+02 -0.49570827174E+00  0.20000576602E+01  0.14776716042E+02  0.51100000000E-03 0. -1.
        -11    1    3    3    0    0 -0.23049444920E+01 -0.33651864513E+01 -0.36250429727E+02  0.36479184539E+02  0.51100000000E-03 0.  1.
        -12    1    3    3    0    0  0.28833296355E+01 -0.35688650364E+01  0.66097019802E+01  0.80460268271E+01  0.00000000000E+00 0.  1.
</event>
<event>
 7    1  0.6180395E-013  0.5930195E+02  0.7816164E-02  0.1266605E+00
        -11   -1    0    0    0    0  0.00000000000E+00  0.00000000000E+00  0.45593999997E+02  0.45594000000E+02  0.51100000000E-03 0.  1.
         11   -1    0    0    0    0 -0.00000000000E+00 -0.00000000000E+00 -0.45593999997E+02  0.45594000000E+02  0.51100000000E-03 0. -1.
    9900012    2    1    2    0    0 -0.97442107496E+01 -0.11966751143E+02 -0.27902825936E+02  0.59301945505E+02  0.50000002693E+02 0.  0.
        -12    1    1    2    0    0  0.97442107496E+01  0.11966751143E+02  0.27902825936E+02  0.31886054495E+02  0.00000000000E+00 0.  1.
         11    1    3    3    0    0  0.53327829381E+00 -0.22165481864E+02 -0.75621380819E+01  0.23426030492E+02  0.51100000000E-03 0. -1.
        -11    1    3    3    0    0 -0.18205285367E+02  0.23955582219E+01 -0.13819659800E+02  0.22981603767E+02  0.51100000000E-03 0.  1.
        -12    1    3    3    0    0  0.79277963233E+01  0.78031724991E+01 -0.65210280548E+01  0.12894311245E+02  0.00000000000E+00 0.  1.
</event>
<event>
 7    1  0.6180395E-013  0.5930196E+02  0.7816164E-02  0.1266605E+00
        -11   -1    0    0    0    0  0.00000000000E+00  0.00000000000E+00  0.45593999997E+02  0.45594000000E+02  0.51100000000E-03 0.  1.
         11   -1    0    0    0    0 -0.00000000000E+00 -0.00000000000E+00 -0.45593999997E+02  0.45594000000E+02  0.51100000000E-03 0. -1.
    9900012    2    1    2    0    0 -0.29749066103E+02  0.13570309022E+01 -0.11396107121E+02  0.59301957216E+02  0.50000024053E+02 0.  0.
        -12    1    1    2    0    0  0.29749066103E+02 -0.13570309022E+01  0.11396107121E+02  0.31886042784E+02  0.00000000000E+00 0.  1.
         11    1    3    3    0    0 -0.20519480464E+02  0.11870505461E+02 -0.22494656307E+02  0.32679772659E+02  0.51100000000E-03 0. -1.
        -11    1    3    3    0    0  0.53430789829E+01 -0.76624723533E+01  0.46212858105E+01  0.10422008366E+02  0.51100000000E-03 0.  1.
         12    1    3    3    0    0 -0.14572664623E+02 -0.28510022056E+01  0.64772633755E+01  0.16200176191E+02  0.00000000000E+00 0. -1.
</event>
<event>
 7    1  0.6180395E-013  0.5930196E+02  0.7816164E-02  0.1266605E+00
        -11   -1    0    0    0    0  0.00000000000E+00  0.00000000000E+00  0.45593999997E+02  0.45594000000E+02  0.51100000000E-03 0. -1.
         11   -1    0    0    0    0 -0.00000000000E+00 -0.00000000000E+00 -0.45593999997E+02  0.45594000000E+02  0.51100000000E-03 0.  1.
    9900012    2    1    2    0    0 -0.75681700968E+01 -0.15736277419E+02  0.26679799705E+02  0.59301963277E+02  0.50000035105E+02 0.  0.
        -12    1    1    2    0    0  0.75681700968E+01  0.15736277419E+02 -0.26679799705E+02  0.31886036723E+02  0.00000000000E+00 0.  1.
         11    1    3    3    0    0  0.16715274857E+02 -0.17574896030E+02  0.10535512790E+02  0.26443797270E+02  0.51100000000E-03 0. -1.
        -11    1    3    3    0    0 -0.11824195350E+02  0.60740142064E+01  0.14376788364E+02  0.19580533399E+02  0.51100000000E-03 0.  1.
         12    1    3    3    0    0 -0.12459249604E+02 -0.42353955946E+01  0.17674985509E+01  0.13277632608E+02  0.00000000000E+00 0. -1.
</event>
<event>
 7    1  0.6180395E-013  0.5930193E+02  0.7816164E-02  0.1266605E+00
        -11   -1    0    0    0    0  0.00000000000E+00  0.00000000000E+00  0.45593999997E+02  0.45594000000E+02  0.51100000000E-03 0. -1.
         11   -1    0    0    0    0 -0.00000000000E+00 -0.00000000000E+00 -0.45593999997E+02  0.45594000000E+02  0.51100000000E-03 0.  1.
    9900012    2    1    2    0    0 -0.20255884296E+02  0.24357453353E+02 -0.36242409228E+01  0.59301929300E+02  0.49999973140E+02 0.  0.
        -12    1    1    2    0    0  0.20255884296E+02 -0.24357453353E+02  0.36242409228E+01  0.31886070700E+02  0.00000000000E+00 0.  1.
         11    1    3    3    0    0 -0.21700115161E+02  0.77232118811E+00  0.92889259816E+01  0.23617273851E+02  0.51100000000E-03 0. -1.
        -11    1    3    3    0    0 -0.18637137124E+01  0.18259908682E+02 -0.19370030461E+02  0.26685122713E+02  0.51100000000E-03 0.  1.
         12    1    3    3    0    0  0.33079445777E+01  0.53252234825E+01  0.64568635569E+01  0.89995327356E+01  0.00000000000E+00 0. -1.
</event>
<event>
 7    1  0.6180395E-013  0.5930193E+02  0.7816164E-02  0.1266605E+00
        -11   -1    0    0    0    0  0.00000000000E+00  0.00000000000E+00  0.45593999997E+02  0.45594000000E+02  0.51100000000E-03 0.  1.
         11   -1    0    0    0    0 -0.00000000000E+00 -0.00000000000E+00 -0.45593999997E+02  0.45594000000E+02  0.51100000000E-03 0. -1.
    9900012    2    1    2    0    0 -0.59841738112E+01 -0.11236039921E+02 -0.29234609345E+02  0.59301932308E+02  0.49999978626E+02 0.  0.
        -12    1    1    2    0    0  0.59841738112E+01  0.11236039921E+02  0.29234609345E+02  0.31886067692E+02  0.00000000000E+00 0.  1.
         11    1    3    3    0    0 -0.18760654827E+01 -0.33629001655E+01 -0.21906033205E+02  0.22241920111E+02  0.51100000000E-03 0. -1.
        -11    1    3    3    0    0 -0.18261487431E+02 -0.90266870943E+01  0.13540432653E+01  0.20415592975E+02  0.51100000000E-03 0.  1.
        -12    1    3    3    0    0  0.14153379103E+02  0.11535473393E+01 -0.86826194058E+01  0.16644419222E+02  0.00000000000E+00 0.  1.
</event>
<event>
 7    1  0.6180395E-013  0.5930191E+02  0.7816164E-02  0.1266605E+00
        -11   -1    0    0    0    0  0.00000000000E+00  0.00000000000E+00  0.45593999997E+02  0.45594000000E+02  0.51100000000E-03 0.  1.
         11   -1    0    0    0    0 -0.00000000000E+00 -0.00000000000E+00 -0.45593999997E+02  0.45594000000E+02  0.51100000000E-03 0. -1.
    9900012    2    1    2    0    0 -0.20830304175E+02  0.12432253662E+02 -0.20694452274E+02  0.59301908078E+02  0.49999934436E+02 0.  0.
        -12    1    1    2    0    0  0.20830304175E+02 -0.12432253662E+02  0.20694452274E+02  0.31886091922E+02  0.00000000000E+00 0.  1.
         11    1    3    3    0    0 -0.10995605507E+02  0.14316793154E+02 -0.44498285006E+01  0.18592333921E+02  0.51100000000E-03 0. -1.
        -11    1    3    3    0    0  0.76239595282E+01 -0.13179087930E+02 -0.12236668487E+02  0.19533283735E+02  0.51100000000E-03 0.  1.
        -12    1    3    3    0    0 -0.17458658197E+02  0.11294548438E+02 -0.40079552859E+01  0.21176290422E+02  0.00000000000E+00 0.  1.
</event>
<event>
 7    1  0.6180395E-013  0.5930193E+02  0.7816164E-02  0.1266605E+00
        -11   -1    0    0    0    0  0.00000000000E+00  0.00000000000E+00  0.45593999997E+02  0.45594000000E+02  0.51100000000E-03 0.  1.
         11   -1    0    0    0    0 -0.00000000000E+00 -0.00000000000E+00 -0.45593999997E+02  0.45594000000E+02  0.51100000000E-03 0. -1.
    9900012    2    1    2    0    0  0.13676975216E+02  0.22418359108E+02 -0.18085332050E+02  0.59301926057E+02  0.49999967226E+02 0.  0.
        -12    1    1    2    0    0 -0.13676975216E+02 -0.22418359108E+02  0.18085332050E+02  0.31886073943E+02  0.00000000000E+00 0.  1.
         11    1    3    3    0    0  0.18701762466E+02  0.15424937856E+01 -0.25793361773E+02  0.31897221168E+02  0.51100000000E-03 0. -1.
        -11    1    3    3    0    0  0.47350535022E+01  0.10796542767E+02  0.61251749032E+01  0.13285474596E+02  0.51100000000E-03 0.  1.
         12    1    3    3    0    0 -0.97598407520E+01  0.10079322555E+02  0.15828548205E+01  0.14119230293E+02  0.00000000000E+00 0. -1.
</event>
<event>
 7    1  0.6180395E-013  0.5930194E+02  0.7816164E-02  0.1266605E+00
        -11   -1    0    0    0    0  0.00000000000E+00  0.00000000000E+00  0.45593999997E+02  0.45594000000E+02  0.51100000000E-03 0. -1.
         11   -1    0    0    0    0 -0.00000000000E+00 -0.00000000000E+00 -0.45593999997E+02  0.45594000000E+02  0.51100000000E-03 0.  1.
    9900012    2    1    2    0    0 -0.26822964088E+02  0.16299317265E+02 -0.56197449131E+01  0.59301942252E+02  0.49999996762E+02 0.  0.
        -12    1    1    2    0    0  0.26822964088E+02 -0.16299317265E+02  0.56197449131E+01  0.31886057748E+02  0.00000000000E+00 0.  1.
         11    1    3    3    0    0 -0.11063337412E+02  0.67767663673E+01  0.81724952295E+01  0.15333351742E+02  0.51100000000E-03 0. -1.
        -11    1    3    3    0    0 -0.12682216134E+02  0.21973764088E+02 -0.17256122081E+02  0.30683198396E+02  0.51100000000E-03 0.  1.
        -12    1    3    3    0    0 -0.30774105417E+01 -0.12451213190E+02  0.34638819384E+01  0.13285392115E+02  0.00000000000E+00 0.  1.
</event>
<event>
 7    1  0.6180395E-013  0.5930195E+02  0.7816164E-02  0.1266605E+00
        -11   -1    0    0    0    0  0.00000000000E+00  0.00000000000E+00  0.45593999997E+02  0.45594000000E+02  0.51100000000E-03 0. -1.
         11   -1    0    0    0    0 -0.00000000000E+00 -0.00000000000E+00 -0.45593999997E+02  0.45594000000E+02  0.51100000000E-03 0.  1.
    9900012    2    1    2    0    0  0.28165848975E+02  0.68155134737E+00  0.14931206839E+02  0.59301945079E+02  0.50000001918E+02 0.  0.
        -12    1    1    2    0    0 -0.28165848975E+02 -0.68155134737E+00 -0.14931206839E+02  0.31886054921E+02  0.00000000000E+00 0.  1.
         11    1    3    3    0    0 -0.72719970237E+00 -0.81285507975E+01  0.16992466642E+02  0.18850625462E+02  0.51100000000E-03 0. -1.
        -11    1    3    3    0    0  0.17546617093E+02  0.26790689394E+01 -0.14207053075E+02  0.22735468747E+02  0.51100000000E-03 0.  1.
        -12    1    3    3    0    0  0.11346431584E+02  0.61310332054E+01  0.12145793272E+02  0.17715850871E+02  0.00000000000E+00 0.  1.
</event>
<event>
 7    1  0.6180395E-013  0.5930195E+02  0.7816164E-02  0.1266605E+00
        -11   -1    0    0    0    0  0.00000000000E+00  0.00000000000E+00  0.45593999997E+02  0.45594000000E+02  0.51100000000E-03 0.  1.
         11   -1    0    0    0    0 -0.00000000000E+00 -0.00000000000E+00 -0.45593999997E+02  0.45594000000E+02  0.51100000000E-03 0. -1.
    9900012    2    1    2    0    0 -0.16999061189E+02 -0.21477703426E+01 -0.26891251243E+02  0.59301946745E+02  0.50000004956E+02 0.  0.
        -12    1    1    2    0    0  0.16999061189E+02  0.21477703426E+01  0.26891251243E+02  0.31886053255E+02  0.00000000000E+00 0.  1.
         11    1    3    3    0    0 -0.28185458936E+02 -0.92348905555E+01 -0.73021452186E+01  0.30545451774E+02  0.51100000000E-03 0. -1.
        -11    1    3    3    0    0  0.88342699354E+01 -0.40140109345E+01 -0.88661126933E+01  0.13143993443E+02  0.51100000000E-03 0.  1.
         12    1    3    3    0    0  0.23521278123E+01  0.11101131147E+02 -0.10722993331E+02  0.15612501529E+02  0.00000000000E+00 0. -1.
</event>
<event>
 7    1  0.6180395E-013  0.5930194E+02  0.7816164E-02  0.1266605E+00
        -11   -1    0    0    0    0  0.00000000000E+00  0.00000000000E+00  0.45593999997E+02  0.45594000000E+02  0.51100000000E-03 0.  1.
         11   -1    0    0    0    0 -0.00000000000E+00 -0.00000000000E+00 -0.45593999997E+02  0.45594000000E+02  0.51100000000E-03 0. -1.
    9900012    2    1    2    0    0 -0.23032786880E+02  0.10629054163E+02  0.19319281755E+02  0.59301941739E+02  0.49999995826E+02 0.  0.
        -12    1    1    2    0    0  0.23032786880E+02 -0.10629054163E+02 -0.19319281755E+02  0.31886058261E+02  0.00000000000E+00 0.  1.
         11    1    3    3    0    0 -0.69988546874E+01  0.13109155694E+02  0.65173515850E+01  0.16226823531E+02  0.51100000000E-03 0. -1.
        -11    1    3    3    0    0 -0.15559846318E+02 -0.18845960435E+02  0.50306481635E+01  0.24951682576E+02  0.51100000000E-03 0.  1.
        -12    1    3    3    0    0 -0.47408587484E+00  0.16365858904E+02  0.77712820065E+01  0.18123435632E+02  0.00000000000E+00 0.  1.
</event>
<event>
 7    1  0.6180395E-013  0.5930193E+02  0.7816164E-02  0.1266605E+00
        -11   -1    0    0    0    0  0.00000000000E+00  0.00000000000E+00  0.45593999997E+02  0.45594000000E+02  0.51100000000E-03 0. -1.
         11   -1    0    0    0    0 -0.00000000000E+00 -0.00000000000E+00 -0.45593999997E+02  0.45594000000E+02  0.51100000000E-03 0.  1.
    9900012    2    1    2    0    0  0.90392436011E+01  0.16020517583E+02  0.26045273754E+02  0.59301934181E+02  0.49999982041E+02 0.  0.
        -12    1    1    2    0    0 -0.90392436011E+01 -0.16020517583E+02 -0.26045273754E+02  0.31886065819E+02  0.00000000000E+00 0.  1.
         11    1    3    3    0    0 -0.10000680339E+02  0.12074099500E+02  0.20914262873E+02  0.26138168983E+02  0.51100000000E-03 0. -1.
        -11    1    3    3    0    0  0.21703229162E+02  0.10931083324E+02  0.73120818546E+01  0.25376865055E+02  0.51100000000E-03 0.  1.
        -12    1    3    3    0    0 -0.26633052223E+01 -0.69846652411E+01 -0.21810709740E+01  0.77869001426E+01  0.00000000000E+00 0.  1.
</event>
<event>
 7    1  0.6180395E-013  0.5930194E+02  0.7816164E-02  0.1266605E+00
        -11   -1    0    0    0    0  0.00000000000E+00  0.00000000000E+00  0.45593999997E+02  0.45594000000E+02  0.51100000000E-03 0.  1.
         11   -1    0    0    0    0 -0.00000000000E+00 -0.00000000000E+00 -0.45593999997E+02  0.45594000000E+02  0.51100000000E-03 0. -1.
    9900012    2    1    2    0    0 -0.26837286730E+02 -0.76400623486E+01 -0.15430833671E+02  0.59301935027E+02  0.49999983584E+02 0.  0.
        -12    1    1    2    0    0  0.26837286730E+02  0.76400623486E+01  0.15430833671E+02  0.31886064973E+02  0.00000000000E+00 0.  1.
         11    1    3    3    0    0 -0.16584582029E+02 -0.18472122997E+02 -0.28870698933E+02  0.38076041630E+02  0.51100000000E-03 0. -1.
        -11    1    3    3    0    0 -0.27008385520E+01  0.72867397795E+01  0.85578948342E+01  0.11559786752E+02  0.51100000000E-03 0.  1.
         12    1    3    3    0    0 -0.75518661488E+01  0.35453208692E+01  0.48819704279E+01  0.96661066440E+01  0.00000000000E+00 0. -1.
</event>
<event>
 7    1  0.6180395E-013  0.5930192E+02  0.7816164E-02  0.1266605E+00
        -11   -1    0    0    0    0  0.00000000000E+00  0.00000000000E+00  0.45593999997E+02  0.45594000000E+02  0.51100000000E-03 0. -1.
         11   -1    0    0    0    0 -0.00000000000E+00 -0.00000000000E+00 -0.45593999997E+02  0.45594000000E+02  0.51100000000E-03 0.  1.
    9900012    2    1    2    0    0  0.24354322448E+01 -0.28765567754E+01  0.31662540707E+02  0.59301915368E+02  0.49999947732E+02 0.  0.
        -12    1    1    2    0    0 -0.24354322448E+01  0.28765567754E+01 -0.31662540707E+02  0.31886084632E+02  0.00000000000E+00 0.  1.
         11    1    3    3    0    0 -0.42828349910E+01  0.97267884449E+01  0.25707067195E+02  0.27817375740E+02  0.51100000000E-03 0. -1.
        -11    1    3    3    0    0 -0.14818965881E+01 -0.15478358231E+02 -0.60326149485E+01  0.16678370256E+02  0.51100000000E-03 0.  1.
        -12    1    3    3    0    0  0.82001638240E+01  0.28750130106E+01  0.11988088460E+02  0.14806169372E+02  0.00000000000E+00 0.  1.
</event>
<event>
 7    1  0.6180395E-013  0.5930205E+02  0.7816164E-02  0.1266604E+00
        -11   -1    0    0    0    0  0.00000000000E+00  0.00000000000E+00  0.45593999997E+02  0.45594000000E+02  0.51100000000E-03 0. -1.
         11   -1    0    0    0    0 -0.00000000000E+00 -0.00000000000E+00 -0.45593999997E+02  0.45594000000E+02  0.51100000000E-03 0.  1.
    9900012    2    1    2    0    0 -0.12165252765E+02  0.24546898340E+02  0.16314722836E+02  0.59302050521E+02  0.50000194218E+02 0.  0.
        -12    1    1    2    0    0  0.12165252765E+02 -0.24546898340E+02 -0.16314722836E+02  0.31885949479E+02  0.00000000000E+00 0.  1.
         11    1    3    3    0    0 -0.15244792624E+02 -0.86455583822E+00  0.50203635295E+01  0.16073431780E+02  0.51100000000E-03 0. -1.
        -11    1    3    3    0    0  0.65860777824E+00  0.32052039492E+02  0.14833200751E+02  0.35324083068E+02  0.51100000000E-03 0.  1.
         12    1    3    3    0    0  0.24209320810E+01 -0.66405853135E+01 -0.35388414444E+01  0.79045356736E+01  0.00000000000E+00 0. -1.
</event>
<event>
 7    1  0.6180395E-013  0.5930192E+02  0.7816164E-02  0.1266605E+00
        -11   -1    0    0    0    0  0.00000000000E+00  0.00000000000E+00  0.45593999997E+02  0.45594000000E+02  0.51100000000E-03 0.  1.
         11   -1    0    0    0    0 -0.00000000000E+00 -0.00000000000E+00 -0.45593999997E+02  0.45594000000E+02  0.51100000000E-03 0. -1.
    9900012    2    1    2    0    0  0.11920206082E+02 -0.25711468743E+02 -0.14613395429E+02  0.59301917394E+02  0.49999951427E+02 0.  0.
        -12    1    1    2    0    0 -0.11920206082E+02  0.25711468743E+02  0.14613395429E+02  0.31886082606E+02  0.00000000000E+00 0.  1.
         11    1    3    3    0    0 -0.56065587221E+01  0.75747408134E+01  0.29895412161E+01  0.98867363694E+01  0.51100000000E-03 0. -1.
        -11    1    3    3    0    0  0.22622828597E+02 -0.30337141339E+02 -0.20293875504E+02  0.42941540513E+02  0.51100000000E-03 0.  1.
        -12    1    3    3    0    0 -0.50960637929E+01 -0.29490682175E+01  0.26909388594E+01  0.64736405120E+01  0.00000000000E+00 0.  1.
</event>
<event>
 7    1  0.6180395E-013  0.5930196E+02  0.7816164E-02  0.1266605E+00
        -11   -1    0    0    0    0  0.00000000000E+00  0.00000000000E+00  0.45593999997E+02  0.45594000000E+02  0.51100000000E-03 0.  1.
         11   -1    0    0    0    0 -0.00000000000E+00 -0.00000000000E+00 -0.45593999997E+02  0.45594000000E+02  0.51100000000E-03 0. -1.
    9900012    2    1    2    0    0  0.19387637995E+02 -0.25308601147E+02 -0.56026109600E+00  0.59301957731E+02  0.50000024992E+02 0.  0.
        -12    1    1    2    0    0 -0.19387637995E+02  0.25308601147E+02  0.56026109600E+00  0.31886042269E+02  0.00000000000E+00 0.  1.
         11    1    3    3    0    0 -0.76265988221E+00 -0.10178022280E+02  0.15616841378E+02  0.18656353408E+02  0.51100000000E-03 0. -1.
        -11    1    3    3    0    0  0.49903480941E+01 -0.12956058935E+02 -0.20475414152E+02  0.24738747385E+02  0.51100000000E-03 0.  1.
         12    1    3    3    0    0  0.15159949783E+02 -0.21745199327E+01  0.42983116781E+01  0.15906856938E+02  0.00000000000E+00 0. -1.
</event>
<event>
 7    1  0.6180395E-013  0.5930195E+02  0.7816164E-02  0.1266605E+00
        -11   -1    0    0    0    0  0.00000000000E+00  0.00000000000E+00  0.45593999997E+02  0.45594000000E+02  0.51100000000E-03 0.  1.
         11   -1    0    0    0    0 -0.00000000000E+00 -0.00000000000E+00 -0.45593999997E+02  0.45594000000E+02  0.51100000000E-03 0. -1.
    9900012    2    1    2    0    0  0.47974884722E+00  0.31245627328E+02  0.63403867132E+01  0.59301954624E+02  0.50000019325E+02 0.  0.
        -12    1    1    2    0    0 -0.47974884722E+00 -0.31245627328E+02 -0.63403867132E+01  0.31886045376E+02  0.00000000000E+00 0.  1.
         11    1    3    3    0    0  0.15005251266E+02  0.16971395650E+02  0.19874691144E+01  0.22740621575E+02  0.51100000000E-03 0. -1.
        -11    1    3    3    0    0 -0.11706917321E+02 -0.27846738833E+01 -0.87405112314E+01  0.14872890057E+02  0.51100000000E-03 0.  1.
        -12    1    3    3    0    0 -0.28185850978E+01  0.17058905561E+02  0.13093428830E+02  0.21688442992E+02  0.00000000000E+00 0.  1.
</event>
<event>
 7    1  0.6180395E-013  0.5930196E+02  0.7816164E-02  0.1266605E+00
        -11   -1    0    0    0    0  0.00000000000E+00  0.00000000000E+00  0.45593999997E+02  0.45594000000E+02  0.51100000000E-03 0.  1.
         11   -1    0    0    0    0 -0.00000000000E+00 -0.00000000000E+00 -0.45593999997E+02  0.45594000000E+02  0.51100000000E-03 0. -1.
    9900012    2    1    2    0    0 -0.58047693570E+01  0.16053112196E+01 -0.31312096419E+02  0.59301956759E+02  0.50000023220E+02 0.  0.
        -12    1    1    2    0    0  0.58047693570E+01 -0.16053112196E+01  0.31312096419E+02  0.31886043241E+02  0.00000000000E+00 0.  1.
         11    1    3    3    0    0 -0.10574310786E+02  0.78905286050E+01 -0.34193646832E+02  0.36650811372E+02  0.51100000000E-03 0. -1.
        -11    1    3    3    0    0  0.67188633241E+01 -0.12306880532E+02 -0.26209830894E+01  0.14264360673E+02  0.51100000000E-03 0.  1.
         12    1    3    3    0    0 -0.19493218947E+01  0.60216631463E+01  0.55025335030E+01  0.83867847146E+01  0.00000000000E+00 0. -1.
</event>
<event>
 7    1  0.6180395E-013  0.5930192E+02  0.7816164E-02  0.1266605E+00
        -11   -1    0    0    0    0  0.00000000000E+00  0.00000000000E+00  0.45593999997E+02  0.45594000000E+02  0.51100000000E-03 0.  1.
         11   -1    0    0    0    0 -0.00000000000E+00 -0.00000000000E+00 -0.45593999997E+02  0.45594000000E+02  0.51100000000E-03 0. -1.
    9900012    2    1    2    0    0  0.24546481030E+01 -0.83706261518E-01 -0.31791347309E+02  0.59301920470E+02  0.49999957036E+02 0.  0.
        -12    1    1    2    0    0 -0.24546481030E+01  0.83706261518E-01  0.31791347309E+02  0.31886079530E+02  0.00000000000E+00 0.  1.
         11    1    3    3    0    0  0.29259553894E+00 -0.13307833548E+02 -0.18723921018E+02  0.22973229300E+02  0.51100000000E-03 0. -1.
        -11    1    3    3    0    0 -0.45623193950E+01  0.19002176227E+02  0.11471796086E+01  0.19575839214E+02  0.51100000000E-03 0.  1.
        -12    1    3    3    0    0  0.67243719591E+01 -0.57780489398E+01 -0.14214605900E+02  0.16752851957E+02  0.00000000000E+00 0.  1.
</event>
<event>
 7    1  0.6180395E-013  0.5930210E+02  0.7816164E-02  0.1266604E+00
        -11   -1    0    0    0    0  0.00000000000E+00  0.00000000000E+00  0.45593999997E+02  0.45594000000E+02  0.51100000000E-03 0. -1.
         11   -1    0    0    0    0 -0.00000000000E+00 -0.00000000000E+00 -0.45593999997E+02  0.45594000000E+02  0.51100000000E-03 0.  1.
    9900012    2    1    2    0    0 -0.19225025150E+02  0.17339673363E+02  0.18613022773E+02  0.59302102159E+02  0.50000288393E+02 0.  0.
        -12    1    1    2    0    0  0.19225025150E+02 -0.17339673363E+02 -0.18613022773E+02  0.31885897841E+02  0.00000000000E+00 0.  1.
         11    1    3    3    0    0  0.21427853722E+01  0.20711772962E+02  0.18373519437E+02  0.27769682842E+02  0.51100000000E-03 0. -1.
        -11    1    3    3    0    0 -0.12566535577E+02 -0.55106192478E+01 -0.10649106059E+02  0.17369173872E+02  0.51100000000E-03 0.  1.
         12    1    3    3    0    0 -0.88012749459E+01  0.21385196485E+01  0.10888609395E+02  0.14163245444E+02  0.00000000000E+00 0. -1.
</event>
<event>
 7    1  0.6180395E-013  0.5930195E+02  0.7816164E-02  0.1266605E+00
        -11   -1    0    0    0    0  0.00000000000E+00  0.00000000000E+00  0.45593999997E+02  0.45594000000E+02  0.51100000000E-03 0.  1.
         11   -1    0    0    0    0 -0.00000000000E+00 -0.00000000000E+00 -0.45593999997E+02  0.45594000000E+02  0.51100000000E-03 0. -1.
    9900012    2    1    2    0    0 -0.21101818418E+02 -0.13156927041E+02 -0.19958178541E+02  0.59301947244E+02  0.50000005865E+02 0.  0.
        -12    1    1    2    0    0  0.21101818418E+02  0.13156927041E+02  0.19958178541E+02  0.31886052756E+02  0.00000000000E+00 0.  1.
         11    1    3    3    0    0 -0.25713748338E+02 -0.25785737482E+02 -0.97196813022E+01  0.37690493708E+02  0.51100000000E-03 0. -1.
        -11    1    3    3    0    0  0.27210578993E+01  0.11621882380E+02 -0.83315003663E+00  0.11965218150E+02  0.51100000000E-03 0.  1.
        -12    1    3    3    0    0  0.18908720211E+01  0.10069280616E+01 -0.94053472020E+01  0.96462353855E+01  0.00000000000E+00 0.  1.
</event>
<event>
 7    1  0.6180395E-013  0.5930187E+02  0.7816164E-02  0.1266605E+00
        -11   -1    0    0    0    0  0.00000000000E+00  0.00000000000E+00  0.45593999997E+02  0.45594000000E+02  0.51100000000E-03 0.  1.
         11   -1    0    0    0    0 -0.00000000000E+00 -0.00000000000E+00 -0.45593999997E+02  0.45594000000E+02  0.51100000000E-03 0. -1.
    9900012    2    1    2    0    0 -0.58508037521E+01 -0.18411556541E+02 -0.25367454085E+02  0.59301873777E+02  0.49999871879E+02 0.  0.
        -12    1    1    2    0    0  0.58508037521E+01  0.18411556541E+02  0.25367454085E+02  0.31886126223E+02  0.00000000000E+00 0.  1.
         11    1    3    3    0    0 -0.17478590357E+02  0.33398582026E+01 -0.26445220184E+02  0.31874840306E+02  0.51100000000E-03 0. -1.
        -11    1    3    3    0    0  0.84889342765E+01 -0.11994441847E+02  0.62238744878E+01  0.15958234686E+02  0.51100000000E-03 0.  1.
         12    1    3    3    0    0  0.31388523280E+01 -0.97569728961E+01 -0.51461083884E+01  0.11468798785E+02  0.00000000000E+00 0. -1.
</event>
<event>
 7    1  0.6180395E-013  0.5930193E+02  0.7816164E-02  0.1266605E+00
        -11   -1    0    0    0    0  0.00000000000E+00  0.00000000000E+00  0.45593999997E+02  0.45594000000E+02  0.51100000000E-03 0.  1.
         11   -1    0    0    0    0 -0.00000000000E+00 -0.00000000000E+00 -0.45593999997E+02  0.45594000000E+02  0.51100000000E-03 0. -1.
    9900012    2    1    2    0    0  0.30903677198E+02 -0.41861229905E+01 -0.66453420891E+01  0.59301929977E+02  0.49999974375E+02 0.  0.
        -12    1    1    2    0    0 -0.30903677198E+02  0.41861229905E+01  0.66453420891E+01  0.31886070023E+02  0.00000000000E+00 0.  1.
         11    1    3    3    0    0  0.23424579754E+01 -0.10544390025E+02 -0.13616802543E+02  0.17380695674E+02  0.51100000000E-03 0. -1.
        -11    1    3    3    0    0  0.32044092190E+02  0.56759397207E+01 -0.16634753246E+01  0.32585384552E+02  0.51100000000E-03 0.  1.
        -12    1    3    3    0    0 -0.34828729679E+01  0.68232731395E+00  0.86349357782E+01  0.93358497506E+01  0.00000000000E+00 0.  1.
</event>
<event>
 7    1  0.6399805E-013  0.5930195E+02  0.7816164E-02  0.1266605E+00
        -11   -1    0    0    0    0  0.00000000000E+00  0.00000000000E+00  0.45593999997E+02  0.45594000000E+02  0.51100000000E-03 0.  1.
         11   -1    0    0    0    0 -0.00000000000E+00 -0.00000000000E+00 -0.45593999997E+02  0.45594000000E+02  0.51100000000E-03 0. -1.
    9900012    2    1    2    0    0  0.43556710048E+01 -0.31187241841E+02 -0.50103931453E+01  0.59301953475E+02  0.50000017229E+02 0.  0.
        -12    1    1    2    0    0 -0.43556710048E+01  0.31187241841E+02  0.50103931453E+01  0.31886046525E+02  0.00000000000E+00 0.  1.
         11    1    3    3    0    0 -0.15463289151E+02 -0.31338186449E+01 -0.15330257753E+00  0.15778391319E+02  0.51100000000E-03 0. -1.
        -11    1    3    3    0    0  0.18518604186E+02 -0.53971037264E+01  0.29735980751E+01  0.19516908449E+02  0.51100000000E-03 0.  1.
         12    1    3    3    0    0  0.13003559705E+01 -0.22656319470E+02 -0.78306886429E+01  0.24006653707E+02  0.00000000000E+00 0. -1.
</event>
<event>
 7    1  0.6180395E-013  0.5930192E+02  0.7816164E-02  0.1266605E+00
        -11   -1    0    0    0    0  0.00000000000E+00  0.00000000000E+00  0.45593999997E+02  0.45594000000E+02  0.51100000000E-03 0.  1.
         11   -1    0    0    0    0 -0.00000000000E+00 -0.00000000000E+00 -0.45593999997E+02  0.45594000000E+02  0.51100000000E-03 0. -1.
    9900012    2    1    2    0    0  0.10930838000E+02  0.27631652281E+01 -0.29826231381E+02  0.59301915576E+02  0.49999948112E+02 0.  0.
        -12    1    1    2    0    0 -0.10930838000E+02 -0.27631652281E+01  0.29826231381E+02  0.31886084424E+02  0.00000000000E+00 0.  1.
         11    1    3    3    0    0  0.16735592026E+02  0.98111009266E+01 -0.16527723972E+02  0.25485356615E+02  0.51100000000E-03 0. -1.
        -11    1    3    3    0    0 -0.12693012242E+02 -0.33967507344E+01  0.48959686329E+01  0.14022160477E+02  0.51100000000E-03 0.  1.
        -12    1    3    3    0    0  0.68882582157E+01 -0.36511849641E+01 -0.18194476043E+02  0.19794398484E+02  0.00000000000E+00 0.  1.
</event>
<event>
 7    1  0.6180395E-013  0.5930170E+02  0.7816164E-02  0.1266606E+00
        -11   -1    0    0    0    0  0.00000000000E+00  0.00000000000E+00  0.45593999997E+02  0.45594000000E+02  0.51100000000E-03 0.  1.
         11   -1    0    0    0    0 -0.00000000000E+00 -0.00000000000E+00 -0.45593999997E+02  0.45594000000E+02  0.51100000000E-03 0. -1.
    9900012    2    1    2    0    0  0.22121103311E+02 -0.13997647657E+01 -0.22922334507E+02  0.59301702436E+02  0.49999559393E+02 0.  0.
        -12    1    1    2    0    0 -0.22121103311E+02  0.13997647657E+01  0.22922334507E+02  0.31886297564E+02  0.00000000000E+00 0.  1.
         11    1    3    3    0    0  0.24402048939E+02 -0.18047896316E+01 -0.40820462641E+01  0.24806861147E+02  0.51100000000E-03 0. -1.
        -11    1    3    3    0    0 -0.11091046910E+02 -0.31079054550E+01  0.19138174510E+01  0.11676176402E+02  0.51100000000E-03 0.  1.
        -12    1    3    3    0    0  0.88101012826E+01  0.35129303209E+01 -0.20754105694E+02  0.22818664886E+02  0.00000000000E+00 0.  1.
</event>
<event>
 7    1  0.6180395E-013  0.5930217E+02  0.7816164E-02  0.1266604E+00
        -11   -1    0    0    0    0  0.00000000000E+00  0.00000000000E+00  0.45593999997E+02  0.45594000000E+02  0.51100000000E-03 0.  1.
         11   -1    0    0    0    0 -0.00000000000E+00 -0.00000000000E+00 -0.45593999997E+02  0.45594000000E+02  0.51100000000E-03 0. -1.
    9900012    2    1    2    0    0 -0.38394557870E+01 -0.21775975014E+02 -0.22973278310E+02  0.59302172038E+02  0.50000415833E+02 0.  0.
        -12    1    1    2    0    0  0.38394557870E+01  0.21775975014E+02  0.22973278310E+02  0.31885827962E+02  0.00000000000E+00 0.  1.
         11    1    3    3    0    0 -0.19963492650E+01 -0.59302901099E+01  0.58285178300E+01  0.85513374118E+01  0.51100000000E-03 0.  1.
        -11    1    3    3    0    0 -0.19463520388E+02 -0.99020101964E+01 -0.21867534760E+02  0.30904166524E+02  0.51100000000E-03 0. -1.
        -12    1    3    3    0    0  0.17620413866E+02 -0.59436747078E+01 -0.69342613796E+01  0.19846668101E+02  0.00000000000E+00 0.  1.
</event>
<event>
 7    1  0.6180395E-013  0.5930195E+02  0.7816164E-02  0.1266605E+00
        -11   -1    0    0    0    0  0.00000000000E+00  0.00000000000E+00  0.45593999997E+02  0.45594000000E+02  0.51100000000E-03 0.  1.
         11   -1    0    0    0    0 -0.00000000000E+00 -0.00000000000E+00 -0.45593999997E+02  0.45594000000E+02  0.51100000000E-03 0. -1.
    9900012    2    1    2    0    0 -0.16053924574E+02 -0.26169706558E+02 -0.86103646288E+01  0.59301946393E+02  0.50000004315E+02 0.  0.
        -12    1    1    2    0    0  0.16053924574E+02  0.26169706558E+02  0.86103646288E+01  0.31886053607E+02  0.00000000000E+00 0.  1.
         11    1    3    3    0    0 -0.96278994450E+01  0.18517114576E+01 -0.19623783508E+02  0.21936685312E+02  0.51100000000E-03 0. -1.
        -11    1    3    3    0    0  0.78337884769E+01 -0.10741332062E+02  0.37531918914E+01  0.13814156000E+02  0.51100000000E-03 0.  1.
         12    1    3    3    0    0 -0.14259813606E+02 -0.17280085953E+02  0.72602269877E+01  0.23551105081E+02  0.00000000000E+00 0. -1.
</event>
<event>
 7    1  0.6180395E-013  0.5930224E+02  0.7816164E-02  0.1266604E+00
        -11   -1    0    0    0    0  0.00000000000E+00  0.00000000000E+00  0.45593999997E+02  0.45594000000E+02  0.51100000000E-03 0. -1.
         11   -1    0    0    0    0 -0.00000000000E+00 -0.00000000000E+00 -0.45593999997E+02  0.45594000000E+02  0.51100000000E-03 0.  1.
    9900012    2    1    2    0    0  0.91262970769E+01  0.29919321699E+02 -0.61844069427E+01  0.59302235175E+02  0.50000530980E+02 0.  0.
        -12    1    1    2    0    0 -0.91262970769E+01 -0.29919321699E+02  0.61844069427E+01  0.31885764825E+02  0.00000000000E+00 0.  1.
         11    1    3    3    0    0 -0.14563363446E+02  0.21444914153E+02 -0.16631975155E+02  0.30799326222E+02  0.51100000000E-03 0. -1.
        -11    1    3    3    0    0  0.17261902886E+02  0.21631178542E+01  0.81212091011E+01  0.19199125179E+02  0.51100000000E-03 0.  1.
         12    1    3    3    0    0  0.64277576368E+01  0.63112896918E+01  0.23263591111E+01  0.93037837746E+01  0.00000000000E+00 0. -1.
</event>
<event>
 7    1  0.6180395E-013  0.5930194E+02  0.7816164E-02  0.1266605E+00
        -11   -1    0    0    0    0  0.00000000000E+00  0.00000000000E+00  0.45593999997E+02  0.45594000000E+02  0.51100000000E-03 0. -1.
         11   -1    0    0    0    0 -0.00000000000E+00 -0.00000000000E+00 -0.45593999997E+02  0.45594000000E+02  0.51100000000E-03 0.  1.
    9900012    2    1    2    0    0 -0.24150888443E+02  0.15321560278E+02  0.14096282076E+02  0.59301940502E+02  0.49999993570E+02 0.  0.
        -12    1    1    2    0    0  0.24150888443E+02 -0.15321560278E+02 -0.14096282076E+02  0.31886059498E+02  0.00000000000E+00 0.  1.
         11    1    3    3    0    0 -0.16545604470E+02  0.12954892698E+02  0.31781965885E+02  0.38100913740E+02  0.51100000000E-03 0. -1.
        -11    1    3    3    0    0 -0.74357205244E+01  0.10020615453E+01 -0.64875774928E+01  0.99188068357E+01  0.51100000000E-03 0.  1.
         12    1    3    3    0    0 -0.16956344869E+00  0.13646060351E+01 -0.11198106316E+02  0.11282219926E+02  0.00000000000E+00 0. -1.
</event>
<event>
 7    1  0.6180395E-013  0.5930185E+02  0.7816164E-02  0.1266605E+00
        -11   -1    0    0    0    0  0.00000000000E+00  0.00000000000E+00  0.45593999997E+02  0.45594000000E+02  0.51100000000E-03 0. -1.
         11   -1    0    0    0    0 -0.00000000000E+00 -0.00000000000E+00 -0.45593999997E+02  0.45594000000E+02  0.51100000000E-03 0.  1.
    9900012    2    1    2    0    0  0.29841371729E+02 -0.11070324540E+02  0.19149027757E+01  0.59301852464E+02  0.49999833009E+02 0.  0.
        -12    1    1    2    0    0 -0.29841371729E+02  0.11070324540E+02 -0.19149027757E+01  0.31886147536E+02  0.00000000000E+00 0.  1.
         11    1    3    3    0    0  0.28484965706E+02  0.12317076465E+02 -0.24737921484E+01  0.31132351209E+02  0.51100000000E-03 0. -1.
        -11    1    3    3    0    0  0.51484063539E+01 -0.23444215967E+02  0.33351787045E+01  0.24233463796E+02  0.51100000000E-03 0.  1.
         12    1    3    3    0    0 -0.37920003317E+01  0.56814962027E-01  0.10535162196E+01  0.39360374592E+01  0.00000000000E+00 0. -1.
</event>
<event>
 7    1  0.6180395E-013  0.5930192E+02  0.7816164E-02  0.1266605E+00
        -11   -1    0    0    0    0  0.00000000000E+00  0.00000000000E+00  0.45593999997E+02  0.45594000000E+02  0.51100000000E-03 0.  1.
         11   -1    0    0    0    0 -0.00000000000E+00 -0.00000000000E+00 -0.45593999997E+02  0.45594000000E+02  0.51100000000E-03 0. -1.
    9900012    2    1    2    0    0  0.10925642648E+02  0.14078264550E+02 -0.26441534800E+02  0.59301922120E+02  0.49999960045E+02 0.  0.
        -12    1    1    2    0    0 -0.10925642648E+02 -0.14078264550E+02  0.26441534800E+02  0.31886077880E+02  0.00000000000E+00 0.  1.
         11    1    3    3    0    0  0.56099849748E+01  0.19727105467E+02 -0.82141174755E+01  0.22093038444E+02  0.51100000000E-03 0. -1.
        -11    1    3    3    0    0  0.94256430955E+01 -0.14500678283E+02 -0.20863406405E+02  0.27099707480E+02  0.51100000000E-03 0.  1.
        -12    1    3    3    0    0 -0.41099854224E+01  0.88518373652E+01  0.26359890805E+01  0.10109176195E+02  0.00000000000E+00 0.  1.
</event>
<event>
 7    1  0.6180395E-013  0.5930194E+02  0.7816164E-02  0.1266605E+00
        -11   -1    0    0    0    0  0.00000000000E+00  0.00000000000E+00  0.45593999997E+02  0.45594000000E+02  0.51100000000E-03 0.  1.
         11   -1    0    0    0    0 -0.00000000000E+00 -0.00000000000E+00 -0.45593999997E+02  0.45594000000E+02  0.51100000000E-03 0. -1.
    9900012    2    1    2    0    0  0.30499257974E+02  0.10251331149E+01  0.92447436797E+01  0.59301938459E+02  0.49999989844E+02 0.  0.
        -12    1    1    2    0    0 -0.30499257974E+02 -0.10251331149E+01 -0.92447436797E+01  0.31886061541E+02  0.00000000000E+00 0.  1.
         11    1    3    3    0    0  0.15771789725E+02  0.61681849424E+01 -0.96217994176E+01  0.19477548124E+02  0.51100000000E-03 0. -1.
        -11    1    3    3    0    0  0.11737212700E+02 -0.97871530982E+01  0.26387252857E+02  0.30493239272E+02  0.51100000000E-03 0.  1.
         12    1    3    3    0    0  0.29902555494E+01  0.46441012707E+01 -0.75207097598E+01  0.93311510626E+01  0.00000000000E+00 0. -1.
</event>
<event>
 7    1  0.6180395E-013  0.5930196E+02  0.7816164E-02  0.1266605E+00
        -11   -1    0    0    0    0  0.00000000000E+00  0.00000000000E+00  0.45593999997E+02  0.45594000000E+02  0.51100000000E-03 0. -1.
         11   -1    0    0    0    0 -0.00000000000E+00 -0.00000000000E+00 -0.45593999997E+02  0.45594000000E+02  0.51100000000E-03 0.  1.
    9900012    2    1    2    0    0 -0.28315855594E+02  0.82446689421E+01  0.12122591575E+02  0.59301961198E+02  0.50000031314E+02 0.  0.
        -12    1    1    2    0    0  0.28315855594E+02 -0.82446689421E+01 -0.12122591575E+02  0.31886038802E+02  0.00000000000E+00 0.  1.
         11    1    3    3    0    0  0.10012561760E+01 -0.13898242723E+02  0.14932334447E+02  0.20423963303E+02  0.51100000000E-03 0. -1.
        -11    1    3    3    0    0 -0.10021058997E+02  0.18683250070E+01 -0.37798732744E+01  0.10871968726E+02  0.51100000000E-03 0.  1.
         12    1    3    3    0    0 -0.19296052774E+02  0.20274586658E+02  0.97013040292E+00  0.28006029169E+02  0.00000000000E+00 0. -1.
</event>
<event>
 7    1  0.6180395E-013  0.5930189E+02  0.7816164E-02  0.1266605E+00
        -11   -1    0    0    0    0  0.00000000000E+00  0.00000000000E+00  0.45593999997E+02  0.45594000000E+02  0.51100000000E-03 0. -1.
         11   -1    0    0    0    0 -0.00000000000E+00 -0.00000000000E+00 -0.45593999997E+02  0.45594000000E+02  0.51100000000E-03 0.  1.
    9900012    2    1    2    0    0 -0.56974262694E+01 -0.14921283021E+02  0.27597440819E+02  0.59301888715E+02  0.49999899124E+02 0.  0.
        -12    1    1    2    0    0  0.56974262694E+01  0.14921283021E+02 -0.27597440819E+02  0.31886111285E+02  0.00000000000E+00 0.  1.
         11    1    3    3    0    0 -0.16145558152E+02 -0.99538797009E+01  0.15873764272E+02  0.24733280444E+02  0.51100000000E-03 0. -1.
        -11    1    3    3    0    0  0.54841257147E+01 -0.80150441910E+01 -0.88787353948E+01  0.13158590757E+02  0.51100000000E-03 0.  1.
         12    1    3    3    0    0  0.49640061676E+01  0.30476408708E+01  0.20602411942E+02  0.21410017514E+02  0.00000000000E+00 0. -1.
</event>
<event>
 7    1  0.6180395E-013  0.5930192E+02  0.7816164E-02  0.1266605E+00
        -11   -1    0    0    0    0  0.00000000000E+00  0.00000000000E+00  0.45593999997E+02  0.45594000000E+02  0.51100000000E-03 0.  1.
         11   -1    0    0    0    0 -0.00000000000E+00 -0.00000000000E+00 -0.45593999997E+02  0.45594000000E+02  0.51100000000E-03 0. -1.
    9900012    2    1    2    0    0  0.61217279418E+01  0.15147030527E+02 -0.27382730965E+02  0.59301920876E+02  0.49999957777E+02 0.  0.
        -12    1    1    2    0    0 -0.61217279418E+01 -0.15147030527E+02  0.27382730965E+02  0.31886079124E+02  0.00000000000E+00 0.  1.
         11    1    3    3    0    0  0.19410061702E+02  0.25018002386E+02 -0.10486725869E+02  0.33355994340E+02  0.51100000000E-03 0. -1.
        -11    1    3    3    0    0 -0.13019847866E+02 -0.42469785289E+01 -0.95753877831E+01  0.16710515149E+02  0.51100000000E-03 0.  1.
         12    1    3    3    0    0 -0.26848589383E+00 -0.56239933305E+01 -0.73206173129E+01  0.92354113877E+01  0.00000000000E+00 0. -1.
</event>
<event>
 7    1  0.6180395E-013  0.5930194E+02  0.7816164E-02  0.1266605E+00
        -11   -1    0    0    0    0  0.00000000000E+00  0.00000000000E+00  0.45593999997E+02  0.45594000000E+02  0.51100000000E-03 0.  1.
         11   -1    0    0    0    0 -0.00000000000E+00 -0.00000000000E+00 -0.45593999997E+02  0.45594000000E+02  0.51100000000E-03 0. -1.
    9900012    2    1    2    0    0  0.29723506594E+01  0.14139809364E+02 -0.28424486830E+02  0.59301944602E+02  0.50000001048E+02 0.  0.
        -12    1    1    2    0    0 -0.29723506594E+01 -0.14139809364E+02  0.28424486830E+02  0.31886055398E+02  0.00000000000E+00 0.  1.
         11    1    3    3    0    0  0.82328640233E+01  0.96746772195E+01 -0.10972567192E+02  0.16786204466E+02  0.51100000000E-03 0. -1.
        -11    1    3    3    0    0  0.29347913029E+01 -0.14458725218E+02 -0.16117454508E+02  0.21850402170E+02  0.51100000000E-03 0.  1.
        -12    1    3    3    0    0 -0.81953046668E+01  0.18923857362E+02 -0.13344651288E+01  0.20665337966E+02  0.00000000000E+00 0.  1.
</event>
<event>
 7    1  0.6180395E-013  0.5930198E+02  0.7816164E-02  0.1266605E+00
        -11   -1    0    0    0    0  0.00000000000E+00  0.00000000000E+00  0.45593999997E+02  0.45594000000E+02  0.51100000000E-03 0.  1.
         11   -1    0    0    0    0 -0.00000000000E+00 -0.00000000000E+00 -0.45593999997E+02  0.45594000000E+02  0.51100000000E-03 0. -1.
    9900012    2    1    2    0    0  0.10082755610E+02  0.20467592033E+02 -0.22274064387E+02  0.59301980671E+02  0.50000066829E+02 0.  0.
        -12    1    1    2    0    0 -0.10082755610E+02 -0.20467592033E+02  0.22274064387E+02  0.31886019329E+02  0.00000000000E+00 0.  1.
         11    1    3    3    0    0  0.72806556581E+01 -0.10197534413E+02  0.19420545071E+01  0.12679480702E+02  0.51100000000E-03 0. -1.
        -11    1    3    3    0    0 -0.81264282121E+00  0.25391042248E+02 -0.43768329482E+01  0.25778325812E+02  0.51100000000E-03 0.  1.
        -12    1    3    3    0    0  0.36147427733E+01  0.52740841979E+01 -0.19839285946E+02  0.20844174157E+02  0.00000000000E+00 0.  1.
</event>
<event>
 7    1  0.6180395E-013  0.5930189E+02  0.7816164E-02  0.1266605E+00
        -11   -1    0    0    0    0  0.00000000000E+00  0.00000000000E+00  0.45593999997E+02  0.45594000000E+02  0.51100000000E-03 0. -1.
         11   -1    0    0    0    0 -0.00000000000E+00 -0.00000000000E+00 -0.45593999997E+02  0.45594000000E+02  0.51100000000E-03 0.  1.
    9900012    2    1    2    0    0  0.10630400889E+02  0.29718803243E+02  0.45289550588E+01  0.59301888239E+02  0.49999898255E+02 0.  0.
        -12    1    1    2    0    0 -0.10630400889E+02 -0.29718803243E+02 -0.45289550588E+01  0.31886111761E+02  0.00000000000E+00 0.  1.
         11    1    3    3    0    0  0.45550909096E+01  0.26544482233E+02 -0.79233739138E+01  0.28073799968E+02  0.51100000000E-03 0. -1.
        -11    1    3    3    0    0 -0.10287008429E+02 -0.35732367636E+01  0.38613071510E+01  0.11554231111E+02  0.51100000000E-03 0.  1.
         12    1    3    3    0    0  0.16362318409E+02  0.67475577742E+01  0.85910218216E+01  0.19673857160E+02  0.00000000000E+00 0. -1.
</event>
<event>
 7    1  0.6180395E-013  0.5930195E+02  0.7816164E-02  0.1266605E+00
        -11   -1    0    0    0    0  0.00000000000E+00  0.00000000000E+00  0.45593999997E+02  0.45594000000E+02  0.51100000000E-03 0.  1.
         11   -1    0    0    0    0 -0.00000000000E+00 -0.00000000000E+00 -0.45593999997E+02  0.45594000000E+02  0.51100000000E-03 0. -1.
    9900012    2    1    2    0    0  0.35438454533E+01 -0.17646815091E+02 -0.26320163840E+02  0.59301953710E+02  0.50000017658E+02 0.  0.
        -12    1    1    2    0    0 -0.35438454533E+01  0.17646815091E+02  0.26320163840E+02  0.31886046290E+02  0.00000000000E+00 0.  1.
         11    1    3    3    0    0 -0.15413842032E+02 -0.15413084952E+02 -0.24740116384E+02  0.32973065870E+02  0.51100000000E-03 0. -1.
        -11    1    3    3    0    0  0.12373444307E+02  0.41986374120E+01 -0.78020436418E+01  0.15218494189E+02  0.51100000000E-03 0.  1.
        -12    1    3    3    0    0  0.65842431781E+01 -0.64323675509E+01  0.62219961857E+01  0.11110393651E+02  0.00000000000E+00 0.  1.
</event>
<event>
 7    1  0.6180395E-013  0.5930189E+02  0.7816164E-02  0.1266605E+00
        -11   -1    0    0    0    0  0.00000000000E+00  0.00000000000E+00  0.45593999997E+02  0.45594000000E+02  0.51100000000E-03 0. -1.
         11   -1    0    0    0    0 -0.00000000000E+00 -0.00000000000E+00 -0.45593999997E+02  0.45594000000E+02  0.51100000000E-03 0.  1.
    9900012    2    1    2    0    0  0.24370160206E+02  0.16700840185E+02 -0.11995887316E+02  0.59301888857E+02  0.49999899381E+02 0.  0.
        -12    1    1    2    0    0 -0.24370160206E+02 -0.16700840185E+02  0.11995887316E+02  0.31886111143E+02  0.00000000000E+00 0.  1.
         11    1    3    3    0    0  0.11707150791E+02 -0.15605836091E+02 -0.13058232466E+02  0.23475879859E+02  0.51100000000E-03 0. -1.
        -11    1    3    3    0    0  0.21677381102E+01  0.20263606642E+01 -0.20814415746E+01  0.36245862309E+01  0.51100000000E-03 0.  1.
         12    1    3    3    0    0  0.10495271305E+02  0.30280315611E+02  0.31437867251E+01  0.32201422767E+02  0.00000000000E+00 0. -1.
</event>
<event>
 7    1  0.6180395E-013  0.5930194E+02  0.7816164E-02  0.1266605E+00
        -11   -1    0    0    0    0  0.00000000000E+00  0.00000000000E+00  0.45593999997E+02  0.45594000000E+02  0.51100000000E-03 0. -1.
         11   -1    0    0    0    0 -0.00000000000E+00 -0.00000000000E+00 -0.45593999997E+02  0.45594000000E+02  0.51100000000E-03 0.  1.
    9900012    2    1    2    0    0  0.73957239849E+01 -0.28569576187E+02  0.12074909438E+02  0.59301939492E+02  0.49999991728E+02 0.  0.
        -12    1    1    2    0    0 -0.73957239849E+01  0.28569576187E+02 -0.12074909438E+02  0.31886060508E+02  0.00000000000E+00 0.  1.
         11    1    3    3    0    0 -0.12668666891E+02 -0.11463948896E+02 -0.77410981621E+01  0.18757447750E+02  0.51100000000E-03 0. -1.
        -11    1    3    3    0    0  0.19437449318E+02 -0.12942681183E+02  0.34014518651E+01  0.23598671726E+02  0.51100000000E-03 0.  1.
        -12    1    3    3    0    0  0.62694155822E+00 -0.41629461071E+01  0.16414555735E+02  0.16945820015E+02  0.00000000000E+00 0.  1.
</event>
<event>
 7    1  0.6180395E-013  0.5930195E+02  0.7816164E-02  0.1266605E+00
        -11   -1    0    0    0    0  0.00000000000E+00  0.00000000000E+00  0.45593999997E+02  0.45594000000E+02  0.51100000000E-03 0.  1.
         11   -1    0    0    0    0 -0.00000000000E+00 -0.00000000000E+00 -0.45593999997E+02  0.45594000000E+02  0.51100000000E-03 0. -1.
    9900012    2    1    2    0    0  0.18967251410E+02 -0.24901163890E+02 -0.60741996584E+01  0.59301945201E+02  0.50000002140E+02 0.  0.
        -12    1    1    2    0    0 -0.18967251410E+02  0.24901163890E+02  0.60741996584E+01  0.31886054799E+02  0.00000000000E+00 0.  1.
         11    1    3    3    0    0  0.18648809207E+02  0.22236283792E+01 -0.66704264248E+01  0.19930308502E+02  0.51100000000E-03 0. -1.
        -11    1    3    3    0    0  0.76677316997E+01 -0.27818161212E+02  0.68946982889E+01  0.29667845682E+02  0.51100000000E-03 0.  1.
        -12    1    3    3    0    0 -0.73492894966E+01  0.69336894265E+00 -0.62984715225E+01  0.97037910177E+01  0.00000000000E+00 0.  1.
</event>
<event>
 7    1  0.6180395E-013  0.5930191E+02  0.7816164E-02  0.1266605E+00
        -11   -1    0    0    0    0  0.00000000000E+00  0.00000000000E+00  0.45593999997E+02  0.45594000000E+02  0.51100000000E-03 0. -1.
         11   -1    0    0    0    0 -0.00000000000E+00 -0.00000000000E+00 -0.45593999997E+02  0.45594000000E+02  0.51100000000E-03 0.  1.
    9900012    2    1    2    0    0 -0.10981901267E+02  0.27500944539E+02 -0.11824486776E+02  0.59301912226E+02  0.49999942002E+02 0.  0.
        -12    1    1    2    0    0  0.10981901267E+02 -0.27500944539E+02  0.11824486776E+02  0.31886087774E+02  0.00000000000E+00 0.  1.
         11    1    3    3    0    0  0.22765807878E+01 -0.52141358941E+01 -0.19249611151E+02  0.20072806554E+02  0.51100000000E-03 0.  1.
        -11    1    3    3    0    0 -0.11167916461E+02  0.22047873721E+02 -0.20624125151E+01  0.24800899970E+02  0.51100000000E-03 0. -1.
         12    1    3    3    0    0 -0.20905655940E+01  0.10667206712E+02  0.94875368902E+01  0.14428205702E+02  0.00000000000E+00 0. -1.
</event>
<event>
 7    1  0.6180395E-013  0.5930194E+02  0.7816164E-02  0.1266605E+00
        -11   -1    0    0    0    0  0.00000000000E+00  0.00000000000E+00  0.45593999997E+02  0.45594000000E+02  0.51100000000E-03 0. -1.
         11   -1    0    0    0    0 -0.00000000000E+00 -0.00000000000E+00 -0.45593999997E+02  0.45594000000E+02  0.51100000000E-03 0.  1.
    9900012    2    1    2    0    0  0.13484146978E+02  0.27481848964E+02 -0.89244884107E+01  0.59301941360E+02  0.49999995134E+02 0.  0.
        -12    1    1    2    0    0 -0.13484146978E+02 -0.27481848964E+02  0.89244884107E+01  0.31886058640E+02  0.00000000000E+00 0.  1.
         11    1    3    3    0    0  0.69717139530E+01  0.16111287727E+02 -0.23143162943E+01  0.17706903960E+02  0.51100000000E-03 0. -1.
        -11    1    3    3    0    0  0.16473530744E+02 -0.37685466285E+01  0.76353945266E+01  0.18543958820E+02  0.51100000000E-03 0.  1.
        -12    1    3    3    0    0 -0.99610977190E+01  0.15139107866E+02 -0.14245566643E+02  0.23051078580E+02  0.00000000000E+00 0.  1.
</event>
<event>
 7    1  0.6180395E-013  0.5930194E+02  0.7816164E-02  0.1266605E+00
        -11   -1    0    0    0    0  0.00000000000E+00  0.00000000000E+00  0.45593999997E+02  0.45594000000E+02  0.51100000000E-03 0. -1.
         11   -1    0    0    0    0 -0.00000000000E+00 -0.00000000000E+00 -0.45593999997E+02  0.45594000000E+02  0.51100000000E-03 0.  1.
    9900012    2    1    2    0    0 -0.20475946688E+02  0.53783765143E+01  0.23843849984E+02  0.59301944916E+02  0.50000001621E+02 0.  0.
        -12    1    1    2    0    0  0.20475946688E+02 -0.53783765143E+01 -0.23843849984E+02  0.31886055084E+02  0.00000000000E+00 0.  1.
         11    1    3    3    0    0 -0.17349998386E+02 -0.37321479573E+00 -0.13051086629E+02  0.21713880256E+02  0.51100000000E-03 0. -1.
        -11    1    3    3    0    0 -0.32371163735E+01  0.33729929839E+01  0.27589711766E+02  0.27982998404E+02  0.51100000000E-03 0.  1.
         12    1    3    3    0    0  0.11116807154E+00  0.23785983261E+01  0.93052248480E+01  0.96050662574E+01  0.00000000000E+00 0. -1.
</event>
<event>
 7    1  0.6180395E-013  0.5930193E+02  0.7816164E-02  0.1266605E+00
        -11   -1    0    0    0    0  0.00000000000E+00  0.00000000000E+00  0.45593999997E+02  0.45594000000E+02  0.51100000000E-03 0.  1.
         11   -1    0    0    0    0 -0.00000000000E+00 -0.00000000000E+00 -0.45593999997E+02  0.45594000000E+02  0.51100000000E-03 0. -1.
    9900012    2    1    2    0    0 -0.31047975523E+02  0.29443876600E+01  0.66389108499E+01  0.59301931882E+02  0.49999977849E+02 0.  0.
        -12    1    1    2    0    0  0.31047975523E+02 -0.29443876600E+01 -0.66389108499E+01  0.31886068118E+02  0.00000000000E+00 0.  1.
         11    1    3    3    0    0 -0.24829967551E+01 -0.20700790618E+02  0.75956806614E+01  0.22189690626E+02  0.51100000000E-03 0.  1.
        -11    1    3    3    0    0 -0.17305124288E+02  0.14492224545E+02 -0.11347646974E+01  0.22600433405E+02  0.51100000000E-03 0. -1.
        -12    1    3    3    0    0 -0.11259854479E+02  0.91529537330E+01  0.17799488602E+00  0.14511807851E+02  0.00000000000E+00 0.  1.
</event>
<event>
 7    1  0.6180395E-013  0.5930188E+02  0.7816164E-02  0.1266605E+00
        -11   -1    0    0    0    0  0.00000000000E+00  0.00000000000E+00  0.45593999997E+02  0.45594000000E+02  0.51100000000E-03 0.  1.
         11   -1    0    0    0    0 -0.00000000000E+00 -0.00000000000E+00 -0.45593999997E+02  0.45594000000E+02  0.51100000000E-03 0. -1.
    9900012    2    1    2    0    0  0.27162310846E+02 -0.14431190469E+02  0.84067904393E+01  0.59301882106E+02  0.49999887070E+02 0.  0.
        -12    1    1    2    0    0 -0.27162310846E+02  0.14431190469E+02 -0.84067904393E+01  0.31886117894E+02  0.00000000000E+00 0.  1.
         11    1    3    3    0    0  0.31474259087E+01 -0.13576119821E+02 -0.31099396878E+01  0.14278972105E+02  0.51100000000E-03 0. -1.
        -11    1    3    3    0    0  0.28614215861E+02  0.77439797814E+01 -0.37250509459E+00  0.29645932815E+02  0.51100000000E-03 0.  1.
        -12    1    3    3    0    0 -0.45993309232E+01 -0.85990504285E+01  0.11889235222E+02  0.15376977186E+02  0.00000000000E+00 0.  1.
</event>
<event>
 7    1  0.6180395E-013  0.5930195E+02  0.7816164E-02  0.1266605E+00
        -11   -1    0    0    0    0  0.00000000000E+00  0.00000000000E+00  0.45593999997E+02  0.45594000000E+02  0.51100000000E-03 0. -1.
         11   -1    0    0    0    0 -0.00000000000E+00 -0.00000000000E+00 -0.45593999997E+02  0.45594000000E+02  0.51100000000E-03 0.  1.
    9900012    2    1    2    0    0  0.20276921493E+02 -0.24403594553E+02  0.31671891849E+01  0.59301951959E+02  0.50000014465E+02 0.  0.
        -12    1    1    2    0    0 -0.20276921493E+02  0.24403594553E+02 -0.31671891849E+01  0.31886048041E+02  0.00000000000E+00 0.  1.
         11    1    3    3    0    0  0.20057073586E+02  0.90723611803E+01  0.91026434789E+01  0.23821252208E+02  0.51100000000E-03 0. -1.
        -11    1    3    3    0    0  0.33636624889E+01 -0.21615229836E+02 -0.58197679552E-01  0.21875460531E+02  0.51100000000E-03 0.  1.
         12    1    3    3    0    0 -0.31438145815E+01 -0.11860725897E+02 -0.58772566145E+01  0.13605239220E+02  0.00000000000E+00 0. -1.
</event>
<event>
 7    1  0.6180395E-013  0.5930193E+02  0.7816164E-02  0.1266605E+00
        -11   -1    0    0    0    0  0.00000000000E+00  0.00000000000E+00  0.45593999997E+02  0.45594000000E+02  0.51100000000E-03 0. -1.
         11   -1    0    0    0    0 -0.00000000000E+00 -0.00000000000E+00 -0.45593999997E+02  0.45594000000E+02  0.51100000000E-03 0.  1.
    9900012    2    1    2    0    0  0.26846264826E+01 -0.28198550746E+02 -0.14640892699E+02  0.59301933724E+02  0.49999981208E+02 0.  0.
        -12    1    1    2    0    0 -0.26846264826E+01  0.28198550746E+02  0.14640892699E+02  0.31886066276E+02  0.00000000000E+00 0.  1.
         11    1    3    3    0    0  0.25679196207E+02 -0.11885677426E+02 -0.37336636791E+01  0.28541735939E+02  0.51100000000E-03 0.  1.
        -11    1    3    3    0    0 -0.17144695411E+02 -0.98668534308E+01 -0.94938360206E+01  0.21941474427E+02  0.51100000000E-03 0. -1.
        -12    1    3    3    0    0 -0.58498743125E+01 -0.64460198896E+01 -0.14133929998E+01  0.88187233578E+01  0.00000000000E+00 0.  1.
</event>
<event>
 7    1  0.6180395E-013  0.5930194E+02  0.7816164E-02  0.1266605E+00
        -11   -1    0    0    0    0  0.00000000000E+00  0.00000000000E+00  0.45593999997E+02  0.45594000000E+02  0.51100000000E-03 0.  1.
         11   -1    0    0    0    0 -0.00000000000E+00 -0.00000000000E+00 -0.45593999997E+02  0.45594000000E+02  0.51100000000E-03 0. -1.
    9900012    2    1    2    0    0  0.20499083806E+02 -0.71434680111E+01 -0.23355500132E+02  0.59301937864E+02  0.49999988759E+02 0.  0.
        -12    1    1    2    0    0 -0.20499083806E+02  0.71434680111E+01  0.23355500132E+02  0.31886062136E+02  0.00000000000E+00 0.  1.
         11    1    3    3    0    0  0.56071484224E+01  0.15003694915E+02 -0.23840582794E+02  0.28721496527E+02  0.51100000000E-03 0. -1.
        -11    1    3    3    0    0  0.10245188614E+02 -0.23578918604E+02  0.62433892858E+00  0.25716125128E+02  0.51100000000E-03 0.  1.
        -12    1    3    3    0    0  0.46467467703E+01  0.14317556771E+01 -0.13925626652E+00  0.48643162082E+01  0.00000000000E+00 0.  1.
</event>
<event>
 7    1  0.6180395E-013  0.5930198E+02  0.7816164E-02  0.1266605E+00
        -11   -1    0    0    0    0  0.00000000000E+00  0.00000000000E+00  0.45593999997E+02  0.45594000000E+02  0.51100000000E-03 0.  1.
         11   -1    0    0    0    0 -0.00000000000E+00 -0.00000000000E+00 -0.45593999997E+02  0.45594000000E+02  0.51100000000E-03 0. -1.
    9900012    2    1    2    0    0 -0.25936167176E+02  0.17015186740E+02  0.73835630539E+01  0.59301978753E+02  0.50000063330E+02 0.  0.
        -12    1    1    2    0    0  0.25936167176E+02 -0.17015186740E+02 -0.73835630539E+01  0.31886021247E+02  0.00000000000E+00 0.  1.
         11    1    3    3    0    0 -0.17425762034E+02  0.17027166372E+02 -0.14343291664E+02  0.28272099200E+02  0.51100000000E-03 0. -1.
        -11    1    3    3    0    0 -0.63709623631E+00 -0.90587855396E+01  0.14248126064E+02  0.16896052310E+02  0.51100000000E-03 0.  1.
         12    1    3    3    0    0 -0.78733089060E+01  0.90468059075E+01  0.74787286539E+01  0.14133827243E+02  0.00000000000E+00 0. -1.
</event>
<event>
 7    1  0.6180395E-013  0.5930194E+02  0.7816164E-02  0.1266605E+00
        -11   -1    0    0    0    0  0.00000000000E+00  0.00000000000E+00  0.45593999997E+02  0.45594000000E+02  0.51100000000E-03 0.  1.
         11   -1    0    0    0    0 -0.00000000000E+00 -0.00000000000E+00 -0.45593999997E+02  0.45594000000E+02  0.51100000000E-03 0. -1.
    9900012    2    1    2    0    0  0.26943165090E+02 -0.12300451601E+02 -0.11810396387E+02  0.59301941644E+02  0.49999995652E+02 0.  0.
        -12    1    1    2    0    0 -0.26943165090E+02  0.12300451601E+02  0.11810396387E+02  0.31886058356E+02  0.00000000000E+00 0.  1.
         11    1    3    3    0    0  0.10977795605E+02  0.11697721084E+02 -0.36507029506E+01  0.16452243227E+02  0.51100000000E-03 0. -1.
        -11    1    3    3    0    0  0.20162790065E+02 -0.28576279416E+02 -0.99941075038E+01  0.36373397333E+02  0.51100000000E-03 0.  1.
        -12    1    3    3    0    0 -0.41974205794E+01  0.45781067309E+01  0.18344140669E+01  0.64763010839E+01  0.00000000000E+00 0.  1.
</event>
<event>
 7    1  0.6180395E-013  0.5930197E+02  0.7816164E-02  0.1266605E+00
        -11   -1    0    0    0    0  0.00000000000E+00  0.00000000000E+00  0.45593999997E+02  0.45594000000E+02  0.51100000000E-03 0.  1.
         11   -1    0    0    0    0 -0.00000000000E+00 -0.00000000000E+00 -0.45593999997E+02  0.45594000000E+02  0.51100000000E-03 0. -1.
    9900012    2    1    2    0    0  0.14031088832E+02  0.67745527908E+01 -0.27820005656E+02  0.59301972746E+02  0.50000052375E+02 0.  0.
        -12    1    1    2    0    0 -0.14031088832E+02 -0.67745527908E+01  0.27820005656E+02  0.31886027254E+02  0.00000000000E+00 0.  1.
         11    1    3    3    0    0  0.29301768630E+00 -0.14371531403E+01 -0.13678546861E+02  0.13756958712E+02  0.51100000000E-03 0. -1.
        -11    1    3    3    0    0  0.24936506243E+01  0.21125995969E+02  0.28011172736E+01  0.21456287129E+02  0.51100000000E-03 0.  1.
        -12    1    3    3    0    0  0.11244420522E+02 -0.12914290038E+02 -0.16942576069E+02  0.24088726905E+02  0.00000000000E+00 0.  1.
</event>
<event>
 7    1  0.6180395E-013  0.5930196E+02  0.7816164E-02  0.1266605E+00
        -11   -1    0    0    0    0  0.00000000000E+00  0.00000000000E+00  0.45593999997E+02  0.45594000000E+02  0.51100000000E-03 0. -1.
         11   -1    0    0    0    0 -0.00000000000E+00 -0.00000000000E+00 -0.45593999997E+02  0.45594000000E+02  0.51100000000E-03 0.  1.
    9900012    2    1    2    0    0  0.25726298039E+02 -0.13082993072E+02  0.13554061254E+02  0.59301957678E+02  0.50000024894E+02 0.  0.
        -12    1    1    2    0    0 -0.25726298039E+02  0.13082993072E+02 -0.13554061254E+02  0.31886042322E+02  0.00000000000E+00 0.  1.
         11    1    3    3    0    0  0.12069585123E+02 -0.33892702615E+01  0.26172683984E+02  0.29020189957E+02  0.51100000000E-03 0. -1.
        -11    1    3    3    0    0  0.78861628249E+01  0.63836700819E+01 -0.68931268227E+01  0.12266132458E+02  0.51100000000E-03 0.  1.
        -12    1    3    3    0    0  0.57705500909E+01 -0.16077392892E+02 -0.57254959073E+01  0.18015635263E+02  0.00000000000E+00 0.  1.
</event>
<event>
 7    1  0.6180395E-013  0.5930194E+02  0.7816164E-02  0.1266605E+00
        -11   -1    0    0    0    0  0.00000000000E+00  0.00000000000E+00  0.45593999997E+02  0.45594000000E+02  0.51100000000E-03 0.  1.
         11   -1    0    0    0    0 -0.00000000000E+00 -0.00000000000E+00 -0.45593999997E+02  0.45594000000E+02  0.51100000000E-03 0. -1.
    9900012    2    1    2    0    0 -0.17781913210E+02  0.24919353390E+02 -0.89190952567E+01  0.59301939237E+02  0.49999991263E+02 0.  0.
        -12    1    1    2    0    0  0.17781913210E+02 -0.24919353390E+02  0.89190952567E+01  0.31886060763E+02  0.00000000000E+00 0.  1.
         11    1    3    3    0    0  0.94434949519E+01  0.19596924509E+02  0.46259186052E+01  0.22240012822E+02  0.51100000000E-03 0. -1.
        -11    1    3    3    0    0 -0.29784808091E+02  0.71409713464E+01 -0.97645333162E+01  0.32147696277E+02  0.51100000000E-03 0.  1.
        -12    1    3    3    0    0  0.25593999294E+01 -0.18185424653E+01 -0.37804805456E+01  0.49142301383E+01  0.00000000000E+00 0.  1.
</event>
<event>
 7    1  0.6180395E-013  0.5930198E+02  0.7816164E-02  0.1266605E+00
        -11   -1    0    0    0    0  0.00000000000E+00  0.00000000000E+00  0.45593999997E+02  0.45594000000E+02  0.51100000000E-03 0.  1.
         11   -1    0    0    0    0 -0.00000000000E+00 -0.00000000000E+00 -0.45593999997E+02  0.45594000000E+02  0.51100000000E-03 0. -1.
    9900012    2    1    2    0    0  0.18098683479E+02  0.95776344355E+01 -0.24442278608E+02  0.59301977849E+02  0.50000061683E+02 0.  0.
        -12    1    1    2    0    0 -0.18098683479E+02 -0.95776344355E+01  0.24442278608E+02  0.31886022151E+02  0.00000000000E+00 0.  1.
         11    1    3    3    0    0 -0.91622648995E+01 -0.75645300886E+01  0.40056755930E+01  0.12538526659E+02  0.51100000000E-03 0.  1.
        -11    1    3    3    0    0  0.17273368453E+02  0.13351086026E+02 -0.28721656500E+02  0.36077060692E+02  0.51100000000E-03 0. -1.
        -12    1    3    3    0    0  0.99875799257E+01  0.37910784986E+01  0.27370229968E+00  0.10686390499E+02  0.00000000000E+00 0.  1.
</event>
<event>
 7    1  0.6180395E-013  0.5930200E+02  0.7816164E-02  0.1266605E+00
        -11   -1    0    0    0    0  0.00000000000E+00  0.00000000000E+00  0.45593999997E+02  0.45594000000E+02  0.51100000000E-03 0.  1.
         11   -1    0    0    0    0 -0.00000000000E+00 -0.00000000000E+00 -0.45593999997E+02  0.45594000000E+02  0.51100000000E-03 0. -1.
    9900012    2    1    2    0    0  0.92632860073E+01  0.34859394074E+01 -0.30310997318E+02  0.59302003079E+02  0.50000107696E+02 0.  0.
        -12    1    1    2    0    0 -0.92632860073E+01 -0.34859394074E+01  0.30310997318E+02  0.31885996921E+02  0.00000000000E+00 0.  1.
         11    1    3    3    0    0  0.17589075904E+01 -0.74548666982E+01 -0.29403430659E+01  0.82045360018E+01  0.51100000000E-03 0. -1.
        -11    1    3    3    0    0 -0.11900579240E+02  0.11031480061E+02 -0.27222204103E+02  0.31691729758E+02  0.51100000000E-03 0.  1.
        -12    1    3    3    0    0  0.19404957657E+02 -0.90673955471E-01 -0.14845014931E+00  0.19405737319E+02  0.00000000000E+00 0.  1.
</event>
<event>
 7    1  0.6180395E-013  0.5930192E+02  0.7816164E-02  0.1266605E+00
        -11   -1    0    0    0    0  0.00000000000E+00  0.00000000000E+00  0.45593999997E+02  0.45594000000E+02  0.51100000000E-03 0. -1.
         11   -1    0    0    0    0 -0.00000000000E+00 -0.00000000000E+00 -0.45593999997E+02  0.45594000000E+02  0.51100000000E-03 0.  1.
    9900012    2    1    2    0    0 -0.23950782613E+02 -0.19074686723E+02 -0.89016105823E+01  0.59301916322E+02  0.49999949472E+02 0.  0.
        -12    1    1    2    0    0  0.23950782613E+02  0.19074686723E+02  0.89016105823E+01  0.31886083678E+02  0.00000000000E+00 0.  1.
         11    1    3    3    0    0 -0.14747872364E+02 -0.18321891960E+02 -0.39028415768E+01  0.23841636623E+02  0.51100000000E-03 0. -1.
        -11    1    3    3    0    0 -0.15852577482E+02  0.85871663162E+01  0.65546142887E+01  0.19183498297E+02  0.51100000000E-03 0.  1.
        -12    1    3    3    0    0  0.66496672331E+01 -0.93399610794E+01 -0.11553383294E+02  0.16276781402E+02  0.00000000000E+00 0.  1.
</event>
<event>
 7    1  0.6180395E-013  0.5930188E+02  0.7816164E-02  0.1266605E+00
        -11   -1    0    0    0    0  0.00000000000E+00  0.00000000000E+00  0.45593999997E+02  0.45594000000E+02  0.51100000000E-03 0.  1.
         11   -1    0    0    0    0 -0.00000000000E+00 -0.00000000000E+00 -0.45593999997E+02  0.45594000000E+02  0.51100000000E-03 0. -1.
    9900012    2    1    2    0    0 -0.21468728802E+02  0.13642745660E+02 -0.19227417612E+02  0.59301883686E+02  0.49999889952E+02 0.  0.
        -12    1    1    2    0    0  0.21468728802E+02 -0.13642745660E+02  0.19227417612E+02  0.31886116314E+02  0.00000000000E+00 0.  1.
         11    1    3    3    0    0  0.42338534899E+01 -0.67341847502E+01  0.55155579084E+01  0.96796765920E+01  0.51100000000E-03 0. -1.
        -11    1    3    3    0    0 -0.85075630535E+01  0.23973217874E+02 -0.14157340175E+02  0.29112266924E+02  0.51100000000E-03 0.  1.
         12    1    3    3    0    0 -0.17195019239E+02 -0.35962874640E+01 -0.10585635345E+02  0.20509940171E+02  0.00000000000E+00 0. -1.
</event>
<event>
 7    1  0.6180395E-013  0.5930196E+02  0.7816164E-02  0.1266605E+00
        -11   -1    0    0    0    0  0.00000000000E+00  0.00000000000E+00  0.45593999997E+02  0.45594000000E+02  0.51100000000E-03 0.  1.
         11   -1    0    0    0    0 -0.00000000000E+00 -0.00000000000E+00 -0.45593999997E+02  0.45594000000E+02  0.51100000000E-03 0. -1.
    9900012    2    1    2    0    0 -0.19437966337E+02 -0.25927122499E+01 -0.25142849151E+02  0.59301959864E+02  0.50000028881E+02 0.  0.
        -12    1    1    2    0    0  0.19437966337E+02  0.25927122499E+01  0.25142849151E+02  0.31886040136E+02  0.00000000000E+00 0.  1.
         11    1    3    3    0    0 -0.17199940369E+02 -0.32731308564E+01 -0.16298701932E+02  0.23920681830E+02  0.51100000000E-03 0. -1.
        -11    1    3    3    0    0  0.14169639482E+02 -0.20240937996E+01 -0.11727208487E+02  0.18504136238E+02  0.51100000000E-03 0.  1.
         12    1    3    3    0    0 -0.16407665451E+02  0.27045124061E+01  0.28830612684E+01  0.16877141795E+02  0.00000000000E+00 0. -1.
</event>
<event>
 7    1  0.6180395E-013  0.5930194E+02  0.7816164E-02  0.1266605E+00
        -11   -1    0    0    0    0  0.00000000000E+00  0.00000000000E+00  0.45593999997E+02  0.45594000000E+02  0.51100000000E-03 0. -1.
         11   -1    0    0    0    0 -0.00000000000E+00 -0.00000000000E+00 -0.45593999997E+02  0.45594000000E+02  0.51100000000E-03 0.  1.
    9900012    2    1    2    0    0  0.21815848353E+01  0.17134668598E+02  0.26802321498E+02  0.59301943203E+02  0.49999998496E+02 0.  0.
        -12    1    1    2    0    0 -0.21815848353E+01 -0.17134668598E+02 -0.26802321498E+02  0.31886056797E+02  0.00000000000E+00 0.  1.
         11    1    3    3    0    0  0.82737855047E+00  0.19768397522E+01  0.74648829700E+01  0.77663974073E+01  0.51100000000E-03 0. -1.
        -11    1    3    3    0    0 -0.96655706761E+01  0.22992384966E+02 -0.33089182378E+01  0.25159927724E+02  0.51100000000E-03 0.  1.
        -12    1    3    3    0    0  0.11019776961E+02 -0.78345561204E+01  0.22646356766E+02  0.26375618072E+02  0.00000000000E+00 0.  1.
</event>
<event>
 7    1  0.6180395E-013  0.5930194E+02  0.7816164E-02  0.1266605E+00
        -11   -1    0    0    0    0  0.00000000000E+00  0.00000000000E+00  0.45593999997E+02  0.45594000000E+02  0.51100000000E-03 0.  1.
         11   -1    0    0    0    0 -0.00000000000E+00 -0.00000000000E+00 -0.45593999997E+02  0.45594000000E+02  0.51100000000E-03 0. -1.
    9900012    2    1    2    0    0 -0.83382705944E+01 -0.11233036025E+02 -0.28653320346E+02  0.59301943146E+02  0.49999998392E+02 0.  0.
        -12    1    1    2    0    0  0.83382705944E+01  0.11233036025E+02  0.28653320346E+02  0.31886056854E+02  0.00000000000E+00 0.  1.
         11    1    3    3    0    0 -0.95747074521E+01 -0.48182097017E+01  0.68312727706E+01  0.12710486043E+02  0.51100000000E-03 0.  1.
        -11    1    3    3    0    0  0.14778185220E+02  0.78315730919E+00 -0.18870562088E+02  0.23981372095E+02  0.51100000000E-03 0. -1.
         12    1    3    3    0    0 -0.13541748362E+02 -0.71979836330E+01 -0.16614031028E+02  0.22610085008E+02  0.00000000000E+00 0. -1.
</event>
<event>
 7    1  0.6180395E-013  0.5930194E+02  0.7816164E-02  0.1266605E+00
        -11   -1    0    0    0    0  0.00000000000E+00  0.00000000000E+00  0.45593999997E+02  0.45594000000E+02  0.51100000000E-03 0.  1.
         11   -1    0    0    0    0 -0.00000000000E+00 -0.00000000000E+00 -0.45593999997E+02  0.45594000000E+02  0.51100000000E-03 0. -1.
    9900012    2    1    2    0    0  0.15925662908E+02  0.74958342724E+00 -0.27613987516E+02  0.59301938454E+02  0.49999989835E+02 0.  0.
        -12    1    1    2    0    0 -0.15925662908E+02 -0.74958342724E+00  0.27613987516E+02  0.31886061546E+02  0.00000000000E+00 0.  1.
         11    1    3    3    0    0  0.96780783980E+01  0.86147145662E+01 -0.14274990198E+02  0.19278326015E+02  0.51100000000E-03 0. -1.
        -11    1    3    3    0    0  0.12171748749E+02 -0.87420706492E+00  0.94675153074E+01  0.15445049432E+02  0.51100000000E-03 0.  1.
        -12    1    3    3    0    0 -0.59241642388E+01 -0.69909240740E+01 -0.22806512626E+02  0.24578563007E+02  0.00000000000E+00 0.  1.
</event>
<event>
 7    1  0.6180395E-013  0.5930197E+02  0.7816164E-02  0.1266605E+00
        -11   -1    0    0    0    0  0.00000000000E+00  0.00000000000E+00  0.45593999997E+02  0.45594000000E+02  0.51100000000E-03 0. -1.
         11   -1    0    0    0    0 -0.00000000000E+00 -0.00000000000E+00 -0.45593999997E+02  0.45594000000E+02  0.51100000000E-03 0.  1.
    9900012    2    1    2    0    0  0.13630697380E+02 -0.16124013746E+02 -0.23894338092E+02  0.59301966644E+02  0.50000041247E+02 0.  0.
        -12    1    1    2    0    0 -0.13630697380E+02  0.16124013746E+02  0.23894338092E+02  0.31886033356E+02  0.00000000000E+00 0.  1.
         11    1    3    3    0    0  0.16789023376E+01 -0.15184433364E+02 -0.17527451198E+02  0.23250747846E+02  0.51100000000E-03 0. -1.
        -11    1    3    3    0    0 -0.26209004064E+01  0.98315309703E+01 -0.13215779331E+02  0.16678877173E+02  0.51100000000E-03 0.  1.
        -12    1    3    3    0    0  0.14572695449E+02 -0.10771111352E+02  0.68488924376E+01  0.19372341625E+02  0.00000000000E+00 0.  1.
</event>
<event>
 7    1  0.6180395E-013  0.5930167E+02  0.7816164E-02  0.1266606E+00
        -11   -1    0    0    0    0  0.00000000000E+00  0.00000000000E+00  0.45593999997E+02  0.45594000000E+02  0.51100000000E-03 0. -1.
         11   -1    0    0    0    0 -0.00000000000E+00 -0.00000000000E+00 -0.45593999997E+02  0.45594000000E+02  0.51100000000E-03 0.  1.
    9900012    2    1    2    0    0  0.12155836147E+01 -0.15758936493E+02  0.27693253703E+02  0.59301670272E+02  0.49999500732E+02 0.  0.
        -12    1    1    2    0    0 -0.12155836147E+01  0.15758936493E+02 -0.27693253703E+02  0.31886329728E+02  0.00000000000E+00 0.  1.
         11    1    3    3    0    0 -0.95865243122E+01  0.60996534767E+01  0.19406087894E+02  0.22487851577E+02  0.51100000000E-03 0. -1.
        -11    1    3    3    0    0  0.99828132158E+01 -0.26780628340E+02  0.11577762172E+02  0.30836718229E+02  0.51100000000E-03 0.  1.
        -12    1    3    3    0    0  0.81929471112E+00  0.49220383705E+01 -0.32905963638E+01  0.59771004654E+01  0.00000000000E+00 0.  1.
</event>
<event>
 7    1  0.6180395E-013  0.5930192E+02  0.7816164E-02  0.1266605E+00
        -11   -1    0    0    0    0  0.00000000000E+00  0.00000000000E+00  0.45593999997E+02  0.45594000000E+02  0.51100000000E-03 0. -1.
         11   -1    0    0    0    0 -0.00000000000E+00 -0.00000000000E+00 -0.45593999997E+02  0.45594000000E+02  0.51100000000E-03 0.  1.
    9900012    2    1    2    0    0 -0.25967268307E+02  0.87976696568E+01  0.16279567930E+02  0.59301916097E+02  0.49999949061E+02 0.  0.
        -12    1    1    2    0    0  0.25967268307E+02 -0.87976696568E+01 -0.16279567930E+02  0.31886083903E+02  0.00000000000E+00 0.  1.
         11    1    3    3    0    0 -0.19058282501E+02  0.25191350094E+02  0.13034581924E+02  0.34171956011E+02  0.51100000000E-03 0. -1.
        -11    1    3    3    0    0  0.57595797307E+01 -0.60705596122E+01 -0.43290187657E+00  0.83792515761E+01  0.51100000000E-03 0.  1.
         12    1    3    3    0    0 -0.12668565536E+02 -0.10323120825E+02  0.36778878818E+01  0.16750708510E+02  0.00000000000E+00 0. -1.
</event>
<event>
 7    1  0.6180395E-013  0.5930221E+02  0.7816164E-02  0.1266604E+00
        -11   -1    0    0    0    0  0.00000000000E+00  0.00000000000E+00  0.45593999997E+02  0.45594000000E+02  0.51100000000E-03 0.  1.
         11   -1    0    0    0    0 -0.00000000000E+00 -0.00000000000E+00 -0.45593999997E+02  0.45594000000E+02  0.51100000000E-03 0. -1.
    9900012    2    1    2    0    0 -0.25819107471E+02 -0.89466953804E+01 -0.16432706124E+02  0.59302211639E+02  0.50000488056E+02 0.  0.
        -12    1    1    2    0    0  0.25819107471E+02  0.89466953804E+01  0.16432706124E+02  0.31885788361E+02  0.00000000000E+00 0.  1.
         11    1    3    3    0    0 -0.20714510133E+02 -0.22962380783E+02 -0.16210810513E+02  0.34916360621E+02  0.51100000000E-03 0. -1.
        -11    1    3    3    0    0  0.46458822555E+01  0.98915671664E+01  0.56258675524E+01  0.12291367252E+02  0.51100000000E-03 0.  1.
         12    1    3    3    0    0 -0.97504795941E+01  0.41241182366E+01 -0.58477631635E+01  0.12094483766E+02  0.00000000000E+00 0. -1.
</event>
<event>
 7    1  0.6180395E-013  0.5930190E+02  0.7816164E-02  0.1266605E+00
        -11   -1    0    0    0    0  0.00000000000E+00  0.00000000000E+00  0.45593999997E+02  0.45594000000E+02  0.51100000000E-03 0.  1.
         11   -1    0    0    0    0 -0.00000000000E+00 -0.00000000000E+00 -0.45593999997E+02  0.45594000000E+02  0.51100000000E-03 0. -1.
    9900012    2    1    2    0    0 -0.42010821358E+01  0.22895424088E+02 -0.21791598502E+02  0.59301901140E+02  0.49999921783E+02 0.  0.
        -12    1    1    2    0    0  0.42010821358E+01 -0.22895424088E+02  0.21791598502E+02  0.31886098860E+02  0.00000000000E+00 0.  1.
         11    1    3    3    0    0 -0.44817056027E+01 -0.88742028081E+01 -0.53397024676E+00  0.99560175309E+01  0.51100000000E-03 0.  1.
        -11    1    3    3    0    0 -0.14784291228E+02  0.20623217100E+02 -0.15529082599E+02  0.29749701802E+02  0.51100000000E-03 0. -1.
         12    1    3    3    0    0  0.15064914695E+02  0.11146409796E+02 -0.57285456556E+01  0.19596181807E+02  0.00000000000E+00 0. -1.
</event>
<event>
 7    1  0.6180395E-013  0.5930185E+02  0.7816164E-02  0.1266605E+00
        -11   -1    0    0    0    0  0.00000000000E+00  0.00000000000E+00  0.45593999997E+02  0.45594000000E+02  0.51100000000E-03 0. -1.
         11   -1    0    0    0    0 -0.00000000000E+00 -0.00000000000E+00 -0.45593999997E+02  0.45594000000E+02  0.51100000000E-03 0.  1.
    9900012    2    1    2    0    0 -0.27448345025E+02 -0.81122781054E+01  0.14053672571E+02  0.59301852327E+02  0.49999832760E+02 0.  0.
        -12    1    1    2    0    0  0.27448345025E+02  0.81122781054E+01 -0.14053672571E+02  0.31886147673E+02  0.00000000000E+00 0.  1.
         11    1    3    3    0    0 -0.16758231802E+02  0.10956229392E+02 -0.11388097037E+02  0.23034019406E+02  0.51100000000E-03 0. -1.
        -11    1    3    3    0    0 -0.36893238342E+01 -0.13448288038E+01  0.12826881739E+02  0.13414491055E+02  0.51100000000E-03 0.  1.
         12    1    3    3    0    0 -0.70007893883E+01 -0.17723678693E+02  0.12614887870E+02  0.22853341866E+02  0.00000000000E+00 0. -1.
</event>
<event>
 7    1  0.6180395E-013  0.5930225E+02  0.7816164E-02  0.1266604E+00
        -11   -1    0    0    0    0  0.00000000000E+00  0.00000000000E+00  0.45593999997E+02  0.45594000000E+02  0.51100000000E-03 0.  1.
         11   -1    0    0    0    0 -0.00000000000E+00 -0.00000000000E+00 -0.45593999997E+02  0.45594000000E+02  0.51100000000E-03 0. -1.
    9900012    2    1    2    0    0 -0.13857892905E+02 -0.25275533342E+02 -0.13631106909E+02  0.59302253073E+02  0.50000563622E+02 0.  0.
        -12    1    1    2    0    0  0.13857892905E+02  0.25275533342E+02  0.13631106909E+02  0.31885746927E+02  0.00000000000E+00 0.  1.
         11    1    3    3    0    0 -0.10434138951E+02 -0.23915776774E+02 -0.10041876920E+02  0.27958450005E+02  0.51100000000E-03 0. -1.
        -11    1    3    3    0    0  0.13349263879E+02 -0.17481960755E+01 -0.53221565536E+01  0.14477029608E+02  0.51100000000E-03 0.  1.
        -12    1    3    3    0    0 -0.16773017833E+02  0.38843950792E+00  0.17329265644E+01  0.16866773460E+02  0.00000000000E+00 0.  1.
</event>
<event>
 7    1  0.6180395E-013  0.5930198E+02  0.7816164E-02  0.1266605E+00
        -11   -1    0    0    0    0  0.00000000000E+00  0.00000000000E+00  0.45593999997E+02  0.45594000000E+02  0.51100000000E-03 0.  1.
         11   -1    0    0    0    0 -0.00000000000E+00 -0.00000000000E+00 -0.45593999997E+02  0.45594000000E+02  0.51100000000E-03 0. -1.
    9900012    2    1    2    0    0 -0.17141879285E+02 -0.26362985270E+02 -0.52789632918E+01  0.59301976867E+02  0.50000059892E+02 0.  0.
        -12    1    1    2    0    0  0.17141879285E+02  0.26362985270E+02  0.52789632918E+01  0.31886023133E+02  0.00000000000E+00 0.  1.
         11    1    3    3    0    0  0.43195958838E+01 -0.12658575751E+02 -0.68373482279E+01  0.15021577138E+02  0.51100000000E-03 0. -1.
        -11    1    3    3    0    0 -0.12606830614E+02  0.10888809482E+02 -0.48840014452E+01  0.17359487908E+02  0.51100000000E-03 0.  1.
        -12    1    3    3    0    0 -0.88546445551E+01 -0.24593219001E+02  0.64423863813E+01  0.26920911822E+02  0.00000000000E+00 0.  1.
</event>
<event>
 7    1  0.6180395E-013  0.5930195E+02  0.7816164E-02  0.1266605E+00
        -11   -1    0    0    0    0  0.00000000000E+00  0.00000000000E+00  0.45593999997E+02  0.45594000000E+02  0.51100000000E-03 0. -1.
         11   -1    0    0    0    0 -0.00000000000E+00 -0.00000000000E+00 -0.45593999997E+02  0.45594000000E+02  0.51100000000E-03 0.  1.
    9900012    2    1    2    0    0  0.98229837636E+01  0.14629761215E+02  0.26574406246E+02  0.59301953043E+02  0.50000016442E+02 0.  0.
        -12    1    1    2    0    0 -0.98229837636E+01 -0.14629761215E+02 -0.26574406246E+02  0.31886046957E+02  0.00000000000E+00 0.  1.
         11    1    3    3    0    0 -0.12735415068E+02 -0.41770497583E+01 -0.43116621087E+01  0.14079381096E+02  0.51100000000E-03 0. -1.
        -11    1    3    3    0    0  0.13690767572E+02  0.49705598914E+01  0.22420837245E+02  0.26736445639E+02  0.51100000000E-03 0.  1.
        -12    1    3    3    0    0  0.88676312599E+01  0.13836251082E+02  0.84652311092E+01  0.18486126308E+02  0.00000000000E+00 0.  1.
</event>
<event>
 7    1  0.6180395E-013  0.5930193E+02  0.7816164E-02  0.1266605E+00
        -11   -1    0    0    0    0  0.00000000000E+00  0.00000000000E+00  0.45593999997E+02  0.45594000000E+02  0.51100000000E-03 0. -1.
         11   -1    0    0    0    0 -0.00000000000E+00 -0.00000000000E+00 -0.45593999997E+02  0.45594000000E+02  0.51100000000E-03 0.  1.
    9900012    2    1    2    0    0 -0.17042244886E+01  0.18405631104E+02  0.25981715641E+02  0.59301934311E+02  0.49999982279E+02 0.  0.
        -12    1    1    2    0    0  0.17042244886E+01 -0.18405631104E+02 -0.25981715641E+02  0.31886065689E+02  0.00000000000E+00 0.  1.
         11    1    3    3    0    0 -0.65017047786E+01  0.56697505926E+01  0.27393711685E+02  0.28719917774E+02  0.51100000000E-03 0. -1.
        -11    1    3    3    0    0  0.73421386920E+01  0.14808030325E+02 -0.11393581686E+02  0.20074821708E+02  0.51100000000E-03 0.  1.
        -12    1    3    3    0    0 -0.25446584020E+01 -0.20721498137E+01  0.99815856430E+01  0.10507194829E+02  0.00000000000E+00 0.  1.
</event>
<event>
 7    1  0.6180395E-013  0.5930195E+02  0.7816164E-02  0.1266605E+00
        -11   -1    0    0    0    0  0.00000000000E+00  0.00000000000E+00  0.45593999997E+02  0.45594000000E+02  0.51100000000E-03 0.  1.
         11   -1    0    0    0    0 -0.00000000000E+00 -0.00000000000E+00 -0.45593999997E+02  0.45594000000E+02  0.51100000000E-03 0. -1.
    9900012    2    1    2    0    0  0.21812481685E+02 -0.23111473171E+02  0.26068421144E+01  0.59301950147E+02  0.50000011161E+02 0.  0.
        -12    1    1    2    0    0 -0.21812481685E+02  0.23111473171E+02 -0.26068421144E+01  0.31886049853E+02  0.00000000000E+00 0.  1.
         11    1    3    3    0    0  0.12362550479E+02 -0.28493106063E+02 -0.17595401552E+01  0.31109254721E+02  0.51100000000E-03 0. -1.
        -11    1    3    3    0    0  0.14206144126E+02  0.20703262743E+00  0.11425114571E+02  0.18231583493E+02  0.51100000000E-03 0.  1.
         12    1    3    3    0    0 -0.47562129203E+01  0.51746002646E+01 -0.70587323016E+01  0.99611119333E+01  0.00000000000E+00 0. -1.
</event>
<event>
 7    1  0.6180395E-013  0.5930194E+02  0.7816164E-02  0.1266605E+00
        -11   -1    0    0    0    0  0.00000000000E+00  0.00000000000E+00  0.45593999997E+02  0.45594000000E+02  0.51100000000E-03 0.  1.
         11   -1    0    0    0    0 -0.00000000000E+00 -0.00000000000E+00 -0.45593999997E+02  0.45594000000E+02  0.51100000000E-03 0. -1.
    9900012    2    1    2    0    0  0.30254408899E+02 -0.74309687359E+01  0.67949982299E+01  0.59301944190E+02  0.50000000296E+02 0.  0.
        -12    1    1    2    0    0 -0.30254408899E+02  0.74309687359E+01 -0.67949982299E+01  0.31886055810E+02  0.00000000000E+00 0.  1.
         11    1    3    3    0    0 -0.27149113327E+00  0.56106729559E+00 -0.14179932626E+02  0.14193625100E+02  0.51100000000E-03 0. -1.
        -11    1    3    3    0    0  0.32967806023E+02 -0.11962437734E+02  0.19904596958E+02  0.40325787417E+02  0.51100000000E-03 0.  1.
         12    1    3    3    0    0 -0.24419059907E+01  0.39704017025E+01  0.10703338977E+01  0.47825316726E+01  0.00000000000E+00 0. -1.
</event>
<event>
 7    1  0.6180395E-013  0.5930196E+02  0.7816164E-02  0.1266605E+00
        -11   -1    0    0    0    0  0.00000000000E+00  0.00000000000E+00  0.45593999997E+02  0.45594000000E+02  0.51100000000E-03 0. -1.
         11   -1    0    0    0    0 -0.00000000000E+00 -0.00000000000E+00 -0.45593999997E+02  0.45594000000E+02  0.51100000000E-03 0.  1.
    9900012    2    1    2    0    0  0.12006480549E+02 -0.45536099271E-01  0.29539158131E+02  0.59301960550E+02  0.50000030134E+02 0.  0.
        -12    1    1    2    0    0 -0.12006480549E+02  0.45536099271E-01 -0.29539158131E+02  0.31886039450E+02  0.00000000000E+00 0.  1.
         11    1    3    3    0    0  0.57640051337E+01 -0.47549679061E+01  0.86372269795E+01  0.11420821561E+02  0.51100000000E-03 0. -1.
        -11    1    3    3    0    0 -0.16825197388E+02  0.69740807390E+01  0.27053206574E+01  0.18413142845E+02  0.51100000000E-03 0.  1.
        -12    1    3    3    0    0  0.23067672803E+02 -0.22646489321E+01  0.18196610494E+02  0.29467996145E+02  0.00000000000E+00 0.  1.
</event>
<event>
 7    1  0.6180395E-013  0.5930195E+02  0.7816164E-02  0.1266605E+00
        -11   -1    0    0    0    0  0.00000000000E+00  0.00000000000E+00  0.45593999997E+02  0.45594000000E+02  0.51100000000E-03 0.  1.
         11   -1    0    0    0    0 -0.00000000000E+00 -0.00000000000E+00 -0.45593999997E+02  0.45594000000E+02  0.51100000000E-03 0. -1.
    9900012    2    1    2    0    0  0.99749602520E+01  0.25874479366E+02 -0.15739498106E+02  0.59301947953E+02  0.50000007159E+02 0.  0.
        -12    1    1    2    0    0 -0.99749602520E+01 -0.25874479366E+02  0.15739498106E+02  0.31886052047E+02  0.00000000000E+00 0.  1.
         11    1    3    3    0    0  0.21796829404E+02  0.28709722855E+02 -0.94391831792E+01  0.37261885860E+02  0.51100000000E-03 0. -1.
        -11    1    3    3    0    0 -0.99951927041E+01 -0.10832814914E+01  0.44509264167E+01  0.10994913470E+02  0.51100000000E-03 0.  1.
         12    1    3    3    0    0 -0.18266764481E+01 -0.17519619977E+01 -0.10751241343E+02  0.11045148623E+02  0.00000000000E+00 0. -1.
</event>
<event>
 7    1  0.6180395E-013  0.5930194E+02  0.7816164E-02  0.1266605E+00
        -11   -1    0    0    0    0  0.00000000000E+00  0.00000000000E+00  0.45593999997E+02  0.45594000000E+02  0.51100000000E-03 0. -1.
         11   -1    0    0    0    0 -0.00000000000E+00 -0.00000000000E+00 -0.45593999997E+02  0.45594000000E+02  0.51100000000E-03 0.  1.
    9900012    2    1    2    0    0 -0.97352956972E+01  0.20825168289E+02  0.22096542136E+02  0.59301940492E+02  0.49999993551E+02 0.  0.
        -12    1    1    2    0    0  0.97352956972E+01 -0.20825168289E+02 -0.22096542136E+02  0.31886059508E+02  0.00000000000E+00 0.  1.
         11    1    3    3    0    0 -0.12900589589E+02  0.14004666674E+02  0.28761162105E+01  0.19256893444E+02  0.51100000000E-03 0. -1.
        -11    1    3    3    0    0  0.16173986200E+02  0.75741815731E+01  0.20217846013E+02  0.26976422182E+02  0.51100000000E-03 0.  1.
        -12    1    3    3    0    0 -0.13008692308E+02 -0.75367995795E+00 -0.99742008775E+00  0.13068624865E+02  0.00000000000E+00 0.  1.
</event>
<event>
 7    1  0.6180395E-013  0.5930193E+02  0.7816164E-02  0.1266605E+00
        -11   -1    0    0    0    0  0.00000000000E+00  0.00000000000E+00  0.45593999997E+02  0.45594000000E+02  0.51100000000E-03 0.  1.
         11   -1    0    0    0    0 -0.00000000000E+00 -0.00000000000E+00 -0.45593999997E+02  0.45594000000E+02  0.51100000000E-03 0. -1.
    9900012    2    1    2    0    0  0.12687651476E+02 -0.21207411271E+02 -0.20149208080E+02  0.59301931270E+02  0.49999976733E+02 0.  0.
        -12    1    1    2    0    0 -0.12687651476E+02  0.21207411271E+02  0.20149208080E+02  0.31886068730E+02  0.00000000000E+00 0.  1.
         11    1    3    3    0    0  0.17195619499E+02 -0.86648281000E+01 -0.24910028999E+02  0.31484569569E+02  0.51100000000E-03 0. -1.
        -11    1    3    3    0    0 -0.11832607780E+02  0.53881876792E+00  0.49149982761E+01  0.12824123395E+02  0.51100000000E-03 0.  1.
         12    1    3    3    0    0  0.73246397566E+01 -0.13081401939E+02 -0.15417735721E+00  0.14993238306E+02  0.00000000000E+00 0. -1.
</event>
<event>
 7    1  0.6180395E-013  0.5930193E+02  0.7816164E-02  0.1266605E+00
        -11   -1    0    0    0    0  0.00000000000E+00  0.00000000000E+00  0.45593999997E+02  0.45594000000E+02  0.51100000000E-03 0.  1.
         11   -1    0    0    0    0 -0.00000000000E+00 -0.00000000000E+00 -0.45593999997E+02  0.45594000000E+02  0.51100000000E-03 0. -1.
    9900012    2    1    2    0    0 -0.22879474564E+02  0.19050856134E+02 -0.11415609607E+02  0.59301927516E+02  0.49999969886E+02 0.  0.
        -12    1    1    2    0    0  0.22879474564E+02 -0.19050856134E+02  0.11415609607E+02  0.31886072484E+02  0.00000000000E+00 0.  1.
         11    1    3    3    0    0 -0.46245135744E+00 -0.54753300370E+01 -0.11691296812E+02  0.12918185696E+02  0.51100000000E-03 0. -1.
        -11    1    3    3    0    0 -0.10697158621E+02  0.17932427829E+02  0.15549043087E+02  0.26034091334E+02  0.51100000000E-03 0.  1.
        -12    1    3    3    0    0 -0.11719864586E+02  0.65937583424E+01 -0.15273355882E+02  0.20349650485E+02  0.00000000000E+00 0.  1.
</event>
<event>
 7    1  0.6180395E-013  0.5930178E+02  0.7816164E-02  0.1266605E+00
        -11   -1    0    0    0    0  0.00000000000E+00  0.00000000000E+00  0.45593999997E+02  0.45594000000E+02  0.51100000000E-03 0.  1.
         11   -1    0    0    0    0 -0.00000000000E+00 -0.00000000000E+00 -0.45593999997E+02  0.45594000000E+02  0.51100000000E-03 0. -1.
    9900012    2    1    2    0    0  0.27876784958E+02 -0.13636262498E+02  0.73258464841E+01  0.59301783209E+02  0.49999706705E+02 0.  0.
        -12    1    1    2    0    0 -0.27876784958E+02  0.13636262498E+02 -0.73258464841E+01  0.31886216791E+02  0.00000000000E+00 0.  1.
         11    1    3    3    0    0  0.22581191567E+01 -0.19363909900E+02 -0.57277189299E+01  0.20319125797E+02  0.51100000000E-03 0. -1.
        -11    1    3    3    0    0  0.26968030104E+02 -0.21066807958E+01  0.14813114354E+02  0.30840575689E+02  0.51100000000E-03 0.  1.
        -12    1    3    3    0    0 -0.13493643030E+01  0.78343281976E+01 -0.17595489396E+01  0.81420817240E+01  0.00000000000E+00 0.  1.
</event>
<event>
 7    1  0.6180395E-013  0.5930193E+02  0.7816164E-02  0.1266605E+00
        -11   -1    0    0    0    0  0.00000000000E+00  0.00000000000E+00  0.45593999997E+02  0.45594000000E+02  0.51100000000E-03 0. -1.
         11   -1    0    0    0    0 -0.00000000000E+00 -0.00000000000E+00 -0.45593999997E+02  0.45594000000E+02  0.51100000000E-03 0.  1.
    9900012    2    1    2    0    0  0.76460298183E+00 -0.31066169488E+02 -0.71435082849E+01  0.59301933843E+02  0.49999981425E+02 0.  0.
        -12    1    1    2    0    0 -0.76460298183E+00  0.31066169488E+02  0.71435082849E+01  0.31886066157E+02  0.00000000000E+00 0.  1.
         11    1    3    3    0    0  0.11313389854E+02 -0.43445877198E+01  0.15946683335E+02  0.20029102379E+02  0.51100000000E-03 0. -1.
        -11    1    3    3    0    0  0.12667537119E+01 -0.15023577012E+02 -0.12229238594E+02  0.19413057668E+02  0.51100000000E-03 0.  1.
        -12    1    3    3    0    0 -0.11815540584E+02 -0.11698004756E+02 -0.10860953026E+02  0.19859773796E+02  0.00000000000E+00 0.  1.
</event>
<event>
 7    1  0.6180395E-013  0.5930194E+02  0.7816164E-02  0.1266605E+00
        -11   -1    0    0    0    0  0.00000000000E+00  0.00000000000E+00  0.45593999997E+02  0.45594000000E+02  0.51100000000E-03 0. -1.
         11   -1    0    0    0    0 -0.00000000000E+00 -0.00000000000E+00 -0.45593999997E+02  0.45594000000E+02  0.51100000000E-03 0.  1.
    9900012    2    1    2    0    0  0.27168469392E+02  0.14977367963E+02  0.73670793996E+01  0.59301935033E+02  0.49999983596E+02 0.  0.
        -12    1    1    2    0    0 -0.27168469392E+02 -0.14977367963E+02 -0.73670793996E+01  0.31886064967E+02  0.00000000000E+00 0.  1.
         11    1    3    3    0    0  0.31726826379E+02 -0.15077603088E+01 -0.25682248863E+01  0.31866293047E+02  0.51100000000E-03 0. -1.
        -11    1    3    3    0    0 -0.98890137955E+01  0.20310491167E+01  0.29303843011E+01  0.10512131410E+02  0.51100000000E-03 0.  1.
        -12    1    3    3    0    0  0.53306568084E+01  0.14454079155E+02  0.70049199849E+01  0.16923510576E+02  0.00000000000E+00 0.  1.
</event>
<event>
 7    1  0.6180395E-013  0.5930193E+02  0.7816164E-02  0.1266605E+00
        -11   -1    0    0    0    0  0.00000000000E+00  0.00000000000E+00  0.45593999997E+02  0.45594000000E+02  0.51100000000E-03 0.  1.
         11   -1    0    0    0    0 -0.00000000000E+00 -0.00000000000E+00 -0.45593999997E+02  0.45594000000E+02  0.51100000000E-03 0. -1.
    9900012    2    1    2    0    0  0.16570924377E+02  0.82377725581E+01 -0.25966611993E+02  0.59301931414E+02  0.49999976996E+02 0.  0.
        -12    1    1    2    0    0 -0.16570924377E+02 -0.82377725581E+01  0.25966611993E+02  0.31886068586E+02  0.00000000000E+00 0.  1.
         11    1    3    3    0    0  0.17860285577E+02 -0.21406567811E+01 -0.82506071982E+01  0.19790015962E+02  0.51100000000E-03 0. -1.
        -11    1    3    3    0    0  0.16362955081E+01  0.19584571088E+02 -0.36854437324E+00  0.19656263961E+02  0.51100000000E-03 0.  1.
        -12    1    3    3    0    0 -0.29256567081E+01 -0.92061417486E+01 -0.17347460422E+02  0.19855651492E+02  0.00000000000E+00 0.  1.
</event>
<event>
 7    1  0.6180395E-013  0.5930194E+02  0.7816164E-02  0.1266605E+00
        -11   -1    0    0    0    0  0.00000000000E+00  0.00000000000E+00  0.45593999997E+02  0.45594000000E+02  0.51100000000E-03 0.  1.
         11   -1    0    0    0    0 -0.00000000000E+00 -0.00000000000E+00 -0.45593999997E+02  0.45594000000E+02  0.51100000000E-03 0. -1.
    9900012    2    1    2    0    0  0.28572915787E+01  0.23875337234E+01 -0.31667905636E+02  0.59301942234E+02  0.49999996730E+02 0.  0.
        -12    1    1    2    0    0 -0.28572915787E+01 -0.23875337234E+01  0.31667905636E+02  0.31886057766E+02  0.00000000000E+00 0.  1.
         11    1    3    3    0    0 -0.62821541242E+01 -0.17193531569E+02 -0.75999734125E+01  0.19820256920E+02  0.51100000000E-03 0. -1.
        -11    1    3    3    0    0  0.16547668934E+02  0.11696573128E+02 -0.17841043235E+02  0.26998851717E+02  0.51100000000E-03 0.  1.
        -12    1    3    3    0    0 -0.74082232307E+01  0.78844921649E+01 -0.62268889885E+01  0.12482833597E+02  0.00000000000E+00 0.  1.
</event>
<event>
 7    1  0.6180395E-013  0.5930193E+02  0.7816164E-02  0.1266605E+00
        -11   -1    0    0    0    0  0.00000000000E+00  0.00000000000E+00  0.45593999997E+02  0.45594000000E+02  0.51100000000E-03 0. -1.
         11   -1    0    0    0    0 -0.00000000000E+00 -0.00000000000E+00 -0.45593999997E+02  0.45594000000E+02  0.51100000000E-03 0.  1.
    9900012    2    1    2    0    0 -0.94472579154E+01  0.24002386547E+02  0.18744503055E+02  0.59301927228E+02  0.49999969361E+02 0.  0.
        -12    1    1    2    0    0  0.94472579154E+01 -0.24002386547E+02 -0.18744503055E+02  0.31886072772E+02  0.00000000000E+00 0.  1.
         11    1    3    3    0    0 -0.39322308362E+01  0.85534583567E-01  0.23932400673E+02  0.24253444245E+02  0.51100000000E-03 0.  1.
        -11    1    3    3    0    0 -0.14677702751E+02  0.18570014499E+02 -0.59685871293E+01  0.24411153785E+02  0.51100000000E-03 0. -1.
        -12    1    3    3    0    0  0.91626756720E+01  0.53468374638E+01  0.78068951145E+00  0.10637329197E+02  0.00000000000E+00 0.  1.
</event>
<event>
 7    1  0.6180395E-013  0.5930195E+02  0.7816164E-02  0.1266605E+00
        -11   -1    0    0    0    0  0.00000000000E+00  0.00000000000E+00  0.45593999997E+02  0.45594000000E+02  0.51100000000E-03 0. -1.
         11   -1    0    0    0    0 -0.00000000000E+00 -0.00000000000E+00 -0.45593999997E+02  0.45594000000E+02  0.51100000000E-03 0.  1.
    9900012    2    1    2    0    0  0.28871399614E+02  0.73756406712E+01  0.11347365288E+02  0.59301945212E+02  0.50000002160E+02 0.  0.
        -12    1    1    2    0    0 -0.28871399614E+02 -0.73756406712E+01 -0.11347365288E+02  0.31886054788E+02  0.00000000000E+00 0.  1.
         11    1    3    3    0    0  0.35781574218E+02 -0.66476376291E+01  0.13945487599E+02  0.38974206396E+02  0.51100000000E-03 0. -1.
        -11    1    3    3    0    0 -0.31549461302E+01  0.99129343699E+01 -0.75682155630E+01  0.12864596378E+02  0.51100000000E-03 0.  1.
         12    1    3    3    0    0 -0.37552284739E+01  0.41103439304E+01  0.49700932514E+01  0.74631424377E+01  0.00000000000E+00 0. -1.
</event>
<event>
 7    1  0.6180395E-013  0.5930193E+02  0.7816164E-02  0.1266605E+00
        -11   -1    0    0    0    0  0.00000000000E+00  0.00000000000E+00  0.45593999997E+02  0.45594000000E+02  0.51100000000E-03 0. -1.
         11   -1    0    0    0    0 -0.00000000000E+00 -0.00000000000E+00 -0.45593999997E+02  0.45594000000E+02  0.51100000000E-03 0.  1.
    9900012    2    1    2    0    0  0.12162661962E+02  0.51256428996E+01  0.29026179405E+02  0.59301926990E+02  0.49999968927E+02 0.  0.
        -12    1    1    2    0    0 -0.12162661962E+02 -0.51256428996E+01 -0.29026179405E+02  0.31886073010E+02  0.00000000000E+00 0.  1.
         11    1    3    3    0    0 -0.86187071782E+01  0.91982867650E+01  0.73593070818E+01  0.14596232179E+02  0.51100000000E-03 0.  1.
        -11    1    3    3    0    0  0.26560951606E+02 -0.11413187820E+02  0.20154555602E+02  0.35241326850E+02  0.51100000000E-03 0. -1.
         12    1    3    3    0    0 -0.57795824662E+01  0.73405439542E+01  0.15123167219E+01  0.94643679606E+01  0.00000000000E+00 0. -1.
</event>
<event>
 7    1  0.6180395E-013  0.5930198E+02  0.7816164E-02  0.1266605E+00
        -11   -1    0    0    0    0  0.00000000000E+00  0.00000000000E+00  0.45593999997E+02  0.45594000000E+02  0.51100000000E-03 0.  1.
         11   -1    0    0    0    0 -0.00000000000E+00 -0.00000000000E+00 -0.45593999997E+02  0.45594000000E+02  0.51100000000E-03 0. -1.
    9900012    2    1    2    0    0  0.96047702795E+01 -0.13093900588E+02 -0.27441144857E+02  0.59301979932E+02  0.50000065481E+02 0.  0.
        -12    1    1    2    0    0 -0.96047702795E+01  0.13093900588E+02  0.27441144857E+02  0.31886020068E+02  0.00000000000E+00 0.  1.
         11    1    3    3    0    0 -0.72634263676E+01  0.36560631216E+01 -0.10051774589E+02  0.12929127302E+02  0.51100000000E-03 0. -1.
        -11    1    3    3    0    0  0.10837171146E+01 -0.16806830459E+02  0.62363936374E+01  0.17959303960E+02  0.51100000000E-03 0.  1.
        -12    1    3    3    0    0  0.15784479532E+02  0.56866749455E-01 -0.23625763905E+02  0.28413548670E+02  0.00000000000E+00 0.  1.
</event>
<event>
 7    1  0.6180395E-013  0.5930193E+02  0.7816164E-02  0.1266605E+00
        -11   -1    0    0    0    0  0.00000000000E+00  0.00000000000E+00  0.45593999997E+02  0.45594000000E+02  0.51100000000E-03 0.  1.
         11   -1    0    0    0    0 -0.00000000000E+00 -0.00000000000E+00 -0.45593999997E+02  0.45594000000E+02  0.51100000000E-03 0. -1.
    9900012    2    1    2    0    0 -0.74356156271E+01 -0.18111615226E+01 -0.30954042821E+02  0.59301930114E+02  0.49999974625E+02 0.  0.
        -12    1    1    2    0    0  0.74356156271E+01  0.18111615226E+01  0.30954042821E+02  0.31886069886E+02  0.00000000000E+00 0.  1.
         11    1    3    3    0    0 -0.23622357806E+02  0.54387550951E+01 -0.22806825342E+02  0.33282835333E+02  0.51100000000E-03 0.  1.
        -11    1    3    3    0    0  0.18221537467E+02 -0.33347097935E+01 -0.10206430437E+02  0.21149844907E+02  0.51100000000E-03 0. -1.
        -12    1    3    3    0    0 -0.20347952873E+01 -0.39152068242E+01  0.20592129583E+01  0.48692498750E+01  0.00000000000E+00 0.  1.
</event>
<event>
 7    1  0.6180395E-013  0.5930195E+02  0.7816164E-02  0.1266605E+00
        -11   -1    0    0    0    0  0.00000000000E+00  0.00000000000E+00  0.45593999997E+02  0.45594000000E+02  0.51100000000E-03 0.  1.
         11   -1    0    0    0    0 -0.00000000000E+00 -0.00000000000E+00 -0.45593999997E+02  0.45594000000E+02  0.51100000000E-03 0. -1.
    9900012    2    1    2    0    0 -0.12368011665E+02 -0.28463877127E+02  0.73184991249E+01  0.59301945946E+02  0.50000003499E+02 0.  0.
        -12    1    1    2    0    0  0.12368011665E+02  0.28463877127E+02 -0.73184991249E+01  0.31886054054E+02  0.00000000000E+00 0.  1.
         11    1    3    3    0    0 -0.99317426453E+01 -0.35069289317E+02  0.80393309197E+01  0.37324595203E+02  0.51100000000E-03 0. -1.
        -11    1    3    3    0    0  0.90853876666E+01  0.16388537966E+01  0.11078885708E+01  0.92982540385E+01  0.51100000000E-03 0.  1.
         12    1    3    3    0    0 -0.11521656686E+02  0.49665583933E+01 -0.18287203656E+01  0.12679096705E+02  0.00000000000E+00 0. -1.
</event>
<event>
 7    1  0.6180395E-013  0.5930195E+02  0.7816164E-02  0.1266605E+00
        -11   -1    0    0    0    0  0.00000000000E+00  0.00000000000E+00  0.45593999997E+02  0.45594000000E+02  0.51100000000E-03 0. -1.
         11   -1    0    0    0    0 -0.00000000000E+00 -0.00000000000E+00 -0.45593999997E+02  0.45594000000E+02  0.51100000000E-03 0.  1.
    9900012    2    1    2    0    0  0.21453202333E+02 -0.89300289991E+01  0.21834257624E+02  0.59301951103E+02  0.50000012904E+02 0.  0.
        -12    1    1    2    0    0 -0.21453202333E+02  0.89300289991E+01 -0.21834257624E+02  0.31886048897E+02  0.00000000000E+00 0.  1.
         11    1    3    3    0    0 -0.68026241817E+01 -0.10649351010E+02  0.27062952834E+02  0.29867838708E+02  0.51100000000E-03 0. -1.
        -11    1    3    3    0    0  0.15973780783E+02  0.40012534666E+01 -0.26653838380E+01  0.16681605830E+02  0.51100000000E-03 0.  1.
         12    1    3    3    0    0  0.12282045731E+02 -0.22819314554E+01 -0.25633113726E+01  0.12752506566E+02  0.00000000000E+00 0. -1.
</event>
<event>
 7    1  0.6180395E-013  0.5930198E+02  0.7816164E-02  0.1266605E+00
        -11   -1    0    0    0    0  0.00000000000E+00  0.00000000000E+00  0.45593999997E+02  0.45594000000E+02  0.51100000000E-03 0. -1.
         11   -1    0    0    0    0 -0.00000000000E+00 -0.00000000000E+00 -0.45593999997E+02  0.45594000000E+02  0.51100000000E-03 0.  1.
    9900012    2    1    2    0    0  0.56428009225E+00  0.28392496567E+02 -0.14500545336E+02  0.59301982870E+02  0.50000070840E+02 0.  0.
        -12    1    1    2    0    0 -0.56428009225E+00 -0.28392496567E+02  0.14500545336E+02  0.31886017130E+02  0.00000000000E+00 0.  1.
         11    1    3    3    0    0 -0.16451773228E+02  0.27439809419E+02  0.36789615220E+01  0.32204638508E+02  0.51100000000E-03 0. -1.
        -11    1    3    3    0    0  0.10285575283E+02  0.48866228981E+01 -0.14608794557E+02  0.18522662360E+02  0.51100000000E-03 0.  1.
        -12    1    3    3    0    0  0.67304780376E+01 -0.39339357496E+01 -0.35707123011E+01  0.85746820019E+01  0.00000000000E+00 0.  1.
</event>
<event>
 7    1  0.6180395E-013  0.5930196E+02  0.7816164E-02  0.1266605E+00
        -11   -1    0    0    0    0  0.00000000000E+00  0.00000000000E+00  0.45593999997E+02  0.45594000000E+02  0.51100000000E-03 0. -1.
         11   -1    0    0    0    0 -0.00000000000E+00 -0.00000000000E+00 -0.45593999997E+02  0.45594000000E+02  0.51100000000E-03 0.  1.
    9900012    2    1    2    0    0 -0.50335496453E+01  0.30512220905E+02  0.77709115532E+01  0.59301963668E+02  0.50000035819E+02 0.  0.
        -12    1    1    2    0    0  0.50335496453E+01 -0.30512220905E+02 -0.77709115532E+01  0.31886036332E+02  0.00000000000E+00 0.  1.
         11    1    3    3    0    0 -0.67737583256E+01 -0.99544206442E+00 -0.89627478950E+01  0.11278544093E+02  0.51100000000E-03 0.  1.
        -11    1    3    3    0    0  0.11734621137E+02  0.32083868808E+02  0.88754148937E+01  0.35296585680E+02  0.51100000000E-03 0. -1.
        -12    1    3    3    0    0 -0.99944124566E+01 -0.57620583795E+00  0.78582445545E+01  0.12726833895E+02  0.00000000000E+00 0.  1.
</event>
<event>
 7    1  0.6180395E-013  0.5930194E+02  0.7816164E-02  0.1266605E+00
        -11   -1    0    0    0    0  0.00000000000E+00  0.00000000000E+00  0.45593999997E+02  0.45594000000E+02  0.51100000000E-03 0.  1.
         11   -1    0    0    0    0 -0.00000000000E+00 -0.00000000000E+00 -0.45593999997E+02  0.45594000000E+02  0.51100000000E-03 0. -1.
    9900012    2    1    2    0    0 -0.69839133333E+01 -0.10585507215E+02 -0.29255650108E+02  0.59301936089E+02  0.49999985523E+02 0.  0.
        -12    1    1    2    0    0  0.69839133333E+01  0.10585507215E+02  0.29255650108E+02  0.31886063911E+02  0.00000000000E+00 0.  1.
         11    1    3    3    0    0 -0.49351542339E+01 -0.20587896720E+02 -0.18500866399E+02  0.28115819327E+02  0.51100000000E-03 0. -1.
        -11    1    3    3    0    0  0.93204525879E+01  0.13639988906E+02 -0.98062538904E+01  0.19211526473E+02  0.51100000000E-03 0.  1.
        -12    1    3    3    0    0 -0.11369211687E+02 -0.36375994007E+01 -0.94852981917E+00  0.11974590290E+02  0.00000000000E+00 0.  1.
</event>
<event>
 7    1  0.6180395E-013  0.5930198E+02  0.7816164E-02  0.1266605E+00
        -11   -1    0    0    0    0  0.00000000000E+00  0.00000000000E+00  0.45593999997E+02  0.45594000000E+02  0.51100000000E-03 0. -1.
         11   -1    0    0    0    0 -0.00000000000E+00 -0.00000000000E+00 -0.45593999997E+02  0.45594000000E+02  0.51100000000E-03 0.  1.
    9900012    2    1    2    0    0 -0.77610877993E+01 -0.30414049882E+02 -0.56097541505E+01  0.59301980247E+02  0.50000066055E+02 0.  0.
        -12    1    1    2    0    0  0.77610877993E+01  0.30414049882E+02  0.56097541505E+01  0.31886019753E+02  0.00000000000E+00 0.  1.
         11    1    3    3    0    0 -0.26238829563E+02 -0.61565550712E+01 -0.84119154483E+01  0.28233661983E+02  0.51100000000E-03 0. -1.
        -11    1    3    3    0    0  0.89498652618E+01 -0.11152142603E+02 -0.12881092481E+01  0.14357214164E+02  0.51100000000E-03 0.  1.
         12    1    3    3    0    0  0.95278765020E+01 -0.13105352208E+02  0.40902705459E+01  0.16711104101E+02  0.00000000000E+00 0. -1.
</event>
<event>
 7    1  0.6180395E-013  0.5930195E+02  0.7816164E-02  0.1266605E+00
        -11   -1    0    0    0    0  0.00000000000E+00  0.00000000000E+00  0.45593999997E+02  0.45594000000E+02  0.51100000000E-03 0.  1.
         11   -1    0    0    0    0 -0.00000000000E+00 -0.00000000000E+00 -0.45593999997E+02  0.45594000000E+02  0.51100000000E-03 0. -1.
    9900012    2    1    2    0    0  0.45871039116E+01  0.74144416965E+01 -0.30670906814E+02  0.59301953008E+02  0.50000016377E+02 0.  0.
        -12    1    1    2    0    0 -0.45871039116E+01 -0.74144416965E+01  0.30670906814E+02  0.31886046992E+02  0.00000000000E+00 0.  1.
         11    1    3    3    0    0  0.17143495225E+02 -0.15153075144E+02 -0.85500073333E+01  0.24425759774E+02  0.51100000000E-03 0.  1.
        -11    1    3    3    0    0 -0.34901371690E+01  0.10086623296E+02 -0.13482624689E+02  0.17195993595E+02  0.51100000000E-03 0. -1.
        -12    1    3    3    0    0 -0.90662541446E+01  0.12480893545E+02 -0.86382747926E+01  0.17680199639E+02  0.00000000000E+00 0.  1.
</event>
<event>
 7    1  0.6180395E-013  0.5930197E+02  0.7816164E-02  0.1266605E+00
        -11   -1    0    0    0    0  0.00000000000E+00  0.00000000000E+00  0.45593999997E+02  0.45594000000E+02  0.51100000000E-03 0. -1.
         11   -1    0    0    0    0 -0.00000000000E+00 -0.00000000000E+00 -0.45593999997E+02  0.45594000000E+02  0.51100000000E-03 0.  1.
    9900012    2    1    2    0    0  0.22337121511E+02  0.57634585899E+00  0.22747305259E+02  0.59301967502E+02  0.50000042811E+02 0.  0.
        -12    1    1    2    0    0 -0.22337121511E+02 -0.57634585899E+00 -0.22747305259E+02  0.31886032498E+02  0.00000000000E+00 0.  1.
         11    1    3    3    0    0  0.16628508338E+02 -0.20625629496E+02  0.11203012343E+02  0.28765106770E+02  0.51100000000E-03 0. -1.
        -11    1    3    3    0    0  0.12052627211E+02  0.16015137335E+02  0.88524804469E+01  0.21911569019E+02  0.51100000000E-03 0.  1.
         12    1    3    3    0    0 -0.63440140384E+01  0.51868380203E+01  0.26918124687E+01  0.86252917130E+01  0.00000000000E+00 0. -1.
</event>
<event>
 7    1  0.6180395E-013  0.5930207E+02  0.7816164E-02  0.1266604E+00
        -11   -1    0    0    0    0  0.00000000000E+00  0.00000000000E+00  0.45593999997E+02  0.45594000000E+02  0.51100000000E-03 0. -1.
         11   -1    0    0    0    0 -0.00000000000E+00 -0.00000000000E+00 -0.45593999997E+02  0.45594000000E+02  0.51100000000E-03 0.  1.
    9900012    2    1    2    0    0  0.10574029649E+02  0.28773925997E+02  0.87729052304E+01  0.59302066009E+02  0.50000222464E+02 0.  0.
        -12    1    1    2    0    0 -0.10574029649E+02 -0.28773925997E+02 -0.87729052304E+01  0.31885933991E+02  0.00000000000E+00 0.  1.
         11    1    3    3    0    0 -0.16516281439E+02  0.12513105512E+02  0.87034344524E+01  0.22474766599E+02  0.51100000000E-03 0. -1.
        -11    1    3    3    0    0  0.19914187951E+02  0.13208530865E+02 -0.83856068665E+01  0.25325058186E+02  0.51100000000E-03 0.  1.
        -12    1    3    3    0    0  0.71761231374E+01  0.30522896200E+01  0.84550776446E+01  0.11502241224E+02  0.00000000000E+00 0.  1.
</event>
<event>
 7    1  0.6180395E-013  0.5930194E+02  0.7816164E-02  0.1266605E+00
        -11   -1    0    0    0    0  0.00000000000E+00  0.00000000000E+00  0.45593999997E+02  0.45594000000E+02  0.51100000000E-03 0.  1.
         11   -1    0    0    0    0 -0.00000000000E+00 -0.00000000000E+00 -0.45593999997E+02  0.45594000000E+02  0.51100000000E-03 0. -1.
    9900012    2    1    2    0    0  0.22854424338E+02  0.21809889360E+02  0.43272169618E+01  0.59301940470E+02  0.49999993512E+02 0.  0.
        -12    1    1    2    0    0 -0.22854424338E+02 -0.21809889360E+02 -0.43272169618E+01  0.31886059530E+02  0.00000000000E+00 0.  1.
         11    1    3    3    0    0  0.18836877181E+02 -0.92818960339E+01  0.35521015059E+01  0.21297862833E+02  0.51100000000E-03 0. -1.
        -11    1    3    3    0    0 -0.59030926145E+01  0.21409488147E+02  0.62946807930E+01  0.23083233996E+02  0.51100000000E-03 0.  1.
        -12    1    3    3    0    0  0.99206397719E+01  0.96822972463E+01 -0.55195653372E+01  0.14920843641E+02  0.00000000000E+00 0.  1.
</event>
<event>
 7    1  0.6180395E-013  0.5930191E+02  0.7816164E-02  0.1266605E+00
        -11   -1    0    0    0    0  0.00000000000E+00  0.00000000000E+00  0.45593999997E+02  0.45594000000E+02  0.51100000000E-03 0.  1.
         11   -1    0    0    0    0 -0.00000000000E+00 -0.00000000000E+00 -0.45593999997E+02  0.45594000000E+02  0.51100000000E-03 0. -1.
    9900012    2    1    2    0    0 -0.31723268747E+02 -0.22236639403E+01 -0.23264664678E+01  0.59301907302E+02  0.49999933021E+02 0.  0.
        -12    1    1    2    0    0  0.31723268747E+02  0.22236639403E+01  0.23264664678E+01  0.31886092698E+02  0.00000000000E+00 0.  1.
         11    1    3    3    0    0 -0.16926769716E+02 -0.18098410845E+01 -0.79596104915E+00  0.17041848844E+02  0.51100000000E-03 0. -1.
        -11    1    3    3    0    0  0.10881647297E+02 -0.93050425787E-01 -0.10438113307E+02  0.15078896377E+02  0.51100000000E-03 0.  1.
        -12    1    3    3    0    0 -0.25678146328E+02 -0.32077242995E+00  0.89076078883E+01  0.27181162081E+02  0.00000000000E+00 0.  1.
</event>
<event>
 7    1  0.6180395E-013  0.5930195E+02  0.7816164E-02  0.1266605E+00
        -11   -1    0    0    0    0  0.00000000000E+00  0.00000000000E+00  0.45593999997E+02  0.45594000000E+02  0.51100000000E-03 0.  1.
         11   -1    0    0    0    0 -0.00000000000E+00 -0.00000000000E+00 -0.45593999997E+02  0.45594000000E+02  0.51100000000E-03 0. -1.
    9900012    2    1    2    0    0 -0.11909732224E+02  0.16794986525E+02 -0.24347631792E+02  0.59301945558E+02  0.50000002791E+02 0.  0.
        -12    1    1    2    0    0  0.11909732224E+02 -0.16794986525E+02  0.24347631792E+02  0.31886054442E+02  0.00000000000E+00 0.  1.
         11    1    3    3    0    0 -0.11534749362E+01  0.79222093780E+01  0.60077026540E+00  0.80282520533E+01  0.51100000000E-03 0. -1.
        -11    1    3    3    0    0 -0.14410918471E+02  0.32813814739E+01 -0.35687325141E+02  0.38626768070E+02  0.51100000000E-03 0.  1.
        -12    1    3    3    0    0  0.36546611831E+01  0.55913956730E+01  0.10738923084E+02  0.12646925435E+02  0.00000000000E+00 0.  1.
</event>
<event>
 7    1  0.6180395E-013  0.5930194E+02  0.7816164E-02  0.1266605E+00
        -11   -1    0    0    0    0  0.00000000000E+00  0.00000000000E+00  0.45593999997E+02  0.45594000000E+02  0.51100000000E-03 0.  1.
         11   -1    0    0    0    0 -0.00000000000E+00 -0.00000000000E+00 -0.45593999997E+02  0.45594000000E+02  0.51100000000E-03 0. -1.
    9900012    2    1    2    0    0  0.22106827140E+01  0.31721863113E+02 -0.23573004477E+01  0.59301943756E+02  0.49999999504E+02 0.  0.
        -12    1    1    2    0    0 -0.22106827140E+01 -0.31721863113E+02  0.23573004477E+01  0.31886056244E+02  0.00000000000E+00 0.  1.
         11    1    3    3    0    0 -0.31058665590E+01 -0.12556157785E+02 -0.22478050680E+01  0.13128447482E+02  0.51100000000E-03 0. -1.
        -11    1    3    3    0    0 -0.47657086736E+00  0.16238398021E+02  0.51922190244E+01  0.17054964929E+02  0.51100000000E-03 0.  1.
         12    1    3    3    0    0  0.57931201403E+01  0.28039622877E+02 -0.53017144041E+01  0.29118531345E+02  0.00000000000E+00 0. -1.
</event>
<event>
 7    1  0.6180395E-013  0.5930191E+02  0.7816164E-02  0.1266605E+00
        -11   -1    0    0    0    0  0.00000000000E+00  0.00000000000E+00  0.45593999997E+02  0.45594000000E+02  0.51100000000E-03 0.  1.
         11   -1    0    0    0    0 -0.00000000000E+00 -0.00000000000E+00 -0.45593999997E+02  0.45594000000E+02  0.51100000000E-03 0. -1.
    9900012    2    1    2    0    0 -0.94346449770E+01 -0.29818962230E+02  0.62080133281E+01  0.59301914260E+02  0.49999945711E+02 0.  0.
        -12    1    1    2    0    0  0.94346449770E+01  0.29818962230E+02 -0.62080133281E+01  0.31886085740E+02  0.00000000000E+00 0.  1.
         11    1    3    3    0    0 -0.87560293035E+01  0.11771681549E+02  0.63937260844E+00  0.14685003686E+02  0.51100000000E-03 0. -1.
        -11    1    3    3    0    0  0.62931538629E+01 -0.17112867122E+02 -0.12253410382E+01  0.18274448490E+02  0.51100000000E-03 0.  1.
         12    1    3    3    0    0 -0.69717695364E+01 -0.24477776657E+02  0.67939817579E+01  0.26342462085E+02  0.00000000000E+00 0. -1.
</event>
<event>
 7    1  0.6180395E-013  0.5930190E+02  0.7816164E-02  0.1266605E+00
        -11   -1    0    0    0    0  0.00000000000E+00  0.00000000000E+00  0.45593999997E+02  0.45594000000E+02  0.51100000000E-03 0.  1.
         11   -1    0    0    0    0 -0.00000000000E+00 -0.00000000000E+00 -0.45593999997E+02  0.45594000000E+02  0.51100000000E-03 0. -1.
    9900012    2    1    2    0    0 -0.25346904521E+02 -0.12520820152E+01 -0.19305189323E+02  0.59301896240E+02  0.49999912847E+02 0.  0.
        -12    1    1    2    0    0  0.25346904521E+02  0.12520820152E+01  0.19305189323E+02  0.31886103760E+02  0.00000000000E+00 0.  1.
         11    1    3    3    0    0 -0.12699908602E+02 -0.69145777190E+01  0.14233493404E+02  0.20290179848E+02  0.51100000000E-03 0.  1.
        -11    1    3    3    0    0 -0.41896261481E+00  0.49601166569E+01 -0.23507767778E+01  0.55049467430E+01  0.51100000000E-03 0. -1.
         12    1    3    3    0    0 -0.12228033304E+02  0.70237904682E+00 -0.31187905949E+02  0.33506769649E+02  0.00000000000E+00 0. -1.
</event>
<event>
 7    1  0.6180395E-013  0.5930194E+02  0.7816164E-02  0.1266605E+00
        -11   -1    0    0    0    0  0.00000000000E+00  0.00000000000E+00  0.45593999997E+02  0.45594000000E+02  0.51100000000E-03 0.  1.
         11   -1    0    0    0    0 -0.00000000000E+00 -0.00000000000E+00 -0.45593999997E+02  0.45594000000E+02  0.51100000000E-03 0. -1.
    9900012    2    1    2    0    0  0.28537892871E+02  0.11964409682E+02 -0.76917056114E+01  0.59301940918E+02  0.49999994329E+02 0.  0.
        -12    1    1    2    0    0 -0.28537892871E+02 -0.11964409682E+02  0.76917056114E+01  0.31886059082E+02  0.00000000000E+00 0.  1.
         11    1    3    3    0    0  0.31134372439E+02 -0.20931928881E+01 -0.75218130931E+01  0.32098415476E+02  0.51100000000E-03 0. -1.
        -11    1    3    3    0    0 -0.35124389989E+01  0.79686797191E+01  0.11251603875E+02  0.14227989113E+02  0.51100000000E-03 0.  1.
         12    1    3    3    0    0  0.91595943078E+00  0.60889228511E+01 -0.11421496393E+02  0.12975536329E+02  0.00000000000E+00 0. -1.
</event>
<event>
 7    1  0.6180395E-013  0.5930192E+02  0.7816164E-02  0.1266605E+00
        -11   -1    0    0    0    0  0.00000000000E+00  0.00000000000E+00  0.45593999997E+02  0.45594000000E+02  0.51100000000E-03 0.  1.
         11   -1    0    0    0    0 -0.00000000000E+00 -0.00000000000E+00 -0.45593999997E+02  0.45594000000E+02  0.51100000000E-03 0. -1.
    9900012    2    1    2    0    0  0.10642176206E+02  0.29067463342E+01 -0.29916836271E+02  0.59301918692E+02  0.49999953794E+02 0.  0.
        -12    1    1    2    0    0 -0.10642176206E+02 -0.29067463342E+01  0.29916836271E+02  0.31886081308E+02  0.00000000000E+00 0.  1.
         11    1    3    3    0    0 -0.43049336665E+01 -0.12496183262E+02 -0.13492817723E+02  0.18887646236E+02  0.51100000000E-03 0. -1.
        -11    1    3    3    0    0  0.20711943625E+02  0.12208668220E+01 -0.50810385131E+01  0.21360994292E+02  0.51100000000E-03 0.  1.
        -12    1    3    3    0    0 -0.57648337519E+01  0.14182062774E+02 -0.11342980035E+02  0.19053278164E+02  0.00000000000E+00 0.  1.
</event>
<event>
 7    1  0.6180395E-013  0.5930195E+02  0.7816164E-02  0.1266605E+00
        -11   -1    0    0    0    0  0.00000000000E+00  0.00000000000E+00  0.45593999997E+02  0.45594000000E+02  0.51100000000E-03 0.  1.
         11   -1    0    0    0    0 -0.00000000000E+00 -0.00000000000E+00 -0.45593999997E+02  0.45594000000E+02  0.51100000000E-03 0. -1.
    9900012    2    1    2    0    0 -0.18557510121E+02 -0.25775742362E+02  0.28196239481E+01  0.59301947322E+02  0.50000006007E+02 0.  0.
        -12    1    1    2    0    0  0.18557510121E+02  0.25775742362E+02 -0.28196239481E+01  0.31886052678E+02  0.00000000000E+00 0.  1.
         11    1    3    3    0    0 -0.29708477101E+02 -0.18161378427E+02 -0.90825720281E+01  0.35985030123E+02  0.51100000000E-03 0. -1.
        -11    1    3    3    0    0  0.56974614835E+01 -0.87637458274E+01  0.13904018811E+02  0.17395000651E+02  0.51100000000E-03 0.  1.
         12    1    3    3    0    0  0.54535054965E+01  0.11493818926E+01 -0.20018228349E+01  0.59219165477E+01  0.00000000000E+00 0. -1.
</event>
<event>
 7    1  0.6180395E-013  0.5930192E+02  0.7816164E-02  0.1266605E+00
        -11   -1    0    0    0    0  0.00000000000E+00  0.00000000000E+00  0.45593999997E+02  0.45594000000E+02  0.51100000000E-03 0.  1.
         11   -1    0    0    0    0 -0.00000000000E+00 -0.00000000000E+00 -0.45593999997E+02  0.45594000000E+02  0.51100000000E-03 0. -1.
    9900012    2    1    2    0    0  0.22061722980E+02 -0.18638673081E+02 -0.13513048830E+02  0.59301917711E+02  0.49999952005E+02 0.  0.
        -12    1    1    2    0    0 -0.22061722980E+02  0.18638673081E+02  0.13513048830E+02  0.31886082289E+02  0.00000000000E+00 0.  1.
         11    1    3    3    0    0 -0.57813469006E+01 -0.72888773955E+01 -0.62471684449E+00  0.93242681788E+01  0.51100000000E-03 0. -1.
        -11    1    3    3    0    0  0.86714360152E+01  0.11376054942E+02 -0.14280859531E+02  0.20212653904E+02  0.51100000000E-03 0.  1.
        -12    1    3    3    0    0  0.19171633866E+02 -0.22725850627E+02  0.13925275461E+01  0.29764995629E+02  0.00000000000E+00 0.  1.
</event>
<event>
 7    1  0.6180395E-013  0.5930194E+02  0.7816164E-02  0.1266605E+00
        -11   -1    0    0    0    0  0.00000000000E+00  0.00000000000E+00  0.45593999997E+02  0.45594000000E+02  0.51100000000E-03 0. -1.
         11   -1    0    0    0    0 -0.00000000000E+00 -0.00000000000E+00 -0.45593999997E+02  0.45594000000E+02  0.51100000000E-03 0.  1.
    9900012    2    1    2    0    0 -0.13329973058E+02  0.28924151386E+02  0.15575818350E+01  0.59301940722E+02  0.49999993971E+02 0.  0.
        -12    1    1    2    0    0  0.13329973058E+02 -0.28924151386E+02 -0.15575818350E+01  0.31886059278E+02  0.00000000000E+00 0.  1.
         11    1    3    3    0    0 -0.51559549689E+01  0.62574957905E+01  0.52929360155E+01  0.96827319045E+01  0.51100000000E-03 0. -1.
        -11    1    3    3    0    0 -0.15615201235E+02  0.13593344882E+01 -0.17254263573E+02  0.23310768146E+02  0.51100000000E-03 0.  1.
        -12    1    3    3    0    0  0.74411831456E+01  0.21307321107E+02  0.13518909392E+02  0.26308440671E+02  0.00000000000E+00 0.  1.
</event>
<event>
 7    1  0.6180395E-013  0.5930194E+02  0.7816164E-02  0.1266605E+00
        -11   -1    0    0    0    0  0.00000000000E+00  0.00000000000E+00  0.45593999997E+02  0.45594000000E+02  0.51100000000E-03 0.  1.
         11   -1    0    0    0    0 -0.00000000000E+00 -0.00000000000E+00 -0.45593999997E+02  0.45594000000E+02  0.51100000000E-03 0. -1.
    9900012    2    1    2    0    0  0.28913295898E+02  0.34407856156E+01 -0.12996285073E+02  0.59301935472E+02  0.49999984397E+02 0.  0.
        -12    1    1    2    0    0 -0.28913295898E+02 -0.34407856156E+01  0.12996285073E+02  0.31886064528E+02  0.00000000000E+00 0.  1.
         11    1    3    3    0    0 -0.12692630569E+02  0.42226852611E+01 -0.90156927309E+01  0.16131232354E+02  0.51100000000E-03 0. -1.
        -11    1    3    3    0    0  0.46938428689E+01 -0.20367887688E+01 -0.35628228259E+01  0.62349319256E+01  0.51100000000E-03 0.  1.
         12    1    3    3    0    0  0.36912083598E+02  0.12548891233E+01 -0.41776951653E+00  0.36935771193E+02  0.00000000000E+00 0. -1.
</event>
<event>
 7    1  0.6180395E-013  0.5930203E+02  0.7816164E-02  0.1266604E+00
        -11   -1    0    0    0    0  0.00000000000E+00  0.00000000000E+00  0.45593999997E+02  0.45594000000E+02  0.51100000000E-03 0.  1.
         11   -1    0    0    0    0 -0.00000000000E+00 -0.00000000000E+00 -0.45593999997E+02  0.45594000000E+02  0.51100000000E-03 0. -1.
    9900012    2    1    2    0    0 -0.20840724718E+02  0.23981239976E+02 -0.26979959164E+01  0.59302033502E+02  0.50000163179E+02 0.  0.
        -12    1    1    2    0    0  0.20840724718E+02 -0.23981239976E+02  0.26979959164E+01  0.31885966498E+02  0.00000000000E+00 0.  1.
         11    1    3    3    0    0 -0.13348599873E+02  0.86752951131E+01  0.20096760058E+02  0.25638362447E+02  0.51100000000E-03 0.  1.
        -11    1    3    3    0    0 -0.11163496355E+02  0.50972171509E+01 -0.18040329403E+02  0.21818770790E+02  0.51100000000E-03 0. -1.
         12    1    3    3    0    0  0.36713715105E+01  0.10208727712E+02 -0.47544265717E+01  0.11844900265E+02  0.00000000000E+00 0. -1.
</event>
<event>
 7    1  0.6180395E-013  0.5930194E+02  0.7816164E-02  0.1266605E+00
        -11   -1    0    0    0    0  0.00000000000E+00  0.00000000000E+00  0.45593999997E+02  0.45594000000E+02  0.51100000000E-03 0.  1.
         11   -1    0    0    0    0 -0.00000000000E+00 -0.00000000000E+00 -0.45593999997E+02  0.45594000000E+02  0.51100000000E-03 0. -1.
    9900012    2    1    2    0    0  0.84225727766E-01 -0.22814712689E+02 -0.22275601231E+02  0.59301943184E+02  0.49999998461E+02 0.  0.
        -12    1    1    2    0    0 -0.84225727766E-01  0.22814712689E+02  0.22275601231E+02  0.31886056816E+02  0.00000000000E+00 0.  1.
         11    1    3    3    0    0 -0.13610064932E+02 -0.33438658040E+02 -0.17293872574E+02  0.40030685079E+02  0.51100000000E-03 0. -1.
        -11    1    3    3    0    0  0.87545186912E+01  0.95780035307E+01 -0.13388054989E+01  0.13045004775E+02  0.51100000000E-03 0.  1.
         12    1    3    3    0    0  0.49397719688E+01  0.10459418207E+01 -0.36429231589E+01  0.62262533306E+01  0.00000000000E+00 0. -1.
</event>
<event>
 7    1  0.6180395E-013  0.5930197E+02  0.7816164E-02  0.1266605E+00
        -11   -1    0    0    0    0  0.00000000000E+00  0.00000000000E+00  0.45593999997E+02  0.45594000000E+02  0.51100000000E-03 0.  1.
         11   -1    0    0    0    0 -0.00000000000E+00 -0.00000000000E+00 -0.45593999997E+02  0.45594000000E+02  0.51100000000E-03 0. -1.
    9900012    2    1    2    0    0 -0.17477734471E+02  0.89617653713E+01  0.25118405515E+02  0.59301972709E+02  0.50000052308E+02 0.  0.
        -12    1    1    2    0    0  0.17477734471E+02 -0.89617653713E+01 -0.25118405515E+02  0.31886027291E+02  0.00000000000E+00 0.  1.
         11    1    3    3    0    0  0.51161686844E+01  0.34665093855E+01  0.60411897008E+01  0.86422128294E+01  0.51100000000E-03 0. -1.
        -11    1    3    3    0    0 -0.29248995084E+02 -0.79835589865E+01  0.18701431413E+02  0.35622808209E+02  0.51100000000E-03 0.  1.
        -12    1    3    3    0    0  0.66550919289E+01  0.13478814972E+02  0.37578440104E+00  0.15036951671E+02  0.00000000000E+00 0.  1.
</event>
<event>
 7    1  0.6180395E-013  0.5930196E+02  0.7816164E-02  0.1266605E+00
        -11   -1    0    0    0    0  0.00000000000E+00  0.00000000000E+00  0.45593999997E+02  0.45594000000E+02  0.51100000000E-03 0.  1.
         11   -1    0    0    0    0 -0.00000000000E+00 -0.00000000000E+00 -0.45593999997E+02  0.45594000000E+02  0.51100000000E-03 0. -1.
    9900012    2    1    2    0    0  0.15287727121E+02  0.24315996877E+02 -0.13846913791E+02  0.59301963461E+02  0.50000035441E+02 0.  0.
        -12    1    1    2    0    0 -0.15287727121E+02 -0.24315996877E+02  0.13846913791E+02  0.31886036539E+02  0.00000000000E+00 0.  1.
         11    1    3    3    0    0  0.19745381764E+02  0.18705812599E+02 -0.26326705859E+02  0.37853440632E+02  0.51100000000E-03 0. -1.
        -11    1    3    3    0    0 -0.57021165971E+01 -0.44213760962E+01  0.39732059049E+01  0.82370544307E+01  0.51100000000E-03 0.  1.
        -12    1    3    3    0    0  0.12444619550E+01  0.10031560374E+02  0.85065861635E+01  0.13211468398E+02  0.00000000000E+00 0.  1.
</event>
<event>
 7    1  0.6180395E-013  0.5930194E+02  0.7816164E-02  0.1266605E+00
        -11   -1    0    0    0    0  0.00000000000E+00  0.00000000000E+00  0.45593999997E+02  0.45594000000E+02  0.51100000000E-03 0.  1.
         11   -1    0    0    0    0 -0.00000000000E+00 -0.00000000000E+00 -0.45593999997E+02  0.45594000000E+02  0.51100000000E-03 0. -1.
    9900012    2    1    2    0    0  0.29285444999E+02 -0.79514129294E+01  0.97907433051E+01  0.59301938612E+02  0.49999990124E+02 0.  0.
        -12    1    1    2    0    0 -0.29285444999E+02  0.79514129294E+01 -0.97907433051E+01  0.31886061388E+02  0.00000000000E+00 0.  1.
         11    1    3    3    0    0  0.20383832883E+02 -0.22083595621E+02  0.18640803110E+02  0.35364747693E+02  0.51100000000E-03 0. -1.
        -11    1    3    3    0    0 -0.21278074796E+01  0.77948925211E+01 -0.77057151780E+01  0.11165391205E+02  0.51100000000E-03 0.  1.
        -12    1    3    3    0    0  0.11029419595E+02  0.63372901709E+01 -0.11443446267E+01  0.12771799714E+02  0.00000000000E+00 0.  1.
</event>
<event>
 7    1  0.6180395E-013  0.5930193E+02  0.7816164E-02  0.1266605E+00
        -11   -1    0    0    0    0  0.00000000000E+00  0.00000000000E+00  0.45593999997E+02  0.45594000000E+02  0.51100000000E-03 0. -1.
         11   -1    0    0    0    0 -0.00000000000E+00 -0.00000000000E+00 -0.45593999997E+02  0.45594000000E+02  0.51100000000E-03 0.  1.
    9900012    2    1    2    0    0 -0.21943275166E+01  0.51167243153E+01  0.31396263372E+02  0.59301932593E+02  0.49999979145E+02 0.  0.
        -12    1    1    2    0    0  0.21943275166E+01 -0.51167243153E+01 -0.31396263372E+02  0.31886067407E+02  0.00000000000E+00 0.  1.
         11    1    3    3    0    0 -0.44316082173E+01 -0.10243652891E+02 -0.67492031837E+01  0.13043133052E+02  0.51100000000E-03 0. -1.
        -11    1    3    3    0    0  0.92787002094E+01  0.10063000626E+02  0.10524178494E+02  0.17266053180E+02  0.51100000000E-03 0.  1.
         12    1    3    3    0    0 -0.70414195087E+01  0.52973765803E+01  0.27621288062E+02  0.28992746360E+02  0.00000000000E+00 0. -1.
</event>
<event>
 7    1  0.6180395E-013  0.5930200E+02  0.7816164E-02  0.1266605E+00
        -11   -1    0    0    0    0  0.00000000000E+00  0.00000000000E+00  0.45593999997E+02  0.45594000000E+02  0.51100000000E-03 0.  1.
         11   -1    0    0    0    0 -0.00000000000E+00 -0.00000000000E+00 -0.45593999997E+02  0.45594000000E+02  0.51100000000E-03 0. -1.
    9900012    2    1    2    0    0  0.21072345926E+02 -0.13208567069E+01 -0.23894116748E+02  0.59301996167E+02  0.50000095089E+02 0.  0.
        -12    1    1    2    0    0 -0.21072345926E+02  0.13208567069E+01  0.23894116748E+02  0.31886003833E+02  0.00000000000E+00 0.  1.
         11    1    3    3    0    0  0.82657015453E+01  0.11265326500E+02 -0.20301108830E+02  0.24644764620E+02  0.51100000000E-03 0. -1.
        -11    1    3    3    0    0  0.19233256489E+02 -0.10755536133E+02  0.61174668920E+01  0.22869698602E+02  0.51100000000E-03 0.  1.
        -12    1    3    3    0    0 -0.64266121086E+01 -0.18306470733E+01 -0.97104748096E+01  0.11787532945E+02  0.00000000000E+00 0.  1.
</event>
<event>
 7    1  0.6180395E-013  0.5930195E+02  0.7816164E-02  0.1266605E+00
        -11   -1    0    0    0    0  0.00000000000E+00  0.00000000000E+00  0.45593999997E+02  0.45594000000E+02  0.51100000000E-03 0.  1.
         11   -1    0    0    0    0 -0.00000000000E+00 -0.00000000000E+00 -0.45593999997E+02  0.45594000000E+02  0.51100000000E-03 0. -1.
    9900012    2    1    2    0    0  0.16783764435E+02  0.17449456674E+02 -0.20749508003E+02  0.59301947106E+02  0.50000005613E+02 0.  0.
        -12    1    1    2    0    0 -0.16783764435E+02 -0.17449456674E+02  0.20749508003E+02  0.31886052894E+02  0.00000000000E+00 0.  1.
         11    1    3    3    0    0 -0.71301507936E+01  0.29687259605E+01 -0.18424554020E+02  0.19977902174E+02  0.51100000000E-03 0.  1.
        -11    1    3    3    0    0  0.24565037218E+02  0.13461433310E+02  0.78394431014E+01  0.29087937511E+02  0.51100000000E-03 0. -1.
         12    1    3    3    0    0 -0.65112198879E+00  0.10192974032E+01 -0.10164397084E+02  0.10236107420E+02  0.00000000000E+00 0. -1.
</event>
<event>
 7    1  0.6180395E-013  0.5930193E+02  0.7816164E-02  0.1266605E+00
        -11   -1    0    0    0    0  0.00000000000E+00  0.00000000000E+00  0.45593999997E+02  0.45594000000E+02  0.51100000000E-03 0.  1.
         11   -1    0    0    0    0 -0.00000000000E+00 -0.00000000000E+00 -0.45593999997E+02  0.45594000000E+02  0.51100000000E-03 0. -1.
    9900012    2    1    2    0    0 -0.22677852146E+01  0.26191904598E+02 -0.18043352267E+02  0.59301932865E+02  0.49999979643E+02 0.  0.
        -12    1    1    2    0    0  0.22677852146E+01 -0.26191904598E+02  0.18043352267E+02  0.31886067135E+02  0.00000000000E+00 0.  1.
         11    1    3    3    0    0  0.11870789267E+02  0.50429074263E+00 -0.12337376621E+02  0.17128362710E+02  0.51100000000E-03 0. -1.
        -11    1    3    3    0    0 -0.12702160515E+00  0.27366507758E+02 -0.13308949415E+01  0.27399145296E+02  0.51100000000E-03 0.  1.
        -12    1    3    3    0    0 -0.14011552877E+02 -0.16788939020E+01 -0.43750807050E+01  0.14774424860E+02  0.00000000000E+00 0.  1.
</event>
<event>
 7    1  0.6180395E-013  0.5930195E+02  0.7816164E-02  0.1266605E+00
        -11   -1    0    0    0    0  0.00000000000E+00  0.00000000000E+00  0.45593999997E+02  0.45594000000E+02  0.51100000000E-03 0.  1.
         11   -1    0    0    0    0 -0.00000000000E+00 -0.00000000000E+00 -0.45593999997E+02  0.45594000000E+02  0.51100000000E-03 0. -1.
    9900012    2    1    2    0    0 -0.52121291273E+01  0.22265793206E+02 -0.22221348753E+02  0.59301950110E+02  0.50000011093E+02 0.  0.
        -12    1    1    2    0    0  0.52121291273E+01 -0.22265793206E+02  0.22221348753E+02  0.31886049890E+02  0.00000000000E+00 0.  1.
         11    1    3    3    0    0  0.21649037017E+00  0.21600371875E+02 -0.20180505764E+02  0.29561389452E+02  0.51100000000E-03 0. -1.
        -11    1    3    3    0    0 -0.13109493286E+02 -0.95783360568E+01 -0.41660757363E+01  0.16761847247E+02  0.51100000000E-03 0.  1.
         12    1    3    3    0    0  0.76808737882E+01  0.10243757388E+02  0.21252327466E+01  0.12978713411E+02  0.00000000000E+00 0. -1.
</event>
<event>
 7    1  0.6180395E-013  0.5930194E+02  0.7816164E-02  0.1266605E+00
        -11   -1    0    0    0    0  0.00000000000E+00  0.00000000000E+00  0.45593999997E+02  0.45594000000E+02  0.51100000000E-03 0. -1.
         11   -1    0    0    0    0 -0.00000000000E+00 -0.00000000000E+00 -0.45593999997E+02  0.45594000000E+02  0.51100000000E-03 0.  1.
    9900012    2    1    2    0    0 -0.20455912945E+02 -0.20713360020E+02  0.13008976071E+02  0.59301935393E+02  0.49999984252E+02 0.  0.
        -12    1    1    2    0    0  0.20455912945E+02  0.20713360020E+02 -0.13008976071E+02  0.31886064607E+02  0.00000000000E+00 0.  1.
         11    1    3    3    0    0  0.51329648772E+01 -0.17888433857E+02 -0.79843474981E+01  0.20250757999E+02  0.51100000000E-03 0. -1.
        -11    1    3    3    0    0 -0.28710916067E+01  0.72422064961E+01  0.28976794610E+01  0.83119954563E+01  0.51100000000E-03 0.  1.
         12    1    3    3    0    0 -0.22717786216E+02 -0.10067132659E+02  0.18095644108E+02  0.30739181938E+02  0.00000000000E+00 0. -1.
</event>
<event>
 7    1  0.6180395E-013  0.5930196E+02  0.7816164E-02  0.1266605E+00
        -11   -1    0    0    0    0  0.00000000000E+00  0.00000000000E+00  0.45593999997E+02  0.45594000000E+02  0.51100000000E-03 0.  1.
         11   -1    0    0    0    0 -0.00000000000E+00 -0.00000000000E+00 -0.45593999997E+02  0.45594000000E+02  0.51100000000E-03 0. -1.
    9900012    2    1    2    0    0  0.10801244005E+02 -0.35322663133E+00 -0.29998794878E+02  0.59301963319E+02  0.50000035182E+02 0.  0.
        -12    1    1    2    0    0 -0.10801244005E+02  0.35322663133E+00  0.29998794878E+02  0.31886036681E+02  0.00000000000E+00 0.  1.
         11    1    3    3    0    0 -0.22500033344E+01  0.13816288905E+02 -0.16510635037E+02  0.21646094883E+02  0.51100000000E-03 0. -1.
        -11    1    3    3    0    0  0.14609570340E+02 -0.73759291606E-01  0.39930590391E+01  0.15145610147E+02  0.51100000000E-03 0.  1.
         12    1    3    3    0    0 -0.15583230011E+01 -0.14095756245E+02 -0.17481218880E+02  0.22510258289E+02  0.00000000000E+00 0. -1.
</event>
<event>
 7    1  0.7166168E-013  0.5930197E+02  0.7816164E-02  0.1266605E+00
        -11   -1    0    0    0    0  0.00000000000E+00  0.00000000000E+00  0.45593999997E+02  0.45594000000E+02  0.51100000000E-03 0. -1.
         11   -1    0    0    0    0 -0.00000000000E+00 -0.00000000000E+00 -0.45593999997E+02  0.45594000000E+02  0.51100000000E-03 0.  1.
    9900012    2    1    2    0    0  0.10665217346E+02 -0.98952043540E+01  0.28373522611E+02  0.59301973035E+02  0.50000052902E+02 0.  0.
        -12    1    1    2    0    0 -0.10665217346E+02  0.98952043540E+01 -0.28373522611E+02  0.31886026965E+02  0.00000000000E+00 0.  1.
         11    1    3    3    0    0  0.20640970842E+02  0.23625634216E+00  0.15402505502E+02  0.25755439627E+02  0.51100000000E-03 0. -1.
        -11    1    3    3    0    0 -0.21526435941E+01 -0.34046505190E+01 -0.86765337536E+01  0.95659687350E+01  0.51100000000E-03 0.  1.
         12    1    3    3    0    0 -0.78231099021E+01 -0.67268101772E+01  0.21647550862E+02  0.23980564673E+02  0.00000000000E+00 0. -1.
</event>
<event>
 7    1  0.6180395E-013  0.5930194E+02  0.7816164E-02  0.1266605E+00
        -11   -1    0    0    0    0  0.00000000000E+00  0.00000000000E+00  0.45593999997E+02  0.45594000000E+02  0.51100000000E-03 0.  1.
         11   -1    0    0    0    0 -0.00000000000E+00 -0.00000000000E+00 -0.45593999997E+02  0.45594000000E+02  0.51100000000E-03 0. -1.
    9900012    2    1    2    0    0  0.89166308933E+01  0.10835378033E+02 -0.28632305123E+02  0.59301943169E+02  0.49999998434E+02 0.  0.
        -12    1    1    2    0    0 -0.89166308933E+01 -0.10835378033E+02  0.28632305123E+02  0.31886056831E+02  0.00000000000E+00 0.  1.
         11    1    3    3    0    0 -0.75411149439E+01  0.28264773644E+01  0.69242635000E+01  0.10620866922E+02  0.51100000000E-03 0.  1.
        -11    1    3    3    0    0  0.23475540563E+02  0.59500474188E+01 -0.33001292339E+02  0.40933963469E+02  0.51100000000E-03 0. -1.
         12    1    3    3    0    0 -0.70177947254E+01  0.20588532499E+01 -0.25552762841E+01  0.77471127783E+01  0.00000000000E+00 0. -1.
</event>
<event>
 7    1  0.6180395E-013  0.5930193E+02  0.7816164E-02  0.1266605E+00
        -11   -1    0    0    0    0  0.00000000000E+00  0.00000000000E+00  0.45593999997E+02  0.45594000000E+02  0.51100000000E-03 0.  1.
         11   -1    0    0    0    0 -0.00000000000E+00 -0.00000000000E+00 -0.45593999997E+02  0.45594000000E+02  0.51100000000E-03 0. -1.
    9900012    2    1    2    0    0 -0.27449764864E+02 -0.13293140448E+02 -0.93018263803E+01  0.59301934892E+02  0.49999983339E+02 0.  0.
        -12    1    1    2    0    0  0.27449764864E+02  0.13293140448E+02  0.93018263803E+01  0.31886065108E+02  0.00000000000E+00 0.  1.
         11    1    3    3    0    0 -0.91221640356E+01  0.10556333058E+02 -0.15882672464E+02  0.21140230112E+02  0.51100000000E-03 0. -1.
        -11    1    3    3    0    0 -0.11789120051E+02 -0.21035399360E+02  0.13997361044E+02  0.27881848832E+02  0.51100000000E-03 0.  1.
         12    1    3    3    0    0 -0.65384807774E+01 -0.28140741458E+01 -0.74165149600E+01  0.10279855949E+02  0.00000000000E+00 0. -1.
</event>
<event>
 7    1  0.6180395E-013  0.5930193E+02  0.7816164E-02  0.1266605E+00
        -11   -1    0    0    0    0  0.00000000000E+00  0.00000000000E+00  0.45593999997E+02  0.45594000000E+02  0.51100000000E-03 0.  1.
         11   -1    0    0    0    0 -0.00000000000E+00 -0.00000000000E+00 -0.45593999997E+02  0.45594000000E+02  0.51100000000E-03 0. -1.
    9900012    2    1    2    0    0 -0.29010164214E+02 -0.11171799316E+02 -0.70938572212E+01  0.59301928778E+02  0.49999972189E+02 0.  0.
        -12    1    1    2    0    0  0.29010164214E+02  0.11171799316E+02  0.70938572212E+01  0.31886071222E+02  0.00000000000E+00 0.  1.
         11    1    3    3    0    0 -0.27834228189E+02 -0.26989988369E+02 -0.10648661746E+02  0.40206936321E+02  0.51100000000E-03 0. -1.
        -11    1    3    3    0    0 -0.26591177503E+01  0.88252340208E+01 -0.26913833785E+01  0.96020418393E+01  0.51100000000E-03 0.  1.
         12    1    3    3    0    0  0.14831817251E+01  0.69929550329E+01  0.62461879036E+01  0.94929506187E+01  0.00000000000E+00 0. -1.
</event>
<event>
 7    1  0.6180395E-013  0.5930196E+02  0.7816164E-02  0.1266605E+00
        -11   -1    0    0    0    0  0.00000000000E+00  0.00000000000E+00  0.45593999997E+02  0.45594000000E+02  0.51100000000E-03 0. -1.
         11   -1    0    0    0    0 -0.00000000000E+00 -0.00000000000E+00 -0.45593999997E+02  0.45594000000E+02  0.51100000000E-03 0.  1.
    9900012    2    1    2    0    0  0.37083060698E+01 -0.23208075610E+02  0.21548856118E+02  0.59301960618E+02  0.50000030257E+02 0.  0.
        -12    1    1    2    0    0 -0.37083060698E+01  0.23208075610E+02 -0.21548856118E+02  0.31886039382E+02  0.00000000000E+00 0.  1.
         11    1    3    3    0    0  0.11081964672E+02 -0.60422676791E+01 -0.98206082144E+01  0.15992600966E+02  0.51100000000E-03 0.  1.
        -11    1    3    3    0    0 -0.13742927604E+02 -0.75834713054E+01  0.88467395522E+01  0.18017821653E+02  0.51100000000E-03 0. -1.
        -12    1    3    3    0    0  0.63692690008E+01 -0.95823366260E+01  0.22522724780E+02  0.25291537999E+02  0.00000000000E+00 0.  1.
</event>
<event>
 7    1  0.6180395E-013  0.5930194E+02  0.7816164E-02  0.1266605E+00
        -11   -1    0    0    0    0  0.00000000000E+00  0.00000000000E+00  0.45593999997E+02  0.45594000000E+02  0.51100000000E-03 0.  1.
         11   -1    0    0    0    0 -0.00000000000E+00 -0.00000000000E+00 -0.45593999997E+02  0.45594000000E+02  0.51100000000E-03 0. -1.
    9900012    2    1    2    0    0  0.21920393581E+02  0.16391337849E+02 -0.16356683424E+02  0.59301941858E+02  0.49999996044E+02 0.  0.
        -12    1    1    2    0    0 -0.21920393581E+02 -0.16391337849E+02  0.16356683424E+02  0.31886058142E+02  0.00000000000E+00 0.  1.
         11    1    3    3    0    0 -0.88186519196E+00  0.17189133348E+02 -0.23743471222E+02  0.29325695515E+02  0.51100000000E-03 0. -1.
        -11    1    3    3    0    0  0.10547478130E+02 -0.73154457887E+01 -0.23128352797E+01  0.13042785334E+02  0.51100000000E-03 0.  1.
        -12    1    3    3    0    0  0.12254780643E+02  0.65176502891E+01  0.96996230782E+01  0.16933461009E+02  0.00000000000E+00 0.  1.
</event>
<event>
 7    1  0.6180395E-013  0.5930195E+02  0.7816164E-02  0.1266605E+00
        -11   -1    0    0    0    0  0.00000000000E+00  0.00000000000E+00  0.45593999997E+02  0.45594000000E+02  0.51100000000E-03 0.  1.
         11   -1    0    0    0    0 -0.00000000000E+00 -0.00000000000E+00 -0.45593999997E+02  0.45594000000E+02  0.51100000000E-03 0. -1.
    9900012    2    1    2    0    0 -0.62138161996E+01  0.31196497167E+02 -0.22107293214E+01  0.59301948639E+02  0.50000008410E+02 0.  0.
        -12    1    1    2    0    0  0.62138161996E+01 -0.31196497167E+02  0.22107293214E+01  0.31886051361E+02  0.00000000000E+00 0.  1.
         11    1    3    3    0    0 -0.11222649098E+02  0.12928407067E+02 -0.31179313925E+01  0.17401524603E+02  0.51100000000E-03 0. -1.
        -11    1    3    3    0    0  0.13387058051E+02  0.23981720453E+02 -0.77815155149E+01  0.28546247093E+02  0.51100000000E-03 0.  1.
        -12    1    3    3    0    0 -0.83782251531E+01 -0.57136303529E+01  0.86887175860E+01  0.13354176943E+02  0.00000000000E+00 0.  1.
</event>
<event>
 7    1  0.6180395E-013  0.5930194E+02  0.7816164E-02  0.1266605E+00
        -11   -1    0    0    0    0  0.00000000000E+00  0.00000000000E+00  0.45593999997E+02  0.45594000000E+02  0.51100000000E-03 0.  1.
         11   -1    0    0    0    0 -0.00000000000E+00 -0.00000000000E+00 -0.45593999997E+02  0.45594000000E+02  0.51100000000E-03 0. -1.
    9900012    2    1    2    0    0 -0.11527871627E+02 -0.28497457803E+02 -0.84689920936E+01  0.59301941094E+02  0.49999994650E+02 0.  0.
        -12    1    1    2    0    0  0.11527871627E+02  0.28497457803E+02  0.84689920936E+01  0.31886058906E+02  0.00000000000E+00 0.  1.
         11    1    3    3    0    0  0.38653286672E+00  0.36517087798E+01 -0.10843131510E+02  0.11448051619E+02  0.51100000000E-03 0. -1.
        -11    1    3    3    0    0 -0.23093998123E+02 -0.17831548372E+02 -0.17389674065E+01  0.29228767927E+02  0.51100000000E-03 0.  1.
         12    1    3    3    0    0  0.11179593629E+02 -0.14317618210E+02  0.41131068230E+01  0.18625121547E+02  0.00000000000E+00 0. -1.
</event>
<event>
 7    1  0.6180395E-013  0.5930193E+02  0.7816164E-02  0.1266605E+00
        -11   -1    0    0    0    0  0.00000000000E+00  0.00000000000E+00  0.45593999997E+02  0.45594000000E+02  0.51100000000E-03 0. -1.
         11   -1    0    0    0    0 -0.00000000000E+00 -0.00000000000E+00 -0.45593999997E+02  0.45594000000E+02  0.51100000000E-03 0.  1.
    9900012    2    1    2    0    0  0.24773762467E+02 -0.12237206856E+02  0.15913295168E+02  0.59301929349E+02  0.49999973230E+02 0.  0.
        -12    1    1    2    0    0 -0.24773762467E+02  0.12237206856E+02 -0.15913295168E+02  0.31886070651E+02  0.00000000000E+00 0.  1.
         11    1    3    3    0    0 -0.14993712525E+01 -0.16496004546E+02 -0.67796133438E+01  0.17897749509E+02  0.51100000000E-03 0.  1.
        -11    1    3    3    0    0  0.24806422158E+02 -0.49593534744E+01  0.16606263775E+02  0.30260894964E+02  0.51100000000E-03 0. -1.
        -12    1    3    3    0    0  0.14667115614E+01  0.92181511639E+01  0.60866447367E+01  0.11143284876E+02  0.00000000000E+00 0.  1.
</event>
<event>
 7    1  0.6180395E-013  0.5930188E+02  0.7816164E-02  0.1266605E+00
        -11   -1    0    0    0    0  0.00000000000E+00  0.00000000000E+00  0.45593999997E+02  0.45594000000E+02  0.51100000000E-03 0. -1.
         11   -1    0    0    0    0 -0.00000000000E+00 -0.00000000000E+00 -0.45593999997E+02  0.45594000000E+02  0.51100000000E-03 0.  1.
    9900012    2    1    2    0    0  0.30138267447E+02  0.10408993630E+02  0.25013803443E+00  0.59301876339E+02  0.49999876551E+02 0.  0.
        -12    1    1    2    0    0 -0.30138267447E+02 -0.10408993630E+02 -0.25013803443E+00  0.31886123661E+02  0.00000000000E+00 0.  1.
         11    1    3    3    0    0  0.23872630620E+02 -0.46591388959E+01  0.18497139236E+02  0.30557392365E+02  0.51100000000E-03 0. -1.
        -11    1    3    3    0    0  0.10907005268E+02  0.10975914771E+02 -0.99594022826E+01  0.18401716307E+02  0.51100000000E-03 0.  1.
         12    1    3    3    0    0 -0.46413684403E+01  0.40922177553E+01 -0.82875989192E+01  0.10342767666E+02  0.00000000000E+00 0. -1.
</event>
<event>
 7    1  0.6180395E-013  0.5930195E+02  0.7816164E-02  0.1266605E+00
        -11   -1    0    0    0    0  0.00000000000E+00  0.00000000000E+00  0.45593999997E+02  0.45594000000E+02  0.51100000000E-03 0. -1.
         11   -1    0    0    0    0 -0.00000000000E+00 -0.00000000000E+00 -0.45593999997E+02  0.45594000000E+02  0.51100000000E-03 0.  1.
    9900012    2    1    2    0    0  0.27104033522E+02 -0.18129041719E+01  0.16697445326E+02  0.59301953912E+02  0.50000018027E+02 0.  0.
        -12    1    1    2    0    0 -0.27104033522E+02  0.18129041719E+01 -0.16697445326E+02  0.31886046088E+02  0.00000000000E+00 0.  1.
         11    1    3    3    0    0  0.71608378846E+01  0.11835705427E+02  0.12900083246E+02  0.18914906031E+02  0.51100000000E-03 0. -1.
        -11    1    3    3    0    0  0.16392705266E+02 -0.21616829651E+02  0.10800515351E+02  0.29200329488E+02  0.51100000000E-03 0.  1.
        -12    1    3    3    0    0  0.35504903713E+01  0.79682200517E+01 -0.70031532705E+01  0.11186718393E+02  0.00000000000E+00 0.  1.
</event>
<event>
 7    1  0.6180395E-013  0.5930194E+02  0.7816164E-02  0.1266605E+00
        -11   -1    0    0    0    0  0.00000000000E+00  0.00000000000E+00  0.45593999997E+02  0.45594000000E+02  0.51100000000E-03 0.  1.
         11   -1    0    0    0    0 -0.00000000000E+00 -0.00000000000E+00 -0.45593999997E+02  0.45594000000E+02  0.51100000000E-03 0. -1.
    9900012    2    1    2    0    0  0.12997254726E+02 -0.29066184023E+02 -0.17173788413E+01  0.59301936051E+02  0.49999985453E+02 0.  0.
        -12    1    1    2    0    0 -0.12997254726E+02  0.29066184023E+02  0.17173788413E+01  0.31886063949E+02  0.00000000000E+00 0.  1.
         11    1    3    3    0    0  0.17463443952E+02 -0.29997637819E+02  0.15984464571E+02  0.38214306971E+02  0.51100000000E-03 0. -1.
        -11    1    3    3    0    0 -0.34908681468E+01  0.14673760386E+01 -0.46531873646E+00  0.38152161989E+01  0.51100000000E-03 0.  1.
         12    1    3    3    0    0 -0.97532107980E+00 -0.53592224245E+00 -0.17236524676E+02  0.17272412882E+02  0.00000000000E+00 0. -1.
</event>
<event>
 7    1  0.6180395E-013  0.5930191E+02  0.7816164E-02  0.1266605E+00
        -11   -1    0    0    0    0  0.00000000000E+00  0.00000000000E+00  0.45593999997E+02  0.45594000000E+02  0.51100000000E-03 0.  1.
         11   -1    0    0    0    0 -0.00000000000E+00 -0.00000000000E+00 -0.45593999997E+02  0.45594000000E+02  0.51100000000E-03 0. -1.
    9900012    2    1    2    0    0 -0.24759761622E+02  0.18084232521E+02  0.87542976175E+01  0.59301906037E+02  0.49999930714E+02 0.  0.
        -12    1    1    2    0    0  0.24759761622E+02 -0.18084232521E+02 -0.87542976175E+01  0.31886093963E+02  0.00000000000E+00 0.  1.
         11    1    3    3    0    0 -0.60648894542E+01 -0.90497418858E+01 -0.12582981873E+02  0.16643681846E+02  0.51100000000E-03 0. -1.
        -11    1    3    3    0    0 -0.17561909771E+02  0.14292923531E+02  0.77594815135E+01  0.23935703280E+02  0.51100000000E-03 0.  1.
        -12    1    3    3    0    0 -0.11329623964E+01  0.12841050876E+02  0.13577797977E+02  0.18722520912E+02  0.00000000000E+00 0.  1.
</event>
<event>
 7    1  0.6180395E-013  0.5930191E+02  0.7816164E-02  0.1266605E+00
        -11   -1    0    0    0    0  0.00000000000E+00  0.00000000000E+00  0.45593999997E+02  0.45594000000E+02  0.51100000000E-03 0.  1.
         11   -1    0    0    0    0 -0.00000000000E+00 -0.00000000000E+00 -0.45593999997E+02  0.45594000000E+02  0.51100000000E-03 0. -1.
    9900012    2    1    2    0    0  0.21923093928E+02 -0.13073933255E+02 -0.19109495754E+02  0.59301912029E+02  0.49999941642E+02 0.  0.
        -12    1    1    2    0    0 -0.21923093928E+02  0.13073933255E+02  0.19109495754E+02  0.31886087971E+02  0.00000000000E+00 0.  1.
         11    1    3    3    0    0 -0.18919944641E+01  0.92045129590E+01 -0.14772416856E+02  0.17507912551E+02  0.51100000000E-03 0. -1.
        -11    1    3    3    0    0  0.15069631525E+02 -0.18996569354E+02  0.86951967294E+01  0.25759850310E+02  0.51100000000E-03 0.  1.
        -12    1    3    3    0    0  0.87454568670E+01 -0.32818768592E+01 -0.13032275627E+02  0.16034149168E+02  0.00000000000E+00 0.  1.
</event>
<event>
 7    1  0.6180395E-013  0.5930197E+02  0.7816164E-02  0.1266605E+00
        -11   -1    0    0    0    0  0.00000000000E+00  0.00000000000E+00  0.45593999997E+02  0.45594000000E+02  0.51100000000E-03 0.  1.
         11   -1    0    0    0    0 -0.00000000000E+00 -0.00000000000E+00 -0.45593999997E+02  0.45594000000E+02  0.51100000000E-03 0. -1.
    9900012    2    1    2    0    0 -0.17495242108E+02 -0.20738570393E+02 -0.16749541079E+02  0.59301969756E+02  0.50000046922E+02 0.  0.
        -12    1    1    2    0    0  0.17495242108E+02  0.20738570393E+02  0.16749541079E+02  0.31886030244E+02  0.00000000000E+00 0.  1.
         11    1    3    3    0    0 -0.10530188058E+02 -0.13619656772E+02 -0.30123915069E+02  0.34696255857E+02  0.51100000000E-03 0. -1.
        -11    1    3    3    0    0 -0.10825971477E+02 -0.44983074548E+01  0.15536147313E+02  0.19462998278E+02  0.51100000000E-03 0.  1.
        -12    1    3    3    0    0  0.38609174272E+01 -0.26206061659E+01 -0.21617733236E+01  0.51427156210E+01  0.00000000000E+00 0.  1.
</event>
<event>
 7    1  0.6180395E-013  0.5930197E+02  0.7816164E-02  0.1266605E+00
        -11   -1    0    0    0    0  0.00000000000E+00  0.00000000000E+00  0.45593999997E+02  0.45594000000E+02  0.51100000000E-03 0.  1.
         11   -1    0    0    0    0 -0.00000000000E+00 -0.00000000000E+00 -0.45593999997E+02  0.45594000000E+02  0.51100000000E-03 0. -1.
    9900012    2    1    2    0    0 -0.12325749161E+01  0.17663809997E+02 -0.26517720060E+02  0.59301970117E+02  0.50000047580E+02 0.  0.
        -12    1    1    2    0    0  0.12325749161E+01 -0.17663809997E+02  0.26517720060E+02  0.31886029883E+02  0.00000000000E+00 0.  1.
         11    1    3    3    0    0  0.10575707598E+02 -0.56111519435E+01  0.21255455239E+01  0.12159299379E+02  0.51100000000E-03 0. -1.
        -11    1    3    3    0    0 -0.19649322887E+02  0.19843056517E+02 -0.26074506923E+02  0.38206317454E+02  0.51100000000E-03 0.  1.
         12    1    3    3    0    0  0.78410403726E+01  0.34319054231E+01 -0.25687586606E+01  0.89363532839E+01  0.00000000000E+00 0. -1.
</event>
<event>
 7    1  0.6180395E-013  0.5930193E+02  0.7816164E-02  0.1266605E+00
        -11   -1    0    0    0    0  0.00000000000E+00  0.00000000000E+00  0.45593999997E+02  0.45594000000E+02  0.51100000000E-03 0. -1.
         11   -1    0    0    0    0 -0.00000000000E+00 -0.00000000000E+00 -0.45593999997E+02  0.45594000000E+02  0.51100000000E-03 0.  1.
    9900012    2    1    2    0    0  0.59124506390E+01 -0.30946508304E+02  0.49069408610E+01  0.59301929101E+02  0.49999972776E+02 0.  0.
        -12    1    1    2    0    0 -0.59124506390E+01  0.30946508304E+02 -0.49069408610E+01  0.31886070899E+02  0.00000000000E+00 0.  1.
         11    1    3    3    0    0 -0.24591507669E+01  0.27792765862E+01  0.13104344167E+02  0.13619678306E+02  0.51100000000E-03 0. -1.
        -11    1    3    3    0    0  0.75032080393E+01 -0.26863273816E+02 -0.18357772656E+02  0.33390738658E+02  0.51100000000E-03 0.  1.
        -12    1    3    3    0    0  0.86839336661E+00 -0.68625110746E+01  0.10160369350E+02  0.12291512137E+02  0.00000000000E+00 0.  1.
</event>
<event>
 7    1  0.6180395E-013  0.5930165E+02  0.7816164E-02  0.1266606E+00
        -11   -1    0    0    0    0  0.00000000000E+00  0.00000000000E+00  0.45593999997E+02  0.45594000000E+02  0.51100000000E-03 0.  1.
         11   -1    0    0    0    0 -0.00000000000E+00 -0.00000000000E+00 -0.45593999997E+02  0.45594000000E+02  0.51100000000E-03 0. -1.
    9900012    2    1    2    0    0  0.23564912080E+02 -0.13849331491E+02 -0.16420415584E+02  0.59301653203E+02  0.49999469602E+02 0.  0.
        -12    1    1    2    0    0 -0.23564912080E+02  0.13849331491E+02  0.16420415584E+02  0.31886346797E+02  0.00000000000E+00 0.  1.
         11    1    3    3    0    0  0.27959429616E+02 -0.72918078835E+01 -0.26857742780E+01  0.29019192794E+02  0.51100000000E-03 0. -1.
        -11    1    3    3    0    0 -0.31220074907E+01 -0.13486398622E+02 -0.17485129477E+02  0.22301561193E+02  0.51100000000E-03 0.  1.
        -12    1    3    3    0    0 -0.12725100453E+01  0.69288750138E+01  0.37504881709E+01  0.79808992158E+01  0.00000000000E+00 0.  1.
</event>
<event>
 7    1  0.6180395E-013  0.5930200E+02  0.7816164E-02  0.1266605E+00
        -11   -1    0    0    0    0  0.00000000000E+00  0.00000000000E+00  0.45593999997E+02  0.45594000000E+02  0.51100000000E-03 0.  1.
         11   -1    0    0    0    0 -0.00000000000E+00 -0.00000000000E+00 -0.45593999997E+02  0.45594000000E+02  0.51100000000E-03 0. -1.
    9900012    2    1    2    0    0 -0.51814122749E+01 -0.31428609471E+02 -0.14534680201E+01  0.59301998436E+02  0.50000099228E+02 0.  0.
        -12    1    1    2    0    0  0.51814122749E+01  0.31428609471E+02  0.14534680201E+01  0.31886001564E+02  0.00000000000E+00 0.  1.
         11    1    3    3    0    0  0.13641776254E+02 -0.19565657336E+02  0.60254633727E+01  0.24601203537E+02  0.51100000000E-03 0. -1.
        -11    1    3    3    0    0 -0.17762178246E+02 -0.13734487153E+02  0.41854804256E+01  0.22839644482E+02  0.51100000000E-03 0.  1.
        -12    1    3    3    0    0 -0.10610102827E+01  0.18715350179E+01 -0.11664411818E+02  0.11861150417E+02  0.00000000000E+00 0.  1.
</event>
<event>
 7    1  0.6180395E-013  0.5930194E+02  0.7816164E-02  0.1266605E+00
        -11   -1    0    0    0    0  0.00000000000E+00  0.00000000000E+00  0.45593999997E+02  0.45594000000E+02  0.51100000000E-03 0.  1.
         11   -1    0    0    0    0 -0.00000000000E+00 -0.00000000000E+00 -0.45593999997E+02  0.45594000000E+02  0.51100000000E-03 0. -1.
    9900012    2    1    2    0    0 -0.71970110021E+01  0.56889528437E+01 -0.30537840522E+02  0.59301939479E+02  0.49999991704E+02 0.  0.
        -12    1    1    2    0    0  0.71970110021E+01 -0.56889528437E+01  0.30537840522E+02  0.31886060521E+02  0.00000000000E+00 0.  1.
         11    1    3    3    0    0 -0.13569685897E+02  0.24630686175E+02 -0.23228404333E+02  0.36474180524E+02  0.51100000000E-03 0. -1.
        -11    1    3    3    0    0  0.38623351899E+01 -0.18487429829E+02 -0.54067573411E+01  0.19645246754E+02  0.51100000000E-03 0.  1.
         12    1    3    3    0    0  0.25103397055E+01 -0.45430350220E+00 -0.19026788478E+01  0.31825122006E+01  0.00000000000E+00 0. -1.
</event>
<event>
 7    1  0.6180395E-013  0.5930195E+02  0.7816164E-02  0.1266605E+00
        -11   -1    0    0    0    0  0.00000000000E+00  0.00000000000E+00  0.45593999997E+02  0.45594000000E+02  0.51100000000E-03 0.  1.
         11   -1    0    0    0    0 -0.00000000000E+00 -0.00000000000E+00 -0.45593999997E+02  0.45594000000E+02  0.51100000000E-03 0. -1.
    9900012    2    1    2    0    0 -0.20000106330E+02 -0.17761768397E+02 -0.17356138214E+02  0.59301949704E+02  0.50000010351E+02 0.  0.
        -12    1    1    2    0    0  0.20000106330E+02  0.17761768397E+02  0.17356138214E+02  0.31886050296E+02  0.00000000000E+00 0.  1.
         11    1    3    3    0    0 -0.29912722125E+02 -0.18540651998E+02  0.28896959341E+01  0.35311146460E+02  0.51100000000E-03 0. -1.
        -11    1    3    3    0    0  0.87316409112E+01 -0.13033428234E+01 -0.19622689606E+02  0.21517207141E+02  0.51100000000E-03 0.  1.
         12    1    3    3    0    0  0.11809748843E+01  0.20822264243E+01 -0.62314454219E+00  0.24735961028E+01  0.00000000000E+00 0. -1.
</event>
<event>
 7    1  0.6180395E-013  0.5930198E+02  0.7816164E-02  0.1266605E+00
        -11   -1    0    0    0    0  0.00000000000E+00  0.00000000000E+00  0.45593999997E+02  0.45594000000E+02  0.51100000000E-03 0.  1.
         11   -1    0    0    0    0 -0.00000000000E+00 -0.00000000000E+00 -0.45593999997E+02  0.45594000000E+02  0.51100000000E-03 0. -1.
    9900012    2    1    2    0    0 -0.11915442747E+02 -0.16410698330E+02 -0.24605473296E+02  0.59301982506E+02  0.50000070175E+02 0.  0.
        -12    1    1    2    0    0  0.11915442747E+02  0.16410698330E+02  0.24605473296E+02  0.31886017494E+02  0.00000000000E+00 0.  1.
         11    1    3    3    0    0 -0.26793745306E+02 -0.79367580601E+01 -0.27880142421E+01  0.28083267967E+02  0.51100000000E-03 0. -1.
        -11    1    3    3    0    0  0.10311417824E+02 -0.64808170175E+01 -0.41571192987E+01  0.12868875937E+02  0.51100000000E-03 0.  1.
         12    1    3    3    0    0  0.45668847353E+01 -0.19931232519E+01 -0.17660339755E+02  0.18349838603E+02  0.00000000000E+00 0. -1.
</event>
<event>
 7    1  0.6180395E-013  0.5930194E+02  0.7816164E-02  0.1266605E+00
        -11   -1    0    0    0    0  0.00000000000E+00  0.00000000000E+00  0.45593999997E+02  0.45594000000E+02  0.51100000000E-03 0.  1.
         11   -1    0    0    0    0 -0.00000000000E+00 -0.00000000000E+00 -0.45593999997E+02  0.45594000000E+02  0.51100000000E-03 0. -1.
    9900012    2    1    2    0    0  0.99709503237E+01 -0.27917210009E+02 -0.11744364699E+02  0.59301944000E+02  0.49999999950E+02 0.  0.
        -12    1    1    2    0    0 -0.99709503237E+01  0.27917210009E+02  0.11744364699E+02  0.31886056000E+02  0.00000000000E+00 0.  1.
         11    1    3    3    0    0  0.12934376720E+02 -0.75370492132E+01  0.80374362032E+01  0.16991338763E+02  0.51100000000E-03 0.  1.
        -11    1    3    3    0    0 -0.10056396542E+02 -0.25503950724E+02 -0.99890237468E+01  0.29178128961E+02  0.51100000000E-03 0. -1.
         12    1    3    3    0    0  0.70929701463E+01  0.51237899291E+01 -0.97927771559E+01  0.13132476277E+02  0.00000000000E+00 0. -1.
</event>
<event>
 7    1  0.6180395E-013  0.5930195E+02  0.7816164E-02  0.1266605E+00
        -11   -1    0    0    0    0  0.00000000000E+00  0.00000000000E+00  0.45593999997E+02  0.45594000000E+02  0.51100000000E-03 0. -1.
         11   -1    0    0    0    0 -0.00000000000E+00 -0.00000000000E+00 -0.45593999997E+02  0.45594000000E+02  0.51100000000E-03 0.  1.
    9900012    2    1    2    0    0  0.89290694852E+01  0.20374397353E+02  0.22844606990E+02  0.59301946341E+02  0.50000004219E+02 0.  0.
        -12    1    1    2    0    0 -0.89290694852E+01 -0.20374397353E+02 -0.22844606990E+02  0.31886053659E+02  0.00000000000E+00 0.  1.
         11    1    3    3    0    0  0.93063969945E+01  0.28220150615E+02  0.23558328801E+02  0.37920717055E+02  0.51100000000E-03 0. -1.
        -11    1    3    3    0    0 -0.77755069589E+01 -0.56682604753E-01 -0.55972324902E+01  0.95807480499E+01  0.51100000000E-03 0.  1.
         12    1    3    3    0    0  0.73981794496E+01 -0.77890706569E+01  0.48835106791E+01  0.11800481237E+02  0.00000000000E+00 0. -1.
</event>
<event>
 7    1  0.6180395E-013  0.5930195E+02  0.7816164E-02  0.1266605E+00
        -11   -1    0    0    0    0  0.00000000000E+00  0.00000000000E+00  0.45593999997E+02  0.45594000000E+02  0.51100000000E-03 0.  1.
         11   -1    0    0    0    0 -0.00000000000E+00 -0.00000000000E+00 -0.45593999997E+02  0.45594000000E+02  0.51100000000E-03 0. -1.
    9900012    2    1    2    0    0 -0.63511900832E+01 -0.10266035889E+02 -0.29512555601E+02  0.59301952166E+02  0.50000014843E+02 0.  0.
        -12    1    1    2    0    0  0.63511900832E+01  0.10266035889E+02  0.29512555601E+02  0.31886047834E+02  0.00000000000E+00 0.  1.
         11    1    3    3    0    0 -0.11908916078E+02 -0.13319455155E+02 -0.35904570598E+02  0.40104468054E+02  0.51100000000E-03 0. -1.
        -11    1    3    3    0    0 -0.35069087527E+01 -0.67757054130E+00  0.84566206979E+01  0.91799752030E+01  0.51100000000E-03 0.  1.
        -12    1    3    3    0    0  0.90646347478E+01  0.37309898077E+01 -0.20646057011E+01  0.10017508910E+02  0.00000000000E+00 0.  1.
</event>
<event>
 7    1  0.6180395E-013  0.5930198E+02  0.7816164E-02  0.1266605E+00
        -11   -1    0    0    0    0  0.00000000000E+00  0.00000000000E+00  0.45593999997E+02  0.45594000000E+02  0.51100000000E-03 0.  1.
         11   -1    0    0    0    0 -0.00000000000E+00 -0.00000000000E+00 -0.45593999997E+02  0.45594000000E+02  0.51100000000E-03 0. -1.
    9900012    2    1    2    0    0 -0.78810222434E+01 -0.11755875687E+02 -0.28572835424E+02  0.59301983489E+02  0.50000071968E+02 0.  0.
        -12    1    1    2    0    0  0.78810222434E+01  0.11755875687E+02  0.28572835424E+02  0.31886016511E+02  0.00000000000E+00 0.  1.
         11    1    3    3    0    0 -0.13240445590E+02 -0.19470696690E+02 -0.26874851085E+02  0.35730589837E+02  0.51100000000E-03 0. -1.
        -11    1    3    3    0    0 -0.50318175080E+01  0.89609378385E+01  0.47044805380E+01  0.11302642690E+02  0.51100000000E-03 0.  1.
         12    1    3    3    0    0  0.10391240854E+02 -0.12461168348E+01 -0.64024648778E+01  0.12268750962E+02  0.00000000000E+00 0. -1.
</event>
<event>
 7    1  0.6180395E-013  0.5930194E+02  0.7816164E-02  0.1266605E+00
        -11   -1    0    0    0    0  0.00000000000E+00  0.00000000000E+00  0.45593999997E+02  0.45594000000E+02  0.51100000000E-03 0.  1.
         11   -1    0    0    0    0 -0.00000000000E+00 -0.00000000000E+00 -0.45593999997E+02  0.45594000000E+02  0.51100000000E-03 0. -1.
    9900012    2    1    2    0    0  0.49704691547E+01 -0.15225383243E+02 -0.27571777917E+02  0.59301940412E+02  0.49999993406E+02 0.  0.
        -12    1    1    2    0    0 -0.49704691547E+01  0.15225383243E+02  0.27571777917E+02  0.31886059588E+02  0.00000000000E+00 0.  1.
         11    1    3    3    0    0  0.76740611479E+01 -0.25214568161E+02 -0.15664973324E+02  0.30660349827E+02  0.51100000000E-03 0. -1.
        -11    1    3    3    0    0 -0.17828069615E+01  0.15175111398E+02  0.36860287994E+00  0.15283922106E+02  0.51100000000E-03 0.  1.
        -12    1    3    3    0    0 -0.92078503165E+00 -0.51859264805E+01 -0.12275407474E+02  0.13357668478E+02  0.00000000000E+00 0.  1.
</event>
<event>
 7    1  0.6180395E-013  0.5930198E+02  0.7816164E-02  0.1266605E+00
        -11   -1    0    0    0    0  0.00000000000E+00  0.00000000000E+00  0.45593999997E+02  0.45594000000E+02  0.51100000000E-03 0.  1.
         11   -1    0    0    0    0 -0.00000000000E+00 -0.00000000000E+00 -0.45593999997E+02  0.45594000000E+02  0.51100000000E-03 0. -1.
    9900012    2    1    2    0    0 -0.51972770219E+01  0.23282010833E+02 -0.21157841686E+02  0.59301984543E+02  0.50000073891E+02 0.  0.
        -12    1    1    2    0    0  0.51972770219E+01 -0.23282010833E+02  0.21157841686E+02  0.31886015457E+02  0.00000000000E+00 0.  1.
         11    1    3    3    0    0  0.10167788717E+02  0.15624519857E+02 -0.17720934049E+02  0.25720440354E+02  0.51100000000E-03 0. -1.
        -11    1    3    3    0    0 -0.11050014771E+02  0.11295616089E+02  0.10210212430E+02  0.18813351839E+02  0.51100000000E-03 0.  1.
        -12    1    3    3    0    0 -0.43150509678E+01 -0.36381251132E+01 -0.13647120067E+02  0.14768192351E+02  0.00000000000E+00 0.  1.
</event>
<event>
 7    1  0.6180395E-013  0.5930196E+02  0.7816164E-02  0.1266605E+00
        -11   -1    0    0    0    0  0.00000000000E+00  0.00000000000E+00  0.45593999997E+02  0.45594000000E+02  0.51100000000E-03 0. -1.
         11   -1    0    0    0    0 -0.00000000000E+00 -0.00000000000E+00 -0.45593999997E+02  0.45594000000E+02  0.51100000000E-03 0.  1.
    9900012    2    1    2    0    0  0.32768765111E+01  0.83485774317E+01  0.30598742020E+02  0.59301957944E+02  0.50000025379E+02 0.  0.
        -12    1    1    2    0    0 -0.32768765111E+01 -0.83485774317E+01 -0.30598742020E+02  0.31886042056E+02  0.00000000000E+00 0.  1.
         11    1    3    3    0    0 -0.10416841992E+02 -0.68988869713E+01  0.18391544651E+01  0.12628845075E+02  0.51100000000E-03 0. -1.
        -11    1    3    3    0    0  0.11410380219E+02  0.24535053383E+02  0.19428465305E+02  0.33311122551E+02  0.51100000000E-03 0.  1.
         12    1    3    3    0    0  0.22833382845E+01 -0.92875889801E+01  0.93311222500E+01  0.13361990317E+02  0.00000000000E+00 0. -1.
</event>
<event>
 7    1  0.6180395E-013  0.5930192E+02  0.7816164E-02  0.1266605E+00
        -11   -1    0    0    0    0  0.00000000000E+00  0.00000000000E+00  0.45593999997E+02  0.45594000000E+02  0.51100000000E-03 0.  1.
         11   -1    0    0    0    0 -0.00000000000E+00 -0.00000000000E+00 -0.45593999997E+02  0.45594000000E+02  0.51100000000E-03 0. -1.
    9900012    2    1    2    0    0  0.13989331347E+02 -0.12567167977E+02 -0.25750476665E+02  0.59301919166E+02  0.49999954659E+02 0.  0.
        -12    1    1    2    0    0 -0.13989331347E+02  0.12567167977E+02  0.25750476665E+02  0.31886080834E+02  0.00000000000E+00 0.  1.
         11    1    3    3    0    0  0.13599029750E+02 -0.13571070981E+02 -0.36571641322E+02  0.41310925032E+02  0.51100000000E-03 0. -1.
        -11    1    3    3    0    0 -0.56976958749E+01 -0.16204816904E+00  0.21228830099E+00  0.57039516544E+01  0.51100000000E-03 0.  1.
         12    1    3    3    0    0  0.60879974719E+01  0.11659511736E+01  0.10608876357E+02  0.12287042480E+02  0.00000000000E+00 0. -1.
</event>
<event>
 7    1  0.6180395E-013  0.5930194E+02  0.7816164E-02  0.1266605E+00
        -11   -1    0    0    0    0  0.00000000000E+00  0.00000000000E+00  0.45593999997E+02  0.45594000000E+02  0.51100000000E-03 0. -1.
         11   -1    0    0    0    0 -0.00000000000E+00 -0.00000000000E+00 -0.45593999997E+02  0.45594000000E+02  0.51100000000E-03 0.  1.
    9900012    2    1    2    0    0  0.26309391310E+02  0.22406890501E+00  0.18013518157E+02  0.59301935420E+02  0.49999984302E+02 0.  0.
        -12    1    1    2    0    0 -0.26309391310E+02 -0.22406890501E+00 -0.18013518157E+02  0.31886064580E+02  0.00000000000E+00 0.  1.
         11    1    3    3    0    0  0.19966407764E+01  0.70577409071E+01  0.14767292869E+02  0.16488517824E+02  0.51100000000E-03 0. -1.
        -11    1    3    3    0    0  0.11606012658E+02  0.12468519356E+02 -0.58031281843E+01  0.17995549498E+02  0.51100000000E-03 0.  1.
        -12    1    3    3    0    0  0.12706737876E+02 -0.19302191358E+02  0.90493534725E+01  0.24817868098E+02  0.00000000000E+00 0.  1.
</event>
<event>
 7    1  0.6180395E-013  0.5930197E+02  0.7816164E-02  0.1266605E+00
        -11   -1    0    0    0    0  0.00000000000E+00  0.00000000000E+00  0.45593999997E+02  0.45594000000E+02  0.51100000000E-03 0.  1.
         11   -1    0    0    0    0 -0.00000000000E+00 -0.00000000000E+00 -0.45593999997E+02  0.45594000000E+02  0.51100000000E-03 0. -1.
    9900012    2    1    2    0    0  0.17108010476E+02 -0.24985402211E+02 -0.99882318991E+01  0.59301966653E+02  0.50000041264E+02 0.  0.
        -12    1    1    2    0    0 -0.17108010476E+02  0.24985402211E+02  0.99882318991E+01  0.31886033347E+02  0.00000000000E+00 0.  1.
         11    1    3    3    0    0 -0.42070813568E+01  0.37096990645E+00 -0.17084473439E+02  0.17598760899E+02  0.51100000000E-03 0. -1.
        -11    1    3    3    0    0  0.25662288600E+01 -0.17096973297E+02  0.11478775274E+02  0.20752212136E+02  0.51100000000E-03 0.  1.
         12    1    3    3    0    0  0.18748862973E+02 -0.82593988205E+01 -0.43825337340E+01  0.20950993618E+02  0.00000000000E+00 0. -1.
</event>
<event>
 7    1  0.6180395E-013  0.5930193E+02  0.7816164E-02  0.1266605E+00
        -11   -1    0    0    0    0  0.00000000000E+00  0.00000000000E+00  0.45593999997E+02  0.45594000000E+02  0.51100000000E-03 0.  1.
         11   -1    0    0    0    0 -0.00000000000E+00 -0.00000000000E+00 -0.45593999997E+02  0.45594000000E+02  0.51100000000E-03 0. -1.
    9900012    2    1    2    0    0  0.11558442414E+02 -0.21930919814E+01 -0.29636363713E+02  0.59301932547E+02  0.49999979062E+02 0.  0.
        -12    1    1    2    0    0 -0.11558442414E+02  0.21930919814E+01  0.29636363713E+02  0.31886067453E+02  0.00000000000E+00 0.  1.
         11    1    3    3    0    0  0.57283868990E+01 -0.12578717495E+02 -0.20896047449E+02  0.25053609512E+02  0.51100000000E-03 0. -1.
        -11    1    3    3    0    0  0.78955266451E+01  0.15833601382E+02 -0.16736421753E+02  0.24354672797E+02  0.51100000000E-03 0.  1.
        -12    1    3    3    0    0 -0.20654711306E+01 -0.54479758681E+01  0.79961054886E+01  0.98936502382E+01  0.00000000000E+00 0.  1.
</event>
<event>
 7    1  0.6180395E-013  0.5930193E+02  0.7816164E-02  0.1266605E+00
        -11   -1    0    0    0    0  0.00000000000E+00  0.00000000000E+00  0.45593999997E+02  0.45594000000E+02  0.51100000000E-03 0.  1.
         11   -1    0    0    0    0 -0.00000000000E+00 -0.00000000000E+00 -0.45593999997E+02  0.45594000000E+02  0.51100000000E-03 0. -1.
    9900012    2    1    2    0    0 -0.18505681857E+02 -0.19413116646E+02 -0.17245055137E+02  0.59301932736E+02  0.49999979406E+02 0.  0.
        -12    1    1    2    0    0  0.18505681857E+02  0.19413116646E+02  0.17245055137E+02  0.31886067264E+02  0.00000000000E+00 0.  1.
         11    1    3    3    0    0 -0.25394021450E+02  0.30334376739E+01  0.17042788791E+01  0.25631282377E+02  0.51100000000E-03 0. -1.
        -11    1    3    3    0    0  0.74219351583E+01 -0.11121715295E+02 -0.23602363095E+01  0.13577495656E+02  0.51100000000E-03 0.  1.
        -12    1    3    3    0    0 -0.53359556484E+00 -0.11324839025E+02 -0.16589097707E+02  0.20093154703E+02  0.00000000000E+00 0.  1.
</event>
<event>
 7    1  0.6180395E-013  0.5930194E+02  0.7816164E-02  0.1266605E+00
        -11   -1    0    0    0    0  0.00000000000E+00  0.00000000000E+00  0.45593999997E+02  0.45594000000E+02  0.51100000000E-03 0.  1.
         11   -1    0    0    0    0 -0.00000000000E+00 -0.00000000000E+00 -0.45593999997E+02  0.45594000000E+02  0.51100000000E-03 0. -1.
    9900012    2    1    2    0    0  0.16012344093E+02  0.70195575685E+01 -0.26665548090E+02  0.59301940244E+02  0.49999993100E+02 0.  0.
        -12    1    1    2    0    0 -0.16012344093E+02 -0.70195575685E+01  0.26665548090E+02  0.31886059756E+02  0.00000000000E+00 0.  1.
         11    1    3    3    0    0  0.25799416513E+02  0.32179245263E+01 -0.26898808281E+02  0.37410036325E+02  0.51100000000E-03 0. -1.
        -11    1    3    3    0    0 -0.14491431998E+02  0.10726412760E+01 -0.39180099421E+01  0.15050015376E+02  0.51100000000E-03 0.  1.
        -12    1    3    3    0    0  0.47043595785E+01  0.27289917662E+01  0.41512701334E+01  0.68418885422E+01  0.00000000000E+00 0.  1.
</event>
<event>
 7    1  0.6180395E-013  0.5930195E+02  0.7816164E-02  0.1266605E+00
        -11   -1    0    0    0    0  0.00000000000E+00  0.00000000000E+00  0.45593999997E+02  0.45594000000E+02  0.51100000000E-03 0.  1.
         11   -1    0    0    0    0 -0.00000000000E+00 -0.00000000000E+00 -0.45593999997E+02  0.45594000000E+02  0.51100000000E-03 0. -1.
    9900012    2    1    2    0    0  0.81306390564E+01 -0.26040834429E+02 -0.16507208986E+02  0.59301948226E+02  0.50000007657E+02 0.  0.
        -12    1    1    2    0    0 -0.81306390564E+01  0.26040834429E+02  0.16507208986E+02  0.31886051774E+02  0.00000000000E+00 0.  1.
         11    1    3    3    0    0  0.10033930532E+02 -0.37841068488E+02 -0.22241215385E+02  0.45025524853E+02  0.51100000000E-03 0. -1.
        -11    1    3    3    0    0 -0.21168079783E+01  0.28091084200E+01  0.35999275706E+01  0.50330353573E+01  0.51100000000E-03 0.  1.
         12    1    3    3    0    0  0.21351650266E+00  0.89911256390E+01  0.21340788287E+01  0.92433880153E+01  0.00000000000E+00 0. -1.
</event>
<event>
 7    1  0.6180395E-013  0.5930195E+02  0.7816164E-02  0.1266605E+00
        -11   -1    0    0    0    0  0.00000000000E+00  0.00000000000E+00  0.45593999997E+02  0.45594000000E+02  0.51100000000E-03 0.  1.
         11   -1    0    0    0    0 -0.00000000000E+00 -0.00000000000E+00 -0.45593999997E+02  0.45594000000E+02  0.51100000000E-03 0. -1.
    9900012    2    1    2    0    0  0.21688915726E+02 -0.55861608445E+01 -0.22695946106E+02  0.59301949320E+02  0.50000009651E+02 0.  0.
        -12    1    1    2    0    0 -0.21688915726E+02  0.55861608445E+01  0.22695946106E+02  0.31886050680E+02  0.00000000000E+00 0.  1.
         11    1    3    3    0    0  0.38791768145E+01 -0.11790671438E+02 -0.25108545075E+01  0.12663819974E+02  0.51100000000E-03 0. -1.
        -11    1    3    3    0    0  0.20459670203E+02  0.38540197349E+01 -0.29822279476E+02  0.36370591504E+02  0.51100000000E-03 0.  1.
        -12    1    3    3    0    0 -0.26499312917E+01  0.23504908585E+01  0.96371878782E+01  0.10267537841E+02  0.00000000000E+00 0.  1.
</event>
<event>
 7    1  0.6180395E-013  0.5930193E+02  0.7816164E-02  0.1266605E+00
        -11   -1    0    0    0    0  0.00000000000E+00  0.00000000000E+00  0.45593999997E+02  0.45594000000E+02  0.51100000000E-03 0. -1.
         11   -1    0    0    0    0 -0.00000000000E+00 -0.00000000000E+00 -0.45593999997E+02  0.45594000000E+02  0.51100000000E-03 0.  1.
    9900012    2    1    2    0    0  0.12929754203E+02 -0.25719050904E+02 -0.13713981101E+02  0.59301930929E+02  0.49999976111E+02 0.  0.
        -12    1    1    2    0    0 -0.12929754203E+02  0.25719050904E+02  0.13713981101E+02  0.31886069071E+02  0.00000000000E+00 0.  1.
         11    1    3    3    0    0 -0.97636351543E+01 -0.24781254517E+02  0.75643910885E+01  0.27688610649E+02  0.51100000000E-03 0. -1.
        -11    1    3    3    0    0  0.47950103368E+01 -0.16970456374E+01 -0.72670168666E+01  0.88702661981E+01  0.51100000000E-03 0.  1.
         12    1    3    3    0    0  0.17898379020E+02  0.75924924971E+00 -0.14011355323E+02  0.22743054082E+02  0.00000000000E+00 0. -1.
</event>
<event>
 7    1  0.6180395E-013  0.5930197E+02  0.7816164E-02  0.1266605E+00
        -11   -1    0    0    0    0  0.00000000000E+00  0.00000000000E+00  0.45593999997E+02  0.45594000000E+02  0.51100000000E-03 0.  1.
         11   -1    0    0    0    0 -0.00000000000E+00 -0.00000000000E+00 -0.45593999997E+02  0.45594000000E+02  0.51100000000E-03 0. -1.
    9900012    2    1    2    0    0 -0.23567612465E+02  0.14577327145E+02 -0.15773025193E+02  0.59301966259E+02  0.50000040544E+02 0.  0.
        -12    1    1    2    0    0  0.23567612465E+02 -0.14577327145E+02  0.15773025193E+02  0.31886033741E+02  0.00000000000E+00 0.  1.
         11    1    3    3    0    0 -0.31042194693E+02 -0.61186698665E+01 -0.14266014174E+02  0.34706989685E+02  0.51100000000E-03 0. -1.
        -11    1    3    3    0    0  0.48225158294E+01  0.48520908433E+01  0.36103585704E+01  0.77352526620E+01  0.51100000000E-03 0.  1.
         12    1    3    3    0    0  0.26520663987E+01  0.15843906169E+02 -0.51173695896E+01  0.16859723912E+02  0.00000000000E+00 0. -1.
</event>
<event>
 7    1  0.6180395E-013  0.5930191E+02  0.7816164E-02  0.1266605E+00
        -11   -1    0    0    0    0  0.00000000000E+00  0.00000000000E+00  0.45593999997E+02  0.45594000000E+02  0.51100000000E-03 0.  1.
         11   -1    0    0    0    0 -0.00000000000E+00 -0.00000000000E+00 -0.45593999997E+02  0.45594000000E+02  0.51100000000E-03 0. -1.
    9900012    2    1    2    0    0 -0.11315048847E+02 -0.14842186459E+02 -0.25853464210E+02  0.59301914619E+02  0.49999946365E+02 0.  0.
        -12    1    1    2    0    0  0.11315048847E+02  0.14842186459E+02  0.25853464210E+02  0.31886085381E+02  0.00000000000E+00 0.  1.
         11    1    3    3    0    0 -0.23643959812E+02 -0.17777820994E+02 -0.44028229124E+00  0.29585158502E+02  0.51100000000E-03 0.  1.
        -11    1    3    3    0    0  0.11816973765E+02  0.37888659621E+00 -0.15665316567E+02  0.19626170473E+02  0.51100000000E-03 0. -1.
        -12    1    3    3    0    0  0.51193719922E+00  0.25567479386E+01 -0.97478653514E+01  0.10090585643E+02  0.00000000000E+00 0.  1.
</event>
<event>
 7    1  0.6180395E-013  0.5930193E+02  0.7816164E-02  0.1266605E+00
        -11   -1    0    0    0    0  0.00000000000E+00  0.00000000000E+00  0.45593999997E+02  0.45594000000E+02  0.51100000000E-03 0.  1.
         11   -1    0    0    0    0 -0.00000000000E+00 -0.00000000000E+00 -0.45593999997E+02  0.45594000000E+02  0.51100000000E-03 0. -1.
    9900012    2    1    2    0    0  0.13753865910E+02 -0.20021827331E+02 -0.20656203687E+02  0.59301934895E+02  0.49999983343E+02 0.  0.
        -12    1    1    2    0    0 -0.13753865910E+02  0.20021827331E+02  0.20656203687E+02  0.31886065105E+02  0.00000000000E+00 0.  1.
         11    1    3    3    0    0 -0.78363420721E+01  0.39540379797E+01 -0.18151263915E+02  0.20162119318E+02  0.51100000000E-03 0.  1.
        -11    1    3    3    0    0  0.21759400043E+02 -0.83942919950E+01 -0.32049491505E+01  0.23541608434E+02  0.51100000000E-03 0. -1.
         12    1    3    3    0    0 -0.16919206092E+00 -0.15581573315E+02  0.70000937860E+00  0.15598207143E+02  0.00000000000E+00 0. -1.
</event>
<event>
 7    1  0.6180395E-013  0.5930199E+02  0.7816164E-02  0.1266605E+00
        -11   -1    0    0    0    0  0.00000000000E+00  0.00000000000E+00  0.45593999997E+02  0.45594000000E+02  0.51100000000E-03 0. -1.
         11   -1    0    0    0    0 -0.00000000000E+00 -0.00000000000E+00 -0.45593999997E+02  0.45594000000E+02  0.51100000000E-03 0.  1.
    9900012    2    1    2    0    0 -0.35016202181E+01 -0.13503037220E+02  0.28672712936E+02  0.59301986994E+02  0.50000078360E+02 0.  0.
        -12    1    1    2    0    0  0.35016202181E+01  0.13503037220E+02 -0.28672712936E+02  0.31886013006E+02  0.00000000000E+00 0.  1.
         11    1    3    3    0    0  0.14158104592E+02 -0.54569229091E+01 -0.81942371089E+00  0.15195439735E+02  0.51100000000E-03 0. -1.
        -11    1    3    3    0    0 -0.11301606540E+02 -0.16047168029E+02  0.27351332830E+02  0.33665016263E+02  0.51100000000E-03 0.  1.
         12    1    3    3    0    0 -0.63581182700E+01  0.80010537190E+01  0.21408038168E+01  0.10441530996E+02  0.00000000000E+00 0. -1.
</event>
<event>
 7    1  0.6180395E-013  0.5930192E+02  0.7816164E-02  0.1266605E+00
        -11   -1    0    0    0    0  0.00000000000E+00  0.00000000000E+00  0.45593999997E+02  0.45594000000E+02  0.51100000000E-03 0.  1.
         11   -1    0    0    0    0 -0.00000000000E+00 -0.00000000000E+00 -0.45593999997E+02  0.45594000000E+02  0.51100000000E-03 0. -1.
    9900012    2    1    2    0    0 -0.50794220045E+01 -0.14693245472E+02 -0.27839362141E+02  0.59301920360E+02  0.49999956835E+02 0.  0.
        -12    1    1    2    0    0  0.50794220045E+01  0.14693245472E+02  0.27839362141E+02  0.31886079640E+02  0.00000000000E+00 0.  1.
         11    1    3    3    0    0  0.90908710424E+01  0.10863473624E+02 -0.15159675345E+02  0.20747885490E+02  0.51100000000E-03 0. -1.
        -11    1    3    3    0    0 -0.16088002668E+02 -0.10148861791E+02 -0.86134249537E+00  0.19041143260E+02  0.51100000000E-03 0.  1.
        -12    1    3    3    0    0  0.19177096215E+01 -0.15407857305E+02 -0.11818344301E+02  0.19512891609E+02  0.00000000000E+00 0.  1.
</event>
<event>
 7    1  0.6180395E-013  0.5930193E+02  0.7816164E-02  0.1266605E+00
        -11   -1    0    0    0    0  0.00000000000E+00  0.00000000000E+00  0.45593999997E+02  0.45594000000E+02  0.51100000000E-03 0.  1.
         11   -1    0    0    0    0 -0.00000000000E+00 -0.00000000000E+00 -0.45593999997E+02  0.45594000000E+02  0.51100000000E-03 0. -1.
    9900012    2    1    2    0    0  0.56529389684E+01  0.12821260703E+02 -0.28642290381E+02  0.59301933400E+02  0.49999980617E+02 0.  0.
        -12    1    1    2    0    0 -0.56529389684E+01 -0.12821260703E+02  0.28642290381E+02  0.31886066600E+02  0.00000000000E+00 0.  1.
         11    1    3    3    0    0 -0.11778806407E+02  0.20349778371E+02 -0.88168068338E+01  0.25111548004E+02  0.51100000000E-03 0. -1.
        -11    1    3    3    0    0  0.20230696454E+02 -0.85043428253E+01 -0.10353071502E+02  0.24265016293E+02  0.51100000000E-03 0.  1.
        -12    1    3    3    0    0 -0.27989510789E+01  0.97582515760E+00 -0.94724120450E+01  0.99253691030E+01  0.00000000000E+00 0.  1.
</event>
<event>
 7    1  0.6180395E-013  0.5930187E+02  0.7816164E-02  0.1266605E+00
        -11   -1    0    0    0    0  0.00000000000E+00  0.00000000000E+00  0.45593999997E+02  0.45594000000E+02  0.51100000000E-03 0.  1.
         11   -1    0    0    0    0 -0.00000000000E+00 -0.00000000000E+00 -0.45593999997E+02  0.45594000000E+02  0.51100000000E-03 0. -1.
    9900012    2    1    2    0    0 -0.22648931013E+01  0.31805574396E+02  0.31628562040E-01  0.59301869727E+02  0.49999864494E+02 0.  0.
        -12    1    1    2    0    0  0.22648931013E+01 -0.31805574396E+02 -0.31628562040E-01  0.31886130273E+02  0.00000000000E+00 0.  1.
         11    1    3    3    0    0 -0.12081020464E+02 -0.19261310276E+01  0.24116048711E-01  0.12233626528E+02  0.51100000000E-03 0. -1.
        -11    1    3    3    0    0  0.11007086640E+02  0.27794392920E+02  0.13103288861E+02  0.32640165645E+02  0.51100000000E-03 0.  1.
        -12    1    3    3    0    0 -0.11909592771E+01  0.59373125030E+01 -0.13095776348E+02  0.14428077554E+02  0.00000000000E+00 0.  1.
</event>
<event>
 7    1  0.6180395E-013  0.5930193E+02  0.7816164E-02  0.1266605E+00
        -11   -1    0    0    0    0  0.00000000000E+00  0.00000000000E+00  0.45593999997E+02  0.45594000000E+02  0.51100000000E-03 0.  1.
         11   -1    0    0    0    0 -0.00000000000E+00 -0.00000000000E+00 -0.45593999997E+02  0.45594000000E+02  0.51100000000E-03 0. -1.
    9900012    2    1    2    0    0 -0.27019049076E+02  0.96305522176E+01 -0.13926413297E+02  0.59301928804E+02  0.49999972235E+02 0.  0.
        -12    1    1    2    0    0  0.27019049076E+02 -0.96305522176E+01  0.13926413297E+02  0.31886071196E+02  0.00000000000E+00 0.  1.
         11    1    3    3    0    0 -0.21636447588E+02  0.41165856430E+01  0.66799266723E+01  0.23015289748E+02  0.51100000000E-03 0. -1.
        -11    1    3    3    0    0 -0.38592720799E+01 -0.25678581871E+01 -0.26027123774E+02  0.26436698903E+02  0.51100000000E-03 0.  1.
        -12    1    3    3    0    0 -0.15233294082E+01  0.80818247617E+01  0.54207838043E+01  0.98499401530E+01  0.00000000000E+00 0.  1.
</event>
<event>
 7    1  0.6180395E-013  0.5930195E+02  0.7816164E-02  0.1266605E+00
        -11   -1    0    0    0    0  0.00000000000E+00  0.00000000000E+00  0.45593999997E+02  0.45594000000E+02  0.51100000000E-03 0.  1.
         11   -1    0    0    0    0 -0.00000000000E+00 -0.00000000000E+00 -0.45593999997E+02  0.45594000000E+02  0.51100000000E-03 0. -1.
    9900012    2    1    2    0    0  0.46203652224E+00  0.82753496738E+01 -0.30790015152E+02  0.59301954102E+02  0.50000018372E+02 0.  0.
        -12    1    1    2    0    0 -0.46203652224E+00 -0.82753496738E+01  0.30790015152E+02  0.31886045898E+02  0.00000000000E+00 0.  1.
         11    1    3    3    0    0  0.66982904567E+01 -0.90250554781E+01 -0.10275694698E+02  0.15228546326E+02  0.51100000000E-03 0. -1.
        -11    1    3    3    0    0  0.68089603271E+01  0.23424359020E+02 -0.10697848311E+02  0.26636563122E+02  0.51100000000E-03 0.  1.
        -12    1    3    3    0    0 -0.13045214262E+02 -0.61239538681E+01 -0.98164721435E+01  0.17436844653E+02  0.00000000000E+00 0.  1.
</event>
<event>
 7    1  0.6180395E-013  0.5930194E+02  0.7816164E-02  0.1266605E+00
        -11   -1    0    0    0    0  0.00000000000E+00  0.00000000000E+00  0.45593999997E+02  0.45594000000E+02  0.51100000000E-03 0.  1.
         11   -1    0    0    0    0 -0.00000000000E+00 -0.00000000000E+00 -0.45593999997E+02  0.45594000000E+02  0.51100000000E-03 0. -1.
    9900012    2    1    2    0    0  0.14341072793E+02 -0.23624835559E+02 -0.15903503379E+02  0.59301942800E+02  0.49999997761E+02 0.  0.
        -12    1    1    2    0    0 -0.14341072793E+02  0.23624835559E+02  0.15903503379E+02  0.31886057200E+02  0.00000000000E+00 0.  1.
         11    1    3    3    0    0 -0.45943890634E+01 -0.32153392016E+01 -0.20884574298E+02  0.21624344173E+02  0.51100000000E-03 0. -1.
        -11    1    3    3    0    0  0.17422406535E+02 -0.35572789430E+01  0.95055788250E+01  0.20163097778E+02  0.51100000000E-03 0.  1.
         12    1    3    3    0    0  0.15130553212E+01 -0.16852217414E+02 -0.45245079067E+01  0.17514500849E+02  0.00000000000E+00 0. -1.
</event>
<event>
 7    1  0.6180395E-013  0.5930197E+02  0.7816164E-02  0.1266605E+00
        -11   -1    0    0    0    0  0.00000000000E+00  0.00000000000E+00  0.45593999997E+02  0.45594000000E+02  0.51100000000E-03 0. -1.
         11   -1    0    0    0    0 -0.00000000000E+00 -0.00000000000E+00 -0.45593999997E+02  0.45594000000E+02  0.51100000000E-03 0.  1.
    9900012    2    1    2    0    0 -0.84123269389E+01 -0.12726629882E+02  0.27999728874E+02  0.59301965914E+02  0.50000039916E+02 0.  0.
        -12    1    1    2    0    0  0.84123269389E+01  0.12726629882E+02 -0.27999728874E+02  0.31886034086E+02  0.00000000000E+00 0.  1.
         11    1    3    3    0    0 -0.23338579431E+02 -0.20633420287E+01  0.15713964024E+02  0.28211262570E+02  0.51100000000E-03 0. -1.
        -11    1    3    3    0    0  0.13863900672E+02 -0.58850302482E+01 -0.27216426291E+01  0.15305184145E+02  0.51100000000E-03 0.  1.
        -12    1    3    3    0    0  0.10623518204E+01 -0.47782576049E+01  0.15007407480E+02  0.15785519199E+02  0.00000000000E+00 0.  1.
</event>
<event>
 7    1  0.6180395E-013  0.5930195E+02  0.7816164E-02  0.1266605E+00
        -11   -1    0    0    0    0  0.00000000000E+00  0.00000000000E+00  0.45593999997E+02  0.45594000000E+02  0.51100000000E-03 0.  1.
         11   -1    0    0    0    0 -0.00000000000E+00 -0.00000000000E+00 -0.45593999997E+02  0.45594000000E+02  0.51100000000E-03 0. -1.
    9900012    2    1    2    0    0  0.12600700306E+02 -0.27312628740E+02  0.10581262830E+02  0.59301945682E+02  0.50000003018E+02 0.  0.
        -12    1    1    2    0    0 -0.12600700306E+02  0.27312628740E+02 -0.10581262830E+02  0.31886054318E+02  0.00000000000E+00 0.  1.
         11    1    3    3    0    0  0.27320119392E+02 -0.15560947409E+02  0.69352474834E+01  0.32196733776E+02  0.51100000000E-03 0. -1.
        -11    1    3    3    0    0 -0.75968630189E+01  0.34796785346E+00  0.92613406151E+01  0.11983565396E+02  0.51100000000E-03 0.  1.
        -12    1    3    3    0    0 -0.71225560680E+01 -0.12099649184E+02 -0.56153252688E+01  0.15121646511E+02  0.00000000000E+00 0.  1.
</event>
<event>
 7    1  0.6180395E-013  0.5930195E+02  0.7816164E-02  0.1266605E+00
        -11   -1    0    0    0    0  0.00000000000E+00  0.00000000000E+00  0.45593999997E+02  0.45594000000E+02  0.51100000000E-03 0. -1.
         11   -1    0    0    0    0 -0.00000000000E+00 -0.00000000000E+00 -0.45593999997E+02  0.45594000000E+02  0.51100000000E-03 0.  1.
    9900012    2    1    2    0    0 -0.25732056949E+02 -0.21731523627E+01  0.18704513926E+02  0.59301949959E+02  0.50000010817E+02 0.  0.
        -12    1    1    2    0    0  0.25732056949E+02  0.21731523627E+01 -0.18704513926E+02  0.31886050041E+02  0.00000000000E+00 0.  1.
         11    1    3    3    0    0 -0.24586402161E+02  0.16882051874E+01  0.21151366530E+01  0.24734894608E+02  0.51100000000E-03 0. -1.
        -11    1    3    3    0    0  0.12946414078E+02  0.35729466247E+01  0.33260149325E+01  0.13836110749E+02  0.51100000000E-03 0.  1.
         12    1    3    3    0    0 -0.14092068867E+02 -0.74343041748E+01  0.13263362341E+02  0.20730944602E+02  0.00000000000E+00 0. -1.
</event>
<event>
 7    1  0.6180395E-013  0.5930201E+02  0.7816164E-02  0.1266605E+00
        -11   -1    0    0    0    0  0.00000000000E+00  0.00000000000E+00  0.45593999997E+02  0.45594000000E+02  0.51100000000E-03 0.  1.
         11   -1    0    0    0    0 -0.00000000000E+00 -0.00000000000E+00 -0.45593999997E+02  0.45594000000E+02  0.51100000000E-03 0. -1.
    9900012    2    1    2    0    0  0.15368918792E+02  0.19281632015E+02  0.20217099780E+02  0.59302013713E+02  0.50000127088E+02 0.  0.
        -12    1    1    2    0    0 -0.15368918792E+02 -0.19281632015E+02 -0.20217099780E+02  0.31885986287E+02  0.00000000000E+00 0.  1.
         11    1    3    3    0    0  0.51707305071E+01  0.15788994279E+02 -0.67352492530E+01  0.17927419700E+02  0.51100000000E-03 0. -1.
        -11    1    3    3    0    0 -0.98101234825E+01  0.55342047093E+01  0.10310035319E+02  0.15269668400E+02  0.51100000000E-03 0.  1.
         12    1    3    3    0    0  0.20008311767E+02 -0.20415669734E+01  0.16642313714E+02  0.26104925613E+02  0.00000000000E+00 0. -1.
</event>
<event>
 7    1  0.6180395E-013  0.5930191E+02  0.7816164E-02  0.1266605E+00
        -11   -1    0    0    0    0  0.00000000000E+00  0.00000000000E+00  0.45593999997E+02  0.45594000000E+02  0.51100000000E-03 0.  1.
         11   -1    0    0    0    0 -0.00000000000E+00 -0.00000000000E+00 -0.45593999997E+02  0.45594000000E+02  0.51100000000E-03 0. -1.
    9900012    2    1    2    0    0  0.30885351367E+01  0.15498210280E+02 -0.27694574085E+02  0.59301905775E+02  0.49999930236E+02 0.  0.
        -12    1    1    2    0    0 -0.30885351367E+01 -0.15498210280E+02  0.27694574085E+02  0.31886094225E+02  0.00000000000E+00 0.  1.
         11    1    3    3    0    0  0.11070621479E+02  0.85561400776E+01 -0.32347418774E+02  0.35243746886E+02  0.51100000000E-03 0. -1.
        -11    1    3    3    0    0 -0.13901172284E+01 -0.15440481104E+01  0.11255820614E+02  0.11445960354E+02  0.51100000000E-03 0.  1.
         12    1    3    3    0    0 -0.65919691138E+01  0.84861183130E+01 -0.66029759251E+01  0.12612198535E+02  0.00000000000E+00 0. -1.
</event>
<event>
 7    1  0.6180395E-013  0.5930196E+02  0.7816164E-02  0.1266605E+00
        -11   -1    0    0    0    0  0.00000000000E+00  0.00000000000E+00  0.45593999997E+02  0.45594000000E+02  0.51100000000E-03 0.  1.
         11   -1    0    0    0    0 -0.00000000000E+00 -0.00000000000E+00 -0.45593999997E+02  0.45594000000E+02  0.51100000000E-03 0. -1.
    9900012    2    1    2    0    0  0.26249904007E+02  0.17674633674E+02 -0.39076433882E+01  0.59301955832E+02  0.50000021528E+02 0.  0.
        -12    1    1    2    0    0 -0.26249904007E+02 -0.17674633674E+02  0.39076433882E+01  0.31886044168E+02  0.00000000000E+00 0.  1.
         11    1    3    3    0    0  0.15404182081E+02  0.16072938162E+02 -0.25154375238E+02  0.33591230413E+02  0.51100000000E-03 0. -1.
        -11    1    3    3    0    0  0.87270420534E+01 -0.31479178030E+01  0.13592862663E+02  0.16457112904E+02  0.51100000000E-03 0.  1.
         12    1    3    3    0    0  0.21186798719E+01  0.47496133144E+01  0.76538691873E+01  0.92536125147E+01  0.00000000000E+00 0. -1.
</event>
<event>
 7    1  0.6180395E-013  0.5930195E+02  0.7816164E-02  0.1266605E+00
        -11   -1    0    0    0    0  0.00000000000E+00  0.00000000000E+00  0.45593999997E+02  0.45594000000E+02  0.51100000000E-03 0.  1.
         11   -1    0    0    0    0 -0.00000000000E+00 -0.00000000000E+00 -0.45593999997E+02  0.45594000000E+02  0.51100000000E-03 0. -1.
    9900012    2    1    2    0    0  0.11733341876E+01  0.11997115294E+02 -0.29519699415E+02  0.59301950668E+02  0.50000012110E+02 0.  0.
        -12    1    1    2    0    0 -0.11733341876E+01 -0.11997115294E+02  0.29519699415E+02  0.31886049332E+02  0.00000000000E+00 0.  1.
         11    1    3    3    0    0 -0.88630298996E+01 -0.87227366315E+01  0.49086168418E+01  0.13369141816E+02  0.51100000000E-03 0.  1.
        -11    1    3    3    0    0  0.63009282530E+00  0.15091140682E+02 -0.30939015715E+02  0.34429089993E+02  0.51100000000E-03 0. -1.
        -12    1    3    3    0    0  0.94062712619E+01  0.56287112428E+01 -0.34893005411E+01  0.11503718858E+02  0.00000000000E+00 0.  1.
</event>
<event>
 7    1  0.6180395E-013  0.5930195E+02  0.7816164E-02  0.1266605E+00
        -11   -1    0    0    0    0  0.00000000000E+00  0.00000000000E+00  0.45593999997E+02  0.45594000000E+02  0.51100000000E-03 0.  1.
         11   -1    0    0    0    0 -0.00000000000E+00 -0.00000000000E+00 -0.45593999997E+02  0.45594000000E+02  0.51100000000E-03 0. -1.
    9900012    2    1    2    0    0 -0.17155412392E+02 -0.20166239316E+01 -0.26801964205E+02  0.59301949262E+02  0.50000009546E+02 0.  0.
        -12    1    1    2    0    0  0.17155412392E+02  0.20166239316E+01  0.26801964205E+02  0.31886050738E+02  0.00000000000E+00 0.  1.
         11    1    3    3    0    0 -0.13078775534E+02 -0.16874458458E+02 -0.90177711628E+01  0.23175890807E+02  0.51100000000E-03 0. -1.
        -11    1    3    3    0    0 -0.87437824985E+01  0.10990640864E+02  0.30979064170E+01  0.14382104971E+02  0.51100000000E-03 0.  1.
         12    1    3    3    0    0  0.46671456412E+01  0.38671936624E+01 -0.20882099459E+02  0.21743953483E+02  0.00000000000E+00 0. -1.
</event>
<event>
 7    1  0.6180395E-013  0.5930200E+02  0.7816164E-02  0.1266605E+00
        -11   -1    0    0    0    0  0.00000000000E+00  0.00000000000E+00  0.45593999997E+02  0.45594000000E+02  0.51100000000E-03 0.  1.
         11   -1    0    0    0    0 -0.00000000000E+00 -0.00000000000E+00 -0.45593999997E+02  0.45594000000E+02  0.51100000000E-03 0. -1.
    9900012    2    1    2    0    0 -0.28421533029E+02 -0.13062056849E+02  0.61900220420E+01  0.59301996147E+02  0.50000095053E+02 0.  0.
        -12    1    1    2    0    0  0.28421533029E+02  0.13062056849E+02 -0.61900220420E+01  0.31886003853E+02  0.00000000000E+00 0.  1.
         11    1    3    3    0    0  0.59421998734E+01 -0.30046720386E+01 -0.73971743667E+00  0.66996250300E+01  0.51100000000E-03 0. -1.
        -11    1    3    3    0    0 -0.32825565775E+02 -0.20772253456E+02 -0.15117006575E+01  0.38875307346E+02  0.51100000000E-03 0.  1.
        -12    1    3    3    0    0 -0.15381671271E+01  0.10714868646E+02  0.84414401362E+01  0.13727063771E+02  0.00000000000E+00 0.  1.
</event>
<event>
 7    1  0.6180395E-013  0.5930193E+02  0.7816164E-02  0.1266605E+00
        -11   -1    0    0    0    0  0.00000000000E+00  0.00000000000E+00  0.45593999997E+02  0.45594000000E+02  0.51100000000E-03 0.  1.
         11   -1    0    0    0    0 -0.00000000000E+00 -0.00000000000E+00 -0.45593999997E+02  0.45594000000E+02  0.51100000000E-03 0. -1.
    9900012    2    1    2    0    0  0.56749701891E+00  0.10145409201E+02 -0.30223671649E+02  0.59301926102E+02  0.49999967307E+02 0.  0.
        -12    1    1    2    0    0 -0.56749701891E+00 -0.10145409201E+02  0.30223671649E+02  0.31886073898E+02  0.00000000000E+00 0.  1.
         11    1    3    3    0    0 -0.15159649312E+02  0.97969034409E+01 -0.15644490138E+01  0.18117444226E+02  0.51100000000E-03 0. -1.
        -11    1    3    3    0    0  0.17058449402E+02  0.83312535583E+01 -0.11456661280E+02  0.22173307597E+02  0.51100000000E-03 0.  1.
         12    1    3    3    0    0 -0.13313030714E+01 -0.79827477984E+01 -0.17202561355E+02  0.19011174279E+02  0.00000000000E+00 0. -1.
</event>
<event>
 7    1  0.6180395E-013  0.5930199E+02  0.7816164E-02  0.1266605E+00
        -11   -1    0    0    0    0  0.00000000000E+00  0.00000000000E+00  0.45593999997E+02  0.45594000000E+02  0.51100000000E-03 0.  1.
         11   -1    0    0    0    0 -0.00000000000E+00 -0.00000000000E+00 -0.45593999997E+02  0.45594000000E+02  0.51100000000E-03 0. -1.
    9900012    2    1    2    0    0 -0.87461697467E+01 -0.14246539685E+02 -0.27152502142E+02  0.59301988164E+02  0.50000080494E+02 0.  0.
        -12    1    1    2    0    0  0.87461697467E+01  0.14246539685E+02  0.27152502142E+02  0.31886011836E+02  0.00000000000E+00 0.  1.
         11    1    3    3    0    0 -0.11464755297E+02 -0.16974873120E+02  0.90714523992E+01  0.22402637799E+02  0.51100000000E-03 0. -1.
        -11    1    3    3    0    0 -0.10788591554E+00  0.36618603744E+01 -0.25797365090E+02  0.26056187492E+02  0.51100000000E-03 0.  1.
         12    1    3    3    0    0  0.28264714662E+01 -0.93352693888E+00 -0.10426589452E+02  0.10843162873E+02  0.00000000000E+00 0. -1.
</event>
<event>
 7    1  0.6180395E-013  0.5930194E+02  0.7816164E-02  0.1266605E+00
        -11   -1    0    0    0    0  0.00000000000E+00  0.00000000000E+00  0.45593999997E+02  0.45594000000E+02  0.51100000000E-03 0. -1.
         11   -1    0    0    0    0 -0.00000000000E+00 -0.00000000000E+00 -0.45593999997E+02  0.45594000000E+02  0.51100000000E-03 0.  1.
    9900012    2    1    2    0    0 -0.96827515081E+01 -0.23215473093E+02  0.19596087989E+02  0.59301944550E+02  0.50000000952E+02 0.  0.
        -12    1    1    2    0    0  0.96827515081E+01  0.23215473093E+02 -0.19596087989E+02  0.31886055450E+02  0.00000000000E+00 0.  1.
         11    1    3    3    0    0  0.71454111838E+01 -0.14078413330E+02  0.16976745447E+02  0.23183367078E+02  0.51100000000E-03 0. -1.
        -11    1    3    3    0    0 -0.24238550871E+02 -0.98551616855E+01  0.74965660871E+01  0.27218193612E+02  0.51100000000E-03 0.  1.
        -12    1    3    3    0    0  0.74103881789E+01  0.71810192199E+00 -0.48772235447E+01  0.89003838590E+01  0.00000000000E+00 0.  1.
</event>
<event>
 7    1  0.6180395E-013  0.5930196E+02  0.7816164E-02  0.1266605E+00
        -11   -1    0    0    0    0  0.00000000000E+00  0.00000000000E+00  0.45593999997E+02  0.45594000000E+02  0.51100000000E-03 0.  1.
         11   -1    0    0    0    0 -0.00000000000E+00 -0.00000000000E+00 -0.45593999997E+02  0.45594000000E+02  0.51100000000E-03 0. -1.
    9900012    2    1    2    0    0 -0.13883762815E+02  0.14402918984E+02 -0.24829758070E+02  0.59301955545E+02  0.50000021005E+02 0.  0.
        -12    1    1    2    0    0  0.13883762815E+02 -0.14402918984E+02  0.24829758070E+02  0.31886044455E+02  0.00000000000E+00 0.  1.
         11    1    3    3    0    0  0.14510509760E+02 -0.64496644503E+01  0.40930517997E+00  0.15884602482E+02  0.51100000000E-03 0. -1.
        -11    1    3    3    0    0 -0.64122799019E+01  0.59297995824E+01 -0.55445395968E+01  0.10345132973E+02  0.51100000000E-03 0.  1.
         12    1    3    3    0    0 -0.21981992673E+02  0.14922783852E+02 -0.19694523653E+02  0.33072220090E+02  0.00000000000E+00 0. -1.
</event>
<event>
 7    1  0.6180395E-013  0.5930169E+02  0.7816164E-02  0.1266606E+00
        -11   -1    0    0    0    0  0.00000000000E+00  0.00000000000E+00  0.45593999997E+02  0.45594000000E+02  0.51100000000E-03 0.  1.
         11   -1    0    0    0    0 -0.00000000000E+00 -0.00000000000E+00 -0.45593999997E+02  0.45594000000E+02  0.51100000000E-03 0. -1.
    9900012    2    1    2    0    0  0.15067762886E+02 -0.26271784030E+02 -0.99745918086E+01  0.59301692653E+02  0.49999541550E+02 0.  0.
        -12    1    1    2    0    0 -0.15067762886E+02  0.26271784030E+02  0.99745918086E+01  0.31886307347E+02  0.00000000000E+00 0.  1.
         11    1    3    3    0    0  0.68232372580E+01 -0.25566237017E+02 -0.24966816920E+02  0.36380365436E+02  0.51100000000E-03 0. -1.
        -11    1    3    3    0    0 -0.25256687253E+00  0.40319230971E+01  0.12123182229E+02  0.12778565706E+02  0.51100000000E-03 0.  1.
         12    1    3    3    0    0  0.84970925006E+01 -0.47374701103E+01  0.28690428828E+01  0.10142761511E+02  0.00000000000E+00 0. -1.
</event>
<event>
 7    1  0.6180395E-013  0.5930195E+02  0.7816164E-02  0.1266605E+00
        -11   -1    0    0    0    0  0.00000000000E+00  0.00000000000E+00  0.45593999997E+02  0.45594000000E+02  0.51100000000E-03 0. -1.
         11   -1    0    0    0    0 -0.00000000000E+00 -0.00000000000E+00 -0.45593999997E+02  0.45594000000E+02  0.51100000000E-03 0.  1.
    9900012    2    1    2    0    0 -0.22496844578E+02 -0.34108793883E+01  0.22337817347E+02  0.59301949790E+02  0.50000010510E+02 0.  0.
        -12    1    1    2    0    0  0.22496844578E+02  0.34108793883E+01 -0.22337817347E+02  0.31886050210E+02  0.00000000000E+00 0.  1.
         11    1    3    3    0    0 -0.33399610845E+02 -0.70773657931E+01  0.16764434861E+02  0.38035107304E+02  0.51100000000E-03 0. -1.
        -11    1    3    3    0    0  0.14685509192E+02  0.14016100079E+01  0.73882965164E+01  0.16498958043E+02  0.51100000000E-03 0.  1.
         12    1    3    3    0    0 -0.37827429242E+01  0.22648763970E+01 -0.18149140307E+01  0.47678844431E+01  0.00000000000E+00 0. -1.
</event>
<event>
 7    1  0.6180395E-013  0.5930188E+02  0.7816164E-02  0.1266605E+00
        -11   -1    0    0    0    0  0.00000000000E+00  0.00000000000E+00  0.45593999997E+02  0.45594000000E+02  0.51100000000E-03 0.  1.
         11   -1    0    0    0    0 -0.00000000000E+00 -0.00000000000E+00 -0.45593999997E+02  0.45594000000E+02  0.51100000000E-03 0. -1.
    9900012    2    1    2    0    0 -0.12464893563E+02  0.28876522490E+02 -0.52437930247E+01  0.59301882520E+02  0.49999887825E+02 0.  0.
        -12    1    1    2    0    0  0.12464893563E+02 -0.28876522490E+02  0.52437930247E+01  0.31886117480E+02  0.00000000000E+00 0.  1.
         11    1    3    3    0    0 -0.76926940671E+01  0.99465269736E+01  0.16336164543E+02  0.20615072474E+02  0.51100000000E-03 0. -1.
        -11    1    3    3    0    0  0.71745916345E+01  0.11468524072E+02 -0.20498487321E+02  0.24559922480E+02  0.51100000000E-03 0.  1.
         12    1    3    3    0    0 -0.11946791131E+02  0.74614714447E+01 -0.10814702471E+01  0.14126887567E+02  0.00000000000E+00 0. -1.
</event>
<event>
 7    1  0.6180395E-013  0.5930195E+02  0.7816164E-02  0.1266605E+00
        -11   -1    0    0    0    0  0.00000000000E+00  0.00000000000E+00  0.45593999997E+02  0.45594000000E+02  0.51100000000E-03 0. -1.
         11   -1    0    0    0    0 -0.00000000000E+00 -0.00000000000E+00 -0.45593999997E+02  0.45594000000E+02  0.51100000000E-03 0.  1.
    9900012    2    1    2    0    0 -0.29077284708E+02  0.12626217475E+02  0.34365919188E+01  0.59301952617E+02  0.50000015664E+02 0.  0.
        -12    1    1    2    0    0  0.29077284708E+02 -0.12626217475E+02 -0.34365919188E+01  0.31886047383E+02  0.00000000000E+00 0.  1.
         11    1    3    3    0    0 -0.51952936007E+01  0.10868752013E+02  0.75545375480E+01  0.14219419247E+02  0.51100000000E-03 0.  1.
        -11    1    3    3    0    0 -0.33063251804E+02 -0.49869158333E+01 -0.20151729512E+01  0.33497893540E+02  0.51100000000E-03 0. -1.
        -12    1    3    3    0    0  0.91812606961E+01  0.67443812955E+01 -0.21027726781E+01  0.11584639829E+02  0.00000000000E+00 0.  1.
</event>
<event>
 7    1  0.6180395E-013  0.5930198E+02  0.7816164E-02  0.1266605E+00
        -11   -1    0    0    0    0  0.00000000000E+00  0.00000000000E+00  0.45593999997E+02  0.45594000000E+02  0.51100000000E-03 0.  1.
         11   -1    0    0    0    0 -0.00000000000E+00 -0.00000000000E+00 -0.45593999997E+02  0.45594000000E+02  0.51100000000E-03 0. -1.
    9900012    2    1    2    0    0 -0.21224571125E+02 -0.33523149217E+01 -0.23558398675E+02  0.59301975116E+02  0.50000056698E+02 0.  0.
        -12    1    1    2    0    0  0.21224571125E+02  0.33523149217E+01  0.23558398675E+02  0.31886024884E+02  0.00000000000E+00 0.  1.
         11    1    3    3    0    0  0.65441853604E+01 -0.14023407760E+01  0.46202059454E+01  0.81326025922E+01  0.51100000000E-03 0.  1.
        -11    1    3    3    0    0 -0.13353116382E+02 -0.53781329367E+01 -0.32657557964E+02  0.35689580040E+02  0.51100000000E-03 0. -1.
         12    1    3    3    0    0 -0.14415640104E+02  0.34281587911E+01  0.44789533436E+01  0.15479792484E+02  0.00000000000E+00 0. -1.
</event>
<event>
 7    1  0.6180395E-013  0.5930200E+02  0.7816164E-02  0.1266605E+00
        -11   -1    0    0    0    0  0.00000000000E+00  0.00000000000E+00  0.45593999997E+02  0.45594000000E+02  0.51100000000E-03 0.  1.
         11   -1    0    0    0    0 -0.00000000000E+00 -0.00000000000E+00 -0.45593999997E+02  0.45594000000E+02  0.51100000000E-03 0. -1.
    9900012    2    1    2    0    0  0.16770776795E+02  0.15662643810E+02 -0.22139099267E+02  0.59301998655E+02  0.50000099627E+02 0.  0.
        -12    1    1    2    0    0 -0.16770776795E+02 -0.15662643810E+02  0.22139099267E+02  0.31886001345E+02  0.00000000000E+00 0.  1.
         11    1    3    3    0    0  0.93508228667E+01  0.23239855441E+02 -0.20402254326E+02  0.32307595872E+02  0.51100000000E-03 0. -1.
        -11    1    3    3    0    0  0.57426531455E+01 -0.15182337802E+02 -0.69134083841E+01  0.17643034377E+02  0.51100000000E-03 0.  1.
        -12    1    3    3    0    0  0.16773007828E+01  0.76051261704E+01  0.51765634430E+01  0.93513684059E+01  0.00000000000E+00 0.  1.
</event>
<event>
 7    1  0.6180395E-013  0.5930193E+02  0.7816164E-02  0.1266605E+00
        -11   -1    0    0    0    0  0.00000000000E+00  0.00000000000E+00  0.45593999997E+02  0.45594000000E+02  0.51100000000E-03 0. -1.
         11   -1    0    0    0    0 -0.00000000000E+00 -0.00000000000E+00 -0.45593999997E+02  0.45594000000E+02  0.51100000000E-03 0.  1.
    9900012    2    1    2    0    0 -0.10912108843E+02 -0.24805146566E+02  0.16803342041E+02  0.59301925935E+02  0.49999967003E+02 0.  0.
        -12    1    1    2    0    0  0.10912108843E+02  0.24805146566E+02 -0.16803342041E+02  0.31886074065E+02  0.00000000000E+00 0.  1.
         11    1    3    3    0    0  0.90131985127E+01  0.27156075260E+00  0.73618061971E+01  0.11640776753E+02  0.51100000000E-03 0. -1.
        -11    1    3    3    0    0 -0.23920037191E+02 -0.27991233984E+02 -0.20605449654E+00  0.36820100731E+02  0.51100000000E-03 0.  1.
        -12    1    3    3    0    0  0.39947298348E+01  0.29145266656E+01  0.96475903401E+01  0.10841048451E+02  0.00000000000E+00 0.  1.
</event>
<event>
 7    1  0.6180395E-013  0.5930200E+02  0.7816164E-02  0.1266605E+00
        -11   -1    0    0    0    0  0.00000000000E+00  0.00000000000E+00  0.45593999997E+02  0.45594000000E+02  0.51100000000E-03 0.  1.
         11   -1    0    0    0    0 -0.00000000000E+00 -0.00000000000E+00 -0.45593999997E+02  0.45594000000E+02  0.51100000000E-03 0. -1.
    9900012    2    1    2    0    0  0.11618561850E+02 -0.73189064670E+01 -0.28777757310E+02  0.59302004844E+02  0.50000110913E+02 0.  0.
        -12    1    1    2    0    0 -0.11618561850E+02  0.73189064670E+01  0.28777757310E+02  0.31885995156E+02  0.00000000000E+00 0.  1.
         11    1    3    3    0    0  0.15920135394E+02 -0.18894837325E+02 -0.29289363156E+02  0.38318825437E+02  0.51100000000E-03 0. -1.
        -11    1    3    3    0    0 -0.10083498733E+02  0.63963430639E+01 -0.32236658343E+01  0.12368596241E+02  0.51100000000E-03 0.  1.
        -12    1    3    3    0    0  0.57819251887E+01  0.51795877941E+01  0.37352716804E+01  0.86145831664E+01  0.00000000000E+00 0.  1.
</event>
<event>
 7    1  0.6180395E-013  0.5930193E+02  0.7816164E-02  0.1266605E+00
        -11   -1    0    0    0    0  0.00000000000E+00  0.00000000000E+00  0.45593999997E+02  0.45594000000E+02  0.51100000000E-03 0.  1.
         11   -1    0    0    0    0 -0.00000000000E+00 -0.00000000000E+00 -0.45593999997E+02  0.45594000000E+02  0.51100000000E-03 0. -1.
    9900012    2    1    2    0    0 -0.49345730423E+01  0.31484742973E+02 -0.10404646919E+01  0.59301927524E+02  0.49999969902E+02 0.  0.
        -12    1    1    2    0    0  0.49345730423E+01 -0.31484742973E+02  0.10404646919E+01  0.31886072476E+02  0.00000000000E+00 0.  1.
         11    1    3    3    0    0 -0.21277545868E+02  0.15676786676E+02  0.81426664119E+01  0.27654992591E+02  0.51100000000E-03 0. -1.
        -11    1    3    3    0    0  0.16127875136E+02  0.18505874607E+01 -0.37026905922E+01  0.16650614050E+02  0.51100000000E-03 0.  1.
        -12    1    3    3    0    0  0.21509768997E+00  0.13957368836E+02 -0.54804405116E+01  0.14996320883E+02  0.00000000000E+00 0.  1.
</event>
<event>
 7    1  0.6180395E-013  0.5930194E+02  0.7816164E-02  0.1266605E+00
        -11   -1    0    0    0    0  0.00000000000E+00  0.00000000000E+00  0.45593999997E+02  0.45594000000E+02  0.51100000000E-03 0. -1.
         11   -1    0    0    0    0 -0.00000000000E+00 -0.00000000000E+00 -0.45593999997E+02  0.45594000000E+02  0.51100000000E-03 0.  1.
    9900012    2    1    2    0    0 -0.31165590771E+02 -0.54306456731E+01  0.39918381052E+01  0.59301941417E+02  0.49999995238E+02 0.  0.
        -12    1    1    2    0    0  0.31165590771E+02  0.54306456731E+01 -0.39918381052E+01  0.31886058583E+02  0.00000000000E+00 0.  1.
         11    1    3    3    0    0 -0.24539439694E+02 -0.24893117865E+02 -0.30943868272E+01  0.35091689153E+02  0.51100000000E-03 0. -1.
        -11    1    3    3    0    0  0.40908473539E+00  0.13071209837E+02  0.14445735613E+01  0.13157152806E+02  0.51100000000E-03 0.  1.
         12    1    3    3    0    0 -0.70352358123E+01  0.63912623550E+01  0.56416513711E+01  0.11053099458E+02  0.00000000000E+00 0. -1.
</event>
<event>
 7    1  0.6180395E-013  0.5930193E+02  0.7816164E-02  0.1266605E+00
        -11   -1    0    0    0    0  0.00000000000E+00  0.00000000000E+00  0.45593999997E+02  0.45594000000E+02  0.51100000000E-03 0. -1.
         11   -1    0    0    0    0 -0.00000000000E+00 -0.00000000000E+00 -0.45593999997E+02  0.45594000000E+02  0.51100000000E-03 0.  1.
    9900012    2    1    2    0    0  0.15531489367E+02 -0.92246194935E+01  0.26275471328E+02  0.59301934700E+02  0.49999982989E+02 0.  0.
        -12    1    1    2    0    0 -0.15531489367E+02  0.92246194935E+01 -0.26275471328E+02  0.31886065300E+02  0.00000000000E+00 0.  1.
         11    1    3    3    0    0 -0.65125616099E+00 -0.40348212802E+01  0.37333720869E+02  0.37556765456E+02  0.51100000000E-03 0. -1.
        -11    1    3    3    0    0  0.12129938579E+02 -0.72838487268E+01 -0.87031723058E+01  0.16611293467E+02  0.51100000000E-03 0.  1.
         12    1    3    3    0    0  0.40528069489E+01  0.20940505134E+01 -0.23550772343E+01  0.51338757774E+01  0.00000000000E+00 0. -1.
</event>
<event>
 7    1  0.6180395E-013  0.5930197E+02  0.7816164E-02  0.1266605E+00
        -11   -1    0    0    0    0  0.00000000000E+00  0.00000000000E+00  0.45593999997E+02  0.45594000000E+02  0.51100000000E-03 0.  1.
         11   -1    0    0    0    0 -0.00000000000E+00 -0.00000000000E+00 -0.45593999997E+02  0.45594000000E+02  0.51100000000E-03 0. -1.
    9900012    2    1    2    0    0  0.70393487525E+01  0.31074349047E+02  0.12454891797E+01  0.59301971039E+02  0.50000049263E+02 0.  0.
        -12    1    1    2    0    0 -0.70393487525E+01 -0.31074349047E+02 -0.12454891797E+01  0.31886028961E+02  0.00000000000E+00 0.  1.
         11    1    3    3    0    0 -0.15387814172E+01  0.19248889355E+02  0.15049586267E+02  0.24482190194E+02  0.51100000000E-03 0. -1.
        -11    1    3    3    0    0 -0.37974211345E+00 -0.83689697191E+01  0.67657231244E+00  0.84048562502E+01  0.51100000000E-03 0.  1.
        -12    1    3    3    0    0  0.89578722832E+01  0.20194429412E+02 -0.14480669400E+02  0.26414924595E+02  0.00000000000E+00 0.  1.
</event>
<event>
 7    1  0.6180395E-013  0.5930195E+02  0.7816164E-02  0.1266605E+00
        -11   -1    0    0    0    0  0.00000000000E+00  0.00000000000E+00  0.45593999997E+02  0.45594000000E+02  0.51100000000E-03 0.  1.
         11   -1    0    0    0    0 -0.00000000000E+00 -0.00000000000E+00 -0.45593999997E+02  0.45594000000E+02  0.51100000000E-03 0. -1.
    9900012    2    1    2    0    0  0.14396971742E+02 -0.23764589254E+02 -0.15642624240E+02  0.59301949902E+02  0.50000010713E+02 0.  0.
        -12    1    1    2    0    0 -0.14396971742E+02  0.23764589254E+02  0.15642624240E+02  0.31886050098E+02  0.00000000000E+00 0.  1.
         11    1    3    3    0    0 -0.12817530636E+02 -0.62455833940E+01 -0.46066391772E+01  0.14983908980E+02  0.51100000000E-03 0.  1.
        -11    1    3    3    0    0  0.16311965100E+02 -0.22320111248E+02  0.61865439526E+00  0.27652311026E+02  0.51100000000E-03 0. -1.
        -12    1    3    3    0    0  0.10902537278E+02  0.48011053887E+01 -0.11654639458E+02  0.16665729896E+02  0.00000000000E+00 0.  1.
</event>
<event>
 7    1  0.6180395E-013  0.5930194E+02  0.7816164E-02  0.1266605E+00
        -11   -1    0    0    0    0  0.00000000000E+00  0.00000000000E+00  0.45593999997E+02  0.45594000000E+02  0.51100000000E-03 0.  1.
         11   -1    0    0    0    0 -0.00000000000E+00 -0.00000000000E+00 -0.45593999997E+02  0.45594000000E+02  0.51100000000E-03 0. -1.
    9900012    2    1    2    0    0  0.22147636352E+02 -0.18040397260E+02 -0.14168528612E+02  0.59301938276E+02  0.49999989510E+02 0.  0.
        -12    1    1    2    0    0 -0.22147636352E+02  0.18040397260E+02  0.14168528612E+02  0.31886061724E+02  0.00000000000E+00 0.  1.
         11    1    3    3    0    0  0.15455317201E+02  0.35590526922E+01 -0.23395985026E+02  0.28264921749E+02  0.51100000000E-03 0. -1.
        -11    1    3    3    0    0  0.10063579490E+02 -0.23376864112E+02  0.96141223529E+01  0.27206336702E+02  0.51100000000E-03 0.  1.
         12    1    3    3    0    0 -0.33712603399E+01  0.17774141600E+01 -0.38666593857E+00  0.38306798252E+01  0.00000000000E+00 0. -1.
</event>
<event>
 7    1  0.6180395E-013  0.5930195E+02  0.7816164E-02  0.1266605E+00
        -11   -1    0    0    0    0  0.00000000000E+00  0.00000000000E+00  0.45593999997E+02  0.45594000000E+02  0.51100000000E-03 0.  1.
         11   -1    0    0    0    0 -0.00000000000E+00 -0.00000000000E+00 -0.45593999997E+02  0.45594000000E+02  0.51100000000E-03 0. -1.
    9900012    2    1    2    0    0  0.75374469420E+01 -0.12924250164E+02 -0.28157963858E+02  0.59301948545E+02  0.50000008239E+02 0.  0.
        -12    1    1    2    0    0 -0.75374469420E+01  0.12924250164E+02  0.28157963858E+02  0.31886051455E+02  0.00000000000E+00 0.  1.
         11    1    3    3    0    0  0.36023609137E+01  0.86516129953E+01 -0.16308915034E+02  0.18809787916E+02  0.51100000000E-03 0. -1.
        -11    1    3    3    0    0 -0.13882303601E+02 -0.12659233602E+02 -0.53371293165E+01  0.19530988154E+02  0.51100000000E-03 0.  1.
        -12    1    3    3    0    0  0.17817389630E+02 -0.89166295578E+01 -0.65119195077E+01  0.20961172476E+02  0.00000000000E+00 0.  1.
</event>
<event>
 7    1  0.6180395E-013  0.5930192E+02  0.7816164E-02  0.1266605E+00
        -11   -1    0    0    0    0  0.00000000000E+00  0.00000000000E+00  0.45593999997E+02  0.45594000000E+02  0.51100000000E-03 0.  1.
         11   -1    0    0    0    0 -0.00000000000E+00 -0.00000000000E+00 -0.45593999997E+02  0.45594000000E+02  0.51100000000E-03 0. -1.
    9900012    2    1    2    0    0 -0.31769568406E+02 -0.17319735013E+01 -0.21015952401E+01  0.59301922921E+02  0.49999961507E+02 0.  0.
        -12    1    1    2    0    0  0.31769568406E+02  0.17319735013E+01  0.21015952401E+01  0.31886077079E+02  0.00000000000E+00 0.  1.
         11    1    3    3    0    0 -0.14513051062E+02  0.15626598798E+02  0.14660344094E+02  0.25879430642E+02  0.51100000000E-03 0. -1.
        -11    1    3    3    0    0 -0.21114825270E+00 -0.10563004994E+02 -0.61894579663E+01  0.12244633447E+02  0.51100000000E-03 0.  1.
         12    1    3    3    0    0 -0.17045369091E+02 -0.67955673055E+01 -0.10572481368E+02  0.21177858832E+02  0.00000000000E+00 0. -1.
</event>
<event>
 7    1  0.6180395E-013  0.5930195E+02  0.7816164E-02  0.1266605E+00
        -11   -1    0    0    0    0  0.00000000000E+00  0.00000000000E+00  0.45593999997E+02  0.45594000000E+02  0.51100000000E-03 0.  1.
         11   -1    0    0    0    0 -0.00000000000E+00 -0.00000000000E+00 -0.45593999997E+02  0.45594000000E+02  0.51100000000E-03 0. -1.
    9900012    2    1    2    0    0  0.20486834387E+02  0.12480994232E+02 -0.21005587363E+02  0.59301948180E+02  0.50000007572E+02 0.  0.
        -12    1    1    2    0    0 -0.20486834387E+02 -0.12480994232E+02  0.21005587363E+02  0.31886051820E+02  0.00000000000E+00 0.  1.
         11    1    3    3    0    0  0.13779631099E+02  0.32634327017E+01 -0.38529304141E+01  0.14675602177E+02  0.51100000000E-03 0. -1.
        -11    1    3    3    0    0 -0.37733987940E+01  0.21320876356E+02 -0.18608526477E+02  0.28549878546E+02  0.51100000000E-03 0.  1.
        -12    1    3    3    0    0  0.10480602082E+02 -0.12103314827E+02  0.14558695288E+01  0.16076467457E+02  0.00000000000E+00 0.  1.
</event>
<event>
 7    1  0.6180395E-013  0.5930193E+02  0.7816164E-02  0.1266605E+00
        -11   -1    0    0    0    0  0.00000000000E+00  0.00000000000E+00  0.45593999997E+02  0.45594000000E+02  0.51100000000E-03 0.  1.
         11   -1    0    0    0    0 -0.00000000000E+00 -0.00000000000E+00 -0.45593999997E+02  0.45594000000E+02  0.51100000000E-03 0. -1.
    9900012    2    1    2    0    0  0.17475135415E+02 -0.34667214988E+01 -0.26444712902E+02  0.59301931628E+02  0.49999977387E+02 0.  0.
        -12    1    1    2    0    0 -0.17475135415E+02  0.34667214988E+01  0.26444712902E+02  0.31886068372E+02  0.00000000000E+00 0.  1.
         11    1    3    3    0    0  0.20573508283E+02  0.15708498440E+01 -0.15873261721E+02  0.26032618966E+02  0.51100000000E-03 0. -1.
        -11    1    3    3    0    0  0.92604042136E+00 -0.17596502435E+02 -0.24736828909E+01  0.17793638080E+02  0.51100000000E-03 0.  1.
        -12    1    3    3    0    0 -0.40244132892E+01  0.12558931092E+02 -0.80977682899E+01  0.15475674583E+02  0.00000000000E+00 0.  1.
</event>
<event>
 7    1  0.6180395E-013  0.5930196E+02  0.7816164E-02  0.1266605E+00
        -11   -1    0    0    0    0  0.00000000000E+00  0.00000000000E+00  0.45593999997E+02  0.45594000000E+02  0.51100000000E-03 0. -1.
         11   -1    0    0    0    0 -0.00000000000E+00 -0.00000000000E+00 -0.45593999997E+02  0.45594000000E+02  0.51100000000E-03 0.  1.
    9900012    2    1    2    0    0 -0.14320027903E+02 -0.69792621670E+01 -0.27621475912E+02  0.59301964952E+02  0.50000038160E+02 0.  0.
        -12    1    1    2    0    0  0.14320027903E+02  0.69792621670E+01  0.27621475912E+02  0.31886035048E+02  0.00000000000E+00 0.  1.
         11    1    3    3    0    0 -0.11449947994E+02  0.74433944475E+00  0.31039396545E+01  0.11886538265E+02  0.51100000000E-03 0. -1.
        -11    1    3    3    0    0 -0.14606360445E+02 -0.11295063156E+02 -0.29872386785E+02  0.35118139324E+02  0.51100000000E-03 0.  1.
        -12    1    3    3    0    0  0.11736280536E+02  0.35714615443E+01 -0.85302878210E+00  0.12297287363E+02  0.00000000000E+00 0.  1.
</event>
<event>
 7    1  0.6180395E-013  0.5930195E+02  0.7816164E-02  0.1266605E+00
        -11   -1    0    0    0    0  0.00000000000E+00  0.00000000000E+00  0.45593999997E+02  0.45594000000E+02  0.51100000000E-03 0.  1.
         11   -1    0    0    0    0 -0.00000000000E+00 -0.00000000000E+00 -0.45593999997E+02  0.45594000000E+02  0.51100000000E-03 0. -1.
    9900012    2    1    2    0    0  0.17275627239E+02  0.26784211962E+02  0.93740663764E+00  0.59301952297E+02  0.50000015080E+02 0.  0.
        -12    1    1    2    0    0 -0.17275627239E+02 -0.26784211962E+02 -0.93740663764E+00  0.31886047703E+02  0.00000000000E+00 0.  1.
         11    1    3    3    0    0 -0.10833420604E+02 -0.99162899317E+00 -0.67267927971E-01  0.10878917928E+02  0.51100000000E-03 0. -1.
        -11    1    3    3    0    0  0.20795358465E+02  0.19427849493E+02 -0.12380630079E+02  0.31034952409E+02  0.51100000000E-03 0.  1.
        -12    1    3    3    0    0  0.73136893781E+01  0.83479914629E+01  0.13385304645E+02  0.17388081959E+02  0.00000000000E+00 0.  1.
</event>
<event>
 7    1  0.6180395E-013  0.5930195E+02  0.7816164E-02  0.1266605E+00
        -11   -1    0    0    0    0  0.00000000000E+00  0.00000000000E+00  0.45593999997E+02  0.45594000000E+02  0.51100000000E-03 0. -1.
         11   -1    0    0    0    0 -0.00000000000E+00 -0.00000000000E+00 -0.45593999997E+02  0.45594000000E+02  0.51100000000E-03 0.  1.
    9900012    2    1    2    0    0  0.11291626637E+01  0.38139390325E+01  0.31636985365E+02  0.59301953173E+02  0.50000016678E+02 0.  0.
        -12    1    1    2    0    0 -0.11291626637E+01 -0.38139390325E+01 -0.31636985365E+02  0.31886046827E+02  0.00000000000E+00 0.  1.
         11    1    3    3    0    0  0.14099335869E+02  0.94676861094E+01  0.21411173366E+02  0.27328861985E+02  0.51100000000E-03 0. -1.
        -11    1    3    3    0    0 -0.17901793410E+02 -0.23481178097E+01  0.15678255730E+02  0.23912247229E+02  0.51100000000E-03 0.  1.
         12    1    3    3    0    0  0.49316202046E+01 -0.33056292672E+01 -0.54524437311E+01  0.80608439592E+01  0.00000000000E+00 0. -1.
</event>
<event>
 7    1  0.6180395E-013  0.5930194E+02  0.7816164E-02  0.1266605E+00
        -11   -1    0    0    0    0  0.00000000000E+00  0.00000000000E+00  0.45593999997E+02  0.45594000000E+02  0.51100000000E-03 0. -1.
         11   -1    0    0    0    0 -0.00000000000E+00 -0.00000000000E+00 -0.45593999997E+02  0.45594000000E+02  0.51100000000E-03 0.  1.
    9900012    2    1    2    0    0  0.21761383427E+02  0.78107543287E+01  0.21958034980E+02  0.59301937340E+02  0.49999987802E+02 0.  0.
        -12    1    1    2    0    0 -0.21761383427E+02 -0.78107543287E+01 -0.21958034980E+02  0.31886062660E+02  0.00000000000E+00 0.  1.
         11    1    3    3    0    0 -0.12031178964E+02  0.13958136780E+02  0.77133934854E+01  0.19976868848E+02  0.51100000000E-03 0. -1.
        -11    1    3    3    0    0  0.28831033443E+02 -0.92359356184E+01  0.14297357803E+02  0.33480523242E+02  0.51100000000E-03 0.  1.
         12    1    3    3    0    0  0.49615289482E+01  0.30885531668E+01 -0.52716309006E-01  0.58445452499E+01  0.00000000000E+00 0. -1.
</event>
<event>
 7    1  0.6180395E-013  0.5930195E+02  0.7816164E-02  0.1266605E+00
        -11   -1    0    0    0    0  0.00000000000E+00  0.00000000000E+00  0.45593999997E+02  0.45594000000E+02  0.51100000000E-03 0. -1.
         11   -1    0    0    0    0 -0.00000000000E+00 -0.00000000000E+00 -0.45593999997E+02  0.45594000000E+02  0.51100000000E-03 0.  1.
    9900012    2    1    2    0    0  0.28487261511E+02 -0.24007255558E+01  0.14122063833E+02  0.59301949155E+02  0.50000009351E+02 0.  0.
        -12    1    1    2    0    0 -0.28487261511E+02  0.24007255558E+01 -0.14122063833E+02  0.31886050845E+02  0.00000000000E+00 0.  1.
         11    1    3    3    0    0  0.12928818473E+02  0.81877558303E+01  0.10310948698E+02  0.18452895598E+02  0.51100000000E-03 0. -1.
        -11    1    3    3    0    0 -0.74267774232E+01 -0.23559055659E+01 -0.10094480879E+02  0.12751700216E+02  0.51100000000E-03 0.  1.
        -12    1    3    3    0    0  0.22985220460E+02 -0.82325758202E+01  0.13905596014E+02  0.28097353341E+02  0.00000000000E+00 0.  1.
</event>
<event>
 7    1  0.6180395E-013  0.5930196E+02  0.7816164E-02  0.1266605E+00
        -11   -1    0    0    0    0  0.00000000000E+00  0.00000000000E+00  0.45593999997E+02  0.45594000000E+02  0.51100000000E-03 0.  1.
         11   -1    0    0    0    0 -0.00000000000E+00 -0.00000000000E+00 -0.45593999997E+02  0.45594000000E+02  0.51100000000E-03 0. -1.
    9900012    2    1    2    0    0  0.23240434764E+01  0.30441734637E+02 -0.91988710036E+01  0.59301958955E+02  0.50000027224E+02 0.  0.
        -12    1    1    2    0    0 -0.23240434764E+01 -0.30441734637E+02  0.91988710036E+01  0.31886041045E+02  0.00000000000E+00 0.  1.
         11    1    3    3    0    0  0.54046976377E+01  0.32888884332E+02 -0.51988526848E+01  0.33733033346E+02  0.51100000000E-03 0. -1.
        -11    1    3    3    0    0 -0.35261241262E+01 -0.13602800686E+02 -0.15395465675E+01  0.14136475577E+02  0.51100000000E-03 0.  1.
        -12    1    3    3    0    0  0.44546996494E+00  0.11155650990E+02 -0.24604717513E+01  0.11432450032E+02  0.00000000000E+00 0.  1.
</event>
<event>
 7    1  0.6180395E-013  0.5930195E+02  0.7816164E-02  0.1266605E+00
        -11   -1    0    0    0    0  0.00000000000E+00  0.00000000000E+00  0.45593999997E+02  0.45594000000E+02  0.51100000000E-03 0.  1.
         11   -1    0    0    0    0 -0.00000000000E+00 -0.00000000000E+00 -0.45593999997E+02  0.45594000000E+02  0.51100000000E-03 0. -1.
    9900012    2    1    2    0    0 -0.28384581648E+02  0.83385720213E+01 -0.11895544555E+02  0.59301949147E+02  0.50000009337E+02 0.  0.
        -12    1    1    2    0    0  0.28384581648E+02 -0.83385720213E+01  0.11895544555E+02  0.31886050853E+02  0.00000000000E+00 0.  1.
         11    1    3    3    0    0 -0.50764234260E+01  0.50044959069E+01  0.17392211322E+02  0.18796384467E+02  0.51100000000E-03 0.  1.
        -11    1    3    3    0    0 -0.11717282097E+02  0.37150418861E+01 -0.25495728166E+02  0.28304211541E+02  0.51100000000E-03 0. -1.
        -12    1    3    3    0    0 -0.11590876125E+02 -0.38096577171E+00 -0.37920277113E+01  0.12201353140E+02  0.00000000000E+00 0.  1.
</event>
<event>
 7    1  0.6180395E-013  0.5930194E+02  0.7816164E-02  0.1266605E+00
        -11   -1    0    0    0    0  0.00000000000E+00  0.00000000000E+00  0.45593999997E+02  0.45594000000E+02  0.51100000000E-03 0.  1.
         11   -1    0    0    0    0 -0.00000000000E+00 -0.00000000000E+00 -0.45593999997E+02  0.45594000000E+02  0.51100000000E-03 0. -1.
    9900012    2    1    2    0    0 -0.14656138820E+02  0.78581664677E+01 -0.27206019703E+02  0.59301942022E+02  0.49999996342E+02 0.  0.
        -12    1    1    2    0    0  0.14656138820E+02 -0.78581664677E+01  0.27206019703E+02  0.31886057978E+02  0.00000000000E+00 0.  1.
         11    1    3    3    0    0 -0.22619948509E+02 -0.24420318819E+01 -0.19784038001E+02  0.30150186569E+02  0.51100000000E-03 0. -1.
        -11    1    3    3    0    0  0.16394466416E+02  0.85850341796E+01 -0.87082959597E+01  0.20452768998E+02  0.51100000000E-03 0.  1.
        -12    1    3    3    0    0 -0.84306567262E+01  0.17151641700E+01  0.12863142584E+01  0.86989864545E+01  0.00000000000E+00 0.  1.
</event>
<event>
 7    1  0.6180395E-013  0.5930196E+02  0.7816164E-02  0.1266605E+00
        -11   -1    0    0    0    0  0.00000000000E+00  0.00000000000E+00  0.45593999997E+02  0.45594000000E+02  0.51100000000E-03 0. -1.
         11   -1    0    0    0    0 -0.00000000000E+00 -0.00000000000E+00 -0.45593999997E+02  0.45594000000E+02  0.51100000000E-03 0.  1.
    9900012    2    1    2    0    0  0.18376518111E+02  0.23112717264E+02 -0.12034349911E+02  0.59301957678E+02  0.50000024894E+02 0.  0.
        -12    1    1    2    0    0 -0.18376518111E+02 -0.23112717264E+02  0.12034349911E+02  0.31886042322E+02  0.00000000000E+00 0.  1.
         11    1    3    3    0    0  0.20823414509E+01  0.12789179291E+02 -0.53037603690E+01  0.14001040218E+02  0.51100000000E-03 0. -1.
        -11    1    3    3    0    0 -0.31944629907E+01 -0.16820348517E+01  0.13976155417E+02  0.14434914462E+02  0.51100000000E-03 0.  1.
        -12    1    3    3    0    0  0.19488639651E+02  0.12005572824E+02 -0.20706744958E+02  0.30866002998E+02  0.00000000000E+00 0.  1.
</event>
<event>
 7    1  0.6180395E-013  0.5930195E+02  0.7816164E-02  0.1266605E+00
        -11   -1    0    0    0    0  0.00000000000E+00  0.00000000000E+00  0.45593999997E+02  0.45594000000E+02  0.51100000000E-03 0.  1.
         11   -1    0    0    0    0 -0.00000000000E+00 -0.00000000000E+00 -0.45593999997E+02  0.45594000000E+02  0.51100000000E-03 0. -1.
    9900012    2    1    2    0    0 -0.83843747658E+01 -0.26834535720E+02 -0.15044277600E+02  0.59301947626E+02  0.50000006562E+02 0.  0.
        -12    1    1    2    0    0  0.83843747658E+01  0.26834535720E+02  0.15044277600E+02  0.31886052374E+02  0.00000000000E+00 0.  1.
         11    1    3    3    0    0 -0.32317837494E+00 -0.22034285519E+01 -0.16746753722E+02  0.16894179534E+02  0.51100000000E-03 0. -1.
        -11    1    3    3    0    0 -0.98079760009E+01 -0.31538954961E+02 -0.40153033130E+01  0.33271981218E+02  0.51100000000E-03 0.  1.
        -12    1    3    3    0    0  0.17467796100E+01  0.69078477926E+01  0.57177794348E+01  0.91357868734E+01  0.00000000000E+00 0.  1.
</event>
<event>
 7    1  0.6180395E-013  0.5930196E+02  0.7816164E-02  0.1266605E+00
        -11   -1    0    0    0    0  0.00000000000E+00  0.00000000000E+00  0.45593999997E+02  0.45594000000E+02  0.51100000000E-03 0. -1.
         11   -1    0    0    0    0 -0.00000000000E+00 -0.00000000000E+00 -0.45593999997E+02  0.45594000000E+02  0.51100000000E-03 0.  1.
    9900012    2    1    2    0    0  0.28798447894E+02  0.65368167820E+01  0.12026605638E+02  0.59301955750E+02  0.50000021378E+02 0.  0.
        -12    1    1    2    0    0 -0.28798447894E+02 -0.65368167820E+01 -0.12026605638E+02  0.31886044250E+02  0.00000000000E+00 0.  1.
         11    1    3    3    0    0  0.48790276741E+01 -0.13752237703E+02  0.20028230890E+01  0.14728891793E+02  0.51100000000E-03 0. -1.
        -11    1    3    3    0    0  0.27898401258E+02  0.10594933631E+02  0.14499348153E+02  0.33178374109E+02  0.51100000000E-03 0.  1.
        -12    1    3    3    0    0 -0.39789810381E+01  0.96941208542E+01 -0.44755656045E+01  0.11394689847E+02  0.00000000000E+00 0.  1.
</event>
<event>
 7    1  0.6180395E-013  0.5930195E+02  0.7816164E-02  0.1266605E+00
        -11   -1    0    0    0    0  0.00000000000E+00  0.00000000000E+00  0.45593999997E+02  0.45594000000E+02  0.51100000000E-03 0.  1.
         11   -1    0    0    0    0 -0.00000000000E+00 -0.00000000000E+00 -0.45593999997E+02  0.45594000000E+02  0.51100000000E-03 0. -1.
    9900012    2    1    2    0    0 -0.30610315735E+02 -0.79877906314E+01 -0.39904822284E+01  0.59301950120E+02  0.50000011111E+02 0.  0.
        -12    1    1    2    0    0  0.30610315735E+02  0.79877906314E+01  0.39904822284E+01  0.31886049880E+02  0.00000000000E+00 0.  1.
         11    1    3    3    0    0 -0.15444694602E+02 -0.99031388398E+01 -0.15762364094E+02  0.24188072936E+02  0.51100000000E-03 0. -1.
        -11    1    3    3    0    0  0.37801144406E+01  0.11086301359E+02  0.19035945919E+01  0.11866718824E+02  0.51100000000E-03 0.  1.
        -12    1    3    3    0    0 -0.18945735573E+02 -0.91709531511E+01  0.98682872741E+01  0.23247158360E+02  0.00000000000E+00 0.  1.
</event>
<event>
 7    1  0.6180395E-013  0.5930195E+02  0.7816164E-02  0.1266605E+00
        -11   -1    0    0    0    0  0.00000000000E+00  0.00000000000E+00  0.45593999997E+02  0.45594000000E+02  0.51100000000E-03 0. -1.
         11   -1    0    0    0    0 -0.00000000000E+00 -0.00000000000E+00 -0.45593999997E+02  0.45594000000E+02  0.51100000000E-03 0.  1.
    9900012    2    1    2    0    0  0.14728325751E+01  0.21132243118E+02  0.23832317954E+02  0.59301947970E+02  0.50000007190E+02 0.  0.
        -12    1    1    2    0    0 -0.14728325751E+01 -0.21132243118E+02 -0.23832317954E+02  0.31886052030E+02  0.00000000000E+00 0.  1.
         11    1    3    3    0    0 -0.66712585120E+01  0.27398518862E+02  0.32969418353E+02  0.43383949483E+02  0.51100000000E-03 0. -1.
        -11    1    3    3    0    0  0.55875303522E+01  0.16723715197E+00 -0.63372188865E+01  0.84503731976E+01  0.51100000000E-03 0.  1.
         12    1    3    3    0    0  0.25565607348E+01 -0.64335128961E+01 -0.27998815129E+01  0.74676252893E+01  0.00000000000E+00 0. -1.
</event>
<event>
 7    1  0.6180395E-013  0.5930195E+02  0.7816164E-02  0.1266605E+00
        -11   -1    0    0    0    0  0.00000000000E+00  0.00000000000E+00  0.45593999997E+02  0.45594000000E+02  0.51100000000E-03 0.  1.
         11   -1    0    0    0    0 -0.00000000000E+00 -0.00000000000E+00 -0.45593999997E+02  0.45594000000E+02  0.51100000000E-03 0. -1.
    9900012    2    1    2    0    0  0.94817573732E+01  0.23867303410E+02 -0.18898895720E+02  0.59301950474E+02  0.50000011756E+02 0.  0.
        -12    1    1    2    0    0 -0.94817573732E+01 -0.23867303410E+02  0.18898895720E+02  0.31886049526E+02  0.00000000000E+00 0.  1.
         11    1    3    3    0    0  0.16039067651E+02  0.12713779722E+02  0.54102467505E+01  0.21169852529E+02  0.51100000000E-03 0. -1.
        -11    1    3    3    0    0 -0.12840295556E+02  0.16016282054E+02 -0.21445638369E+02  0.29686863864E+02  0.51100000000E-03 0.  1.
         12    1    3    3    0    0  0.62829852787E+01 -0.48627583660E+01 -0.28635041019E+01  0.84452340808E+01  0.00000000000E+00 0. -1.
</event>
<event>
 7    1  0.6180395E-013  0.5930195E+02  0.7816164E-02  0.1266605E+00
        -11   -1    0    0    0    0  0.00000000000E+00  0.00000000000E+00  0.45593999997E+02  0.45594000000E+02  0.51100000000E-03 0.  1.
         11   -1    0    0    0    0 -0.00000000000E+00 -0.00000000000E+00 -0.45593999997E+02  0.45594000000E+02  0.51100000000E-03 0. -1.
    9900012    2    1    2    0    0 -0.12287158499E+02  0.80579621614E+01 -0.28298673168E+02  0.59301954130E+02  0.50000018424E+02 0.  0.
        -12    1    1    2    0    0  0.12287158499E+02 -0.80579621614E+01  0.28298673168E+02  0.31886045870E+02  0.00000000000E+00 0.  1.
         11    1    3    3    0    0 -0.19138966026E+02 -0.94398633654E+01 -0.19092092867E+02  0.28634228664E+02  0.51100000000E-03 0. -1.
        -11    1    3    3    0    0 -0.33109392930E+01  0.15392662832E+02  0.14264913441E+01  0.15809214588E+02  0.51100000000E-03 0.  1.
         12    1    3    3    0    0  0.10162746820E+02  0.21051626944E+01 -0.10633071645E+02  0.14858510877E+02  0.00000000000E+00 0. -1.
</event>
<event>
 7    1  0.6180395E-013  0.5930194E+02  0.7816164E-02  0.1266605E+00
        -11   -1    0    0    0    0  0.00000000000E+00  0.00000000000E+00  0.45593999997E+02  0.45594000000E+02  0.51100000000E-03 0.  1.
         11   -1    0    0    0    0 -0.00000000000E+00 -0.00000000000E+00 -0.45593999997E+02  0.45594000000E+02  0.51100000000E-03 0. -1.
    9900012    2    1    2    0    0 -0.14561697513E+02  0.17844406556E+02 -0.22051190966E+02  0.59301938738E+02  0.49999990353E+02 0.  0.
        -12    1    1    2    0    0  0.14561697513E+02 -0.17844406556E+02  0.22051190966E+02  0.31886061262E+02  0.00000000000E+00 0.  1.
         11    1    3    3    0    0 -0.37256495567E+01  0.11895405033E+02  0.49721916886E+01  0.13420276300E+02  0.51100000000E-03 0. -1.
        -11    1    3    3    0    0 -0.48595533947E+01 -0.13397495870E+02 -0.31829268380E+01  0.14602711334E+02  0.51100000000E-03 0.  1.
        -12    1    3    3    0    0 -0.59764945611E+01  0.19346497393E+02 -0.23840455817E+02  0.31278951104E+02  0.00000000000E+00 0.  1.
</event>
<event>
 7    1  0.6180395E-013  0.5930191E+02  0.7816164E-02  0.1266605E+00
        -11   -1    0    0    0    0  0.00000000000E+00  0.00000000000E+00  0.45593999997E+02  0.45594000000E+02  0.51100000000E-03 0.  1.
         11   -1    0    0    0    0 -0.00000000000E+00 -0.00000000000E+00 -0.45593999997E+02  0.45594000000E+02  0.51100000000E-03 0. -1.
    9900012    2    1    2    0    0 -0.18152251655E+01 -0.23690075021E+02 -0.21265189486E+02  0.59301906154E+02  0.49999930927E+02 0.  0.
        -12    1    1    2    0    0  0.18152251655E+01  0.23690075021E+02  0.21265189486E+02  0.31886093846E+02  0.00000000000E+00 0.  1.
         11    1    3    3    0    0 -0.15565241617E+02 -0.54876757429E+01 -0.33573433961E+01  0.16842300514E+02  0.51100000000E-03 0. -1.
        -11    1    3    3    0    0  0.20774441233E+02 -0.70559193913E+01 -0.23392965880E+01  0.22064353963E+02  0.51100000000E-03 0.  1.
        -12    1    3    3    0    0 -0.70244247815E+01 -0.11146479887E+02 -0.15568549502E+02  0.20395251677E+02  0.00000000000E+00 0.  1.
</event>
<event>
 7    1  0.6180395E-013  0.5930202E+02  0.7816164E-02  0.1266604E+00
        -11   -1    0    0    0    0  0.00000000000E+00  0.00000000000E+00  0.45593999997E+02  0.45594000000E+02  0.51100000000E-03 0.  1.
         11   -1    0    0    0    0 -0.00000000000E+00 -0.00000000000E+00 -0.45593999997E+02  0.45594000000E+02  0.51100000000E-03 0. -1.
    9900012    2    1    2    0    0 -0.77279765466E+01  0.19946585005E+02 -0.23645880314E+02  0.59302022977E+02  0.50000143984E+02 0.  0.
        -12    1    1    2    0    0  0.77279765466E+01 -0.19946585005E+02  0.23645880314E+02  0.31885977023E+02  0.00000000000E+00 0.  1.
         11    1    3    3    0    0 -0.12740404705E+02  0.89338027783E+01 -0.25869259507E+02  0.30188562931E+02  0.51100000000E-03 0. -1.
        -11    1    3    3    0    0  0.15760377034E+02  0.84898620645E+01  0.28099518981E+00  0.17903804084E+02  0.51100000000E-03 0.  1.
        -12    1    3    3    0    0 -0.10747948875E+02  0.25229201627E+01  0.19423840026E+01  0.11209655962E+02  0.00000000000E+00 0.  1.
</event>
<event>
 7    1  0.6180395E-013  0.5930193E+02  0.7816164E-02  0.1266605E+00
        -11   -1    0    0    0    0  0.00000000000E+00  0.00000000000E+00  0.45593999997E+02  0.45594000000E+02  0.51100000000E-03 0.  1.
         11   -1    0    0    0    0 -0.00000000000E+00 -0.00000000000E+00 -0.45593999997E+02  0.45594000000E+02  0.51100000000E-03 0. -1.
    9900012    2    1    2    0    0  0.22156847994E+02  0.20448099831E+02 -0.10376439254E+02  0.59301934214E+02  0.49999982102E+02 0.  0.
        -12    1    1    2    0    0 -0.22156847994E+02 -0.20448099831E+02  0.10376439254E+02  0.31886065786E+02  0.00000000000E+00 0.  1.
         11    1    3    3    0    0  0.30989212192E+02  0.11005969513E+02 -0.27624894961E+01  0.33001423995E+02  0.51100000000E-03 0. -1.
        -11    1    3    3    0    0 -0.11507333167E+02 -0.29959093995E+01 -0.64430377164E+01  0.13524308670E+02  0.51100000000E-03 0.  1.
        -12    1    3    3    0    0  0.26749689681E+01  0.12438039718E+02 -0.11709120413E+01  0.12776201549E+02  0.00000000000E+00 0.  1.
</event>
<event>
 7    1  0.6180395E-013  0.5930195E+02  0.7816164E-02  0.1266605E+00
        -11   -1    0    0    0    0  0.00000000000E+00  0.00000000000E+00  0.45593999997E+02  0.45594000000E+02  0.51100000000E-03 0. -1.
         11   -1    0    0    0    0 -0.00000000000E+00 -0.00000000000E+00 -0.45593999997E+02  0.45594000000E+02  0.51100000000E-03 0.  1.
    9900012    2    1    2    0    0 -0.12488852890E+02 -0.26800715986E+02  0.11936106321E+02  0.59301945713E+02  0.50000003074E+02 0.  0.
        -12    1    1    2    0    0  0.12488852890E+02  0.26800715986E+02 -0.11936106321E+02  0.31886054287E+02  0.00000000000E+00 0.  1.
         11    1    3    3    0    0 -0.11032803957E+02  0.97084760016E+01 -0.62848217288E+01  0.15983624553E+02  0.51100000000E-03 0. -1.
        -11    1    3    3    0    0  0.39907340368E+01 -0.16332743420E+02  0.21401809414E+01  0.16948889064E+02  0.51100000000E-03 0.  1.
         12    1    3    3    0    0 -0.54467829705E+01 -0.20176448567E+02  0.16080747109E+02  0.26369432096E+02  0.00000000000E+00 0. -1.
</event>
<event>
 7    1  0.6180395E-013  0.5930194E+02  0.7816164E-02  0.1266605E+00
        -11   -1    0    0    0    0  0.00000000000E+00  0.00000000000E+00  0.45593999997E+02  0.45594000000E+02  0.51100000000E-03 0.  1.
         11   -1    0    0    0    0 -0.00000000000E+00 -0.00000000000E+00 -0.45593999997E+02  0.45594000000E+02  0.51100000000E-03 0. -1.
    9900012    2    1    2    0    0 -0.27155262469E+02 -0.76987799370E+01 -0.14833781325E+02  0.59301944103E+02  0.50000000137E+02 0.  0.
        -12    1    1    2    0    0  0.27155262469E+02  0.76987799370E+01  0.14833781325E+02  0.31886055897E+02  0.00000000000E+00 0.  1.
         11    1    3    3    0    0 -0.54014818030E+01 -0.14801417825E+02 -0.24234859089E+01  0.15941494896E+02  0.51100000000E-03 0. -1.
        -11    1    3    3    0    0 -0.12382119390E+01  0.17546272925E+02 -0.87601661028E+00  0.17611708256E+02  0.51100000000E-03 0.  1.
        -12    1    3    3    0    0 -0.20515568727E+02 -0.10443635036E+02 -0.11534278805E+02  0.25748740950E+02  0.00000000000E+00 0.  1.
</event>
<event>
 7    1  0.6180395E-013  0.5930192E+02  0.7816164E-02  0.1266605E+00
        -11   -1    0    0    0    0  0.00000000000E+00  0.00000000000E+00  0.45593999997E+02  0.45594000000E+02  0.51100000000E-03 0.  1.
         11   -1    0    0    0    0 -0.00000000000E+00 -0.00000000000E+00 -0.45593999997E+02  0.45594000000E+02  0.51100000000E-03 0. -1.
    9900012    2    1    2    0    0  0.27665837456E+02  0.48934994582E+01 -0.15079042052E+02  0.59301915130E+02  0.49999947298E+02 0.  0.
        -12    1    1    2    0    0 -0.27665837456E+02 -0.48934994582E+01  0.15079042052E+02  0.31886084870E+02  0.00000000000E+00 0.  1.
         11    1    3    3    0    0  0.39224938100E+02  0.80392240344E+01 -0.81261587379E+01  0.40856570440E+02  0.51100000000E-03 0. -1.
        -11    1    3    3    0    0 -0.16983773608E+01 -0.42985186303E+01  0.20380978672E+01  0.50512959973E+01  0.51100000000E-03 0.  1.
         12    1    3    3    0    0 -0.98607232826E+01  0.11527940540E+01 -0.89909811813E+01  0.13394048693E+02  0.00000000000E+00 0. -1.
</event>
<event>
 7    1  0.6180395E-013  0.5930218E+02  0.7816164E-02  0.1266604E+00
        -11   -1    0    0    0    0  0.00000000000E+00  0.00000000000E+00  0.45593999997E+02  0.45594000000E+02  0.51100000000E-03 0. -1.
         11   -1    0    0    0    0 -0.00000000000E+00 -0.00000000000E+00 -0.45593999997E+02  0.45594000000E+02  0.51100000000E-03 0.  1.
    9900012    2    1    2    0    0 -0.63736420033E+01  0.18037202256E+02  0.25509630183E+02  0.59302184820E+02  0.50000439146E+02 0.  0.
        -12    1    1    2    0    0  0.63736420033E+01 -0.18037202256E+02 -0.25509630183E+02  0.31885815180E+02  0.00000000000E+00 0.  1.
         11    1    3    3    0    0  0.16152501172E+02  0.21946407758E+02  0.81134244636E+01  0.28431949711E+02  0.51100000000E-03 0. -1.
        -11    1    3    3    0    0 -0.12375520500E+02 -0.78023168415E+01  0.98852371525E+01  0.17656374757E+02  0.51100000000E-03 0.  1.
         12    1    3    3    0    0 -0.10150622675E+02  0.38931113399E+01  0.75109685666E+01  0.13213860352E+02  0.00000000000E+00 0. -1.
</event>
<event>
 7    1  0.6180395E-013  0.5930196E+02  0.7816164E-02  0.1266605E+00
        -11   -1    0    0    0    0  0.00000000000E+00  0.00000000000E+00  0.45593999997E+02  0.45594000000E+02  0.51100000000E-03 0. -1.
         11   -1    0    0    0    0 -0.00000000000E+00 -0.00000000000E+00 -0.45593999997E+02  0.45594000000E+02  0.51100000000E-03 0.  1.
    9900012    2    1    2    0    0 -0.19149259988E+02  0.21730651847E+02  0.13334328423E+02  0.59301957563E+02  0.50000024686E+02 0.  0.
        -12    1    1    2    0    0  0.19149259988E+02 -0.21730651847E+02 -0.13334328423E+02  0.31886042437E+02  0.00000000000E+00 0.  1.
         11    1    3    3    0    0  0.57698517087E+00  0.73657832029E+01 -0.12474108710E+02  0.14497967528E+02  0.51100000000E-03 0.  1.
        -11    1    3    3    0    0 -0.11560276523E+02  0.13135841025E+01  0.26962211184E+02  0.29365393385E+02  0.51100000000E-03 0. -1.
         12    1    3    3    0    0 -0.81659686359E+01  0.13051284542E+02 -0.11537740515E+01  0.15438596650E+02  0.00000000000E+00 0. -1.
</event>
<event>
 7    1  0.6180395E-013  0.5930192E+02  0.7816164E-02  0.1266605E+00
        -11   -1    0    0    0    0  0.00000000000E+00  0.00000000000E+00  0.45593999997E+02  0.45594000000E+02  0.51100000000E-03 0. -1.
         11   -1    0    0    0    0 -0.00000000000E+00 -0.00000000000E+00 -0.45593999997E+02  0.45594000000E+02  0.51100000000E-03 0.  1.
    9900012    2    1    2    0    0 -0.26987497582E+02 -0.13349843975E+02  0.10496607564E+02  0.59301919491E+02  0.49999955250E+02 0.  0.
        -12    1    1    2    0    0  0.26987497582E+02  0.13349843975E+02 -0.10496607564E+02  0.31886080509E+02  0.00000000000E+00 0.  1.
         11    1    3    3    0    0  0.23907632954E+01  0.31121555646E+01  0.85612142228E+01  0.94178368335E+01  0.51100000000E-03 0. -1.
        -11    1    3    3    0    0 -0.36623780794E+02 -0.13508179289E+02 -0.50930840278E+01  0.39366378199E+02  0.51100000000E-03 0.  1.
        -12    1    3    3    0    0  0.72455199168E+01 -0.29538202511E+01  0.70284773694E+01  0.10517704458E+02  0.00000000000E+00 0.  1.
</event>
<event>
 7    1  0.6180395E-013  0.5930196E+02  0.7816164E-02  0.1266605E+00
        -11   -1    0    0    0    0  0.00000000000E+00  0.00000000000E+00  0.45593999997E+02  0.45594000000E+02  0.51100000000E-03 0.  1.
         11   -1    0    0    0    0 -0.00000000000E+00 -0.00000000000E+00 -0.45593999997E+02  0.45594000000E+02  0.51100000000E-03 0. -1.
    9900012    2    1    2    0    0  0.29275197966E+02  0.12626085310E+02 -0.51422813622E+00  0.59301957962E+02  0.50000025414E+02 0.  0.
        -12    1    1    2    0    0 -0.29275197966E+02 -0.12626085310E+02  0.51422813622E+00  0.31886042038E+02  0.00000000000E+00 0.  1.
         11    1    3    3    0    0  0.15587898485E+02  0.51402442273E+01  0.95138021523E+00  0.16441101377E+02  0.51100000000E-03 0. -1.
        -11    1    3    3    0    0 -0.55750531419E+01 -0.11379625305E+02  0.71574880261E+01  0.14553581165E+02  0.51100000000E-03 0.  1.
        -12    1    3    3    0    0  0.19262352623E+02  0.18865466388E+02 -0.86230963776E+01  0.28307275421E+02  0.00000000000E+00 0.  1.
</event>
<event>
 7    1  0.6180395E-013  0.5930179E+02  0.7816164E-02  0.1266605E+00
        -11   -1    0    0    0    0  0.00000000000E+00  0.00000000000E+00  0.45593999997E+02  0.45594000000E+02  0.51100000000E-03 0.  1.
         11   -1    0    0    0    0 -0.00000000000E+00 -0.00000000000E+00 -0.45593999997E+02  0.45594000000E+02  0.51100000000E-03 0. -1.
    9900012    2    1    2    0    0 -0.28909339613E+02  0.36462675079E+01 -0.12949334413E+02  0.59301789104E+02  0.49999717455E+02 0.  0.
        -12    1    1    2    0    0  0.28909339613E+02 -0.36462675079E+01  0.12949334413E+02  0.31886210896E+02  0.00000000000E+00 0.  1.
         11    1    3    3    0    0 -0.48412763359E+01  0.83167014634E+01  0.43705086723E+01  0.10569145004E+02  0.51100000000E-03 0. -1.
        -11    1    3    3    0    0 -0.15066851251E+02 -0.76028581001E+01 -0.29088052951E+02  0.33629277165E+02  0.51100000000E-03 0.  1.
         12    1    3    3    0    0 -0.90012120262E+01  0.29324241446E+01  0.11768209866E+02  0.15103366935E+02  0.00000000000E+00 0. -1.
</event>
<event>
 7    1  0.6180395E-013  0.5930194E+02  0.7816164E-02  0.1266605E+00
        -11   -1    0    0    0    0  0.00000000000E+00  0.00000000000E+00  0.45593999997E+02  0.45594000000E+02  0.51100000000E-03 0.  1.
         11   -1    0    0    0    0 -0.00000000000E+00 -0.00000000000E+00 -0.45593999997E+02  0.45594000000E+02  0.51100000000E-03 0. -1.
    9900012    2    1    2    0    0  0.19763520330E+02 -0.13383650985E+02 -0.21142424620E+02  0.59301937710E+02  0.49999988478E+02 0.  0.
        -12    1    1    2    0    0 -0.19763520330E+02  0.13383650985E+02  0.21142424620E+02  0.31886062290E+02  0.00000000000E+00 0.  1.
         11    1    3    3    0    0  0.77473221576E+01  0.49863077848E+01 -0.22590504999E+02  0.24397032244E+02  0.51100000000E-03 0. -1.
        -11    1    3    3    0    0  0.20205010767E+02 -0.84240279531E+01  0.21915539714E+01  0.22000218547E+02  0.51100000000E-03 0.  1.
        -12    1    3    3    0    0 -0.81888125941E+01 -0.99459308171E+01 -0.74347359283E+00  0.12904686920E+02  0.00000000000E+00 0.  1.
</event>
<event>
 7    1  0.6180395E-013  0.5930178E+02  0.7816164E-02  0.1266605E+00
        -11   -1    0    0    0    0  0.00000000000E+00  0.00000000000E+00  0.45593999997E+02  0.45594000000E+02  0.51100000000E-03 0.  1.
         11   -1    0    0    0    0 -0.00000000000E+00 -0.00000000000E+00 -0.45593999997E+02  0.45594000000E+02  0.51100000000E-03 0. -1.
    9900012    2    1    2    0    0 -0.21163817606E+00  0.27493535581E+02 -0.16149052390E+02  0.59301777544E+02  0.49999696372E+02 0.  0.
        -12    1    1    2    0    0  0.21163817606E+00 -0.27493535581E+02  0.16149052390E+02  0.31886222456E+02  0.00000000000E+00 0.  1.
         11    1    3    3    0    0 -0.18032492674E+02 -0.23285195233E+01 -0.15710194724E+02  0.24029211675E+02  0.51100000000E-03 0. -1.
        -11    1    3    3    0    0  0.41828098085E+01  0.29823006653E+01  0.42089231346E+00  0.51543346567E+01  0.51100000000E-03 0.  1.
         12    1    3    3    0    0  0.13638044690E+02  0.26839754439E+02 -0.85974997929E+00  0.30118231212E+02  0.00000000000E+00 0. -1.
</event>
<event>
 7    1  0.6180395E-013  0.5930196E+02  0.7816164E-02  0.1266605E+00
        -11   -1    0    0    0    0  0.00000000000E+00  0.00000000000E+00  0.45593999997E+02  0.45594000000E+02  0.51100000000E-03 0.  1.
         11   -1    0    0    0    0 -0.00000000000E+00 -0.00000000000E+00 -0.45593999997E+02  0.45594000000E+02  0.51100000000E-03 0. -1.
    9900012    2    1    2    0    0  0.26735145367E+02 -0.15878974720E+02 -0.70575842694E+01  0.59301963374E+02  0.50000035284E+02 0.  0.
        -12    1    1    2    0    0 -0.26735145367E+02  0.15878974720E+02  0.70575842694E+01  0.31886036626E+02  0.00000000000E+00 0.  1.
         11    1    3    3    0    0  0.20012931484E+02 -0.16353266125E+02 -0.24156745735E+02  0.35376476708E+02  0.51100000000E-03 0. -1.
        -11    1    3    3    0    0 -0.29495683901E+01  0.30579596648E+01  0.11919239746E+02  0.12653827380E+02  0.51100000000E-03 0.  1.
         12    1    3    3    0    0  0.96717822736E+01 -0.25836682595E+01  0.51799217200E+01  0.11271659286E+02  0.00000000000E+00 0. -1.
</event>
<event>
 7    1  0.6180395E-013  0.5930195E+02  0.7816164E-02  0.1266605E+00
        -11   -1    0    0    0    0  0.00000000000E+00  0.00000000000E+00  0.45593999997E+02  0.45594000000E+02  0.51100000000E-03 0.  1.
         11   -1    0    0    0    0 -0.00000000000E+00 -0.00000000000E+00 -0.45593999997E+02  0.45594000000E+02  0.51100000000E-03 0. -1.
    9900012    2    1    2    0    0  0.20022427823E+02 -0.12969569142E+02 -0.21156870067E+02  0.59301945200E+02  0.50000002138E+02 0.  0.
        -12    1    1    2    0    0 -0.20022427823E+02  0.12969569142E+02  0.21156870067E+02  0.31886054800E+02  0.00000000000E+00 0.  1.
         11    1    3    3    0    0 -0.12281910013E+02 -0.20291624977E+01 -0.72688992226E+01  0.14415259629E+02  0.51100000000E-03 0. -1.
        -11    1    3    3    0    0  0.27864759716E+02  0.29665640345E+01 -0.79626065319E+01  0.29131571177E+02  0.51100000000E-03 0.  1.
        -12    1    3    3    0    0  0.44395781203E+01 -0.13906970678E+02 -0.59253643126E+01  0.15755114394E+02  0.00000000000E+00 0.  1.
</event>
<event>
 7    1  0.6180395E-013  0.5930193E+02  0.7816164E-02  0.1266605E+00
        -11   -1    0    0    0    0  0.00000000000E+00  0.00000000000E+00  0.45593999997E+02  0.45594000000E+02  0.51100000000E-03 0.  1.
         11   -1    0    0    0    0 -0.00000000000E+00 -0.00000000000E+00 -0.45593999997E+02  0.45594000000E+02  0.51100000000E-03 0. -1.
    9900012    2    1    2    0    0  0.75987516692E+01  0.11408048729E+02 -0.28789523052E+02  0.59301933446E+02  0.49999980701E+02 0.  0.
        -12    1    1    2    0    0 -0.75987516692E+01 -0.11408048729E+02  0.28789523052E+02  0.31886066554E+02  0.00000000000E+00 0.  1.
         11    1    3    3    0    0 -0.13149836038E+02 -0.44019122466E+00 -0.21423758522E+02  0.25141387901E+02  0.51100000000E-03 0. -1.
        -11    1    3    3    0    0  0.23366458063E+02  0.27014361781E+01 -0.73593622657E+01  0.24646487236E+02  0.51100000000E-03 0.  1.
         12    1    3    3    0    0 -0.26178703563E+01  0.91468037759E+01 -0.64022644343E-02  0.95140583090E+01  0.00000000000E+00 0. -1.
</event>
<event>
 7    1  0.6180395E-013  0.5930196E+02  0.7816164E-02  0.1266605E+00
        -11   -1    0    0    0    0  0.00000000000E+00  0.00000000000E+00  0.45593999997E+02  0.45594000000E+02  0.51100000000E-03 0. -1.
         11   -1    0    0    0    0 -0.00000000000E+00 -0.00000000000E+00 -0.45593999997E+02  0.45594000000E+02  0.51100000000E-03 0.  1.
    9900012    2    1    2    0    0  0.64399328815E+01 -0.23240896446E+02  0.20859224669E+02  0.59301964547E+02  0.50000037422E+02 0.  0.
        -12    1    1    2    0    0 -0.64399328815E+01  0.23240896446E+02 -0.20859224669E+02  0.31886035453E+02  0.00000000000E+00 0.  1.
         11    1    3    3    0    0  0.34485810942E+01 -0.15405647557E+02  0.22814765887E+02  0.27744192743E+02  0.51100000000E-03 0. -1.
        -11    1    3    3    0    0 -0.79261326245E+01 -0.10294683096E+02 -0.11113496982E+02  0.17097189648E+02  0.51100000000E-03 0.  1.
        -12    1    3    3    0    0  0.10917484412E+02  0.24594342073E+01  0.91579557644E+01  0.14460582156E+02  0.00000000000E+00 0.  1.
</event>
<event>
 7    1  0.6180395E-013  0.5930200E+02  0.7816164E-02  0.1266605E+00
        -11   -1    0    0    0    0  0.00000000000E+00  0.00000000000E+00  0.45593999997E+02  0.45594000000E+02  0.51100000000E-03 0.  1.
         11   -1    0    0    0    0 -0.00000000000E+00 -0.00000000000E+00 -0.45593999997E+02  0.45594000000E+02  0.51100000000E-03 0. -1.
    9900012    2    1    2    0    0  0.21012482432E+02 -0.10342265224E+02 -0.21638632022E+02  0.59301995802E+02  0.50000094424E+02 0.  0.
        -12    1    1    2    0    0 -0.21012482432E+02  0.10342265224E+02  0.21638632022E+02  0.31886004198E+02  0.00000000000E+00 0.  1.
         11    1    3    3    0    0  0.12979895384E+02 -0.47543847524E+01 -0.36068278577E+02  0.38626449207E+02  0.51100000000E-03 0. -1.
        -11    1    3    3    0    0  0.10763313583E+02 -0.54050894874E+01  0.12222142858E+02  0.17159390664E+02  0.51100000000E-03 0.  1.
        -12    1    3    3    0    0 -0.27307265361E+01 -0.18279098385E+00  0.22075036967E+01  0.35161559308E+01  0.00000000000E+00 0.  1.
</event>
<event>
 7    1  0.6180395E-013  0.5930181E+02  0.7816164E-02  0.1266605E+00
        -11   -1    0    0    0    0  0.00000000000E+00  0.00000000000E+00  0.45593999997E+02  0.45594000000E+02  0.51100000000E-03 0.  1.
         11   -1    0    0    0    0 -0.00000000000E+00 -0.00000000000E+00 -0.45593999997E+02  0.45594000000E+02  0.51100000000E-03 0. -1.
    9900012    2    1    2    0    0  0.84151611611E+01  0.11304542166E+02 -0.28602818141E+02  0.59301814643E+02  0.49999764034E+02 0.  0.
        -12    1    1    2    0    0 -0.84151611611E+01 -0.11304542166E+02  0.28602818141E+02  0.31886185357E+02  0.00000000000E+00 0.  1.
         11    1    3    3    0    0  0.11499822368E+02 -0.30883634106E+01 -0.10209641328E+02  0.15685046361E+02  0.51100000000E-03 0. -1.
        -11    1    3    3    0    0 -0.17116097198E+02  0.14972889212E+02 -0.32633106171E+01  0.22973841452E+02  0.51100000000E-03 0.  1.
        -12    1    3    3    0    0  0.14031435991E+02 -0.57998363529E+00 -0.15129866197E+02  0.20642926830E+02  0.00000000000E+00 0.  1.
</event>
<event>
 7    1  0.6180395E-013  0.5930194E+02  0.7816164E-02  0.1266605E+00
        -11   -1    0    0    0    0  0.00000000000E+00  0.00000000000E+00  0.45593999997E+02  0.45594000000E+02  0.51100000000E-03 0.  1.
         11   -1    0    0    0    0 -0.00000000000E+00 -0.00000000000E+00 -0.45593999997E+02  0.45594000000E+02  0.51100000000E-03 0. -1.
    9900012    2    1    2    0    0  0.54529880473E+01 -0.27323218670E+02 -0.15505719456E+02  0.59301942028E+02  0.49999996353E+02 0.  0.
        -12    1    1    2    0    0 -0.54529880473E+01  0.27323218670E+02  0.15505719456E+02  0.31886057972E+02  0.00000000000E+00 0.  1.
         11    1    3    3    0    0 -0.12190957743E+02 -0.65116962704E+01  0.79428031350E+01  0.15940820584E+02  0.51100000000E-03 0. -1.
        -11    1    3    3    0    0  0.12271536162E+02  0.22422799276E+01 -0.10917555204E+02  0.16577437406E+02  0.51100000000E-03 0.  1.
         12    1    3    3    0    0  0.53724096278E+01 -0.23053802328E+02 -0.12530967387E+02  0.26783684038E+02  0.00000000000E+00 0. -1.
</event>
<event>
 7    1  0.6180395E-013  0.5930194E+02  0.7816164E-02  0.1266605E+00
        -11   -1    0    0    0    0  0.00000000000E+00  0.00000000000E+00  0.45593999997E+02  0.45594000000E+02  0.51100000000E-03 0.  1.
         11   -1    0    0    0    0 -0.00000000000E+00 -0.00000000000E+00 -0.45593999997E+02  0.45594000000E+02  0.51100000000E-03 0. -1.
    9900012    2    1    2    0    0 -0.53622861243E+01  0.31390936756E+02  0.16048979425E+01  0.59301941600E+02  0.49999995572E+02 0.  0.
        -12    1    1    2    0    0  0.53622861243E+01 -0.31390936756E+02 -0.16048979425E+01  0.31886058400E+02  0.00000000000E+00 0.  1.
         11    1    3    3    0    0  0.12021092532E+02  0.21067629142E+02 -0.18601596332E+02  0.30567483536E+02  0.51100000000E-03 0. -1.
        -11    1    3    3    0    0 -0.12786870906E+02  0.61613067292E+01  0.14821602850E+02  0.20521834213E+02  0.51100000000E-03 0.  1.
         12    1    3    3    0    0 -0.45965077503E+01  0.41620008846E+01  0.53848914245E+01  0.82126238508E+01  0.00000000000E+00 0. -1.
</event>
<event>
 7    1  0.6180395E-013  0.5930196E+02  0.7816164E-02  0.1266605E+00
        -11   -1    0    0    0    0  0.00000000000E+00  0.00000000000E+00  0.45593999997E+02  0.45594000000E+02  0.51100000000E-03 0. -1.
         11   -1    0    0    0    0 -0.00000000000E+00 -0.00000000000E+00 -0.45593999997E+02  0.45594000000E+02  0.51100000000E-03 0.  1.
    9900012    2    1    2    0    0  0.29704388967E+02 -0.68371129622E+01 -0.93606930513E+01  0.59301962116E+02  0.50000032989E+02 0.  0.
        -12    1    1    2    0    0 -0.29704388967E+02  0.68371129622E+01  0.93606930513E+01  0.31886037884E+02  0.00000000000E+00 0.  1.
         11    1    3    3    0    0  0.29884707404E+02  0.78094869747E+00  0.41378195977E+01  0.30179913333E+02  0.51100000000E-03 0. -1.
        -11    1    3    3    0    0  0.56278205088E+01 -0.10408167028E+02 -0.17800572802E+02  0.21374346702E+02  0.51100000000E-03 0.  1.
        -12    1    3    3    0    0 -0.58081389459E+01  0.27901053688E+01  0.43020601533E+01  0.77477020817E+01  0.00000000000E+00 0.  1.
</event>
<event>
 7    1  0.6180395E-013  0.5930195E+02  0.7816164E-02  0.1266605E+00
        -11   -1    0    0    0    0  0.00000000000E+00  0.00000000000E+00  0.45593999997E+02  0.45594000000E+02  0.51100000000E-03 0. -1.
         11   -1    0    0    0    0 -0.00000000000E+00 -0.00000000000E+00 -0.45593999997E+02  0.45594000000E+02  0.51100000000E-03 0.  1.
    9900012    2    1    2    0    0 -0.23941698699E+02  0.20453267675E+02  0.50178816353E+01  0.59301949268E+02  0.50000009557E+02 0.  0.
        -12    1    1    2    0    0  0.23941698699E+02 -0.20453267675E+02 -0.50178816353E+01  0.31886050732E+02  0.00000000000E+00 0.  1.
         11    1    3    3    0    0 -0.20932396961E+02  0.69130669855E+01 -0.73320088418E+01  0.23231747493E+02  0.51100000000E-03 0. -1.
        -11    1    3    3    0    0 -0.55647107327E+01  0.20808356499E+02  0.16670496229E+02  0.27237091447E+02  0.51100000000E-03 0.  1.
        -12    1    3    3    0    0  0.25554089944E+01 -0.72681558092E+01 -0.43206057519E+01  0.88331103275E+01  0.00000000000E+00 0.  1.
</event>
<event>
 7    1  0.6180395E-013  0.5930195E+02  0.7816164E-02  0.1266605E+00
        -11   -1    0    0    0    0  0.00000000000E+00  0.00000000000E+00  0.45593999997E+02  0.45594000000E+02  0.51100000000E-03 0.  1.
         11   -1    0    0    0    0 -0.00000000000E+00 -0.00000000000E+00 -0.45593999997E+02  0.45594000000E+02  0.51100000000E-03 0. -1.
    9900012    2    1    2    0    0 -0.23135955218E+02 -0.51121061225E+01 -0.21338094453E+02  0.59301947755E+02  0.50000006798E+02 0.  0.
        -12    1    1    2    0    0  0.23135955218E+02  0.51121061225E+01  0.21338094453E+02  0.31886052245E+02  0.00000000000E+00 0.  1.
         11    1    3    3    0    0 -0.74576280132E+00  0.10174387494E+02 -0.30565843240E+01  0.10649743237E+02  0.51100000000E-03 0. -1.
        -11    1    3    3    0    0 -0.96468501871E+01 -0.22873238490E+02  0.36490813485E+00  0.24826999733E+02  0.51100000000E-03 0.  1.
        -12    1    3    3    0    0 -0.12743342229E+02  0.75867448735E+01 -0.18646418264E+02  0.23825204785E+02  0.00000000000E+00 0.  1.
</event>
<event>
 7    1  0.6180395E-013  0.5930195E+02  0.7816164E-02  0.1266605E+00
        -11   -1    0    0    0    0  0.00000000000E+00  0.00000000000E+00  0.45593999997E+02  0.45594000000E+02  0.51100000000E-03 0.  1.
         11   -1    0    0    0    0 -0.00000000000E+00 -0.00000000000E+00 -0.45593999997E+02  0.45594000000E+02  0.51100000000E-03 0. -1.
    9900012    2    1    2    0    0 -0.24315791944E+02  0.51090118049E+01 -0.19983998940E+02  0.59301953630E+02  0.50000017512E+02 0.  0.
        -12    1    1    2    0    0  0.24315791944E+02 -0.51090118049E+01  0.19983998940E+02  0.31886046370E+02  0.00000000000E+00 0.  1.
         11    1    3    3    0    0 -0.25594742845E+02 -0.91537351484E+01 -0.26117761183E+02  0.37696408024E+02  0.51100000000E-03 0. -1.
        -11    1    3    3    0    0  0.50808408292E+01  0.54848778274E+01 -0.32982167358E+01  0.81717233318E+01  0.51100000000E-03 0.  1.
         12    1    3    3    0    0 -0.38018899285E+01  0.87778691259E+01  0.94319789792E+01  0.13433822274E+02  0.00000000000E+00 0. -1.
</event>
<event>
 7    1  0.6180395E-013  0.5930194E+02  0.7816164E-02  0.1266605E+00
        -11   -1    0    0    0    0  0.00000000000E+00  0.00000000000E+00  0.45593999997E+02  0.45594000000E+02  0.51100000000E-03 0. -1.
         11   -1    0    0    0    0 -0.00000000000E+00 -0.00000000000E+00 -0.45593999997E+02  0.45594000000E+02  0.51100000000E-03 0.  1.
    9900012    2    1    2    0    0 -0.27740359051E+02  0.78838706562E+01  0.13602855882E+02  0.59301943095E+02  0.49999998300E+02 0.  0.
        -12    1    1    2    0    0  0.27740359051E+02 -0.78838706562E+01 -0.13602855882E+02  0.31886056905E+02  0.00000000000E+00 0.  1.
         11    1    3    3    0    0 -0.29224743353E+02  0.48823386202E+00  0.18824704703E+02  0.34766269627E+02  0.51100000000E-03 0. -1.
        -11    1    3    3    0    0  0.12120381743E+02  0.32954117385E+01 -0.31591710792E+01  0.12951592731E+02  0.51100000000E-03 0.  1.
        -12    1    3    3    0    0 -0.10635997440E+02  0.41002250557E+01 -0.20626777421E+01  0.11584080737E+02  0.00000000000E+00 0.  1.
</event>
<event>
 7    1  0.6180395E-013  0.5930193E+02  0.7816164E-02  0.1266605E+00
        -11   -1    0    0    0    0  0.00000000000E+00  0.00000000000E+00  0.45593999997E+02  0.45594000000E+02  0.51100000000E-03 0. -1.
         11   -1    0    0    0    0 -0.00000000000E+00 -0.00000000000E+00 -0.45593999997E+02  0.45594000000E+02  0.51100000000E-03 0.  1.
    9900012    2    1    2    0    0  0.19165996281E+01 -0.18388544320E+02  0.25979020275E+02  0.59301930772E+02  0.49999975825E+02 0.  0.
        -12    1    1    2    0    0 -0.19165996281E+01  0.18388544320E+02 -0.25979020275E+02  0.31886069228E+02  0.00000000000E+00 0.  1.
         11    1    3    3    0    0 -0.42151120145E+01 -0.11836073988E+02  0.18876545165E+02  0.22675620705E+02  0.51100000000E-03 0. -1.
        -11    1    3    3    0    0 -0.76077869924E+01  0.93669649358E+01 -0.41693458782E+01  0.12767219758E+02  0.51100000000E-03 0.  1.
        -12    1    3    3    0    0  0.13739498635E+02 -0.15919435267E+02  0.11271820989E+02  0.23859090309E+02  0.00000000000E+00 0.  1.
</event>
<event>
 7    1  0.6180395E-013  0.5930194E+02  0.7816164E-02  0.1266605E+00
        -11   -1    0    0    0    0  0.00000000000E+00  0.00000000000E+00  0.45593999997E+02  0.45594000000E+02  0.51100000000E-03 0.  1.
         11   -1    0    0    0    0 -0.00000000000E+00 -0.00000000000E+00 -0.45593999997E+02  0.45594000000E+02  0.51100000000E-03 0. -1.
    9900012    2    1    2    0    0  0.31420843581E+02 -0.29328291247E+01  0.45661736757E+01  0.59301939722E+02  0.49999992148E+02 0.  0.
        -12    1    1    2    0    0 -0.31420843581E+02  0.29328291247E+01 -0.45661736757E+01  0.31886060278E+02  0.00000000000E+00 0.  1.
         11    1    3    3    0    0  0.15810824836E+02 -0.55652242340E+01 -0.18186224171E+02  0.24732421083E+02  0.51100000000E-03 0. -1.
        -11    1    3    3    0    0  0.60727945379E+01  0.10774803614E+02  0.62928430562E+01  0.13877143093E+02  0.51100000000E-03 0.  1.
         12    1    3    3    0    0  0.95372242072E+01 -0.81424085052E+01  0.16459554791E+02  0.20692375546E+02  0.00000000000E+00 0. -1.
</event>
<event>
 7    1  0.6180395E-013  0.5930194E+02  0.7816164E-02  0.1266605E+00
        -11   -1    0    0    0    0  0.00000000000E+00  0.00000000000E+00  0.45593999997E+02  0.45594000000E+02  0.51100000000E-03 0.  1.
         11   -1    0    0    0    0 -0.00000000000E+00 -0.00000000000E+00 -0.45593999997E+02  0.45594000000E+02  0.51100000000E-03 0. -1.
    9900012    2    1    2    0    0 -0.11530798199E+02 -0.20918888915E+02 -0.21122536433E+02  0.59301940884E+02  0.49999994267E+02 0.  0.
        -12    1    1    2    0    0  0.11530798199E+02  0.20918888915E+02  0.21122536433E+02  0.31886059116E+02  0.00000000000E+00 0.  1.
         11    1    3    3    0    0 -0.17323325831E+02 -0.19012868692E+02 -0.31481816811E+02  0.40653309628E+02  0.51100000000E-03 0. -1.
        -11    1    3    3    0    0  0.51704476574E+01 -0.67812787030E+01  0.10746239686E+02  0.13718634680E+02  0.51100000000E-03 0.  1.
         12    1    3    3    0    0  0.62207997422E+00  0.48752584798E+01 -0.38695930844E+00  0.49299965766E+01  0.00000000000E+00 0. -1.
</event>
<event>
 7    1  0.6180395E-013  0.5930197E+02  0.7816164E-02  0.1266605E+00
        -11   -1    0    0    0    0  0.00000000000E+00  0.00000000000E+00  0.45593999997E+02  0.45594000000E+02  0.51100000000E-03 0.  1.
         11   -1    0    0    0    0 -0.00000000000E+00 -0.00000000000E+00 -0.45593999997E+02  0.45594000000E+02  0.51100000000E-03 0. -1.
    9900012    2    1    2    0    0  0.76425400207E+01  0.10884893989E+02 -0.28979816297E+02  0.59301967200E+02  0.50000042260E+02 0.  0.
        -12    1    1    2    0    0 -0.76425400207E+01 -0.10884893989E+02  0.28979816297E+02  0.31886032800E+02  0.00000000000E+00 0.  1.
         11    1    3    3    0    0  0.76195970982E+01 -0.13793179457E+01 -0.38360883317E+02  0.39134615713E+02  0.51100000000E-03 0. -1.
        -11    1    3    3    0    0  0.37749554624E+01 -0.65862383315E-02  0.56667162413E+01  0.68089650713E+01  0.51100000000E-03 0.  1.
         12    1    3    3    0    0 -0.37520125398E+01  0.12270798173E+02  0.37143507784E+01  0.13358386415E+02  0.00000000000E+00 0. -1.
</event>
<event>
 7    1  0.6180395E-013  0.5930195E+02  0.7816164E-02  0.1266605E+00
        -11   -1    0    0    0    0  0.00000000000E+00  0.00000000000E+00  0.45593999997E+02  0.45594000000E+02  0.51100000000E-03 0. -1.
         11   -1    0    0    0    0 -0.00000000000E+00 -0.00000000000E+00 -0.45593999997E+02  0.45594000000E+02  0.51100000000E-03 0.  1.
    9900012    2    1    2    0    0  0.20612815782E+02  0.79553492707E+01  0.22990099361E+02  0.59301946229E+02  0.50000004014E+02 0.  0.
        -12    1    1    2    0    0 -0.20612815782E+02 -0.79553492707E+01 -0.22990099361E+02  0.31886053771E+02  0.00000000000E+00 0.  1.
         11    1    3    3    0    0  0.24141622356E+02  0.20356344536E+02  0.79552332753E+01  0.32565079911E+02  0.51100000000E-03 0. -1.
        -11    1    3    3    0    0  0.25403851772E+01 -0.68856658513E+01 -0.21902340111E+01  0.76591824857E+01  0.51100000000E-03 0.  1.
         12    1    3    3    0    0 -0.60691917512E+01 -0.55153294142E+01  0.17225100097E+02  0.19077683832E+02  0.00000000000E+00 0. -1.
</event>
<event>
 7    1  0.6180395E-013  0.5930195E+02  0.7816164E-02  0.1266605E+00
        -11   -1    0    0    0    0  0.00000000000E+00  0.00000000000E+00  0.45593999997E+02  0.45594000000E+02  0.51100000000E-03 0. -1.
         11   -1    0    0    0    0 -0.00000000000E+00 -0.00000000000E+00 -0.45593999997E+02  0.45594000000E+02  0.51100000000E-03 0.  1.
    9900012    2    1    2    0    0 -0.13818541252E+00 -0.17240624410E+02  0.26822786832E+02  0.59301951034E+02  0.50000012777E+02 0.  0.
        -12    1    1    2    0    0  0.13818541252E+00  0.17240624410E+02 -0.26822786832E+02  0.31886048966E+02  0.00000000000E+00 0.  1.
         11    1    3    3    0    0  0.18782617949E+02 -0.46641850455E+01  0.86463481070E+01  0.21196714250E+02  0.51100000000E-03 0. -1.
        -11    1    3    3    0    0 -0.16581073744E+02 -0.96044062442E+01 -0.38159279591E+00  0.19165652589E+02  0.51100000000E-03 0.  1.
         12    1    3    3    0    0 -0.23397296173E+01 -0.29720331209E+01  0.18558031520E+02  0.18939584195E+02  0.00000000000E+00 0. -1.
</event>
<event>
 7    1  0.6180395E-013  0.5930189E+02  0.7816164E-02  0.1266605E+00
        -11   -1    0    0    0    0  0.00000000000E+00  0.00000000000E+00  0.45593999997E+02  0.45594000000E+02  0.51100000000E-03 0.  1.
         11   -1    0    0    0    0 -0.00000000000E+00 -0.00000000000E+00 -0.45593999997E+02  0.45594000000E+02  0.51100000000E-03 0. -1.
    9900012    2    1    2    0    0  0.16327774778E+02  0.43248218684E+01 -0.27044848141E+02  0.59301888221E+02  0.49999898222E+02 0.  0.
        -12    1    1    2    0    0 -0.16327774778E+02 -0.43248218684E+01  0.27044848141E+02  0.31886111779E+02  0.00000000000E+00 0.  1.
         11    1    3    3    0    0  0.57769307779E+00  0.71823512372E+01 -0.19577562258E+02  0.20861467897E+02  0.51100000000E-03 0. -1.
        -11    1    3    3    0    0  0.23304131817E+02 -0.10353041741E+02 -0.10567727941E+00  0.25500572561E+02  0.51100000000E-03 0.  1.
        -12    1    3    3    0    0 -0.75540501163E+01  0.74955123722E+01 -0.73616086041E+01  0.12939847763E+02  0.00000000000E+00 0.  1.
</event>
<event>
 7    1  0.6180395E-013  0.5930194E+02  0.7816164E-02  0.1266605E+00
        -11   -1    0    0    0    0  0.00000000000E+00  0.00000000000E+00  0.45593999997E+02  0.45594000000E+02  0.51100000000E-03 0.  1.
         11   -1    0    0    0    0 -0.00000000000E+00 -0.00000000000E+00 -0.45593999997E+02  0.45594000000E+02  0.51100000000E-03 0. -1.
    9900012    2    1    2    0    0 -0.97973535011E+01 -0.18824487480E+02 -0.23798556708E+02  0.59301940885E+02  0.49999994269E+02 0.  0.
        -12    1    1    2    0    0  0.97973535011E+01  0.18824487480E+02  0.23798556708E+02  0.31886059115E+02  0.00000000000E+00 0.  1.
         11    1    3    3    0    0  0.66595482490E+01 -0.18326979577E+02 -0.23760906677E+02  0.30737736574E+02  0.51100000000E-03 0. -1.
        -11    1    3    3    0    0 -0.89315271313E+01 -0.31152174840E+01  0.11281244165E+02  0.14722201841E+02  0.51100000000E-03 0.  1.
         12    1    3    3    0    0 -0.75253746189E+01  0.26177095804E+01 -0.11318894195E+02  0.13842002471E+02  0.00000000000E+00 0. -1.
</event>
<event>
 7    1  0.6180395E-013  0.5930195E+02  0.7816164E-02  0.1266605E+00
        -11   -1    0    0    0    0  0.00000000000E+00  0.00000000000E+00  0.45593999997E+02  0.45594000000E+02  0.51100000000E-03 0. -1.
         11   -1    0    0    0    0 -0.00000000000E+00 -0.00000000000E+00 -0.45593999997E+02  0.45594000000E+02  0.51100000000E-03 0.  1.
    9900012    2    1    2    0    0  0.60441680552E+01 -0.31305412552E+02  0.39913550025E+00  0.59301950830E+02  0.50000012406E+02 0.  0.
        -12    1    1    2    0    0 -0.60441680552E+01  0.31305412552E+02 -0.39913550025E+00  0.31886049170E+02  0.00000000000E+00 0.  1.
         11    1    3    3    0    0 -0.87665358527E+01 -0.31076309262E+02  0.13386600119E+02  0.34954115798E+02  0.51100000000E-03 0. -1.
        -11    1    3    3    0    0 -0.44707170249E-01  0.26067453047E+01 -0.80139587998E+01  0.84273753756E+01  0.51100000000E-03 0.  1.
         12    1    3    3    0    0  0.14855411078E+02 -0.28358485940E+01 -0.49735058188E+01  0.15920459657E+02  0.00000000000E+00 0. -1.
</event>
<event>
 7    1  0.6180395E-013  0.5930192E+02  0.7816164E-02  0.1266605E+00
        -11   -1    0    0    0    0  0.00000000000E+00  0.00000000000E+00  0.45593999997E+02  0.45594000000E+02  0.51100000000E-03 0.  1.
         11   -1    0    0    0    0 -0.00000000000E+00 -0.00000000000E+00 -0.45593999997E+02  0.45594000000E+02  0.51100000000E-03 0. -1.
    9900012    2    1    2    0    0  0.59324134464E+01 -0.28483539050E+02  0.13046697837E+02  0.59301923877E+02  0.49999963249E+02 0.  0.
        -12    1    1    2    0    0 -0.59324134464E+01  0.28483539050E+02 -0.13046697837E+02  0.31886076123E+02  0.00000000000E+00 0.  1.
         11    1    3    3    0    0 -0.16532857740E+02 -0.60606020188E+01 -0.50383586590E+01  0.18315330740E+02  0.51100000000E-03 0. -1.
        -11    1    3    3    0    0  0.18308737105E+02 -0.24164951241E+02  0.10352222993E+02  0.32036280121E+02  0.51100000000E-03 0.  1.
        -12    1    3    3    0    0  0.41565340822E+01  0.17420142103E+01  0.77328335026E+01  0.89503130149E+01  0.00000000000E+00 0.  1.
</event>
<event>
 7    1  0.6180395E-013  0.5930193E+02  0.7816164E-02  0.1266605E+00
        -11   -1    0    0    0    0  0.00000000000E+00  0.00000000000E+00  0.45593999997E+02  0.45594000000E+02  0.51100000000E-03 0.  1.
         11   -1    0    0    0    0 -0.00000000000E+00 -0.00000000000E+00 -0.45593999997E+02  0.45594000000E+02  0.51100000000E-03 0. -1.
    9900012    2    1    2    0    0 -0.12726653404E+02  0.15557843777E+02 -0.24752927748E+02  0.59301927148E+02  0.49999969215E+02 0.  0.
        -12    1    1    2    0    0  0.12726653404E+02 -0.15557843777E+02  0.24752927748E+02  0.31886072852E+02  0.00000000000E+00 0.  1.
         11    1    3    3    0    0 -0.10113188041E+00  0.93344890585E+01 -0.23446114106E+02  0.25236148291E+02  0.51100000000E-03 0. -1.
        -11    1    3    3    0    0 -0.10248505285E+02  0.15777891049E+02  0.80676106881E+01  0.20470956231E+02  0.51100000000E-03 0.  1.
        -12    1    3    3    0    0 -0.23770162385E+01 -0.95545363314E+01 -0.93744243298E+01  0.13594822626E+02  0.00000000000E+00 0.  1.
</event>
<event>
 7    1  0.6180395E-013  0.5930195E+02  0.7816164E-02  0.1266605E+00
        -11   -1    0    0    0    0  0.00000000000E+00  0.00000000000E+00  0.45593999997E+02  0.45594000000E+02  0.51100000000E-03 0.  1.
         11   -1    0    0    0    0 -0.00000000000E+00 -0.00000000000E+00 -0.45593999997E+02  0.45594000000E+02  0.51100000000E-03 0. -1.
    9900012    2    1    2    0    0  0.13349284765E+02  0.14049164011E+02 -0.25320703428E+02  0.59301946070E+02  0.50000003724E+02 0.  0.
        -12    1    1    2    0    0 -0.13349284765E+02 -0.14049164011E+02  0.25320703428E+02  0.31886053930E+02  0.00000000000E+00 0.  1.
         11    1    3    3    0    0  0.18024900922E+01 -0.12145519265E+02 -0.23221117133E+02  0.26267525386E+02  0.51100000000E-03 0. -1.
        -11    1    3    3    0    0  0.13543422573E+02  0.14773476226E+02  0.31832825286E+01  0.20293180694E+02  0.51100000000E-03 0.  1.
         12    1    3    3    0    0 -0.19966279004E+01  0.11421207050E+02 -0.52828688239E+01  0.12741239989E+02  0.00000000000E+00 0. -1.
</event>
<event>
 7    1  0.6180395E-013  0.5930190E+02  0.7816164E-02  0.1266605E+00
        -11   -1    0    0    0    0  0.00000000000E+00  0.00000000000E+00  0.45593999997E+02  0.45594000000E+02  0.51100000000E-03 0. -1.
         11   -1    0    0    0    0 -0.00000000000E+00 -0.00000000000E+00 -0.45593999997E+02  0.45594000000E+02  0.51100000000E-03 0.  1.
    9900012    2    1    2    0    0 -0.25437490965E+02  0.64498971102E+00  0.19215650085E+02  0.59301903241E+02  0.49999925614E+02 0.  0.
        -12    1    1    2    0    0  0.25437490965E+02 -0.64498971102E+00 -0.19215650085E+02  0.31886096759E+02  0.00000000000E+00 0.  1.
         11    1    3    3    0    0  0.73519620256E+00  0.16907265802E+02 -0.37451800752E+01  0.17332701014E+02  0.51100000000E-03 0.  1.
        -11    1    3    3    0    0 -0.23254066099E+02 -0.57121619325E+01  0.13426122744E+02  0.27452525499E+02  0.51100000000E-03 0. -1.
         12    1    3    3    0    0 -0.29186210688E+01 -0.10550114159E+02  0.95347074165E+01  0.14516676728E+02  0.00000000000E+00 0. -1.
</event>
<event>
 7    1  0.6180395E-013  0.5930194E+02  0.7816164E-02  0.1266605E+00
        -11   -1    0    0    0    0  0.00000000000E+00  0.00000000000E+00  0.45593999997E+02  0.45594000000E+02  0.51100000000E-03 0.  1.
         11   -1    0    0    0    0 -0.00000000000E+00 -0.00000000000E+00 -0.45593999997E+02  0.45594000000E+02  0.51100000000E-03 0. -1.
    9900012    2    1    2    0    0  0.30307910444E+02 -0.81612787465E+01 -0.56164865380E+01  0.59301939922E+02  0.49999992513E+02 0.  0.
        -12    1    1    2    0    0 -0.30307910444E+02  0.81612787465E+01  0.56164865380E+01  0.31886060078E+02  0.00000000000E+00 0.  1.
         11    1    3    3    0    0 -0.58665292233E+01 -0.38451205534E+01 -0.31701066956E+01  0.76974472341E+01  0.51100000000E-03 0. -1.
        -11    1    3    3    0    0  0.17263103222E+02  0.10393860090E+02  0.12168710059E+02  0.23539850577E+02  0.51100000000E-03 0.  1.
        -12    1    3    3    0    0  0.18911336445E+02 -0.14710018283E+02 -0.14615089901E+02  0.28064642112E+02  0.00000000000E+00 0.  1.
</event>
<event>
 7    1  0.6180395E-013  0.5930191E+02  0.7816164E-02  0.1266605E+00
        -11   -1    0    0    0    0  0.00000000000E+00  0.00000000000E+00  0.45593999997E+02  0.45594000000E+02  0.51100000000E-03 0.  1.
         11   -1    0    0    0    0 -0.00000000000E+00 -0.00000000000E+00 -0.45593999997E+02  0.45594000000E+02  0.51100000000E-03 0. -1.
    9900012    2    1    2    0    0 -0.10815813919E+02  0.27636169998E+02 -0.11661187758E+02  0.59301905494E+02  0.49999929724E+02 0.  0.
        -12    1    1    2    0    0  0.10815813919E+02 -0.27636169998E+02  0.11661187758E+02  0.31886094506E+02  0.00000000000E+00 0.  1.
         11    1    3    3    0    0  0.42772516186E+01  0.94848496742E+01 -0.19730611159E+02  0.22305924587E+02  0.51100000000E-03 0. -1.
        -11    1    3    3    0    0 -0.17908329340E+02  0.21573992392E+02  0.28651236450E+00  0.28039748520E+02  0.51100000000E-03 0.  1.
        -12    1    3    3    0    0  0.28152638026E+01 -0.34226720681E+01  0.77829110362E+01  0.89562323865E+01  0.00000000000E+00 0.  1.
</event>
<event>
 7    1  0.6180395E-013  0.5930194E+02  0.7816164E-02  0.1266605E+00
        -11   -1    0    0    0    0  0.00000000000E+00  0.00000000000E+00  0.45593999997E+02  0.45594000000E+02  0.51100000000E-03 0.  1.
         11   -1    0    0    0    0 -0.00000000000E+00 -0.00000000000E+00 -0.45593999997E+02  0.45594000000E+02  0.51100000000E-03 0. -1.
    9900012    2    1    2    0    0 -0.27720575372E+02 -0.24557354724E+01 -0.15564702250E+02  0.59301938911E+02  0.49999990668E+02 0.  0.
        -12    1    1    2    0    0  0.27720575372E+02  0.24557354724E+01  0.15564702250E+02  0.31886061089E+02  0.00000000000E+00 0.  1.
         11    1    3    3    0    0 -0.17474102204E+01 -0.36365592538E+01  0.15296480972E+02  0.15819618708E+02  0.51100000000E-03 0. -1.
        -11    1    3    3    0    0 -0.20140819535E+00  0.24535253094E+00 -0.10812679416E+02  0.10817337914E+02  0.51100000000E-03 0.  1.
         12    1    3    3    0    0 -0.25771756956E+02  0.93547125048E+00 -0.20048503806E+02  0.32664982288E+02  0.00000000000E+00 0. -1.
</event>
<event>
 7    1  0.6180395E-013  0.5930199E+02  0.7816164E-02  0.1266605E+00
        -11   -1    0    0    0    0  0.00000000000E+00  0.00000000000E+00  0.45593999997E+02  0.45594000000E+02  0.51100000000E-03 0.  1.
         11   -1    0    0    0    0 -0.00000000000E+00 -0.00000000000E+00 -0.45593999997E+02  0.45594000000E+02  0.51100000000E-03 0. -1.
    9900012    2    1    2    0    0  0.12567101838E+02  0.19168274589E+02 -0.22166706810E+02  0.59301989116E+02  0.50000082230E+02 0.  0.
        -12    1    1    2    0    0 -0.12567101838E+02 -0.19168274589E+02  0.22166706810E+02  0.31886010884E+02  0.00000000000E+00 0.  1.
         11    1    3    3    0    0 -0.64131808780E+01 -0.17432240651E+01 -0.21915654403E+02  0.22901170871E+02  0.51100000000E-03 0. -1.
        -11    1    3    3    0    0  0.21295301845E+02  0.80611757345E+01  0.29409507510E+01  0.22959129480E+02  0.51100000000E-03 0.  1.
        -12    1    3    3    0    0 -0.23150191285E+01  0.12850322919E+02 -0.31920031577E+01  0.13441688765E+02  0.00000000000E+00 0.  1.
</event>
<event>
 7    1  0.6180395E-013  0.5930194E+02  0.7816164E-02  0.1266605E+00
        -11   -1    0    0    0    0  0.00000000000E+00  0.00000000000E+00  0.45593999997E+02  0.45594000000E+02  0.51100000000E-03 0.  1.
         11   -1    0    0    0    0 -0.00000000000E+00 -0.00000000000E+00 -0.45593999997E+02  0.45594000000E+02  0.51100000000E-03 0. -1.
    9900012    2    1    2    0    0  0.13491774380E+02 -0.23385742266E+02 -0.16964666049E+02  0.59301940171E+02  0.49999992966E+02 0.  0.
        -12    1    1    2    0    0 -0.13491774380E+02  0.23385742266E+02  0.16964666049E+02  0.31886059829E+02  0.00000000000E+00 0.  1.
         11    1    3    3    0    0 -0.27842364075E+00 -0.11636044842E+02 -0.20609596320E+01  0.11820432063E+02  0.51100000000E-03 0. -1.
        -11    1    3    3    0    0  0.23733164003E+01 -0.16070180636E+01 -0.27529397547E+02  0.27678202026E+02  0.51100000000E-03 0.  1.
        -12    1    3    3    0    0  0.11396881620E+02 -0.10142679361E+02  0.12625691130E+02  0.19803306082E+02  0.00000000000E+00 0.  1.
</event>
<event>
 7    1  0.6180395E-013  0.5930209E+02  0.7816164E-02  0.1266604E+00
        -11   -1    0    0    0    0  0.00000000000E+00  0.00000000000E+00  0.45593999997E+02  0.45594000000E+02  0.51100000000E-03 0.  1.
         11   -1    0    0    0    0 -0.00000000000E+00 -0.00000000000E+00 -0.45593999997E+02  0.45594000000E+02  0.51100000000E-03 0. -1.
    9900012    2    1    2    0    0  0.11043136019E+02 -0.73710609568E+01 -0.28990138828E+02  0.59302085523E+02  0.50000258053E+02 0.  0.
        -12    1    1    2    0    0 -0.11043136019E+02  0.73710609568E+01  0.28990138828E+02  0.31885914477E+02  0.00000000000E+00 0.  1.
         11    1    3    3    0    0 -0.17703225803E+01  0.62487865850E+01  0.79621328874E+01  0.10275063805E+02  0.51100000000E-03 0. -1.
        -11    1    3    3    0    0  0.19401559872E+02 -0.91039023235E+01 -0.16428022408E+02  0.27003360596E+02  0.51100000000E-03 0.  1.
         12    1    3    3    0    0 -0.65881012726E+01 -0.45159452183E+01 -0.20524249307E+02  0.22023661122E+02  0.00000000000E+00 0. -1.
</event>
<event>
 7    1  0.6180395E-013  0.5930191E+02  0.7816164E-02  0.1266605E+00
        -11   -1    0    0    0    0  0.00000000000E+00  0.00000000000E+00  0.45593999997E+02  0.45594000000E+02  0.51100000000E-03 0.  1.
         11   -1    0    0    0    0 -0.00000000000E+00 -0.00000000000E+00 -0.45593999997E+02  0.45594000000E+02  0.51100000000E-03 0. -1.
    9900012    2    1    2    0    0  0.27940637052E+02  0.40339170938E+00  0.15358418979E+02  0.59301906522E+02  0.49999931598E+02 0.  0.
        -12    1    1    2    0    0 -0.27940637052E+02 -0.40339170938E+00 -0.15358418979E+02  0.31886093478E+02  0.00000000000E+00 0.  1.
         11    1    3    3    0    0  0.29188705734E+02  0.11809111176E+02 -0.19493693351E+01  0.31547356312E+02  0.51100000000E-03 0. -1.
        -11    1    3    3    0    0 -0.96804075739E+01 -0.80238979902E+01  0.92306021739E+01  0.15597988540E+02  0.51100000000E-03 0.  1.
        -12    1    3    3    0    0  0.84323388920E+01 -0.33818214763E+01  0.80771861400E+01  0.12156561670E+02  0.00000000000E+00 0.  1.
</event>
<event>
 7    1  0.6180395E-013  0.5930193E+02  0.7816164E-02  0.1266605E+00
        -11   -1    0    0    0    0  0.00000000000E+00  0.00000000000E+00  0.45593999997E+02  0.45594000000E+02  0.51100000000E-03 0.  1.
         11   -1    0    0    0    0 -0.00000000000E+00 -0.00000000000E+00 -0.45593999997E+02  0.45594000000E+02  0.51100000000E-03 0. -1.
    9900012    2    1    2    0    0 -0.18020509183E+02 -0.22322650981E+02 -0.13916974591E+02  0.59301926554E+02  0.49999968133E+02 0.  0.
        -12    1    1    2    0    0  0.18020509183E+02  0.22322650981E+02  0.13916974591E+02  0.31886073446E+02  0.00000000000E+00 0.  1.
         11    1    3    3    0    0 -0.24187397753E+02 -0.28209575332E+02  0.59515963739E+01  0.37632855993E+02  0.51100000000E-03 0. -1.
        -11    1    3    3    0    0  0.45285142718E+01  0.40672607309E+01 -0.15640268726E+02  0.16782969268E+02  0.51100000000E-03 0.  1.
         12    1    3    3    0    0  0.16383742987E+01  0.18196636204E+01 -0.42283022387E+01  0.48861012940E+01  0.00000000000E+00 0. -1.
</event>
<event>
 7    1  0.6180395E-013  0.5930197E+02  0.7816164E-02  0.1266605E+00
        -11   -1    0    0    0    0  0.00000000000E+00  0.00000000000E+00  0.45593999997E+02  0.45594000000E+02  0.51100000000E-03 0. -1.
         11   -1    0    0    0    0 -0.00000000000E+00 -0.00000000000E+00 -0.45593999997E+02  0.45594000000E+02  0.51100000000E-03 0.  1.
    9900012    2    1    2    0    0 -0.14041674113E+02 -0.27189317560E+02 -0.89605562203E+01  0.59301965925E+02  0.50000039935E+02 0.  0.
        -12    1    1    2    0    0  0.14041674113E+02  0.27189317560E+02  0.89605562203E+01  0.31886034075E+02  0.00000000000E+00 0.  1.
         11    1    3    3    0    0 -0.16765593049E+02 -0.28585776423E+02 -0.51694316640E+00  0.33143611066E+02  0.51100000000E-03 0. -1.
        -11    1    3    3    0    0  0.16293977707E+01  0.12970572779E+02 -0.53753211784E+01  0.14134524164E+02  0.51100000000E-03 0.  1.
         12    1    3    3    0    0  0.10945211652E+01 -0.11574113916E+02 -0.30682918756E+01  0.12023830694E+02  0.00000000000E+00 0. -1.
</event>
<event>
 7    1  0.6180395E-013  0.5930205E+02  0.7816164E-02  0.1266604E+00
        -11   -1    0    0    0    0  0.00000000000E+00  0.00000000000E+00  0.45593999997E+02  0.45594000000E+02  0.51100000000E-03 0. -1.
         11   -1    0    0    0    0 -0.00000000000E+00 -0.00000000000E+00 -0.45593999997E+02  0.45594000000E+02  0.51100000000E-03 0.  1.
    9900012    2    1    2    0    0 -0.47586681856E+01 -0.22069190902E+02  0.22517102510E+02  0.59302046738E+02  0.50000187319E+02 0.  0.
        -12    1    1    2    0    0  0.47586681856E+01  0.22069190902E+02 -0.22517102510E+02  0.31885953262E+02  0.00000000000E+00 0.  1.
         11    1    3    3    0    0  0.36480869393E+01 -0.67144324051E+01  0.30385144731E+02  0.31331280877E+02  0.51100000000E-03 0. -1.
        -11    1    3    3    0    0 -0.10357674338E+02 -0.95605774147E+01 -0.13602401761E+02  0.19588552578E+02  0.51100000000E-03 0.  1.
        -12    1    3    3    0    0  0.19509192135E+01 -0.57941810818E+01  0.57343595395E+01  0.83822132826E+01  0.00000000000E+00 0.  1.
</event>
<event>
 7    1  0.6180395E-013  0.5930194E+02  0.7816164E-02  0.1266605E+00
        -11   -1    0    0    0    0  0.00000000000E+00  0.00000000000E+00  0.45593999997E+02  0.45594000000E+02  0.51100000000E-03 0. -1.
         11   -1    0    0    0    0 -0.00000000000E+00 -0.00000000000E+00 -0.45593999997E+02  0.45594000000E+02  0.51100000000E-03 0.  1.
    9900012    2    1    2    0    0 -0.19764818916E+02 -0.18605345238E+02  0.16730620672E+02  0.59301943388E+02  0.49999998833E+02 0.  0.
        -12    1    1    2    0    0  0.19764818916E+02  0.18605345238E+02 -0.16730620672E+02  0.31886056612E+02  0.00000000000E+00 0.  1.
         11    1    3    3    0    0  0.44298280302E+01 -0.58567585499E+01  0.64274104312E+01  0.97589242338E+01  0.51100000000E-03 0. -1.
        -11    1    3    3    0    0 -0.18685120006E+02  0.84007800861E+01 -0.70187735657E+01  0.21655715142E+02  0.51100000000E-03 0.  1.
        -12    1    3    3    0    0 -0.55095269406E+01 -0.21149366774E+02  0.17321983806E+02  0.27887304012E+02  0.00000000000E+00 0.  1.
</event>
<event>
 7    1  0.6180395E-013  0.5930195E+02  0.7816164E-02  0.1266605E+00
        -11   -1    0    0    0    0  0.00000000000E+00  0.00000000000E+00  0.45593999997E+02  0.45594000000E+02  0.51100000000E-03 0. -1.
         11   -1    0    0    0    0 -0.00000000000E+00 -0.00000000000E+00 -0.45593999997E+02  0.45594000000E+02  0.51100000000E-03 0.  1.
    9900012    2    1    2    0    0 -0.80912881966E+01 -0.30823755032E+02 -0.10710147896E+01  0.59301954594E+02  0.50000019271E+02 0.  0.
        -12    1    1    2    0    0  0.80912881966E+01  0.30823755032E+02  0.10710147896E+01  0.31886045406E+02  0.00000000000E+00 0.  1.
         11    1    3    3    0    0 -0.15301228789E+02 -0.36262331753E+02 -0.41871000651E+01  0.39580501688E+02  0.51100000000E-03 0. -1.
        -11    1    3    3    0    0  0.56327060375E+01  0.42075032445E+01 -0.66950045950E+01  0.97084266308E+01  0.51100000000E-03 0.  1.
         12    1    3    3    0    0  0.15772345553E+01  0.12310734774E+01  0.98110898704E+01  0.10013026276E+02  0.00000000000E+00 0. -1.
</event>
<event>
 7    1  0.6180395E-013  0.5930196E+02  0.7816164E-02  0.1266605E+00
        -11   -1    0    0    0    0  0.00000000000E+00  0.00000000000E+00  0.45593999997E+02  0.45594000000E+02  0.51100000000E-03 0. -1.
         11   -1    0    0    0    0 -0.00000000000E+00 -0.00000000000E+00 -0.45593999997E+02  0.45594000000E+02  0.51100000000E-03 0.  1.
    9900012    2    1    2    0    0 -0.10936556124E+02 -0.35683857470E+01  0.29738492600E+02  0.59301959499E+02  0.50000028216E+02 0.  0.
        -12    1    1    2    0    0  0.10936556124E+02  0.35683857470E+01 -0.29738492600E+02  0.31886040501E+02  0.00000000000E+00 0.  1.
         11    1    3    3    0    0  0.51363913717E+00 -0.24139681213E+02  0.18935685980E+02  0.30684658023E+02  0.51100000000E-03 0. -1.
        -11    1    3    3    0    0  0.23766610564E+01  0.29223945954E+01  0.86876911367E-01  0.37678184414E+01  0.51100000000E-03 0.  1.
         12    1    3    3    0    0 -0.13826856318E+02  0.17648900870E+02  0.10715929709E+02  0.24849483035E+02  0.00000000000E+00 0. -1.
</event>
<event>
 7    1  0.6180395E-013  0.5930196E+02  0.7816164E-02  0.1266605E+00
        -11   -1    0    0    0    0  0.00000000000E+00  0.00000000000E+00  0.45593999997E+02  0.45594000000E+02  0.51100000000E-03 0.  1.
         11   -1    0    0    0    0 -0.00000000000E+00 -0.00000000000E+00 -0.45593999997E+02  0.45594000000E+02  0.51100000000E-03 0. -1.
    9900012    2    1    2    0    0 -0.35664855236E+01  0.96993201830E+01 -0.30164927538E+02  0.59301960981E+02  0.50000030918E+02 0.  0.
        -12    1    1    2    0    0  0.35664855236E+01 -0.96993201830E+01  0.30164927538E+02  0.31886039019E+02  0.00000000000E+00 0.  1.
         11    1    3    3    0    0  0.66926022910E+01  0.18512358347E+02 -0.21772661538E+02  0.29352123053E+02  0.51100000000E-03 0. -1.
        -11    1    3    3    0    0 -0.18303025400E+02 -0.95075111017E+01 -0.68274442486E+01  0.21725733621E+02  0.51100000000E-03 0.  1.
        -12    1    3    3    0    0  0.80439375851E+01  0.69447293729E+00 -0.15648217508E+01  0.82241043066E+01  0.00000000000E+00 0.  1.
</event>
<event>
 7    1  0.6180395E-013  0.5930195E+02  0.7816164E-02  0.1266605E+00
        -11   -1    0    0    0    0  0.00000000000E+00  0.00000000000E+00  0.45593999997E+02  0.45594000000E+02  0.51100000000E-03 0.  1.
         11   -1    0    0    0    0 -0.00000000000E+00 -0.00000000000E+00 -0.45593999997E+02  0.45594000000E+02  0.51100000000E-03 0. -1.
    9900012    2    1    2    0    0  0.23978907448E+02  0.17393831615E+02 -0.11797741728E+02  0.59301951475E+02  0.50000013582E+02 0.  0.
        -12    1    1    2    0    0 -0.23978907448E+02 -0.17393831615E+02  0.11797741728E+02  0.31886048525E+02  0.00000000000E+00 0.  1.
         11    1    3    3    0    0 -0.23569898611E+01 -0.12260734916E+02 -0.14693873482E+02  0.19281881134E+02  0.51100000000E-03 0. -1.
        -11    1    3    3    0    0  0.69881698331E+01  0.68170962244E+01  0.25360676048E+01  0.10086573140E+02  0.51100000000E-03 0.  1.
         12    1    3    3    0    0  0.19347727476E+02  0.22837470307E+02  0.36006414948E+00  0.29933497201E+02  0.00000000000E+00 0. -1.
</event>
<event>
 7    1  0.6180395E-013  0.5930195E+02  0.7816164E-02  0.1266605E+00
        -11   -1    0    0    0    0  0.00000000000E+00  0.00000000000E+00  0.45593999997E+02  0.45594000000E+02  0.51100000000E-03 0. -1.
         11   -1    0    0    0    0 -0.00000000000E+00 -0.00000000000E+00 -0.45593999997E+02  0.45594000000E+02  0.51100000000E-03 0.  1.
    9900012    2    1    2    0    0  0.31883566934E+02 -0.29783430397E+00 -0.26427605458E+00  0.59301946818E+02  0.50000005089E+02 0.  0.
        -12    1    1    2    0    0 -0.31883566934E+02  0.29783430397E+00  0.26427605458E+00  0.31886053182E+02  0.00000000000E+00 0.  1.
         11    1    3    3    0    0  0.19070388977E+02 -0.13083667830E+02 -0.13083797676E+01  0.23164066083E+02  0.51100000000E-03 0. -1.
        -11    1    3    3    0    0 -0.68089143951E+01  0.84389591641E+01  0.94208984715E+01  0.14364215095E+02  0.51100000000E-03 0.  1.
        -12    1    3    3    0    0  0.19622092352E+02  0.43468743620E+01 -0.83767947585E+01  0.21773665640E+02  0.00000000000E+00 0.  1.
</event>
<event>
 7    1  0.6180395E-013  0.5930190E+02  0.7816164E-02  0.1266605E+00
        -11   -1    0    0    0    0  0.00000000000E+00  0.00000000000E+00  0.45593999997E+02  0.45594000000E+02  0.51100000000E-03 0.  1.
         11   -1    0    0    0    0 -0.00000000000E+00 -0.00000000000E+00 -0.45593999997E+02  0.45594000000E+02  0.51100000000E-03 0. -1.
    9900012    2    1    2    0    0 -0.27359344139E+02 -0.11671400076E+00  0.16376085964E+02  0.59301897613E+02  0.49999915352E+02 0.  0.
        -12    1    1    2    0    0  0.27359344139E+02  0.11671400076E+00 -0.16376085964E+02  0.31886102387E+02  0.00000000000E+00 0.  1.
         11    1    3    3    0    0  0.66736196184E+01 -0.76204177316E+01 -0.89455022540E+01  0.13514065859E+02  0.51100000000E-03 0. -1.
        -11    1    3    3    0    0 -0.25757712911E+02 -0.11401544065E+01  0.14117699676E+02  0.29395053511E+02  0.51100000000E-03 0.  1.
         12    1    3    3    0    0 -0.82752508467E+01  0.86438581374E+01  0.11203888542E+02  0.16392778244E+02  0.00000000000E+00 0. -1.
</event>
